 Entering Gaussian System, Link 0=g16
 Input=mol_bp_cp_whol_tune_c4.gjf
 Output=mol_bp_cp_whol_tune_c4.log
 Initial command:
 /opt/ohpc/pub/libs/gaussian/g16-A.03/sandybridge/g16/l1.exe "/mnt/gpfs2_4m/scratch/rdu230/ondemand/projects/init_structures/gaussian/wtuning/mol_bp_cp_whol/tuning_mol_bp_cp_whol_ocycle0/Gau-51478.inp" -scrdir="/mnt/gpfs2_4m/scratch/rdu230/ondemand/projects/init_structures/gaussian/wtuning/mol_bp_cp_whol/tuning_mol_bp_cp_whol_ocycle0/"
 Entering Link 1 = /opt/ohpc/pub/libs/gaussian/g16-A.03/sandybridge/g16/l1.exe PID=     51479.
  
 Copyright (c) 1988,1990,1992,1993,1995,1998,2003,2009,2016,
            Gaussian, Inc.  All Rights Reserved.
  
 This is part of the Gaussian(R) 16 program.  It is based on
 the Gaussian(R) 09 system (copyright 2009, Gaussian, Inc.),
 the Gaussian(R) 03 system (copyright 2003, Gaussian, Inc.),
 the Gaussian(R) 98 system (copyright 1998, Gaussian, Inc.),
 the Gaussian(R) 94 system (copyright 1995, Gaussian, Inc.),
 the Gaussian 92(TM) system (copyright 1992, Gaussian, Inc.),
 the Gaussian 90(TM) system (copyright 1990, Gaussian, Inc.),
 the Gaussian 88(TM) system (copyright 1988, Gaussian, Inc.),
 the Gaussian 86(TM) system (copyright 1986, Carnegie Mellon
 University), and the Gaussian 82(TM) system (copyright 1983,
 Carnegie Mellon University). Gaussian is a federally registered
 trademark of Gaussian, Inc.
  
 This software contains proprietary and confidential information,
 including trade secrets, belonging to Gaussian, Inc.
  
 This software is provided under written license and may be
 used, copied, transmitted, or stored only in accord with that
 written license.
  
 The following legend is applicable only to US Government
 contracts under FAR:
  
                    RESTRICTED RIGHTS LEGEND
  
 Use, reproduction and disclosure by the US Government is
 subject to restrictions as set forth in subparagraphs (a)
 and (c) of the Commercial Computer Software - Restricted
 Rights clause in FAR 52.227-19.
  
 Gaussian, Inc.
 340 Quinnipiac St., Bldg. 40, Wallingford CT 06492
  
  
 ---------------------------------------------------------------
 Warning -- This program may not be used in any manner that
 competes with the business of Gaussian, Inc. or will provide
 assistance to any competitor of Gaussian, Inc.  The licensee
 of this program is prohibited from giving any competitor of
 Gaussian, Inc. access to this program.  By using this program,
 the user acknowledges that Gaussian, Inc. is engaged in the
 business of creating and licensing software in the field of
 computational chemistry and represents and warrants to the
 licensee that it is not a competitor of Gaussian, Inc. and that
 it will not use this program in any manner prohibited above.
 ---------------------------------------------------------------
  

 Cite this work as:
 Gaussian 16, Revision A.03,
 M. J. Frisch, G. W. Trucks, H. B. Schlegel, G. E. Scuseria, 
 M. A. Robb, J. R. Cheeseman, G. Scalmani, V. Barone, 
 G. A. Petersson, H. Nakatsuji, X. Li, M. Caricato, A. V. Marenich, 
 J. Bloino, B. G. Janesko, R. Gomperts, B. Mennucci, H. P. Hratchian, 
 J. V. Ortiz, A. F. Izmaylov, J. L. Sonnenberg, D. Williams-Young, 
 F. Ding, F. Lipparini, F. Egidi, J. Goings, B. Peng, A. Petrone, 
 T. Henderson, D. Ranasinghe, V. G. Zakrzewski, J. Gao, N. Rega, 
 G. Zheng, W. Liang, M. Hada, M. Ehara, K. Toyota, R. Fukuda, 
 J. Hasegawa, M. Ishida, T. Nakajima, Y. Honda, O. Kitao, H. Nakai, 
 T. Vreven, K. Throssell, J. A. Montgomery, Jr., J. E. Peralta, 
 F. Ogliaro, M. J. Bearpark, J. J. Heyd, E. N. Brothers, K. N. Kudin, 
 V. N. Staroverov, T. A. Keith, R. Kobayashi, J. Normand, 
 K. Raghavachari, A. P. Rendell, J. C. Burant, S. S. Iyengar, 
 J. Tomasi, M. Cossi, J. M. Millam, M. Klene, C. Adamo, R. Cammi, 
 J. W. Ochterski, R. L. Martin, K. Morokuma, O. Farkas, 
 J. B. Foresman, and D. J. Fox, Gaussian, Inc., Wallingford CT, 2016.
 
 ******************************************
 Gaussian 16:  EM64L-G16RevA.03 25-Dec-2016
                26-Jan-2021 
 ******************************************
 %mem=30GB
 %nproc=8
 Will use up to    8 processors via shared memory.
 ----------------------------------------------------------------------
 #P LC-wHPBE/TZVP iop(3/107=0199600000, 3/108=0199600000) scf=(conver=6
 ,fermi,ndamp=35,noincfock,novaracc,vshift=500,xqc)
 ----------------------------------------------------------------------
 1/38=1,172=1/1;
 2/12=2,17=6,18=5,40=1/2;
 3/5=19,7=101,11=2,25=1,30=1,74=-71,107=199600000,108=199600000/1,2,3;
 4//1;
 5/5=100002,6=6,8=3,10=500,13=1,18=-1,22=13,38=1,93=35/2,8;
 6/7=2,8=2,9=2,10=2,28=1/1;
 99/5=1,9=1/99;
 Leave Link    1 at Tue Jan 26 07:31:50 2021, MaxMem=  4026531840 cpu:               1.6 elap:               0.2
 (Enter /opt/ohpc/pub/libs/gaussian/g16-A.03/sandybridge/g16/l101.exe)
 ----------
 H32 C26 N4
 ----------
 Symbolic Z-matrix:
 Charge =  3 Multiplicity = 2
 C                    -2.82396   0.44426   1.1118 
 C                    -3.52491   0.0001    0. 
 C                    -1.4473    0.43809   1.11076 
 C                    -2.82397  -0.44405  -1.11184 
 C                    -0.74022   0.00011  -0.00003 
 C                    -1.44733  -0.43786  -1.11083 
 H                    -0.91446   0.79777   1.98099 
 H                    -3.35536  -0.78359  -1.99104 
 H                    -0.91449  -0.79749  -1.98108 
 C                     0.74023   0.00011  -0.00002 
 C                     1.44738   0.4375   -1.11099 
 C                     1.44726  -0.43732   1.11104 
 C                     2.82403   0.44367  -1.11194 
 C                     2.82391  -0.44354   1.11214 
 C                     3.52491   0.00003   0.00013 
 H                     0.91461   0.79671  -1.98145 
 H                     0.91437  -0.79652   1.98143 
 H                     3.35548   0.7828   -1.99127 
 H                     3.35525  -0.78265   1.99154 
 H                    -3.35532   0.78382   1.99101 
 C                     4.97514   0.00003   0.00015 
 C                     6.14652  -0.56505   0.40804 
 C                     6.14645   0.56505  -0.40802 
 N                     6.78098  -1.4917    1.06686 
 N                     6.78084   1.4916   -1.06704 
 C                     6.05796  -2.59105   1.68458 
 H                     6.15471  -2.5451    2.76836 
 H                     5.00888  -2.54463   1.41084 
 H                     6.46463  -3.53732   1.33227 
 C                     8.22873  -1.51828   1.18614 
 H                     8.49448  -1.77538   2.2091 
 H                     8.65944  -2.25911   0.51335 
 H                     8.64294  -0.53977   0.96883 
 C                     6.05773   2.59109  -1.68442 
 H                     6.15319   2.54465  -2.7683 
 H                     5.00894   2.54539  -1.40943 
 H                     6.46533   3.53727  -1.33296 
 C                     8.22863   1.51811  -1.18629 
 H                     8.49423   1.77961  -2.20815 
 H                     8.65984   2.25583  -0.51039 
 H                     8.64247   0.53843  -0.97354 
 C                    -4.97511   0.00008   0.00003 
 C                    -6.14653   0.56508   0.40792 
 C                    -6.1464   -0.56515  -0.40795 
 N                    -6.78107   1.4917    1.06671 
 N                    -6.78073  -1.49193  -1.0667 
 C                    -6.0582    2.59131   1.68413 
 H                    -6.15455   2.54541   2.76795 
 H                    -5.0092    2.54525   1.41002 
 H                    -6.46532   3.53742   1.33191 
 C                    -8.22886   1.51815   1.1858 
 H                    -8.4947    1.77695   2.2083 
 H                    -8.65972   2.25774   0.51173 
 H                    -8.64281   0.53915   0.9702 
 C                    -6.05756  -2.59137  -1.68411 
 H                    -6.15307  -2.54496  -2.76798 
 H                    -5.00878  -2.54563  -1.40912 
 H                    -6.46512  -3.53756  -1.33261 
 C                    -8.2285   -1.51858  -1.18594 
 H                    -8.49414  -1.77911  -2.20805 
 H                    -8.65952  -2.25704  -0.51073 
 H                    -8.64252  -0.53921  -0.97216 
 
 ITRead=  0  0  0  0  0  0  0  0  0  0  0  0  0  0  0  0  0  0  0  0
 ITRead=  0  0  0  0  0  0  0  0  0  0  0  0  0  0  0  0  0  0  0  0
 ITRead=  0  0  0  0  0  0  0  0  0  0  0  0  0  0  0  0  0  0  0  0
 ITRead=  0  0
 MicOpt= -1 -1 -1 -1 -1 -1 -1 -1 -1 -1 -1 -1 -1 -1 -1 -1 -1 -1 -1 -1
 MicOpt= -1 -1 -1 -1 -1 -1 -1 -1 -1 -1 -1 -1 -1 -1 -1 -1 -1 -1 -1 -1
 MicOpt= -1 -1 -1 -1 -1 -1 -1 -1 -1 -1 -1 -1 -1 -1 -1 -1 -1 -1 -1 -1
 MicOpt= -1 -1
 NAtoms=     62 NQM=       62 NQMF=       0 NMMI=      0 NMMIF=      0
                NMic=       0 NMicF=      0.
                    Isotopes and Nuclear Properties:
 (Nuclear quadrupole moments (NQMom) in fm**2, nuclear magnetic moments (NMagM)
  in nuclear magnetons)

  Atom         1           2           3           4           5           6           7           8           9          10
 IAtWgt=          12          12          12          12          12          12           1           1           1          12
 AtmWgt=  12.0000000  12.0000000  12.0000000  12.0000000  12.0000000  12.0000000   1.0078250   1.0078250   1.0078250  12.0000000
 NucSpn=           0           0           0           0           0           0           1           1           1           0
 AtZEff=  -0.0000000  -0.0000000  -0.0000000  -0.0000000  -0.0000000  -0.0000000  -0.0000000  -0.0000000  -0.0000000  -0.0000000
 NQMom=    0.0000000   0.0000000   0.0000000   0.0000000   0.0000000   0.0000000   0.0000000   0.0000000   0.0000000   0.0000000
 NMagM=    0.0000000   0.0000000   0.0000000   0.0000000   0.0000000   0.0000000   2.7928460   2.7928460   2.7928460   0.0000000
 AtZNuc=   6.0000000   6.0000000   6.0000000   6.0000000   6.0000000   6.0000000   1.0000000   1.0000000   1.0000000   6.0000000

  Atom        11          12          13          14          15          16          17          18          19          20
 IAtWgt=          12          12          12          12          12           1           1           1           1           1
 AtmWgt=  12.0000000  12.0000000  12.0000000  12.0000000  12.0000000   1.0078250   1.0078250   1.0078250   1.0078250   1.0078250
 NucSpn=           0           0           0           0           0           1           1           1           1           1
 AtZEff=  -0.0000000  -0.0000000  -0.0000000  -0.0000000  -0.0000000  -0.0000000  -0.0000000  -0.0000000  -0.0000000  -0.0000000
 NQMom=    0.0000000   0.0000000   0.0000000   0.0000000   0.0000000   0.0000000   0.0000000   0.0000000   0.0000000   0.0000000
 NMagM=    0.0000000   0.0000000   0.0000000   0.0000000   0.0000000   2.7928460   2.7928460   2.7928460   2.7928460   2.7928460
 AtZNuc=   6.0000000   6.0000000   6.0000000   6.0000000   6.0000000   1.0000000   1.0000000   1.0000000   1.0000000   1.0000000

  Atom        21          22          23          24          25          26          27          28          29          30
 IAtWgt=          12          12          12          14          14          12           1           1           1          12
 AtmWgt=  12.0000000  12.0000000  12.0000000  14.0030740  14.0030740  12.0000000   1.0078250   1.0078250   1.0078250  12.0000000
 NucSpn=           0           0           0           2           2           0           1           1           1           0
 AtZEff=  -0.0000000  -0.0000000  -0.0000000  -0.0000000  -0.0000000  -0.0000000  -0.0000000  -0.0000000  -0.0000000  -0.0000000
 NQMom=    0.0000000   0.0000000   0.0000000   2.0440000   2.0440000   0.0000000   0.0000000   0.0000000   0.0000000   0.0000000
 NMagM=    0.0000000   0.0000000   0.0000000   0.4037610   0.4037610   0.0000000   2.7928460   2.7928460   2.7928460   0.0000000
 AtZNuc=   6.0000000   6.0000000   6.0000000   7.0000000   7.0000000   6.0000000   1.0000000   1.0000000   1.0000000   6.0000000

  Atom        31          32          33          34          35          36          37          38          39          40
 IAtWgt=           1           1           1          12           1           1           1          12           1           1
 AtmWgt=   1.0078250   1.0078250   1.0078250  12.0000000   1.0078250   1.0078250   1.0078250  12.0000000   1.0078250   1.0078250
 NucSpn=           1           1           1           0           1           1           1           0           1           1
 AtZEff=  -0.0000000  -0.0000000  -0.0000000  -0.0000000  -0.0000000  -0.0000000  -0.0000000  -0.0000000  -0.0000000  -0.0000000
 NQMom=    0.0000000   0.0000000   0.0000000   0.0000000   0.0000000   0.0000000   0.0000000   0.0000000   0.0000000   0.0000000
 NMagM=    2.7928460   2.7928460   2.7928460   0.0000000   2.7928460   2.7928460   2.7928460   0.0000000   2.7928460   2.7928460
 AtZNuc=   1.0000000   1.0000000   1.0000000   6.0000000   1.0000000   1.0000000   1.0000000   6.0000000   1.0000000   1.0000000

  Atom        41          42          43          44          45          46          47          48          49          50
 IAtWgt=           1          12          12          12          14          14          12           1           1           1
 AtmWgt=   1.0078250  12.0000000  12.0000000  12.0000000  14.0030740  14.0030740  12.0000000   1.0078250   1.0078250   1.0078250
 NucSpn=           1           0           0           0           2           2           0           1           1           1
 AtZEff=  -0.0000000  -0.0000000  -0.0000000  -0.0000000  -0.0000000  -0.0000000  -0.0000000  -0.0000000  -0.0000000  -0.0000000
 NQMom=    0.0000000   0.0000000   0.0000000   0.0000000   2.0440000   2.0440000   0.0000000   0.0000000   0.0000000   0.0000000
 NMagM=    2.7928460   0.0000000   0.0000000   0.0000000   0.4037610   0.4037610   0.0000000   2.7928460   2.7928460   2.7928460
 AtZNuc=   1.0000000   6.0000000   6.0000000   6.0000000   7.0000000   7.0000000   6.0000000   1.0000000   1.0000000   1.0000000

  Atom        51          52          53          54          55          56          57          58          59          60
 IAtWgt=          12           1           1           1          12           1           1           1          12           1
 AtmWgt=  12.0000000   1.0078250   1.0078250   1.0078250  12.0000000   1.0078250   1.0078250   1.0078250  12.0000000   1.0078250
 NucSpn=           0           1           1           1           0           1           1           1           0           1
 AtZEff=  -0.0000000  -0.0000000  -0.0000000  -0.0000000  -0.0000000  -0.0000000  -0.0000000  -0.0000000  -0.0000000  -0.0000000
 NQMom=    0.0000000   0.0000000   0.0000000   0.0000000   0.0000000   0.0000000   0.0000000   0.0000000   0.0000000   0.0000000
 NMagM=    0.0000000   2.7928460   2.7928460   2.7928460   0.0000000   2.7928460   2.7928460   2.7928460   0.0000000   2.7928460
 AtZNuc=   6.0000000   1.0000000   1.0000000   1.0000000   6.0000000   1.0000000   1.0000000   1.0000000   6.0000000   1.0000000

  Atom        61          62
 IAtWgt=           1           1
 AtmWgt=   1.0078250   1.0078250
 NucSpn=           1           1
 AtZEff=  -0.0000000  -0.0000000
 NQMom=    0.0000000   0.0000000
 NMagM=    2.7928460   2.7928460
 AtZNuc=   1.0000000   1.0000000
 Leave Link  101 at Tue Jan 26 07:31:50 2021, MaxMem=  4026531840 cpu:               0.8 elap:               0.1
 (Enter /opt/ohpc/pub/libs/gaussian/g16-A.03/sandybridge/g16/l202.exe)
 Stoichiometry    C26H32N4(3+,2)
 Framework group  C1[X(C26H32N4)]
 Deg. of freedom   180
 Full point group                 C1      NOp   1
 Largest Abelian subgroup         C1      NOp   1
 Largest concise Abelian subgroup C1      NOp   1
                         Standard orientation:                         
 ---------------------------------------------------------------------
 Center     Atomic      Atomic             Coordinates (Angstroms)
 Number     Number       Type             X           Y           Z
 ---------------------------------------------------------------------
      1          6           0        2.823961   -0.444264    1.111805
      2          6           0        3.524911   -0.000100    0.000001
      3          6           0        1.447297   -0.438089    1.110761
      4          6           0        2.823968    0.444049   -1.111840
      5          6           0        0.740218   -0.000107   -0.000031
      6          6           0        1.447325    0.437860   -1.110830
      7          1           0        0.914462   -0.797765    1.980986
      8          1           0        3.355363    0.783593   -1.991035
      9          1           0        0.914491    0.797490   -1.981076
     10          6           0       -0.740229   -0.000109   -0.000016
     11          6           0       -1.447379   -0.437502   -1.110991
     12          6           0       -1.447259    0.437322    1.111037
     13          6           0       -2.824033   -0.443666   -1.111944
     14          6           0       -2.823909    0.443539    1.112143
     15          6           0       -3.524910   -0.000034    0.000126
     16          1           0       -0.914614   -0.796709   -1.981454
     17          1           0       -0.914365    0.796519    1.981427
     18          1           0       -3.355477   -0.782802   -1.991269
     19          1           0       -3.355249    0.782652    1.991539
     20          1           0        3.355316   -0.783824    1.991014
     21          6           0       -4.975135   -0.000032    0.000145
     22          6           0       -6.146520    0.565054    0.408043
     23          6           0       -6.146453   -0.565050   -0.408017
     24          7           0       -6.780980    1.491697    1.066857
     25          7           0       -6.780843   -1.491604   -1.067037
     26          6           0       -6.057956    2.591048    1.684578
     27          1           0       -6.154708    2.545100    2.768364
     28          1           0       -5.008879    2.544629    1.410837
     29          1           0       -6.464629    3.537319    1.332266
     30          6           0       -8.228734    1.518275    1.186143
     31          1           0       -8.494477    1.775383    2.209103
     32          1           0       -8.659441    2.259109    0.513350
     33          1           0       -8.642938    0.539771    0.968827
     34          6           0       -6.057730   -2.591089   -1.684422
     35          1           0       -6.153192   -2.544651   -2.768303
     36          1           0       -5.008941   -2.545387   -1.409434
     37          1           0       -6.465326   -3.537274   -1.332961
     38          6           0       -8.228631   -1.518112   -1.186291
     39          1           0       -8.494234   -1.779605   -2.208151
     40          1           0       -8.659838   -2.255827   -0.510389
     41          1           0       -8.642467   -0.538433   -0.973542
     42          6           0        4.975109   -0.000078    0.000026
     43          6           0        6.146534   -0.565080    0.407916
     44          6           0        6.146403    0.565147   -0.407945
     45          7           0        6.781069   -1.491701    1.066705
     46          7           0        6.780732    1.491927   -1.066700
     47          6           0        6.058202   -2.591312    1.684129
     48          1           0        6.154554   -2.545406    2.767953
     49          1           0        5.009205   -2.545245    1.410016
     50          1           0        6.465319   -3.537423    1.331906
     51          6           0        8.228858   -1.518145    1.185797
     52          1           0        8.494704   -1.776946    2.208295
     53          1           0        8.659724   -2.257735    0.511728
     54          1           0        8.642813   -0.539154    0.970202
     55          6           0        6.057561    2.591370   -1.684106
     56          1           0        6.153074    2.544964   -2.767982
     57          1           0        5.008776    2.545628   -1.409122
     58          1           0        6.465122    3.537559   -1.332610
     59          6           0        8.228499    1.518584   -1.185941
     60          1           0        8.494145    1.779106   -2.208049
     61          1           0        8.659520    2.257040   -0.510729
     62          1           0        8.642516    0.539209   -0.972160
 ---------------------------------------------------------------------
 Rotational constants (GHZ):           0.4108366           0.0399477           0.0392121
 Leave Link  202 at Tue Jan 26 07:31:51 2021, MaxMem=  4026531840 cpu:               0.3 elap:               0.1
 (Enter /opt/ohpc/pub/libs/gaussian/g16-A.03/sandybridge/g16/l301.exe)
 Standard basis: TZVP (5D, 7F)
 Ernie: Thresh=  0.10000D-02 Tol=  0.10000D-05 Strict=F.
 There are   792 symmetry adapted cartesian basis functions of A   symmetry.
 There are   762 symmetry adapted basis functions of A   symmetry.
   762 basis functions,  1306 primitive gaussians,   792 cartesian basis functions
   107 alpha electrons      106 beta electrons
       nuclear repulsion energy      2573.9438951873 Hartrees.
 IExCor=33909 DFT=T Ex+Corr=LC-wHPBE ExCW=0 ScaHFX=  1.000000
 ScaDFX=  1.000000  1.000000  1.000000  1.000000 ScalE2=  1.000000  1.000000
 IRadAn=      5 IRanWt=     -1 IRanGd=            0 ICorTp=0 IEmpDi=  4
 HFx  wShort=  0.000000 wLong=  0.199600 cFull=  0.000000 cShort=  0.000000 cLong=  1.000000
 DFx  wShort=  0.000000 wLong=  0.199600 cFull=  0.000000 cShort=  1.000000 cLong=  0.000000
 NAtoms=   62 NActive=   62 NUniq=   62 SFac= 1.00D+00 NAtFMM=   60 NAOKFM=T Big=T
 Integral buffers will be    131072 words long.
 Raffenetti 2 integral format.
 Two-electron integral symmetry is turned on.
 Leave Link  301 at Tue Jan 26 07:31:51 2021, MaxMem=  4026531840 cpu:               0.4 elap:               0.1
 (Enter /opt/ohpc/pub/libs/gaussian/g16-A.03/sandybridge/g16/l302.exe)
 NPDir=0 NMtPBC=     1 NCelOv=     1 NCel=       1 NClECP=     1 NCelD=      1
         NCelK=      1 NCelE2=     1 NClLst=     1 CellRange=     0.0.
 One-electron integrals computed using PRISM.
 One-electron integral symmetry used in STVInt
 NBasis=   762 RedAO= T EigKep=  6.76D-06  NBF=   762
 NBsUse=   762 1.00D-06 EigRej= -1.00D+00 NBFU=   762
 Precomputing XC quadrature grid using
 IXCGrd= 4 IRadAn=           5 IRanWt=          -1 IRanGd=           0 AccXCQ= 0.00D+00.
 Generated NRdTot=       0 NPtTot=           0 NUsed=           0 NTot=          32
 NSgBfM=   719   719   719   719   719 MxSgAt=    62 MxSgA2=    62.
 Leave Link  302 at Tue Jan 26 07:31:53 2021, MaxMem=  4026531840 cpu:              16.7 elap:               2.1
 (Enter /opt/ohpc/pub/libs/gaussian/g16-A.03/sandybridge/g16/l303.exe)
 DipDrv:  MaxL=1.
 Leave Link  303 at Tue Jan 26 07:31:53 2021, MaxMem=  4026531840 cpu:               1.3 elap:               0.2
 (Enter /opt/ohpc/pub/libs/gaussian/g16-A.03/sandybridge/g16/l401.exe)
 ExpMin= 9.52D-02 ExpMax= 1.97D+04 ExpMxC= 6.73D+02 IAcc=3 IRadAn=         5 AccDes= 0.00D+00
 Harris functional with IExCor=33909 and IRadAn=       5 diagonalized for initial guess.
 HarFok:  IExCor=33909 AccDes= 0.00D+00 IRadAn=         5 IDoV= 1 UseB2=F ITyADJ=14
 ICtDFT=  3500011 ScaDFX=  1.000000  1.000000  1.000000  1.000000
 FoFCou: FMM=F IPFlag=           0 FMFlag=      100000 FMFlg1=        2001
         NFxFlg=           0 DoJE=T BraDBF=F KetDBF=T FulRan=T
         wScrn=  0.000000 ICntrl=       500 IOpCl=  0 I1Cent=   200000004 NGrid=           0
         NMat0=    1 NMatS0=      1 NMatT0=    0 NMatD0=    1 NMtDS0=    0 NMtDT0=    0
 Petite list used in FoFCou.
 Harris En= -1204.86707927293    
 JPrj=0 DoOrth=F DoCkMO=F.
 Initial guess <Sx>= 0.0000 <Sy>= 0.0000 <Sz>= 0.5000 <S**2>= 0.7500 S= 0.5000
 Leave Link  401 at Tue Jan 26 07:32:04 2021, MaxMem=  4026531840 cpu:              84.4 elap:              10.6
 (Enter /opt/ohpc/pub/libs/gaussian/g16-A.03/sandybridge/g16/l502.exe)
 Integral symmetry usage will be decided dynamically.
 UHF open shell SCF:
 Using DIIS extrapolation, IDIIS=    10.
 NGot=  4026531840 LenX=  4025262970 LenY=  4024634914
 Requested convergence on RMS density matrix=1.00D-06 within  32 cycles.
 Requested convergence on MAX density matrix=1.00D-04.
 Requested convergence on             energy=1.00D-04.
 Virtual orbitals will be shifted by   0.500 hartree.
 No special actions if energy rises.
 Dynamic level shift is on during FON iterations.

 Cycle   1  Pass 1  IDiag  1:
 FoFJK:  IHMeth= 1 ICntrl=       0 DoSepK=T KAlg= 0 I1Cent=           0 FoldK=F
 IRaf=         1 NMat=       1 IRICut=       1 DoRegI=T DoRafI=F ISym2E= 0 IDoP0=0 IntGTp=1.
 FoFCou: FMM=T IPFlag=           0 FMFlag=      100000 FMFlg1=        2001
         NFxFlg=           0 DoJE=T BraDBF=F KetDBF=F FulRan=T
         wScrn=  0.000000 ICntrl=       500 IOpCl=  0 I1Cent=           0 NGrid=           0
         NMat0=    1 NMatS0=      1 NMatT0=    0 NMatD0=    1 NMtDS0=    0 NMtDT0=    0
 Symmetry not used in FoFCou.
 FMM levels:  10  Number of levels for PrismC:   9
 E= -1226.78238425586    
 DIIS: error= 2.85D-02 at cycle   1 NSaved=   1.
 NSaved= 1 IEnMin= 1 EnMin= -1226.78238425586     IErMin= 1 ErrMin= 2.85D-02
 ErrMax= 2.85D-02  0.00D+00 EMaxC= 1.00D+00 BMatC= 1.80D+00 BMatP= 1.80D+00
 IDIUse=1 WtCom= 1.00D+00 WtEn= 0.00D+00
 Coeff-Com:  0.100D+01
 Coeff:      0.100D+01
 Gap=     0.356 Goal=   None    Shift=    0.500
 T= 1464. Gap= 0.703 NK=0 IS=  108 IE=  762 IFin=  107
          NO(<0.9)=   0  NV(>0.1)=   0    107.00e < EF      0.00e >EF  Err=0.0D+00
 Gap=     0.068 Goal=   None    Shift=    0.500
 T= 1464. Gap= 0.518 NK=0 IS=  107 IE=  762 IFin=  106
          NO(<0.9)=   0  NV(>0.1)=   0    106.00e < EF      0.00e >EF  Err=0.0D+00
 GapD=    0.068 DampG=0.500 DampE=0.500 DampFc=0.2500 IDamp=-1.
 Damping current iteration by 2.50D-01
 RMSDP=2.62D-03 MaxDP=1.77D-01              OVMax= 1.06D-01

 Cycle   2  Pass 1  IDiag  1:
 E= -1226.92975215657     Delta-E=       -0.147367900709 Rises=F Damp=T
 DIIS: error= 1.99D-02 at cycle   2 NSaved=   2.
 NSaved= 2 IEnMin= 2 EnMin= -1226.92975215657     IErMin= 2 ErrMin= 1.99D-02
 ErrMax= 1.99D-02  0.00D+00 EMaxC= 1.00D+00 BMatC= 8.75D-01 BMatP= 1.80D+00
 IDIUse=1 WtCom= 1.00D+00 WtEn= 0.00D+00
 Coeff-Com: -0.211D+01 0.311D+01
 Coeff:     -0.211D+01 0.311D+01
 Gap=     0.291 Goal=   None    Shift=    0.500
 T= 1401. Gap= 0.763 NK=0 IS=  108 IE=  762 IFin=  107
          NO(<0.9)=   0  NV(>0.1)=   0    107.00e < EF      0.00e >EF  Err=0.0D+00
 Gap=     0.140 Goal=   None    Shift=    0.500
 T= 1401. Gap= 0.565 NK=0 IS=  107 IE=  762 IFin=  106
          NO(<0.9)=   0  NV(>0.1)=   0    106.00e < EF      0.00e >EF  Err=0.0D+00
 GapD=    0.140 DampG=1.000 DampE=0.500 DampFc=0.5000 IDamp=-1.
 Damping current iteration by 5.00D-01
 RMSDP=1.97D-03 MaxDP=1.36D-01 DE=-1.47D-01 OVMax= 2.90D-02

 Cycle   3  Pass 1  IDiag  1:
 E= -1227.09185832349     Delta-E=       -0.162106166926 Rises=F Damp=T
 DIIS: error= 8.96D-03 at cycle   3 NSaved=   3.
 NSaved= 3 IEnMin= 3 EnMin= -1227.09185832349     IErMin= 3 ErrMin= 8.96D-03
 ErrMax= 8.96D-03  0.00D+00 EMaxC= 1.00D+00 BMatC= 1.83D-01 BMatP= 8.75D-01
 IDIUse=1 WtCom= 1.00D+00 WtEn= 0.00D+00
 Coeff-Com:  0.877D-01-0.977D+00 0.189D+01
 Coeff:      0.877D-01-0.977D+00 0.189D+01
 Gap=     0.268 Goal=   None    Shift=    0.500
 T= 1225. Gap= 0.767 NK=0 IS=  108 IE=  762 IFin=  107
          NO(<0.9)=   0  NV(>0.1)=   0    107.00e < EF      0.00e >EF  Err=0.0D+00
 Gap=     0.067 Goal=   None    Shift=    0.500
 T= 1225. Gap= 0.567 NK=0 IS=  107 IE=  762 IFin=  106
          NO(<0.9)=   0  NV(>0.1)=   0    106.00e < EF      0.00e >EF  Err=0.0D+00
 GapD=    0.067 DampG=0.500 DampE=1.000 DampFc=0.5000 IDamp=-1.
 Damping current iteration by 5.00D-01
 RMSDP=9.39D-04 MaxDP=6.55D-02 DE=-1.62D-01 OVMax= 2.54D-02

 Cycle   4  Pass 1  IDiag  1:
 E= -1227.15495185184     Delta-E=       -0.063093528352 Rises=F Damp=T
 DIIS: error= 6.02D-03 at cycle   4 NSaved=   4.
 NSaved= 4 IEnMin= 4 EnMin= -1227.15495185184     IErMin= 4 ErrMin= 6.02D-03
 ErrMax= 6.02D-03  0.00D+00 EMaxC= 1.00D+00 BMatC= 4.09D-02 BMatP= 1.83D-01
 IDIUse=1 WtCom= 1.00D+00 WtEn= 0.00D+00
 Coeff-Com:  0.203D+00-0.399D+00-0.593D+00 0.179D+01
 Coeff:      0.203D+00-0.399D+00-0.593D+00 0.179D+01
 Gap=     0.267 Goal=   None    Shift=    0.500
 T=  927. Gap= 0.767 NK=0 IS=  108 IE=  762 IFin=  107
          NO(<0.9)=   0  NV(>0.1)=   0    107.00e < EF      0.00e >EF  Err=0.0D+00
 Gap=     0.069 Goal=   None    Shift=    0.500
 T=  927. Gap= 0.569 NK=0 IS=  107 IE=  762 IFin=  106
          NO(<0.9)=   0  NV(>0.1)=   0    106.00e < EF      0.00e >EF  Err=0.0D+00
 GapD=    0.069 DampG=0.500 DampE=1.000 DampFc=0.5000 IDamp=-1.
 Damping current iteration by 5.00D-01
 RMSDP=4.83D-04 MaxDP=3.10D-02 DE=-6.31D-02 OVMax= 2.32D-02

 Cycle   5  Pass 1  IDiag  1:
 E= -1227.18330720735     Delta-E=       -0.028355355509 Rises=F Damp=T
 DIIS: error= 4.73D-03 at cycle   5 NSaved=   5.
 NSaved= 5 IEnMin= 5 EnMin= -1227.18330720735     IErMin= 5 ErrMin= 4.73D-03
 ErrMax= 4.73D-03  0.00D+00 EMaxC= 1.00D+00 BMatC= 1.00D-02 BMatP= 4.09D-02
 IDIUse=1 WtCom= 1.00D+00 WtEn= 0.00D+00
 Coeff-Com:  0.132D-01 0.927D-01 0.411D-01-0.195D+01 0.281D+01
 Coeff:      0.132D-01 0.927D-01 0.411D-01-0.195D+01 0.281D+01
 Gap=     0.268 Goal=   None    Shift=    0.500
 T=  585. Gap= 0.768 NK=0 IS=  108 IE=  762 IFin=  107
          NO(<0.9)=   0  NV(>0.1)=   0    107.00e < EF      0.00e >EF  Err=0.0D+00
 Gap=     0.071 Goal=   None    Shift=    0.500
 T=  585. Gap= 0.571 NK=0 IS=  107 IE=  762 IFin=  106
          NO(<0.9)=   0  NV(>0.1)=   0    106.00e < EF      0.00e >EF  Err=0.0D+00
 GapD=    0.071 DampG=0.500 DampE=1.000 DampFc=0.5000 IDamp=-1.
 Damping current iteration by 5.00D-01
 RMSDP=2.68D-04 MaxDP=1.29D-02 DE=-2.84D-02 OVMax= 2.37D-02

 Cycle   6  Pass 1  IDiag  1:
 E= -1227.19714753405     Delta-E=       -0.013840326695 Rises=F Damp=T
 DIIS: error= 4.08D-03 at cycle   6 NSaved=   6.
 NSaved= 6 IEnMin= 6 EnMin= -1227.19714753405     IErMin= 6 ErrMin= 4.08D-03
 ErrMax= 4.08D-03  0.00D+00 EMaxC= 1.00D+00 BMatC= 2.85D-03 BMatP= 1.00D-02
 IDIUse=1 WtCom= 1.00D+00 WtEn= 0.00D+00
 Coeff-Com: -0.762D-01 0.142D+00 0.238D+00-0.172D+00-0.287D+01 0.374D+01
 Coeff:     -0.762D-01 0.142D+00 0.238D+00-0.172D+00-0.287D+01 0.374D+01
 Gap=     0.268 Goal=   None    Shift=    0.500
 T=  414. Gap= 0.768 NK=0 IS=  108 IE=  762 IFin=  107
          NO(<0.9)=   0  NV(>0.1)=   0    107.00e < EF      0.00e >EF  Err=0.0D+00
 Gap=     0.074 Goal=   None    Shift=    0.500
 T=  414. Gap= 0.574 NK=0 IS=  107 IE=  762 IFin=  106
          NO(<0.9)=   0  NV(>0.1)=   0    106.00e < EF      0.00e >EF  Err=0.0D+00
 GapD=    0.074 DampG=0.500 DampE=1.000 DampFc=0.5000 IDamp=-1.
 Damping current iteration by 5.00D-01
 RMSDP=1.93D-04 MaxDP=6.62D-03 DE=-1.38D-02 OVMax= 2.45D-02

 Cycle   7  Pass 1  IDiag  1:
 E= -1227.20428723634     Delta-E=       -0.007139702294 Rises=F Damp=T
 DIIS: error= 3.65D-03 at cycle   7 NSaved=   7.
 NSaved= 7 IEnMin= 7 EnMin= -1227.20428723634     IErMin= 7 ErrMin= 3.65D-03
 ErrMax= 3.65D-03  0.00D+00 EMaxC= 1.00D+00 BMatC= 1.02D-03 BMatP= 2.85D-03
 IDIUse=1 WtCom= 1.00D+00 WtEn= 0.00D+00
 Coeff-Com: -0.221D-01 0.797D-03-0.105D-01 0.888D+00-0.114D+01-0.283D+01
 Coeff-Com:  0.411D+01
 Coeff:     -0.221D-01 0.797D-03-0.105D-01 0.888D+00-0.114D+01-0.283D+01
 Coeff:      0.411D+01
 Gap=     0.269 Goal=   None    Shift=    0.500
 T=  310. Gap= 0.769 NK=0 IS=  108 IE=  762 IFin=  107
          NO(<0.9)=   0  NV(>0.1)=   0    107.00e < EF      0.00e >EF  Err=0.0D+00
 Gap=     0.076 Goal=   None    Shift=    0.500
 T=  310. Gap= 0.577 NK=0 IS=  107 IE=  762 IFin=  106
          NO(<0.9)=   0  NV(>0.1)=   0    106.00e < EF      0.00e >EF  Err=0.0D+00
 GapD=    0.076 DampG=0.500 DampE=1.000 DampFc=0.5000 IDamp=-1.
 Damping current iteration by 5.00D-01
 RMSDP=1.60D-04 MaxDP=6.79D-03 DE=-7.14D-03 OVMax= 2.46D-02

 Cycle   8  Pass 1  IDiag  1:
 E= -1227.20814832718     Delta-E=       -0.003861090835 Rises=F Damp=T
 DIIS: error= 3.28D-03 at cycle   8 NSaved=   8.
 NSaved= 8 IEnMin= 8 EnMin= -1227.20814832718     IErMin= 8 ErrMin= 3.28D-03
 ErrMax= 3.28D-03  0.00D+00 EMaxC= 1.00D+00 BMatC= 4.95D-04 BMatP= 1.02D-03
 IDIUse=1 WtCom= 1.00D+00 WtEn= 0.00D+00
 Coeff-Com:  0.287D-01-0.372D-01-0.193D+00 0.104D+00 0.189D+01-0.123D+01
 Coeff-Com: -0.612D+01 0.656D+01
 Coeff:      0.287D-01-0.372D-01-0.193D+00 0.104D+00 0.189D+01-0.123D+01
 Coeff:     -0.612D+01 0.656D+01
 Gap=     0.268 Goal=   None    Shift=    0.500
 T=  236. Gap= 0.768 NK=0 IS=  108 IE=  762 IFin=  107
          NO(<0.9)=   0  NV(>0.1)=   0    107.00e < EF      0.00e >EF  Err=0.0D+00
 Gap=     0.079 Goal=   None    Shift=    0.500
 T=  236. Gap= 0.580 NK=0 IS=  107 IE=  762 IFin=  106
          NO(<0.9)=   0  NV(>0.1)=   0    106.00e < EF      0.00e >EF  Err=0.0D+00
 GapD=    0.079 DampG=0.500 DampE=1.000 DampFc=0.5000 IDamp=-1.
 Damping current iteration by 5.00D-01
 RMSDP=1.71D-04 MaxDP=8.92D-03 DE=-3.86D-03 OVMax= 2.63D-02

 Cycle   9  Pass 1  IDiag  1:
 E= -1227.21035640597     Delta-E=       -0.002208078794 Rises=F Damp=T
 DIIS: error= 2.99D-03 at cycle   9 NSaved=   9.
 NSaved= 9 IEnMin= 9 EnMin= -1227.21035640597     IErMin= 9 ErrMin= 2.99D-03
 ErrMax= 2.99D-03  0.00D+00 EMaxC= 1.00D+00 BMatC= 3.19D-04 BMatP= 4.95D-04
 IDIUse=1 WtCom= 1.00D+00 WtEn= 0.00D+00
 Coeff-Com:  0.222D-01-0.320D-03-0.160D+00-0.486D+00 0.223D+01 0.992D+00
 Coeff-Com: -0.839D+01 0.519D+01 0.161D+01
 Coeff:      0.222D-01-0.320D-03-0.160D+00-0.486D+00 0.223D+01 0.992D+00
 Coeff:     -0.839D+01 0.519D+01 0.161D+01
 Gap=     0.268 Goal=   None    Shift=    0.500
 T=  173. Gap= 0.768 NK=0 IS=  108 IE=  762 IFin=  107
          NO(<0.9)=   0  NV(>0.1)=   0    107.00e < EF      0.00e >EF  Err=0.0D+00
 Gap=     0.081 Goal=   None    Shift=    0.500
 T=  173. Gap= 0.581 NK=0 IS=  107 IE=  762 IFin=  106
          NO(<0.9)=   0  NV(>0.1)=   0    106.00e < EF      0.00e >EF  Err=0.0D+00
 GapD=    0.081 DampG=0.500 DampE=1.000 DampFc=0.5000 IDamp=-1.
 Damping current iteration by 5.00D-01
 RMSDP=1.44D-04 MaxDP=7.88D-03 DE=-2.21D-03 OVMax= 2.26D-02

 Cycle  10  Pass 1  IDiag  1:
 E= -1227.21170071494     Delta-E=       -0.001344308967 Rises=F Damp=T
 DIIS: error= 2.71D-03 at cycle  10 NSaved=  10.
 NSaved=10 IEnMin=10 EnMin= -1227.21170071494     IErMin=10 ErrMin= 2.71D-03
 ErrMax= 2.71D-03  0.00D+00 EMaxC= 1.00D+00 BMatC= 2.39D-04 BMatP= 3.19D-04
 IDIUse=1 WtCom= 1.00D+00 WtEn= 0.00D+00
 Large coefficients: NSaved= 10 BigCof=   13.92 CofMax=   10.00 Det=-3.28D-07
 Inversion failed.  Reducing to  9 matrices.
 Large coefficients: NSaved=  9 BigCof=   13.17 CofMax=   10.00 Det=-3.57D-07
 Inversion failed.  Reducing to  8 matrices.
 Large coefficients: NSaved=  8 BigCof=   13.44 CofMax=   10.00 Det=-3.82D-07
 Inversion failed.  Reducing to  7 matrices.
 Large coefficients: NSaved=  7 BigCof=   11.95 CofMax=   10.00 Det=-4.44D-07
 Inversion failed.  Reducing to  6 matrices.
 Large coefficients: NSaved=  6 BigCof=   12.27 CofMax=   10.00 Det=-5.18D-07
 Inversion failed.  Reducing to  5 matrices.
 Large coefficients: NSaved=  5 BigCof=   12.18 CofMax=   10.00 Det=-5.19D-07
 Inversion failed.  Reducing to  4 matrices.
 Large coefficients: NSaved=  4 BigCof=   12.39 CofMax=   10.00 Det=-6.67D-07
 Inversion failed.  Reducing to  3 matrices.
 Large coefficients: NSaved=  3 BigCof=   12.41 CofMax=   10.00 Det=-6.67D-07
 Inversion failed.  Reducing to  2 matrices.
 Coeff-Com: -0.208D+01 0.308D+01
 Coeff:     -0.208D+01 0.308D+01
 Gap=     0.268 Goal=   None    Shift=    0.500
 T=  113. Gap= 0.768 NK=0 IS=  108 IE=  762 IFin=  107
          NO(<0.9)=   0  NV(>0.1)=   0    107.00e < EF      0.00e >EF  Err=0.0D+00
 Gap=     0.082 Goal=   None    Shift=    0.500
 T=  113. Gap= 0.582 NK=0 IS=  107 IE=  762 IFin=  106
          NO(<0.9)=   0  NV(>0.1)=   0    106.00e < EF      0.00e >EF  Err=0.0D+00
 GapD=    0.082 DampG=0.500 DampE=1.000 DampFc=0.5000 IDamp=-1.
 Damping current iteration by 5.00D-01
 RMSDP=9.99D-05 MaxDP=5.26D-03 DE=-1.34D-03 OVMax= 1.79D-02

 Cycle  11  Pass 1  IDiag  1:
 E= -1227.21256173845     Delta-E=       -0.000861023506 Rises=F Damp=T
 DIIS: error= 2.41D-03 at cycle  11 NSaved=   3.
 NSaved= 3 IEnMin= 3 EnMin= -1227.21256173845     IErMin= 3 ErrMin= 2.41D-03
 ErrMax= 2.41D-03  0.00D+00 EMaxC= 1.00D+00 BMatC= 1.74D-04 BMatP= 2.39D-04
 IDIUse=1 WtCom= 1.00D+00 WtEn= 0.00D+00
 Coeff-Com: -0.116D+01-0.148D+00 0.231D+01
 Coeff:     -0.116D+01-0.148D+00 0.231D+01
 Gap=     0.267 Goal=   None    Shift=    0.500
 Gap=     0.083 Goal=   None    Shift=    0.500
 GapD=    0.083 DampG=0.500 DampE=1.000 DampFc=0.5000 IDamp=-1.
 Damping current iteration by 5.00D-01
 RMSDP=1.02D-04 MaxDP=5.69D-03 DE=-8.61D-04 OVMax= 1.70D-02

 Cycle  12  Pass 1  IDiag  1:
 E= -1227.21313256225     Delta-E=       -0.000570823809 Rises=F Damp=T
 DIIS: error= 2.18D-03 at cycle  12 NSaved=   4.
 NSaved= 4 IEnMin= 4 EnMin= -1227.21313256225     IErMin= 4 ErrMin= 2.18D-03
 ErrMax= 2.18D-03  0.00D+00 EMaxC= 1.00D+00 BMatC= 1.44D-04 BMatP= 1.74D-04
 IDIUse=1 WtCom= 1.00D+00 WtEn= 0.00D+00
 Coeff-Com:  0.127D+01-0.332D+01-0.282D+01 0.588D+01
 Coeff:      0.127D+01-0.332D+01-0.282D+01 0.588D+01
 Gap=     0.266 Goal=   None    Shift=    0.500
 Gap=     0.088 Goal=   None    Shift=    0.500
 GapD=    0.088 DampG=0.500 DampE=1.000 DampFc=0.5000 IDamp=-1.
 Damping current iteration by 5.00D-01
 RMSDP=1.52D-04 MaxDP=9.44D-03 DE=-5.71D-04 OVMax= 2.39D-02

 Cycle  13  Pass 1  IDiag  1:
 E= -1227.21354416113     Delta-E=       -0.000411598874 Rises=F Damp=T
 DIIS: error= 2.01D-03 at cycle  13 NSaved=   5.
 NSaved= 5 IEnMin= 5 EnMin= -1227.21354416113     IErMin= 5 ErrMin= 2.01D-03
 ErrMax= 2.01D-03  0.00D+00 EMaxC= 1.00D+00 BMatC= 1.53D-04 BMatP= 1.44D-04
 IDIUse=1 WtCom= 1.00D+00 WtEn= 0.00D+00
 Coeff-Com:  0.133D+01-0.351D+01-0.249D+01 0.551D+01 0.169D+00
 Coeff:      0.133D+01-0.351D+01-0.249D+01 0.551D+01 0.169D+00
 Gap=     0.266 Goal=   None    Shift=    0.500
 Gap=     0.089 Goal=   None    Shift=    0.500
 GapD=    0.089 DampG=0.500 DampE=1.000 DampFc=0.5000 IDamp=-1.
 Damping current iteration by 5.00D-01
 RMSDP=1.27D-04 MaxDP=8.01D-03 DE=-4.12D-04 OVMax= 1.86D-02

 Cycle  14  Pass 1  IDiag  1:
 E= -1227.21387041776     Delta-E=       -0.000326256637 Rises=F Damp=T
 DIIS: error= 1.81D-03 at cycle  14 NSaved=   6.
 NSaved= 6 IEnMin= 6 EnMin= -1227.21387041776     IErMin= 6 ErrMin= 1.81D-03
 ErrMax= 1.81D-03  0.00D+00 EMaxC= 1.00D+00 BMatC= 1.60D-04 BMatP= 1.44D-04
 IDIUse=1 WtCom= 1.00D+00 WtEn= 0.00D+00
 Coeff-Com:  0.157D+01-0.357D+01-0.138D+01 0.700D+01-0.849D+01 0.587D+01
 Coeff:      0.157D+01-0.357D+01-0.138D+01 0.700D+01-0.849D+01 0.587D+01
 Gap=     0.265 Goal=   None    Shift=    0.500
 Gap=     0.091 Goal=   None    Shift=    0.500
 GapD=    0.091 DampG=0.500 DampE=1.000 DampFc=0.5000 IDamp=-1.
 Damping current iteration by 5.00D-01
 RMSDP=1.14D-04 MaxDP=7.21D-03 DE=-3.26D-04 OVMax= 1.83D-02

 Cycle  15  Pass 1  IDiag  1:
 E= -1227.21412640125     Delta-E=       -0.000255983486 Rises=F Damp=T
 DIIS: error= 1.61D-03 at cycle  15 NSaved=   7.
 NSaved= 7 IEnMin= 7 EnMin= -1227.21412640125     IErMin= 7 ErrMin= 1.61D-03
 ErrMax= 1.61D-03  0.00D+00 EMaxC= 1.00D+00 BMatC= 1.67D-04 BMatP= 1.44D-04
 IDIUse=1 WtCom= 1.00D+00 WtEn= 0.00D+00
 Large coefficients: NSaved=  7 BigCof=   11.92 CofMax=   10.00 Det=-1.90D-07
 Inversion failed.  Reducing to  6 matrices.
 Large coefficients: NSaved=  6 BigCof=   12.85 CofMax=   10.00 Det=-2.07D-07
 Inversion failed.  Reducing to  5 matrices.
 Large coefficients: NSaved=  5 BigCof=   14.13 CofMax=   10.00 Det=-2.59D-07
 Inversion failed.  Reducing to  4 matrices.
 Large coefficients: NSaved=  4 BigCof=   15.46 CofMax=   10.00 Det=-3.53D-07
 Inversion failed.  Reducing to  3 matrices.
 Coeff-Com:  0.180D+01-0.211D+01 0.131D+01
 Coeff:      0.180D+01-0.211D+01 0.131D+01
 Gap=     0.268 Goal=   None    Shift=    0.500
 Gap=     0.084 Goal=   None    Shift=    0.500
 GapD=    0.084 DampG=0.500 DampE=1.000 DampFc=0.5000 IDamp=-1.
 Damping current iteration by 5.00D-01
 RMSDP=6.87D-05 MaxDP=4.59D-03 DE=-2.56D-04 OVMax= 3.52D-03

 Cycle  16  Pass 1  IDiag  1:
 E= -1227.21432991142     Delta-E=       -0.000203510172 Rises=F Damp=T
 DIIS: error= 1.28D-03 at cycle  16 NSaved=   4.
 NSaved= 4 IEnMin= 4 EnMin= -1227.21432991142     IErMin= 4 ErrMin= 1.28D-03
 ErrMax= 1.28D-03  0.00D+00 EMaxC= 1.00D+00 BMatC= 5.26D-05 BMatP= 1.53D-04
 IDIUse=1 WtCom= 1.00D+00 WtEn= 0.00D+00
 Coeff-Com: -0.241D+00-0.265D+01 0.231D+01 0.158D+01
 Coeff:     -0.241D+00-0.265D+01 0.231D+01 0.158D+01
 Gap=     0.265 Goal=   None    Shift=    0.500
 Gap=     0.091 Goal=   None    Shift=    0.500
 GapD=    0.091 DampG=0.500 DampE=1.000 DampFc=0.5000 IDamp=-1.
 Damping current iteration by 5.00D-01
 RMSDP=7.06D-05 MaxDP=4.24D-03 DE=-2.04D-04 OVMax= 1.53D-02

 Cycle  17  Pass 1  IDiag  1:
 E= -1227.21447169584     Delta-E=       -0.000141784420 Rises=F Damp=T
 DIIS: error= 1.16D-03 at cycle  17 NSaved=   5.
 NSaved= 5 IEnMin= 5 EnMin= -1227.21447169584     IErMin= 5 ErrMin= 1.16D-03
 ErrMax= 1.16D-03  0.00D+00 EMaxC= 1.00D+00 BMatC= 4.36D-05 BMatP= 5.26D-05
 IDIUse=1 WtCom= 1.00D+00 WtEn= 0.00D+00
 Coeff-Com: -0.945D+00-0.661D-01 0.129D+00-0.105D+01 0.294D+01
 Coeff:     -0.945D+00-0.661D-01 0.129D+00-0.105D+01 0.294D+01
 Gap=     0.264 Goal=   None    Shift=    0.500
 Gap=     0.093 Goal=   None    Shift=    0.500
 GapD=    0.093 DampG=0.500 DampE=1.000 DampFc=0.5000 IDamp=-1.
 Damping current iteration by 5.00D-01
 RMSDP=9.65D-05 MaxDP=6.31D-03 DE=-1.42D-04 OVMax= 1.44D-02

 Cycle  18  Pass 1  IDiag  1:
 E= -1227.21457401178     Delta-E=       -0.000102315938 Rises=F Damp=T
 DIIS: error= 1.07D-03 at cycle  18 NSaved=   6.
 NSaved= 6 IEnMin= 6 EnMin= -1227.21457401178     IErMin= 6 ErrMin= 1.07D-03
 ErrMax= 1.07D-03  0.00D+00 EMaxC= 1.00D+00 BMatC= 5.91D-05 BMatP= 4.36D-05
 IDIUse=1 WtCom= 1.00D+00 WtEn= 0.00D+00
 Coeff-Com: -0.627D+00 0.118D+01-0.217D+01 0.726D+00-0.159D+01 0.348D+01
 Coeff:     -0.627D+00 0.118D+01-0.217D+01 0.726D+00-0.159D+01 0.348D+01
 Gap=     0.263 Goal=   None    Shift=    0.500
 Gap=     0.093 Goal=   None    Shift=    0.500
 GapD=    0.093 DampG=0.500 DampE=1.000 DampFc=0.5000 IDamp=-1.
 Damping current iteration by 5.00D-01
 RMSDP=8.28D-05 MaxDP=5.37D-03 DE=-1.02D-04 OVMax= 1.19D-02

 Cycle  19  Pass 1  IDiag  1:
 E= -1227.21465975463     Delta-E=       -0.000085742847 Rises=F Damp=T
 DIIS: error= 9.70D-04 at cycle  19 NSaved=   7.
 NSaved= 7 IEnMin= 7 EnMin= -1227.21465975463     IErMin= 7 ErrMin= 9.70D-04
 ErrMax= 9.70D-04  0.00D+00 EMaxC= 1.00D+00 BMatC= 7.62D-05 BMatP= 4.36D-05
 IDIUse=1 WtCom= 1.00D+00 WtEn= 0.00D+00
 Coeff-Com: -0.131D+00 0.768D+00-0.218D+01 0.803D+00-0.306D+00-0.742D+00
 Coeff-Com:  0.278D+01
 Coeff:     -0.131D+00 0.768D+00-0.218D+01 0.803D+00-0.306D+00-0.742D+00
 Coeff:      0.278D+01
 Gap=     0.263 Goal=   None    Shift=    0.500
 Gap=     0.093 Goal=   None    Shift=    0.500
 RMSDP=6.10D-05 MaxDP=3.76D-03 DE=-8.57D-05 OVMax= 9.57D-03

 Cycle  20  Pass 1  IDiag  1:
 E= -1227.21484737286     Delta-E=       -0.000187618234 Rises=F Damp=F
 DIIS: error= 7.47D-04 at cycle  20 NSaved=   8.
 NSaved= 8 IEnMin= 8 EnMin= -1227.21484737286     IErMin= 8 ErrMin= 7.47D-04
 ErrMax= 7.47D-04  0.00D+00 EMaxC= 1.00D+00 BMatC= 7.77D-05 BMatP= 4.36D-05
 IDIUse=1 WtCom= 1.00D+00 WtEn= 0.00D+00
 Coeff-Com: -0.210D+00 0.205D+00-0.725D+00-0.448D+00 0.187D+01 0.305D+00
 Coeff-Com: -0.213D+01 0.214D+01
 Coeff:     -0.210D+00 0.205D+00-0.725D+00-0.448D+00 0.187D+01 0.305D+00
 Coeff:     -0.213D+01 0.214D+01
 Gap=     0.263 Goal=   None    Shift=    0.500
 Gap=     0.093 Goal=   None    Shift=    0.500
 RMSDP=1.40D-05 MaxDP=1.02D-03 DE=-1.88D-04 OVMax= 7.53D-03

 Cycle  21  Pass 1  IDiag  1:
 E= -1227.21487989579     Delta-E=       -0.000032522928 Rises=F Damp=F
 DIIS: error= 6.10D-04 at cycle  21 NSaved=   9.
 NSaved= 9 IEnMin= 9 EnMin= -1227.21487989579     IErMin= 9 ErrMin= 6.10D-04
 ErrMax= 6.10D-04  0.00D+00 EMaxC= 1.00D+00 BMatC= 5.11D-05 BMatP= 4.36D-05
 IDIUse=1 WtCom= 1.00D+00 WtEn= 0.00D+00
 Coeff-Com: -0.603D+00 0.379D+00 0.760D+00-0.165D+01 0.201D+01 0.302D+01
 Coeff-Com: -0.553D+01-0.185D+01 0.447D+01
 Coeff:     -0.603D+00 0.379D+00 0.760D+00-0.165D+01 0.201D+01 0.302D+01
 Coeff:     -0.553D+01-0.185D+01 0.447D+01
 Gap=     0.263 Goal=   None    Shift=    0.500
 Gap=     0.093 Goal=   None    Shift=    0.500
 RMSDP=1.21D-05 MaxDP=8.56D-04 DE=-3.25D-05 OVMax= 6.37D-03

 Cycle  22  Pass 1  IDiag  1:
 E= -1227.21490183462     Delta-E=       -0.000021938836 Rises=F Damp=F
 DIIS: error= 5.02D-04 at cycle  22 NSaved=  10.
 NSaved=10 IEnMin=10 EnMin= -1227.21490183462     IErMin=10 ErrMin= 5.02D-04
 ErrMax= 5.02D-04  0.00D+00 EMaxC= 1.00D+00 BMatC= 3.70D-05 BMatP= 4.36D-05
 IDIUse=1 WtCom= 1.00D+00 WtEn= 0.00D+00
 Coeff-Com: -0.568D+00 0.639D+00 0.561D-02-0.391D+00-0.156D+00 0.187D+01
 Coeff-Com: -0.875D+00-0.387D+01 0.238D+01 0.196D+01
 Coeff:     -0.568D+00 0.639D+00 0.561D-02-0.391D+00-0.156D+00 0.187D+01
 Coeff:     -0.875D+00-0.387D+01 0.238D+01 0.196D+01
 Gap=     0.263 Goal=   None    Shift=    0.500
 Gap=     0.093 Goal=   None    Shift=    0.500
 RMSDP=9.53D-06 MaxDP=6.81D-04 DE=-2.19D-05 OVMax= 5.16D-03

 Cycle  23  Pass 1  IDiag  1:
 E= -1227.21491649813     Delta-E=       -0.000014663504 Rises=F Damp=F
 DIIS: error= 4.07D-04 at cycle  23 NSaved=  11.
 NSaved=11 IEnMin=11 EnMin= -1227.21491649813     IErMin=11 ErrMin= 4.07D-04
 ErrMax= 4.07D-04  0.00D+00 EMaxC= 1.00D+00 BMatC= 2.57D-05 BMatP= 3.70D-05
 IDIUse=1 WtCom= 1.00D+00 WtEn= 0.00D+00
 Coeff-Com: -0.196D+00 0.459D+00-0.884D+00 0.624D+00-0.985D+00-0.225D+00
 Coeff-Com:  0.274D+01-0.220D+01-0.583D+00 0.226D+00 0.202D+01
 Coeff:     -0.196D+00 0.459D+00-0.884D+00 0.624D+00-0.985D+00-0.225D+00
 Coeff:      0.274D+01-0.220D+01-0.583D+00 0.226D+00 0.202D+01
 Gap=     0.263 Goal=   None    Shift=    0.500
 Gap=     0.093 Goal=   None    Shift=    0.500
 RMSDP=7.58D-06 MaxDP=6.29D-04 DE=-1.47D-05 OVMax= 4.12D-03

 Cycle  24  Pass 1  IDiag  1:
 E= -1227.21492608339     Delta-E=       -0.000009585259 Rises=F Damp=F
 DIIS: error= 3.26D-04 at cycle  24 NSaved=  12.
 NSaved=12 IEnMin=12 EnMin= -1227.21492608339     IErMin=12 ErrMin= 3.26D-04
 ErrMax= 3.26D-04  0.00D+00 EMaxC= 1.00D+00 BMatC= 1.77D-05 BMatP= 2.57D-05
 IDIUse=1 WtCom= 1.00D+00 WtEn= 0.00D+00
 Coeff-Com:  0.218D+00-0.127D+00-0.737D+00 0.266D+00 0.129D+00-0.782D+00
 Coeff-Com:  0.153D+01 0.108D+01-0.162D+01-0.138D+01-0.348D+00 0.277D+01
 Coeff:      0.218D+00-0.127D+00-0.737D+00 0.266D+00 0.129D+00-0.782D+00
 Coeff:      0.153D+01 0.108D+01-0.162D+01-0.138D+01-0.348D+00 0.277D+01
 Gap=     0.263 Goal=   None    Shift=    0.500
 Gap=     0.093 Goal=   None    Shift=    0.500
 RMSDP=5.84D-06 MaxDP=5.49D-04 DE=-9.59D-06 OVMax= 3.18D-03

 Cycle  25  Pass 1  IDiag  1:
 E= -1227.21493243299     Delta-E=       -0.000006349606 Rises=F Damp=F
 DIIS: error= 2.60D-04 at cycle  25 NSaved=  13.
 NSaved=13 IEnMin=13 EnMin= -1227.21493243299     IErMin=13 ErrMin= 2.60D-04
 ErrMax= 2.60D-04  0.00D+00 EMaxC= 1.00D+00 BMatC= 1.17D-05 BMatP= 1.77D-05
 IDIUse=1 WtCom= 1.00D+00 WtEn= 0.00D+00
 Coeff-Com:  0.192D+00-0.378D+00 0.782D-02-0.321D+00 0.865D+00-0.668D-01
 Coeff-Com: -0.702D+00 0.124D+01-0.804D-01-0.108D+01-0.153D+01 0.552D+00
 Coeff-Com:  0.231D+01
 Coeff:      0.192D+00-0.378D+00 0.782D-02-0.321D+00 0.865D+00-0.668D-01
 Coeff:     -0.702D+00 0.124D+01-0.804D-01-0.108D+01-0.153D+01 0.552D+00
 Coeff:      0.231D+01
 Gap=     0.263 Goal=   None    Shift=    0.500
 Gap=     0.093 Goal=   None    Shift=    0.500
 RMSDP=4.59D-06 MaxDP=4.58D-04 DE=-6.35D-06 OVMax= 2.45D-03

 Cycle  26  Pass 1  IDiag  1:
 E= -1227.21493661043     Delta-E=       -0.000004177441 Rises=F Damp=F
 DIIS: error= 2.04D-04 at cycle  26 NSaved=  14.
 NSaved=14 IEnMin=14 EnMin= -1227.21493661043     IErMin=14 ErrMin= 2.04D-04
 ErrMax= 2.04D-04  0.00D+00 EMaxC= 1.00D+00 BMatC= 7.28D-06 BMatP= 1.17D-05
 IDIUse=1 WtCom= 1.00D+00 WtEn= 0.00D+00
 Coeff-Com: -0.446D-02-0.116D+00 0.917D-01-0.260D+00 0.504D+00 0.121D+00
 Coeff-Com: -0.494D+00-0.119D-01 0.710D+00-0.304D+00-0.765D+00-0.727D+00
 Coeff-Com:  0.155D+00 0.210D+01
 Coeff:     -0.446D-02-0.116D+00 0.917D-01-0.260D+00 0.504D+00 0.121D+00
 Coeff:     -0.494D+00-0.119D-01 0.710D+00-0.304D+00-0.765D+00-0.727D+00
 Coeff:      0.155D+00 0.210D+01
 Gap=     0.263 Goal=   None    Shift=    0.500
 Gap=     0.093 Goal=   None    Shift=    0.500
 RMSDP=3.41D-06 MaxDP=3.23D-04 DE=-4.18D-06 OVMax= 1.93D-03

 Cycle  27  Pass 1  IDiag  1:
 E= -1227.21493917960     Delta-E=       -0.000002569168 Rises=F Damp=F
 DIIS: error= 1.60D-04 at cycle  27 NSaved=  15.
 NSaved=15 IEnMin=15 EnMin= -1227.21493917960     IErMin=15 ErrMin= 1.60D-04
 ErrMax= 1.60D-04  0.00D+00 EMaxC= 1.00D+00 BMatC= 4.54D-06 BMatP= 7.28D-06
 IDIUse=1 WtCom= 1.00D+00 WtEn= 0.00D+00
 Coeff-Com: -0.584D-01 0.152D+00-0.248D+00 0.702D-01-0.337D-01-0.266D+00
 Coeff-Com:  0.718D+00-0.449D+00 0.185D-01 0.137D-01 0.348D+00-0.338D-01
 Coeff-Com: -0.158D+01 0.207D+00 0.214D+01
 Coeff:     -0.584D-01 0.152D+00-0.248D+00 0.702D-01-0.337D-01-0.266D+00
 Coeff:      0.718D+00-0.449D+00 0.185D-01 0.137D-01 0.348D+00-0.338D-01
 Coeff:     -0.158D+01 0.207D+00 0.214D+01
 Gap=     0.263 Goal=   None    Shift=    0.500
 Gap=     0.093 Goal=   None    Shift=    0.500
 RMSDP=2.63D-06 MaxDP=2.44D-04 DE=-2.57D-06 OVMax= 1.51D-03

 Cycle  28  Pass 1  IDiag  1:
 E= -1227.21494076226     Delta-E=       -0.000001582659 Rises=F Damp=F
 DIIS: error= 1.24D-04 at cycle  28 NSaved=  16.
 NSaved=16 IEnMin=16 EnMin= -1227.21494076226     IErMin=16 ErrMin= 1.24D-04
 ErrMax= 1.24D-04  0.00D+00 EMaxC= 1.00D+00 BMatC= 2.82D-06 BMatP= 4.54D-06
 IDIUse=1 WtCom= 1.00D+00 WtEn= 0.00D+00
 Coeff-Com:  0.192D-01 0.136D+00-0.398D+00 0.174D+00-0.166D+00-0.304D+00
 Coeff-Com:  0.889D+00 0.948D-01-0.743D+00-0.187D+00 0.349D+00 0.108D+01
 Coeff-Com: -0.617D+00-0.145D+01-0.836D+00 0.296D+01
 Coeff:      0.192D-01 0.136D+00-0.398D+00 0.174D+00-0.166D+00-0.304D+00
 Coeff:      0.889D+00 0.948D-01-0.743D+00-0.187D+00 0.349D+00 0.108D+01
 Coeff:     -0.617D+00-0.145D+01-0.836D+00 0.296D+01
 Gap=     0.263 Goal=   None    Shift=    0.500
 Gap=     0.093 Goal=   None    Shift=    0.500
 RMSDP=2.01D-06 MaxDP=1.74D-04 DE=-1.58D-06 OVMax= 1.16D-03

 Cycle  29  Pass 1  IDiag  1:
 E= -1227.21494170982     Delta-E=       -0.000000947554 Rises=F Damp=F
 DIIS: error= 9.74D-05 at cycle  29 NSaved=  17.
 NSaved=17 IEnMin=17 EnMin= -1227.21494170982     IErMin=17 ErrMin= 9.74D-05
 ErrMax= 9.74D-05  0.00D+00 EMaxC= 1.00D+00 BMatC= 1.77D-06 BMatP= 2.82D-06
 IDIUse=1 WtCom= 1.00D+00 WtEn= 0.00D+00
 Coeff-Com:  0.710D-01-0.163D+00-0.609D-02 0.203D-01 0.127D+00-0.161D+00
 Coeff-Com:  0.166D+00 0.326D+00-0.347D+00-0.365D+00-0.233D+00 0.661D+00
 Coeff-Com:  0.771D+00-0.463D+00-0.203D+01 0.395D-01 0.258D+01
 Coeff:      0.710D-01-0.163D+00-0.609D-02 0.203D-01 0.127D+00-0.161D+00
 Coeff:      0.166D+00 0.326D+00-0.347D+00-0.365D+00-0.233D+00 0.661D+00
 Coeff:      0.771D+00-0.463D+00-0.203D+01 0.395D-01 0.258D+01
 Gap=     0.263 Goal=   None    Shift=    0.500
 Gap=     0.093 Goal=   None    Shift=    0.500
 RMSDP=1.52D-06 MaxDP=1.30D-04 DE=-9.48D-07 OVMax= 8.91D-04

 Cycle  30  Pass 1  IDiag  1:
 E= -1227.21494228113     Delta-E=       -0.000000571310 Rises=F Damp=F
 DIIS: error= 7.60D-05 at cycle  30 NSaved=  18.
 NSaved=18 IEnMin=18 EnMin= -1227.21494228113     IErMin=18 ErrMin= 7.60D-05
 ErrMax= 7.60D-05  0.00D+00 EMaxC= 1.00D+00 BMatC= 1.10D-06 BMatP= 1.77D-06
 IDIUse=1 WtCom= 1.00D+00 WtEn= 0.00D+00
 Coeff-Com:  0.482D-01-0.154D+00 0.751D-01-0.364D-01 0.194D+00-0.146D+00
 Coeff-Com: -0.640D-02 0.191D+00 0.763D-02-0.275D+00-0.375D+00 0.283D+00
 Coeff-Com:  0.547D+00 0.174D+00-0.711D+00-0.674D+00-0.885D+00 0.274D+01
 Coeff:      0.482D-01-0.154D+00 0.751D-01-0.364D-01 0.194D+00-0.146D+00
 Coeff:     -0.640D-02 0.191D+00 0.763D-02-0.275D+00-0.375D+00 0.283D+00
 Coeff:      0.547D+00 0.174D+00-0.711D+00-0.674D+00-0.885D+00 0.274D+01
 Gap=     0.263 Goal=   None    Shift=    0.500
 Gap=     0.093 Goal=   None    Shift=    0.500
 RMSDP=1.18D-06 MaxDP=1.01D-04 DE=-5.71D-07 OVMax= 6.93D-04

 Cycle  31  Pass 1  IDiag  1:
 E= -1227.21494262560     Delta-E=       -0.000000344470 Rises=F Damp=F
 DIIS: error= 5.87D-05 at cycle  31 NSaved=  19.
 NSaved=19 IEnMin=19 EnMin= -1227.21494262560     IErMin=19 ErrMin= 5.87D-05
 ErrMax= 5.87D-05  0.00D+00 EMaxC= 1.00D+00 BMatC= 6.71D-07 BMatP= 1.10D-06
 IDIUse=1 WtCom= 1.00D+00 WtEn= 0.00D+00
 Coeff-Com: -0.113D-01 0.668D-01-0.110D+00-0.350D-01 0.685D-01-0.632D-01
 Coeff-Com:  0.142D+00-0.925D-01 0.105D+00-0.483D-01-0.129D+00 0.163D+00
 Coeff-Com: -0.271D+00 0.833D-01 0.672D+00 0.367D+00-0.230D+01-0.642D+00
 Coeff-Com:  0.303D+01
 Coeff:     -0.113D-01 0.668D-01-0.110D+00-0.350D-01 0.685D-01-0.632D-01
 Coeff:      0.142D+00-0.925D-01 0.105D+00-0.483D-01-0.129D+00 0.163D+00
 Coeff:     -0.271D+00 0.833D-01 0.672D+00 0.367D+00-0.230D+01-0.642D+00
 Coeff:      0.303D+01
 Gap=     0.263 Goal=   None    Shift=    0.500
 Gap=     0.093 Goal=   None    Shift=    0.500
 RMSDP=9.23D-07 MaxDP=8.98D-05 DE=-3.44D-07 OVMax= 5.40D-04

 SCF Done:  E(ULC-wHPBE) =  -1227.21494263     A.U. after   31 cycles
            NFock= 31  Conv=0.92D-06     -V/T= 2.0039
 <Sx>= 0.0000 <Sy>= 0.0000 <Sz>= 0.5000 <S**2>= 0.7738 S= 0.5118
 <L.S>= 0.000000000000E+00
 KE= 1.222446130082D+03 PE=-7.932007727229D+03 EE= 2.908402759334D+03
 Annihilation of the first spin contaminant:
 S**2 before annihilation     0.7738,   after     0.7504
 Leave Link  502 at Tue Jan 26 08:13:19 2021, MaxMem=  4026531840 cpu:           19580.7 elap:            2475.9
 (Enter /opt/ohpc/pub/libs/gaussian/g16-A.03/sandybridge/g16/l508.exe)
 QCSCF skips out because SCF is already converged.
 Leave Link  508 at Tue Jan 26 08:13:20 2021, MaxMem=  4026531840 cpu:               0.1 elap:               0.0
 (Enter /opt/ohpc/pub/libs/gaussian/g16-A.03/sandybridge/g16/l601.exe)
 Copying SCF densities to generalized density rwf, IOpCl= 1 IROHF=0.

 **********************************************************************

            Population analysis using the SCF density.

 **********************************************************************

 Orbital symmetries:
 Alpha Orbitals:
       Occupied  (A) (A) (A) (A) (A) (A) (A) (A) (A) (A) (A) (A)
                 (A) (A) (A) (A) (A) (A) (A) (A) (A) (A) (A) (A)
                 (A) (A) (A) (A) (A) (A) (A) (A) (A) (A) (A) (A)
                 (A) (A) (A) (A) (A) (A) (A) (A) (A) (A) (A) (A)
                 (A) (A) (A) (A) (A) (A) (A) (A) (A) (A) (A) (A)
                 (A) (A) (A) (A) (A) (A) (A) (A) (A) (A) (A) (A)
                 (A) (A) (A) (A) (A) (A) (A) (A) (A) (A) (A) (A)
                 (A) (A) (A) (A) (A) (A) (A) (A) (A) (A) (A) (A)
                 (A) (A) (A) (A) (A) (A) (A) (A) (A) (A) (A)
       Virtual   (A) (A) (A) (A) (A) (A) (A) (A) (A) (A) (A) (A)
                 (A) (A) (A) (A) (A) (A) (A) (A) (A) (A) (A) (A)
                 (A) (A) (A) (A) (A) (A) (A) (A) (A) (A) (A) (A)
                 (A) (A) (A) (A) (A) (A) (A) (A) (A) (A) (A) (A)
                 (A) (A) (A) (A) (A) (A) (A) (A) (A) (A) (A) (A)
                 (A) (A) (A) (A) (A) (A) (A) (A) (A) (A) (A) (A)
                 (A) (A) (A) (A) (A) (A) (A) (A) (A) (A) (A) (A)
                 (A) (A) (A) (A) (A) (A) (A) (A) (A) (A) (A) (A)
                 (A) (A) (A) (A) (A) (A) (A) (A) (A) (A) (A) (A)
                 (A) (A) (A) (A) (A) (A) (A) (A) (A) (A) (A) (A)
                 (A) (A) (A) (A) (A) (A) (A) (A) (A) (A) (A) (A)
                 (A) (A) (A) (A) (A) (A) (A) (A) (A) (A) (A) (A)
                 (A) (A) (A) (A) (A) (A) (A) (A) (A) (A) (A) (A)
                 (A) (A) (A) (A) (A) (A) (A) (A) (A) (A) (A) (A)
                 (A) (A) (A) (A) (A) (A) (A) (A) (A) (A) (A) (A)
                 (A) (A) (A) (A) (A) (A) (A) (A) (A) (A) (A) (A)
                 (A) (A) (A) (A) (A) (A) (A) (A) (A) (A) (A) (A)
                 (A) (A) (A) (A) (A) (A) (A) (A) (A) (A) (A) (A)
                 (A) (A) (A) (A) (A) (A) (A) (A) (A) (A) (A) (A)
                 (A) (A) (A) (A) (A) (A) (A) (A) (A) (A) (A) (A)
                 (A) (A) (A) (A) (A) (A) (A) (A) (A) (A) (A) (A)
                 (A) (A) (A) (A) (A) (A) (A) (A) (A) (A) (A) (A)
                 (A) (A) (A) (A) (A) (A) (A) (A) (A) (A) (A) (A)
                 (A) (A) (A) (A) (A) (A) (A) (A) (A) (A) (A) (A)
                 (A) (A) (A) (A) (A) (A) (A) (A) (A) (A) (A) (A)
                 (A) (A) (A) (A) (A) (A) (A) (A) (A) (A) (A) (A)
                 (A) (A) (A) (A) (A) (A) (A) (A) (A) (A) (A) (A)
                 (A) (A) (A) (A) (A) (A) (A) (A) (A) (A) (A) (A)
                 (A) (A) (A) (A) (A) (A) (A) (A) (A) (A) (A) (A)
                 (A) (A) (A) (A) (A) (A) (A) (A) (A) (A) (A) (A)
                 (A) (A) (A) (A) (A) (A) (A) (A) (A) (A) (A) (A)
                 (A) (A) (A) (A) (A) (A) (A) (A) (A) (A) (A) (A)
                 (A) (A) (A) (A) (A) (A) (A) (A) (A) (A) (A) (A)
                 (A) (A) (A) (A) (A) (A) (A) (A) (A) (A) (A) (A)
                 (A) (A) (A) (A) (A) (A) (A) (A) (A) (A) (A) (A)
                 (A) (A) (A) (A) (A) (A) (A) (A) (A) (A) (A) (A)
                 (A) (A) (A) (A) (A) (A) (A) (A) (A) (A) (A) (A)
                 (A) (A) (A) (A) (A) (A) (A) (A) (A) (A) (A) (A)
                 (A) (A) (A) (A) (A) (A) (A) (A) (A) (A) (A) (A)
                 (A) (A) (A) (A) (A) (A) (A) (A) (A) (A) (A) (A)
                 (A) (A) (A) (A) (A) (A) (A) (A) (A) (A) (A) (A)
                 (A) (A) (A) (A) (A) (A) (A) (A) (A) (A) (A) (A)
                 (A) (A) (A) (A) (A) (A) (A) (A) (A) (A) (A) (A)
                 (A) (A) (A) (A) (A) (A) (A) (A) (A) (A) (A) (A)
                 (A) (A) (A) (A) (A) (A) (A) (A) (A) (A) (A) (A)
                 (A) (A) (A) (A) (A) (A) (A) (A) (A) (A) (A) (A)
                 (A) (A) (A) (A) (A) (A) (A) (A) (A) (A) (A) (A)
                 (A) (A) (A) (A) (A) (A) (A) (A) (A) (A) (A) (A)
                 (A) (A) (A) (A) (A) (A) (A) (A) (A) (A) (A) (A)
                 (A) (A) (A) (A) (A) (A) (A) (A) (A) (A) (A) (A)
                 (A) (A) (A) (A) (A) (A) (A) (A) (A) (A) (A) (A)
                 (A) (A) (A) (A) (A) (A) (A) (A) (A) (A) (A) (A)
                 (A) (A) (A) (A) (A) (A) (A) (A) (A) (A) (A) (A)
                 (A) (A) (A) (A) (A) (A) (A) (A) (A) (A) (A) (A)
                 (A) (A) (A) (A) (A) (A) (A)
 Beta  Orbitals:
       Occupied  (A) (A) (A) (A) (A) (A) (A) (A) (A) (A) (A) (A)
                 (A) (A) (A) (A) (A) (A) (A) (A) (A) (A) (A) (A)
                 (A) (A) (A) (A) (A) (A) (A) (A) (A) (A) (A) (A)
                 (A) (A) (A) (A) (A) (A) (A) (A) (A) (A) (A) (A)
                 (A) (A) (A) (A) (A) (A) (A) (A) (A) (A) (A) (A)
                 (A) (A) (A) (A) (A) (A) (A) (A) (A) (A) (A) (A)
                 (A) (A) (A) (A) (A) (A) (A) (A) (A) (A) (A) (A)
                 (A) (A) (A) (A) (A) (A) (A) (A) (A) (A) (A) (A)
                 (A) (A) (A) (A) (A) (A) (A) (A) (A) (A)
       Virtual   (A) (A) (A) (A) (A) (A) (A) (A) (A) (A) (A) (A)
                 (A) (A) (A) (A) (A) (A) (A) (A) (A) (A) (A) (A)
                 (A) (A) (A) (A) (A) (A) (A) (A) (A) (A) (A) (A)
                 (A) (A) (A) (A) (A) (A) (A) (A) (A) (A) (A) (A)
                 (A) (A) (A) (A) (A) (A) (A) (A) (A) (A) (A) (A)
                 (A) (A) (A) (A) (A) (A) (A) (A) (A) (A) (A) (A)
                 (A) (A) (A) (A) (A) (A) (A) (A) (A) (A) (A) (A)
                 (A) (A) (A) (A) (A) (A) (A) (A) (A) (A) (A) (A)
                 (A) (A) (A) (A) (A) (A) (A) (A) (A) (A) (A) (A)
                 (A) (A) (A) (A) (A) (A) (A) (A) (A) (A) (A) (A)
                 (A) (A) (A) (A) (A) (A) (A) (A) (A) (A) (A) (A)
                 (A) (A) (A) (A) (A) (A) (A) (A) (A) (A) (A) (A)
                 (A) (A) (A) (A) (A) (A) (A) (A) (A) (A) (A) (A)
                 (A) (A) (A) (A) (A) (A) (A) (A) (A) (A) (A) (A)
                 (A) (A) (A) (A) (A) (A) (A) (A) (A) (A) (A) (A)
                 (A) (A) (A) (A) (A) (A) (A) (A) (A) (A) (A) (A)
                 (A) (A) (A) (A) (A) (A) (A) (A) (A) (A) (A) (A)
                 (A) (A) (A) (A) (A) (A) (A) (A) (A) (A) (A) (A)
                 (A) (A) (A) (A) (A) (A) (A) (A) (A) (A) (A) (A)
                 (A) (A) (A) (A) (A) (A) (A) (A) (A) (A) (A) (A)
                 (A) (A) (A) (A) (A) (A) (A) (A) (A) (A) (A) (A)
                 (A) (A) (A) (A) (A) (A) (A) (A) (A) (A) (A) (A)
                 (A) (A) (A) (A) (A) (A) (A) (A) (A) (A) (A) (A)
                 (A) (A) (A) (A) (A) (A) (A) (A) (A) (A) (A) (A)
                 (A) (A) (A) (A) (A) (A) (A) (A) (A) (A) (A) (A)
                 (A) (A) (A) (A) (A) (A) (A) (A) (A) (A) (A) (A)
                 (A) (A) (A) (A) (A) (A) (A) (A) (A) (A) (A) (A)
                 (A) (A) (A) (A) (A) (A) (A) (A) (A) (A) (A) (A)
                 (A) (A) (A) (A) (A) (A) (A) (A) (A) (A) (A) (A)
                 (A) (A) (A) (A) (A) (A) (A) (A) (A) (A) (A) (A)
                 (A) (A) (A) (A) (A) (A) (A) (A) (A) (A) (A) (A)
                 (A) (A) (A) (A) (A) (A) (A) (A) (A) (A) (A) (A)
                 (A) (A) (A) (A) (A) (A) (A) (A) (A) (A) (A) (A)
                 (A) (A) (A) (A) (A) (A) (A) (A) (A) (A) (A) (A)
                 (A) (A) (A) (A) (A) (A) (A) (A) (A) (A) (A) (A)
                 (A) (A) (A) (A) (A) (A) (A) (A) (A) (A) (A) (A)
                 (A) (A) (A) (A) (A) (A) (A) (A) (A) (A) (A) (A)
                 (A) (A) (A) (A) (A) (A) (A) (A) (A) (A) (A) (A)
                 (A) (A) (A) (A) (A) (A) (A) (A) (A) (A) (A) (A)
                 (A) (A) (A) (A) (A) (A) (A) (A) (A) (A) (A) (A)
                 (A) (A) (A) (A) (A) (A) (A) (A) (A) (A) (A) (A)
                 (A) (A) (A) (A) (A) (A) (A) (A) (A) (A) (A) (A)
                 (A) (A) (A) (A) (A) (A) (A) (A) (A) (A) (A) (A)
                 (A) (A) (A) (A) (A) (A) (A) (A) (A) (A) (A) (A)
                 (A) (A) (A) (A) (A) (A) (A) (A) (A) (A) (A) (A)
                 (A) (A) (A) (A) (A) (A) (A) (A) (A) (A) (A) (A)
                 (A) (A) (A) (A) (A) (A) (A) (A) (A) (A) (A) (A)
                 (A) (A) (A) (A) (A) (A) (A) (A) (A) (A) (A) (A)
                 (A) (A) (A) (A) (A) (A) (A) (A) (A) (A) (A) (A)
                 (A) (A) (A) (A) (A) (A) (A) (A) (A) (A) (A) (A)
                 (A) (A) (A) (A) (A) (A) (A) (A) (A) (A) (A) (A)
                 (A) (A) (A) (A) (A) (A) (A) (A) (A) (A) (A) (A)
                 (A) (A) (A) (A) (A) (A) (A) (A) (A) (A) (A) (A)
                 (A) (A) (A) (A) (A) (A) (A) (A) (A) (A) (A) (A)
                 (A) (A) (A) (A) (A) (A) (A) (A)
 The electronic state is 2-A.
 Alpha  occ. eigenvalues --  -14.46428 -14.46427 -14.46425 -14.46423 -10.38466
 Alpha  occ. eigenvalues --  -10.38463 -10.38429 -10.38425 -10.34938 -10.34934
 Alpha  occ. eigenvalues --  -10.33785 -10.33782 -10.32657 -10.32643 -10.30616
 Alpha  occ. eigenvalues --  -10.30615 -10.30614 -10.30613 -10.30428 -10.30428
 Alpha  occ. eigenvalues --  -10.30425 -10.30425 -10.30424 -10.30422 -10.30422
 Alpha  occ. eigenvalues --  -10.30421 -10.30056 -10.30055 -10.30053 -10.30052
 Alpha  occ. eigenvalues --   -1.34247  -1.34244  -1.31253  -1.31249  -1.26442
 Alpha  occ. eigenvalues --   -1.26430  -1.23094  -1.21256  -1.15274  -1.10633
 Alpha  occ. eigenvalues --   -1.10593  -1.09939  -1.06836  -1.06721  -1.06400
 Alpha  occ. eigenvalues --   -1.06393  -1.05681  -1.05677  -1.04707  -1.04520
 Alpha  occ. eigenvalues --   -1.01640  -0.98495  -0.96490  -0.96023  -0.91735
 Alpha  occ. eigenvalues --   -0.91352  -0.89434  -0.89329  -0.89261  -0.88937
 Alpha  occ. eigenvalues --   -0.87050  -0.85526  -0.85206  -0.84859  -0.84698
 Alpha  occ. eigenvalues --   -0.84082  -0.83879  -0.83012  -0.82260  -0.82256
 Alpha  occ. eigenvalues --   -0.81810  -0.80277  -0.79881  -0.78543  -0.78295
 Alpha  occ. eigenvalues --   -0.77910  -0.77707  -0.77070  -0.76413  -0.76343
 Alpha  occ. eigenvalues --   -0.75529  -0.75414  -0.75282  -0.74903  -0.74165
 Alpha  occ. eigenvalues --   -0.73956  -0.73822  -0.73819  -0.73750  -0.73247
 Alpha  occ. eigenvalues --   -0.73235  -0.72889  -0.72869  -0.71827  -0.71682
 Alpha  occ. eigenvalues --   -0.70947  -0.70873  -0.69845  -0.69612  -0.66711
 Alpha  occ. eigenvalues --   -0.65380  -0.65374  -0.63176  -0.63035  -0.62951
 Alpha  occ. eigenvalues --   -0.58698  -0.57627
 Alpha virt. eigenvalues --   -0.31349  -0.27709  -0.25900  -0.25883  -0.21481
 Alpha virt. eigenvalues --   -0.21018  -0.21013  -0.19672  -0.18716  -0.18708
 Alpha virt. eigenvalues --   -0.14997  -0.14915  -0.14641  -0.14133  -0.13362
 Alpha virt. eigenvalues --   -0.13063  -0.12776  -0.12767  -0.12041  -0.12031
 Alpha virt. eigenvalues --   -0.11840  -0.11814  -0.11445  -0.11182  -0.11021
 Alpha virt. eigenvalues --   -0.10844  -0.10356  -0.09912  -0.09875  -0.09628
 Alpha virt. eigenvalues --   -0.08892  -0.08627  -0.08534  -0.08402  -0.08302
 Alpha virt. eigenvalues --   -0.07701  -0.07606  -0.07169  -0.07156  -0.07065
 Alpha virt. eigenvalues --   -0.06845  -0.06779  -0.06656  -0.06522  -0.06492
 Alpha virt. eigenvalues --   -0.05669  -0.05606  -0.05414  -0.04983  -0.04167
 Alpha virt. eigenvalues --   -0.04086  -0.03841  -0.03011  -0.02858  -0.02777
 Alpha virt. eigenvalues --   -0.02364  -0.02104  -0.02080  -0.02020  -0.01732
 Alpha virt. eigenvalues --   -0.01518  -0.00858  -0.00808  -0.00569   0.00701
 Alpha virt. eigenvalues --    0.00859   0.01008   0.01453   0.01592   0.02483
 Alpha virt. eigenvalues --    0.02525   0.02578   0.03025   0.03108   0.03224
 Alpha virt. eigenvalues --    0.03792   0.04306   0.05339   0.05382   0.05480
 Alpha virt. eigenvalues --    0.05730   0.05889   0.06915   0.07003   0.07632
 Alpha virt. eigenvalues --    0.08100   0.08196   0.08437   0.08526   0.09222
 Alpha virt. eigenvalues --    0.09225   0.09632   0.09640   0.10483   0.10532
 Alpha virt. eigenvalues --    0.10624   0.10905   0.10990   0.11525   0.11575
 Alpha virt. eigenvalues --    0.11611   0.12003   0.12819   0.12913   0.13453
 Alpha virt. eigenvalues --    0.13602   0.14066   0.14131   0.14894   0.14923
 Alpha virt. eigenvalues --    0.15398   0.15597   0.16908   0.17232   0.17260
 Alpha virt. eigenvalues --    0.17881   0.17969   0.18062   0.18226   0.18297
 Alpha virt. eigenvalues --    0.18608   0.20120   0.20851   0.21046   0.21230
 Alpha virt. eigenvalues --    0.21852   0.22313   0.22481   0.22590   0.22597
 Alpha virt. eigenvalues --    0.23290   0.23319   0.23562   0.23831   0.23905
 Alpha virt. eigenvalues --    0.24046   0.24352   0.24754   0.24795   0.25267
 Alpha virt. eigenvalues --    0.25406   0.25718   0.25779   0.26358   0.26437
 Alpha virt. eigenvalues --    0.26502   0.26973   0.27080   0.27271   0.27275
 Alpha virt. eigenvalues --    0.27623   0.27852   0.28156   0.28172   0.28622
 Alpha virt. eigenvalues --    0.28929   0.28985   0.29327   0.29963   0.30140
 Alpha virt. eigenvalues --    0.31055   0.31176   0.31548   0.31571   0.31686
 Alpha virt. eigenvalues --    0.31902   0.32060   0.32084   0.32852   0.33113
 Alpha virt. eigenvalues --    0.34378   0.34466   0.35095   0.35182   0.35687
 Alpha virt. eigenvalues --    0.36628   0.36690   0.37292   0.37521   0.38113
 Alpha virt. eigenvalues --    0.38314   0.38373   0.38901   0.40199   0.41180
 Alpha virt. eigenvalues --    0.41361   0.41461   0.42265   0.43037   0.43045
 Alpha virt. eigenvalues --    0.43537   0.43797   0.44144   0.44378   0.44915
 Alpha virt. eigenvalues --    0.44926   0.46381   0.46523   0.46641   0.47172
 Alpha virt. eigenvalues --    0.48339   0.48722   0.48804   0.49157   0.50274
 Alpha virt. eigenvalues --    0.50864   0.51167   0.51859   0.52245   0.52325
 Alpha virt. eigenvalues --    0.53443   0.53528   0.55137   0.55152   0.57166
 Alpha virt. eigenvalues --    0.58196   0.58377   0.60759   0.61539   0.61552
 Alpha virt. eigenvalues --    0.62061   0.62734   0.65623   0.67443   0.67617
 Alpha virt. eigenvalues --    0.67687   0.76630   0.90548   0.90758   0.90882
 Alpha virt. eigenvalues --    0.90923   0.92566   0.96318   0.96994   0.97947
 Alpha virt. eigenvalues --    0.98075   0.98620   0.98889   0.99658   1.00014
 Alpha virt. eigenvalues --    1.00063   1.00091   1.00292   1.01328   1.02707
 Alpha virt. eigenvalues --    1.02952   1.03066   1.03481   1.03767   1.03880
 Alpha virt. eigenvalues --    1.04142   1.04458   1.04552   1.05075   1.05411
 Alpha virt. eigenvalues --    1.05738   1.06307   1.08273   1.08741   1.08896
 Alpha virt. eigenvalues --    1.08919   1.09313   1.09476   1.10357   1.10363
 Alpha virt. eigenvalues --    1.11005   1.11151   1.11396   1.11407   1.11453
 Alpha virt. eigenvalues --    1.11785   1.12627   1.12657   1.13128   1.13349
 Alpha virt. eigenvalues --    1.13888   1.14082   1.14108   1.14132   1.14769
 Alpha virt. eigenvalues --    1.14836   1.16068   1.16370   1.16373   1.16674
 Alpha virt. eigenvalues --    1.17411   1.17972   1.19603   1.19773   1.19815
 Alpha virt. eigenvalues --    1.20582   1.21316   1.21335   1.21562   1.21677
 Alpha virt. eigenvalues --    1.21835   1.21900   1.22226   1.22495   1.22557
 Alpha virt. eigenvalues --    1.23714   1.23867   1.23910   1.24824   1.24963
 Alpha virt. eigenvalues --    1.25026   1.25185   1.25861   1.25904   1.25921
 Alpha virt. eigenvalues --    1.26416   1.27494   1.27786   1.29001   1.29039
 Alpha virt. eigenvalues --    1.29049   1.29231   1.29703   1.29857   1.30088
 Alpha virt. eigenvalues --    1.30162   1.30658   1.31106   1.31328   1.31726
 Alpha virt. eigenvalues --    1.32154   1.32222   1.32418   1.32843   1.33552
 Alpha virt. eigenvalues --    1.33766   1.34294   1.34645   1.34650   1.35418
 Alpha virt. eigenvalues --    1.37280   1.37546   1.37871   1.38307   1.38383
 Alpha virt. eigenvalues --    1.38437   1.39618   1.40881   1.40936   1.41091
 Alpha virt. eigenvalues --    1.41330   1.41803   1.41881   1.42111   1.42734
 Alpha virt. eigenvalues --    1.43327   1.44058   1.44535   1.45547   1.45573
 Alpha virt. eigenvalues --    1.46211   1.47006   1.48136   1.49031   1.49093
 Alpha virt. eigenvalues --    1.49496   1.49755   1.50728   1.51756   1.51773
 Alpha virt. eigenvalues --    1.51892   1.52416   1.53221   1.53244   1.53940
 Alpha virt. eigenvalues --    1.54249   1.54436   1.54506   1.54664   1.54775
 Alpha virt. eigenvalues --    1.55177   1.55254   1.55586   1.55646   1.55880
 Alpha virt. eigenvalues --    1.55965   1.55987   1.56546   1.57168   1.57233
 Alpha virt. eigenvalues --    1.57645   1.57653   1.58539   1.58546   1.58632
 Alpha virt. eigenvalues --    1.59080   1.60527   1.60625   1.61753   1.61899
 Alpha virt. eigenvalues --    1.62039   1.62219   1.62286   1.64212   1.64531
 Alpha virt. eigenvalues --    1.64779   1.64782   1.65302   1.65635   1.66239
 Alpha virt. eigenvalues --    1.66378   1.67630   1.67925   1.68257   1.68448
 Alpha virt. eigenvalues --    1.70002   1.70382   1.71749   1.73561   1.73708
 Alpha virt. eigenvalues --    1.76046   1.76195   1.77751   1.78146   1.79132
 Alpha virt. eigenvalues --    1.79281   1.79789   1.80893   1.81102   1.81109
 Alpha virt. eigenvalues --    1.81626   1.81634   1.86122   1.86293   1.86425
 Alpha virt. eigenvalues --    1.86600   1.87152   1.87754   1.89373   1.90382
 Alpha virt. eigenvalues --    1.90713   1.91545   1.92321   1.92499   1.92552
 Alpha virt. eigenvalues --    1.93207   1.93771   1.95898   1.96439   1.97085
 Alpha virt. eigenvalues --    1.97276   1.98245   2.01767   2.02946   2.04013
 Alpha virt. eigenvalues --    2.04027   2.04059   2.04399   2.04536   2.05218
 Alpha virt. eigenvalues --    2.05555   2.05597   2.05777   2.06292   2.06953
 Alpha virt. eigenvalues --    2.07023   2.07303   2.07472   2.07998   2.08363
 Alpha virt. eigenvalues --    2.08832   2.09211   2.09457   2.10206   2.10724
 Alpha virt. eigenvalues --    2.10774   2.10958   2.11452   2.11601   2.11711
 Alpha virt. eigenvalues --    2.11993   2.12006   2.12482   2.12938   2.13342
 Alpha virt. eigenvalues --    2.13618   2.13943   2.19574   2.20652   2.20772
 Alpha virt. eigenvalues --    2.20918   2.21204   2.22079   2.22321   2.22506
 Alpha virt. eigenvalues --    2.22723   2.25947   2.27242   2.27582   2.27806
 Alpha virt. eigenvalues --    2.27977   2.28389   2.28668   2.29286   2.29302
 Alpha virt. eigenvalues --    2.30318   2.30395   2.30748   2.31003   2.31698
 Alpha virt. eigenvalues --    2.32010   2.33591   2.33896   2.33902   2.34209
 Alpha virt. eigenvalues --    2.34681   2.35591   2.35774   2.36291   2.36425
 Alpha virt. eigenvalues --    2.37446   2.38178   2.39564   2.39802   2.40206
 Alpha virt. eigenvalues --    2.41098   2.41363   2.41762   2.41972   2.43360
 Alpha virt. eigenvalues --    2.43463   2.43557   2.44634   2.44925   2.46134
 Alpha virt. eigenvalues --    2.47273   2.47362   2.48557   2.48742   2.49677
 Alpha virt. eigenvalues --    2.49835   2.50227   2.50318   2.50581   2.51893
 Alpha virt. eigenvalues --    2.52025   2.53496   2.53594   2.53896   2.55676
 Alpha virt. eigenvalues --    2.55796   2.56579   2.57669   2.58128   2.60620
 Alpha virt. eigenvalues --    2.61600   2.61655   2.62524   2.62711   2.64123
 Alpha virt. eigenvalues --    2.64249   2.70006   2.70184   2.75090   2.75192
 Alpha virt. eigenvalues --    2.76282   2.76459   2.78291   2.78980   2.80747
 Alpha virt. eigenvalues --    2.81394   2.83373   2.86166   2.86268   2.86543
 Alpha virt. eigenvalues --    2.87621   2.87655   2.88662   2.88786   2.89868
 Alpha virt. eigenvalues --    2.90179   2.90282   2.90987   2.91854   2.92549
 Alpha virt. eigenvalues --    2.96790   2.97272   2.97617   2.97630   2.99948
 Alpha virt. eigenvalues --    3.01746   3.03060   3.05737   3.05862   3.06383
 Alpha virt. eigenvalues --    3.06608   3.06670   3.07131   3.07153   3.07305
 Alpha virt. eigenvalues --    3.07639   3.09022   3.09063   3.09708   3.10694
 Alpha virt. eigenvalues --    3.12369   3.12404   3.12971   3.14165   3.15454
 Alpha virt. eigenvalues --    3.15974   3.16383   3.18611   3.19171   3.19441
 Alpha virt. eigenvalues --    3.19459   3.20773   3.21043   3.31988   3.33549
 Alpha virt. eigenvalues --    3.39220   3.44709   3.47061   3.47558   3.56035
 Alpha virt. eigenvalues --    3.56500   3.56571   3.60677   3.72663   3.72781
 Alpha virt. eigenvalues --   20.92748  21.04522  21.24133  21.24444  21.29394
 Alpha virt. eigenvalues --   21.41273  21.42589  21.44775  21.52867  21.53783
 Alpha virt. eigenvalues --   21.53877  21.58297  21.60741  21.68523  21.69954
 Alpha virt. eigenvalues --   21.70399  21.71522  21.72996  21.74095  21.74191
 Alpha virt. eigenvalues --   21.81889  21.84563  21.91230  21.92191  21.95088
 Alpha virt. eigenvalues --   21.95340  31.37600  31.37903  31.52018  31.52283
  Beta  occ. eigenvalues --  -14.46212 -14.46211 -14.46209 -14.46207 -10.38482
  Beta  occ. eigenvalues --  -10.38478 -10.38445 -10.38441 -10.34932 -10.34927
  Beta  occ. eigenvalues --  -10.33606 -10.33603 -10.32530 -10.32515 -10.30625
  Beta  occ. eigenvalues --  -10.30624 -10.30623 -10.30622 -10.30433 -10.30432
  Beta  occ. eigenvalues --  -10.30430 -10.30429 -10.30362 -10.30360 -10.30360
  Beta  occ. eigenvalues --  -10.30359 -10.30061 -10.30060 -10.30058 -10.30057
  Beta  occ. eigenvalues --   -1.34025  -1.34022  -1.30948  -1.30945  -1.26166
  Beta  occ. eigenvalues --   -1.26153  -1.22810  -1.21001  -1.14913  -1.10542
  Beta  occ. eigenvalues --   -1.10200  -1.09865  -1.06784  -1.06656  -1.06348
  Beta  occ. eigenvalues --   -1.06342  -1.05633  -1.05629  -1.04645  -1.04437
  Beta  occ. eigenvalues --   -1.01563  -0.98328  -0.96343  -0.95827  -0.91642
  Beta  occ. eigenvalues --   -0.91257  -0.89309  -0.89199  -0.89150  -0.88815
  Beta  occ. eigenvalues --   -0.86962  -0.85300  -0.84880  -0.84771  -0.84504
  Beta  occ. eigenvalues --   -0.83998  -0.83761  -0.82874  -0.81863  -0.81859
  Beta  occ. eigenvalues --   -0.81592  -0.80146  -0.79782  -0.78507  -0.78065
  Beta  occ. eigenvalues --   -0.77569  -0.77522  -0.76979  -0.76326  -0.76233
  Beta  occ. eigenvalues --   -0.75490  -0.75373  -0.74843  -0.74598  -0.74027
  Beta  occ. eigenvalues --   -0.73797  -0.73713  -0.73709  -0.73608  -0.73215
  Beta  occ. eigenvalues --   -0.73206  -0.72805  -0.72414  -0.71789  -0.71653
  Beta  occ. eigenvalues --   -0.70843  -0.70801  -0.69784  -0.69491  -0.65355
  Beta  occ. eigenvalues --   -0.64530  -0.64527  -0.62888  -0.62832  -0.60496
  Beta  occ. eigenvalues --   -0.55030
  Beta virt. eigenvalues --   -0.45723  -0.30779  -0.26900  -0.25476  -0.25302
  Beta virt. eigenvalues --   -0.20879  -0.20538  -0.20535  -0.19014  -0.18661
  Beta virt. eigenvalues --   -0.18655  -0.14967  -0.14878  -0.14618  -0.14094
  Beta virt. eigenvalues --   -0.13317  -0.13000  -0.12701  -0.12688  -0.12006
  Beta virt. eigenvalues --   -0.11918  -0.11761  -0.11599  -0.11401  -0.11124
  Beta virt. eigenvalues --   -0.10986  -0.10801  -0.10301  -0.09777  -0.09700
  Beta virt. eigenvalues --   -0.09502  -0.08847  -0.08571  -0.08469  -0.08359
  Beta virt. eigenvalues --   -0.08251  -0.07588  -0.07539  -0.07068  -0.07045
  Beta virt. eigenvalues --   -0.06938  -0.06782  -0.06713  -0.06551  -0.06431
  Beta virt. eigenvalues --   -0.06331  -0.05618  -0.05560  -0.05308  -0.04877
  Beta virt. eigenvalues --   -0.04101  -0.04032  -0.03781  -0.02959  -0.02807
  Beta virt. eigenvalues --   -0.02666  -0.02309  -0.02028  -0.01982  -0.01924
  Beta virt. eigenvalues --   -0.01654  -0.01464  -0.00816  -0.00766  -0.00447
  Beta virt. eigenvalues --    0.00750   0.00905   0.01114   0.01505   0.01645
  Beta virt. eigenvalues --    0.02568   0.02657   0.02657   0.03133   0.03205
  Beta virt. eigenvalues --    0.03319   0.03865   0.04399   0.05405   0.05443
  Beta virt. eigenvalues --    0.05575   0.05813   0.05944   0.06997   0.07123
  Beta virt. eigenvalues --    0.07767   0.08183   0.08307   0.08590   0.08592
  Beta virt. eigenvalues --    0.09298   0.09364   0.09705   0.09711   0.10588
  Beta virt. eigenvalues --    0.10635   0.10706   0.10982   0.11038   0.11609
  Beta virt. eigenvalues --    0.11666   0.11693   0.12127   0.12913   0.12971
  Beta virt. eigenvalues --    0.13649   0.13766   0.14176   0.14268   0.14977
  Beta virt. eigenvalues --    0.15007   0.15500   0.15690   0.16985   0.17296
  Beta virt. eigenvalues --    0.17336   0.17993   0.18053   0.18102   0.18351
  Beta virt. eigenvalues --    0.18390   0.18707   0.20238   0.21055   0.21167
  Beta virt. eigenvalues --    0.21318   0.21939   0.22444   0.22555   0.22681
  Beta virt. eigenvalues --    0.22697   0.23351   0.23363   0.23659   0.23884
  Beta virt. eigenvalues --    0.23964   0.24137   0.24456   0.24859   0.24862
  Beta virt. eigenvalues --    0.25363   0.25495   0.25837   0.25842   0.26457
  Beta virt. eigenvalues --    0.26517   0.26584   0.27068   0.27179   0.27331
  Beta virt. eigenvalues --    0.27348   0.27716   0.27912   0.28238   0.28262
  Beta virt. eigenvalues --    0.28684   0.29035   0.29060   0.29405   0.30051
  Beta virt. eigenvalues --    0.30234   0.31128   0.31260   0.31646   0.31650
  Beta virt. eigenvalues --    0.31812   0.32059   0.32158   0.32223   0.32944
  Beta virt. eigenvalues --    0.33199   0.34455   0.34574   0.35149   0.35273
  Beta virt. eigenvalues --    0.35742   0.36733   0.36801   0.37369   0.37590
  Beta virt. eigenvalues --    0.38203   0.38377   0.38477   0.38997   0.40246
  Beta virt. eigenvalues --    0.41292   0.41422   0.41591   0.42379   0.43149
  Beta virt. eigenvalues --    0.43159   0.43616   0.43899   0.44242   0.44491
  Beta virt. eigenvalues --    0.45014   0.45043   0.46428   0.46638   0.46715
  Beta virt. eigenvalues --    0.47314   0.48463   0.48806   0.48888   0.49213
  Beta virt. eigenvalues --    0.50364   0.50961   0.51268   0.51917   0.52348
  Beta virt. eigenvalues --    0.52396   0.53476   0.53568   0.55244   0.55288
  Beta virt. eigenvalues --    0.57241   0.58305   0.58491   0.60864   0.61596
  Beta virt. eigenvalues --    0.61639   0.62142   0.62793   0.65711   0.67494
  Beta virt. eigenvalues --    0.67691   0.67771   0.76775   0.90640   0.90856
[...]
    50   Atom       -0.000408     -0.000167     -0.000627
    51   Atom        0.000303      0.001594      0.002962
    52   Atom       -0.000538      0.001678     -0.001023
    53   Atom       -0.001676     -0.000931      0.000567
    54   Atom        0.001069      0.000118     -0.000773
    55   Atom       -0.001995      0.000366      0.002239
    56   Atom       -0.000344      0.000313     -0.001866
    57   Atom       -0.000406      0.000046     -0.000882
    58   Atom        0.000409      0.000167     -0.000629
    59   Atom       -0.000302     -0.001594      0.002961
    60   Atom        0.000540     -0.001678     -0.001025
    61   Atom        0.001674      0.000933      0.000568
    62   Atom       -0.001070     -0.000120     -0.000773
 --------------------------------------------------------


 ---------------------------------------------------------------------------------
              Anisotropic Spin Dipole Couplings in Principal Axis System
 ---------------------------------------------------------------------------------

       Atom             a.u.   MegaHertz   Gauss  10(-4) cm-1        Axes

              Baa    -0.0144    -1.928    -0.688    -0.643 -0.5823  0.7569  0.2968
     1 C(13)  Bbb     0.0006     0.077     0.027     0.026  0.0983 -0.2968  0.9499
              Bcc     0.0138     1.851     0.661     0.617  0.8070  0.5822  0.0984
 
              Baa    -0.0783   -10.512    -3.751    -3.506  0.0000 -0.4226  0.9063
     2 C(13)  Bbb    -0.0746   -10.011    -3.572    -3.339  1.0000  0.0000  0.0000
              Bcc     0.1529    20.523     7.323     6.846 -0.0000  0.9063  0.4226
 
              Baa    -0.0306    -4.113    -1.467    -1.372  0.9423 -0.1175 -0.3135
     3 C(13)  Bbb    -0.0270    -3.628    -1.295    -1.210  0.2158 -0.5027  0.8371
              Bcc     0.0577     7.741     2.762     2.582  0.2560  0.8565  0.4483
 
              Baa    -0.0144    -1.927    -0.688    -0.643  0.5824  0.7568  0.2968
     4 C(13)  Bbb     0.0006     0.076     0.027     0.025 -0.0983 -0.2968  0.9499
              Bcc     0.0138     1.851     0.660     0.617  0.8070 -0.5824 -0.0984
 
              Baa    -0.0609    -8.170    -2.915    -2.725 -0.0000 -0.2355  0.9719
     5 C(13)  Bbb    -0.0566    -7.595    -2.710    -2.533  1.0000  0.0000  0.0000
              Bcc     0.1175    15.765     5.625     5.259 -0.0000  0.9719  0.2355
 
              Baa    -0.0306    -4.111    -1.467    -1.371  0.9423  0.1176  0.3135
     6 C(13)  Bbb    -0.0270    -3.627    -1.294    -1.210 -0.2158 -0.5027  0.8371
              Bcc     0.0577     7.739     2.761     2.581 -0.2560  0.8564  0.4483
 
              Baa    -0.0032    -1.731    -0.618    -0.577  0.5215  0.8085  0.2727
     7 H(1)   Bbb    -0.0029    -1.567    -0.559    -0.523  0.8349 -0.5495  0.0328
              Bcc     0.0062     3.298     1.177     1.100 -0.1763 -0.2106  0.9615
 
              Baa    -0.0026    -1.369    -0.488    -0.457 -0.0429  0.8807  0.4718
     8 H(1)   Bbb    -0.0005    -0.269    -0.096    -0.090  0.9961  0.0011  0.0885
              Bcc     0.0031     1.638     0.585     0.546 -0.0774 -0.4738  0.8772
 
              Baa    -0.0032    -1.731    -0.618    -0.577 -0.5208  0.8090  0.2726
     9 H(1)   Bbb    -0.0029    -1.567    -0.559    -0.523  0.8353  0.5489 -0.0329
              Bcc     0.0062     3.297     1.177     1.100  0.1763 -0.2106  0.9616
 
              Baa    -0.0608    -8.164    -2.913    -2.723 -0.0000  0.2349  0.9720
    10 C(13)  Bbb    -0.0566    -7.589    -2.708    -2.531  1.0000  0.0000  0.0000
              Bcc     0.1174    15.753     5.621     5.255 -0.0000  0.9720 -0.2349
 
              Baa    -0.0306    -4.113    -1.467    -1.372  0.9422  0.1176 -0.3136
    11 C(13)  Bbb    -0.0270    -3.629    -1.295    -1.210  0.2160  0.5023  0.8373
              Bcc     0.0577     7.741     2.762     2.582 -0.2560  0.8567 -0.4479
 
              Baa    -0.0307    -4.114    -1.468    -1.372  0.9423 -0.1176  0.3135
    12 C(13)  Bbb    -0.0271    -3.630    -1.295    -1.211 -0.2159  0.5023  0.8373
              Bcc     0.0577     7.744     2.763     2.583  0.2559  0.8567 -0.4479
 
              Baa    -0.0144    -1.929    -0.688    -0.643  0.5818  0.7574 -0.2966
    13 C(13)  Bbb     0.0006     0.078     0.028     0.026  0.0984  0.2964  0.9500
              Bcc     0.0138     1.851     0.660     0.617  0.8074 -0.5818  0.0979
 
              Baa    -0.0144    -1.930    -0.689    -0.644 -0.5814  0.7576 -0.2966
    14 C(13)  Bbb     0.0006     0.079     0.028     0.026 -0.0984  0.2964  0.9500
              Bcc     0.0138     1.851     0.660     0.617  0.8076  0.5815 -0.0977
 
              Baa    -0.0783   -10.509    -3.750    -3.505  0.0001  0.4221  0.9065
    15 C(13)  Bbb    -0.0746   -10.008    -3.571    -3.338  1.0000 -0.0000 -0.0001
              Bcc     0.1529    20.517     7.321     6.844 -0.0000  0.9065 -0.4221
 
              Baa    -0.0032    -1.731    -0.617    -0.577 -0.5208  0.8091 -0.2722
    16 H(1)   Bbb    -0.0029    -1.567    -0.559    -0.523  0.8353  0.5488  0.0332
              Bcc     0.0062     3.297     1.177     1.100 -0.1762  0.2101  0.9617
 
              Baa    -0.0032    -1.731    -0.618    -0.577  0.5214  0.8087 -0.2723
    17 H(1)   Bbb    -0.0029    -1.567    -0.559    -0.523  0.8349 -0.5494 -0.0332
              Bcc     0.0062     3.298     1.177     1.100  0.1764  0.2100  0.9616
 
              Baa    -0.0026    -1.368    -0.488    -0.456 -0.0429  0.8809 -0.4714
    18 H(1)   Bbb    -0.0005    -0.269    -0.096    -0.090  0.9961  0.0012 -0.0884
              Bcc     0.0031     1.637     0.584     0.546  0.0773  0.4734  0.8775
 
              Baa    -0.0026    -1.368    -0.488    -0.456  0.0429  0.8809 -0.4714
    19 H(1)   Bbb    -0.0005    -0.268    -0.096    -0.090  0.9961 -0.0013  0.0881
              Bcc     0.0031     1.637     0.584     0.546 -0.0770  0.4733  0.8775
 
              Baa    -0.0026    -1.369    -0.488    -0.457  0.0428  0.8806  0.4718
    20 H(1)   Bbb    -0.0005    -0.269    -0.096    -0.090  0.9961 -0.0011 -0.0884
              Bcc     0.0031     1.638     0.585     0.546  0.0774 -0.4738  0.8772
 
              Baa    -0.0110    -1.478    -0.527    -0.493 -0.0000  0.6874  0.7263
    21 C(13)  Bbb     0.0009     0.124     0.044     0.041  1.0000 -0.0000  0.0000
              Bcc     0.0101     1.354     0.483     0.452  0.0000  0.7263 -0.6874
 
              Baa    -0.0191    -2.569    -0.917    -0.857  0.4598 -0.4213  0.7817
    22 C(13)  Bbb     0.0031     0.421     0.150     0.140  0.5365  0.8333  0.1336
              Bcc     0.0160     2.148     0.766     0.716  0.7077 -0.3579 -0.6092
 
              Baa    -0.0191    -2.568    -0.916    -0.856 -0.4599 -0.4216  0.7815
    23 C(13)  Bbb     0.0031     0.419     0.150     0.140 -0.5369  0.8330  0.1335
              Bcc     0.0160     2.148     0.767     0.717  0.7073  0.3582  0.6095
 
              Baa    -0.1354    -5.222    -1.864    -1.742 -0.1199  0.8454  0.5206
    24 N(14)  Bbb    -0.1346    -5.190    -1.852    -1.731  0.9923  0.1185  0.0361
              Bcc     0.2700    10.412     3.715     3.473  0.0312 -0.5209  0.8531
 
              Baa    -0.1354    -5.223    -1.864    -1.742  0.1195  0.8454  0.5206
    25 N(14)  Bbb    -0.1346    -5.190    -1.852    -1.731  0.9923 -0.1183 -0.0357
              Bcc     0.2700    10.414     3.716     3.474 -0.0314 -0.5208  0.8531
 
              Baa    -0.0040    -0.540    -0.193    -0.180  0.8953 -0.3811 -0.2306
    26 C(13)  Bbb    -0.0001    -0.008    -0.003    -0.003  0.4012  0.4650  0.7892
              Bcc     0.0041     0.548     0.196     0.183  0.1936  0.7991 -0.5692
 
              Baa    -0.0018    -0.945    -0.337    -0.315 -0.1947  0.8704 -0.4522
    27 H(1)   Bbb    -0.0010    -0.523    -0.187    -0.175  0.9739  0.1166 -0.1948
              Bcc     0.0028     1.469     0.524     0.490  0.1168  0.4783  0.8704
 
              Baa    -0.0020    -1.074    -0.383    -0.358  0.0349 -0.4241  0.9049
    28 H(1)   Bbb     0.0002     0.113     0.040     0.038 -0.2516  0.8726  0.4187
              Bcc     0.0018     0.961     0.343     0.321  0.9672  0.2423  0.0763
 
              Baa    -0.0019    -1.025    -0.366    -0.342 -0.1764 -0.1567  0.9718
    29 H(1)   Bbb    -0.0006    -0.342    -0.122    -0.114  0.9772  0.0903  0.1920
              Bcc     0.0026     1.367     0.488     0.456 -0.1179  0.9835  0.1372
 
              Baa    -0.0044    -0.588    -0.210    -0.196  0.0823  0.8839  0.4603
    30 C(13)  Bbb     0.0004     0.054     0.019     0.018  0.8591 -0.2970  0.4167
              Bcc     0.0040     0.534     0.191     0.178 -0.5051 -0.3612  0.7839
 
              Baa    -0.0019    -0.988    -0.353    -0.330 -0.1897  0.7830 -0.5924
    31 H(1)   Bbb    -0.0008    -0.428    -0.153    -0.143  0.6172  0.5643  0.5483
              Bcc     0.0027     1.417     0.506     0.473  0.7636 -0.2616 -0.5903
 
              Baa    -0.0017    -0.891    -0.318    -0.297 -0.1657  0.1990  0.9659
    32 H(1)   Bbb    -0.0013    -0.674    -0.240    -0.225  0.5093  0.8560 -0.0889
              Bcc     0.0029     1.564     0.558     0.522  0.8445 -0.4771  0.2432
 
              Baa    -0.0018    -0.938    -0.335    -0.313  0.2271 -0.6134  0.7564
    33 H(1)   Bbb    -0.0002    -0.128    -0.046    -0.043 -0.3640  0.6670  0.6501
              Bcc     0.0020     1.066     0.381     0.356  0.9033  0.4230  0.0718
 
              Baa    -0.0040    -0.541    -0.193    -0.180  0.8953  0.3809  0.2311
    34 C(13)  Bbb    -0.0001    -0.008    -0.003    -0.003 -0.4016  0.4654  0.7888
              Bcc     0.0041     0.549     0.196     0.183 -0.1929  0.7990 -0.5696
 
              Baa    -0.0018    -0.945    -0.337    -0.315  0.1947  0.8707 -0.4517
    35 H(1)   Bbb    -0.0010    -0.524    -0.187    -0.175  0.9738 -0.1163  0.1954
              Bcc     0.0028     1.469     0.524     0.490 -0.1176  0.4779  0.8705
 
              Baa    -0.0020    -1.074    -0.383    -0.358 -0.0353 -0.4233  0.9053
    36 H(1)   Bbb     0.0002     0.113     0.040     0.038  0.2511  0.8730  0.4180
              Bcc     0.0018     0.962     0.343     0.321  0.9673 -0.2420 -0.0755
 
              Baa    -0.0019    -1.025    -0.366    -0.342  0.1757 -0.1571  0.9718
    37 H(1)   Bbb    -0.0006    -0.342    -0.122    -0.114  0.9773 -0.0911 -0.1914
              Bcc     0.0026     1.367     0.488     0.456  0.1186  0.9834  0.1375
 
              Baa    -0.0044    -0.588    -0.210    -0.196 -0.0819  0.8844  0.4595
    38 C(13)  Bbb     0.0004     0.055     0.020     0.018  0.8595  0.2960 -0.4166
              Bcc     0.0040     0.533     0.190     0.178  0.5044 -0.3608  0.7844
 
              Baa    -0.0019    -0.988    -0.353    -0.330  0.1906  0.7799 -0.5962
    39 H(1)   Bbb    -0.0008    -0.429    -0.153    -0.143  0.6165 -0.5677 -0.5456
              Bcc     0.0027     1.417     0.506     0.473  0.7640  0.2636  0.5890
 
              Baa    -0.0017    -0.889    -0.317    -0.297  0.1655  0.2038  0.9649
    40 H(1)   Bbb    -0.0013    -0.675    -0.241    -0.225 -0.5088  0.8558 -0.0935
              Bcc     0.0029     1.564     0.558     0.522  0.8448  0.4754 -0.2453
 
              Baa    -0.0018    -0.940    -0.335    -0.313 -0.2284 -0.6123  0.7569
    41 H(1)   Bbb    -0.0002    -0.127    -0.045    -0.042  0.3636  0.6676  0.6497
              Bcc     0.0020     1.067     0.381     0.356  0.9031 -0.4236 -0.0701
 
              Baa    -0.0110    -1.479    -0.528    -0.493  0.0000 -0.6878  0.7259
    42 C(13)  Bbb     0.0009     0.123     0.044     0.041  1.0000  0.0001  0.0001
              Bcc     0.0101     1.357     0.484     0.453 -0.0001  0.7259  0.6878
 
              Baa    -0.0192    -2.570    -0.917    -0.857 -0.4597  0.4214  0.7817
    43 C(13)  Bbb     0.0031     0.420     0.150     0.140  0.5371  0.8329 -0.1332
              Bcc     0.0160     2.150     0.767     0.717  0.7072 -0.3587  0.6092
 
              Baa    -0.0191    -2.570    -0.917    -0.857  0.4596  0.4215  0.7817
    44 C(13)  Bbb     0.0031     0.420     0.150     0.140 -0.5374  0.8327 -0.1331
              Bcc     0.0160     2.150     0.767     0.717  0.7071  0.3590 -0.6092
 
              Baa    -0.1356    -5.228    -1.866    -1.744 -0.1202  0.8454 -0.5204
    45 N(14)  Bbb    -0.1347    -5.195    -1.854    -1.733  0.9923  0.1188 -0.0362
              Bcc     0.2703    10.424     3.719     3.477 -0.0313  0.5208  0.8531
 
              Baa    -0.1356    -5.228    -1.866    -1.744  0.1202  0.8454 -0.5204
    46 N(14)  Bbb    -0.1347    -5.195    -1.854    -1.733  0.9923 -0.1188  0.0362
              Bcc     0.2703    10.424     3.719     3.477  0.0312  0.5207  0.8531
 
              Baa    -0.0040    -0.541    -0.193    -0.181  0.8954 -0.3809  0.2308
    47 C(13)  Bbb    -0.0001    -0.008    -0.003    -0.003 -0.4013 -0.4653  0.7890
              Bcc     0.0041     0.549     0.196     0.183  0.1932  0.7990  0.5695
 
              Baa    -0.0018    -0.946    -0.338    -0.316 -0.1951  0.8704  0.4521
    48 H(1)   Bbb    -0.0010    -0.524    -0.187    -0.175  0.9738  0.1169  0.1952
              Bcc     0.0028     1.471     0.525     0.491 -0.1170 -0.4784  0.8703
 
              Baa    -0.0020    -1.075    -0.384    -0.359 -0.0351  0.4236  0.9052
    49 H(1)   Bbb     0.0002     0.113     0.040     0.038 -0.2520  0.8727 -0.4182
              Bcc     0.0018     0.962     0.343     0.321  0.9671  0.2428 -0.0762
 
              Baa    -0.0019    -1.026    -0.366    -0.342  0.1763  0.1566  0.9718
    50 H(1)   Bbb    -0.0006    -0.343    -0.122    -0.114  0.9772  0.0907 -0.1919
              Bcc     0.0026     1.368     0.488     0.456 -0.1182  0.9835 -0.1371
 
              Baa    -0.0044    -0.589    -0.210    -0.196  0.0820  0.8842 -0.4599
    51 C(13)  Bbb     0.0004     0.055     0.020     0.018  0.8596 -0.2963 -0.4164
              Bcc     0.0040     0.534     0.191     0.178  0.5044  0.3612  0.7843
 
              Baa    -0.0019    -0.989    -0.353    -0.330 -0.1901  0.7817  0.5939
    52 H(1)   Bbb    -0.0008    -0.429    -0.153    -0.143  0.6168  0.5658 -0.5473
              Bcc     0.0027     1.418     0.506     0.473  0.7638 -0.2623  0.5897
 
              Baa    -0.0017    -0.891    -0.318    -0.297  0.1658 -0.2009  0.9655
    53 H(1)   Bbb    -0.0013    -0.674    -0.241    -0.225  0.5091  0.8559  0.0907
              Bcc     0.0029     1.565     0.559     0.522  0.8446 -0.4765 -0.2442
 
              Baa    -0.0018    -0.940    -0.335    -0.313 -0.2276  0.6129  0.7567
    54 H(1)   Bbb    -0.0002    -0.128    -0.046    -0.043 -0.3641  0.6672 -0.6498
              Bcc     0.0020     1.068     0.381     0.356  0.9031  0.4234 -0.0713
 
              Baa    -0.0040    -0.541    -0.193    -0.181  0.8952  0.3810 -0.2310
    55 C(13)  Bbb    -0.0001    -0.008    -0.003    -0.003  0.4017 -0.4656  0.7886
              Bcc     0.0041     0.549     0.196     0.183 -0.1929  0.7987  0.5699
 
              Baa    -0.0018    -0.946    -0.338    -0.316  0.1948  0.8706  0.4517
    56 H(1)   Bbb    -0.0010    -0.525    -0.187    -0.175  0.9738 -0.1165 -0.1955
              Bcc     0.0028     1.470     0.525     0.490  0.1176 -0.4779  0.8705
 
              Baa    -0.0020    -1.075    -0.384    -0.359  0.0351  0.4232  0.9053
    57 H(1)   Bbb     0.0002     0.113     0.040     0.038  0.2514  0.8730 -0.4179
              Bcc     0.0018     0.962     0.343     0.321  0.9672 -0.2423  0.0757
 
              Baa    -0.0019    -1.026    -0.366    -0.342 -0.1757  0.1571  0.9718
    58 H(1)   Bbb    -0.0006    -0.343    -0.122    -0.114  0.9773 -0.0908  0.1914
              Bcc     0.0026     1.369     0.488     0.456  0.1183  0.9834 -0.1376
 
              Baa    -0.0044    -0.589    -0.210    -0.196 -0.0821  0.8844 -0.4595
    59 C(13)  Bbb     0.0004     0.055     0.020     0.018  0.8595  0.2962  0.4166
              Bcc     0.0040     0.534     0.191     0.178 -0.5045  0.3608  0.7844
 
              Baa    -0.0019    -0.989    -0.353    -0.330  0.1903  0.7806  0.5953
    60 H(1)   Bbb    -0.0008    -0.429    -0.153    -0.143  0.6167 -0.5669  0.5461
              Bcc     0.0027     1.418     0.506     0.473  0.7638  0.2632 -0.5893
 
              Baa    -0.0017    -0.890    -0.318    -0.297 -0.1656 -0.2026  0.9651
    61 H(1)   Bbb    -0.0013    -0.675    -0.241    -0.225 -0.5090  0.8558  0.0923
              Bcc     0.0029     1.565     0.559     0.522  0.8447  0.4759  0.2449
 
              Baa    -0.0018    -0.940    -0.336    -0.314  0.2281  0.6125  0.7569
    62 H(1)   Bbb    -0.0002    -0.127    -0.045    -0.043  0.3638  0.6675 -0.6497
              Bcc     0.0020     1.068     0.381     0.356  0.9031 -0.4235  0.0706
 

 ---------------------------------------------------------------------------------

 No NMR shielding tensors so no spin-rotation constants.
 Leave Link  601 at Tue Jan 26 08:13:21 2021, MaxMem=  4026531840 cpu:               9.6 elap:               1.3
 (Enter /opt/ohpc/pub/libs/gaussian/g16-A.03/sandybridge/g16/l9999.exe)

 Test job not archived.
 1\1\GINC-CNODE145\SP\ULC-wHPBE\TZVP\C26H32N4(3+,2)\RDU230\26-Jan-2021\
 0\\#P LC-wHPBE/TZVP iop(3/107=0199600000, 3/108=0199600000) scf=(conve
 r=6,fermi,ndamp=35,noincfock,novaracc,vshift=500,xqc)\\H32 C26 N4\\3,2
 \C,0,-2.823961,0.444264,1.111805\C,0,-3.524911,0.0001,0.000001\C,0,-1.
 447297,0.438089,1.110761\C,0,-2.823968,-0.444049,-1.11184\C,0,-0.74021
 8,0.000107,-0.000031\C,0,-1.447325,-0.43786,-1.11083\H,0,-0.914462,0.7
 97765,1.980986\H,0,-3.355363,-0.783593,-1.991035\H,0,-0.914491,-0.7974
 9,-1.981076\C,0,0.740229,0.000109,-0.000016\C,0,1.447379,0.437502,-1.1
 10991\C,0,1.447259,-0.437322,1.111037\C,0,2.824033,0.443666,-1.111944\
 C,0,2.823909,-0.443539,1.112143\C,0,3.52491,0.000034,0.000126\H,0,0.91
 4614,0.796709,-1.981454\H,0,0.914365,-0.796519,1.981427\H,0,3.355477,0
 .782802,-1.991269\H,0,3.355249,-0.782652,1.991539\H,0,-3.355316,0.7838
 24,1.991014\C,0,4.975135,0.000032,0.000145\C,0,6.14652,-0.565054,0.408
 043\C,0,6.146453,0.56505,-0.408017\N,0,6.78098,-1.491697,1.066857\N,0,
 6.780843,1.491604,-1.067037\C,0,6.057956,-2.591048,1.684578\H,0,6.1547
 08,-2.5451,2.768364\H,0,5.008879,-2.544629,1.410837\H,0,6.464629,-3.53
 7319,1.332266\C,0,8.228734,-1.518275,1.186143\H,0,8.494477,-1.775383,2
 .209103\H,0,8.659441,-2.259109,0.51335\H,0,8.642938,-0.539771,0.968827
 \C,0,6.05773,2.591089,-1.684422\H,0,6.153192,2.544651,-2.768303\H,0,5.
 008941,2.545387,-1.409434\H,0,6.465326,3.537274,-1.332961\C,0,8.228631
 ,1.518112,-1.186291\H,0,8.494234,1.779605,-2.208151\H,0,8.659838,2.255
 827,-0.510389\H,0,8.642467,0.538433,-0.973542\C,0,-4.975109,0.000078,0
 .000026\C,0,-6.146534,0.56508,0.407916\C,0,-6.146403,-0.565147,-0.4079
 45\N,0,-6.781069,1.491701,1.066705\N,0,-6.780732,-1.491927,-1.0667\C,0
 ,-6.058202,2.591312,1.684129\H,0,-6.154554,2.545406,2.767953\H,0,-5.00
 9205,2.545245,1.410016\H,0,-6.465319,3.537423,1.331906\C,0,-8.228858,1
 .518145,1.185797\H,0,-8.494704,1.776946,2.208295\H,0,-8.659724,2.25773
 5,0.511728\H,0,-8.642813,0.539154,0.970202\C,0,-6.057561,-2.59137,-1.6
 84106\H,0,-6.153074,-2.544964,-2.767982\H,0,-5.008776,-2.545628,-1.409
 122\H,0,-6.465122,-3.537559,-1.33261\C,0,-8.228499,-1.518584,-1.185941
 \H,0,-8.494145,-1.779106,-2.208049\H,0,-8.65952,-2.25704,-0.510729\H,0
 ,-8.642516,-0.539209,-0.97216\\Version=EM64L-G16RevA.03\State=2-A\HF=-
 1227.2149426\S2=0.7738\S2-1=0.\S2A=0.750383\RMSD=9.229e-07\Dipole=-0.0
 027079,-0.0000448,-0.0000301\Quadrupole=271.8947359,-131.6380503,-140.
 2566856,0.0012403,0.000264,0.0031506\PG=C01 [X(C26H32N4)]\\@


 FORGIVE MY NONSENSE AS I ALSO FORGIVE THOSE WHO THINK THEY TALK SENSE

                                                       -- ROBERT FROST
 Job cpu time:       0 days  5 hours 28 minutes 17.1 seconds.
 Elapsed time:       0 days  0 hours 41 minutes 30.8 seconds.
 File lengths (MBytes):  RWF=    332 Int=      0 D2E=      0 Chk=     48 Scr=      8
 Normal termination of Gaussian 16 at Tue Jan 26 08:13:21 2021.
