 Entering Gaussian System, Link 0=g16
 Input=mol_bp_cp_whol_tune_c7.gjf
 Output=mol_bp_cp_whol_tune_c7.log
 Initial command:
 /opt/ohpc/pub/libs/gaussian/g16-A.03/sandybridge/g16/l1.exe "/mnt/gpfs2_4m/scratch/rdu230/ondemand/projects/init_structures/gaussian/wtuning/mol_bp_cp_whol/tuning_mol_bp_cp_whol_ocycle0/Gau-61798.inp" -scrdir="/mnt/gpfs2_4m/scratch/rdu230/ondemand/projects/init_structures/gaussian/wtuning/mol_bp_cp_whol/tuning_mol_bp_cp_whol_ocycle0/"
 Entering Link 1 = /opt/ohpc/pub/libs/gaussian/g16-A.03/sandybridge/g16/l1.exe PID=     61799.
  
 Copyright (c) 1988,1990,1992,1993,1995,1998,2003,2009,2016,
            Gaussian, Inc.  All Rights Reserved.
  
 This is part of the Gaussian(R) 16 program.  It is based on
 the Gaussian(R) 09 system (copyright 2009, Gaussian, Inc.),
 the Gaussian(R) 03 system (copyright 2003, Gaussian, Inc.),
 the Gaussian(R) 98 system (copyright 1998, Gaussian, Inc.),
 the Gaussian(R) 94 system (copyright 1995, Gaussian, Inc.),
 the Gaussian 92(TM) system (copyright 1992, Gaussian, Inc.),
 the Gaussian 90(TM) system (copyright 1990, Gaussian, Inc.),
 the Gaussian 88(TM) system (copyright 1988, Gaussian, Inc.),
 the Gaussian 86(TM) system (copyright 1986, Carnegie Mellon
 University), and the Gaussian 82(TM) system (copyright 1983,
 Carnegie Mellon University). Gaussian is a federally registered
 trademark of Gaussian, Inc.
  
 This software contains proprietary and confidential information,
 including trade secrets, belonging to Gaussian, Inc.
  
 This software is provided under written license and may be
 used, copied, transmitted, or stored only in accord with that
 written license.
  
 The following legend is applicable only to US Government
 contracts under FAR:
  
                    RESTRICTED RIGHTS LEGEND
  
 Use, reproduction and disclosure by the US Government is
 subject to restrictions as set forth in subparagraphs (a)
 and (c) of the Commercial Computer Software - Restricted
 Rights clause in FAR 52.227-19.
  
 Gaussian, Inc.
 340 Quinnipiac St., Bldg. 40, Wallingford CT 06492
  
  
 ---------------------------------------------------------------
 Warning -- This program may not be used in any manner that
 competes with the business of Gaussian, Inc. or will provide
 assistance to any competitor of Gaussian, Inc.  The licensee
 of this program is prohibited from giving any competitor of
 Gaussian, Inc. access to this program.  By using this program,
 the user acknowledges that Gaussian, Inc. is engaged in the
 business of creating and licensing software in the field of
 computational chemistry and represents and warrants to the
 licensee that it is not a competitor of Gaussian, Inc. and that
 it will not use this program in any manner prohibited above.
 ---------------------------------------------------------------
  

 Cite this work as:
 Gaussian 16, Revision A.03,
 M. J. Frisch, G. W. Trucks, H. B. Schlegel, G. E. Scuseria, 
 M. A. Robb, J. R. Cheeseman, G. Scalmani, V. Barone, 
 G. A. Petersson, H. Nakatsuji, X. Li, M. Caricato, A. V. Marenich, 
 J. Bloino, B. G. Janesko, R. Gomperts, B. Mennucci, H. P. Hratchian, 
 J. V. Ortiz, A. F. Izmaylov, J. L. Sonnenberg, D. Williams-Young, 
 F. Ding, F. Lipparini, F. Egidi, J. Goings, B. Peng, A. Petrone, 
 T. Henderson, D. Ranasinghe, V. G. Zakrzewski, J. Gao, N. Rega, 
 G. Zheng, W. Liang, M. Hada, M. Ehara, K. Toyota, R. Fukuda, 
 J. Hasegawa, M. Ishida, T. Nakajima, Y. Honda, O. Kitao, H. Nakai, 
 T. Vreven, K. Throssell, J. A. Montgomery, Jr., J. E. Peralta, 
 F. Ogliaro, M. J. Bearpark, J. J. Heyd, E. N. Brothers, K. N. Kudin, 
 V. N. Staroverov, T. A. Keith, R. Kobayashi, J. Normand, 
 K. Raghavachari, A. P. Rendell, J. C. Burant, S. S. Iyengar, 
 J. Tomasi, M. Cossi, J. M. Millam, M. Klene, C. Adamo, R. Cammi, 
 J. W. Ochterski, R. L. Martin, K. Morokuma, O. Farkas, 
 J. B. Foresman, and D. J. Fox, Gaussian, Inc., Wallingford CT, 2016.
 
 ******************************************
 Gaussian 16:  EM64L-G16RevA.03 25-Dec-2016
                26-Jan-2021 
 ******************************************
 %mem=30GB
 %nproc=8
 Will use up to    8 processors via shared memory.
 ----------------------------------------------------------------------
 #P LC-wHPBE/TZVP iop(3/107=0197300000, 3/108=0197300000) scf=(conver=6
 ,fermi,ndamp=35,noincfock,novaracc,vshift=500,xqc)
 ----------------------------------------------------------------------
 1/38=1,172=1/1;
 2/12=2,17=6,18=5,40=1/2;
 3/5=19,7=101,11=2,25=1,30=1,74=-71,107=197300000,108=197300000/1,2,3;
 4//1;
 5/5=100002,6=6,8=3,10=500,13=1,18=-1,22=13,38=1,93=35/2,8;
 6/7=2,8=2,9=2,10=2,28=1/1;
 99/5=1,9=1/99;
 Leave Link    1 at Tue Jan 26 10:20:44 2021, MaxMem=  4026531840 cpu:               2.0 elap:               0.3
 (Enter /opt/ohpc/pub/libs/gaussian/g16-A.03/sandybridge/g16/l101.exe)
 ----------
 H32 C26 N4
 ----------
 Symbolic Z-matrix:
 Charge =  3 Multiplicity = 2
 C                    -2.82396   0.44426   1.1118 
 C                    -3.52491   0.0001    0. 
 C                    -1.4473    0.43809   1.11076 
 C                    -2.82397  -0.44405  -1.11184 
 C                    -0.74022   0.00011  -0.00003 
 C                    -1.44733  -0.43786  -1.11083 
 H                    -0.91446   0.79777   1.98099 
 H                    -3.35536  -0.78359  -1.99104 
 H                    -0.91449  -0.79749  -1.98108 
 C                     0.74023   0.00011  -0.00002 
 C                     1.44738   0.4375   -1.11099 
 C                     1.44726  -0.43732   1.11104 
 C                     2.82403   0.44367  -1.11194 
 C                     2.82391  -0.44354   1.11214 
 C                     3.52491   0.00003   0.00013 
 H                     0.91461   0.79671  -1.98145 
 H                     0.91437  -0.79652   1.98143 
 H                     3.35548   0.7828   -1.99127 
 H                     3.35525  -0.78265   1.99154 
 H                    -3.35532   0.78382   1.99101 
 C                     4.97514   0.00003   0.00015 
 C                     6.14652  -0.56505   0.40804 
 C                     6.14645   0.56505  -0.40802 
 N                     6.78098  -1.4917    1.06686 
 N                     6.78084   1.4916   -1.06704 
 C                     6.05796  -2.59105   1.68458 
 H                     6.15471  -2.5451    2.76836 
 H                     5.00888  -2.54463   1.41084 
 H                     6.46463  -3.53732   1.33227 
 C                     8.22873  -1.51828   1.18614 
 H                     8.49448  -1.77538   2.2091 
 H                     8.65944  -2.25911   0.51335 
 H                     8.64294  -0.53977   0.96883 
 C                     6.05773   2.59109  -1.68442 
 H                     6.15319   2.54465  -2.7683 
 H                     5.00894   2.54539  -1.40943 
 H                     6.46533   3.53727  -1.33296 
 C                     8.22863   1.51811  -1.18629 
 H                     8.49423   1.77961  -2.20815 
 H                     8.65984   2.25583  -0.51039 
 H                     8.64247   0.53843  -0.97354 
 C                    -4.97511   0.00008   0.00003 
 C                    -6.14653   0.56508   0.40792 
 C                    -6.1464   -0.56515  -0.40795 
 N                    -6.78107   1.4917    1.06671 
 N                    -6.78073  -1.49193  -1.0667 
 C                    -6.0582    2.59131   1.68413 
 H                    -6.15455   2.54541   2.76795 
 H                    -5.0092    2.54525   1.41002 
 H                    -6.46532   3.53742   1.33191 
 C                    -8.22886   1.51815   1.1858 
 H                    -8.4947    1.77695   2.2083 
 H                    -8.65972   2.25774   0.51173 
 H                    -8.64281   0.53915   0.9702 
 C                    -6.05756  -2.59137  -1.68411 
 H                    -6.15307  -2.54496  -2.76798 
 H                    -5.00878  -2.54563  -1.40912 
 H                    -6.46512  -3.53756  -1.33261 
 C                    -8.2285   -1.51858  -1.18594 
 H                    -8.49414  -1.77911  -2.20805 
 H                    -8.65952  -2.25704  -0.51073 
 H                    -8.64252  -0.53921  -0.97216 
 
 ITRead=  0  0  0  0  0  0  0  0  0  0  0  0  0  0  0  0  0  0  0  0
 ITRead=  0  0  0  0  0  0  0  0  0  0  0  0  0  0  0  0  0  0  0  0
 ITRead=  0  0  0  0  0  0  0  0  0  0  0  0  0  0  0  0  0  0  0  0
 ITRead=  0  0
 MicOpt= -1 -1 -1 -1 -1 -1 -1 -1 -1 -1 -1 -1 -1 -1 -1 -1 -1 -1 -1 -1
 MicOpt= -1 -1 -1 -1 -1 -1 -1 -1 -1 -1 -1 -1 -1 -1 -1 -1 -1 -1 -1 -1
 MicOpt= -1 -1 -1 -1 -1 -1 -1 -1 -1 -1 -1 -1 -1 -1 -1 -1 -1 -1 -1 -1
 MicOpt= -1 -1
 NAtoms=     62 NQM=       62 NQMF=       0 NMMI=      0 NMMIF=      0
                NMic=       0 NMicF=      0.
                    Isotopes and Nuclear Properties:
 (Nuclear quadrupole moments (NQMom) in fm**2, nuclear magnetic moments (NMagM)
  in nuclear magnetons)

  Atom         1           2           3           4           5           6           7           8           9          10
 IAtWgt=          12          12          12          12          12          12           1           1           1          12
 AtmWgt=  12.0000000  12.0000000  12.0000000  12.0000000  12.0000000  12.0000000   1.0078250   1.0078250   1.0078250  12.0000000
 NucSpn=           0           0           0           0           0           0           1           1           1           0
 AtZEff=  -0.0000000  -0.0000000  -0.0000000  -0.0000000  -0.0000000  -0.0000000  -0.0000000  -0.0000000  -0.0000000  -0.0000000
 NQMom=    0.0000000   0.0000000   0.0000000   0.0000000   0.0000000   0.0000000   0.0000000   0.0000000   0.0000000   0.0000000
 NMagM=    0.0000000   0.0000000   0.0000000   0.0000000   0.0000000   0.0000000   2.7928460   2.7928460   2.7928460   0.0000000
 AtZNuc=   6.0000000   6.0000000   6.0000000   6.0000000   6.0000000   6.0000000   1.0000000   1.0000000   1.0000000   6.0000000

  Atom        11          12          13          14          15          16          17          18          19          20
 IAtWgt=          12          12          12          12          12           1           1           1           1           1
 AtmWgt=  12.0000000  12.0000000  12.0000000  12.0000000  12.0000000   1.0078250   1.0078250   1.0078250   1.0078250   1.0078250
 NucSpn=           0           0           0           0           0           1           1           1           1           1
 AtZEff=  -0.0000000  -0.0000000  -0.0000000  -0.0000000  -0.0000000  -0.0000000  -0.0000000  -0.0000000  -0.0000000  -0.0000000
 NQMom=    0.0000000   0.0000000   0.0000000   0.0000000   0.0000000   0.0000000   0.0000000   0.0000000   0.0000000   0.0000000
 NMagM=    0.0000000   0.0000000   0.0000000   0.0000000   0.0000000   2.7928460   2.7928460   2.7928460   2.7928460   2.7928460
 AtZNuc=   6.0000000   6.0000000   6.0000000   6.0000000   6.0000000   1.0000000   1.0000000   1.0000000   1.0000000   1.0000000

  Atom        21          22          23          24          25          26          27          28          29          30
 IAtWgt=          12          12          12          14          14          12           1           1           1          12
 AtmWgt=  12.0000000  12.0000000  12.0000000  14.0030740  14.0030740  12.0000000   1.0078250   1.0078250   1.0078250  12.0000000
 NucSpn=           0           0           0           2           2           0           1           1           1           0
 AtZEff=  -0.0000000  -0.0000000  -0.0000000  -0.0000000  -0.0000000  -0.0000000  -0.0000000  -0.0000000  -0.0000000  -0.0000000
 NQMom=    0.0000000   0.0000000   0.0000000   2.0440000   2.0440000   0.0000000   0.0000000   0.0000000   0.0000000   0.0000000
 NMagM=    0.0000000   0.0000000   0.0000000   0.4037610   0.4037610   0.0000000   2.7928460   2.7928460   2.7928460   0.0000000
 AtZNuc=   6.0000000   6.0000000   6.0000000   7.0000000   7.0000000   6.0000000   1.0000000   1.0000000   1.0000000   6.0000000

  Atom        31          32          33          34          35          36          37          38          39          40
 IAtWgt=           1           1           1          12           1           1           1          12           1           1
 AtmWgt=   1.0078250   1.0078250   1.0078250  12.0000000   1.0078250   1.0078250   1.0078250  12.0000000   1.0078250   1.0078250
 NucSpn=           1           1           1           0           1           1           1           0           1           1
 AtZEff=  -0.0000000  -0.0000000  -0.0000000  -0.0000000  -0.0000000  -0.0000000  -0.0000000  -0.0000000  -0.0000000  -0.0000000
 NQMom=    0.0000000   0.0000000   0.0000000   0.0000000   0.0000000   0.0000000   0.0000000   0.0000000   0.0000000   0.0000000
 NMagM=    2.7928460   2.7928460   2.7928460   0.0000000   2.7928460   2.7928460   2.7928460   0.0000000   2.7928460   2.7928460
 AtZNuc=   1.0000000   1.0000000   1.0000000   6.0000000   1.0000000   1.0000000   1.0000000   6.0000000   1.0000000   1.0000000

  Atom        41          42          43          44          45          46          47          48          49          50
 IAtWgt=           1          12          12          12          14          14          12           1           1           1
 AtmWgt=   1.0078250  12.0000000  12.0000000  12.0000000  14.0030740  14.0030740  12.0000000   1.0078250   1.0078250   1.0078250
 NucSpn=           1           0           0           0           2           2           0           1           1           1
 AtZEff=  -0.0000000  -0.0000000  -0.0000000  -0.0000000  -0.0000000  -0.0000000  -0.0000000  -0.0000000  -0.0000000  -0.0000000
 NQMom=    0.0000000   0.0000000   0.0000000   0.0000000   2.0440000   2.0440000   0.0000000   0.0000000   0.0000000   0.0000000
 NMagM=    2.7928460   0.0000000   0.0000000   0.0000000   0.4037610   0.4037610   0.0000000   2.7928460   2.7928460   2.7928460
 AtZNuc=   1.0000000   6.0000000   6.0000000   6.0000000   7.0000000   7.0000000   6.0000000   1.0000000   1.0000000   1.0000000

  Atom        51          52          53          54          55          56          57          58          59          60
 IAtWgt=          12           1           1           1          12           1           1           1          12           1
 AtmWgt=  12.0000000   1.0078250   1.0078250   1.0078250  12.0000000   1.0078250   1.0078250   1.0078250  12.0000000   1.0078250
 NucSpn=           0           1           1           1           0           1           1           1           0           1
 AtZEff=  -0.0000000  -0.0000000  -0.0000000  -0.0000000  -0.0000000  -0.0000000  -0.0000000  -0.0000000  -0.0000000  -0.0000000
 NQMom=    0.0000000   0.0000000   0.0000000   0.0000000   0.0000000   0.0000000   0.0000000   0.0000000   0.0000000   0.0000000
 NMagM=    0.0000000   2.7928460   2.7928460   2.7928460   0.0000000   2.7928460   2.7928460   2.7928460   0.0000000   2.7928460
 AtZNuc=   6.0000000   1.0000000   1.0000000   1.0000000   6.0000000   1.0000000   1.0000000   1.0000000   6.0000000   1.0000000

  Atom        61          62
 IAtWgt=           1           1
 AtmWgt=   1.0078250   1.0078250
 NucSpn=           1           1
 AtZEff=  -0.0000000  -0.0000000
 NQMom=    0.0000000   0.0000000
 NMagM=    2.7928460   2.7928460
 AtZNuc=   1.0000000   1.0000000
 Leave Link  101 at Tue Jan 26 10:20:44 2021, MaxMem=  4026531840 cpu:               0.9 elap:               0.2
 (Enter /opt/ohpc/pub/libs/gaussian/g16-A.03/sandybridge/g16/l202.exe)
 Stoichiometry    C26H32N4(3+,2)
 Framework group  C1[X(C26H32N4)]
 Deg. of freedom   180
 Full point group                 C1      NOp   1
 Largest Abelian subgroup         C1      NOp   1
 Largest concise Abelian subgroup C1      NOp   1
                         Standard orientation:                         
 ---------------------------------------------------------------------
 Center     Atomic      Atomic             Coordinates (Angstroms)
 Number     Number       Type             X           Y           Z
 ---------------------------------------------------------------------
      1          6           0        2.823961   -0.444264    1.111805
      2          6           0        3.524911   -0.000100    0.000001
      3          6           0        1.447297   -0.438089    1.110761
      4          6           0        2.823968    0.444049   -1.111840
      5          6           0        0.740218   -0.000107   -0.000031
      6          6           0        1.447325    0.437860   -1.110830
      7          1           0        0.914462   -0.797765    1.980986
      8          1           0        3.355363    0.783593   -1.991035
      9          1           0        0.914491    0.797490   -1.981076
     10          6           0       -0.740229   -0.000109   -0.000016
     11          6           0       -1.447379   -0.437502   -1.110991
     12          6           0       -1.447259    0.437322    1.111037
     13          6           0       -2.824033   -0.443666   -1.111944
     14          6           0       -2.823909    0.443539    1.112143
     15          6           0       -3.524910   -0.000034    0.000126
     16          1           0       -0.914614   -0.796709   -1.981454
     17          1           0       -0.914365    0.796519    1.981427
     18          1           0       -3.355477   -0.782802   -1.991269
     19          1           0       -3.355249    0.782652    1.991539
     20          1           0        3.355316   -0.783824    1.991014
     21          6           0       -4.975135   -0.000032    0.000145
     22          6           0       -6.146520    0.565054    0.408043
     23          6           0       -6.146453   -0.565050   -0.408017
     24          7           0       -6.780980    1.491697    1.066857
     25          7           0       -6.780843   -1.491604   -1.067037
     26          6           0       -6.057956    2.591048    1.684578
     27          1           0       -6.154708    2.545100    2.768364
     28          1           0       -5.008879    2.544629    1.410837
     29          1           0       -6.464629    3.537319    1.332266
     30          6           0       -8.228734    1.518275    1.186143
     31          1           0       -8.494477    1.775383    2.209103
     32          1           0       -8.659441    2.259109    0.513350
     33          1           0       -8.642938    0.539771    0.968827
     34          6           0       -6.057730   -2.591089   -1.684422
     35          1           0       -6.153192   -2.544651   -2.768303
     36          1           0       -5.008941   -2.545387   -1.409434
     37          1           0       -6.465326   -3.537274   -1.332961
     38          6           0       -8.228631   -1.518112   -1.186291
     39          1           0       -8.494234   -1.779605   -2.208151
     40          1           0       -8.659838   -2.255827   -0.510389
     41          1           0       -8.642467   -0.538433   -0.973542
     42          6           0        4.975109   -0.000078    0.000026
     43          6           0        6.146534   -0.565080    0.407916
     44          6           0        6.146403    0.565147   -0.407945
     45          7           0        6.781069   -1.491701    1.066705
     46          7           0        6.780732    1.491927   -1.066700
     47          6           0        6.058202   -2.591312    1.684129
     48          1           0        6.154554   -2.545406    2.767953
     49          1           0        5.009205   -2.545245    1.410016
     50          1           0        6.465319   -3.537423    1.331906
     51          6           0        8.228858   -1.518145    1.185797
     52          1           0        8.494704   -1.776946    2.208295
     53          1           0        8.659724   -2.257735    0.511728
     54          1           0        8.642813   -0.539154    0.970202
     55          6           0        6.057561    2.591370   -1.684106
     56          1           0        6.153074    2.544964   -2.767982
     57          1           0        5.008776    2.545628   -1.409122
     58          1           0        6.465122    3.537559   -1.332610
     59          6           0        8.228499    1.518584   -1.185941
     60          1           0        8.494145    1.779106   -2.208049
     61          1           0        8.659520    2.257040   -0.510729
     62          1           0        8.642516    0.539209   -0.972160
 ---------------------------------------------------------------------
 Rotational constants (GHZ):           0.4108366           0.0399477           0.0392121
 Leave Link  202 at Tue Jan 26 10:20:44 2021, MaxMem=  4026531840 cpu:               0.2 elap:               0.0
 (Enter /opt/ohpc/pub/libs/gaussian/g16-A.03/sandybridge/g16/l301.exe)
 Standard basis: TZVP (5D, 7F)
 Ernie: Thresh=  0.10000D-02 Tol=  0.10000D-05 Strict=F.
 There are   792 symmetry adapted cartesian basis functions of A   symmetry.
 There are   762 symmetry adapted basis functions of A   symmetry.
   762 basis functions,  1306 primitive gaussians,   792 cartesian basis functions
   107 alpha electrons      106 beta electrons
       nuclear repulsion energy      2573.9438951873 Hartrees.
 IExCor=33909 DFT=T Ex+Corr=LC-wHPBE ExCW=0 ScaHFX=  1.000000
 ScaDFX=  1.000000  1.000000  1.000000  1.000000 ScalE2=  1.000000  1.000000
 IRadAn=      5 IRanWt=     -1 IRanGd=            0 ICorTp=0 IEmpDi=  4
 HFx  wShort=  0.000000 wLong=  0.197300 cFull=  0.000000 cShort=  0.000000 cLong=  1.000000
 DFx  wShort=  0.000000 wLong=  0.197300 cFull=  0.000000 cShort=  1.000000 cLong=  0.000000
 NAtoms=   62 NActive=   62 NUniq=   62 SFac= 1.00D+00 NAtFMM=   60 NAOKFM=T Big=T
 Integral buffers will be    131072 words long.
 Raffenetti 2 integral format.
 Two-electron integral symmetry is turned on.
 Leave Link  301 at Tue Jan 26 10:20:44 2021, MaxMem=  4026531840 cpu:               0.4 elap:               0.1
 (Enter /opt/ohpc/pub/libs/gaussian/g16-A.03/sandybridge/g16/l302.exe)
 NPDir=0 NMtPBC=     1 NCelOv=     1 NCel=       1 NClECP=     1 NCelD=      1
         NCelK=      1 NCelE2=     1 NClLst=     1 CellRange=     0.0.
 One-electron integrals computed using PRISM.
 One-electron integral symmetry used in STVInt
 NBasis=   762 RedAO= T EigKep=  6.76D-06  NBF=   762
 NBsUse=   762 1.00D-06 EigRej= -1.00D+00 NBFU=   762
 Precomputing XC quadrature grid using
 IXCGrd= 4 IRadAn=           5 IRanWt=          -1 IRanGd=           0 AccXCQ= 0.00D+00.
 Generated NRdTot=       0 NPtTot=           0 NUsed=           0 NTot=          32
 NSgBfM=   719   719   719   719   719 MxSgAt=    62 MxSgA2=    62.
 Leave Link  302 at Tue Jan 26 10:20:46 2021, MaxMem=  4026531840 cpu:              16.9 elap:               2.1
 (Enter /opt/ohpc/pub/libs/gaussian/g16-A.03/sandybridge/g16/l303.exe)
 DipDrv:  MaxL=1.
 Leave Link  303 at Tue Jan 26 10:20:47 2021, MaxMem=  4026531840 cpu:               1.3 elap:               0.2
 (Enter /opt/ohpc/pub/libs/gaussian/g16-A.03/sandybridge/g16/l401.exe)
 ExpMin= 9.52D-02 ExpMax= 1.97D+04 ExpMxC= 6.73D+02 IAcc=3 IRadAn=         5 AccDes= 0.00D+00
 Harris functional with IExCor=33909 and IRadAn=       5 diagonalized for initial guess.
 HarFok:  IExCor=33909 AccDes= 0.00D+00 IRadAn=         5 IDoV= 1 UseB2=F ITyADJ=14
 ICtDFT=  3500011 ScaDFX=  1.000000  1.000000  1.000000  1.000000
 FoFCou: FMM=F IPFlag=           0 FMFlag=      100000 FMFlg1=        2001
         NFxFlg=           0 DoJE=T BraDBF=F KetDBF=T FulRan=T
         wScrn=  0.000000 ICntrl=       500 IOpCl=  0 I1Cent=   200000004 NGrid=           0
         NMat0=    1 NMatS0=      1 NMatT0=    0 NMatD0=    1 NMtDS0=    0 NMtDT0=    0
 Petite list used in FoFCou.
 Harris En= -1205.10981825964    
 JPrj=0 DoOrth=F DoCkMO=F.
 Initial guess <Sx>= 0.0000 <Sy>= 0.0000 <Sz>= 0.5000 <S**2>= 0.7500 S= 0.5000
 Leave Link  401 at Tue Jan 26 10:20:57 2021, MaxMem=  4026531840 cpu:              82.7 elap:              10.4
 (Enter /opt/ohpc/pub/libs/gaussian/g16-A.03/sandybridge/g16/l502.exe)
 Integral symmetry usage will be decided dynamically.
 UHF open shell SCF:
 Using DIIS extrapolation, IDIIS=    10.
 NGot=  4026531840 LenX=  4025262970 LenY=  4024634914
 Requested convergence on RMS density matrix=1.00D-06 within  32 cycles.
 Requested convergence on MAX density matrix=1.00D-04.
 Requested convergence on             energy=1.00D-04.
 Virtual orbitals will be shifted by   0.500 hartree.
 No special actions if energy rises.
 Dynamic level shift is on during FON iterations.

 Cycle   1  Pass 1  IDiag  1:
 FoFJK:  IHMeth= 1 ICntrl=       0 DoSepK=T KAlg= 0 I1Cent=           0 FoldK=F
 IRaf=         1 NMat=       1 IRICut=       1 DoRegI=T DoRafI=F ISym2E= 0 IDoP0=0 IntGTp=1.
 FoFCou: FMM=T IPFlag=           0 FMFlag=      100000 FMFlg1=        2001
         NFxFlg=           0 DoJE=T BraDBF=F KetDBF=F FulRan=T
         wScrn=  0.000000 ICntrl=       500 IOpCl=  0 I1Cent=           0 NGrid=           0
         NMat0=    1 NMatS0=      1 NMatT0=    0 NMatD0=    1 NMtDS0=    0 NMtDT0=    0
 Symmetry not used in FoFCou.
 FMM levels:  10  Number of levels for PrismC:   9
 E= -1226.77708281367    
 DIIS: error= 2.85D-02 at cycle   1 NSaved=   1.
 NSaved= 1 IEnMin= 1 EnMin= -1226.77708281367     IErMin= 1 ErrMin= 2.85D-02
 ErrMax= 2.85D-02  0.00D+00 EMaxC= 1.00D+00 BMatC= 1.80D+00 BMatP= 1.80D+00
 IDIUse=1 WtCom= 1.00D+00 WtEn= 0.00D+00
 Coeff-Com:  0.100D+01
 Coeff:      0.100D+01
 Gap=     0.355 Goal=   None    Shift=    0.500
 T= 1466. Gap= 0.702 NK=0 IS=  108 IE=  762 IFin=  107
          NO(<0.9)=   0  NV(>0.1)=   0    107.00e < EF      0.00e >EF  Err=0.0D+00
 Gap=     0.068 Goal=   None    Shift=    0.500
 T= 1466. Gap= 0.518 NK=0 IS=  107 IE=  762 IFin=  106
          NO(<0.9)=   0  NV(>0.1)=   0    106.00e < EF      0.00e >EF  Err=0.0D+00
 GapD=    0.068 DampG=0.500 DampE=0.500 DampFc=0.2500 IDamp=-1.
 Damping current iteration by 2.50D-01
 RMSDP=2.62D-03 MaxDP=1.77D-01              OVMax= 1.06D-01

 Cycle   2  Pass 1  IDiag  1:
 E= -1226.92504458641     Delta-E=       -0.147961772732 Rises=F Damp=T
 DIIS: error= 1.99D-02 at cycle   2 NSaved=   2.
 NSaved= 2 IEnMin= 2 EnMin= -1226.92504458641     IErMin= 2 ErrMin= 1.99D-02
 ErrMax= 1.99D-02  0.00D+00 EMaxC= 1.00D+00 BMatC= 8.76D-01 BMatP= 1.80D+00
 IDIUse=1 WtCom= 1.00D+00 WtEn= 0.00D+00
 Coeff-Com: -0.211D+01 0.311D+01
 Coeff:     -0.211D+01 0.311D+01
 Gap=     0.290 Goal=   None    Shift=    0.500
 T= 1402. Gap= 0.762 NK=0 IS=  108 IE=  762 IFin=  107
          NO(<0.9)=   0  NV(>0.1)=   0    107.00e < EF      0.00e >EF  Err=0.0D+00
 Gap=     0.140 Goal=   None    Shift=    0.500
 T= 1402. Gap= 0.565 NK=0 IS=  107 IE=  762 IFin=  106
          NO(<0.9)=   0  NV(>0.1)=   0    106.00e < EF      0.00e >EF  Err=0.0D+00
 GapD=    0.140 DampG=1.000 DampE=0.500 DampFc=0.5000 IDamp=-1.
 Damping current iteration by 5.00D-01
 RMSDP=1.96D-03 MaxDP=1.37D-01 DE=-1.48D-01 OVMax= 2.90D-02

 Cycle   3  Pass 1  IDiag  1:
 E= -1227.08766022753     Delta-E=       -0.162615641122 Rises=F Damp=T
 DIIS: error= 8.98D-03 at cycle   3 NSaved=   3.
 NSaved= 3 IEnMin= 3 EnMin= -1227.08766022753     IErMin= 3 ErrMin= 8.98D-03
 ErrMax= 8.98D-03  0.00D+00 EMaxC= 1.00D+00 BMatC= 1.83D-01 BMatP= 8.76D-01
 IDIUse=1 WtCom= 1.00D+00 WtEn= 0.00D+00
 Coeff-Com:  0.885D-01-0.977D+00 0.189D+01
 Coeff:      0.885D-01-0.977D+00 0.189D+01
 Gap=     0.267 Goal=   None    Shift=    0.500
 T= 1226. Gap= 0.766 NK=0 IS=  108 IE=  762 IFin=  107
          NO(<0.9)=   0  NV(>0.1)=   0    107.00e < EF      0.00e >EF  Err=0.0D+00
 Gap=     0.067 Goal=   None    Shift=    0.500
 T= 1226. Gap= 0.567 NK=0 IS=  107 IE=  762 IFin=  106
          NO(<0.9)=   0  NV(>0.1)=   0    106.00e < EF      0.00e >EF  Err=0.0D+00
 GapD=    0.067 DampG=0.500 DampE=1.000 DampFc=0.5000 IDamp=-1.
 Damping current iteration by 5.00D-01
 RMSDP=9.35D-04 MaxDP=6.58D-02 DE=-1.63D-01 OVMax= 2.53D-02

 Cycle   4  Pass 1  IDiag  1:
 E= -1227.15089058177     Delta-E=       -0.063230354237 Rises=F Damp=T
 DIIS: error= 6.00D-03 at cycle   4 NSaved=   4.
 NSaved= 4 IEnMin= 4 EnMin= -1227.15089058177     IErMin= 4 ErrMin= 6.00D-03
 ErrMax= 6.00D-03  0.00D+00 EMaxC= 1.00D+00 BMatC= 4.08D-02 BMatP= 1.83D-01
 IDIUse=1 WtCom= 1.00D+00 WtEn= 0.00D+00
 Coeff-Com:  0.204D+00-0.400D+00-0.590D+00 0.179D+01
 Coeff:      0.204D+00-0.400D+00-0.590D+00 0.179D+01
 Gap=     0.266 Goal=   None    Shift=    0.500
 T=  928. Gap= 0.766 NK=0 IS=  108 IE=  762 IFin=  107
          NO(<0.9)=   0  NV(>0.1)=   0    107.00e < EF      0.00e >EF  Err=0.0D+00
 Gap=     0.069 Goal=   None    Shift=    0.500
 T=  928. Gap= 0.569 NK=0 IS=  107 IE=  762 IFin=  106
          NO(<0.9)=   0  NV(>0.1)=   0    106.00e < EF      0.00e >EF  Err=0.0D+00
 GapD=    0.069 DampG=0.500 DampE=1.000 DampFc=0.5000 IDamp=-1.
 Damping current iteration by 5.00D-01
 RMSDP=4.80D-04 MaxDP=3.12D-02 DE=-6.32D-02 OVMax= 2.31D-02

 Cycle   5  Pass 1  IDiag  1:
 E= -1227.17929343401     Delta-E=       -0.028402852247 Rises=F Damp=T
 DIIS: error= 4.72D-03 at cycle   5 NSaved=   5.
 NSaved= 5 IEnMin= 5 EnMin= -1227.17929343401     IErMin= 5 ErrMin= 4.72D-03
 ErrMax= 4.72D-03  0.00D+00 EMaxC= 1.00D+00 BMatC= 1.00D-02 BMatP= 4.08D-02
 IDIUse=1 WtCom= 1.00D+00 WtEn= 0.00D+00
 Coeff-Com:  0.137D-01 0.911D-01 0.383D-01-0.194D+01 0.279D+01
 Coeff:      0.137D-01 0.911D-01 0.383D-01-0.194D+01 0.279D+01
 Gap=     0.267 Goal=   None    Shift=    0.500
 T=  584. Gap= 0.767 NK=0 IS=  108 IE=  762 IFin=  107
          NO(<0.9)=   0  NV(>0.1)=   0    107.00e < EF      0.00e >EF  Err=0.0D+00
 Gap=     0.071 Goal=   None    Shift=    0.500
 T=  584. Gap= 0.571 NK=0 IS=  107 IE=  762 IFin=  106
          NO(<0.9)=   0  NV(>0.1)=   0    106.00e < EF      0.00e >EF  Err=0.0D+00
 GapD=    0.071 DampG=0.500 DampE=1.000 DampFc=0.5000 IDamp=-1.
 Damping current iteration by 5.00D-01
 RMSDP=2.66D-04 MaxDP=1.30D-02 DE=-2.84D-02 OVMax= 2.36D-02

 Cycle   6  Pass 1  IDiag  1:
 E= -1227.19315123768     Delta-E=       -0.013857803667 Rises=F Damp=T
 DIIS: error= 4.07D-03 at cycle   6 NSaved=   6.
 NSaved= 6 IEnMin= 6 EnMin= -1227.19315123768     IErMin= 6 ErrMin= 4.07D-03
 ErrMax= 4.07D-03  0.00D+00 EMaxC= 1.00D+00 BMatC= 2.84D-03 BMatP= 1.00D-02
 IDIUse=1 WtCom= 1.00D+00 WtEn= 0.00D+00
 Coeff-Com: -0.758D-01 0.141D+00 0.236D+00-0.176D+00-0.285D+01 0.372D+01
 Coeff:     -0.758D-01 0.141D+00 0.236D+00-0.176D+00-0.285D+01 0.372D+01
 Gap=     0.267 Goal=   None    Shift=    0.500
 T=  412. Gap= 0.767 NK=0 IS=  108 IE=  762 IFin=  107
          NO(<0.9)=   0  NV(>0.1)=   0    107.00e < EF      0.00e >EF  Err=0.0D+00
 Gap=     0.074 Goal=   None    Shift=    0.500
 T=  412. Gap= 0.574 NK=0 IS=  107 IE=  762 IFin=  106
          NO(<0.9)=   0  NV(>0.1)=   0    106.00e < EF      0.00e >EF  Err=0.0D+00
 GapD=    0.074 DampG=0.500 DampE=1.000 DampFc=0.5000 IDamp=-1.
 Damping current iteration by 5.00D-01
 RMSDP=1.92D-04 MaxDP=6.64D-03 DE=-1.39D-02 OVMax= 2.43D-02

 Cycle   7  Pass 1  IDiag  1:
 E= -1227.20029568368     Delta-E=       -0.007144446002 Rises=F Damp=T
 DIIS: error= 3.63D-03 at cycle   7 NSaved=   7.
 NSaved= 7 IEnMin= 7 EnMin= -1227.20029568368     IErMin= 7 ErrMin= 3.63D-03
 ErrMax= 3.63D-03  0.00D+00 EMaxC= 1.00D+00 BMatC= 1.02D-03 BMatP= 2.84D-03
 IDIUse=1 WtCom= 1.00D+00 WtEn= 0.00D+00
 Coeff-Com: -0.220D-01 0.546D-03-0.809D-02 0.882D+00-0.113D+01-0.283D+01
 Coeff-Com:  0.412D+01
 Coeff:     -0.220D-01 0.546D-03-0.809D-02 0.882D+00-0.113D+01-0.283D+01
 Coeff:      0.412D+01
 Gap=     0.268 Goal=   None    Shift=    0.500
 T=  308. Gap= 0.767 NK=0 IS=  108 IE=  762 IFin=  107
          NO(<0.9)=   0  NV(>0.1)=   0    107.00e < EF      0.00e >EF  Err=0.0D+00
 Gap=     0.076 Goal=   None    Shift=    0.500
 T=  308. Gap= 0.576 NK=0 IS=  107 IE=  762 IFin=  106
          NO(<0.9)=   0  NV(>0.1)=   0    106.00e < EF      0.00e >EF  Err=0.0D+00
 GapD=    0.076 DampG=0.500 DampE=1.000 DampFc=0.5000 IDamp=-1.
 Damping current iteration by 5.00D-01
 RMSDP=1.59D-04 MaxDP=6.78D-03 DE=-7.14D-03 OVMax= 2.45D-02

 Cycle   8  Pass 1  IDiag  1:
 E= -1227.20415601111     Delta-E=       -0.003860327429 Rises=F Damp=T
 DIIS: error= 3.27D-03 at cycle   8 NSaved=   8.
 NSaved= 8 IEnMin= 8 EnMin= -1227.20415601111     IErMin= 8 ErrMin= 3.27D-03
 ErrMax= 3.27D-03  0.00D+00 EMaxC= 1.00D+00 BMatC= 4.91D-04 BMatP= 1.02D-03
 IDIUse=1 WtCom= 1.00D+00 WtEn= 0.00D+00
 Coeff-Com:  0.285D-01-0.379D-01-0.192D+00 0.116D+00 0.187D+01-0.125D+01
 Coeff-Com: -0.605D+01 0.652D+01
 Coeff:      0.285D-01-0.379D-01-0.192D+00 0.116D+00 0.187D+01-0.125D+01
 Coeff:     -0.605D+01 0.652D+01
 Gap=     0.267 Goal=   None    Shift=    0.500
 T=  233. Gap= 0.767 NK=0 IS=  108 IE=  762 IFin=  107
          NO(<0.9)=   0  NV(>0.1)=   0    107.00e < EF      0.00e >EF  Err=0.0D+00
 Gap=     0.079 Goal=   None    Shift=    0.500
 T=  233. Gap= 0.580 NK=0 IS=  107 IE=  762 IFin=  106
          NO(<0.9)=   0  NV(>0.1)=   0    106.00e < EF      0.00e >EF  Err=0.0D+00
 GapD=    0.079 DampG=0.500 DampE=1.000 DampFc=0.5000 IDamp=-1.
 Damping current iteration by 5.00D-01
 RMSDP=1.70D-04 MaxDP=8.85D-03 DE=-3.86D-03 OVMax= 2.61D-02

 Cycle   9  Pass 1  IDiag  1:
 E= -1227.20636075539     Delta-E=       -0.002204744277 Rises=F Damp=T
 DIIS: error= 2.98D-03 at cycle   9 NSaved=   9.
 NSaved= 9 IEnMin= 9 EnMin= -1227.20636075539     IErMin= 9 ErrMin= 2.98D-03
 ErrMax= 2.98D-03  0.00D+00 EMaxC= 1.00D+00 BMatC= 3.16D-04 BMatP= 4.91D-04
 IDIUse=1 WtCom= 1.00D+00 WtEn= 0.00D+00
 Coeff-Com:  0.220D-01-0.838D-03-0.160D+00-0.473D+00 0.221D+01 0.981D+00
 Coeff-Com: -0.833D+01 0.513D+01 0.162D+01
 Coeff:      0.220D-01-0.838D-03-0.160D+00-0.473D+00 0.221D+01 0.981D+00
 Coeff:     -0.833D+01 0.513D+01 0.162D+01
 Gap=     0.267 Goal=   None    Shift=    0.500
 T=  171. Gap= 0.767 NK=0 IS=  108 IE=  762 IFin=  107
          NO(<0.9)=   0  NV(>0.1)=   0    107.00e < EF      0.00e >EF  Err=0.0D+00
 Gap=     0.081 Goal=   None    Shift=    0.500
 T=  171. Gap= 0.581 NK=0 IS=  107 IE=  762 IFin=  106
          NO(<0.9)=   0  NV(>0.1)=   0    106.00e < EF      0.00e >EF  Err=0.0D+00
 GapD=    0.081 DampG=0.500 DampE=1.000 DampFc=0.5000 IDamp=-1.
 Damping current iteration by 5.00D-01
 RMSDP=1.43D-04 MaxDP=7.81D-03 DE=-2.20D-03 OVMax= 2.25D-02

 Cycle  10  Pass 1  IDiag  1:
 E= -1227.20770056671     Delta-E=       -0.001339811325 Rises=F Damp=T
 DIIS: error= 2.69D-03 at cycle  10 NSaved=  10.
 NSaved=10 IEnMin=10 EnMin= -1227.20770056671     IErMin=10 ErrMin= 2.69D-03
 ErrMax= 2.69D-03  0.00D+00 EMaxC= 1.00D+00 BMatC= 2.36D-04 BMatP= 3.16D-04
 IDIUse=1 WtCom= 1.00D+00 WtEn= 0.00D+00
 Large coefficients: NSaved= 10 BigCof=   13.91 CofMax=   10.00 Det=-3.26D-07
 Inversion failed.  Reducing to  9 matrices.
 Large coefficients: NSaved=  9 BigCof=   13.16 CofMax=   10.00 Det=-3.55D-07
 Inversion failed.  Reducing to  8 matrices.
 Large coefficients: NSaved=  8 BigCof=   13.42 CofMax=   10.00 Det=-3.80D-07
 Inversion failed.  Reducing to  7 matrices.
 Large coefficients: NSaved=  7 BigCof=   11.95 CofMax=   10.00 Det=-4.41D-07
 Inversion failed.  Reducing to  6 matrices.
 Large coefficients: NSaved=  6 BigCof=   12.28 CofMax=   10.00 Det=-5.14D-07
 Inversion failed.  Reducing to  5 matrices.
 Large coefficients: NSaved=  5 BigCof=   12.19 CofMax=   10.00 Det=-5.15D-07
 Inversion failed.  Reducing to  4 matrices.
 Large coefficients: NSaved=  4 BigCof=   12.39 CofMax=   10.00 Det=-6.61D-07
 Inversion failed.  Reducing to  3 matrices.
 Large coefficients: NSaved=  3 BigCof=   12.41 CofMax=   10.00 Det=-6.61D-07
 Inversion failed.  Reducing to  2 matrices.
 Coeff-Com: -0.208D+01 0.308D+01
 Coeff:     -0.208D+01 0.308D+01
 Gap=     0.267 Goal=   None    Shift=    0.500
 T=  111. Gap= 0.767 NK=0 IS=  108 IE=  762 IFin=  107
          NO(<0.9)=   0  NV(>0.1)=   0    107.00e < EF      0.00e >EF  Err=0.0D+00
 Gap=     0.081 Goal=   None    Shift=    0.500
 T=  111. Gap= 0.582 NK=0 IS=  107 IE=  762 IFin=  106
          NO(<0.9)=   0  NV(>0.1)=   0    106.00e < EF      0.00e >EF  Err=0.0D+00
 GapD=    0.081 DampG=0.500 DampE=1.000 DampFc=0.5000 IDamp=-1.
 Damping current iteration by 5.00D-01
 RMSDP=9.93D-05 MaxDP=5.22D-03 DE=-1.34D-03 OVMax= 1.78D-02

 Cycle  11  Pass 1  IDiag  1:
 E= -1227.20855686653     Delta-E=       -0.000856299820 Rises=F Damp=T
 DIIS: error= 2.39D-03 at cycle  11 NSaved=   3.
 NSaved= 3 IEnMin= 3 EnMin= -1227.20855686653     IErMin= 3 ErrMin= 2.39D-03
 ErrMax= 2.39D-03  0.00D+00 EMaxC= 1.00D+00 BMatC= 1.72D-04 BMatP= 2.36D-04
 IDIUse=1 WtCom= 1.00D+00 WtEn= 0.00D+00
 Coeff-Com: -0.117D+01-0.151D+00 0.232D+01
 Coeff:     -0.117D+01-0.151D+00 0.232D+01
 Gap=     0.266 Goal=   None    Shift=    0.500
 Gap=     0.083 Goal=   None    Shift=    0.500
 GapD=    0.083 DampG=0.500 DampE=1.000 DampFc=0.5000 IDamp=-1.
 Damping current iteration by 5.00D-01
 RMSDP=1.01D-04 MaxDP=5.64D-03 DE=-8.56D-04 OVMax= 1.69D-02

 Cycle  12  Pass 1  IDiag  1:
 E= -1227.20912351964     Delta-E=       -0.000566653111 Rises=F Damp=T
 DIIS: error= 2.17D-03 at cycle  12 NSaved=   4.
 NSaved= 4 IEnMin= 4 EnMin= -1227.20912351964     IErMin= 4 ErrMin= 2.17D-03
 ErrMax= 2.17D-03  0.00D+00 EMaxC= 1.00D+00 BMatC= 1.42D-04 BMatP= 1.72D-04
 IDIUse=1 WtCom= 1.00D+00 WtEn= 0.00D+00
 Coeff-Com:  0.127D+01-0.334D+01-0.277D+01 0.585D+01
 Coeff:      0.127D+01-0.334D+01-0.277D+01 0.585D+01
 Gap=     0.265 Goal=   None    Shift=    0.500
 Gap=     0.088 Goal=   None    Shift=    0.500
 GapD=    0.088 DampG=0.500 DampE=1.000 DampFc=0.5000 IDamp=-1.
 Damping current iteration by 5.00D-01
 RMSDP=1.50D-04 MaxDP=9.30D-03 DE=-5.67D-04 OVMax= 2.37D-02

 Cycle  13  Pass 1  IDiag  1:
 E= -1227.20953139588     Delta-E=       -0.000407876238 Rises=F Damp=T
 DIIS: error= 2.00D-03 at cycle  13 NSaved=   5.
 NSaved= 5 IEnMin= 5 EnMin= -1227.20953139588     IErMin= 5 ErrMin= 2.00D-03
 ErrMax= 2.00D-03  0.00D+00 EMaxC= 1.00D+00 BMatC= 1.51D-04 BMatP= 1.42D-04
 IDIUse=1 WtCom= 1.00D+00 WtEn= 0.00D+00
 Coeff-Com:  0.132D+01-0.350D+01-0.249D+01 0.553D+01 0.143D+00
 Coeff:      0.132D+01-0.350D+01-0.249D+01 0.553D+01 0.143D+00
 Gap=     0.265 Goal=   None    Shift=    0.500
 Gap=     0.089 Goal=   None    Shift=    0.500
 GapD=    0.089 DampG=0.500 DampE=1.000 DampFc=0.5000 IDamp=-1.
 Damping current iteration by 5.00D-01
 RMSDP=1.25D-04 MaxDP=7.86D-03 DE=-4.08D-04 OVMax= 1.84D-02

 Cycle  14  Pass 1  IDiag  1:
 E= -1227.20985369197     Delta-E=       -0.000322296085 Rises=F Damp=T
 DIIS: error= 1.80D-03 at cycle  14 NSaved=   6.
 NSaved= 6 IEnMin= 6 EnMin= -1227.20985369197     IErMin= 6 ErrMin= 1.80D-03
 ErrMax= 1.80D-03  0.00D+00 EMaxC= 1.00D+00 BMatC= 1.58D-04 BMatP= 1.42D-04
 IDIUse=1 WtCom= 1.00D+00 WtEn= 0.00D+00
 Coeff-Com:  0.155D+01-0.353D+01-0.141D+01 0.704D+01-0.851D+01 0.586D+01
 Coeff:      0.155D+01-0.353D+01-0.141D+01 0.704D+01-0.851D+01 0.586D+01
 Gap=     0.264 Goal=   None    Shift=    0.500
 Gap=     0.090 Goal=   None    Shift=    0.500
 GapD=    0.090 DampG=0.500 DampE=1.000 DampFc=0.5000 IDamp=-1.
 Damping current iteration by 5.00D-01
 RMSDP=1.12D-04 MaxDP=7.04D-03 DE=-3.22D-04 OVMax= 1.81D-02

 Cycle  15  Pass 1  IDiag  1:
 E= -1227.21010612667     Delta-E=       -0.000252434701 Rises=F Damp=T
 DIIS: error= 1.60D-03 at cycle  15 NSaved=   7.
 NSaved= 7 IEnMin= 7 EnMin= -1227.21010612667     IErMin= 7 ErrMin= 1.60D-03
 ErrMax= 1.60D-03  0.00D+00 EMaxC= 1.00D+00 BMatC= 1.63D-04 BMatP= 1.42D-04
 IDIUse=1 WtCom= 1.00D+00 WtEn= 0.00D+00
 Large coefficients: NSaved=  7 BigCof=   11.97 CofMax=   10.00 Det=-1.87D-07
 Inversion failed.  Reducing to  6 matrices.
 Large coefficients: NSaved=  6 BigCof=   12.88 CofMax=   10.00 Det=-2.04D-07
 Inversion failed.  Reducing to  5 matrices.
 Large coefficients: NSaved=  5 BigCof=   14.14 CofMax=   10.00 Det=-2.57D-07
 Inversion failed.  Reducing to  4 matrices.
 Large coefficients: NSaved=  4 BigCof=   15.44 CofMax=   10.00 Det=-3.49D-07
 Inversion failed.  Reducing to  3 matrices.
 Coeff-Com:  0.180D+01-0.217D+01 0.137D+01
 Coeff:      0.180D+01-0.217D+01 0.137D+01
 Gap=     0.267 Goal=   None    Shift=    0.500
 Gap=     0.084 Goal=   None    Shift=    0.500
 GapD=    0.084 DampG=0.500 DampE=1.000 DampFc=0.5000 IDamp=-1.
 Damping current iteration by 5.00D-01
 RMSDP=6.71D-05 MaxDP=4.51D-03 DE=-2.52D-04 OVMax= 3.40D-03

 Cycle  16  Pass 1  IDiag  1:
 E= -1227.21030643466     Delta-E=       -0.000200307995 Rises=F Damp=T
 DIIS: error= 1.27D-03 at cycle  16 NSaved=   4.
 NSaved= 4 IEnMin= 4 EnMin= -1227.21030643466     IErMin= 4 ErrMin= 1.27D-03
 ErrMax= 1.27D-03  0.00D+00 EMaxC= 1.00D+00 BMatC= 5.18D-05 BMatP= 1.51D-04
 IDIUse=1 WtCom= 1.00D+00 WtEn= 0.00D+00
 Coeff-Com: -0.233D+00-0.266D+01 0.232D+01 0.158D+01
 Coeff:     -0.233D+00-0.266D+01 0.232D+01 0.158D+01
 Gap=     0.264 Goal=   None    Shift=    0.500
 Gap=     0.091 Goal=   None    Shift=    0.500
 GapD=    0.091 DampG=0.500 DampE=1.000 DampFc=0.5000 IDamp=-1.
 Damping current iteration by 5.00D-01
 RMSDP=6.95D-05 MaxDP=4.15D-03 DE=-2.00D-04 OVMax= 1.51D-02

 Cycle  17  Pass 1  IDiag  1:
 E= -1227.21044571150     Delta-E=       -0.000139276842 Rises=F Damp=T
 DIIS: error= 1.15D-03 at cycle  17 NSaved=   5.
 NSaved= 5 IEnMin= 5 EnMin= -1227.21044571150     IErMin= 5 ErrMin= 1.15D-03
 ErrMax= 1.15D-03  0.00D+00 EMaxC= 1.00D+00 BMatC= 4.29D-05 BMatP= 5.18D-05
 IDIUse=1 WtCom= 1.00D+00 WtEn= 0.00D+00
 Coeff-Com: -0.920D+00-0.108D+00 0.150D+00-0.106D+01 0.293D+01
 Coeff:     -0.920D+00-0.108D+00 0.150D+00-0.106D+01 0.293D+01
 Gap=     0.263 Goal=   None    Shift=    0.500
 Gap=     0.092 Goal=   None    Shift=    0.500
 GapD=    0.092 DampG=0.500 DampE=1.000 DampFc=0.5000 IDamp=-1.
 Damping current iteration by 5.00D-01
 RMSDP=9.46D-05 MaxDP=6.15D-03 DE=-1.39D-04 OVMax= 1.41D-02

 Cycle  18  Pass 1  IDiag  1:
 E= -1227.21054625256     Delta-E=       -0.000100541060 Rises=F Damp=T
 DIIS: error= 1.06D-03 at cycle  18 NSaved=   6.
 NSaved= 6 IEnMin= 6 EnMin= -1227.21054625256     IErMin= 6 ErrMin= 1.06D-03
 ErrMax= 1.06D-03  0.00D+00 EMaxC= 1.00D+00 BMatC= 5.78D-05 BMatP= 4.29D-05
 IDIUse=1 WtCom= 1.00D+00 WtEn= 0.00D+00
 Coeff-Com: -0.601D+00 0.113D+01-0.214D+01 0.723D+00-0.158D+01 0.347D+01
 Coeff:     -0.601D+00 0.113D+01-0.214D+01 0.723D+00-0.158D+01 0.347D+01
 Gap=     0.262 Goal=   None    Shift=    0.500
 Gap=     0.092 Goal=   None    Shift=    0.500
 GapD=    0.092 DampG=0.500 DampE=1.000 DampFc=0.5000 IDamp=-1.
 Damping current iteration by 5.00D-01
 RMSDP=8.11D-05 MaxDP=5.23D-03 DE=-1.01D-04 OVMax= 1.17D-02

 Cycle  19  Pass 1  IDiag  1:
 E= -1227.21063024033     Delta-E=       -0.000083987765 Rises=F Damp=T
 DIIS: error= 9.59D-04 at cycle  19 NSaved=   7.
 NSaved= 7 IEnMin= 7 EnMin= -1227.21063024033     IErMin= 7 ErrMin= 9.59D-04
 ErrMax= 9.59D-04  0.00D+00 EMaxC= 1.00D+00 BMatC= 7.44D-05 BMatP= 4.29D-05
 IDIUse=1 WtCom= 1.00D+00 WtEn= 0.00D+00
 Coeff-Com: -0.115D+00 0.727D+00-0.215D+01 0.813D+00-0.334D+00-0.696D+00
 Coeff-Com:  0.275D+01
 Coeff:     -0.115D+00 0.727D+00-0.215D+01 0.813D+00-0.334D+00-0.696D+00
 Coeff:      0.275D+01
 Gap=     0.262 Goal=   None    Shift=    0.500
 Gap=     0.093 Goal=   None    Shift=    0.500
 RMSDP=5.97D-05 MaxDP=3.66D-03 DE=-8.40D-05 OVMax= 9.42D-03

 Cycle  20  Pass 1  IDiag  1:
 E= -1227.21081285162     Delta-E=       -0.000182611288 Rises=F Damp=F
 DIIS: error= 7.38D-04 at cycle  20 NSaved=   8.
 NSaved= 8 IEnMin= 8 EnMin= -1227.21081285162     IErMin= 8 ErrMin= 7.38D-04
 ErrMax= 7.38D-04  0.00D+00 EMaxC= 1.00D+00 BMatC= 7.56D-05 BMatP= 4.29D-05
 IDIUse=1 WtCom= 1.00D+00 WtEn= 0.00D+00
 Coeff-Com: -0.197D+00 0.159D+00-0.672D+00-0.463D+00 0.188D+01 0.384D+00
 Coeff-Com: -0.229D+01 0.220D+01
 Coeff:     -0.197D+00 0.159D+00-0.672D+00-0.463D+00 0.188D+01 0.384D+00
 Coeff:     -0.229D+01 0.220D+01
 Gap=     0.262 Goal=   None    Shift=    0.500
 Gap=     0.093 Goal=   None    Shift=    0.500
 RMSDP=1.38D-05 MaxDP=1.01D-03 DE=-1.83D-04 OVMax= 7.43D-03

 Cycle  21  Pass 1  IDiag  1:
 E= -1227.21084452487     Delta-E=       -0.000031673255 Rises=F Damp=F
 DIIS: error= 6.03D-04 at cycle  21 NSaved=   9.
 NSaved= 9 IEnMin= 9 EnMin= -1227.21084452487     IErMin= 9 ErrMin= 6.03D-04
 ErrMax= 6.03D-04  0.00D+00 EMaxC= 1.00D+00 BMatC= 4.98D-05 BMatP= 4.29D-05
 IDIUse=1 WtCom= 1.00D+00 WtEn= 0.00D+00
 Coeff-Com: -0.596D+00 0.352D+00 0.784D+00-0.168D+01 0.208D+01 0.312D+01
 Coeff-Com: -0.580D+01-0.160D+01 0.434D+01
 Coeff:     -0.596D+00 0.352D+00 0.784D+00-0.168D+01 0.208D+01 0.312D+01
 Coeff:     -0.580D+01-0.160D+01 0.434D+01
 Gap=     0.262 Goal=   None    Shift=    0.500
 Gap=     0.093 Goal=   None    Shift=    0.500
 RMSDP=1.18D-05 MaxDP=8.42D-04 DE=-3.17D-05 OVMax= 6.26D-03

 Cycle  22  Pass 1  IDiag  1:
 E= -1227.21086590904     Delta-E=       -0.000021384172 Rises=F Damp=F
 DIIS: error= 4.95D-04 at cycle  22 NSaved=  10.
 NSaved=10 IEnMin=10 EnMin= -1227.21086590904     IErMin=10 ErrMin= 4.95D-04
 ErrMax= 4.95D-04  0.00D+00 EMaxC= 1.00D+00 BMatC= 3.58D-05 BMatP= 4.29D-05
 IDIUse=1 WtCom= 1.00D+00 WtEn= 0.00D+00
 Coeff-Com: -0.567D+00 0.652D+00-0.275D-01-0.378D+00-0.184D+00 0.193D+01
 Coeff-Com: -0.908D+00-0.374D+01 0.219D+01 0.203D+01
 Coeff:     -0.567D+00 0.652D+00-0.275D-01-0.378D+00-0.184D+00 0.193D+01
 Coeff:     -0.908D+00-0.374D+01 0.219D+01 0.203D+01
 Gap=     0.262 Goal=   None    Shift=    0.500
 Gap=     0.093 Goal=   None    Shift=    0.500
 RMSDP=9.37D-06 MaxDP=6.69D-04 DE=-2.14D-05 OVMax= 5.08D-03

 Cycle  23  Pass 1  IDiag  1:
 E= -1227.21088014541     Delta-E=       -0.000014236364 Rises=F Damp=F
 DIIS: error= 4.02D-04 at cycle  23 NSaved=  11.
 NSaved=11 IEnMin=11 EnMin= -1227.21088014541     IErMin=11 ErrMin= 4.02D-04
 ErrMax= 4.02D-04  0.00D+00 EMaxC= 1.00D+00 BMatC= 2.49D-05 BMatP= 3.58D-05
 IDIUse=1 WtCom= 1.00D+00 WtEn= 0.00D+00
 Coeff-Com: -0.197D+00 0.465D+00-0.889D+00 0.630D+00-0.101D+01-0.193D+00
 Coeff-Com:  0.275D+01-0.222D+01-0.641D+00 0.338D+00 0.197D+01
 Coeff:     -0.197D+00 0.465D+00-0.889D+00 0.630D+00-0.101D+01-0.193D+00
 Coeff:      0.275D+01-0.222D+01-0.641D+00 0.338D+00 0.197D+01
 Gap=     0.262 Goal=   None    Shift=    0.500
 Gap=     0.093 Goal=   None    Shift=    0.500
 RMSDP=7.42D-06 MaxDP=6.18D-04 DE=-1.42D-05 OVMax= 4.05D-03

 Cycle  24  Pass 1  IDiag  1:
 E= -1227.21088947154     Delta-E=       -0.000009326135 Rises=F Damp=F
 DIIS: error= 3.22D-04 at cycle  24 NSaved=  12.
 NSaved=12 IEnMin=12 EnMin= -1227.21088947154     IErMin=12 ErrMin= 3.22D-04
 ErrMax= 3.22D-04  0.00D+00 EMaxC= 1.00D+00 BMatC= 1.71D-05 BMatP= 2.49D-05
 IDIUse=1 WtCom= 1.00D+00 WtEn= 0.00D+00
 Coeff-Com:  0.225D+00-0.143D+00-0.726D+00 0.285D+00 0.964D-01-0.804D+00
 Coeff-Com:  0.159D+01 0.101D+01-0.160D+01-0.132D+01-0.399D+00 0.279D+01
 Coeff:      0.225D+00-0.143D+00-0.726D+00 0.285D+00 0.964D-01-0.804D+00
 Coeff:      0.159D+01 0.101D+01-0.160D+01-0.132D+01-0.399D+00 0.279D+01
 Gap=     0.262 Goal=   None    Shift=    0.500
 Gap=     0.093 Goal=   None    Shift=    0.500
 RMSDP=5.73D-06 MaxDP=5.39D-04 DE=-9.33D-06 OVMax= 3.13D-03

 Cycle  25  Pass 1  IDiag  1:
 E= -1227.21089564051     Delta-E=       -0.000006168970 Rises=F Damp=F
 DIIS: error= 2.57D-04 at cycle  25 NSaved=  13.
 NSaved=13 IEnMin=13 EnMin= -1227.21089564051     IErMin=13 ErrMin= 2.57D-04
 ErrMax= 2.57D-04  0.00D+00 EMaxC= 1.00D+00 BMatC= 1.13D-05 BMatP= 1.71D-05
 IDIUse=1 WtCom= 1.00D+00 WtEn= 0.00D+00
 Coeff-Com:  0.198D+00-0.388D+00 0.966D-02-0.306D+00 0.850D+00-0.832D-01
 Coeff-Com: -0.672D+00 0.123D+01-0.869D-01-0.108D+01-0.155D+01 0.584D+00
 Coeff-Com:  0.230D+01
 Coeff:      0.198D+00-0.388D+00 0.966D-02-0.306D+00 0.850D+00-0.832D-01
 Coeff:     -0.672D+00 0.123D+01-0.869D-01-0.108D+01-0.155D+01 0.584D+00
 Coeff:      0.230D+01
 Gap=     0.262 Goal=   None    Shift=    0.500
 Gap=     0.093 Goal=   None    Shift=    0.500
 RMSDP=4.51D-06 MaxDP=4.50D-04 DE=-6.17D-06 OVMax= 2.41D-03

 Cycle  26  Pass 1  IDiag  1:
 E= -1227.21089969800     Delta-E=       -0.000004057484 Rises=F Damp=F
 DIIS: error= 2.01D-04 at cycle  26 NSaved=  14.
 NSaved=14 IEnMin=14 EnMin= -1227.21089969800     IErMin=14 ErrMin= 2.01D-04
 ErrMax= 2.01D-04  0.00D+00 EMaxC= 1.00D+00 BMatC= 7.07D-06 BMatP= 1.13D-05
 IDIUse=1 WtCom= 1.00D+00 WtEn= 0.00D+00
 Coeff-Com: -0.505D-02-0.112D+00 0.840D-01-0.253D+00 0.494D+00 0.124D+00
 Coeff-Com: -0.491D+00 0.627D-02 0.674D+00-0.284D+00-0.761D+00-0.717D+00
 Coeff-Com:  0.113D+00 0.213D+01
 Coeff:     -0.505D-02-0.112D+00 0.840D-01-0.253D+00 0.494D+00 0.124D+00
 Coeff:     -0.491D+00 0.627D-02 0.674D+00-0.284D+00-0.761D+00-0.717D+00
 Coeff:      0.113D+00 0.213D+01
 Gap=     0.262 Goal=   None    Shift=    0.500
 Gap=     0.093 Goal=   None    Shift=    0.500
 RMSDP=3.36D-06 MaxDP=3.16D-04 DE=-4.06D-06 OVMax= 1.90D-03

 Cycle  27  Pass 1  IDiag  1:
 E= -1227.21090219191     Delta-E=       -0.000002493914 Rises=F Damp=F
 DIIS: error= 1.58D-04 at cycle  27 NSaved=  15.
 NSaved=15 IEnMin=15 EnMin= -1227.21090219191     IErMin=15 ErrMin= 1.58D-04
 ErrMax= 1.58D-04  0.00D+00 EMaxC= 1.00D+00 BMatC= 4.42D-06 BMatP= 7.07D-06
 IDIUse=1 WtCom= 1.00D+00 WtEn= 0.00D+00
 Coeff-Com: -0.609D-01 0.156D+00-0.249D+00 0.762D-01-0.488D-01-0.258D+00
 Coeff-Com:  0.728D+00-0.469D+00 0.704D-02 0.579D-01 0.340D+00-0.616D-01
 Coeff-Com: -0.159D+01 0.259D+00 0.212D+01
 Coeff:     -0.609D-01 0.156D+00-0.249D+00 0.762D-01-0.488D-01-0.258D+00
 Coeff:      0.728D+00-0.469D+00 0.704D-02 0.579D-01 0.340D+00-0.616D-01
 Coeff:     -0.159D+01 0.259D+00 0.212D+01
 Gap=     0.262 Goal=   None    Shift=    0.500
 Gap=     0.093 Goal=   None    Shift=    0.500
 RMSDP=2.58D-06 MaxDP=2.39D-04 DE=-2.49D-06 OVMax= 1.49D-03

 Cycle  28  Pass 1  IDiag  1:
 E= -1227.21090373104     Delta-E=       -0.000001539126 Rises=F Damp=F
 DIIS: error= 1.23D-04 at cycle  28 NSaved=  16.
 NSaved=16 IEnMin=16 EnMin= -1227.21090373104     IErMin=16 ErrMin= 1.23D-04
 ErrMax= 1.23D-04  0.00D+00 EMaxC= 1.00D+00 BMatC= 2.75D-06 BMatP= 4.42D-06
 IDIUse=1 WtCom= 1.00D+00 WtEn= 0.00D+00
 Coeff-Com:  0.201D-01 0.132D+00-0.391D+00 0.180D+00-0.182D+00-0.306D+00
 Coeff-Com:  0.912D+00 0.514D-01-0.724D+00-0.156D+00 0.331D+00 0.106D+01
 Coeff-Com: -0.612D+00-0.143D+01-0.872D+00 0.298D+01
 Coeff:      0.201D-01 0.132D+00-0.391D+00 0.180D+00-0.182D+00-0.306D+00
 Coeff:      0.912D+00 0.514D-01-0.724D+00-0.156D+00 0.331D+00 0.106D+01
 Coeff:     -0.612D+00-0.143D+01-0.872D+00 0.298D+01
 Gap=     0.262 Goal=   None    Shift=    0.500
 Gap=     0.093 Goal=   None    Shift=    0.500
 RMSDP=1.98D-06 MaxDP=1.71D-04 DE=-1.54D-06 OVMax= 1.14D-03

 Cycle  29  Pass 1  IDiag  1:
 E= -1227.21090465296     Delta-E=       -0.000000921925 Rises=F Damp=F
 DIIS: error= 9.64D-05 at cycle  29 NSaved=  17.
 NSaved=17 IEnMin=17 EnMin= -1227.21090465296     IErMin=17 ErrMin= 9.64D-05
 ErrMax= 9.64D-05  0.00D+00 EMaxC= 1.00D+00 BMatC= 1.73D-06 BMatP= 2.75D-06
 IDIUse=1 WtCom= 1.00D+00 WtEn= 0.00D+00
 Coeff-Com:  0.724D-01-0.166D+00-0.364D-02 0.247D-01 0.120D+00-0.170D+00
 Coeff-Com:  0.184D+00 0.308D+00-0.337D+00-0.359D+00-0.244D+00 0.679D+00
 Coeff-Com:  0.757D+00-0.469D+00-0.206D+01 0.993D-01 0.256D+01
 Coeff:      0.724D-01-0.166D+00-0.364D-02 0.247D-01 0.120D+00-0.170D+00
 Coeff:      0.184D+00 0.308D+00-0.337D+00-0.359D+00-0.244D+00 0.679D+00
 Coeff:      0.757D+00-0.469D+00-0.206D+01 0.993D-01 0.256D+01
 Gap=     0.262 Goal=   None    Shift=    0.500
 Gap=     0.093 Goal=   None    Shift=    0.500
 RMSDP=1.49D-06 MaxDP=1.28D-04 DE=-9.22D-07 OVMax= 8.80D-04

 Cycle  30  Pass 1  IDiag  1:
 E= -1227.21090520968     Delta-E=       -0.000000556721 Rises=F Damp=F
 DIIS: error= 7.53D-05 at cycle  30 NSaved=  18.
 NSaved=18 IEnMin=18 EnMin= -1227.21090520968     IErMin=18 ErrMin= 7.53D-05
 ErrMax= 7.53D-05  0.00D+00 EMaxC= 1.00D+00 BMatC= 1.07D-06 BMatP= 1.73D-06
 IDIUse=1 WtCom= 1.00D+00 WtEn= 0.00D+00
 Coeff-Com:  0.480D-01-0.152D+00 0.718D-01-0.330D-01 0.188D+00-0.148D+00
 Coeff-Com:  0.427D-02 0.183D+00 0.119D-01-0.270D+00-0.381D+00 0.295D+00
 Coeff-Com:  0.527D+00 0.179D+00-0.709D+00-0.633D+00-0.969D+00 0.279D+01
 Coeff:      0.480D-01-0.152D+00 0.718D-01-0.330D-01 0.188D+00-0.148D+00
 Coeff:      0.427D-02 0.183D+00 0.119D-01-0.270D+00-0.381D+00 0.295D+00
 Coeff:      0.527D+00 0.179D+00-0.709D+00-0.633D+00-0.969D+00 0.279D+01
 Gap=     0.262 Goal=   None    Shift=    0.500
 Gap=     0.093 Goal=   None    Shift=    0.500
 RMSDP=1.16D-06 MaxDP=9.91D-05 DE=-5.57D-07 OVMax= 6.85D-04

 Cycle  31  Pass 1  IDiag  1:
 E= -1227.21090554579     Delta-E=       -0.000000336107 Rises=F Damp=F
 DIIS: error= 5.82D-05 at cycle  31 NSaved=  19.
 NSaved=19 IEnMin=19 EnMin= -1227.21090554579     IErMin=19 ErrMin= 5.82D-05
 ErrMax= 5.82D-05  0.00D+00 EMaxC= 1.00D+00 BMatC= 6.57D-07 BMatP= 1.07D-06
 IDIUse=1 WtCom= 1.00D+00 WtEn= 0.00D+00
 Coeff-Com: -0.101D-01 0.601D-01-0.103D+00-0.332D-01 0.681D-01-0.626D-01
 Coeff-Com:  0.137D+00-0.894D-01 0.102D+00-0.407D-01-0.140D+00 0.153D+00
 Coeff-Com: -0.261D+00 0.115D+00 0.662D+00 0.320D+00-0.239D+01-0.390D+00
 Coeff-Com:  0.290D+01
 Coeff:     -0.101D-01 0.601D-01-0.103D+00-0.332D-01 0.681D-01-0.626D-01
 Coeff:      0.137D+00-0.894D-01 0.102D+00-0.407D-01-0.140D+00 0.153D+00
 Coeff:     -0.261D+00 0.115D+00 0.662D+00 0.320D+00-0.239D+01-0.390D+00
 Coeff:      0.290D+01
 Gap=     0.262 Goal=   None    Shift=    0.500
 Gap=     0.093 Goal=   None    Shift=    0.500
 RMSDP=9.08D-07 MaxDP=8.90D-05 DE=-3.36D-07 OVMax= 5.33D-04

 SCF Done:  E(ULC-wHPBE) =  -1227.21090555     A.U. after   31 cycles
            NFock= 31  Conv=0.91D-06     -V/T= 2.0039
 <Sx>= 0.0000 <Sy>= 0.0000 <Sz>= 0.5000 <S**2>= 0.7734 S= 0.5116
 <L.S>= 0.000000000000E+00
 KE= 1.222455012593D+03 PE=-7.932023689353D+03 EE= 2.908413876027D+03
 Annihilation of the first spin contaminant:
 S**2 before annihilation     0.7734,   after     0.7504
 Leave Link  502 at Tue Jan 26 11:02:07 2021, MaxMem=  4026531840 cpu:           19532.1 elap:            2469.7
 (Enter /opt/ohpc/pub/libs/gaussian/g16-A.03/sandybridge/g16/l508.exe)
 QCSCF skips out because SCF is already converged.
 Leave Link  508 at Tue Jan 26 11:02:07 2021, MaxMem=  4026531840 cpu:               0.0 elap:               0.0
 (Enter /opt/ohpc/pub/libs/gaussian/g16-A.03/sandybridge/g16/l601.exe)
 Copying SCF densities to generalized density rwf, IOpCl= 1 IROHF=0.

 **********************************************************************

            Population analysis using the SCF density.

 **********************************************************************

 Orbital symmetries:
 Alpha Orbitals:
       Occupied  (A) (A) (A) (A) (A) (A) (A) (A) (A) (A) (A) (A)
                 (A) (A) (A) (A) (A) (A) (A) (A) (A) (A) (A) (A)
                 (A) (A) (A) (A) (A) (A) (A) (A) (A) (A) (A) (A)
                 (A) (A) (A) (A) (A) (A) (A) (A) (A) (A) (A) (A)
                 (A) (A) (A) (A) (A) (A) (A) (A) (A) (A) (A) (A)
                 (A) (A) (A) (A) (A) (A) (A) (A) (A) (A) (A) (A)
                 (A) (A) (A) (A) (A) (A) (A) (A) (A) (A) (A) (A)
                 (A) (A) (A) (A) (A) (A) (A) (A) (A) (A) (A) (A)
                 (A) (A) (A) (A) (A) (A) (A) (A) (A) (A) (A)
       Virtual   (A) (A) (A) (A) (A) (A) (A) (A) (A) (A) (A) (A)
                 (A) (A) (A) (A) (A) (A) (A) (A) (A) (A) (A) (A)
                 (A) (A) (A) (A) (A) (A) (A) (A) (A) (A) (A) (A)
                 (A) (A) (A) (A) (A) (A) (A) (A) (A) (A) (A) (A)
                 (A) (A) (A) (A) (A) (A) (A) (A) (A) (A) (A) (A)
                 (A) (A) (A) (A) (A) (A) (A) (A) (A) (A) (A) (A)
                 (A) (A) (A) (A) (A) (A) (A) (A) (A) (A) (A) (A)
                 (A) (A) (A) (A) (A) (A) (A) (A) (A) (A) (A) (A)
                 (A) (A) (A) (A) (A) (A) (A) (A) (A) (A) (A) (A)
                 (A) (A) (A) (A) (A) (A) (A) (A) (A) (A) (A) (A)
                 (A) (A) (A) (A) (A) (A) (A) (A) (A) (A) (A) (A)
                 (A) (A) (A) (A) (A) (A) (A) (A) (A) (A) (A) (A)
                 (A) (A) (A) (A) (A) (A) (A) (A) (A) (A) (A) (A)
                 (A) (A) (A) (A) (A) (A) (A) (A) (A) (A) (A) (A)
                 (A) (A) (A) (A) (A) (A) (A) (A) (A) (A) (A) (A)
                 (A) (A) (A) (A) (A) (A) (A) (A) (A) (A) (A) (A)
                 (A) (A) (A) (A) (A) (A) (A) (A) (A) (A) (A) (A)
                 (A) (A) (A) (A) (A) (A) (A) (A) (A) (A) (A) (A)
                 (A) (A) (A) (A) (A) (A) (A) (A) (A) (A) (A) (A)
                 (A) (A) (A) (A) (A) (A) (A) (A) (A) (A) (A) (A)
                 (A) (A) (A) (A) (A) (A) (A) (A) (A) (A) (A) (A)
                 (A) (A) (A) (A) (A) (A) (A) (A) (A) (A) (A) (A)
                 (A) (A) (A) (A) (A) (A) (A) (A) (A) (A) (A) (A)
                 (A) (A) (A) (A) (A) (A) (A) (A) (A) (A) (A) (A)
                 (A) (A) (A) (A) (A) (A) (A) (A) (A) (A) (A) (A)
                 (A) (A) (A) (A) (A) (A) (A) (A) (A) (A) (A) (A)
                 (A) (A) (A) (A) (A) (A) (A) (A) (A) (A) (A) (A)
                 (A) (A) (A) (A) (A) (A) (A) (A) (A) (A) (A) (A)
                 (A) (A) (A) (A) (A) (A) (A) (A) (A) (A) (A) (A)
                 (A) (A) (A) (A) (A) (A) (A) (A) (A) (A) (A) (A)
                 (A) (A) (A) (A) (A) (A) (A) (A) (A) (A) (A) (A)
                 (A) (A) (A) (A) (A) (A) (A) (A) (A) (A) (A) (A)
                 (A) (A) (A) (A) (A) (A) (A) (A) (A) (A) (A) (A)
                 (A) (A) (A) (A) (A) (A) (A) (A) (A) (A) (A) (A)
                 (A) (A) (A) (A) (A) (A) (A) (A) (A) (A) (A) (A)
                 (A) (A) (A) (A) (A) (A) (A) (A) (A) (A) (A) (A)
                 (A) (A) (A) (A) (A) (A) (A) (A) (A) (A) (A) (A)
                 (A) (A) (A) (A) (A) (A) (A) (A) (A) (A) (A) (A)
                 (A) (A) (A) (A) (A) (A) (A) (A) (A) (A) (A) (A)
                 (A) (A) (A) (A) (A) (A) (A) (A) (A) (A) (A) (A)
                 (A) (A) (A) (A) (A) (A) (A) (A) (A) (A) (A) (A)
                 (A) (A) (A) (A) (A) (A) (A) (A) (A) (A) (A) (A)
                 (A) (A) (A) (A) (A) (A) (A) (A) (A) (A) (A) (A)
                 (A) (A) (A) (A) (A) (A) (A) (A) (A) (A) (A) (A)
                 (A) (A) (A) (A) (A) (A) (A) (A) (A) (A) (A) (A)
                 (A) (A) (A) (A) (A) (A) (A) (A) (A) (A) (A) (A)
                 (A) (A) (A) (A) (A) (A) (A) (A) (A) (A) (A) (A)
                 (A) (A) (A) (A) (A) (A) (A) (A) (A) (A) (A) (A)
                 (A) (A) (A) (A) (A) (A) (A) (A) (A) (A) (A) (A)
                 (A) (A) (A) (A) (A) (A) (A) (A) (A) (A) (A) (A)
                 (A) (A) (A) (A) (A) (A) (A) (A) (A) (A) (A) (A)
                 (A) (A) (A) (A) (A) (A) (A) (A) (A) (A) (A) (A)
                 (A) (A) (A) (A) (A) (A) (A) (A) (A) (A) (A) (A)
                 (A) (A) (A) (A) (A) (A) (A) (A) (A) (A) (A) (A)
                 (A) (A) (A) (A) (A) (A) (A)
 Beta  Orbitals:
       Occupied  (A) (A) (A) (A) (A) (A) (A) (A) (A) (A) (A) (A)
                 (A) (A) (A) (A) (A) (A) (A) (A) (A) (A) (A) (A)
                 (A) (A) (A) (A) (A) (A) (A) (A) (A) (A) (A) (A)
                 (A) (A) (A) (A) (A) (A) (A) (A) (A) (A) (A) (A)
                 (A) (A) (A) (A) (A) (A) (A) (A) (A) (A) (A) (A)
                 (A) (A) (A) (A) (A) (A) (A) (A) (A) (A) (A) (A)
                 (A) (A) (A) (A) (A) (A) (A) (A) (A) (A) (A) (A)
                 (A) (A) (A) (A) (A) (A) (A) (A) (A) (A) (A) (A)
                 (A) (A) (A) (A) (A) (A) (A) (A) (A) (A)
       Virtual   (A) (A) (A) (A) (A) (A) (A) (A) (A) (A) (A) (A)
                 (A) (A) (A) (A) (A) (A) (A) (A) (A) (A) (A) (A)
                 (A) (A) (A) (A) (A) (A) (A) (A) (A) (A) (A) (A)
                 (A) (A) (A) (A) (A) (A) (A) (A) (A) (A) (A) (A)
                 (A) (A) (A) (A) (A) (A) (A) (A) (A) (A) (A) (A)
                 (A) (A) (A) (A) (A) (A) (A) (A) (A) (A) (A) (A)
                 (A) (A) (A) (A) (A) (A) (A) (A) (A) (A) (A) (A)
                 (A) (A) (A) (A) (A) (A) (A) (A) (A) (A) (A) (A)
                 (A) (A) (A) (A) (A) (A) (A) (A) (A) (A) (A) (A)
                 (A) (A) (A) (A) (A) (A) (A) (A) (A) (A) (A) (A)
                 (A) (A) (A) (A) (A) (A) (A) (A) (A) (A) (A) (A)
                 (A) (A) (A) (A) (A) (A) (A) (A) (A) (A) (A) (A)
                 (A) (A) (A) (A) (A) (A) (A) (A) (A) (A) (A) (A)
                 (A) (A) (A) (A) (A) (A) (A) (A) (A) (A) (A) (A)
                 (A) (A) (A) (A) (A) (A) (A) (A) (A) (A) (A) (A)
                 (A) (A) (A) (A) (A) (A) (A) (A) (A) (A) (A) (A)
                 (A) (A) (A) (A) (A) (A) (A) (A) (A) (A) (A) (A)
                 (A) (A) (A) (A) (A) (A) (A) (A) (A) (A) (A) (A)
                 (A) (A) (A) (A) (A) (A) (A) (A) (A) (A) (A) (A)
                 (A) (A) (A) (A) (A) (A) (A) (A) (A) (A) (A) (A)
                 (A) (A) (A) (A) (A) (A) (A) (A) (A) (A) (A) (A)
                 (A) (A) (A) (A) (A) (A) (A) (A) (A) (A) (A) (A)
                 (A) (A) (A) (A) (A) (A) (A) (A) (A) (A) (A) (A)
                 (A) (A) (A) (A) (A) (A) (A) (A) (A) (A) (A) (A)
                 (A) (A) (A) (A) (A) (A) (A) (A) (A) (A) (A) (A)
                 (A) (A) (A) (A) (A) (A) (A) (A) (A) (A) (A) (A)
                 (A) (A) (A) (A) (A) (A) (A) (A) (A) (A) (A) (A)
                 (A) (A) (A) (A) (A) (A) (A) (A) (A) (A) (A) (A)
                 (A) (A) (A) (A) (A) (A) (A) (A) (A) (A) (A) (A)
                 (A) (A) (A) (A) (A) (A) (A) (A) (A) (A) (A) (A)
                 (A) (A) (A) (A) (A) (A) (A) (A) (A) (A) (A) (A)
                 (A) (A) (A) (A) (A) (A) (A) (A) (A) (A) (A) (A)
                 (A) (A) (A) (A) (A) (A) (A) (A) (A) (A) (A) (A)
                 (A) (A) (A) (A) (A) (A) (A) (A) (A) (A) (A) (A)
                 (A) (A) (A) (A) (A) (A) (A) (A) (A) (A) (A) (A)
                 (A) (A) (A) (A) (A) (A) (A) (A) (A) (A) (A) (A)
                 (A) (A) (A) (A) (A) (A) (A) (A) (A) (A) (A) (A)
                 (A) (A) (A) (A) (A) (A) (A) (A) (A) (A) (A) (A)
                 (A) (A) (A) (A) (A) (A) (A) (A) (A) (A) (A) (A)
                 (A) (A) (A) (A) (A) (A) (A) (A) (A) (A) (A) (A)
                 (A) (A) (A) (A) (A) (A) (A) (A) (A) (A) (A) (A)
                 (A) (A) (A) (A) (A) (A) (A) (A) (A) (A) (A) (A)
                 (A) (A) (A) (A) (A) (A) (A) (A) (A) (A) (A) (A)
                 (A) (A) (A) (A) (A) (A) (A) (A) (A) (A) (A) (A)
                 (A) (A) (A) (A) (A) (A) (A) (A) (A) (A) (A) (A)
                 (A) (A) (A) (A) (A) (A) (A) (A) (A) (A) (A) (A)
                 (A) (A) (A) (A) (A) (A) (A) (A) (A) (A) (A) (A)
                 (A) (A) (A) (A) (A) (A) (A) (A) (A) (A) (A) (A)
                 (A) (A) (A) (A) (A) (A) (A) (A) (A) (A) (A) (A)
                 (A) (A) (A) (A) (A) (A) (A) (A) (A) (A) (A) (A)
                 (A) (A) (A) (A) (A) (A) (A) (A) (A) (A) (A) (A)
                 (A) (A) (A) (A) (A) (A) (A) (A) (A) (A) (A) (A)
                 (A) (A) (A) (A) (A) (A) (A) (A) (A) (A) (A) (A)
                 (A) (A) (A) (A) (A) (A) (A) (A) (A) (A) (A) (A)
                 (A) (A) (A) (A) (A) (A) (A) (A)
 The electronic state is 2-A.
 Alpha  occ. eigenvalues --  -14.46309 -14.46307 -14.46306 -14.46304 -10.38329
 Alpha  occ. eigenvalues --  -10.38325 -10.38291 -10.38288 -10.34810 -10.34806
 Alpha  occ. eigenvalues --  -10.33635 -10.33632 -10.32504 -10.32490 -10.30474
 Alpha  occ. eigenvalues --  -10.30472 -10.30471 -10.30470 -10.30303 -10.30303
 Alpha  occ. eigenvalues --  -10.30301 -10.30300 -10.30276 -10.30275 -10.30274
 Alpha  occ. eigenvalues --  -10.30273 -10.29933 -10.29932 -10.29930 -10.29929
 Alpha  occ. eigenvalues --   -1.34112  -1.34109  -1.31124  -1.31120  -1.26312
 Alpha  occ. eigenvalues --   -1.26299  -1.22938  -1.21103  -1.15123  -1.10486
 Alpha  occ. eigenvalues --   -1.10447  -1.09793  -1.06711  -1.06597  -1.06277
 Alpha  occ. eigenvalues --   -1.06270  -1.05560  -1.05556  -1.04588  -1.04401
 Alpha  occ. eigenvalues --   -1.01507  -0.98358  -0.96361  -0.95889  -0.91608
 Alpha  occ. eigenvalues --   -0.91225  -0.89326  -0.89222  -0.89151  -0.88831
 Alpha  occ. eigenvalues --   -0.86934  -0.85410  -0.85093  -0.84755  -0.84587
 Alpha  occ. eigenvalues --   -0.83975  -0.83776  -0.82909  -0.82156  -0.82152
 Alpha  occ. eigenvalues --   -0.81697  -0.80162  -0.79766  -0.78428  -0.78180
 Alpha  occ. eigenvalues --   -0.77804  -0.77598  -0.76965  -0.76315  -0.76244
 Alpha  occ. eigenvalues --   -0.75434  -0.75318  -0.75173  -0.74801  -0.74071
 Alpha  occ. eigenvalues --   -0.73862  -0.73729  -0.73726  -0.73657  -0.73156
 Alpha  occ. eigenvalues --   -0.73144  -0.72791  -0.72769  -0.71734  -0.71592
 Alpha  occ. eigenvalues --   -0.70847  -0.70782  -0.69748  -0.69510  -0.66619
 Alpha  occ. eigenvalues --   -0.65297  -0.65292  -0.63093  -0.62950  -0.62866
 Alpha  occ. eigenvalues --   -0.58635  -0.57563
 Alpha virt. eigenvalues --   -0.31384  -0.27756  -0.25944  -0.25927  -0.21543
 Alpha virt. eigenvalues --   -0.21085  -0.21081  -0.19733  -0.18774  -0.18766
 Alpha virt. eigenvalues --   -0.15050  -0.14964  -0.14696  -0.14188  -0.13423
 Alpha virt. eigenvalues --   -0.13133  -0.12837  -0.12829  -0.12104  -0.12081
 Alpha virt. eigenvalues --   -0.11891  -0.11876  -0.11499  -0.11246  -0.11083
 Alpha virt. eigenvalues --   -0.10905  -0.10415  -0.09972  -0.09941  -0.09692
 Alpha virt. eigenvalues --   -0.08952  -0.08691  -0.08601  -0.08464  -0.08360
 Alpha virt. eigenvalues --   -0.07762  -0.07670  -0.07228  -0.07215  -0.07128
 Alpha virt. eigenvalues --   -0.06908  -0.06842  -0.06714  -0.06581  -0.06557
 Alpha virt. eigenvalues --   -0.05733  -0.05669  -0.05471  -0.05041  -0.04234
 Alpha virt. eigenvalues --   -0.04151  -0.03906  -0.03076  -0.02923  -0.02839
 Alpha virt. eigenvalues --   -0.02421  -0.02172  -0.02145  -0.02089  -0.01792
 Alpha virt. eigenvalues --   -0.01587  -0.00920  -0.00871  -0.00637   0.00637
 Alpha virt. eigenvalues --    0.00795   0.00951   0.01400   0.01532   0.02427
 Alpha virt. eigenvalues --    0.02463   0.02513   0.02966   0.03047   0.03163
 Alpha virt. eigenvalues --    0.03725   0.04248   0.05278   0.05315   0.05411
 Alpha virt. eigenvalues --    0.05661   0.05823   0.06847   0.06944   0.07567
 Alpha virt. eigenvalues --    0.08028   0.08128   0.08375   0.08458   0.09151
 Alpha virt. eigenvalues --    0.09156   0.09567   0.09571   0.10411   0.10463
 Alpha virt. eigenvalues --    0.10551   0.10830   0.10922   0.11459   0.11510
 Alpha virt. eigenvalues --    0.11543   0.11934   0.12751   0.12841   0.13387
 Alpha virt. eigenvalues --    0.13534   0.14006   0.14066   0.14822   0.14857
 Alpha virt. eigenvalues --    0.15334   0.15526   0.16838   0.17167   0.17184
 Alpha virt. eigenvalues --    0.17813   0.17900   0.17987   0.18158   0.18219
 Alpha virt. eigenvalues --    0.18541   0.20056   0.20789   0.20976   0.21161
 Alpha virt. eigenvalues --    0.21788   0.22245   0.22413   0.22525   0.22526
 Alpha virt. eigenvalues --    0.23216   0.23246   0.23491   0.23758   0.23839
 Alpha virt. eigenvalues --    0.23965   0.24277   0.24687   0.24721   0.25194
 Alpha virt. eigenvalues --    0.25331   0.25639   0.25704   0.26285   0.26364
 Alpha virt. eigenvalues --    0.26433   0.26896   0.27017   0.27195   0.27199
 Alpha virt. eigenvalues --    0.27550   0.27782   0.28088   0.28094   0.28551
 Alpha virt. eigenvalues --    0.28856   0.28920   0.29261   0.29879   0.30066
 Alpha virt. eigenvalues --    0.30986   0.31095   0.31477   0.31498   0.31615
 Alpha virt. eigenvalues --    0.31829   0.31986   0.32006   0.32782   0.33038
 Alpha virt. eigenvalues --    0.34304   0.34391   0.35013   0.35110   0.35600
 Alpha virt. eigenvalues --    0.36557   0.36616   0.37218   0.37446   0.38036
 Alpha virt. eigenvalues --    0.38242   0.38304   0.38830   0.40123   0.41105
 Alpha virt. eigenvalues --    0.41284   0.41384   0.42190   0.42959   0.42975
 Alpha virt. eigenvalues --    0.43457   0.43726   0.44069   0.44310   0.44840
 Alpha virt. eigenvalues --    0.44854   0.46309   0.46451   0.46569   0.47096
 Alpha virt. eigenvalues --    0.48260   0.48651   0.48736   0.49086   0.50196
 Alpha virt. eigenvalues --    0.50791   0.51084   0.51783   0.52157   0.52250
 Alpha virt. eigenvalues --    0.53365   0.53446   0.55060   0.55071   0.57094
 Alpha virt. eigenvalues --    0.58119   0.58300   0.60687   0.61472   0.61477
 Alpha virt. eigenvalues --    0.61979   0.62649   0.65554   0.67377   0.67535
 Alpha virt. eigenvalues --    0.67604   0.76561   0.90445   0.90654   0.90777
 Alpha virt. eigenvalues --    0.90818   0.92478   0.96216   0.96892   0.97859
 Alpha virt. eigenvalues --    0.97988   0.98528   0.98794   0.99563   0.99911
 Alpha virt. eigenvalues --    0.99967   1.00005   1.00195   1.01234   1.02608
 Alpha virt. eigenvalues --    1.02853   1.02979   1.03383   1.03667   1.03790
 Alpha virt. eigenvalues --    1.04046   1.04359   1.04460   1.04987   1.05320
 Alpha virt. eigenvalues --    1.05650   1.06218   1.08179   1.08641   1.08801
 Alpha virt. eigenvalues --    1.08816   1.09228   1.09387   1.10253   1.10259
 Alpha virt. eigenvalues --    1.10907   1.11046   1.11297   1.11308   1.11353
 Alpha virt. eigenvalues --    1.11686   1.12527   1.12560   1.13030   1.13251
 Alpha virt. eigenvalues --    1.13791   1.13980   1.14013   1.14030   1.14670
 Alpha virt. eigenvalues --    1.14738   1.15967   1.16269   1.16284   1.16583
 Alpha virt. eigenvalues --    1.17317   1.17881   1.19508   1.19679   1.19718
 Alpha virt. eigenvalues --    1.20487   1.21221   1.21246   1.21465   1.21578
 Alpha virt. eigenvalues --    1.21739   1.21806   1.22130   1.22399   1.22459
 Alpha virt. eigenvalues --    1.23618   1.23768   1.23809   1.24730   1.24870
 Alpha virt. eigenvalues --    1.24928   1.25089   1.25762   1.25803   1.25824
 Alpha virt. eigenvalues --    1.26324   1.27405   1.27694   1.28900   1.28945
 Alpha virt. eigenvalues --    1.28950   1.29130   1.29609   1.29759   1.29991
 Alpha virt. eigenvalues --    1.30066   1.30555   1.31005   1.31224   1.31624
 Alpha virt. eigenvalues --    1.32053   1.32127   1.32323   1.32739   1.33449
 Alpha virt. eigenvalues --    1.33664   1.34189   1.34538   1.34551   1.35317
 Alpha virt. eigenvalues --    1.37185   1.37453   1.37784   1.38214   1.38286
 Alpha virt. eigenvalues --    1.38343   1.39519   1.40779   1.40838   1.40983
 Alpha virt. eigenvalues --    1.41223   1.41699   1.41779   1.42007   1.42631
 Alpha virt. eigenvalues --    1.43228   1.43959   1.44435   1.45440   1.45466
 Alpha virt. eigenvalues --    1.46118   1.46904   1.48034   1.48926   1.48988
 Alpha virt. eigenvalues --    1.49389   1.49652   1.50622   1.51646   1.51663
 Alpha virt. eigenvalues --    1.51791   1.52319   1.53122   1.53151   1.53830
 Alpha virt. eigenvalues --    1.54138   1.54323   1.54398   1.54554   1.54666
 Alpha virt. eigenvalues --    1.55067   1.55145   1.55476   1.55542   1.55771
 Alpha virt. eigenvalues --    1.55858   1.55876   1.56437   1.57055   1.57119
 Alpha virt. eigenvalues --    1.57537   1.57544   1.58429   1.58436   1.58523
 Alpha virt. eigenvalues --    1.58972   1.60425   1.60522   1.61648   1.61794
 Alpha virt. eigenvalues --    1.61939   1.62122   1.62181   1.64117   1.64431
 Alpha virt. eigenvalues --    1.64672   1.64680   1.65197   1.65525   1.66135
 Alpha virt. eigenvalues --    1.66283   1.67537   1.67828   1.68162   1.68354
 Alpha virt. eigenvalues --    1.69908   1.70288   1.71657   1.73464   1.73613
 Alpha virt. eigenvalues --    1.75949   1.76098   1.77654   1.78046   1.79021
 Alpha virt. eigenvalues --    1.79170   1.79681   1.80795   1.80993   1.80999
 Alpha virt. eigenvalues --    1.81520   1.81536   1.86019   1.86182   1.86318
 Alpha virt. eigenvalues --    1.86490   1.87044   1.87645   1.89267   1.90275
 Alpha virt. eigenvalues --    1.90609   1.91433   1.92212   1.92387   1.92441
 Alpha virt. eigenvalues --    1.93101   1.93666   1.95789   1.96329   1.96977
 Alpha virt. eigenvalues --    1.97166   1.98137   2.01668   2.02845   2.03908
 Alpha virt. eigenvalues --    2.03911   2.03954   2.04294   2.04439   2.05110
 Alpha virt. eigenvalues --    2.05444   2.05484   2.05668   2.06194   2.06840
 Alpha virt. eigenvalues --    2.06912   2.07196   2.07368   2.07899   2.08259
 Alpha virt. eigenvalues --    2.08721   2.09096   2.09343   2.10104   2.10625
 Alpha virt. eigenvalues --    2.10675   2.10846   2.11338   2.11495   2.11612
 Alpha virt. eigenvalues --    2.11879   2.11896   2.12376   2.12830   2.13237
 Alpha virt. eigenvalues --    2.13505   2.13834   2.19469   2.20539   2.20659
 Alpha virt. eigenvalues --    2.20805   2.21097   2.21974   2.22212   2.22401
 Alpha virt. eigenvalues --    2.22613   2.25846   2.27130   2.27467   2.27705
 Alpha virt. eigenvalues --    2.27868   2.28272   2.28559   2.29168   2.29184
 Alpha virt. eigenvalues --    2.30203   2.30286   2.30631   2.30895   2.31582
 Alpha virt. eigenvalues --    2.31902   2.33484   2.33790   2.33796   2.34093
 Alpha virt. eigenvalues --    2.34565   2.35476   2.35657   2.36177   2.36315
 Alpha virt. eigenvalues --    2.37343   2.38073   2.39463   2.39701   2.40094
 Alpha virt. eigenvalues --    2.40982   2.41248   2.41647   2.41857   2.43243
 Alpha virt. eigenvalues --    2.43356   2.43441   2.44529   2.44822   2.46033
 Alpha virt. eigenvalues --    2.47156   2.47246   2.48451   2.48630   2.49564
 Alpha virt. eigenvalues --    2.49718   2.50109   2.50205   2.50470   2.51774
 Alpha virt. eigenvalues --    2.51907   2.53379   2.53477   2.53791   2.55560
 Alpha virt. eigenvalues --    2.55680   2.56476   2.57566   2.58026   2.60518
 Alpha virt. eigenvalues --    2.61482   2.61537   2.62407   2.62598   2.64008
 Alpha virt. eigenvalues --    2.64134   2.69889   2.70067   2.74986   2.75094
 Alpha virt. eigenvalues --    2.76180   2.76365   2.78192   2.78881   2.80652
 Alpha virt. eigenvalues --    2.81300   2.83279   2.86051   2.86153   2.86441
 Alpha virt. eigenvalues --    2.87507   2.87542   2.88550   2.88675   2.89762
 Alpha virt. eigenvalues --    2.90066   2.90172   2.90885   2.91743   2.92439
 Alpha virt. eigenvalues --    2.96679   2.97171   2.97509   2.97524   2.99850
 Alpha virt. eigenvalues --    3.01652   3.02964   3.05620   3.05745   3.06268
 Alpha virt. eigenvalues --    3.06493   3.06552   3.07025   3.07036   3.07187
 Alpha virt. eigenvalues --    3.07522   3.08905   3.08945   3.09605   3.10588
 Alpha virt. eigenvalues --    3.12252   3.12288   3.12862   3.14056   3.15342
 Alpha virt. eigenvalues --    3.15857   3.16274   3.18500   3.19054   3.19327
 Alpha virt. eigenvalues --    3.19341   3.20655   3.20927   3.31886   3.33447
 Alpha virt. eigenvalues --    3.39111   3.44596   3.46940   3.47438   3.55925
 Alpha virt. eigenvalues --    3.56380   3.56450   3.60570   3.72546   3.72664
 Alpha virt. eigenvalues --   20.92638  21.04410  21.24008  21.24319  21.29281
 Alpha virt. eigenvalues --   21.41160  21.42470  21.44661  21.52737  21.53650
 Alpha virt. eigenvalues --   21.53744  21.58171  21.60627  21.68409  21.69829
 Alpha virt. eigenvalues --   21.70265  21.71405  21.72883  21.73961  21.74058
 Alpha virt. eigenvalues --   21.81776  21.84449  21.91109  21.92072  21.94967
 Alpha virt. eigenvalues --   21.95218  31.37461  31.37764  31.51879  31.52144
  Beta  occ. eigenvalues --  -14.46093 -14.46091 -14.46090 -14.46088 -10.38344
  Beta  occ. eigenvalues --  -10.38341 -10.38307 -10.38304 -10.34802 -10.34798
  Beta  occ. eigenvalues --  -10.33458 -10.33455 -10.32378 -10.32363 -10.30482
  Beta  occ. eigenvalues --  -10.30481 -10.30480 -10.30479 -10.30308 -10.30307
  Beta  occ. eigenvalues --  -10.30305 -10.30304 -10.30215 -10.30213 -10.30213
  Beta  occ. eigenvalues --  -10.30211 -10.29938 -10.29937 -10.29935 -10.29934
  Beta  occ. eigenvalues --   -1.33890  -1.33886  -1.30819  -1.30816  -1.26035
  Beta  occ. eigenvalues --   -1.26023  -1.22655  -1.20849  -1.14765  -1.10396
  Beta  occ. eigenvalues --   -1.10058  -1.09719  -1.06659  -1.06531  -1.06226
  Beta  occ. eigenvalues --   -1.06219  -1.05511  -1.05508  -1.04525  -1.04319
  Beta  occ. eigenvalues --   -1.01429  -0.98191  -0.96214  -0.95695  -0.91515
  Beta  occ. eigenvalues --   -0.91131  -0.89201  -0.89092  -0.89040  -0.88709
  Beta  occ. eigenvalues --   -0.86846  -0.85184  -0.84767  -0.84667  -0.84393
  Beta  occ. eigenvalues --   -0.83892  -0.83658  -0.82771  -0.81759  -0.81756
  Beta  occ. eigenvalues --   -0.81481  -0.80031  -0.79666  -0.78392  -0.77951
  Beta  occ. eigenvalues --   -0.77467  -0.77416  -0.76874  -0.76228  -0.76135
  Beta  occ. eigenvalues --   -0.75395  -0.75277  -0.74737  -0.74502  -0.73934
  Beta  occ. eigenvalues --   -0.73704  -0.73620  -0.73616  -0.73516  -0.73124
  Beta  occ. eigenvalues --   -0.73115  -0.72707  -0.72319  -0.71696  -0.71564
  Beta  occ. eigenvalues --   -0.70744  -0.70710  -0.69688  -0.69389  -0.65284
  Beta  occ. eigenvalues --   -0.64451  -0.64449  -0.62801  -0.62745  -0.60448
  Beta  occ. eigenvalues --   -0.54979
  Beta virt. eigenvalues --   -0.45720  -0.30814  -0.26952  -0.25525  -0.25353
  Beta virt. eigenvalues --   -0.20945  -0.20609  -0.20606  -0.19080  -0.18718
  Beta virt. eigenvalues --   -0.18712  -0.15020  -0.14928  -0.14672  -0.14149
  Beta virt. eigenvalues --   -0.13378  -0.13070  -0.12762  -0.12749  -0.12068
  Beta virt. eigenvalues --   -0.11968  -0.11812  -0.11660  -0.11454  -0.11189
  Beta virt. eigenvalues --   -0.11047  -0.10862  -0.10360  -0.09843  -0.09756
  Beta virt. eigenvalues --   -0.09571  -0.08908  -0.08634  -0.08536  -0.08420
  Beta virt. eigenvalues --   -0.08309  -0.07648  -0.07603  -0.07128  -0.07104
  Beta virt. eigenvalues --   -0.07001  -0.06845  -0.06777  -0.06609  -0.06490
  Beta virt. eigenvalues --   -0.06397  -0.05682  -0.05623  -0.05366  -0.04936
  Beta virt. eigenvalues --   -0.04169  -0.04097  -0.03845  -0.03024  -0.02873
  Beta virt. eigenvalues --   -0.02728  -0.02365  -0.02097  -0.02047  -0.01994
  Beta virt. eigenvalues --   -0.01714  -0.01532  -0.00878  -0.00829  -0.00515
  Beta virt. eigenvalues --    0.00686   0.00841   0.01057   0.01452   0.01585
  Beta virt. eigenvalues --    0.02512   0.02591   0.02595   0.03073   0.03145
  Beta virt. eigenvalues --    0.03257   0.03798   0.04340   0.05344   0.05377
  Beta virt. eigenvalues --    0.05506   0.05744   0.05877   0.06929   0.07062
  Beta virt. eigenvalues --    0.07700   0.08110   0.08239   0.08524   0.08527
  Beta virt. eigenvalues --    0.09230   0.09293   0.09638   0.09644   0.10515
  Beta virt. eigenvalues --    0.10566   0.10633   0.10906   0.10971   0.11544
  Beta virt. eigenvalues --    0.11601   0.11625   0.12057   0.12844   0.12898
  Beta virt. eigenvalues --    0.13582   0.13698   0.14116   0.14203   0.14905
  Beta virt. eigenvalues --    0.14942   0.15436   0.15619   0.16914   0.17232
  Beta virt. eigenvalues --    0.17260   0.17925   0.17983   0.18028   0.18282
  Beta virt. eigenvalues --    0.18312   0.18639   0.20173   0.20993   0.21097
  Beta virt. eigenvalues --    0.21249   0.21875   0.22376   0.22487   0.22617
  Beta virt. eigenvalues --    0.22626   0.23277   0.23290   0.23587   0.23812
  Beta virt. eigenvalues --    0.23898   0.24057   0.24381   0.24787   0.24793
  Beta virt. eigenvalues --    0.25291   0.25421   0.25758   0.25768   0.26385
  Beta virt. eigenvalues --    0.26445   0.26516   0.26991   0.27115   0.27254
  Beta virt. eigenvalues --    0.27272   0.27644   0.27842   0.28171   0.28184
  Beta virt. eigenvalues --    0.28612   0.28963   0.28995   0.29339   0.29967
  Beta virt. eigenvalues --    0.30160   0.31059   0.31179   0.31577   0.31577
  Beta virt. eigenvalues --    0.31741   0.31984   0.32085   0.32145   0.32873
  Beta virt. eigenvalues --    0.33123   0.34381   0.34499   0.35067   0.35201
  Beta virt. eigenvalues --    0.35655   0.36662   0.36726   0.37296   0.37515
  Beta virt. eigenvalues --    0.38126   0.38305   0.38409   0.38927   0.40171
  Beta virt. eigenvalues --    0.41216   0.41345   0.41515   0.42304   0.43071
  Beta virt. eigenvalues --    0.43088   0.43536   0.43828   0.44167   0.44422
  Beta virt. eigenvalues --    0.44939   0.44972   0.46356   0.46566   0.46643
  Beta virt. eigenvalues --    0.47238   0.48385   0.48733   0.48821   0.49142
  Beta virt. eigenvalues --    0.50286   0.50889   0.51185   0.51841   0.52260
  Beta virt. eigenvalues --    0.52321   0.53398   0.53486   0.55174   0.55200
  Beta virt. eigenvalues --    0.57169   0.58228   0.58414   0.60792   0.61534
  Beta virt. eigenvalues --    0.61559   0.62061   0.62709   0.65642   0.67428
  Beta virt. eigenvalues --    0.67609   0.67689   0.76705   0.90538   0.90752
[...]
    49   Atom        0.000410     -0.000049     -0.000884
    50   Atom       -0.000412     -0.000169     -0.000627
    51   Atom        0.000298      0.001592      0.002992
    52   Atom       -0.000540      0.001682     -0.001029
    53   Atom       -0.001681     -0.000934      0.000572
    54   Atom        0.001071      0.000117     -0.000777
    55   Atom       -0.001997      0.000372      0.002264
    56   Atom       -0.000345      0.000313     -0.001870
    57   Atom       -0.000409      0.000048     -0.000883
    58   Atom        0.000413      0.000168     -0.000629
    59   Atom       -0.000296     -0.001592      0.002990
    60   Atom        0.000542     -0.001682     -0.001030
    61   Atom        0.001680      0.000937      0.000573
    62   Atom       -0.001072     -0.000120     -0.000777
 --------------------------------------------------------


 ---------------------------------------------------------------------------------
              Anisotropic Spin Dipole Couplings in Principal Axis System
 ---------------------------------------------------------------------------------

       Atom             a.u.   MegaHertz   Gauss  10(-4) cm-1        Axes

              Baa    -0.0141    -1.896    -0.676    -0.632 -0.5911  0.7509  0.2946
     1 C(13)  Bbb     0.0003     0.047     0.017     0.016  0.0972 -0.2962  0.9502
              Bcc     0.0138     1.849     0.660     0.617  0.8007  0.5903  0.1021
 
              Baa    -0.0778   -10.435    -3.724    -3.481  0.0000 -0.4229  0.9062
     2 C(13)  Bbb    -0.0740    -9.935    -3.545    -3.314  1.0000  0.0000  0.0000
              Bcc     0.1518    20.371     7.269     6.795 -0.0000  0.9062  0.4229
 
              Baa    -0.0304    -4.076    -1.454    -1.360  0.9416 -0.1174 -0.3155
     3 C(13)  Bbb    -0.0268    -3.597    -1.283    -1.200  0.2175 -0.5032  0.8364
              Bcc     0.0572     7.673     2.738     2.559  0.2570  0.8562  0.4483
 
              Baa    -0.0141    -1.895    -0.676    -0.632  0.5912  0.7508  0.2946
     4 C(13)  Bbb     0.0003     0.046     0.017     0.015 -0.0972 -0.2962  0.9502
              Bcc     0.0138     1.849     0.660     0.617  0.8007 -0.5904 -0.1021
 
              Baa    -0.0606    -8.138    -2.904    -2.714 -0.0000 -0.2360  0.9718
     5 C(13)  Bbb    -0.0564    -7.562    -2.698    -2.523  1.0000  0.0000  0.0000
              Bcc     0.1170    15.700     5.602     5.237 -0.0000  0.9718  0.2360
 
              Baa    -0.0304    -4.075    -1.454    -1.359  0.9416  0.1175  0.3155
     6 C(13)  Bbb    -0.0268    -3.595    -1.283    -1.199 -0.2174 -0.5032  0.8364
              Bcc     0.0572     7.670     2.737     2.559 -0.2570  0.8562  0.4482
 
              Baa    -0.0032    -1.722    -0.615    -0.575  0.4967  0.8245  0.2713
     7 H(1)   Bbb    -0.0029    -1.553    -0.554    -0.518  0.8499 -0.5254  0.0406
              Bcc     0.0061     3.275     1.169     1.092 -0.1760 -0.2104  0.9616
 
              Baa    -0.0026    -1.366    -0.487    -0.455 -0.0430  0.8806  0.4719
     8 H(1)   Bbb    -0.0005    -0.273    -0.098    -0.091  0.9958 -0.0005  0.0918
              Bcc     0.0031     1.639     0.585     0.547 -0.0811 -0.4739  0.8768
 
              Baa    -0.0032    -1.722    -0.614    -0.574 -0.4960  0.8249  0.2712
     9 H(1)   Bbb    -0.0029    -1.552    -0.554    -0.518  0.8503  0.5247 -0.0408
              Bcc     0.0061     3.274     1.168     1.092  0.1760 -0.2104  0.9617
 
              Baa    -0.0606    -8.132    -2.902    -2.713 -0.0000  0.2354  0.9719
    10 C(13)  Bbb    -0.0563    -7.557    -2.696    -2.521  1.0000  0.0000  0.0000
              Bcc     0.1169    15.689     5.598     5.233 -0.0000  0.9719 -0.2354
 
              Baa    -0.0304    -4.076    -1.454    -1.360  0.9416  0.1175 -0.3156
    11 C(13)  Bbb    -0.0268    -3.597    -1.283    -1.200  0.2177  0.5028  0.8366
              Bcc     0.0572     7.673     2.738     2.559 -0.2570  0.8564 -0.4478
 
              Baa    -0.0304    -4.077    -1.455    -1.360  0.9416 -0.1175  0.3155
    12 C(13)  Bbb    -0.0268    -3.598    -1.284    -1.200 -0.2176  0.5028  0.8366
              Bcc     0.0572     7.675     2.739     2.560  0.2570  0.8564 -0.4478
 
              Baa    -0.0141    -1.896    -0.677    -0.633  0.5906  0.7514 -0.2944
    13 C(13)  Bbb     0.0004     0.048     0.017     0.016  0.0973  0.2958  0.9503
              Bcc     0.0138     1.848     0.660     0.617  0.8011 -0.5899  0.1016
 
              Baa    -0.0141    -1.897    -0.677    -0.633 -0.5902  0.7516 -0.2944
    14 C(13)  Bbb     0.0004     0.049     0.017     0.016 -0.0974  0.2958  0.9503
              Bcc     0.0138     1.849     0.660     0.617  0.8013  0.5896 -0.1014
 
              Baa    -0.0777   -10.432    -3.723    -3.480  0.0001  0.4224  0.9064
    15 C(13)  Bbb    -0.0740    -9.933    -3.544    -3.313  1.0000 -0.0000 -0.0001
              Bcc     0.1518    20.365     7.267     6.793 -0.0000  0.9064 -0.4224
 
              Baa    -0.0032    -1.722    -0.614    -0.574 -0.4960  0.8250 -0.2707
    16 H(1)   Bbb    -0.0029    -1.552    -0.554    -0.518  0.8503  0.5246  0.0411
              Bcc     0.0061     3.274     1.168     1.092 -0.1759  0.2099  0.9618
 
              Baa    -0.0032    -1.722    -0.615    -0.574  0.4965  0.8247 -0.2708
    17 H(1)   Bbb    -0.0029    -1.553    -0.554    -0.518  0.8500 -0.5252 -0.0411
              Bcc     0.0061     3.275     1.169     1.092  0.1761  0.2098  0.9618
 
              Baa    -0.0026    -1.365    -0.487    -0.455 -0.0430  0.8808 -0.4716
    18 H(1)   Bbb    -0.0005    -0.273    -0.097    -0.091  0.9958 -0.0005 -0.0917
              Bcc     0.0031     1.638     0.584     0.546  0.0810  0.4735  0.8771
 
              Baa    -0.0026    -1.365    -0.487    -0.455  0.0430  0.8808 -0.4715
    19 H(1)   Bbb    -0.0005    -0.272    -0.097    -0.091  0.9958  0.0004  0.0914
              Bcc     0.0031     1.637     0.584     0.546 -0.0807  0.4735  0.8771
 
              Baa    -0.0026    -1.366    -0.487    -0.456  0.0429  0.8806  0.4720
    20 H(1)   Bbb    -0.0005    -0.273    -0.097    -0.091  0.9958  0.0006 -0.0917
              Bcc     0.0031     1.639     0.585     0.547  0.0810 -0.4739  0.8768
 
              Baa    -0.0114    -1.525    -0.544    -0.509 -0.0000  0.6948  0.7192
    21 C(13)  Bbb     0.0005     0.061     0.022     0.020  1.0000 -0.0000  0.0000
              Bcc     0.0109     1.464     0.522     0.488  0.0000  0.7192 -0.6948
 
              Baa    -0.0191    -2.560    -0.914    -0.854  0.4592 -0.4208  0.7823
    22 C(13)  Bbb     0.0031     0.414     0.148     0.138  0.5393  0.8319  0.1309
              Bcc     0.0160     2.146     0.766     0.716  0.7059 -0.3618 -0.6090
 
              Baa    -0.0191    -2.559    -0.913    -0.854 -0.4593 -0.4211  0.7821
    23 C(13)  Bbb     0.0031     0.413     0.147     0.138 -0.5398  0.8316  0.1308
              Bcc     0.0160     2.146     0.766     0.716  0.7055  0.3621  0.6093
 
              Baa    -0.1356    -5.230    -1.866    -1.744 -0.1198  0.8453  0.5206
    24 N(14)  Bbb    -0.1347    -5.197    -1.854    -1.733  0.9923  0.1185  0.0359
              Bcc     0.2703    10.426     3.720     3.478  0.0313 -0.5209  0.8530
 
              Baa    -0.1356    -5.230    -1.866    -1.745  0.1195  0.8454  0.5206
    25 N(14)  Bbb    -0.1348    -5.198    -1.855    -1.734  0.9923 -0.1183 -0.0356
              Bcc     0.2704    10.428     3.721     3.478 -0.0315 -0.5209  0.8530
 
              Baa    -0.0041    -0.544    -0.194    -0.181  0.8956 -0.3803 -0.2307
    26 C(13)  Bbb    -0.0001    -0.008    -0.003    -0.003  0.4018  0.4690  0.7866
              Bcc     0.0041     0.552     0.197     0.184  0.1910  0.7971 -0.5728
 
              Baa    -0.0018    -0.948    -0.338    -0.316 -0.1968  0.8705 -0.4512
    27 H(1)   Bbb    -0.0010    -0.526    -0.188    -0.175  0.9735  0.1189 -0.1952
              Bcc     0.0028     1.474     0.526     0.492  0.1163  0.4777  0.8708
 
              Baa    -0.0020    -1.075    -0.384    -0.359  0.0347 -0.4239  0.9050
    28 H(1)   Bbb     0.0002     0.112     0.040     0.037 -0.2532  0.8723  0.4183
              Bcc     0.0018     0.963     0.344     0.321  0.9668  0.2437  0.0771
 
              Baa    -0.0019    -1.027    -0.367    -0.343 -0.1774 -0.1564  0.9716
    29 H(1)   Bbb    -0.0006    -0.344    -0.123    -0.115  0.9770  0.0911  0.1930
              Bcc     0.0026     1.371     0.489     0.457 -0.1187  0.9835  0.1366
 
              Baa    -0.0044    -0.592    -0.211    -0.197  0.0830  0.8835  0.4609
    30 C(13)  Bbb     0.0004     0.055     0.019     0.018  0.8628 -0.2952  0.4104
              Bcc     0.0040     0.537     0.192     0.179 -0.4987 -0.3636  0.7868
 
              Baa    -0.0019    -0.991    -0.354    -0.331 -0.1898  0.7830 -0.5923
    31 H(1)   Bbb    -0.0008    -0.429    -0.153    -0.143  0.6183  0.5639  0.5474
              Bcc     0.0027     1.420     0.507     0.474  0.7627 -0.2623 -0.5912
 
              Baa    -0.0017    -0.893    -0.319    -0.298 -0.1648  0.2017  0.9655
    32 H(1)   Bbb    -0.0013    -0.675    -0.241    -0.225  0.5107  0.8549 -0.0914
              Bcc     0.0029     1.568     0.560     0.523  0.8438 -0.4780  0.2439
 
              Baa    -0.0018    -0.941    -0.336    -0.314  0.2272 -0.6131  0.7566
    33 H(1)   Bbb    -0.0002    -0.127    -0.045    -0.042 -0.3652  0.6666  0.6498
              Bcc     0.0020     1.068     0.381     0.356  0.9028  0.4239  0.0725
 
              Baa    -0.0041    -0.545    -0.194    -0.182  0.8956  0.3801  0.2313
    34 C(13)  Bbb    -0.0001    -0.008    -0.003    -0.003 -0.4022  0.4693  0.7861
              Bcc     0.0041     0.553     0.197     0.184 -0.1903  0.7970 -0.5732
 
              Baa    -0.0018    -0.948    -0.338    -0.316  0.1967  0.8707 -0.4507
    35 H(1)   Bbb    -0.0010    -0.527    -0.188    -0.176  0.9734 -0.1186  0.1958
              Bcc     0.0028     1.474     0.526     0.492 -0.1170  0.4773  0.8709
 
              Baa    -0.0020    -1.076    -0.384    -0.359 -0.0350 -0.4231  0.9054
    36 H(1)   Bbb     0.0002     0.113     0.040     0.038  0.2527  0.8728  0.4176
              Bcc     0.0018     0.963     0.344     0.321  0.9669 -0.2434 -0.0763
 
              Baa    -0.0019    -1.028    -0.367    -0.343  0.1767 -0.1568  0.9717
    37 H(1)   Bbb    -0.0006    -0.344    -0.123    -0.115  0.9770 -0.0918 -0.1925
              Bcc     0.0026     1.372     0.489     0.458  0.1194  0.9834  0.1370
 
              Baa    -0.0044    -0.592    -0.211    -0.197 -0.0827  0.8840  0.4601
    38 C(13)  Bbb     0.0004     0.055     0.020     0.019  0.8632  0.2942 -0.4102
              Bcc     0.0040     0.536     0.191     0.179  0.4980 -0.3633  0.7874
 
              Baa    -0.0019    -0.991    -0.354    -0.331  0.1906  0.7799 -0.5962
    39 H(1)   Bbb    -0.0008    -0.429    -0.153    -0.143  0.6176 -0.5673 -0.5447
              Bcc     0.0027     1.420     0.507     0.474  0.7630  0.2644  0.5898
 
              Baa    -0.0017    -0.892    -0.318    -0.297  0.1645  0.2066  0.9645
    40 H(1)   Bbb    -0.0013    -0.676    -0.241    -0.226 -0.5102  0.8547 -0.0960
              Bcc     0.0029     1.568     0.559     0.523  0.8442  0.4763 -0.2460
 
              Baa    -0.0018    -0.942    -0.336    -0.314 -0.2284 -0.6121  0.7571
    41 H(1)   Bbb    -0.0002    -0.126    -0.045    -0.042  0.3647  0.6672  0.6494
              Bcc     0.0020     1.068     0.381     0.356  0.9027 -0.4245 -0.0708
 
              Baa    -0.0114    -1.527    -0.545    -0.509  0.0000 -0.6952  0.7189
    42 C(13)  Bbb     0.0004     0.060     0.021     0.020  1.0000  0.0001  0.0000
              Bcc     0.0109     1.467     0.523     0.489 -0.0001  0.7189  0.6952
 
              Baa    -0.0191    -2.562    -0.914    -0.854 -0.4591  0.4209  0.7823
    43 C(13)  Bbb     0.0031     0.414     0.148     0.138  0.5400  0.8315 -0.1305
              Bcc     0.0160     2.148     0.766     0.716  0.7054 -0.3625  0.6090
 
              Baa    -0.0191    -2.561    -0.914    -0.854  0.4590  0.4210  0.7823
    44 C(13)  Bbb     0.0031     0.413     0.148     0.138 -0.5402  0.8313 -0.1304
              Bcc     0.0160     2.148     0.766     0.716  0.7053  0.3628 -0.6091
 
              Baa    -0.1357    -5.235    -1.868    -1.746 -0.1202  0.8453 -0.5205
    45 N(14)  Bbb    -0.1349    -5.203    -1.856    -1.735  0.9923  0.1189 -0.0360
              Bcc     0.2706    10.438     3.724     3.482 -0.0314  0.5208  0.8531
 
              Baa    -0.1357    -5.235    -1.868    -1.746  0.1202  0.8454 -0.5205
    46 N(14)  Bbb    -0.1349    -5.203    -1.856    -1.735  0.9923 -0.1188  0.0361
              Bcc     0.2706    10.438     3.724     3.482  0.0314  0.5208  0.8531
 
              Baa    -0.0041    -0.545    -0.194    -0.182  0.8956 -0.3801  0.2309
    47 C(13)  Bbb    -0.0001    -0.008    -0.003    -0.003 -0.4019 -0.4692  0.7863
              Bcc     0.0041     0.553     0.197     0.185  0.1906  0.7971  0.5731
 
              Baa    -0.0018    -0.948    -0.338    -0.316 -0.1971  0.8704  0.4511
    48 H(1)   Bbb    -0.0010    -0.527    -0.188    -0.176  0.9734  0.1191  0.1956
              Bcc     0.0028     1.475     0.526     0.492 -0.1165 -0.4777  0.8708
 
              Baa    -0.0020    -1.076    -0.384    -0.359 -0.0348  0.4234  0.9053
    49 H(1)   Bbb     0.0002     0.112     0.040     0.037 -0.2536  0.8724 -0.4178
              Bcc     0.0018     0.964     0.344     0.322  0.9667  0.2441 -0.0770
 
              Baa    -0.0019    -1.029    -0.367    -0.343  0.1773  0.1563  0.9717
    50 H(1)   Bbb    -0.0006    -0.344    -0.123    -0.115  0.9769  0.0914 -0.1930
              Bcc     0.0026     1.373     0.490     0.458 -0.1190  0.9835 -0.1365
 
              Baa    -0.0044    -0.592    -0.211    -0.198  0.0827  0.8838 -0.4605
    51 C(13)  Bbb     0.0004     0.055     0.020     0.018  0.8632 -0.2945 -0.4100
              Bcc     0.0040     0.537     0.192     0.179  0.4980  0.3636  0.7873
 
              Baa    -0.0019    -0.992    -0.354    -0.331 -0.1901  0.7818  0.5939
    52 H(1)   Bbb    -0.0008    -0.429    -0.153    -0.143  0.6179  0.5654 -0.5464
              Bcc     0.0027     1.422     0.507     0.474  0.7629 -0.2631  0.5906
 
              Baa    -0.0017    -0.893    -0.319    -0.298  0.1648 -0.2036  0.9651
    53 H(1)   Bbb    -0.0013    -0.676    -0.241    -0.225  0.5105  0.8548  0.0932
              Bcc     0.0029     1.569     0.560     0.523  0.8439 -0.4773 -0.2449
 
              Baa    -0.0018    -0.942    -0.336    -0.314 -0.2276  0.6126  0.7569
    54 H(1)   Bbb    -0.0002    -0.127    -0.045    -0.042 -0.3653  0.6668 -0.6496
              Bcc     0.0020     1.069     0.381     0.357  0.9026  0.4243 -0.0720
 
              Baa    -0.0041    -0.545    -0.194    -0.182  0.8955  0.3803 -0.2312
    55 C(13)  Bbb    -0.0001    -0.008    -0.003    -0.003  0.4023 -0.4696  0.7859
              Bcc     0.0041     0.553     0.197     0.185 -0.1903  0.7968  0.5735
 
              Baa    -0.0018    -0.948    -0.338    -0.316  0.1969  0.8707  0.4507
    56 H(1)   Bbb    -0.0010    -0.527    -0.188    -0.176  0.9734 -0.1187 -0.1959
              Bcc     0.0028     1.475     0.526     0.492  0.1171 -0.4773  0.8709
 
              Baa    -0.0020    -1.077    -0.384    -0.359  0.0349  0.4230  0.9055
    57 H(1)   Bbb     0.0002     0.112     0.040     0.037  0.2530  0.8728 -0.4175
              Bcc     0.0018     0.964     0.344     0.322  0.9668 -0.2437  0.0766
 
              Baa    -0.0019    -1.029    -0.367    -0.343 -0.1767  0.1568  0.9717
    58 H(1)   Bbb    -0.0006    -0.344    -0.123    -0.115  0.9770 -0.0916  0.1924
              Bcc     0.0026     1.373     0.490     0.458  0.1191  0.9834 -0.1370
 
              Baa    -0.0044    -0.592    -0.211    -0.198 -0.0828  0.8840 -0.4602
    59 C(13)  Bbb     0.0004     0.055     0.020     0.018  0.8632  0.2944  0.4102
              Bcc     0.0040     0.537     0.192     0.179 -0.4981  0.3632  0.7874
 
              Baa    -0.0019    -0.992    -0.354    -0.331  0.1904  0.7806  0.5953
    60 H(1)   Bbb    -0.0008    -0.430    -0.153    -0.143  0.6179 -0.5665  0.5453
              Bcc     0.0027     1.422     0.507     0.474  0.7629  0.2640 -0.5902
 
              Baa    -0.0017    -0.893    -0.319    -0.298 -0.1647 -0.2054  0.9647
    61 H(1)   Bbb    -0.0013    -0.677    -0.241    -0.226 -0.5104  0.8547  0.0948
              Bcc     0.0029     1.569     0.560     0.523  0.8440  0.4768  0.2456
 
              Baa    -0.0018    -0.943    -0.336    -0.314  0.2281  0.6123  0.7570
    62 H(1)   Bbb    -0.0002    -0.126    -0.045    -0.042  0.3649  0.6671 -0.6495
              Bcc     0.0020     1.069     0.381     0.357  0.9027 -0.4244  0.0713
 

 ---------------------------------------------------------------------------------

 No NMR shielding tensors so no spin-rotation constants.
 Leave Link  601 at Tue Jan 26 11:02:08 2021, MaxMem=  4026531840 cpu:               9.6 elap:               1.3
 (Enter /opt/ohpc/pub/libs/gaussian/g16-A.03/sandybridge/g16/l9999.exe)

 Test job not archived.
 1\1\GINC-CNODE145\SP\ULC-wHPBE\TZVP\C26H32N4(3+,2)\RDU230\26-Jan-2021\
 0\\#P LC-wHPBE/TZVP iop(3/107=0197300000, 3/108=0197300000) scf=(conve
 r=6,fermi,ndamp=35,noincfock,novaracc,vshift=500,xqc)\\H32 C26 N4\\3,2
 \C,0,-2.823961,0.444264,1.111805\C,0,-3.524911,0.0001,0.000001\C,0,-1.
 447297,0.438089,1.110761\C,0,-2.823968,-0.444049,-1.11184\C,0,-0.74021
 8,0.000107,-0.000031\C,0,-1.447325,-0.43786,-1.11083\H,0,-0.914462,0.7
 97765,1.980986\H,0,-3.355363,-0.783593,-1.991035\H,0,-0.914491,-0.7974
 9,-1.981076\C,0,0.740229,0.000109,-0.000016\C,0,1.447379,0.437502,-1.1
 10991\C,0,1.447259,-0.437322,1.111037\C,0,2.824033,0.443666,-1.111944\
 C,0,2.823909,-0.443539,1.112143\C,0,3.52491,0.000034,0.000126\H,0,0.91
 4614,0.796709,-1.981454\H,0,0.914365,-0.796519,1.981427\H,0,3.355477,0
 .782802,-1.991269\H,0,3.355249,-0.782652,1.991539\H,0,-3.355316,0.7838
 24,1.991014\C,0,4.975135,0.000032,0.000145\C,0,6.14652,-0.565054,0.408
 043\C,0,6.146453,0.56505,-0.408017\N,0,6.78098,-1.491697,1.066857\N,0,
 6.780843,1.491604,-1.067037\C,0,6.057956,-2.591048,1.684578\H,0,6.1547
 08,-2.5451,2.768364\H,0,5.008879,-2.544629,1.410837\H,0,6.464629,-3.53
 7319,1.332266\C,0,8.228734,-1.518275,1.186143\H,0,8.494477,-1.775383,2
 .209103\H,0,8.659441,-2.259109,0.51335\H,0,8.642938,-0.539771,0.968827
 \C,0,6.05773,2.591089,-1.684422\H,0,6.153192,2.544651,-2.768303\H,0,5.
 008941,2.545387,-1.409434\H,0,6.465326,3.537274,-1.332961\C,0,8.228631
 ,1.518112,-1.186291\H,0,8.494234,1.779605,-2.208151\H,0,8.659838,2.255
 827,-0.510389\H,0,8.642467,0.538433,-0.973542\C,0,-4.975109,0.000078,0
 .000026\C,0,-6.146534,0.56508,0.407916\C,0,-6.146403,-0.565147,-0.4079
 45\N,0,-6.781069,1.491701,1.066705\N,0,-6.780732,-1.491927,-1.0667\C,0
 ,-6.058202,2.591312,1.684129\H,0,-6.154554,2.545406,2.767953\H,0,-5.00
 9205,2.545245,1.410016\H,0,-6.465319,3.537423,1.331906\C,0,-8.228858,1
 .518145,1.185797\H,0,-8.494704,1.776946,2.208295\H,0,-8.659724,2.25773
 5,0.511728\H,0,-8.642813,0.539154,0.970202\C,0,-6.057561,-2.59137,-1.6
 84106\H,0,-6.153074,-2.544964,-2.767982\H,0,-5.008776,-2.545628,-1.409
 122\H,0,-6.465122,-3.537559,-1.33261\C,0,-8.228499,-1.518584,-1.185941
 \H,0,-8.494145,-1.779106,-2.208049\H,0,-8.65952,-2.25704,-0.510729\H,0
 ,-8.642516,-0.539209,-0.97216\\Version=EM64L-G16RevA.03\State=2-A\HF=-
 1227.2109055\S2=0.773377\S2-1=0.\S2A=0.750368\RMSD=9.084e-07\Dipole=-0
 .0026541,-0.0000458,-0.0000294\Quadrupole=272.0267586,-131.693472,-140
 .3332866,0.0012341,0.0002713,0.0031134\PG=C01 [X(C26H32N4)]\\@


 Children are likely to live up to what you believe of them.
 -- Lady Bird Johnson
 Job cpu time:       0 days  5 hours 27 minutes 27.0 seconds.
 Elapsed time:       0 days  0 hours 41 minutes 24.5 seconds.
 File lengths (MBytes):  RWF=    332 Int=      0 D2E=      0 Chk=     48 Scr=      8
 Normal termination of Gaussian 16 at Tue Jan 26 11:02:08 2021.
