 Entering Gaussian System, Link 0=g16
 Input=mol_bp_cp_whol_tune_c0.gjf
 Output=mol_bp_cp_whol_tune_c0.log
 Initial command:
 /opt/ohpc/pub/libs/gaussian/g16-A.03/sandybridge/g16/l1.exe "/mnt/gpfs2_4m/scratch/rdu230/ondemand/projects/init_structures/gaussian/wtuning/mol_bp_cp_whol/tuning_mol_bp_cp_whol_ocycle0/Gau-36608.inp" -scrdir="/mnt/gpfs2_4m/scratch/rdu230/ondemand/projects/init_structures/gaussian/wtuning/mol_bp_cp_whol/tuning_mol_bp_cp_whol_ocycle0/"
 Entering Link 1 = /opt/ohpc/pub/libs/gaussian/g16-A.03/sandybridge/g16/l1.exe PID=     36609.
  
 Copyright (c) 1988,1990,1992,1993,1995,1998,2003,2009,2016,
            Gaussian, Inc.  All Rights Reserved.
  
 This is part of the Gaussian(R) 16 program.  It is based on
 the Gaussian(R) 09 system (copyright 2009, Gaussian, Inc.),
 the Gaussian(R) 03 system (copyright 2003, Gaussian, Inc.),
 the Gaussian(R) 98 system (copyright 1998, Gaussian, Inc.),
 the Gaussian(R) 94 system (copyright 1995, Gaussian, Inc.),
 the Gaussian 92(TM) system (copyright 1992, Gaussian, Inc.),
 the Gaussian 90(TM) system (copyright 1990, Gaussian, Inc.),
 the Gaussian 88(TM) system (copyright 1988, Gaussian, Inc.),
 the Gaussian 86(TM) system (copyright 1986, Carnegie Mellon
 University), and the Gaussian 82(TM) system (copyright 1983,
 Carnegie Mellon University). Gaussian is a federally registered
 trademark of Gaussian, Inc.
  
 This software contains proprietary and confidential information,
 including trade secrets, belonging to Gaussian, Inc.
  
 This software is provided under written license and may be
 used, copied, transmitted, or stored only in accord with that
 written license.
  
 The following legend is applicable only to US Government
 contracts under FAR:
  
                    RESTRICTED RIGHTS LEGEND
  
 Use, reproduction and disclosure by the US Government is
 subject to restrictions as set forth in subparagraphs (a)
 and (c) of the Commercial Computer Software - Restricted
 Rights clause in FAR 52.227-19.
  
 Gaussian, Inc.
 340 Quinnipiac St., Bldg. 40, Wallingford CT 06492
  
  
 ---------------------------------------------------------------
 Warning -- This program may not be used in any manner that
 competes with the business of Gaussian, Inc. or will provide
 assistance to any competitor of Gaussian, Inc.  The licensee
 of this program is prohibited from giving any competitor of
 Gaussian, Inc. access to this program.  By using this program,
 the user acknowledges that Gaussian, Inc. is engaged in the
 business of creating and licensing software in the field of
 computational chemistry and represents and warrants to the
 licensee that it is not a competitor of Gaussian, Inc. and that
 it will not use this program in any manner prohibited above.
 ---------------------------------------------------------------
  

 Cite this work as:
 Gaussian 16, Revision A.03,
 M. J. Frisch, G. W. Trucks, H. B. Schlegel, G. E. Scuseria, 
 M. A. Robb, J. R. Cheeseman, G. Scalmani, V. Barone, 
 G. A. Petersson, H. Nakatsuji, X. Li, M. Caricato, A. V. Marenich, 
 J. Bloino, B. G. Janesko, R. Gomperts, B. Mennucci, H. P. Hratchian, 
 J. V. Ortiz, A. F. Izmaylov, J. L. Sonnenberg, D. Williams-Young, 
 F. Ding, F. Lipparini, F. Egidi, J. Goings, B. Peng, A. Petrone, 
 T. Henderson, D. Ranasinghe, V. G. Zakrzewski, J. Gao, N. Rega, 
 G. Zheng, W. Liang, M. Hada, M. Ehara, K. Toyota, R. Fukuda, 
 J. Hasegawa, M. Ishida, T. Nakajima, Y. Honda, O. Kitao, H. Nakai, 
 T. Vreven, K. Throssell, J. A. Montgomery, Jr., J. E. Peralta, 
 F. Ogliaro, M. J. Bearpark, J. J. Heyd, E. N. Brothers, K. N. Kudin, 
 V. N. Staroverov, T. A. Keith, R. Kobayashi, J. Normand, 
 K. Raghavachari, A. P. Rendell, J. C. Burant, S. S. Iyengar, 
 J. Tomasi, M. Cossi, J. M. Millam, M. Klene, C. Adamo, R. Cammi, 
 J. W. Ochterski, R. L. Martin, K. Morokuma, O. Farkas, 
 J. B. Foresman, and D. J. Fox, Gaussian, Inc., Wallingford CT, 2016.
 
 ******************************************
 Gaussian 16:  EM64L-G16RevA.03 25-Dec-2016
                26-Jan-2021 
 ******************************************
 %mem=30GB
 %nproc=8
 Will use up to    8 processors via shared memory.
 ----------------------------------------------------------------------
 #P LC-wHPBE/TZVP iop(3/107=0221900000, 3/108=0221900000) scf=(conver=6
 ,fermi,ndamp=35,noincfock,novaracc,vshift=500,xqc)
 ----------------------------------------------------------------------
 1/38=1,172=1/1;
 2/12=2,17=6,18=5,40=1/2;
 3/5=19,7=101,11=2,25=1,30=1,74=-71,107=221900000,108=221900000/1,2,3;
 4//1;
 5/5=100002,6=6,8=3,10=500,13=1,18=-1,22=13,38=1,93=35/2,8;
 6/7=2,8=2,9=2,10=2,28=1/1;
 99/5=1,9=1/99;
 Leave Link    1 at Tue Jan 26 03:26:30 2021, MaxMem=  4026531840 cpu:               1.6 elap:               0.2
 (Enter /opt/ohpc/pub/libs/gaussian/g16-A.03/sandybridge/g16/l101.exe)
 ----------
 H32 C26 N4
 ----------
 Symbolic Z-matrix:
 Charge =  3 Multiplicity = 2
 C                    -2.82396   0.44426   1.1118 
 C                    -3.52491   0.0001    0. 
 C                    -1.4473    0.43809   1.11076 
 C                    -2.82397  -0.44405  -1.11184 
 C                    -0.74022   0.00011  -0.00003 
 C                    -1.44733  -0.43786  -1.11083 
 H                    -0.91446   0.79777   1.98099 
 H                    -3.35536  -0.78359  -1.99104 
 H                    -0.91449  -0.79749  -1.98108 
 C                     0.74023   0.00011  -0.00002 
 C                     1.44738   0.4375   -1.11099 
 C                     1.44726  -0.43732   1.11104 
 C                     2.82403   0.44367  -1.11194 
 C                     2.82391  -0.44354   1.11214 
 C                     3.52491   0.00003   0.00013 
 H                     0.91461   0.79671  -1.98145 
 H                     0.91437  -0.79652   1.98143 
 H                     3.35548   0.7828   -1.99127 
 H                     3.35525  -0.78265   1.99154 
 H                    -3.35532   0.78382   1.99101 
 C                     4.97514   0.00003   0.00015 
 C                     6.14652  -0.56505   0.40804 
 C                     6.14645   0.56505  -0.40802 
 N                     6.78098  -1.4917    1.06686 
 N                     6.78084   1.4916   -1.06704 
 C                     6.05796  -2.59105   1.68458 
 H                     6.15471  -2.5451    2.76836 
 H                     5.00888  -2.54463   1.41084 
 H                     6.46463  -3.53732   1.33227 
 C                     8.22873  -1.51828   1.18614 
 H                     8.49448  -1.77538   2.2091 
 H                     8.65944  -2.25911   0.51335 
 H                     8.64294  -0.53977   0.96883 
 C                     6.05773   2.59109  -1.68442 
 H                     6.15319   2.54465  -2.7683 
 H                     5.00894   2.54539  -1.40943 
 H                     6.46533   3.53727  -1.33296 
 C                     8.22863   1.51811  -1.18629 
 H                     8.49423   1.77961  -2.20815 
 H                     8.65984   2.25583  -0.51039 
 H                     8.64247   0.53843  -0.97354 
 C                    -4.97511   0.00008   0.00003 
 C                    -6.14653   0.56508   0.40792 
 C                    -6.1464   -0.56515  -0.40795 
 N                    -6.78107   1.4917    1.06671 
 N                    -6.78073  -1.49193  -1.0667 
 C                    -6.0582    2.59131   1.68413 
 H                    -6.15455   2.54541   2.76795 
 H                    -5.0092    2.54525   1.41002 
 H                    -6.46532   3.53742   1.33191 
 C                    -8.22886   1.51815   1.1858 
 H                    -8.4947    1.77695   2.2083 
 H                    -8.65972   2.25774   0.51173 
 H                    -8.64281   0.53915   0.9702 
 C                    -6.05756  -2.59137  -1.68411 
 H                    -6.15307  -2.54496  -2.76798 
 H                    -5.00878  -2.54563  -1.40912 
 H                    -6.46512  -3.53756  -1.33261 
 C                    -8.2285   -1.51858  -1.18594 
 H                    -8.49414  -1.77911  -2.20805 
 H                    -8.65952  -2.25704  -0.51073 
 H                    -8.64252  -0.53921  -0.97216 
 
 ITRead=  0  0  0  0  0  0  0  0  0  0  0  0  0  0  0  0  0  0  0  0
 ITRead=  0  0  0  0  0  0  0  0  0  0  0  0  0  0  0  0  0  0  0  0
 ITRead=  0  0  0  0  0  0  0  0  0  0  0  0  0  0  0  0  0  0  0  0
 ITRead=  0  0
 MicOpt= -1 -1 -1 -1 -1 -1 -1 -1 -1 -1 -1 -1 -1 -1 -1 -1 -1 -1 -1 -1
 MicOpt= -1 -1 -1 -1 -1 -1 -1 -1 -1 -1 -1 -1 -1 -1 -1 -1 -1 -1 -1 -1
 MicOpt= -1 -1 -1 -1 -1 -1 -1 -1 -1 -1 -1 -1 -1 -1 -1 -1 -1 -1 -1 -1
 MicOpt= -1 -1
 NAtoms=     62 NQM=       62 NQMF=       0 NMMI=      0 NMMIF=      0
                NMic=       0 NMicF=      0.
                    Isotopes and Nuclear Properties:
 (Nuclear quadrupole moments (NQMom) in fm**2, nuclear magnetic moments (NMagM)
  in nuclear magnetons)

  Atom         1           2           3           4           5           6           7           8           9          10
 IAtWgt=          12          12          12          12          12          12           1           1           1          12
 AtmWgt=  12.0000000  12.0000000  12.0000000  12.0000000  12.0000000  12.0000000   1.0078250   1.0078250   1.0078250  12.0000000
 NucSpn=           0           0           0           0           0           0           1           1           1           0
 AtZEff=  -0.0000000  -0.0000000  -0.0000000  -0.0000000  -0.0000000  -0.0000000  -0.0000000  -0.0000000  -0.0000000  -0.0000000
 NQMom=    0.0000000   0.0000000   0.0000000   0.0000000   0.0000000   0.0000000   0.0000000   0.0000000   0.0000000   0.0000000
 NMagM=    0.0000000   0.0000000   0.0000000   0.0000000   0.0000000   0.0000000   2.7928460   2.7928460   2.7928460   0.0000000
 AtZNuc=   6.0000000   6.0000000   6.0000000   6.0000000   6.0000000   6.0000000   1.0000000   1.0000000   1.0000000   6.0000000

  Atom        11          12          13          14          15          16          17          18          19          20
 IAtWgt=          12          12          12          12          12           1           1           1           1           1
 AtmWgt=  12.0000000  12.0000000  12.0000000  12.0000000  12.0000000   1.0078250   1.0078250   1.0078250   1.0078250   1.0078250
 NucSpn=           0           0           0           0           0           1           1           1           1           1
 AtZEff=  -0.0000000  -0.0000000  -0.0000000  -0.0000000  -0.0000000  -0.0000000  -0.0000000  -0.0000000  -0.0000000  -0.0000000
 NQMom=    0.0000000   0.0000000   0.0000000   0.0000000   0.0000000   0.0000000   0.0000000   0.0000000   0.0000000   0.0000000
 NMagM=    0.0000000   0.0000000   0.0000000   0.0000000   0.0000000   2.7928460   2.7928460   2.7928460   2.7928460   2.7928460
 AtZNuc=   6.0000000   6.0000000   6.0000000   6.0000000   6.0000000   1.0000000   1.0000000   1.0000000   1.0000000   1.0000000

  Atom        21          22          23          24          25          26          27          28          29          30
 IAtWgt=          12          12          12          14          14          12           1           1           1          12
 AtmWgt=  12.0000000  12.0000000  12.0000000  14.0030740  14.0030740  12.0000000   1.0078250   1.0078250   1.0078250  12.0000000
 NucSpn=           0           0           0           2           2           0           1           1           1           0
 AtZEff=  -0.0000000  -0.0000000  -0.0000000  -0.0000000  -0.0000000  -0.0000000  -0.0000000  -0.0000000  -0.0000000  -0.0000000
 NQMom=    0.0000000   0.0000000   0.0000000   2.0440000   2.0440000   0.0000000   0.0000000   0.0000000   0.0000000   0.0000000
 NMagM=    0.0000000   0.0000000   0.0000000   0.4037610   0.4037610   0.0000000   2.7928460   2.7928460   2.7928460   0.0000000
 AtZNuc=   6.0000000   6.0000000   6.0000000   7.0000000   7.0000000   6.0000000   1.0000000   1.0000000   1.0000000   6.0000000

  Atom        31          32          33          34          35          36          37          38          39          40
 IAtWgt=           1           1           1          12           1           1           1          12           1           1
 AtmWgt=   1.0078250   1.0078250   1.0078250  12.0000000   1.0078250   1.0078250   1.0078250  12.0000000   1.0078250   1.0078250
 NucSpn=           1           1           1           0           1           1           1           0           1           1
 AtZEff=  -0.0000000  -0.0000000  -0.0000000  -0.0000000  -0.0000000  -0.0000000  -0.0000000  -0.0000000  -0.0000000  -0.0000000
 NQMom=    0.0000000   0.0000000   0.0000000   0.0000000   0.0000000   0.0000000   0.0000000   0.0000000   0.0000000   0.0000000
 NMagM=    2.7928460   2.7928460   2.7928460   0.0000000   2.7928460   2.7928460   2.7928460   0.0000000   2.7928460   2.7928460
 AtZNuc=   1.0000000   1.0000000   1.0000000   6.0000000   1.0000000   1.0000000   1.0000000   6.0000000   1.0000000   1.0000000

  Atom        41          42          43          44          45          46          47          48          49          50
 IAtWgt=           1          12          12          12          14          14          12           1           1           1
 AtmWgt=   1.0078250  12.0000000  12.0000000  12.0000000  14.0030740  14.0030740  12.0000000   1.0078250   1.0078250   1.0078250
 NucSpn=           1           0           0           0           2           2           0           1           1           1
 AtZEff=  -0.0000000  -0.0000000  -0.0000000  -0.0000000  -0.0000000  -0.0000000  -0.0000000  -0.0000000  -0.0000000  -0.0000000
 NQMom=    0.0000000   0.0000000   0.0000000   0.0000000   2.0440000   2.0440000   0.0000000   0.0000000   0.0000000   0.0000000
 NMagM=    2.7928460   0.0000000   0.0000000   0.0000000   0.4037610   0.4037610   0.0000000   2.7928460   2.7928460   2.7928460
 AtZNuc=   1.0000000   6.0000000   6.0000000   6.0000000   7.0000000   7.0000000   6.0000000   1.0000000   1.0000000   1.0000000

  Atom        51          52          53          54          55          56          57          58          59          60
 IAtWgt=          12           1           1           1          12           1           1           1          12           1
 AtmWgt=  12.0000000   1.0078250   1.0078250   1.0078250  12.0000000   1.0078250   1.0078250   1.0078250  12.0000000   1.0078250
 NucSpn=           0           1           1           1           0           1           1           1           0           1
 AtZEff=  -0.0000000  -0.0000000  -0.0000000  -0.0000000  -0.0000000  -0.0000000  -0.0000000  -0.0000000  -0.0000000  -0.0000000
 NQMom=    0.0000000   0.0000000   0.0000000   0.0000000   0.0000000   0.0000000   0.0000000   0.0000000   0.0000000   0.0000000
 NMagM=    0.0000000   2.7928460   2.7928460   2.7928460   0.0000000   2.7928460   2.7928460   2.7928460   0.0000000   2.7928460
 AtZNuc=   6.0000000   1.0000000   1.0000000   1.0000000   6.0000000   1.0000000   1.0000000   1.0000000   6.0000000   1.0000000

  Atom        61          62
 IAtWgt=           1           1
 AtmWgt=   1.0078250   1.0078250
 NucSpn=           1           1
 AtZEff=  -0.0000000  -0.0000000
 NQMom=    0.0000000   0.0000000
 NMagM=    2.7928460   2.7928460
 AtZNuc=   1.0000000   1.0000000
 Leave Link  101 at Tue Jan 26 03:26:30 2021, MaxMem=  4026531840 cpu:               0.9 elap:               0.1
 (Enter /opt/ohpc/pub/libs/gaussian/g16-A.03/sandybridge/g16/l202.exe)
 Stoichiometry    C26H32N4(3+,2)
 Framework group  C1[X(C26H32N4)]
 Deg. of freedom   180
 Full point group                 C1      NOp   1
 Largest Abelian subgroup         C1      NOp   1
 Largest concise Abelian subgroup C1      NOp   1
                         Standard orientation:                         
 ---------------------------------------------------------------------
 Center     Atomic      Atomic             Coordinates (Angstroms)
 Number     Number       Type             X           Y           Z
 ---------------------------------------------------------------------
      1          6           0        2.823961   -0.444264    1.111805
      2          6           0        3.524911   -0.000100    0.000001
      3          6           0        1.447297   -0.438089    1.110761
      4          6           0        2.823968    0.444049   -1.111840
      5          6           0        0.740218   -0.000107   -0.000031
      6          6           0        1.447325    0.437860   -1.110830
      7          1           0        0.914462   -0.797765    1.980986
      8          1           0        3.355363    0.783593   -1.991035
      9          1           0        0.914491    0.797490   -1.981076
     10          6           0       -0.740229   -0.000109   -0.000016
     11          6           0       -1.447379   -0.437502   -1.110991
     12          6           0       -1.447259    0.437322    1.111037
     13          6           0       -2.824033   -0.443666   -1.111944
     14          6           0       -2.823909    0.443539    1.112143
     15          6           0       -3.524910   -0.000034    0.000126
     16          1           0       -0.914614   -0.796709   -1.981454
     17          1           0       -0.914365    0.796519    1.981427
     18          1           0       -3.355477   -0.782802   -1.991269
     19          1           0       -3.355249    0.782652    1.991539
     20          1           0        3.355316   -0.783824    1.991014
     21          6           0       -4.975135   -0.000032    0.000145
     22          6           0       -6.146520    0.565054    0.408043
     23          6           0       -6.146453   -0.565050   -0.408017
     24          7           0       -6.780980    1.491697    1.066857
     25          7           0       -6.780843   -1.491604   -1.067037
     26          6           0       -6.057956    2.591048    1.684578
     27          1           0       -6.154708    2.545100    2.768364
     28          1           0       -5.008879    2.544629    1.410837
     29          1           0       -6.464629    3.537319    1.332266
     30          6           0       -8.228734    1.518275    1.186143
     31          1           0       -8.494477    1.775383    2.209103
     32          1           0       -8.659441    2.259109    0.513350
     33          1           0       -8.642938    0.539771    0.968827
     34          6           0       -6.057730   -2.591089   -1.684422
     35          1           0       -6.153192   -2.544651   -2.768303
     36          1           0       -5.008941   -2.545387   -1.409434
     37          1           0       -6.465326   -3.537274   -1.332961
     38          6           0       -8.228631   -1.518112   -1.186291
     39          1           0       -8.494234   -1.779605   -2.208151
     40          1           0       -8.659838   -2.255827   -0.510389
     41          1           0       -8.642467   -0.538433   -0.973542
     42          6           0        4.975109   -0.000078    0.000026
     43          6           0        6.146534   -0.565080    0.407916
     44          6           0        6.146403    0.565147   -0.407945
     45          7           0        6.781069   -1.491701    1.066705
     46          7           0        6.780732    1.491927   -1.066700
     47          6           0        6.058202   -2.591312    1.684129
     48          1           0        6.154554   -2.545406    2.767953
     49          1           0        5.009205   -2.545245    1.410016
     50          1           0        6.465319   -3.537423    1.331906
     51          6           0        8.228858   -1.518145    1.185797
     52          1           0        8.494704   -1.776946    2.208295
     53          1           0        8.659724   -2.257735    0.511728
     54          1           0        8.642813   -0.539154    0.970202
     55          6           0        6.057561    2.591370   -1.684106
     56          1           0        6.153074    2.544964   -2.767982
     57          1           0        5.008776    2.545628   -1.409122
     58          1           0        6.465122    3.537559   -1.332610
     59          6           0        8.228499    1.518584   -1.185941
     60          1           0        8.494145    1.779106   -2.208049
     61          1           0        8.659520    2.257040   -0.510729
     62          1           0        8.642516    0.539209   -0.972160
 ---------------------------------------------------------------------
 Rotational constants (GHZ):           0.4108366           0.0399477           0.0392121
 Leave Link  202 at Tue Jan 26 03:26:30 2021, MaxMem=  4026531840 cpu:               0.1 elap:               0.0
 (Enter /opt/ohpc/pub/libs/gaussian/g16-A.03/sandybridge/g16/l301.exe)
 Standard basis: TZVP (5D, 7F)
 Ernie: Thresh=  0.10000D-02 Tol=  0.10000D-05 Strict=F.
 There are   792 symmetry adapted cartesian basis functions of A   symmetry.
 There are   762 symmetry adapted basis functions of A   symmetry.
   762 basis functions,  1306 primitive gaussians,   792 cartesian basis functions
   107 alpha electrons      106 beta electrons
       nuclear repulsion energy      2573.9438951873 Hartrees.
 IExCor=33909 DFT=T Ex+Corr=LC-wHPBE ExCW=0 ScaHFX=  1.000000
 ScaDFX=  1.000000  1.000000  1.000000  1.000000 ScalE2=  1.000000  1.000000
 IRadAn=      5 IRanWt=     -1 IRanGd=            0 ICorTp=0 IEmpDi=  4
 HFx  wShort=  0.000000 wLong=  0.221900 cFull=  0.000000 cShort=  0.000000 cLong=  1.000000
 DFx  wShort=  0.000000 wLong=  0.221900 cFull=  0.000000 cShort=  1.000000 cLong=  0.000000
 NAtoms=   62 NActive=   62 NUniq=   62 SFac= 1.00D+00 NAtFMM=   60 NAOKFM=T Big=T
 Integral buffers will be    131072 words long.
 Raffenetti 2 integral format.
 Two-electron integral symmetry is turned on.
 Leave Link  301 at Tue Jan 26 03:26:30 2021, MaxMem=  4026531840 cpu:               0.4 elap:               0.1
 (Enter /opt/ohpc/pub/libs/gaussian/g16-A.03/sandybridge/g16/l302.exe)
 NPDir=0 NMtPBC=     1 NCelOv=     1 NCel=       1 NClECP=     1 NCelD=      1
         NCelK=      1 NCelE2=     1 NClLst=     1 CellRange=     0.0.
 One-electron integrals computed using PRISM.
 One-electron integral symmetry used in STVInt
 NBasis=   762 RedAO= T EigKep=  6.76D-06  NBF=   762
 NBsUse=   762 1.00D-06 EigRej= -1.00D+00 NBFU=   762
 Precomputing XC quadrature grid using
 IXCGrd= 4 IRadAn=           5 IRanWt=          -1 IRanGd=           0 AccXCQ= 0.00D+00.
 Generated NRdTot=       0 NPtTot=           0 NUsed=           0 NTot=          32
 NSgBfM=   719   719   719   719   719 MxSgAt=    62 MxSgA2=    62.
 Leave Link  302 at Tue Jan 26 03:26:32 2021, MaxMem=  4026531840 cpu:              16.8 elap:               2.1
 (Enter /opt/ohpc/pub/libs/gaussian/g16-A.03/sandybridge/g16/l303.exe)
 DipDrv:  MaxL=1.
 Leave Link  303 at Tue Jan 26 03:26:33 2021, MaxMem=  4026531840 cpu:               1.4 elap:               0.2
 (Enter /opt/ohpc/pub/libs/gaussian/g16-A.03/sandybridge/g16/l401.exe)
 ExpMin= 9.52D-02 ExpMax= 1.97D+04 ExpMxC= 6.73D+02 IAcc=3 IRadAn=         5 AccDes= 0.00D+00
 Harris functional with IExCor=33909 and IRadAn=       5 diagonalized for initial guess.
 HarFok:  IExCor=33909 AccDes= 0.00D+00 IRadAn=         5 IDoV= 1 UseB2=F ITyADJ=14
 ICtDFT=  3500011 ScaDFX=  1.000000  1.000000  1.000000  1.000000
 FoFCou: FMM=F IPFlag=           0 FMFlag=      100000 FMFlg1=        2001
         NFxFlg=           0 DoJE=T BraDBF=F KetDBF=T FulRan=T
         wScrn=  0.000000 ICntrl=       500 IOpCl=  0 I1Cent=   200000004 NGrid=           0
         NMat0=    1 NMatS0=      1 NMatT0=    0 NMatD0=    1 NMtDS0=    0 NMtDT0=    0
 Petite list used in FoFCou.
 Harris En= -1202.54183226398    
 JPrj=0 DoOrth=F DoCkMO=F.
 Initial guess <Sx>= 0.0000 <Sy>= 0.0000 <Sz>= 0.5000 <S**2>= 0.7500 S= 0.5000
 Leave Link  401 at Tue Jan 26 03:26:43 2021, MaxMem=  4026531840 cpu:              83.2 elap:              10.4
 (Enter /opt/ohpc/pub/libs/gaussian/g16-A.03/sandybridge/g16/l502.exe)
 Integral symmetry usage will be decided dynamically.
 UHF open shell SCF:
 Using DIIS extrapolation, IDIIS=    10.
 NGot=  4026531840 LenX=  4025262970 LenY=  4024634914
 Requested convergence on RMS density matrix=1.00D-06 within  32 cycles.
 Requested convergence on MAX density matrix=1.00D-04.
 Requested convergence on             energy=1.00D-04.
 Virtual orbitals will be shifted by   0.500 hartree.
 No special actions if energy rises.
 Dynamic level shift is on during FON iterations.

 Cycle   1  Pass 1  IDiag  1:
 FoFJK:  IHMeth= 1 ICntrl=       0 DoSepK=T KAlg= 0 I1Cent=           0 FoldK=F
 IRaf=         1 NMat=       1 IRICut=       1 DoRegI=T DoRafI=F ISym2E= 0 IDoP0=0 IntGTp=1.
 FoFCou: FMM=T IPFlag=           0 FMFlag=      100000 FMFlg1=        2001
         NFxFlg=           0 DoJE=T BraDBF=F KetDBF=F FulRan=T
         wScrn=  0.000000 ICntrl=       500 IOpCl=  0 I1Cent=           0 NGrid=           0
         NMat0=    1 NMatS0=      1 NMatT0=    0 NMatD0=    1 NMtDS0=    0 NMtDT0=    0
 Symmetry not used in FoFCou.
 FMM levels:  10  Number of levels for PrismC:   9
 E= -1226.83345068171    
 DIIS: error= 2.77D-02 at cycle   1 NSaved=   1.
 NSaved= 1 IEnMin= 1 EnMin= -1226.83345068171     IErMin= 1 ErrMin= 2.77D-02
 ErrMax= 2.77D-02  0.00D+00 EMaxC= 1.00D+00 BMatC= 1.76D+00 BMatP= 1.76D+00
 IDIUse=1 WtCom= 1.00D+00 WtEn= 0.00D+00
 Coeff-Com:  0.100D+01
 Coeff:      0.100D+01
 Gap=     0.366 Goal=   None    Shift=    0.500
 T= 1447. Gap= 0.713 NK=0 IS=  108 IE=  762 IFin=  107
          NO(<0.9)=   0  NV(>0.1)=   0    107.00e < EF      0.00e >EF  Err=0.0D+00
 Gap=     0.069 Goal=   None    Shift=    0.500
 T= 1447. Gap= 0.522 NK=0 IS=  107 IE=  762 IFin=  106
          NO(<0.9)=   0  NV(>0.1)=   0    106.00e < EF      0.00e >EF  Err=0.0D+00
 GapD=    0.069 DampG=0.500 DampE=0.500 DampFc=0.2500 IDamp=-1.
 Damping current iteration by 2.50D-01
 RMSDP=2.62D-03 MaxDP=1.74D-01              OVMax= 1.06D-01

 Cycle   2  Pass 1  IDiag  1:
 E= -1226.97511045278     Delta-E=       -0.141659771072 Rises=F Damp=T
 DIIS: error= 1.94D-02 at cycle   2 NSaved=   2.
 NSaved= 2 IEnMin= 2 EnMin= -1226.97511045278     IErMin= 2 ErrMin= 1.94D-02
 ErrMax= 1.94D-02  0.00D+00 EMaxC= 1.00D+00 BMatC= 8.61D-01 BMatP= 1.76D+00
 IDIUse=1 WtCom= 1.00D+00 WtEn= 0.00D+00
 Coeff-Com: -0.214D+01 0.314D+01
 Coeff:     -0.214D+01 0.314D+01
 Gap=     0.299 Goal=   None    Shift=    0.500
 T= 1384. Gap= 0.772 NK=0 IS=  108 IE=  762 IFin=  107
          NO(<0.9)=   0  NV(>0.1)=   0    107.00e < EF      0.00e >EF  Err=0.0D+00
 Gap=     0.144 Goal=   None    Shift=    0.500
 T= 1384. Gap= 0.566 NK=0 IS=  107 IE=  762 IFin=  106
          NO(<0.9)=   0  NV(>0.1)=   0    106.00e < EF      0.00e >EF  Err=0.0D+00
 GapD=    0.144 DampG=1.000 DampE=0.500 DampFc=0.5000 IDamp=-1.
 Damping current iteration by 5.00D-01
 RMSDP=2.01D-03 MaxDP=1.33D-01 DE=-1.42D-01 OVMax= 2.95D-02

 Cycle   3  Pass 1  IDiag  1:
 E= -1227.13220387025     Delta-E=       -0.157093417469 Rises=F Damp=T
 DIIS: error= 8.81D-03 at cycle   3 NSaved=   3.
 NSaved= 3 IEnMin= 3 EnMin= -1227.13220387025     IErMin= 3 ErrMin= 8.81D-03
 ErrMax= 8.81D-03  0.00D+00 EMaxC= 1.00D+00 BMatC= 1.83D-01 BMatP= 8.61D-01
 IDIUse=1 WtCom= 1.00D+00 WtEn= 0.00D+00
 Coeff-Com:  0.810D-01-0.976D+00 0.189D+01
 Coeff:      0.810D-01-0.976D+00 0.189D+01
 Gap=     0.277 Goal=   None    Shift=    0.500
 T= 1210. Gap= 0.776 NK=0 IS=  108 IE=  762 IFin=  107
          NO(<0.9)=   0  NV(>0.1)=   0    107.00e < EF      0.00e >EF  Err=0.0D+00
 Gap=     0.067 Goal=   None    Shift=    0.500
 T= 1210. Gap= 0.568 NK=0 IS=  107 IE=  762 IFin=  106
          NO(<0.9)=   0  NV(>0.1)=   0    106.00e < EF      0.00e >EF  Err=0.0D+00
 GapD=    0.067 DampG=0.500 DampE=1.000 DampFc=0.5000 IDamp=-1.
 Damping current iteration by 5.00D-01
 RMSDP=9.81D-04 MaxDP=6.24D-02 DE=-1.57D-01 OVMax= 2.60D-02

 Cycle   4  Pass 1  IDiag  1:
 E= -1227.19391098907     Delta-E=       -0.061707118819 Rises=F Damp=T
 DIIS: error= 6.20D-03 at cycle   4 NSaved=   4.
 NSaved= 4 IEnMin= 4 EnMin= -1227.19391098907     IErMin= 4 ErrMin= 6.20D-03
 ErrMax= 6.20D-03  0.00D+00 EMaxC= 1.00D+00 BMatC= 4.13D-02 BMatP= 1.83D-01
 IDIUse=1 WtCom= 1.00D+00 WtEn= 0.00D+00
 Coeff-Com:  0.202D+00-0.390D+00-0.626D+00 0.181D+01
 Coeff:      0.202D+00-0.390D+00-0.626D+00 0.181D+01
 Gap=     0.276 Goal=   None    Shift=    0.500
 T=  919. Gap= 0.776 NK=0 IS=  108 IE=  762 IFin=  107
          NO(<0.9)=   0  NV(>0.1)=   0    107.00e < EF      0.00e >EF  Err=0.0D+00
 Gap=     0.070 Goal=   None    Shift=    0.500
 T=  919. Gap= 0.570 NK=0 IS=  107 IE=  762 IFin=  106
          NO(<0.9)=   0  NV(>0.1)=   0    106.00e < EF      0.00e >EF  Err=0.0D+00
 GapD=    0.070 DampG=0.500 DampE=1.000 DampFc=0.5000 IDamp=-1.
 Damping current iteration by 5.00D-01
 RMSDP=5.15D-04 MaxDP=2.92D-02 DE=-6.17D-02 OVMax= 2.38D-02

 Cycle   5  Pass 1  IDiag  1:
 E= -1227.22178058042     Delta-E=       -0.027869591354 Rises=F Damp=T
 DIIS: error= 4.89D-03 at cycle   5 NSaved=   5.
 NSaved= 5 IEnMin= 5 EnMin= -1227.22178058042     IErMin= 5 ErrMin= 4.89D-03
 ErrMax= 4.89D-03  0.00D+00 EMaxC= 1.00D+00 BMatC= 1.02D-02 BMatP= 4.13D-02
 IDIUse=1 WtCom= 1.00D+00 WtEn= 0.00D+00
 Coeff-Com:  0.764D-02 0.110D+00 0.679D-01-0.211D+01 0.292D+01
 Coeff:      0.764D-02 0.110D+00 0.679D-01-0.211D+01 0.292D+01
 Gap=     0.278 Goal=   None    Shift=    0.500
 T=  590. Gap= 0.778 NK=0 IS=  108 IE=  762 IFin=  107
          NO(<0.9)=   0  NV(>0.1)=   0    107.00e < EF      0.00e >EF  Err=0.0D+00
 Gap=     0.072 Goal=   None    Shift=    0.500
 T=  590. Gap= 0.572 NK=0 IS=  107 IE=  762 IFin=  106
          NO(<0.9)=   0  NV(>0.1)=   0    106.00e < EF      0.00e >EF  Err=0.0D+00
 GapD=    0.072 DampG=0.500 DampE=1.000 DampFc=0.5000 IDamp=-1.
 Damping current iteration by 5.00D-01
 RMSDP=2.89D-04 MaxDP=1.18D-02 DE=-2.79D-02 OVMax= 2.46D-02

 Cycle   6  Pass 1  IDiag  1:
 E= -1227.23544209401     Delta-E=       -0.013661513586 Rises=F Damp=T
 DIIS: error= 4.23D-03 at cycle   6 NSaved=   6.
 NSaved= 6 IEnMin= 6 EnMin= -1227.23544209401     IErMin= 6 ErrMin= 4.23D-03
 ErrMax= 4.23D-03  0.00D+00 EMaxC= 1.00D+00 BMatC= 2.96D-03 BMatP= 1.02D-02
 IDIUse=1 WtCom= 1.00D+00 WtEn= 0.00D+00
 Coeff-Com: -0.802D-01 0.144D+00 0.255D+00-0.137D+00-0.303D+01 0.385D+01
 Coeff:     -0.802D-01 0.144D+00 0.255D+00-0.137D+00-0.303D+01 0.385D+01
 Gap=     0.278 Goal=   None    Shift=    0.500
 T=  433. Gap= 0.778 NK=0 IS=  108 IE=  762 IFin=  107
          NO(<0.9)=   0  NV(>0.1)=   0    107.00e < EF      0.00e >EF  Err=0.0D+00
 Gap=     0.075 Goal=   None    Shift=    0.500
 T=  433. Gap= 0.575 NK=0 IS=  107 IE=  762 IFin=  106
          NO(<0.9)=   0  NV(>0.1)=   0    106.00e < EF      0.00e >EF  Err=0.0D+00
 GapD=    0.075 DampG=0.500 DampE=1.000 DampFc=0.5000 IDamp=-1.
 Damping current iteration by 5.00D-01
 RMSDP=2.04D-04 MaxDP=6.62D-03 DE=-1.37D-02 OVMax= 2.57D-02

 Cycle   7  Pass 1  IDiag  1:
 E= -1227.24253167194     Delta-E=       -0.007089577930 Rises=F Damp=T
 DIIS: error= 3.78D-03 at cycle   7 NSaved=   7.
 NSaved= 7 IEnMin= 7 EnMin= -1227.24253167194     IErMin= 7 ErrMin= 3.78D-03
 ErrMax= 3.78D-03  0.00D+00 EMaxC= 1.00D+00 BMatC= 1.08D-03 BMatP= 2.96D-03
 IDIUse=1 WtCom= 1.00D+00 WtEn= 0.00D+00
 Coeff-Com: -0.221D-01 0.218D-02-0.371D-01 0.949D+00-0.114D+01-0.287D+01
 Coeff-Com:  0.412D+01
 Coeff:     -0.221D-01 0.218D-02-0.371D-01 0.949D+00-0.114D+01-0.287D+01
 Coeff:      0.412D+01
 Gap=     0.278 Goal=   None    Shift=    0.500
 T=  330. Gap= 0.778 NK=0 IS=  108 IE=  762 IFin=  107
          NO(<0.9)=   0  NV(>0.1)=   0    107.00e < EF      0.00e >EF  Err=0.0D+00
 Gap=     0.078 Goal=   None    Shift=    0.500
 T=  330. Gap= 0.578 NK=0 IS=  107 IE=  762 IFin=  106
          NO(<0.9)=   0  NV(>0.1)=   0    106.00e < EF      0.00e >EF  Err=0.0D+00
 GapD=    0.078 DampG=0.500 DampE=1.000 DampFc=0.5000 IDamp=-1.
 Damping current iteration by 5.00D-01
 RMSDP=1.67D-04 MaxDP=6.88D-03 DE=-7.09D-03 OVMax= 2.57D-02

 Cycle   8  Pass 1  IDiag  1:
 E= -1227.24639785047     Delta-E=       -0.003866178535 Rises=F Damp=T
 DIIS: error= 3.41D-03 at cycle   8 NSaved=   8.
 NSaved= 8 IEnMin= 8 EnMin= -1227.24639785047     IErMin= 8 ErrMin= 3.41D-03
 ErrMax= 3.41D-03  0.00D+00 EMaxC= 1.00D+00 BMatC= 5.27D-04 BMatP= 1.08D-03
 IDIUse=1 WtCom= 1.00D+00 WtEn= 0.00D+00
 Coeff-Com:  0.311D-01-0.303D-01-0.206D+00-0.426D-01 0.219D+01-0.102D+01
 Coeff-Com: -0.686D+01 0.694D+01
 Coeff:      0.311D-01-0.303D-01-0.206D+00-0.426D-01 0.219D+01-0.102D+01
 Coeff:     -0.686D+01 0.694D+01
 Gap=     0.278 Goal=   None    Shift=    0.500
 T=  257. Gap= 0.778 NK=0 IS=  108 IE=  762 IFin=  107
          NO(<0.9)=   0  NV(>0.1)=   0    107.00e < EF      0.00e >EF  Err=0.0D+00
 Gap=     0.081 Goal=   None    Shift=    0.500
 T=  257. Gap= 0.582 NK=0 IS=  107 IE=  762 IFin=  106
          NO(<0.9)=   0  NV(>0.1)=   0    106.00e < EF      0.00e >EF  Err=0.0D+00
 GapD=    0.081 DampG=0.500 DampE=1.000 DampFc=0.5000 IDamp=-1.
 Damping current iteration by 5.00D-01
 RMSDP=1.81D-04 MaxDP=9.55D-03 DE=-3.87D-03 OVMax= 2.79D-02

 Cycle   9  Pass 1  IDiag  1:
 E= -1227.24863691330     Delta-E=       -0.002239062832 Rises=F Damp=T
 DIIS: error= 3.12D-03 at cycle   9 NSaved=   9.
 NSaved= 9 IEnMin= 9 EnMin= -1227.24863691330     IErMin= 9 ErrMin= 3.12D-03
 ErrMax= 3.12D-03  0.00D+00 EMaxC= 1.00D+00 BMatC= 3.45D-04 BMatP= 5.27D-04
 IDIUse=1 WtCom= 1.00D+00 WtEn= 0.00D+00
 Coeff-Com:  0.242D-01 0.374D-02-0.159D+00-0.612D+00 0.248D+01 0.103D+01
 Coeff-Com: -0.891D+01 0.571D+01 0.143D+01
 Coeff:      0.242D-01 0.374D-02-0.159D+00-0.612D+00 0.248D+01 0.103D+01
 Coeff:     -0.891D+01 0.571D+01 0.143D+01
 Gap=     0.278 Goal=   None    Shift=    0.500
 T=  196. Gap= 0.778 NK=0 IS=  108 IE=  762 IFin=  107
          NO(<0.9)=   0  NV(>0.1)=   0    107.00e < EF      0.00e >EF  Err=0.0D+00
 Gap=     0.083 Goal=   None    Shift=    0.500
 T=  196. Gap= 0.583 NK=0 IS=  107 IE=  762 IFin=  106
          NO(<0.9)=   0  NV(>0.1)=   0    106.00e < EF      0.00e >EF  Err=0.0D+00
 GapD=    0.083 DampG=0.500 DampE=1.000 DampFc=0.5000 IDamp=-1.
 Damping current iteration by 5.00D-01
 RMSDP=1.53D-04 MaxDP=8.49D-03 DE=-2.24D-03 OVMax= 2.37D-02

 Cycle  10  Pass 1  IDiag  1:
 E= -1227.25002398575     Delta-E=       -0.001387072451 Rises=F Damp=T
 DIIS: error= 2.83D-03 at cycle  10 NSaved=  10.
 NSaved=10 IEnMin=10 EnMin= -1227.25002398575     IErMin=10 ErrMin= 2.83D-03
 ErrMax= 2.83D-03  0.00D+00 EMaxC= 1.00D+00 BMatC= 2.62D-04 BMatP= 3.45D-04
 IDIUse=1 WtCom= 1.00D+00 WtEn= 0.00D+00
 Large coefficients: NSaved= 10 BigCof=   13.65 CofMax=   10.00 Det=-3.65D-07
 Inversion failed.  Reducing to  9 matrices.
 Large coefficients: NSaved=  9 BigCof=   13.07 CofMax=   10.00 Det=-3.93D-07
 Inversion failed.  Reducing to  8 matrices.
 Large coefficients: NSaved=  8 BigCof=   13.32 CofMax=   10.00 Det=-4.25D-07
 Inversion failed.  Reducing to  7 matrices.
 Large coefficients: NSaved=  7 BigCof=   11.77 CofMax=   10.00 Det=-4.88D-07
 Inversion failed.  Reducing to  6 matrices.
 Large coefficients: NSaved=  6 BigCof=   11.99 CofMax=   10.00 Det=-5.76D-07
 Inversion failed.  Reducing to  5 matrices.
 Large coefficients: NSaved=  5 BigCof=   11.96 CofMax=   10.00 Det=-5.76D-07
 Inversion failed.  Reducing to  4 matrices.
 Large coefficients: NSaved=  4 BigCof=   12.14 CofMax=   10.00 Det=-7.41D-07
 Inversion failed.  Reducing to  3 matrices.
 Large coefficients: NSaved=  3 BigCof=   12.20 CofMax=   10.00 Det=-7.43D-07
 Inversion failed.  Reducing to  2 matrices.
 Coeff-Com: -0.206D+01 0.306D+01
 Coeff:     -0.206D+01 0.306D+01
 Gap=     0.278 Goal=   None    Shift=    0.500
 T=  138. Gap= 0.778 NK=0 IS=  108 IE=  762 IFin=  107
          NO(<0.9)=   0  NV(>0.1)=   0    107.00e < EF      0.00e >EF  Err=0.0D+00
 Gap=     0.084 Goal=   None    Shift=    0.500
 T=  138. Gap= 0.584 NK=0 IS=  107 IE=  762 IFin=  106
          NO(<0.9)=   0  NV(>0.1)=   0    106.00e < EF      0.00e >EF  Err=0.0D+00
 GapD=    0.084 DampG=0.500 DampE=1.000 DampFc=0.5000 IDamp=-1.
 Damping current iteration by 5.00D-01
 RMSDP=1.06D-04 MaxDP=5.72D-03 DE=-1.39D-03 OVMax= 1.89D-02

 Cycle  11  Pass 1  IDiag  1:
 E= -1227.25093023138     Delta-E=       -0.000906245622 Rises=F Damp=T
 DIIS: error= 2.52D-03 at cycle  11 NSaved=   3.
 NSaved= 3 IEnMin= 3 EnMin= -1227.25093023138     IErMin= 3 ErrMin= 2.52D-03
 ErrMax= 2.52D-03  0.00D+00 EMaxC= 1.00D+00 BMatC= 1.92D-04 BMatP= 2.62D-04
 IDIUse=1 WtCom= 1.00D+00 WtEn= 0.00D+00
 Coeff-Com: -0.113D+01-0.176D+00 0.231D+01
 Coeff:     -0.113D+01-0.176D+00 0.231D+01
 Gap=     0.277 Goal=   None    Shift=    0.500
 Gap=     0.086 Goal=   None    Shift=    0.500
 GapD=    0.086 DampG=0.500 DampE=1.000 DampFc=0.5000 IDamp=-1.
 Damping current iteration by 5.00D-01
 RMSDP=1.09D-04 MaxDP=6.23D-03 DE=-9.06D-04 OVMax= 1.80D-02

 Cycle  12  Pass 1  IDiag  1:
 E= -1227.25154164771     Delta-E=       -0.000611416331 Rises=F Damp=T
 DIIS: error= 2.29D-03 at cycle  12 NSaved=   4.
 NSaved= 4 IEnMin= 4 EnMin= -1227.25154164771     IErMin= 4 ErrMin= 2.29D-03
 ErrMax= 2.29D-03  0.00D+00 EMaxC= 1.00D+00 BMatC= 1.61D-04 BMatP= 1.92D-04
 IDIUse=1 WtCom= 1.00D+00 WtEn= 0.00D+00
 Coeff-Com:  0.135D+01-0.331D+01-0.320D+01 0.616D+01
 Coeff:      0.135D+01-0.331D+01-0.320D+01 0.616D+01
 Gap=     0.275 Goal=   None    Shift=    0.500
 Gap=     0.091 Goal=   None    Shift=    0.500
 GapD=    0.091 DampG=0.500 DampE=1.000 DampFc=0.5000 IDamp=-1.
 Damping current iteration by 5.00D-01
 RMSDP=1.69D-04 MaxDP=1.09D-02 DE=-6.11D-04 OVMax= 2.62D-02

 Cycle  13  Pass 1  IDiag  1:
 E= -1227.25198952234     Delta-E=       -0.000447874631 Rises=F Damp=T
 DIIS: error= 2.13D-03 at cycle  13 NSaved=   5.
 NSaved= 5 IEnMin= 5 EnMin= -1227.25198952234     IErMin= 5 ErrMin= 2.13D-03
 ErrMax= 2.13D-03  0.00D+00 EMaxC= 1.00D+00 BMatC= 1.74D-04 BMatP= 1.61D-04
 IDIUse=1 WtCom= 1.00D+00 WtEn= 0.00D+00
 Coeff-Com:  0.148D+01-0.371D+01-0.255D+01 0.546D+01 0.319D+00
 Coeff:      0.148D+01-0.371D+01-0.255D+01 0.546D+01 0.319D+00
 Gap=     0.275 Goal=   None    Shift=    0.500
 Gap=     0.092 Goal=   None    Shift=    0.500
 GapD=    0.092 DampG=0.500 DampE=1.000 DampFc=0.5000 IDamp=-1.
 Damping current iteration by 5.00D-01
 RMSDP=1.44D-04 MaxDP=9.43D-03 DE=-4.48D-04 OVMax= 2.05D-02

 Cycle  14  Pass 1  IDiag  1:
 E= -1227.25235502386     Delta-E=       -0.000365501523 Rises=F Damp=T
 DIIS: error= 1.93D-03 at cycle  14 NSaved=   6.
 NSaved= 6 IEnMin= 6 EnMin= -1227.25235502386     IErMin= 6 ErrMin= 1.93D-03
 ErrMax= 1.93D-03  0.00D+00 EMaxC= 1.00D+00 BMatC= 1.85D-04 BMatP= 1.61D-04
 IDIUse=1 WtCom= 1.00D+00 WtEn= 0.00D+00
 Coeff-Com:  0.179D+01-0.395D+01-0.125D+01 0.689D+01-0.840D+01 0.592D+01
 Coeff:      0.179D+01-0.395D+01-0.125D+01 0.689D+01-0.840D+01 0.592D+01
 Gap=     0.274 Goal=   None    Shift=    0.500
 Gap=     0.095 Goal=   None    Shift=    0.500
 GapD=    0.095 DampG=0.500 DampE=1.000 DampFc=0.5000 IDamp=-1.
 Damping current iteration by 5.00D-01
 RMSDP=1.34D-04 MaxDP=8.86D-03 DE=-3.66D-04 OVMax= 2.07D-02

 Cycle  15  Pass 1  IDiag  1:
 E= -1227.25264652617     Delta-E=       -0.000291502310 Rises=F Damp=T
 DIIS: error= 1.72D-03 at cycle  15 NSaved=   7.
 NSaved= 7 IEnMin= 7 EnMin= -1227.25264652617     IErMin= 7 ErrMin= 1.72D-03
 ErrMax= 1.72D-03  0.00D+00 EMaxC= 1.00D+00 BMatC= 1.97D-04 BMatP= 1.61D-04
 IDIUse=1 WtCom= 1.00D+00 WtEn= 0.00D+00
 Large coefficients: NSaved=  7 BigCof=   11.50 CofMax=   10.00 Det=-2.24D-07
 Inversion failed.  Reducing to  6 matrices.
 Large coefficients: NSaved=  6 BigCof=   12.54 CofMax=   10.00 Det=-2.42D-07
 Inversion failed.  Reducing to  5 matrices.
 Large coefficients: NSaved=  5 BigCof=   13.79 CofMax=   10.00 Det=-2.84D-07
 Inversion failed.  Reducing to  4 matrices.
 Large coefficients: NSaved=  4 BigCof=   15.32 CofMax=   10.00 Det=-3.96D-07
 Inversion failed.  Reducing to  3 matrices.
 Coeff-Com:  0.184D+01-0.188D+01 0.104D+01
 Coeff:      0.184D+01-0.188D+01 0.104D+01
 Gap=     0.278 Goal=   None    Shift=    0.500
 Gap=     0.086 Goal=   None    Shift=    0.500
 GapD=    0.086 DampG=0.500 DampE=1.000 DampFc=0.5000 IDamp=-1.
 Damping current iteration by 5.00D-01
 RMSDP=8.23D-05 MaxDP=5.30D-03 DE=-2.92D-04 OVMax= 4.51D-03

 Cycle  16  Pass 1  IDiag  1:
 E= -1227.25288272129     Delta-E=       -0.000236195114 Rises=F Damp=T
 DIIS: error= 1.37D-03 at cycle  16 NSaved=   4.
 NSaved= 4 IEnMin= 4 EnMin= -1227.25288272129     IErMin= 4 ErrMin= 1.37D-03
 ErrMax= 1.37D-03  0.00D+00 EMaxC= 1.00D+00 BMatC= 6.10D-05 BMatP= 1.74D-04
 IDIUse=1 WtCom= 1.00D+00 WtEn= 0.00D+00
 Coeff-Com: -0.226D+00-0.268D+01 0.231D+01 0.159D+01
 Coeff:     -0.226D+00-0.268D+01 0.231D+01 0.159D+01
 Gap=     0.275 Goal=   None    Shift=    0.500
 Gap=     0.095 Goal=   None    Shift=    0.500
 GapD=    0.095 DampG=0.500 DampE=1.000 DampFc=0.5000 IDamp=-1.
 Damping current iteration by 5.00D-01
 RMSDP=8.18D-05 MaxDP=5.19D-03 DE=-2.36D-04 OVMax= 1.75D-02

 Cycle  17  Pass 1  IDiag  1:
 E= -1227.25304976132     Delta-E=       -0.000167040036 Rises=F Damp=T
 DIIS: error= 1.25D-03 at cycle  17 NSaved=   5.
 NSaved= 5 IEnMin= 5 EnMin= -1227.25304976132     IErMin= 5 ErrMin= 1.25D-03
 ErrMax= 1.25D-03  0.00D+00 EMaxC= 1.00D+00 BMatC= 5.15D-05 BMatP= 6.10D-05
 IDIUse=1 WtCom= 1.00D+00 WtEn= 0.00D+00
 Coeff-Com: -0.107D+01 0.131D+00 0.920D-02-0.103D+01 0.296D+01
 Coeff:     -0.107D+01 0.131D+00 0.920D-02-0.103D+01 0.296D+01
 Gap=     0.273 Goal=   None    Shift=    0.500
 Gap=     0.097 Goal=   None    Shift=    0.500
 GapD=    0.097 DampG=0.500 DampE=1.000 DampFc=0.5000 IDamp=-1.
 Damping current iteration by 5.00D-01
 RMSDP=1.15D-04 MaxDP=7.89D-03 DE=-1.67D-04 OVMax= 1.65D-02

 Cycle  18  Pass 1  IDiag  1:
 E= -1227.25316979389     Delta-E=       -0.000120032568 Rises=F Damp=T
 DIIS: error= 1.16D-03 at cycle  18 NSaved=   6.
 NSaved= 6 IEnMin= 6 EnMin= -1227.25316979389     IErMin= 6 ErrMin= 1.16D-03
 ErrMax= 1.16D-03  0.00D+00 EMaxC= 1.00D+00 BMatC= 7.27D-05 BMatP= 5.15D-05
 IDIUse=1 WtCom= 1.00D+00 WtEn= 0.00D+00
 Coeff-Com: -0.761D+00 0.144D+01-0.237D+01 0.795D+00-0.168D+01 0.357D+01
 Coeff:     -0.761D+00 0.144D+01-0.237D+01 0.795D+00-0.168D+01 0.357D+01
 Gap=     0.272 Goal=   None    Shift=    0.500
 Gap=     0.097 Goal=   None    Shift=    0.500
 GapD=    0.097 DampG=0.500 DampE=1.000 DampFc=0.5000 IDamp=-1.
 Damping current iteration by 5.00D-01
 RMSDP=9.92D-05 MaxDP=6.78D-03 DE=-1.20D-04 OVMax= 1.37D-02

 Cycle  19  Pass 1  IDiag  1:
 E= -1227.25327341880     Delta-E=       -0.000103624909 Rises=F Damp=T
 DIIS: error= 1.08D-03 at cycle  19 NSaved=   7.
 NSaved= 7 IEnMin= 7 EnMin= -1227.25327341880     IErMin= 7 ErrMin= 1.08D-03
 ErrMax= 1.08D-03  0.00D+00 EMaxC= 1.00D+00 BMatC= 9.54D-05 BMatP= 5.15D-05
 IDIUse=1 WtCom= 1.00D+00 WtEn= 0.00D+00
 Coeff-Com: -0.223D+00 0.978D+00-0.234D+01 0.765D+00-0.166D+00-0.908D+00
 Coeff-Com:  0.289D+01
 Coeff:     -0.223D+00 0.978D+00-0.234D+01 0.765D+00-0.166D+00-0.908D+00
 Coeff:      0.289D+01
 Gap=     0.272 Goal=   None    Shift=    0.500
 Gap=     0.098 Goal=   None    Shift=    0.500
 GapD=    0.098 DampG=0.500 DampE=1.000 DampFc=0.5000 IDamp=-1.
 Damping current iteration by 5.00D-01
 RMSDP=7.30D-05 MaxDP=4.75D-03 DE=-1.04D-04 OVMax= 1.10D-02

 Cycle  20  Pass 1  IDiag  1:
 E= -1227.25336561727     Delta-E=       -0.000092198472 Rises=F Damp=T
 DIIS: error= 9.55D-04 at cycle  20 NSaved=   8.
 NSaved= 8 IEnMin= 8 EnMin= -1227.25336561727     IErMin= 8 ErrMin= 9.55D-04
 ErrMax= 9.55D-04  0.00D+00 EMaxC= 1.00D+00 BMatC= 9.53D-05 BMatP= 5.15D-05
 IDIUse=1 WtCom= 1.00D+00 WtEn= 0.00D+00
 Coeff-Com: -0.309D+00 0.436D+00-0.911D+00-0.464D+00 0.195D+01 0.326D-01
 Coeff-Com: -0.372D+01 0.399D+01
 Coeff:     -0.309D+00 0.436D+00-0.911D+00-0.464D+00 0.195D+01 0.326D-01
 Coeff:     -0.372D+01 0.399D+01
 Gap=     0.272 Goal=   None    Shift=    0.500
 Gap=     0.098 Goal=   None    Shift=    0.500
 RMSDP=5.12D-05 MaxDP=3.00D-03 DE=-9.22D-05 OVMax= 8.57D-03

 Cycle  21  Pass 1  IDiag  1:
 E= -1227.25355482078     Delta-E=       -0.000189203509 Rises=F Damp=F
 DIIS: error= 6.83D-04 at cycle  21 NSaved=   9.
 NSaved= 9 IEnMin= 9 EnMin= -1227.25355482078     IErMin= 9 ErrMin= 6.83D-04
 ErrMax= 6.83D-04  0.00D+00 EMaxC= 1.00D+00 BMatC= 6.35D-05 BMatP= 5.15D-05
 IDIUse=1 WtCom= 1.00D+00 WtEn= 0.00D+00
 Coeff-Com: -0.683D+00 0.605D+00 0.589D+00-0.147D+01 0.157D+01 0.259D+01
 Coeff-Com: -0.105D+01-0.627D+01 0.512D+01
 Coeff:     -0.683D+00 0.605D+00 0.589D+00-0.147D+01 0.157D+01 0.259D+01
 Coeff:     -0.105D+01-0.627D+01 0.512D+01
 Gap=     0.272 Goal=   None    Shift=    0.500
 Gap=     0.098 Goal=   None    Shift=    0.500
 RMSDP=1.49D-05 MaxDP=1.04D-03 DE=-1.89D-04 OVMax= 7.44D-03

 Cycle  22  Pass 1  IDiag  1:
 E= -1227.25358258182     Delta-E=       -0.000027761042 Rises=F Damp=F
 DIIS: error= 5.66D-04 at cycle  22 NSaved=  10.
 NSaved=10 IEnMin=10 EnMin= -1227.25358258182     IErMin=10 ErrMin= 5.66D-04
 ErrMax= 5.66D-04  0.00D+00 EMaxC= 1.00D+00 BMatC= 4.79D-05 BMatP= 5.15D-05
 IDIUse=1 WtCom= 1.00D+00 WtEn= 0.00D+00
 Coeff-Com: -0.579D+00 0.611D+00 0.764D-01-0.346D+00-0.184D+00 0.155D+01
 Coeff-Com:  0.419D+01-0.921D+01 0.326D+01 0.163D+01
 Coeff:     -0.579D+00 0.611D+00 0.764D-01-0.346D+00-0.184D+00 0.155D+01
 Coeff:      0.419D+01-0.921D+01 0.326D+01 0.163D+01
 Gap=     0.272 Goal=   None    Shift=    0.500
 Gap=     0.098 Goal=   None    Shift=    0.500
 RMSDP=1.13D-05 MaxDP=8.15D-04 DE=-2.78D-05 OVMax= 5.97D-03

 Cycle  23  Pass 1  IDiag  1:
 E= -1227.25360151227     Delta-E=       -0.000018930452 Rises=F Damp=F
 DIIS: error= 4.58D-04 at cycle  23 NSaved=  11.
 NSaved=11 IEnMin=11 EnMin= -1227.25360151227     IErMin=11 ErrMin= 4.58D-04
 ErrMax= 4.58D-04  0.00D+00 EMaxC= 1.00D+00 BMatC= 3.28D-05 BMatP= 4.79D-05
 IDIUse=1 WtCom= 1.00D+00 WtEn= 0.00D+00
 Coeff-Com: -0.161D+00 0.382D+00-0.885D+00 0.615D+00-0.844D+00-0.423D+00
 Coeff-Com:  0.492D+01-0.420D+01-0.316D+00-0.440D+00 0.235D+01
 Coeff:     -0.161D+00 0.382D+00-0.885D+00 0.615D+00-0.844D+00-0.423D+00
 Coeff:      0.492D+01-0.420D+01-0.316D+00-0.440D+00 0.235D+01
 Gap=     0.272 Goal=   None    Shift=    0.500
 Gap=     0.098 Goal=   None    Shift=    0.500
 RMSDP=9.18D-06 MaxDP=7.49D-04 DE=-1.89D-05 OVMax= 4.80D-03

 Cycle  24  Pass 1  IDiag  1:
 E= -1227.25361376981     Delta-E=       -0.000012257542 Rises=F Damp=F
 DIIS: error= 3.68D-04 at cycle  24 NSaved=  12.
 NSaved=12 IEnMin=12 EnMin= -1227.25361376981     IErMin=12 ErrMin= 3.68D-04
 ErrMax= 3.68D-04  0.00D+00 EMaxC= 1.00D+00 BMatC= 2.29D-05 BMatP= 3.28D-05
 IDIUse=1 WtCom= 1.00D+00 WtEn= 0.00D+00
 Coeff-Com:  0.206D+00-0.928D-01-0.779D+00 0.147D+00 0.365D+00-0.713D+00
 Coeff-Com: -0.246D+00 0.289D+01-0.169D+01-0.180D+01 0.353D-01 0.267D+01
 Coeff:      0.206D+00-0.928D-01-0.779D+00 0.147D+00 0.365D+00-0.713D+00
 Coeff:     -0.246D+00 0.289D+01-0.169D+01-0.180D+01 0.353D-01 0.267D+01
 Gap=     0.272 Goal=   None    Shift=    0.500
 Gap=     0.098 Goal=   None    Shift=    0.500
 RMSDP=6.98D-06 MaxDP=6.57D-04 DE=-1.23D-05 OVMax= 3.71D-03

 Cycle  25  Pass 1  IDiag  1:
 E= -1227.25362202725     Delta-E=       -0.000008257432 Rises=F Damp=F
 DIIS: error= 2.92D-04 at cycle  25 NSaved=  13.
 NSaved=13 IEnMin=13 EnMin= -1227.25362202725     IErMin=13 ErrMin= 2.92D-04
 ErrMax= 2.92D-04  0.00D+00 EMaxC= 1.00D+00 BMatC= 1.51D-05 BMatP= 2.29D-05
 IDIUse=1 WtCom= 1.00D+00 WtEn= 0.00D+00
 Coeff-Com:  0.151D+00-0.308D+00 0.170D-01-0.424D+00 0.969D+00 0.589D-01
 Coeff-Com: -0.215D+01 0.244D+01 0.139D-01-0.110D+01-0.140D+01 0.336D+00
 Coeff-Com:  0.241D+01
 Coeff:      0.151D+00-0.308D+00 0.170D-01-0.424D+00 0.969D+00 0.589D-01
 Coeff:     -0.215D+01 0.244D+01 0.139D-01-0.110D+01-0.140D+01 0.336D+00
 Coeff:      0.241D+01
 Gap=     0.272 Goal=   None    Shift=    0.500
 Gap=     0.098 Goal=   None    Shift=    0.500
 RMSDP=5.50D-06 MaxDP=5.60D-04 DE=-8.26D-06 OVMax= 2.85D-03

 Cycle  26  Pass 1  IDiag  1:
 E= -1227.25362749274     Delta-E=       -0.000005465499 Rises=F Damp=F
 DIIS: error= 2.29D-04 at cycle  26 NSaved=  14.
 NSaved=14 IEnMin=14 EnMin= -1227.25362749274     IErMin=14 ErrMin= 2.29D-04
 ErrMax= 2.29D-04  0.00D+00 EMaxC= 1.00D+00 BMatC= 9.44D-06 BMatP= 1.51D-05
 IDIUse=1 WtCom= 1.00D+00 WtEn= 0.00D+00
 Coeff-Com: -0.163D-01-0.106D+00 0.113D+00-0.297D+00 0.544D+00 0.138D+00
 Coeff-Com: -0.475D+00-0.136D+00 0.821D+00-0.376D+00-0.797D+00-0.770D+00
 Coeff-Com:  0.468D+00 0.189D+01
 Coeff:     -0.163D-01-0.106D+00 0.113D+00-0.297D+00 0.544D+00 0.138D+00
 Coeff:     -0.475D+00-0.136D+00 0.821D+00-0.376D+00-0.797D+00-0.770D+00
 Coeff:      0.468D+00 0.189D+01
 Gap=     0.272 Goal=   None    Shift=    0.500
 Gap=     0.098 Goal=   None    Shift=    0.500
 RMSDP=4.02D-06 MaxDP=3.98D-04 DE=-5.47D-06 OVMax= 2.21D-03

 Cycle  27  Pass 1  IDiag  1:
 E= -1227.25363087092     Delta-E=       -0.000003378172 Rises=F Damp=F
 DIIS: error= 1.78D-04 at cycle  27 NSaved=  15.
 NSaved=15 IEnMin=15 EnMin= -1227.25363087092     IErMin=15 ErrMin= 1.78D-04
 ErrMax= 1.78D-04  0.00D+00 EMaxC= 1.00D+00 BMatC= 5.75D-06 BMatP= 9.44D-06
 IDIUse=1 WtCom= 1.00D+00 WtEn= 0.00D+00
 Coeff-Com: -0.481D-01 0.154D+00-0.277D+00 0.543D-01 0.156D-01-0.315D+00
 Coeff-Com:  0.106D+01-0.663D+00-0.133D-01-0.209D+00 0.471D+00 0.142D+00
 Coeff-Com: -0.152D+01-0.261D+00 0.241D+01
 Coeff:     -0.481D-01 0.154D+00-0.277D+00 0.543D-01 0.156D-01-0.315D+00
 Coeff:      0.106D+01-0.663D+00-0.133D-01-0.209D+00 0.471D+00 0.142D+00
 Coeff:     -0.152D+01-0.261D+00 0.241D+01
 Gap=     0.272 Goal=   None    Shift=    0.500
 Gap=     0.098 Goal=   None    Shift=    0.500
 RMSDP=3.11D-06 MaxDP=2.96D-04 DE=-3.38D-06 OVMax= 1.73D-03

 Cycle  28  Pass 1  IDiag  1:
 E= -1227.25363292588     Delta-E=       -0.000002054964 Rises=F Damp=F
 DIIS: error= 1.38D-04 at cycle  28 NSaved=  16.
 NSaved=16 IEnMin=16 EnMin= -1227.25363292588     IErMin=16 ErrMin= 1.38D-04
 ErrMax= 1.38D-04  0.00D+00 EMaxC= 1.00D+00 BMatC= 3.56D-06 BMatP= 5.75D-06
 IDIUse=1 WtCom= 1.00D+00 WtEn= 0.00D+00
 Coeff-Com:  0.346D-01 0.124D+00-0.430D+00 0.141D+00-0.507D-01-0.351D+00
 Coeff-Com:  0.433D+00 0.751D+00-0.879D+00-0.442D+00 0.517D+00 0.117D+01
 Coeff-Com: -0.634D+00-0.172D+01-0.382D+00 0.272D+01
 Coeff:      0.346D-01 0.124D+00-0.430D+00 0.141D+00-0.507D-01-0.351D+00
 Coeff:      0.433D+00 0.751D+00-0.879D+00-0.442D+00 0.517D+00 0.117D+01
 Coeff:     -0.634D+00-0.172D+01-0.382D+00 0.272D+01
 Gap=     0.272 Goal=   None    Shift=    0.500
 Gap=     0.098 Goal=   None    Shift=    0.500
 RMSDP=2.37D-06 MaxDP=2.02D-04 DE=-2.05D-06 OVMax= 1.32D-03

 Cycle  29  Pass 1  IDiag  1:
 E= -1227.25363415647     Delta-E=       -0.000001230591 Rises=F Damp=F
 DIIS: error= 1.07D-04 at cycle  29 NSaved=  17.
 NSaved=17 IEnMin=17 EnMin= -1227.25363415647     IErMin=17 ErrMin= 1.07D-04
 ErrMax= 1.07D-04  0.00D+00 EMaxC= 1.00D+00 BMatC= 2.20D-06 BMatP= 3.56D-06
 IDIUse=1 WtCom= 1.00D+00 WtEn= 0.00D+00
 Coeff-Com:  0.754D-01-0.168D+00-0.101D-01-0.179D-01 0.203D+00-0.124D+00
 Coeff-Com: -0.452D+00 0.966D+00-0.404D+00-0.458D+00-0.180D+00 0.572D+00
 Coeff-Com:  0.894D+00-0.502D+00-0.169D+01-0.426D+00 0.272D+01
 Coeff:      0.754D-01-0.168D+00-0.101D-01-0.179D-01 0.203D+00-0.124D+00
 Coeff:     -0.452D+00 0.966D+00-0.404D+00-0.458D+00-0.180D+00 0.572D+00
 Coeff:      0.894D+00-0.502D+00-0.169D+01-0.426D+00 0.272D+01
 Gap=     0.272 Goal=   None    Shift=    0.500
 Gap=     0.098 Goal=   None    Shift=    0.500
 RMSDP=1.78D-06 MaxDP=1.50D-04 DE=-1.23D-06 OVMax= 1.01D-03

 Cycle  30  Pass 1  IDiag  1:
 E= -1227.25363488722     Delta-E=       -0.000000730752 Rises=F Damp=F
 DIIS: error= 8.33D-05 at cycle  30 NSaved=  18.
 NSaved=18 IEnMin=18 EnMin= -1227.25363488722     IErMin=18 ErrMin= 8.33D-05
 ErrMax= 8.33D-05  0.00D+00 EMaxC= 1.00D+00 BMatC= 1.35D-06 BMatP= 2.20D-06
 IDIUse=1 WtCom= 1.00D+00 WtEn= 0.00D+00
 Coeff-Com:  0.496D-01-0.170D+00 0.991D-01-0.658D-01 0.243D+00-0.110D+00
 Coeff-Com: -0.377D+00 0.529D+00-0.196D-01-0.311D+00-0.338D+00 0.184D+00
 Coeff-Com:  0.710D+00 0.157D+00-0.685D+00-0.107D+01-0.193D+00 0.237D+01
 Coeff:      0.496D-01-0.170D+00 0.991D-01-0.658D-01 0.243D+00-0.110D+00
 Coeff:     -0.377D+00 0.529D+00-0.196D-01-0.311D+00-0.338D+00 0.184D+00
 Coeff:      0.710D+00 0.157D+00-0.685D+00-0.107D+01-0.193D+00 0.237D+01
 Gap=     0.272 Goal=   None    Shift=    0.500
 Gap=     0.098 Goal=   None    Shift=    0.500
 RMSDP=1.38D-06 MaxDP=1.19D-04 DE=-7.31D-07 OVMax= 7.81D-04

 Cycle  31  Pass 1  IDiag  1:
 E= -1227.25363532103     Delta-E=       -0.000000433809 Rises=F Damp=F
 DIIS: error= 6.39D-05 at cycle  31 NSaved=  19.
 NSaved=19 IEnMin=19 EnMin= -1227.25363532103     IErMin=19 ErrMin= 6.39D-05
 ErrMax= 6.39D-05  0.00D+00 EMaxC= 1.00D+00 BMatC= 8.11D-07 BMatP= 1.35D-06
 IDIUse=1 WtCom= 1.00D+00 WtEn= 0.00D+00
 Coeff-Com: -0.735D-02 0.403D-01-0.733D-01-0.484D-01 0.110D+00-0.890D-01
 Coeff-Com:  0.147D+00-0.977D-01 0.129D+00-0.123D+00-0.130D+00 0.145D+00
 Coeff-Com: -0.138D+00 0.561D-01 0.617D+00 0.785D-01-0.208D+01-0.142D+00
 Coeff-Com:  0.260D+01
 Coeff:     -0.735D-02 0.403D-01-0.733D-01-0.484D-01 0.110D+00-0.890D-01
 Coeff:      0.147D+00-0.977D-01 0.129D+00-0.123D+00-0.130D+00 0.145D+00
 Coeff:     -0.138D+00 0.561D-01 0.617D+00 0.785D-01-0.208D+01-0.142D+00
 Coeff:      0.260D+01
 Gap=     0.272 Goal=   None    Shift=    0.500
 Gap=     0.098 Goal=   None    Shift=    0.500
 RMSDP=1.07D-06 MaxDP=1.04D-04 DE=-4.34D-07 OVMax= 6.05D-04

 Cycle  32  Pass 1  IDiag  1:
 E= -1227.25363557244     Delta-E=       -0.000000251407 Rises=F Damp=F
 DIIS: error= 4.96D-05 at cycle  32 NSaved=  20.
 NSaved=20 IEnMin=20 EnMin= -1227.25363557244     IErMin=20 ErrMin= 4.96D-05
 ErrMax= 4.96D-05  0.00D+00 EMaxC= 1.00D+00 BMatC= 4.97D-07 BMatP= 8.11D-07
 IDIUse=1 WtCom= 1.00D+00 WtEn= 0.00D+00
 Coeff-Com: -0.159D-01 0.917D-01-0.142D+00 0.294D-02 0.475D-02-0.830D-01
 Coeff-Com:  0.340D+00-0.198D+00-0.298D-01-0.564D-01 0.130D+00 0.196D+00
 Coeff-Com: -0.370D+00-0.255D+00 0.443D+00 0.782D+00-0.641D+00-0.218D+01
 Coeff-Com:  0.134D+01 0.164D+01
 Coeff:     -0.159D-01 0.917D-01-0.142D+00 0.294D-02 0.475D-02-0.830D-01
 Coeff:      0.340D+00-0.198D+00-0.298D-01-0.564D-01 0.130D+00 0.196D+00
 Coeff:     -0.370D+00-0.255D+00 0.443D+00 0.782D+00-0.641D+00-0.218D+01
 Coeff:      0.134D+01 0.164D+01
 Gap=     0.272 Goal=   None    Shift=    0.500
 Gap=     0.098 Goal=   None    Shift=    0.500
 RMSDP=8.24D-07 MaxDP=8.44D-05 DE=-2.51D-07 OVMax= 4.70D-04

 SCF Done:  E(ULC-wHPBE) =  -1227.25363557     A.U. after   32 cycles
            NFock= 32  Conv=0.82D-06     -V/T= 2.0040
 <Sx>= 0.0000 <Sy>= 0.0000 <Sz>= 0.5000 <S**2>= 0.7780 S= 0.5139
 <L.S>= 0.000000000000E+00
 KE= 1.222359459132D+03 PE=-7.931850617148D+03 EE= 2.908293627256D+03
 Annihilation of the first spin contaminant:
 S**2 before annihilation     0.7780,   after     0.7505
 Leave Link  502 at Tue Jan 26 04:09:16 2021, MaxMem=  4026531840 cpu:           20187.3 elap:            2552.5
 (Enter /opt/ohpc/pub/libs/gaussian/g16-A.03/sandybridge/g16/l508.exe)
 QCSCF skips out because SCF is already converged.
 Leave Link  508 at Tue Jan 26 04:09:16 2021, MaxMem=  4026531840 cpu:               0.2 elap:               0.1
 (Enter /opt/ohpc/pub/libs/gaussian/g16-A.03/sandybridge/g16/l601.exe)
 Copying SCF densities to generalized density rwf, IOpCl= 1 IROHF=0.

 **********************************************************************

            Population analysis using the SCF density.

 **********************************************************************

 Orbital symmetries:
 Alpha Orbitals:
       Occupied  (A) (A) (A) (A) (A) (A) (A) (A) (A) (A) (A) (A)
                 (A) (A) (A) (A) (A) (A) (A) (A) (A) (A) (A) (A)
                 (A) (A) (A) (A) (A) (A) (A) (A) (A) (A) (A) (A)
                 (A) (A) (A) (A) (A) (A) (A) (A) (A) (A) (A) (A)
                 (A) (A) (A) (A) (A) (A) (A) (A) (A) (A) (A) (A)
                 (A) (A) (A) (A) (A) (A) (A) (A) (A) (A) (A) (A)
                 (A) (A) (A) (A) (A) (A) (A) (A) (A) (A) (A) (A)
                 (A) (A) (A) (A) (A) (A) (A) (A) (A) (A) (A) (A)
                 (A) (A) (A) (A) (A) (A) (A) (A) (A) (A) (A)
       Virtual   (A) (A) (A) (A) (A) (A) (A) (A) (A) (A) (A) (A)
                 (A) (A) (A) (A) (A) (A) (A) (A) (A) (A) (A) (A)
                 (A) (A) (A) (A) (A) (A) (A) (A) (A) (A) (A) (A)
                 (A) (A) (A) (A) (A) (A) (A) (A) (A) (A) (A) (A)
                 (A) (A) (A) (A) (A) (A) (A) (A) (A) (A) (A) (A)
                 (A) (A) (A) (A) (A) (A) (A) (A) (A) (A) (A) (A)
                 (A) (A) (A) (A) (A) (A) (A) (A) (A) (A) (A) (A)
                 (A) (A) (A) (A) (A) (A) (A) (A) (A) (A) (A) (A)
                 (A) (A) (A) (A) (A) (A) (A) (A) (A) (A) (A) (A)
                 (A) (A) (A) (A) (A) (A) (A) (A) (A) (A) (A) (A)
                 (A) (A) (A) (A) (A) (A) (A) (A) (A) (A) (A) (A)
                 (A) (A) (A) (A) (A) (A) (A) (A) (A) (A) (A) (A)
                 (A) (A) (A) (A) (A) (A) (A) (A) (A) (A) (A) (A)
                 (A) (A) (A) (A) (A) (A) (A) (A) (A) (A) (A) (A)
                 (A) (A) (A) (A) (A) (A) (A) (A) (A) (A) (A) (A)
                 (A) (A) (A) (A) (A) (A) (A) (A) (A) (A) (A) (A)
                 (A) (A) (A) (A) (A) (A) (A) (A) (A) (A) (A) (A)
                 (A) (A) (A) (A) (A) (A) (A) (A) (A) (A) (A) (A)
                 (A) (A) (A) (A) (A) (A) (A) (A) (A) (A) (A) (A)
                 (A) (A) (A) (A) (A) (A) (A) (A) (A) (A) (A) (A)
                 (A) (A) (A) (A) (A) (A) (A) (A) (A) (A) (A) (A)
                 (A) (A) (A) (A) (A) (A) (A) (A) (A) (A) (A) (A)
                 (A) (A) (A) (A) (A) (A) (A) (A) (A) (A) (A) (A)
                 (A) (A) (A) (A) (A) (A) (A) (A) (A) (A) (A) (A)
                 (A) (A) (A) (A) (A) (A) (A) (A) (A) (A) (A) (A)
                 (A) (A) (A) (A) (A) (A) (A) (A) (A) (A) (A) (A)
                 (A) (A) (A) (A) (A) (A) (A) (A) (A) (A) (A) (A)
                 (A) (A) (A) (A) (A) (A) (A) (A) (A) (A) (A) (A)
                 (A) (A) (A) (A) (A) (A) (A) (A) (A) (A) (A) (A)
                 (A) (A) (A) (A) (A) (A) (A) (A) (A) (A) (A) (A)
                 (A) (A) (A) (A) (A) (A) (A) (A) (A) (A) (A) (A)
                 (A) (A) (A) (A) (A) (A) (A) (A) (A) (A) (A) (A)
                 (A) (A) (A) (A) (A) (A) (A) (A) (A) (A) (A) (A)
                 (A) (A) (A) (A) (A) (A) (A) (A) (A) (A) (A) (A)
                 (A) (A) (A) (A) (A) (A) (A) (A) (A) (A) (A) (A)
                 (A) (A) (A) (A) (A) (A) (A) (A) (A) (A) (A) (A)
                 (A) (A) (A) (A) (A) (A) (A) (A) (A) (A) (A) (A)
                 (A) (A) (A) (A) (A) (A) (A) (A) (A) (A) (A) (A)
                 (A) (A) (A) (A) (A) (A) (A) (A) (A) (A) (A) (A)
                 (A) (A) (A) (A) (A) (A) (A) (A) (A) (A) (A) (A)
                 (A) (A) (A) (A) (A) (A) (A) (A) (A) (A) (A) (A)
                 (A) (A) (A) (A) (A) (A) (A) (A) (A) (A) (A) (A)
                 (A) (A) (A) (A) (A) (A) (A) (A) (A) (A) (A) (A)
                 (A) (A) (A) (A) (A) (A) (A) (A) (A) (A) (A) (A)
                 (A) (A) (A) (A) (A) (A) (A) (A) (A) (A) (A) (A)
                 (A) (A) (A) (A) (A) (A) (A) (A) (A) (A) (A) (A)
                 (A) (A) (A) (A) (A) (A) (A) (A) (A) (A) (A) (A)
                 (A) (A) (A) (A) (A) (A) (A) (A) (A) (A) (A) (A)
                 (A) (A) (A) (A) (A) (A) (A) (A) (A) (A) (A) (A)
                 (A) (A) (A) (A) (A) (A) (A) (A) (A) (A) (A) (A)
                 (A) (A) (A) (A) (A) (A) (A) (A) (A) (A) (A) (A)
                 (A) (A) (A) (A) (A) (A) (A) (A) (A) (A) (A) (A)
                 (A) (A) (A) (A) (A) (A) (A) (A) (A) (A) (A) (A)
                 (A) (A) (A) (A) (A) (A) (A) (A) (A) (A) (A) (A)
                 (A) (A) (A) (A) (A) (A) (A)
 Beta  Orbitals:
       Occupied  (A) (A) (A) (A) (A) (A) (A) (A) (A) (A) (A) (A)
                 (A) (A) (A) (A) (A) (A) (A) (A) (A) (A) (A) (A)
                 (A) (A) (A) (A) (A) (A) (A) (A) (A) (A) (A) (A)
                 (A) (A) (A) (A) (A) (A) (A) (A) (A) (A) (A) (A)
                 (A) (A) (A) (A) (A) (A) (A) (A) (A) (A) (A) (A)
                 (A) (A) (A) (A) (A) (A) (A) (A) (A) (A) (A) (A)
                 (A) (A) (A) (A) (A) (A) (A) (A) (A) (A) (A) (A)
                 (A) (A) (A) (A) (A) (A) (A) (A) (A) (A) (A) (A)
                 (A) (A) (A) (A) (A) (A) (A) (A) (A) (A)
       Virtual   (A) (A) (A) (A) (A) (A) (A) (A) (A) (A) (A) (A)
                 (A) (A) (A) (A) (A) (A) (A) (A) (A) (A) (A) (A)
                 (A) (A) (A) (A) (A) (A) (A) (A) (A) (A) (A) (A)
                 (A) (A) (A) (A) (A) (A) (A) (A) (A) (A) (A) (A)
                 (A) (A) (A) (A) (A) (A) (A) (A) (A) (A) (A) (A)
                 (A) (A) (A) (A) (A) (A) (A) (A) (A) (A) (A) (A)
                 (A) (A) (A) (A) (A) (A) (A) (A) (A) (A) (A) (A)
                 (A) (A) (A) (A) (A) (A) (A) (A) (A) (A) (A) (A)
                 (A) (A) (A) (A) (A) (A) (A) (A) (A) (A) (A) (A)
                 (A) (A) (A) (A) (A) (A) (A) (A) (A) (A) (A) (A)
                 (A) (A) (A) (A) (A) (A) (A) (A) (A) (A) (A) (A)
                 (A) (A) (A) (A) (A) (A) (A) (A) (A) (A) (A) (A)
                 (A) (A) (A) (A) (A) (A) (A) (A) (A) (A) (A) (A)
                 (A) (A) (A) (A) (A) (A) (A) (A) (A) (A) (A) (A)
                 (A) (A) (A) (A) (A) (A) (A) (A) (A) (A) (A) (A)
                 (A) (A) (A) (A) (A) (A) (A) (A) (A) (A) (A) (A)
                 (A) (A) (A) (A) (A) (A) (A) (A) (A) (A) (A) (A)
                 (A) (A) (A) (A) (A) (A) (A) (A) (A) (A) (A) (A)
                 (A) (A) (A) (A) (A) (A) (A) (A) (A) (A) (A) (A)
                 (A) (A) (A) (A) (A) (A) (A) (A) (A) (A) (A) (A)
                 (A) (A) (A) (A) (A) (A) (A) (A) (A) (A) (A) (A)
                 (A) (A) (A) (A) (A) (A) (A) (A) (A) (A) (A) (A)
                 (A) (A) (A) (A) (A) (A) (A) (A) (A) (A) (A) (A)
                 (A) (A) (A) (A) (A) (A) (A) (A) (A) (A) (A) (A)
                 (A) (A) (A) (A) (A) (A) (A) (A) (A) (A) (A) (A)
                 (A) (A) (A) (A) (A) (A) (A) (A) (A) (A) (A) (A)
                 (A) (A) (A) (A) (A) (A) (A) (A) (A) (A) (A) (A)
                 (A) (A) (A) (A) (A) (A) (A) (A) (A) (A) (A) (A)
                 (A) (A) (A) (A) (A) (A) (A) (A) (A) (A) (A) (A)
                 (A) (A) (A) (A) (A) (A) (A) (A) (A) (A) (A) (A)
                 (A) (A) (A) (A) (A) (A) (A) (A) (A) (A) (A) (A)
                 (A) (A) (A) (A) (A) (A) (A) (A) (A) (A) (A) (A)
                 (A) (A) (A) (A) (A) (A) (A) (A) (A) (A) (A) (A)
                 (A) (A) (A) (A) (A) (A) (A) (A) (A) (A) (A) (A)
                 (A) (A) (A) (A) (A) (A) (A) (A) (A) (A) (A) (A)
                 (A) (A) (A) (A) (A) (A) (A) (A) (A) (A) (A) (A)
                 (A) (A) (A) (A) (A) (A) (A) (A) (A) (A) (A) (A)
                 (A) (A) (A) (A) (A) (A) (A) (A) (A) (A) (A) (A)
                 (A) (A) (A) (A) (A) (A) (A) (A) (A) (A) (A) (A)
                 (A) (A) (A) (A) (A) (A) (A) (A) (A) (A) (A) (A)
                 (A) (A) (A) (A) (A) (A) (A) (A) (A) (A) (A) (A)
                 (A) (A) (A) (A) (A) (A) (A) (A) (A) (A) (A) (A)
                 (A) (A) (A) (A) (A) (A) (A) (A) (A) (A) (A) (A)
                 (A) (A) (A) (A) (A) (A) (A) (A) (A) (A) (A) (A)
                 (A) (A) (A) (A) (A) (A) (A) (A) (A) (A) (A) (A)
                 (A) (A) (A) (A) (A) (A) (A) (A) (A) (A) (A) (A)
                 (A) (A) (A) (A) (A) (A) (A) (A) (A) (A) (A) (A)
                 (A) (A) (A) (A) (A) (A) (A) (A) (A) (A) (A) (A)
                 (A) (A) (A) (A) (A) (A) (A) (A) (A) (A) (A) (A)
                 (A) (A) (A) (A) (A) (A) (A) (A) (A) (A) (A) (A)
                 (A) (A) (A) (A) (A) (A) (A) (A) (A) (A) (A) (A)
                 (A) (A) (A) (A) (A) (A) (A) (A) (A) (A) (A) (A)
                 (A) (A) (A) (A) (A) (A) (A) (A) (A) (A) (A) (A)
                 (A) (A) (A) (A) (A) (A) (A) (A) (A) (A) (A) (A)
                 (A) (A) (A) (A) (A) (A) (A) (A)
 The electronic state is 2-A.
 Alpha  occ. eigenvalues --  -14.47577 -14.47576 -14.47572 -14.47571 -10.39803
 Alpha  occ. eigenvalues --  -10.39799 -10.39766 -10.39761 -10.36183 -10.36178
 Alpha  occ. eigenvalues --  -10.35240 -10.35237 -10.34139 -10.34125 -10.31998
 Alpha  occ. eigenvalues --  -10.31997 -10.31996 -10.31994 -10.31857 -10.31856
 Alpha  occ. eigenvalues --  -10.31855 -10.31854 -10.31639 -10.31638 -10.31635
 Alpha  occ. eigenvalues --  -10.31635 -10.31246 -10.31246 -10.31243 -10.31242
 Alpha  occ. eigenvalues --   -1.35555  -1.35551  -1.32497  -1.32492  -1.27703
 Alpha  occ. eigenvalues --   -1.27687  -1.24607  -1.22740  -1.16725  -1.12050
 Alpha  occ. eigenvalues --   -1.11997  -1.11340  -1.08035  -1.07919  -1.07574
 Alpha  occ. eigenvalues --   -1.07567  -1.06839  -1.06835  -1.05849  -1.05648
 Alpha  occ. eigenvalues --   -1.02912  -0.99807  -0.97725  -0.97298  -0.92951
 Alpha  occ. eigenvalues --   -0.92554  -0.90454  -0.90343  -0.90303  -0.89940
 Alpha  occ. eigenvalues --   -0.88142  -0.86624  -0.86271  -0.85839  -0.85755
 Alpha  occ. eigenvalues --   -0.85088  -0.84859  -0.83979  -0.83244  -0.83239
 Alpha  occ. eigenvalues --   -0.82874  -0.81372  -0.80976  -0.79628  -0.79375
 Alpha  occ. eigenvalues --   -0.78904  -0.78733  -0.78063  -0.77325  -0.77274
 Alpha  occ. eigenvalues --   -0.76421  -0.76311  -0.76300  -0.75860  -0.75044
 Alpha  occ. eigenvalues --   -0.74836  -0.74695  -0.74691  -0.74619  -0.74096
 Alpha  occ. eigenvalues --   -0.74088  -0.73811  -0.73803  -0.72703  -0.72521
 Alpha  occ. eigenvalues --   -0.71881  -0.71728  -0.70749  -0.70573  -0.67573
 Alpha  occ. eigenvalues --   -0.66145  -0.66139  -0.63946  -0.63825  -0.63732
 Alpha  occ. eigenvalues --   -0.59268  -0.58217
 Alpha virt. eigenvalues --   -0.31049  -0.27289  -0.25515  -0.25502  -0.20917
 Alpha virt. eigenvalues --   -0.20401  -0.20395  -0.19128  -0.18198  -0.18195
 Alpha virt. eigenvalues --   -0.14525  -0.14476  -0.14152  -0.13646  -0.12819
 Alpha virt. eigenvalues --   -0.12420  -0.12219  -0.12208  -0.11591  -0.11463
 Alpha virt. eigenvalues --   -0.11389  -0.11261  -0.10971  -0.10597  -0.10466
 Alpha virt. eigenvalues --   -0.10287  -0.09823  -0.09387  -0.09274  -0.09031
 Alpha virt. eigenvalues --   -0.08341  -0.08065  -0.07921  -0.07850  -0.07766
 Alpha virt. eigenvalues --   -0.07160  -0.07035  -0.06634  -0.06622  -0.06496
 Alpha virt. eigenvalues --   -0.06275  -0.06205  -0.06125  -0.05988  -0.05904
 Alpha virt. eigenvalues --   -0.05089  -0.05029  -0.04903  -0.04451  -0.03556
 Alpha virt. eigenvalues --   -0.03497  -0.03253  -0.02419  -0.02262  -0.02216
 Alpha virt. eigenvalues --   -0.01873  -0.01491  -0.01462  -0.01414  -0.01167
 Alpha virt. eigenvalues --   -0.00889  -0.00296  -0.00240   0.00059   0.01282
 Alpha virt. eigenvalues --    0.01440   0.01520   0.01931   0.02129   0.02985
 Alpha virt. eigenvalues --    0.03086   0.03173   0.03556   0.03649   0.03788
 Alpha virt. eigenvalues --    0.04407   0.04832   0.05893   0.05987   0.06113
 Alpha virt. eigenvalues --    0.06367   0.06497   0.07535   0.07537   0.08219
 Alpha virt. eigenvalues --    0.08765   0.08814   0.09009   0.09137   0.09852
 Alpha virt. eigenvalues --    0.09874   0.10209   0.10277   0.11149   0.11167
 Alpha virt. eigenvalues --    0.11295   0.11601   0.11612   0.12115   0.12162
 Alpha virt. eigenvalues --    0.12229   0.12637   0.13448   0.13578   0.14052
 Alpha virt. eigenvalues --    0.14229   0.14609   0.14722   0.15520   0.15556
 Alpha virt. eigenvalues --    0.15982   0.16251   0.17555   0.17818   0.17955
 Alpha virt. eigenvalues --    0.18510   0.18604   0.18759   0.18864   0.19021
 Alpha virt. eigenvalues --    0.19224   0.20697   0.21416   0.21687   0.21859
 Alpha virt. eigenvalues --    0.22429   0.22934   0.23110   0.23179   0.23255
 Alpha virt. eigenvalues --    0.23976   0.23992   0.24222   0.24501   0.24517
 Alpha virt. eigenvalues --    0.24790   0.25052   0.25371   0.25484   0.25947
 Alpha virt. eigenvalues --    0.26101   0.26452   0.26475   0.27035   0.27111
 Alpha virt. eigenvalues --    0.27141   0.27670   0.27690   0.27984   0.27987
 Alpha virt. eigenvalues --    0.28297   0.28504   0.28775   0.28895   0.29285
 Alpha virt. eigenvalues --    0.29579   0.29599   0.29945   0.30754   0.30829
 Alpha virt. eigenvalues --    0.31694   0.31936   0.32194   0.32243   0.32342
 Alpha virt. eigenvalues --    0.32591   0.32738   0.32802   0.33504   0.33813
 Alpha virt. eigenvalues --    0.35058   0.35159   0.35848   0.35855   0.36508
 Alpha virt. eigenvalues --    0.37273   0.37377   0.37978   0.38215   0.38824
 Alpha virt. eigenvalues --    0.38978   0.38999   0.39553   0.40897   0.41872
 Alpha virt. eigenvalues --    0.42075   0.42167   0.42950   0.43686   0.43764
 Alpha virt. eigenvalues --    0.44278   0.44457   0.44838   0.45008   0.45593
 Alpha virt. eigenvalues --    0.45615   0.47041   0.47178   0.47306   0.47877
 Alpha virt. eigenvalues --    0.49077   0.49389   0.49420   0.49811   0.50995
 Alpha virt. eigenvalues --    0.51531   0.51942   0.52565   0.53022   0.53068
 Alpha virt. eigenvalues --    0.54170   0.54293   0.55785   0.55976   0.57833
 Alpha virt. eigenvalues --    0.58916   0.59100   0.61431   0.62113   0.62297
 Alpha virt. eigenvalues --    0.62817   0.63522   0.66266   0.68051   0.68381
 Alpha virt. eigenvalues --    0.68457   0.77267   0.91516   0.91751   0.91873
 Alpha virt. eigenvalues --    0.91915   0.93395   0.97279   0.97954   0.98781
 Alpha virt. eigenvalues --    0.98895   0.99483   0.99791   1.00549   1.00893
 Alpha virt. eigenvalues --    1.00968   1.00991   1.01212   1.02219   1.03642
 Alpha virt. eigenvalues --    1.03883   1.03899   1.04409   1.04714   1.04729
 Alpha virt. eigenvalues --    1.05044   1.05402   1.05437   1.05912   1.06272
 Alpha virt. eigenvalues --    1.06562   1.07148   1.09170   1.09679   1.09787
 Alpha virt. eigenvalues --    1.09888   1.10119   1.10318   1.11342   1.11352
 Alpha virt. eigenvalues --    1.11918   1.12143   1.12336   1.12360   1.12401
 Alpha virt. eigenvalues --    1.12727   1.13573   1.13580   1.14065   1.14271
 Alpha virt. eigenvalues --    1.14805   1.15005   1.15053   1.15100   1.15706
 Alpha virt. eigenvalues --    1.15768   1.17032   1.17209   1.17340   1.17535
 Alpha virt. eigenvalues --    1.18297   1.18836   1.20506   1.20672   1.20738
 Alpha virt. eigenvalues --    1.21477   1.22171   1.22213   1.22472   1.22609
 Alpha virt. eigenvalues --    1.22754   1.22798   1.23135   1.23403   1.23490
 Alpha virt. eigenvalues --    1.24619   1.24808   1.24865   1.25709   1.25851
 Alpha virt. eigenvalues --    1.25952   1.26095   1.26800   1.26838   1.26854
 Alpha virt. eigenvalues --    1.27284   1.28341   1.28660   1.29921   1.29960
 Alpha virt. eigenvalues --    1.29988   1.30182   1.30594   1.30782   1.31000
 Alpha virt. eigenvalues --    1.31076   1.31638   1.32071   1.32310   1.32700
 Alpha virt. eigenvalues --    1.33113   1.33120   1.33331   1.33837   1.34535
 Alpha virt. eigenvalues --    1.34742   1.35290   1.35569   1.35692   1.36384
 Alpha virt. eigenvalues --    1.38185   1.38431   1.38700   1.39189   1.39312
 Alpha virt. eigenvalues --    1.39327   1.40556   1.41853   1.41856   1.42120
 Alpha virt. eigenvalues --    1.42350   1.42795   1.42857   1.43097   1.43718
 Alpha virt. eigenvalues --    1.44267   1.44998   1.45480   1.46564   1.46590
 Alpha virt. eigenvalues --    1.47089   1.47973   1.49110   1.50027   1.50091
 Alpha virt. eigenvalues --    1.50518   1.50728   1.51746   1.52805   1.52822
 Alpha virt. eigenvalues --    1.52851   1.53331   1.54132   1.54152   1.54983
 Alpha virt. eigenvalues --    1.55304   1.55518   1.55544   1.55711   1.55809
 Alpha virt. eigenvalues --    1.56229   1.56297   1.56636   1.56643   1.56924
 Alpha virt. eigenvalues --    1.56982   1.57043   1.57594   1.58248   1.58311
 Alpha virt. eigenvalues --    1.58683   1.58692   1.59589   1.59591   1.59673
 Alpha virt. eigenvalues --    1.60109   1.61498   1.61605   1.62750   1.62903
 Alpha virt. eigenvalues --    1.62972   1.63176   1.63285   1.65114   1.65478
 Alpha virt. eigenvalues --    1.65756   1.65808   1.66309   1.66688   1.67228
 Alpha virt. eigenvalues --    1.67272   1.68515   1.68848   1.69166   1.69333
 Alpha virt. eigenvalues --    1.70887   1.71274   1.72621   1.74480   1.74615
 Alpha virt. eigenvalues --    1.76966   1.77120   1.78671   1.79099   1.80196
 Alpha virt. eigenvalues --    1.80343   1.80823   1.81828   1.82148   1.82166
 Alpha virt. eigenvalues --    1.82561   1.82635   1.87100   1.87348   1.87442
 Alpha virt. eigenvalues --    1.87652   1.88190   1.88788   1.90392   1.91400
 Alpha virt. eigenvalues --    1.91704   1.92619   1.93362   1.93562   1.93611
 Alpha virt. eigenvalues --    1.94227   1.94768   1.96936   1.97490   1.98122
 Alpha virt. eigenvalues --    1.98328   1.99278   2.02711   2.03911   2.04998
 Alpha virt. eigenvalues --    2.05054   2.05131   2.05424   2.05469   2.06246
 Alpha virt. eigenvalues --    2.06614   2.06675   2.06825   2.07234   2.08024
 Alpha virt. eigenvalues --    2.08091   2.08325   2.08469   2.08944   2.09356
 Alpha virt. eigenvalues --    2.09891   2.10314   2.10552   2.11179   2.11664
 Alpha virt. eigenvalues --    2.11722   2.12032   2.12537   2.12612   2.12654
 Alpha virt. eigenvalues --    2.13054   2.13080   2.13501   2.13972   2.14347
 Alpha virt. eigenvalues --    2.14691   2.14992   2.20583   2.21731   2.21854
 Alpha virt. eigenvalues --    2.22001   2.22226   2.23083   2.23360   2.23517
 Alpha virt. eigenvalues --    2.23770   2.26913   2.28321   2.28684   2.28759
 Alpha virt. eigenvalues --    2.29002   2.29517   2.29721   2.30425   2.30439
 Alpha virt. eigenvalues --    2.31416   2.31431   2.31872   2.32040   2.32804
 Alpha virt. eigenvalues --    2.33048   2.34626   2.34907   2.34910   2.35318
 Alpha virt. eigenvalues --    2.35792   2.36696   2.36891   2.37381   2.37479
 Alpha virt. eigenvalues --    2.38432   2.39171   2.40526   2.40773   2.41269
 Alpha virt. eigenvalues --    2.42202   2.42458   2.42862   2.43075   2.44477
 Alpha virt. eigenvalues --    2.44491   2.44659   2.45630   2.45918   2.47103
 Alpha virt. eigenvalues --    2.48393   2.48479   2.49571   2.49822   2.50755
 Alpha virt. eigenvalues --    2.50960   2.51359   2.51409   2.51643   2.53033
 Alpha virt. eigenvalues --    2.53157   2.54615   2.54710   2.54898   2.56791
 Alpha virt. eigenvalues --    2.56903   2.57560   2.58654   2.59111   2.61593
 Alpha virt. eigenvalues --    2.62735   2.62786   2.63644   2.63793   2.65225
 Alpha virt. eigenvalues --    2.65358   2.71131   2.71315   2.76085   2.76123
 Alpha virt. eigenvalues --    2.77258   2.77354   2.79230   2.79914   2.81653
 Alpha virt. eigenvalues --    2.82298   2.84268   2.87261   2.87361   2.87512
 Alpha virt. eigenvalues --    2.88712   2.88737   2.89728   2.89847   2.90883
 Alpha virt. eigenvalues --    2.91253   2.91341   2.91962   2.92915   2.93600
 Alpha virt. eigenvalues --    2.97856   2.98233   2.98642   2.98650   3.00879
 Alpha virt. eigenvalues --    3.02640   3.03981   3.06857   3.06986   3.07477
 Alpha virt. eigenvalues --    3.07704   3.07796   3.08150   3.08271   3.08430
 Alpha virt. eigenvalues --    3.08757   3.10142   3.10189   3.10700   3.11708
 Alpha virt. eigenvalues --    3.13487   3.13521   3.14007   3.15213   3.16511
 Alpha virt. eigenvalues --    3.17096   3.17428   3.19676   3.20291   3.20526
 Alpha virt. eigenvalues --    3.20588   3.21899   3.22149   3.32969   3.34530
 Alpha virt. eigenvalues --    3.40272   3.45795   3.48221   3.48705   3.57097
 Alpha virt. eigenvalues --    3.57659   3.57728   3.61699   3.73789   3.73907
 Alpha virt. eigenvalues --   20.93811  21.05606  21.25341  21.25650  21.30486
 Alpha virt. eigenvalues --   21.42367  21.43745  21.45882  21.54119  21.55073
 Alpha virt. eigenvalues --   21.55164  21.59515  21.61846  21.69630  21.71160
 Alpha virt. eigenvalues --   21.71695  21.72667  21.74087  21.75393  21.75485
 Alpha virt. eigenvalues --   21.82974  21.85665  21.92404  21.93350  21.96264
 Alpha virt. eigenvalues --   21.96516  31.38953  31.39255  31.53371  31.53636
  Beta  occ. eigenvalues --  -14.47364 -14.47362 -14.47359 -14.47358 -10.39818
  Beta  occ. eigenvalues --  -10.39814 -10.39781 -10.39777 -10.36186 -10.36181
  Beta  occ. eigenvalues --  -10.35047 -10.35044 -10.34008 -10.33994 -10.32013
  Beta  occ. eigenvalues --  -10.32012 -10.32010 -10.32009 -10.31790 -10.31788
  Beta  occ. eigenvalues --  -10.31788 -10.31786 -10.31644 -10.31643 -10.31640
  Beta  occ. eigenvalues --  -10.31639 -10.31252 -10.31251 -10.31248 -10.31247
  Beta  occ. eigenvalues --   -1.35339  -1.35334  -1.32196  -1.32192  -1.27425
  Beta  occ. eigenvalues --   -1.27409  -1.24306  -1.22467  -1.16337  -1.11958
  Beta  occ. eigenvalues --   -1.11560  -1.11268  -1.07985  -1.07854  -1.07525
  Beta  occ. eigenvalues --   -1.07517  -1.06794  -1.06789  -1.05792  -1.05568
  Beta  occ. eigenvalues --   -1.02835  -0.99633  -0.97574  -0.97090  -0.92856
  Beta  occ. eigenvalues --   -0.92458  -0.90329  -0.90212  -0.90192  -0.89817
  Beta  occ. eigenvalues --   -0.88053  -0.86406  -0.85949  -0.85750  -0.85553
  Beta  occ. eigenvalues --   -0.85005  -0.84735  -0.83840  -0.82837  -0.82832
  Beta  occ. eigenvalues --   -0.82639  -0.81233  -0.80872  -0.79590  -0.79134
  Beta  occ. eigenvalues --   -0.78521  -0.78518  -0.77968  -0.77239  -0.77154
  Beta  occ. eigenvalues --   -0.76382  -0.76270  -0.75829  -0.75487  -0.74901
  Beta  occ. eigenvalues --   -0.74668  -0.74582  -0.74578  -0.74469  -0.74067
  Beta  occ. eigenvalues --   -0.74059  -0.73722  -0.73301  -0.72658  -0.72492
  Beta  occ. eigenvalues --   -0.71779  -0.71652  -0.70687  -0.70446  -0.66001
  Beta  occ. eigenvalues --   -0.65259  -0.65255  -0.63690  -0.63634  -0.60941
  Beta  occ. eigenvalues --   -0.55519
  Beta virt. eigenvalues --   -0.45750  -0.30480  -0.26440  -0.25037  -0.24843
  Beta virt. eigenvalues --   -0.20287  -0.19892  -0.19888  -0.18412  -0.18147
  Beta virt. eigenvalues --   -0.18143  -0.14497  -0.14438  -0.14131  -0.13606
  Beta virt. eigenvalues --   -0.12776  -0.12357  -0.12147  -0.12131  -0.11472
  Beta virt. eigenvalues --   -0.11426  -0.11307  -0.11054  -0.10928  -0.10533
  Beta virt. eigenvalues --   -0.10432  -0.10247  -0.09772  -0.09206  -0.09178
  Beta virt. eigenvalues --   -0.08867  -0.08291  -0.08014  -0.07861  -0.07809
  Beta virt. eigenvalues --   -0.07715  -0.07054  -0.06969  -0.06519  -0.06505
  Beta virt. eigenvalues --   -0.06372  -0.06214  -0.06134  -0.06026  -0.05895
  Beta virt. eigenvalues --   -0.05729  -0.05041  -0.04985  -0.04792  -0.04342
  Beta virt. eigenvalues --   -0.03489  -0.03445  -0.03196  -0.02370  -0.02213
  Beta virt. eigenvalues --   -0.02107  -0.01823  -0.01394  -0.01381  -0.01304
  Beta virt. eigenvalues --   -0.01096  -0.00840  -0.00257  -0.00201   0.00177
  Beta virt. eigenvalues --    0.01329   0.01484   0.01627   0.01984   0.02183
  Beta virt. eigenvalues --    0.03066   0.03223   0.03251   0.03665   0.03748
  Beta virt. eigenvalues --    0.03885   0.04479   0.04928   0.05960   0.06047
  Beta virt. eigenvalues --    0.06206   0.06446   0.06551   0.07617   0.07664
  Beta virt. eigenvalues --    0.08369   0.08846   0.08926   0.09163   0.09202
  Beta virt. eigenvalues --    0.09926   0.10019   0.10288   0.10344   0.11255
  Beta virt. eigenvalues --    0.11271   0.11378   0.11652   0.11678   0.12202
  Beta virt. eigenvalues --    0.12253   0.12310   0.12765   0.13545   0.13632
  Beta virt. eigenvalues --    0.14257   0.14390   0.14716   0.14859   0.15605
  Beta virt. eigenvalues --    0.15640   0.16087   0.16342   0.17630   0.17876
  Beta virt. eigenvalues --    0.18028   0.18625   0.18690   0.18798   0.18993
  Beta virt. eigenvalues --    0.19114   0.19326   0.20828   0.21623   0.21812
  Beta virt. eigenvalues --    0.21948   0.22518   0.23062   0.23185   0.23268
  Beta virt. eigenvalues --    0.23355   0.24031   0.24041   0.24315   0.24550
  Beta virt. eigenvalues --    0.24576   0.24879   0.25150   0.25488   0.25551
  Beta virt. eigenvalues --    0.26033   0.26190   0.26535   0.26571   0.27128
  Beta virt. eigenvalues --    0.27193   0.27219   0.27767   0.27786   0.28045
  Beta virt. eigenvalues --    0.28060   0.28392   0.28562   0.28855   0.28989
[...]
    51   Atom        0.000351      0.001609      0.002682
    52   Atom       -0.000522      0.001639     -0.000968
    53   Atom       -0.001620     -0.000894      0.000520
    54   Atom        0.001044      0.000120     -0.000738
    55   Atom       -0.001973      0.000306      0.002013
    56   Atom       -0.000335      0.000320     -0.001831
    57   Atom       -0.000379      0.000026     -0.000874
    58   Atom        0.000370      0.000154     -0.000632
    59   Atom       -0.000350     -0.001609      0.002680
    60   Atom        0.000525     -0.001639     -0.000970
    61   Atom        0.001619      0.000896      0.000521
    62   Atom       -0.001044     -0.000123     -0.000738
 --------------------------------------------------------


 ---------------------------------------------------------------------------------
              Anisotropic Spin Dipole Couplings in Principal Axis System
 ---------------------------------------------------------------------------------

       Atom             a.u.   MegaHertz   Gauss  10(-4) cm-1        Axes

              Baa    -0.0172    -2.309    -0.824    -0.770 -0.4961  0.8092  0.3148
     1 C(13)  Bbb     0.0029     0.391     0.139     0.130  0.1082 -0.3021  0.9471
              Bcc     0.0143     1.919     0.685     0.640  0.8615  0.5039  0.0623
 
              Baa    -0.0840   -11.276    -4.024    -3.761 -0.0000 -0.4195  0.9077
     2 C(13)  Bbb    -0.0802   -10.762    -3.840    -3.590  1.0000  0.0000  0.0000
              Bcc     0.1642    22.038     7.864     7.351 -0.0000  0.9077  0.4195
 
              Baa    -0.0334    -4.487    -1.601    -1.497  0.9482 -0.1169 -0.2954
     3 C(13)  Bbb    -0.0295    -3.956    -1.412    -1.320  0.2014 -0.4979  0.8435
              Bcc     0.0629     8.443     3.013     2.816  0.2456  0.8593  0.4486
 
              Baa    -0.0172    -2.309    -0.824    -0.770  0.4962  0.8091  0.3148
     4 C(13)  Bbb     0.0029     0.390     0.139     0.130 -0.1082 -0.3021  0.9471
              Bcc     0.0143     1.918     0.684     0.640  0.8614 -0.5040 -0.0624
 
              Baa    -0.0632    -8.476    -3.024    -2.827 -0.0000 -0.2313  0.9729
     5 C(13)  Bbb    -0.0589    -7.901    -2.819    -2.635  1.0000  0.0000  0.0000
              Bcc     0.1220    16.376     5.843     5.462 -0.0000  0.9729  0.2313
 
              Baa    -0.0334    -4.485    -1.600    -1.496  0.9482  0.1169  0.2954
     6 C(13)  Bbb    -0.0295    -3.955    -1.411    -1.319 -0.2014 -0.4979  0.8435
              Bcc     0.0629     8.440     3.012     2.815 -0.2457  0.8593  0.4486
 
              Baa    -0.0034    -1.839    -0.656    -0.614  0.7950  0.5435  0.2694
     7 H(1)   Bbb    -0.0032    -1.689    -0.603    -0.563 -0.5793  0.8120  0.0713
              Bcc     0.0066     3.528     1.259     1.177 -0.1800 -0.2128  0.9604
 
              Baa    -0.0026    -1.402    -0.500    -0.468 -0.0426  0.8812  0.4709
     8 H(1)   Bbb    -0.0004    -0.225    -0.080    -0.075  0.9984  0.0205  0.0519
              Bcc     0.0030     1.627     0.581     0.543 -0.0360 -0.4724  0.8807
 
              Baa    -0.0034    -1.839    -0.656    -0.613  0.7946 -0.5441 -0.2694
     9 H(1)   Bbb    -0.0032    -1.689    -0.603    -0.563  0.5799  0.8116  0.0711
              Bcc     0.0066     3.528     1.259     1.177  0.1800 -0.2128  0.9604
 
              Baa    -0.0631    -8.468    -3.022    -2.825 -0.0000  0.2306  0.9730
    10 C(13)  Bbb    -0.0588    -7.893    -2.816    -2.633  1.0000  0.0000  0.0000
              Bcc     0.1219    16.360     5.838     5.457 -0.0000  0.9730 -0.2306
 
              Baa    -0.0334    -4.487    -1.601    -1.497  0.9482  0.1169 -0.2955
    11 C(13)  Bbb    -0.0295    -3.957    -1.412    -1.320  0.2017  0.4975  0.8437
              Bcc     0.0629     8.444     3.013     2.817 -0.2456  0.8596 -0.4481
 
              Baa    -0.0334    -4.488    -1.602    -1.497  0.9482 -0.1169  0.2954
    12 C(13)  Bbb    -0.0295    -3.958    -1.412    -1.320 -0.2015  0.4975  0.8437
              Bcc     0.0629     8.446     3.014     2.817  0.2456  0.8596 -0.4482
 
              Baa    -0.0172    -2.311    -0.825    -0.771  0.4954  0.8097 -0.3146
    13 C(13)  Bbb     0.0029     0.393     0.140     0.131  0.1083  0.3018  0.9472
              Bcc     0.0143     1.918     0.685     0.640  0.8619 -0.5033  0.0618
 
              Baa    -0.0172    -2.312    -0.825    -0.771 -0.4951  0.8099 -0.3146
    14 C(13)  Bbb     0.0029     0.394     0.140     0.131 -0.1083  0.3017  0.9472
              Bcc     0.0143     1.919     0.685     0.640  0.8621  0.5031 -0.0617
 
              Baa    -0.0840   -11.272    -4.022    -3.760  0.0001  0.4191  0.9080
    15 C(13)  Bbb    -0.0802   -10.758    -3.839    -3.588  1.0000 -0.0000 -0.0001
              Bcc     0.1642    22.030     7.861     7.348 -0.0000  0.9080 -0.4191
 
              Baa    -0.0034    -1.839    -0.656    -0.613  0.7952 -0.5434  0.2691
    16 H(1)   Bbb    -0.0032    -1.689    -0.603    -0.563  0.5790  0.8122 -0.0710
              Bcc     0.0066     3.528     1.259     1.177 -0.1799  0.2123  0.9605
 
              Baa    -0.0034    -1.839    -0.656    -0.613  0.7953  0.5432 -0.2692
    17 H(1)   Bbb    -0.0032    -1.689    -0.603    -0.563 -0.5789  0.8123 -0.0709
              Bcc     0.0066     3.528     1.259     1.177  0.1801  0.2122  0.9605
 
              Baa    -0.0026    -1.402    -0.500    -0.468 -0.0426  0.8814 -0.4705
    18 H(1)   Bbb    -0.0004    -0.224    -0.080    -0.075  0.9985  0.0207 -0.0516
              Bcc     0.0030     1.625     0.580     0.542  0.0358  0.4720  0.8809
 
              Baa    -0.0026    -1.402    -0.500    -0.468  0.0425  0.8814 -0.4705
    19 H(1)   Bbb    -0.0004    -0.223    -0.080    -0.075  0.9985 -0.0208  0.0513
              Bcc     0.0030     1.625     0.580     0.542 -0.0354  0.4720  0.8809
 
              Baa    -0.0026    -1.402    -0.500    -0.468  0.0425  0.8811  0.4709
    20 H(1)   Bbb    -0.0004    -0.225    -0.080    -0.075  0.9984 -0.0205 -0.0517
              Bcc     0.0030     1.627     0.581     0.543  0.0359 -0.4724  0.8807
 
              Baa    -0.0081    -1.081    -0.386    -0.361 -0.0000  0.5215  0.8533
    21 C(13)  Bbb     0.0026     0.346     0.123     0.115  0.0000  0.8533 -0.5215
              Bcc     0.0055     0.735     0.262     0.245  1.0000  0.0000  0.0000
 
              Baa    -0.0197    -2.637    -0.941    -0.880  0.4682 -0.4237  0.7754
    22 C(13)  Bbb     0.0036     0.477     0.170     0.159  0.5037  0.8489  0.1598
              Bcc     0.0161     2.160     0.771     0.721  0.7260 -0.3158 -0.6109
 
              Baa    -0.0196    -2.636    -0.941    -0.879 -0.4683 -0.4240  0.7752
    23 C(13)  Bbb     0.0035     0.475     0.170     0.159 -0.5043  0.8487  0.1596
              Bcc     0.0161     2.161     0.771     0.721  0.7255  0.3162  0.6113
 
              Baa    -0.1334    -5.146    -1.836    -1.717 -0.1195  0.8459  0.5198
    24 N(14)  Bbb    -0.1325    -5.111    -1.824    -1.705  0.9924  0.1176  0.0368
              Bcc     0.2659    10.257     3.660     3.421  0.0300 -0.5202  0.8535
 
              Baa    -0.1335    -5.147    -1.837    -1.717  0.1191  0.8460  0.5198
    25 N(14)  Bbb    -0.1325    -5.112    -1.824    -1.705  0.9924 -0.1173 -0.0365
              Bcc     0.2660    10.259     3.661     3.422 -0.0302 -0.5202  0.8535
 
              Baa    -0.0037    -0.503    -0.179    -0.168  0.8925 -0.3888 -0.2286
    26 C(13)  Bbb    -0.0001    -0.007    -0.002    -0.002  0.3940  0.4257  0.8145
              Bcc     0.0038     0.510     0.182     0.170  0.2194  0.8171 -0.5332
 
              Baa    -0.0017    -0.923    -0.329    -0.308 -0.1740  0.8696 -0.4621
    27 H(1)   Bbb    -0.0009    -0.499    -0.178    -0.166  0.9772  0.0944 -0.1904
              Bcc     0.0027     1.421     0.507     0.474  0.1220  0.4847  0.8661
 
              Baa    -0.0020    -1.060    -0.378    -0.353  0.0373 -0.4267  0.9036
    28 H(1)   Bbb     0.0002     0.118     0.042     0.039 -0.2359  0.8749  0.4229
              Bcc     0.0018     0.942     0.336     0.314  0.9711  0.2289  0.0680
 
              Baa    -0.0019    -0.996    -0.355    -0.332 -0.1663 -0.1599  0.9730
    29 H(1)   Bbb    -0.0006    -0.327    -0.117    -0.109  0.9799  0.0833  0.1812
              Bcc     0.0025     1.323     0.472     0.441 -0.1100  0.9836  0.1429
 
              Baa    -0.0041    -0.555    -0.198    -0.185  0.0753  0.8879  0.4539
    30 C(13)  Bbb     0.0004     0.048     0.017     0.016  0.8215 -0.3133  0.4765
              Bcc     0.0038     0.508     0.181     0.169 -0.5653 -0.3370  0.7530
 
              Baa    -0.0018    -0.959    -0.342    -0.320 -0.1891  0.7824 -0.5934
    31 H(1)   Bbb    -0.0008    -0.426    -0.152    -0.142  0.6059  0.5685  0.5565
              Bcc     0.0026     1.385     0.494     0.462  0.7728 -0.2543 -0.5815
 
              Baa    -0.0016    -0.867    -0.309    -0.289 -0.1754  0.1703  0.9696
    32 H(1)   Bbb    -0.0012    -0.658    -0.235    -0.220  0.4946  0.8668 -0.0628
              Bcc     0.0029     1.525     0.544     0.509  0.8512 -0.4686  0.2363
 
              Baa    -0.0017    -0.915    -0.327    -0.305  0.2268 -0.6156  0.7547
    33 H(1)   Bbb    -0.0003    -0.137    -0.049    -0.046 -0.3523  0.6705  0.6529
              Bcc     0.0020     1.052     0.375     0.351  0.9080  0.4139  0.0648
 
              Baa    -0.0038    -0.503    -0.180    -0.168  0.8925  0.3885  0.2291
    34 C(13)  Bbb    -0.0001    -0.007    -0.003    -0.002 -0.3945  0.4262  0.8141
              Bcc     0.0038     0.511     0.182     0.170 -0.2186  0.8170 -0.5336
 
              Baa    -0.0017    -0.923    -0.329    -0.308  0.1740  0.8698 -0.4617
    35 H(1)   Bbb    -0.0009    -0.499    -0.178    -0.167  0.9771 -0.0940  0.1910
              Bcc     0.0027     1.422     0.507     0.474 -0.1227  0.4844  0.8662
 
              Baa    -0.0020    -1.060    -0.378    -0.354 -0.0377 -0.4259  0.9040
    36 H(1)   Bbb     0.0002     0.118     0.042     0.039  0.2353  0.8754  0.4222
              Bcc     0.0018     0.942     0.336     0.314  0.9712 -0.2287 -0.0673
 
              Baa    -0.0019    -0.997    -0.356    -0.332  0.1656 -0.1603  0.9731
    37 H(1)   Bbb    -0.0006    -0.326    -0.117    -0.109  0.9800 -0.0840 -0.1807
              Bcc     0.0025     1.323     0.472     0.441  0.1107  0.9835  0.1432
 
              Baa    -0.0041    -0.555    -0.198    -0.185 -0.0750  0.8883  0.4530
    38 C(13)  Bbb     0.0004     0.049     0.017     0.016  0.8217  0.3124 -0.4766
              Bcc     0.0038     0.507     0.181     0.169  0.5649 -0.3365  0.7534
 
              Baa    -0.0018    -0.959    -0.342    -0.320  0.1899  0.7792 -0.5973
    39 H(1)   Bbb    -0.0008    -0.427    -0.152    -0.142  0.6052 -0.5719 -0.5537
              Bcc     0.0026     1.386     0.494     0.462  0.7731  0.2563  0.5802
 
              Baa    -0.0016    -0.865    -0.309    -0.289  0.1754  0.1747  0.9689
    40 H(1)   Bbb    -0.0012    -0.659    -0.235    -0.220 -0.4941  0.8669 -0.0669
              Bcc     0.0029     1.525     0.544     0.509  0.8515  0.4669 -0.2384
 
              Baa    -0.0017    -0.916    -0.327    -0.306 -0.2281 -0.6146  0.7552
    41 H(1)   Bbb    -0.0003    -0.136    -0.049    -0.046  0.3518  0.6712  0.6525
              Bcc     0.0020     1.053     0.376     0.351  0.9079 -0.4144 -0.0631
 
              Baa    -0.0081    -1.083    -0.386    -0.361  0.0000 -0.5229  0.8524
    42 C(13)  Bbb     0.0026     0.349     0.124     0.116  0.0001  0.8524  0.5229
              Bcc     0.0055     0.734     0.262     0.245  1.0000 -0.0001 -0.0001
 
              Baa    -0.0197    -2.639    -0.942    -0.880 -0.4680  0.4239  0.7754
    43 C(13)  Bbb     0.0036     0.477     0.170     0.159  0.5047  0.8485 -0.1592
              Bcc     0.0161     2.163     0.772     0.721  0.7255 -0.3168  0.6110
 
              Baa    -0.0197    -2.639    -0.942    -0.880  0.4679  0.4240  0.7754
    44 C(13)  Bbb     0.0036     0.476     0.170     0.159 -0.5050  0.8483 -0.1591
              Bcc     0.0161     2.162     0.772     0.721  0.7253  0.3171 -0.6110
 
              Baa    -0.1336    -5.153    -1.839    -1.719 -0.1200  0.8459 -0.5196
    45 N(14)  Bbb    -0.1327    -5.118    -1.826    -1.707  0.9923  0.1180 -0.0369
              Bcc     0.2663    10.271     3.665     3.426 -0.0301  0.5201  0.8536
 
              Baa    -0.1336    -5.153    -1.839    -1.719  0.1199  0.8459 -0.5196
    46 N(14)  Bbb    -0.1327    -5.118    -1.826    -1.707  0.9923 -0.1180  0.0370
              Bcc     0.2663    10.271     3.665     3.426  0.0300  0.5201  0.8536
 
              Baa    -0.0038    -0.504    -0.180    -0.168  0.8926 -0.3886  0.2288
    47 C(13)  Bbb    -0.0001    -0.007    -0.003    -0.002 -0.3942 -0.4261  0.8143
              Bcc     0.0038     0.511     0.182     0.170  0.2189  0.8170  0.5335
 
              Baa    -0.0017    -0.924    -0.330    -0.308 -0.1744  0.8695  0.4621
    48 H(1)   Bbb    -0.0009    -0.500    -0.178    -0.167  0.9771  0.0946  0.1908
              Bcc     0.0027     1.424     0.508     0.475 -0.1222 -0.4847  0.8661
 
              Baa    -0.0020    -1.061    -0.378    -0.354 -0.0375  0.4262  0.9039
    49 H(1)   Bbb     0.0002     0.118     0.042     0.039 -0.2364  0.8750 -0.4224
              Bcc     0.0018     0.943     0.337     0.315  0.9709  0.2295 -0.0680
 
              Baa    -0.0019    -0.998    -0.356    -0.333  0.1663  0.1598  0.9730
    50 H(1)   Bbb    -0.0006    -0.327    -0.117    -0.109  0.9799  0.0836 -0.1812
              Bcc     0.0025     1.325     0.473     0.442 -0.1103  0.9836 -0.1427
 
              Baa    -0.0041    -0.556    -0.198    -0.185  0.0750  0.8881 -0.4535
    51 C(13)  Bbb     0.0004     0.048     0.017     0.016  0.8219 -0.3126 -0.4762
              Bcc     0.0038     0.507     0.181     0.169  0.5647  0.3370  0.7534
 
              Baa    -0.0018    -0.960    -0.343    -0.320 -0.1894  0.7811  0.5950
    52 H(1)   Bbb    -0.0008    -0.427    -0.152    -0.142  0.6055  0.5700 -0.5554
              Bcc     0.0026     1.387     0.495     0.463  0.7730 -0.2550  0.5809
 
              Baa    -0.0016    -0.867    -0.309    -0.289  0.1756 -0.1721  0.9693
    53 H(1)   Bbb    -0.0012    -0.659    -0.235    -0.220  0.4944  0.8668  0.0644
              Bcc     0.0029     1.526     0.545     0.509  0.8513 -0.4679 -0.2373
 
              Baa    -0.0017    -0.917    -0.327    -0.306 -0.2272  0.6152  0.7549
    54 H(1)   Bbb    -0.0003    -0.137    -0.049    -0.046 -0.3524  0.6707 -0.6526
              Bcc     0.0020     1.054     0.376     0.351  0.9078  0.4143 -0.0644
 
              Baa    -0.0038    -0.504    -0.180    -0.168  0.8924  0.3887 -0.2291
    55 C(13)  Bbb    -0.0001    -0.007    -0.003    -0.002  0.3947 -0.4265  0.8139
              Bcc     0.0038     0.511     0.182     0.170 -0.2187  0.8167  0.5340
 
              Baa    -0.0017    -0.924    -0.330    -0.308  0.1742  0.8698  0.4616
    56 H(1)   Bbb    -0.0009    -0.500    -0.178    -0.167  0.9770 -0.0942 -0.1912
              Bcc     0.0027     1.423     0.508     0.475  0.1228 -0.4843  0.8662
 
              Baa    -0.0020    -1.061    -0.379    -0.354  0.0375  0.4258  0.9040
    57 H(1)   Bbb     0.0002     0.118     0.042     0.039  0.2358  0.8754 -0.4221
              Bcc     0.0018     0.943     0.337     0.315  0.9711 -0.2290  0.0675
 
              Baa    -0.0019    -0.998    -0.356    -0.333 -0.1657  0.1603  0.9731
    58 H(1)   Bbb    -0.0006    -0.327    -0.117    -0.109  0.9800 -0.0837  0.1807
              Bcc     0.0025     1.325     0.473     0.442  0.1104  0.9835 -0.1432
 
              Baa    -0.0041    -0.556    -0.198    -0.185 -0.0751  0.8883 -0.4531
    59 C(13)  Bbb     0.0004     0.048     0.017     0.016  0.8218  0.3125  0.4764
              Bcc     0.0038     0.507     0.181     0.169 -0.5648  0.3366  0.7534
 
              Baa    -0.0018    -0.960    -0.343    -0.320  0.1897  0.7800  0.5964
    60 H(1)   Bbb    -0.0008    -0.427    -0.152    -0.142  0.6055 -0.5711  0.5543
              Bcc     0.0026     1.387     0.495     0.463  0.7729  0.2559 -0.5806
 
              Baa    -0.0016    -0.867    -0.309    -0.289 -0.1755 -0.1737  0.9690
    61 H(1)   Bbb    -0.0012    -0.660    -0.235    -0.220 -0.4943  0.8668  0.0659
              Bcc     0.0029     1.526     0.545     0.509  0.8514  0.4674  0.2380
 
              Baa    -0.0017    -0.917    -0.327    -0.306  0.2277  0.6148  0.7551
    62 H(1)   Bbb    -0.0003    -0.137    -0.049    -0.046  0.3520  0.6710 -0.6525
              Bcc     0.0020     1.054     0.376     0.352  0.9079 -0.4144  0.0636
 

 ---------------------------------------------------------------------------------

 No NMR shielding tensors so no spin-rotation constants.
 Leave Link  601 at Tue Jan 26 04:09:17 2021, MaxMem=  4026531840 cpu:               9.9 elap:               1.3
 (Enter /opt/ohpc/pub/libs/gaussian/g16-A.03/sandybridge/g16/l9999.exe)

 Test job not archived.
 1\1\GINC-CNODE145\SP\ULC-wHPBE\TZVP\C26H32N4(3+,2)\RDU230\26-Jan-2021\
 0\\#P LC-wHPBE/TZVP iop(3/107=0221900000, 3/108=0221900000) scf=(conve
 r=6,fermi,ndamp=35,noincfock,novaracc,vshift=500,xqc)\\H32 C26 N4\\3,2
 \C,0,-2.823961,0.444264,1.111805\C,0,-3.524911,0.0001,0.000001\C,0,-1.
 447297,0.438089,1.110761\C,0,-2.823968,-0.444049,-1.11184\C,0,-0.74021
 8,0.000107,-0.000031\C,0,-1.447325,-0.43786,-1.11083\H,0,-0.914462,0.7
 97765,1.980986\H,0,-3.355363,-0.783593,-1.991035\H,0,-0.914491,-0.7974
 9,-1.981076\C,0,0.740229,0.000109,-0.000016\C,0,1.447379,0.437502,-1.1
 10991\C,0,1.447259,-0.437322,1.111037\C,0,2.824033,0.443666,-1.111944\
 C,0,2.823909,-0.443539,1.112143\C,0,3.52491,0.000034,0.000126\H,0,0.91
 4614,0.796709,-1.981454\H,0,0.914365,-0.796519,1.981427\H,0,3.355477,0
 .782802,-1.991269\H,0,3.355249,-0.782652,1.991539\H,0,-3.355316,0.7838
 24,1.991014\C,0,4.975135,0.000032,0.000145\C,0,6.14652,-0.565054,0.408
 043\C,0,6.146453,0.56505,-0.408017\N,0,6.78098,-1.491697,1.066857\N,0,
 6.780843,1.491604,-1.067037\C,0,6.057956,-2.591048,1.684578\H,0,6.1547
 08,-2.5451,2.768364\H,0,5.008879,-2.544629,1.410837\H,0,6.464629,-3.53
 7319,1.332266\C,0,8.228734,-1.518275,1.186143\H,0,8.494477,-1.775383,2
 .209103\H,0,8.659441,-2.259109,0.51335\H,0,8.642938,-0.539771,0.968827
 \C,0,6.05773,2.591089,-1.684422\H,0,6.153192,2.544651,-2.768303\H,0,5.
 008941,2.545387,-1.409434\H,0,6.465326,3.537274,-1.332961\C,0,8.228631
 ,1.518112,-1.186291\H,0,8.494234,1.779605,-2.208151\H,0,8.659838,2.255
 827,-0.510389\H,0,8.642467,0.538433,-0.973542\C,0,-4.975109,0.000078,0
 .000026\C,0,-6.146534,0.56508,0.407916\C,0,-6.146403,-0.565147,-0.4079
 45\N,0,-6.781069,1.491701,1.066705\N,0,-6.780732,-1.491927,-1.0667\C,0
 ,-6.058202,2.591312,1.684129\H,0,-6.154554,2.545406,2.767953\H,0,-5.00
 9205,2.545245,1.410016\H,0,-6.465319,3.537423,1.331906\C,0,-8.228858,1
 .518145,1.185797\H,0,-8.494704,1.776946,2.208295\H,0,-8.659724,2.25773
 5,0.511728\H,0,-8.642813,0.539154,0.970202\C,0,-6.057561,-2.59137,-1.6
 84106\H,0,-6.153074,-2.544964,-2.767982\H,0,-5.008776,-2.545628,-1.409
 122\H,0,-6.465122,-3.537559,-1.33261\C,0,-8.228499,-1.518584,-1.185941
 \H,0,-8.494145,-1.779106,-2.208049\H,0,-8.65952,-2.25704,-0.510729\H,0
 ,-8.642516,-0.539209,-0.97216\\Version=EM64L-G16RevA.03\State=2-A\HF=-
 1227.2536356\S2=0.777961\S2-1=0.\S2A=0.750544\RMSD=8.244e-07\Dipole=-0
 .0033223,-0.0000368,-0.0000472\Quadrupole=270.5845795,-131.0871933,-13
 9.4973862,0.001461,0.0002099,0.0036015\PG=C01 [X(C26H32N4)]\\@


 FROM AN ANONYMOUS WRITER, ON PERSPECTIVE:

 MAN, DESPITE HIS ARTISTIC PRETENSIONS, HIS SOPHISTICATION AND MANY 
 ACCOMPLISHMENTS, OWES THE FACT OF HIS EXISTENCE TO A SIX-INCH LAYER OF 
 TOPSOIL AND THE FACT THAT IT RAINS.
 Job cpu time:       0 days  5 hours 38 minutes 22.8 seconds.
 Elapsed time:       0 days  0 hours 42 minutes 47.3 seconds.
 File lengths (MBytes):  RWF=    332 Int=      0 D2E=      0 Chk=     48 Scr=      8
 Normal termination of Gaussian 16 at Tue Jan 26 04:09:17 2021.
