 Entering Gaussian System, Link 0=g16
 Input=mol_bp_cp_whol_tune_c6.gjf
 Output=mol_bp_cp_whol_tune_c6.log
 Initial command:
 /opt/ohpc/pub/libs/gaussian/g16-A.03/sandybridge/g16/l1.exe "/mnt/gpfs2_4m/scratch/rdu230/ondemand/projects/init_structures/gaussian/wtuning/mol_bp_cp_whol/tuning_mol_bp_cp_whol_ocycle0/Gau-58341.inp" -scrdir="/mnt/gpfs2_4m/scratch/rdu230/ondemand/projects/init_structures/gaussian/wtuning/mol_bp_cp_whol/tuning_mol_bp_cp_whol_ocycle0/"
 Entering Link 1 = /opt/ohpc/pub/libs/gaussian/g16-A.03/sandybridge/g16/l1.exe PID=     58342.
  
 Copyright (c) 1988,1990,1992,1993,1995,1998,2003,2009,2016,
            Gaussian, Inc.  All Rights Reserved.
  
 This is part of the Gaussian(R) 16 program.  It is based on
 the Gaussian(R) 09 system (copyright 2009, Gaussian, Inc.),
 the Gaussian(R) 03 system (copyright 2003, Gaussian, Inc.),
 the Gaussian(R) 98 system (copyright 1998, Gaussian, Inc.),
 the Gaussian(R) 94 system (copyright 1995, Gaussian, Inc.),
 the Gaussian 92(TM) system (copyright 1992, Gaussian, Inc.),
 the Gaussian 90(TM) system (copyright 1990, Gaussian, Inc.),
 the Gaussian 88(TM) system (copyright 1988, Gaussian, Inc.),
 the Gaussian 86(TM) system (copyright 1986, Carnegie Mellon
 University), and the Gaussian 82(TM) system (copyright 1983,
 Carnegie Mellon University). Gaussian is a federally registered
 trademark of Gaussian, Inc.
  
 This software contains proprietary and confidential information,
 including trade secrets, belonging to Gaussian, Inc.
  
 This software is provided under written license and may be
 used, copied, transmitted, or stored only in accord with that
 written license.
  
 The following legend is applicable only to US Government
 contracts under FAR:
  
                    RESTRICTED RIGHTS LEGEND
  
 Use, reproduction and disclosure by the US Government is
 subject to restrictions as set forth in subparagraphs (a)
 and (c) of the Commercial Computer Software - Restricted
 Rights clause in FAR 52.227-19.
  
 Gaussian, Inc.
 340 Quinnipiac St., Bldg. 40, Wallingford CT 06492
  
  
 ---------------------------------------------------------------
 Warning -- This program may not be used in any manner that
 competes with the business of Gaussian, Inc. or will provide
 assistance to any competitor of Gaussian, Inc.  The licensee
 of this program is prohibited from giving any competitor of
 Gaussian, Inc. access to this program.  By using this program,
 the user acknowledges that Gaussian, Inc. is engaged in the
 business of creating and licensing software in the field of
 computational chemistry and represents and warrants to the
 licensee that it is not a competitor of Gaussian, Inc. and that
 it will not use this program in any manner prohibited above.
 ---------------------------------------------------------------
  

 Cite this work as:
 Gaussian 16, Revision A.03,
 M. J. Frisch, G. W. Trucks, H. B. Schlegel, G. E. Scuseria, 
 M. A. Robb, J. R. Cheeseman, G. Scalmani, V. Barone, 
 G. A. Petersson, H. Nakatsuji, X. Li, M. Caricato, A. V. Marenich, 
 J. Bloino, B. G. Janesko, R. Gomperts, B. Mennucci, H. P. Hratchian, 
 J. V. Ortiz, A. F. Izmaylov, J. L. Sonnenberg, D. Williams-Young, 
 F. Ding, F. Lipparini, F. Egidi, J. Goings, B. Peng, A. Petrone, 
 T. Henderson, D. Ranasinghe, V. G. Zakrzewski, J. Gao, N. Rega, 
 G. Zheng, W. Liang, M. Hada, M. Ehara, K. Toyota, R. Fukuda, 
 J. Hasegawa, M. Ishida, T. Nakajima, Y. Honda, O. Kitao, H. Nakai, 
 T. Vreven, K. Throssell, J. A. Montgomery, Jr., J. E. Peralta, 
 F. Ogliaro, M. J. Bearpark, J. J. Heyd, E. N. Brothers, K. N. Kudin, 
 V. N. Staroverov, T. A. Keith, R. Kobayashi, J. Normand, 
 K. Raghavachari, A. P. Rendell, J. C. Burant, S. S. Iyengar, 
 J. Tomasi, M. Cossi, J. M. Millam, M. Klene, C. Adamo, R. Cammi, 
 J. W. Ochterski, R. L. Martin, K. Morokuma, O. Farkas, 
 J. B. Foresman, and D. J. Fox, Gaussian, Inc., Wallingford CT, 2016.
 
 ******************************************
 Gaussian 16:  EM64L-G16RevA.03 25-Dec-2016
                26-Jan-2021 
 ******************************************
 %mem=30GB
 %nproc=8
 Will use up to    8 processors via shared memory.
 ----------------------------------------------------------------------
 #P LC-wHPBE/TZVP iop(3/107=0201400000, 3/108=0201400000) scf=(conver=6
 ,fermi,ndamp=35,noincfock,novaracc,vshift=500,xqc)
 ----------------------------------------------------------------------
 1/38=1,172=1/1;
 2/12=2,17=6,18=5,40=1/2;
 3/5=19,7=101,11=2,25=1,30=1,74=-71,107=201400000,108=201400000/1,2,3;
 4//1;
 5/5=100002,6=6,8=3,10=500,13=1,18=-1,22=13,38=1,93=35/2,8;
 6/7=2,8=2,9=2,10=2,28=1/1;
 99/5=1,9=1/99;
 Leave Link    1 at Tue Jan 26 09:24:20 2021, MaxMem=  4026531840 cpu:               0.9 elap:               0.1
 (Enter /opt/ohpc/pub/libs/gaussian/g16-A.03/sandybridge/g16/l101.exe)
 ----------
 H32 C26 N4
 ----------
 Symbolic Z-matrix:
 Charge =  3 Multiplicity = 2
 C                    -2.82396   0.44426   1.1118 
 C                    -3.52491   0.0001    0. 
 C                    -1.4473    0.43809   1.11076 
 C                    -2.82397  -0.44405  -1.11184 
 C                    -0.74022   0.00011  -0.00003 
 C                    -1.44733  -0.43786  -1.11083 
 H                    -0.91446   0.79777   1.98099 
 H                    -3.35536  -0.78359  -1.99104 
 H                    -0.91449  -0.79749  -1.98108 
 C                     0.74023   0.00011  -0.00002 
 C                     1.44738   0.4375   -1.11099 
 C                     1.44726  -0.43732   1.11104 
 C                     2.82403   0.44367  -1.11194 
 C                     2.82391  -0.44354   1.11214 
 C                     3.52491   0.00003   0.00013 
 H                     0.91461   0.79671  -1.98145 
 H                     0.91437  -0.79652   1.98143 
 H                     3.35548   0.7828   -1.99127 
 H                     3.35525  -0.78265   1.99154 
 H                    -3.35532   0.78382   1.99101 
 C                     4.97514   0.00003   0.00015 
 C                     6.14652  -0.56505   0.40804 
 C                     6.14645   0.56505  -0.40802 
 N                     6.78098  -1.4917    1.06686 
 N                     6.78084   1.4916   -1.06704 
 C                     6.05796  -2.59105   1.68458 
 H                     6.15471  -2.5451    2.76836 
 H                     5.00888  -2.54463   1.41084 
 H                     6.46463  -3.53732   1.33227 
 C                     8.22873  -1.51828   1.18614 
 H                     8.49448  -1.77538   2.2091 
 H                     8.65944  -2.25911   0.51335 
 H                     8.64294  -0.53977   0.96883 
 C                     6.05773   2.59109  -1.68442 
 H                     6.15319   2.54465  -2.7683 
 H                     5.00894   2.54539  -1.40943 
 H                     6.46533   3.53727  -1.33296 
 C                     8.22863   1.51811  -1.18629 
 H                     8.49423   1.77961  -2.20815 
 H                     8.65984   2.25583  -0.51039 
 H                     8.64247   0.53843  -0.97354 
 C                    -4.97511   0.00008   0.00003 
 C                    -6.14653   0.56508   0.40792 
 C                    -6.1464   -0.56515  -0.40795 
 N                    -6.78107   1.4917    1.06671 
 N                    -6.78073  -1.49193  -1.0667 
 C                    -6.0582    2.59131   1.68413 
 H                    -6.15455   2.54541   2.76795 
 H                    -5.0092    2.54525   1.41002 
 H                    -6.46532   3.53742   1.33191 
 C                    -8.22886   1.51815   1.1858 
 H                    -8.4947    1.77695   2.2083 
 H                    -8.65972   2.25774   0.51173 
 H                    -8.64281   0.53915   0.9702 
 C                    -6.05756  -2.59137  -1.68411 
 H                    -6.15307  -2.54496  -2.76798 
 H                    -5.00878  -2.54563  -1.40912 
 H                    -6.46512  -3.53756  -1.33261 
 C                    -8.2285   -1.51858  -1.18594 
 H                    -8.49414  -1.77911  -2.20805 
 H                    -8.65952  -2.25704  -0.51073 
 H                    -8.64252  -0.53921  -0.97216 
 
 ITRead=  0  0  0  0  0  0  0  0  0  0  0  0  0  0  0  0  0  0  0  0
 ITRead=  0  0  0  0  0  0  0  0  0  0  0  0  0  0  0  0  0  0  0  0
 ITRead=  0  0  0  0  0  0  0  0  0  0  0  0  0  0  0  0  0  0  0  0
 ITRead=  0  0
 MicOpt= -1 -1 -1 -1 -1 -1 -1 -1 -1 -1 -1 -1 -1 -1 -1 -1 -1 -1 -1 -1
 MicOpt= -1 -1 -1 -1 -1 -1 -1 -1 -1 -1 -1 -1 -1 -1 -1 -1 -1 -1 -1 -1
 MicOpt= -1 -1 -1 -1 -1 -1 -1 -1 -1 -1 -1 -1 -1 -1 -1 -1 -1 -1 -1 -1
 MicOpt= -1 -1
 NAtoms=     62 NQM=       62 NQMF=       0 NMMI=      0 NMMIF=      0
                NMic=       0 NMicF=      0.
                    Isotopes and Nuclear Properties:
 (Nuclear quadrupole moments (NQMom) in fm**2, nuclear magnetic moments (NMagM)
  in nuclear magnetons)

  Atom         1           2           3           4           5           6           7           8           9          10
 IAtWgt=          12          12          12          12          12          12           1           1           1          12
 AtmWgt=  12.0000000  12.0000000  12.0000000  12.0000000  12.0000000  12.0000000   1.0078250   1.0078250   1.0078250  12.0000000
 NucSpn=           0           0           0           0           0           0           1           1           1           0
 AtZEff=  -0.0000000  -0.0000000  -0.0000000  -0.0000000  -0.0000000  -0.0000000  -0.0000000  -0.0000000  -0.0000000  -0.0000000
 NQMom=    0.0000000   0.0000000   0.0000000   0.0000000   0.0000000   0.0000000   0.0000000   0.0000000   0.0000000   0.0000000
 NMagM=    0.0000000   0.0000000   0.0000000   0.0000000   0.0000000   0.0000000   2.7928460   2.7928460   2.7928460   0.0000000
 AtZNuc=   6.0000000   6.0000000   6.0000000   6.0000000   6.0000000   6.0000000   1.0000000   1.0000000   1.0000000   6.0000000

  Atom        11          12          13          14          15          16          17          18          19          20
 IAtWgt=          12          12          12          12          12           1           1           1           1           1
 AtmWgt=  12.0000000  12.0000000  12.0000000  12.0000000  12.0000000   1.0078250   1.0078250   1.0078250   1.0078250   1.0078250
 NucSpn=           0           0           0           0           0           1           1           1           1           1
 AtZEff=  -0.0000000  -0.0000000  -0.0000000  -0.0000000  -0.0000000  -0.0000000  -0.0000000  -0.0000000  -0.0000000  -0.0000000
 NQMom=    0.0000000   0.0000000   0.0000000   0.0000000   0.0000000   0.0000000   0.0000000   0.0000000   0.0000000   0.0000000
 NMagM=    0.0000000   0.0000000   0.0000000   0.0000000   0.0000000   2.7928460   2.7928460   2.7928460   2.7928460   2.7928460
 AtZNuc=   6.0000000   6.0000000   6.0000000   6.0000000   6.0000000   1.0000000   1.0000000   1.0000000   1.0000000   1.0000000

  Atom        21          22          23          24          25          26          27          28          29          30
 IAtWgt=          12          12          12          14          14          12           1           1           1          12
 AtmWgt=  12.0000000  12.0000000  12.0000000  14.0030740  14.0030740  12.0000000   1.0078250   1.0078250   1.0078250  12.0000000
 NucSpn=           0           0           0           2           2           0           1           1           1           0
 AtZEff=  -0.0000000  -0.0000000  -0.0000000  -0.0000000  -0.0000000  -0.0000000  -0.0000000  -0.0000000  -0.0000000  -0.0000000
 NQMom=    0.0000000   0.0000000   0.0000000   2.0440000   2.0440000   0.0000000   0.0000000   0.0000000   0.0000000   0.0000000
 NMagM=    0.0000000   0.0000000   0.0000000   0.4037610   0.4037610   0.0000000   2.7928460   2.7928460   2.7928460   0.0000000
 AtZNuc=   6.0000000   6.0000000   6.0000000   7.0000000   7.0000000   6.0000000   1.0000000   1.0000000   1.0000000   6.0000000

  Atom        31          32          33          34          35          36          37          38          39          40
 IAtWgt=           1           1           1          12           1           1           1          12           1           1
 AtmWgt=   1.0078250   1.0078250   1.0078250  12.0000000   1.0078250   1.0078250   1.0078250  12.0000000   1.0078250   1.0078250
 NucSpn=           1           1           1           0           1           1           1           0           1           1
 AtZEff=  -0.0000000  -0.0000000  -0.0000000  -0.0000000  -0.0000000  -0.0000000  -0.0000000  -0.0000000  -0.0000000  -0.0000000
 NQMom=    0.0000000   0.0000000   0.0000000   0.0000000   0.0000000   0.0000000   0.0000000   0.0000000   0.0000000   0.0000000
 NMagM=    2.7928460   2.7928460   2.7928460   0.0000000   2.7928460   2.7928460   2.7928460   0.0000000   2.7928460   2.7928460
 AtZNuc=   1.0000000   1.0000000   1.0000000   6.0000000   1.0000000   1.0000000   1.0000000   6.0000000   1.0000000   1.0000000

  Atom        41          42          43          44          45          46          47          48          49          50
 IAtWgt=           1          12          12          12          14          14          12           1           1           1
 AtmWgt=   1.0078250  12.0000000  12.0000000  12.0000000  14.0030740  14.0030740  12.0000000   1.0078250   1.0078250   1.0078250
 NucSpn=           1           0           0           0           2           2           0           1           1           1
 AtZEff=  -0.0000000  -0.0000000  -0.0000000  -0.0000000  -0.0000000  -0.0000000  -0.0000000  -0.0000000  -0.0000000  -0.0000000
 NQMom=    0.0000000   0.0000000   0.0000000   0.0000000   2.0440000   2.0440000   0.0000000   0.0000000   0.0000000   0.0000000
 NMagM=    2.7928460   0.0000000   0.0000000   0.0000000   0.4037610   0.4037610   0.0000000   2.7928460   2.7928460   2.7928460
 AtZNuc=   1.0000000   6.0000000   6.0000000   6.0000000   7.0000000   7.0000000   6.0000000   1.0000000   1.0000000   1.0000000

  Atom        51          52          53          54          55          56          57          58          59          60
 IAtWgt=          12           1           1           1          12           1           1           1          12           1
 AtmWgt=  12.0000000   1.0078250   1.0078250   1.0078250  12.0000000   1.0078250   1.0078250   1.0078250  12.0000000   1.0078250
 NucSpn=           0           1           1           1           0           1           1           1           0           1
 AtZEff=  -0.0000000  -0.0000000  -0.0000000  -0.0000000  -0.0000000  -0.0000000  -0.0000000  -0.0000000  -0.0000000  -0.0000000
 NQMom=    0.0000000   0.0000000   0.0000000   0.0000000   0.0000000   0.0000000   0.0000000   0.0000000   0.0000000   0.0000000
 NMagM=    0.0000000   2.7928460   2.7928460   2.7928460   0.0000000   2.7928460   2.7928460   2.7928460   0.0000000   2.7928460
 AtZNuc=   6.0000000   1.0000000   1.0000000   1.0000000   6.0000000   1.0000000   1.0000000   1.0000000   6.0000000   1.0000000

  Atom        61          62
 IAtWgt=           1           1
 AtmWgt=   1.0078250   1.0078250
 NucSpn=           1           1
 AtZEff=  -0.0000000  -0.0000000
 NQMom=    0.0000000   0.0000000
 NMagM=    2.7928460   2.7928460
 AtZNuc=   1.0000000   1.0000000
 Leave Link  101 at Tue Jan 26 09:24:20 2021, MaxMem=  4026531840 cpu:               0.8 elap:               0.1
 (Enter /opt/ohpc/pub/libs/gaussian/g16-A.03/sandybridge/g16/l202.exe)
 Stoichiometry    C26H32N4(3+,2)
 Framework group  C1[X(C26H32N4)]
 Deg. of freedom   180
 Full point group                 C1      NOp   1
 Largest Abelian subgroup         C1      NOp   1
 Largest concise Abelian subgroup C1      NOp   1
                         Standard orientation:                         
 ---------------------------------------------------------------------
 Center     Atomic      Atomic             Coordinates (Angstroms)
 Number     Number       Type             X           Y           Z
 ---------------------------------------------------------------------
      1          6           0        2.823961   -0.444264    1.111805
      2          6           0        3.524911   -0.000100    0.000001
      3          6           0        1.447297   -0.438089    1.110761
      4          6           0        2.823968    0.444049   -1.111840
      5          6           0        0.740218   -0.000107   -0.000031
      6          6           0        1.447325    0.437860   -1.110830
      7          1           0        0.914462   -0.797765    1.980986
      8          1           0        3.355363    0.783593   -1.991035
      9          1           0        0.914491    0.797490   -1.981076
     10          6           0       -0.740229   -0.000109   -0.000016
     11          6           0       -1.447379   -0.437502   -1.110991
     12          6           0       -1.447259    0.437322    1.111037
     13          6           0       -2.824033   -0.443666   -1.111944
     14          6           0       -2.823909    0.443539    1.112143
     15          6           0       -3.524910   -0.000034    0.000126
     16          1           0       -0.914614   -0.796709   -1.981454
     17          1           0       -0.914365    0.796519    1.981427
     18          1           0       -3.355477   -0.782802   -1.991269
     19          1           0       -3.355249    0.782652    1.991539
     20          1           0        3.355316   -0.783824    1.991014
     21          6           0       -4.975135   -0.000032    0.000145
     22          6           0       -6.146520    0.565054    0.408043
     23          6           0       -6.146453   -0.565050   -0.408017
     24          7           0       -6.780980    1.491697    1.066857
     25          7           0       -6.780843   -1.491604   -1.067037
     26          6           0       -6.057956    2.591048    1.684578
     27          1           0       -6.154708    2.545100    2.768364
     28          1           0       -5.008879    2.544629    1.410837
     29          1           0       -6.464629    3.537319    1.332266
     30          6           0       -8.228734    1.518275    1.186143
     31          1           0       -8.494477    1.775383    2.209103
     32          1           0       -8.659441    2.259109    0.513350
     33          1           0       -8.642938    0.539771    0.968827
     34          6           0       -6.057730   -2.591089   -1.684422
     35          1           0       -6.153192   -2.544651   -2.768303
     36          1           0       -5.008941   -2.545387   -1.409434
     37          1           0       -6.465326   -3.537274   -1.332961
     38          6           0       -8.228631   -1.518112   -1.186291
     39          1           0       -8.494234   -1.779605   -2.208151
     40          1           0       -8.659838   -2.255827   -0.510389
     41          1           0       -8.642467   -0.538433   -0.973542
     42          6           0        4.975109   -0.000078    0.000026
     43          6           0        6.146534   -0.565080    0.407916
     44          6           0        6.146403    0.565147   -0.407945
     45          7           0        6.781069   -1.491701    1.066705
     46          7           0        6.780732    1.491927   -1.066700
     47          6           0        6.058202   -2.591312    1.684129
     48          1           0        6.154554   -2.545406    2.767953
     49          1           0        5.009205   -2.545245    1.410016
     50          1           0        6.465319   -3.537423    1.331906
     51          6           0        8.228858   -1.518145    1.185797
     52          1           0        8.494704   -1.776946    2.208295
     53          1           0        8.659724   -2.257735    0.511728
     54          1           0        8.642813   -0.539154    0.970202
     55          6           0        6.057561    2.591370   -1.684106
     56          1           0        6.153074    2.544964   -2.767982
     57          1           0        5.008776    2.545628   -1.409122
     58          1           0        6.465122    3.537559   -1.332610
     59          6           0        8.228499    1.518584   -1.185941
     60          1           0        8.494145    1.779106   -2.208049
     61          1           0        8.659520    2.257040   -0.510729
     62          1           0        8.642516    0.539209   -0.972160
 ---------------------------------------------------------------------
 Rotational constants (GHZ):           0.4108366           0.0399477           0.0392121
 Leave Link  202 at Tue Jan 26 09:24:20 2021, MaxMem=  4026531840 cpu:               0.1 elap:               0.0
 (Enter /opt/ohpc/pub/libs/gaussian/g16-A.03/sandybridge/g16/l301.exe)
 Standard basis: TZVP (5D, 7F)
 Ernie: Thresh=  0.10000D-02 Tol=  0.10000D-05 Strict=F.
 There are   792 symmetry adapted cartesian basis functions of A   symmetry.
 There are   762 symmetry adapted basis functions of A   symmetry.
   762 basis functions,  1306 primitive gaussians,   792 cartesian basis functions
   107 alpha electrons      106 beta electrons
       nuclear repulsion energy      2573.9438951873 Hartrees.
 IExCor=33909 DFT=T Ex+Corr=LC-wHPBE ExCW=0 ScaHFX=  1.000000
 ScaDFX=  1.000000  1.000000  1.000000  1.000000 ScalE2=  1.000000  1.000000
 IRadAn=      5 IRanWt=     -1 IRanGd=            0 ICorTp=0 IEmpDi=  4
 HFx  wShort=  0.000000 wLong=  0.201400 cFull=  0.000000 cShort=  0.000000 cLong=  1.000000
 DFx  wShort=  0.000000 wLong=  0.201400 cFull=  0.000000 cShort=  1.000000 cLong=  0.000000
 NAtoms=   62 NActive=   62 NUniq=   62 SFac= 1.00D+00 NAtFMM=   60 NAOKFM=T Big=T
 Integral buffers will be    131072 words long.
 Raffenetti 2 integral format.
 Two-electron integral symmetry is turned on.
 Leave Link  301 at Tue Jan 26 09:24:20 2021, MaxMem=  4026531840 cpu:               0.4 elap:               0.1
 (Enter /opt/ohpc/pub/libs/gaussian/g16-A.03/sandybridge/g16/l302.exe)
 NPDir=0 NMtPBC=     1 NCelOv=     1 NCel=       1 NClECP=     1 NCelD=      1
         NCelK=      1 NCelE2=     1 NClLst=     1 CellRange=     0.0.
 One-electron integrals computed using PRISM.
 One-electron integral symmetry used in STVInt
 NBasis=   762 RedAO= T EigKep=  6.76D-06  NBF=   762
 NBsUse=   762 1.00D-06 EigRej= -1.00D+00 NBFU=   762
 Precomputing XC quadrature grid using
 IXCGrd= 4 IRadAn=           5 IRanWt=          -1 IRanGd=           0 AccXCQ= 0.00D+00.
 Generated NRdTot=       0 NPtTot=           0 NUsed=           0 NTot=          32
 NSgBfM=   719   719   719   719   719 MxSgAt=    62 MxSgA2=    62.
 Leave Link  302 at Tue Jan 26 09:24:23 2021, MaxMem=  4026531840 cpu:              17.0 elap:               2.2
 (Enter /opt/ohpc/pub/libs/gaussian/g16-A.03/sandybridge/g16/l303.exe)
 DipDrv:  MaxL=1.
 Leave Link  303 at Tue Jan 26 09:24:23 2021, MaxMem=  4026531840 cpu:               1.3 elap:               0.2
 (Enter /opt/ohpc/pub/libs/gaussian/g16-A.03/sandybridge/g16/l401.exe)
 ExpMin= 9.52D-02 ExpMax= 1.97D+04 ExpMxC= 6.73D+02 IAcc=3 IRadAn=         5 AccDes= 0.00D+00
 Harris functional with IExCor=33909 and IRadAn=       5 diagonalized for initial guess.
 HarFok:  IExCor=33909 AccDes= 0.00D+00 IRadAn=         5 IDoV= 1 UseB2=F ITyADJ=14
 ICtDFT=  3500011 ScaDFX=  1.000000  1.000000  1.000000  1.000000
 FoFCou: FMM=F IPFlag=           0 FMFlag=      100000 FMFlg1=        2001
         NFxFlg=           0 DoJE=T BraDBF=F KetDBF=T FulRan=T
         wScrn=  0.000000 ICntrl=       500 IOpCl=  0 I1Cent=   200000004 NGrid=           0
         NMat0=    1 NMatS0=      1 NMatT0=    0 NMatD0=    1 NMtDS0=    0 NMtDT0=    0
 Petite list used in FoFCou.
 Harris En= -1204.67748824398    
 JPrj=0 DoOrth=F DoCkMO=F.
 Initial guess <Sx>= 0.0000 <Sy>= 0.0000 <Sz>= 0.5000 <S**2>= 0.7500 S= 0.5000
 Leave Link  401 at Tue Jan 26 09:24:33 2021, MaxMem=  4026531840 cpu:              83.2 elap:              10.5
 (Enter /opt/ohpc/pub/libs/gaussian/g16-A.03/sandybridge/g16/l502.exe)
 Integral symmetry usage will be decided dynamically.
 UHF open shell SCF:
 Using DIIS extrapolation, IDIIS=    10.
 NGot=  4026531840 LenX=  4025262970 LenY=  4024634914
 Requested convergence on RMS density matrix=1.00D-06 within  32 cycles.
 Requested convergence on MAX density matrix=1.00D-04.
 Requested convergence on             energy=1.00D-04.
 Virtual orbitals will be shifted by   0.500 hartree.
 No special actions if energy rises.
 Dynamic level shift is on during FON iterations.

 Cycle   1  Pass 1  IDiag  1:
 FoFJK:  IHMeth= 1 ICntrl=       0 DoSepK=T KAlg= 0 I1Cent=           0 FoldK=F
 IRaf=         1 NMat=       1 IRICut=       1 DoRegI=T DoRafI=F ISym2E= 0 IDoP0=0 IntGTp=1.
 FoFCou: FMM=T IPFlag=           0 FMFlag=      100000 FMFlg1=        2001
         NFxFlg=           0 DoJE=T BraDBF=F KetDBF=F FulRan=T
         wScrn=  0.000000 ICntrl=       500 IOpCl=  0 I1Cent=           0 NGrid=           0
         NMat0=    1 NMatS0=      1 NMatT0=    0 NMatD0=    1 NMtDS0=    0 NMtDT0=    0
 Symmetry not used in FoFCou.
 FMM levels:  10  Number of levels for PrismC:   9
 E= -1226.78653128605    
 DIIS: error= 2.84D-02 at cycle   1 NSaved=   1.
 NSaved= 1 IEnMin= 1 EnMin= -1226.78653128605     IErMin= 1 ErrMin= 2.84D-02
 ErrMax= 2.84D-02  0.00D+00 EMaxC= 1.00D+00 BMatC= 1.80D+00 BMatP= 1.80D+00
 IDIUse=1 WtCom= 1.00D+00 WtEn= 0.00D+00
 Coeff-Com:  0.100D+01
 Coeff:      0.100D+01
 Gap=     0.357 Goal=   None    Shift=    0.500
 T= 1463. Gap= 0.704 NK=0 IS=  108 IE=  762 IFin=  107
          NO(<0.9)=   0  NV(>0.1)=   0    107.00e < EF      0.00e >EF  Err=0.0D+00
 Gap=     0.068 Goal=   None    Shift=    0.500
 T= 1463. Gap= 0.519 NK=0 IS=  107 IE=  762 IFin=  106
          NO(<0.9)=   0  NV(>0.1)=   0    106.00e < EF      0.00e >EF  Err=0.0D+00
 GapD=    0.068 DampG=0.500 DampE=0.500 DampFc=0.2500 IDamp=-1.
 Damping current iteration by 2.50D-01
 RMSDP=2.62D-03 MaxDP=1.76D-01              OVMax= 1.06D-01

 Cycle   2  Pass 1  IDiag  1:
 E= -1226.93343494152     Delta-E=       -0.146903655470 Rises=F Damp=T
 DIIS: error= 1.98D-02 at cycle   2 NSaved=   2.
 NSaved= 2 IEnMin= 2 EnMin= -1226.93343494152     IErMin= 2 ErrMin= 1.98D-02
 ErrMax= 1.98D-02  0.00D+00 EMaxC= 1.00D+00 BMatC= 8.74D-01 BMatP= 1.80D+00
 IDIUse=1 WtCom= 1.00D+00 WtEn= 0.00D+00
 Coeff-Com: -0.211D+01 0.311D+01
 Coeff:     -0.211D+01 0.311D+01
 Gap=     0.292 Goal=   None    Shift=    0.500
 T= 1399. Gap= 0.764 NK=0 IS=  108 IE=  762 IFin=  107
          NO(<0.9)=   0  NV(>0.1)=   0    107.00e < EF      0.00e >EF  Err=0.0D+00
 Gap=     0.140 Goal=   None    Shift=    0.500
 T= 1399. Gap= 0.565 NK=0 IS=  107 IE=  762 IFin=  106
          NO(<0.9)=   0  NV(>0.1)=   0    106.00e < EF      0.00e >EF  Err=0.0D+00
 GapD=    0.140 DampG=1.000 DampE=0.500 DampFc=0.5000 IDamp=-1.
 Damping current iteration by 5.00D-01
 RMSDP=1.97D-03 MaxDP=1.36D-01 DE=-1.47D-01 OVMax= 2.91D-02

 Cycle   3  Pass 1  IDiag  1:
 E= -1227.09514111839     Delta-E=       -0.161706176867 Rises=F Damp=T
 DIIS: error= 8.95D-03 at cycle   3 NSaved=   3.
 NSaved= 3 IEnMin= 3 EnMin= -1227.09514111839     IErMin= 3 ErrMin= 8.95D-03
 ErrMax= 8.95D-03  0.00D+00 EMaxC= 1.00D+00 BMatC= 1.83D-01 BMatP= 8.74D-01
 IDIUse=1 WtCom= 1.00D+00 WtEn= 0.00D+00
 Coeff-Com:  0.871D-01-0.976D+00 0.189D+01
 Coeff:      0.871D-01-0.976D+00 0.189D+01
 Gap=     0.268 Goal=   None    Shift=    0.500
 T= 1224. Gap= 0.768 NK=0 IS=  108 IE=  762 IFin=  107
          NO(<0.9)=   0  NV(>0.1)=   0    107.00e < EF      0.00e >EF  Err=0.0D+00
 Gap=     0.067 Goal=   None    Shift=    0.500
 T= 1224. Gap= 0.567 NK=0 IS=  107 IE=  762 IFin=  106
          NO(<0.9)=   0  NV(>0.1)=   0    106.00e < EF      0.00e >EF  Err=0.0D+00
 GapD=    0.067 DampG=0.500 DampE=1.000 DampFc=0.5000 IDamp=-1.
 Damping current iteration by 5.00D-01
 RMSDP=9.43D-04 MaxDP=6.52D-02 DE=-1.62D-01 OVMax= 2.54D-02

 Cycle   4  Pass 1  IDiag  1:
 E= -1227.15812660180     Delta-E=       -0.062985483411 Rises=F Damp=T
 DIIS: error= 6.03D-03 at cycle   4 NSaved=   4.
 NSaved= 4 IEnMin= 4 EnMin= -1227.15812660180     IErMin= 4 ErrMin= 6.03D-03
 ErrMax= 6.03D-03  0.00D+00 EMaxC= 1.00D+00 BMatC= 4.09D-02 BMatP= 1.83D-01
 IDIUse=1 WtCom= 1.00D+00 WtEn= 0.00D+00
 Coeff-Com:  0.203D+00-0.398D+00-0.595D+00 0.179D+01
 Coeff:      0.203D+00-0.398D+00-0.595D+00 0.179D+01
 Gap=     0.268 Goal=   None    Shift=    0.500
 T=  926. Gap= 0.768 NK=0 IS=  108 IE=  762 IFin=  107
          NO(<0.9)=   0  NV(>0.1)=   0    107.00e < EF      0.00e >EF  Err=0.0D+00
 Gap=     0.069 Goal=   None    Shift=    0.500
 T=  926. Gap= 0.569 NK=0 IS=  107 IE=  762 IFin=  106
          NO(<0.9)=   0  NV(>0.1)=   0    106.00e < EF      0.00e >EF  Err=0.0D+00
 GapD=    0.069 DampG=0.500 DampE=1.000 DampFc=0.5000 IDamp=-1.
 Damping current iteration by 5.00D-01
 RMSDP=4.85D-04 MaxDP=3.09D-02 DE=-6.30D-02 OVMax= 2.32D-02

 Cycle   5  Pass 1  IDiag  1:
 E= -1227.18644436393     Delta-E=       -0.028317762133 Rises=F Damp=T
 DIIS: error= 4.75D-03 at cycle   5 NSaved=   5.
 NSaved= 5 IEnMin= 5 EnMin= -1227.18644436393     IErMin= 5 ErrMin= 4.75D-03
 ErrMax= 4.75D-03  0.00D+00 EMaxC= 1.00D+00 BMatC= 1.00D-02 BMatP= 4.09D-02
 IDIUse=1 WtCom= 1.00D+00 WtEn= 0.00D+00
 Coeff-Com:  0.128D-01 0.941D-01 0.432D-01-0.196D+01 0.281D+01
 Coeff:      0.128D-01 0.941D-01 0.432D-01-0.196D+01 0.281D+01
 Gap=     0.269 Goal=   None    Shift=    0.500
 T=  586. Gap= 0.769 NK=0 IS=  108 IE=  762 IFin=  107
          NO(<0.9)=   0  NV(>0.1)=   0    107.00e < EF      0.00e >EF  Err=0.0D+00
 Gap=     0.071 Goal=   None    Shift=    0.500
 T=  586. Gap= 0.572 NK=0 IS=  107 IE=  762 IFin=  106
          NO(<0.9)=   0  NV(>0.1)=   0    106.00e < EF      0.00e >EF  Err=0.0D+00
 GapD=    0.071 DampG=0.500 DampE=1.000 DampFc=0.5000 IDamp=-1.
 Damping current iteration by 5.00D-01
 RMSDP=2.70D-04 MaxDP=1.28D-02 DE=-2.83D-02 OVMax= 2.37D-02

 Cycle   6  Pass 1  IDiag  1:
 E= -1227.20027084481     Delta-E=       -0.013826480876 Rises=F Damp=T
 DIIS: error= 4.10D-03 at cycle   6 NSaved=   6.
 NSaved= 6 IEnMin= 6 EnMin= -1227.20027084481     IErMin= 6 ErrMin= 4.10D-03
 ErrMax= 4.10D-03  0.00D+00 EMaxC= 1.00D+00 BMatC= 2.86D-03 BMatP= 1.00D-02
 IDIUse=1 WtCom= 1.00D+00 WtEn= 0.00D+00
 Coeff-Com: -0.766D-01 0.142D+00 0.240D+00-0.169D+00-0.288D+01 0.375D+01
 Coeff:     -0.766D-01 0.142D+00 0.240D+00-0.169D+00-0.288D+01 0.375D+01
 Gap=     0.269 Goal=   None    Shift=    0.500
 T=  416. Gap= 0.769 NK=0 IS=  108 IE=  762 IFin=  107
          NO(<0.9)=   0  NV(>0.1)=   0    107.00e < EF      0.00e >EF  Err=0.0D+00
 Gap=     0.074 Goal=   None    Shift=    0.500
 T=  416. Gap= 0.574 NK=0 IS=  107 IE=  762 IFin=  106
          NO(<0.9)=   0  NV(>0.1)=   0    106.00e < EF      0.00e >EF  Err=0.0D+00
 GapD=    0.074 DampG=0.500 DampE=1.000 DampFc=0.5000 IDamp=-1.
 Damping current iteration by 5.00D-01
 RMSDP=1.94D-04 MaxDP=6.61D-03 DE=-1.38D-02 OVMax= 2.46D-02

 Cycle   7  Pass 1  IDiag  1:
 E= -1227.20740675839     Delta-E=       -0.007135913579 Rises=F Damp=T
 DIIS: error= 3.66D-03 at cycle   7 NSaved=   7.
 NSaved= 7 IEnMin= 7 EnMin= -1227.20740675839     IErMin= 7 ErrMin= 3.66D-03
 ErrMax= 3.66D-03  0.00D+00 EMaxC= 1.00D+00 BMatC= 1.03D-03 BMatP= 2.86D-03
 IDIUse=1 WtCom= 1.00D+00 WtEn= 0.00D+00
 Coeff-Com: -0.222D-01 0.982D-03-0.125D-01 0.893D+00-0.114D+01-0.283D+01
 Coeff-Com:  0.411D+01
 Coeff:     -0.222D-01 0.982D-03-0.125D-01 0.893D+00-0.114D+01-0.283D+01
 Coeff:      0.411D+01
 Gap=     0.269 Goal=   None    Shift=    0.500
 T=  312. Gap= 0.769 NK=0 IS=  108 IE=  762 IFin=  107
          NO(<0.9)=   0  NV(>0.1)=   0    107.00e < EF      0.00e >EF  Err=0.0D+00
 Gap=     0.076 Goal=   None    Shift=    0.500
 T=  312. Gap= 0.577 NK=0 IS=  107 IE=  762 IFin=  106
          NO(<0.9)=   0  NV(>0.1)=   0    106.00e < EF      0.00e >EF  Err=0.0D+00
 GapD=    0.076 DampG=0.500 DampE=1.000 DampFc=0.5000 IDamp=-1.
 Damping current iteration by 5.00D-01
 RMSDP=1.60D-04 MaxDP=6.80D-03 DE=-7.14D-03 OVMax= 2.47D-02

 Cycle   8  Pass 1  IDiag  1:
 E= -1227.21126840398     Delta-E=       -0.003861645594 Rises=F Damp=T
 DIIS: error= 3.29D-03 at cycle   8 NSaved=   8.
 NSaved= 8 IEnMin= 8 EnMin= -1227.21126840398     IErMin= 8 ErrMin= 3.29D-03
 ErrMax= 3.29D-03  0.00D+00 EMaxC= 1.00D+00 BMatC= 4.98D-04 BMatP= 1.03D-03
 IDIUse=1 WtCom= 1.00D+00 WtEn= 0.00D+00
 Coeff-Com:  0.289D-01-0.366D-01-0.195D+00 0.936D-01 0.191D+01-0.122D+01
 Coeff-Com: -0.617D+01 0.659D+01
 Coeff:      0.289D-01-0.366D-01-0.195D+00 0.936D-01 0.191D+01-0.122D+01
 Coeff:     -0.617D+01 0.659D+01
 Gap=     0.269 Goal=   None    Shift=    0.500
 T=  238. Gap= 0.769 NK=0 IS=  108 IE=  762 IFin=  107
          NO(<0.9)=   0  NV(>0.1)=   0    107.00e < EF      0.00e >EF  Err=0.0D+00
 Gap=     0.080 Goal=   None    Shift=    0.500
 T=  238. Gap= 0.580 NK=0 IS=  107 IE=  762 IFin=  106
          NO(<0.9)=   0  NV(>0.1)=   0    106.00e < EF      0.00e >EF  Err=0.0D+00
 GapD=    0.080 DampG=0.500 DampE=1.000 DampFc=0.5000 IDamp=-1.
 Damping current iteration by 5.00D-01
 RMSDP=1.72D-04 MaxDP=8.97D-03 DE=-3.86D-03 OVMax= 2.64D-02

 Cycle   9  Pass 1  IDiag  1:
 E= -1227.21347906664     Delta-E=       -0.002210662654 Rises=F Damp=T
 DIIS: error= 3.00D-03 at cycle   9 NSaved=   9.
 NSaved= 9 IEnMin= 9 EnMin= -1227.21347906664     IErMin= 9 ErrMin= 3.00D-03
 ErrMax= 3.00D-03  0.00D+00 EMaxC= 1.00D+00 BMatC= 3.21D-04 BMatP= 4.98D-04
 IDIUse=1 WtCom= 1.00D+00 WtEn= 0.00D+00
 Coeff-Com:  0.223D-01 0.730D-04-0.160D+00-0.497D+00 0.225D+01 0.999D+00
 Coeff-Com: -0.844D+01 0.523D+01 0.159D+01
 Coeff:      0.223D-01 0.730D-04-0.160D+00-0.497D+00 0.225D+01 0.999D+00
 Coeff:     -0.844D+01 0.523D+01 0.159D+01
 Gap=     0.269 Goal=   None    Shift=    0.500
 T=  175. Gap= 0.769 NK=0 IS=  108 IE=  762 IFin=  107
          NO(<0.9)=   0  NV(>0.1)=   0    107.00e < EF      0.00e >EF  Err=0.0D+00
 Gap=     0.081 Goal=   None    Shift=    0.500
 T=  175. Gap= 0.582 NK=0 IS=  107 IE=  762 IFin=  106
          NO(<0.9)=   0  NV(>0.1)=   0    106.00e < EF      0.00e >EF  Err=0.0D+00
 GapD=    0.081 DampG=0.500 DampE=1.000 DampFc=0.5000 IDamp=-1.
 Damping current iteration by 5.00D-01
 RMSDP=1.45D-04 MaxDP=7.93D-03 DE=-2.21D-03 OVMax= 2.27D-02

 Cycle  10  Pass 1  IDiag  1:
 E= -1227.21482688062     Delta-E=       -0.001347813985 Rises=F Damp=T
 DIIS: error= 2.72D-03 at cycle  10 NSaved=  10.
 NSaved=10 IEnMin=10 EnMin= -1227.21482688062     IErMin=10 ErrMin= 2.72D-03
 ErrMax= 2.72D-03  0.00D+00 EMaxC= 1.00D+00 BMatC= 2.40D-04 BMatP= 3.21D-04
 IDIUse=1 WtCom= 1.00D+00 WtEn= 0.00D+00
 Large coefficients: NSaved= 10 BigCof=   13.92 CofMax=   10.00 Det=-3.30D-07
 Inversion failed.  Reducing to  9 matrices.
 Large coefficients: NSaved=  9 BigCof=   13.18 CofMax=   10.00 Det=-3.59D-07
 Inversion failed.  Reducing to  8 matrices.
 Large coefficients: NSaved=  8 BigCof=   13.45 CofMax=   10.00 Det=-3.85D-07
 Inversion failed.  Reducing to  7 matrices.
 Large coefficients: NSaved=  7 BigCof=   11.95 CofMax=   10.00 Det=-4.46D-07
 Inversion failed.  Reducing to  6 matrices.
 Large coefficients: NSaved=  6 BigCof=   12.26 CofMax=   10.00 Det=-5.22D-07
 Inversion failed.  Reducing to  5 matrices.
 Large coefficients: NSaved=  5 BigCof=   12.18 CofMax=   10.00 Det=-5.22D-07
 Inversion failed.  Reducing to  4 matrices.
 Large coefficients: NSaved=  4 BigCof=   12.39 CofMax=   10.00 Det=-6.72D-07
 Inversion failed.  Reducing to  3 matrices.
 Large coefficients: NSaved=  3 BigCof=   12.41 CofMax=   10.00 Det=-6.72D-07
 Inversion failed.  Reducing to  2 matrices.
 Coeff-Com: -0.207D+01 0.307D+01
 Coeff:     -0.207D+01 0.307D+01
 Gap=     0.269 Goal=   None    Shift=    0.500
 T=  115. Gap= 0.769 NK=0 IS=  108 IE=  762 IFin=  107
          NO(<0.9)=   0  NV(>0.1)=   0    107.00e < EF      0.00e >EF  Err=0.0D+00
 Gap=     0.082 Goal=   None    Shift=    0.500
 T=  115. Gap= 0.582 NK=0 IS=  107 IE=  762 IFin=  106
          NO(<0.9)=   0  NV(>0.1)=   0    106.00e < EF      0.00e >EF  Err=0.0D+00
 GapD=    0.082 DampG=0.500 DampE=1.000 DampFc=0.5000 IDamp=-1.
 Damping current iteration by 5.00D-01
 RMSDP=1.00D-04 MaxDP=5.30D-03 DE=-1.35D-03 OVMax= 1.80D-02

 Cycle  11  Pass 1  IDiag  1:
 E= -1227.21569159265     Delta-E=       -0.000864712032 Rises=F Damp=T
 DIIS: error= 2.42D-03 at cycle  11 NSaved=   3.
 NSaved= 3 IEnMin= 3 EnMin= -1227.21569159265     IErMin= 3 ErrMin= 2.42D-03
 ErrMax= 2.42D-03  0.00D+00 EMaxC= 1.00D+00 BMatC= 1.76D-04 BMatP= 2.40D-04
 IDIUse=1 WtCom= 1.00D+00 WtEn= 0.00D+00
 Coeff-Com: -0.116D+01-0.146D+00 0.231D+01
 Coeff:     -0.116D+01-0.146D+00 0.231D+01
 Gap=     0.268 Goal=   None    Shift=    0.500
 Gap=     0.084 Goal=   None    Shift=    0.500
 GapD=    0.084 DampG=0.500 DampE=1.000 DampFc=0.5000 IDamp=-1.
 Damping current iteration by 5.00D-01
 RMSDP=1.03D-04 MaxDP=5.74D-03 DE=-8.65D-04 OVMax= 1.71D-02

 Cycle  12  Pass 1  IDiag  1:
 E= -1227.21626568052     Delta-E=       -0.000574087867 Rises=F Damp=T
 DIIS: error= 2.19D-03 at cycle  12 NSaved=   4.
 NSaved= 4 IEnMin= 4 EnMin= -1227.21626568052     IErMin= 4 ErrMin= 2.19D-03
 ErrMax= 2.19D-03  0.00D+00 EMaxC= 1.00D+00 BMatC= 1.45D-04 BMatP= 1.76D-04
 IDIUse=1 WtCom= 1.00D+00 WtEn= 0.00D+00
 Coeff-Com:  0.127D+01-0.331D+01-0.286D+01 0.591D+01
 Coeff:      0.127D+01-0.331D+01-0.286D+01 0.591D+01
 Gap=     0.267 Goal=   None    Shift=    0.500
 Gap=     0.088 Goal=   None    Shift=    0.500
 GapD=    0.088 DampG=0.500 DampE=1.000 DampFc=0.5000 IDamp=-1.
 Damping current iteration by 5.00D-01
 RMSDP=1.53D-04 MaxDP=9.55D-03 DE=-5.74D-04 OVMax= 2.41D-02

 Cycle  13  Pass 1  IDiag  1:
 E= -1227.21668019447     Delta-E=       -0.000414513950 Rises=F Damp=T
 DIIS: error= 2.02D-03 at cycle  13 NSaved=   5.
 NSaved= 5 IEnMin= 5 EnMin= -1227.21668019447     IErMin= 5 ErrMin= 2.02D-03
 ErrMax= 2.02D-03  0.00D+00 EMaxC= 1.00D+00 BMatC= 1.54D-04 BMatP= 1.45D-04
 IDIUse=1 WtCom= 1.00D+00 WtEn= 0.00D+00
 Coeff-Com:  0.134D+01-0.352D+01-0.249D+01 0.549D+01 0.189D+00
 Coeff:      0.134D+01-0.352D+01-0.249D+01 0.549D+01 0.189D+00
 Gap=     0.266 Goal=   None    Shift=    0.500
 Gap=     0.089 Goal=   None    Shift=    0.500
 GapD=    0.089 DampG=0.500 DampE=1.000 DampFc=0.5000 IDamp=-1.
 Damping current iteration by 5.00D-01
 RMSDP=1.29D-04 MaxDP=8.12D-03 DE=-4.15D-04 OVMax= 1.87D-02

 Cycle  14  Pass 1  IDiag  1:
 E= -1227.21700955832     Delta-E=       -0.000329363846 Rises=F Damp=T
 DIIS: error= 1.82D-03 at cycle  14 NSaved=   6.
 NSaved= 6 IEnMin= 6 EnMin= -1227.21700955832     IErMin= 6 ErrMin= 1.82D-03
 ErrMax= 1.82D-03  0.00D+00 EMaxC= 1.00D+00 BMatC= 1.62D-04 BMatP= 1.45D-04
 IDIUse=1 WtCom= 1.00D+00 WtEn= 0.00D+00
 Coeff-Com:  0.159D+01-0.361D+01-0.136D+01 0.698D+01-0.848D+01 0.588D+01
 Coeff:      0.159D+01-0.361D+01-0.136D+01 0.698D+01-0.848D+01 0.588D+01
 Gap=     0.266 Goal=   None    Shift=    0.500
 Gap=     0.091 Goal=   None    Shift=    0.500
 GapD=    0.091 DampG=0.500 DampE=1.000 DampFc=0.5000 IDamp=-1.
 Damping current iteration by 5.00D-01
 RMSDP=1.16D-04 MaxDP=7.34D-03 DE=-3.29D-04 OVMax= 1.86D-02

 Cycle  15  Pass 1  IDiag  1:
 E= -1227.21726833006     Delta-E=       -0.000258771746 Rises=F Damp=T
 DIIS: error= 1.62D-03 at cycle  15 NSaved=   7.
 NSaved= 7 IEnMin= 7 EnMin= -1227.21726833006     IErMin= 7 ErrMin= 1.62D-03
 ErrMax= 1.62D-03  0.00D+00 EMaxC= 1.00D+00 BMatC= 1.69D-04 BMatP= 1.45D-04
 IDIUse=1 WtCom= 1.00D+00 WtEn= 0.00D+00
 Large coefficients: NSaved=  7 BigCof=   11.88 CofMax=   10.00 Det=-1.93D-07
 Inversion failed.  Reducing to  6 matrices.
 Large coefficients: NSaved=  6 BigCof=   12.83 CofMax=   10.00 Det=-2.10D-07
 Inversion failed.  Reducing to  5 matrices.
 Large coefficients: NSaved=  5 BigCof=   14.12 CofMax=   10.00 Det=-2.60D-07
 Inversion failed.  Reducing to  4 matrices.
 Large coefficients: NSaved=  4 BigCof=   15.47 CofMax=   10.00 Det=-3.57D-07
 Inversion failed.  Reducing to  3 matrices.
 Coeff-Com:  0.180D+01-0.207D+01 0.127D+01
 Coeff:      0.180D+01-0.207D+01 0.127D+01
 Gap=     0.269 Goal=   None    Shift=    0.500
 Gap=     0.084 Goal=   None    Shift=    0.500
 GapD=    0.084 DampG=0.500 DampE=1.000 DampFc=0.5000 IDamp=-1.
 Damping current iteration by 5.00D-01
 RMSDP=6.99D-05 MaxDP=4.64D-03 DE=-2.59D-04 OVMax= 3.61D-03

 Cycle  16  Pass 1  IDiag  1:
 E= -1227.21747437049     Delta-E=       -0.000206040432 Rises=F Damp=T
 DIIS: error= 1.29D-03 at cycle  16 NSaved=   4.
 NSaved= 4 IEnMin= 4 EnMin= -1227.21747437049     IErMin= 4 ErrMin= 1.29D-03
 ErrMax= 1.29D-03  0.00D+00 EMaxC= 1.00D+00 BMatC= 5.32D-05 BMatP= 1.54D-04
 IDIUse=1 WtCom= 1.00D+00 WtEn= 0.00D+00
 Coeff-Com: -0.246D+00-0.263D+01 0.230D+01 0.158D+01
 Coeff:     -0.246D+00-0.263D+01 0.230D+01 0.158D+01
 Gap=     0.266 Goal=   None    Shift=    0.500
 Gap=     0.092 Goal=   None    Shift=    0.500
 GapD=    0.092 DampG=0.500 DampE=1.000 DampFc=0.5000 IDamp=-1.
 Damping current iteration by 5.00D-01
 RMSDP=7.14D-05 MaxDP=4.31D-03 DE=-2.06D-04 OVMax= 1.55D-02

 Cycle  17  Pass 1  IDiag  1:
 E= -1227.21761813315     Delta-E=       -0.000143762653 Rises=F Damp=T
 DIIS: error= 1.16D-03 at cycle  17 NSaved=   5.
 NSaved= 5 IEnMin= 5 EnMin= -1227.21761813315     IErMin= 5 ErrMin= 1.16D-03
 ErrMax= 1.16D-03  0.00D+00 EMaxC= 1.00D+00 BMatC= 4.42D-05 BMatP= 5.32D-05
 IDIUse=1 WtCom= 1.00D+00 WtEn= 0.00D+00
 Coeff-Com: -0.963D+00-0.367D-01 0.113D+00-0.105D+01 0.294D+01
 Coeff:     -0.963D+00-0.367D-01 0.113D+00-0.105D+01 0.294D+01
 Gap=     0.264 Goal=   None    Shift=    0.500
 Gap=     0.093 Goal=   None    Shift=    0.500
 GapD=    0.093 DampG=0.500 DampE=1.000 DampFc=0.5000 IDamp=-1.
 Damping current iteration by 5.00D-01
 RMSDP=9.79D-05 MaxDP=6.43D-03 DE=-1.44D-04 OVMax= 1.45D-02

 Cycle  18  Pass 1  IDiag  1:
 E= -1227.21772184712     Delta-E=       -0.000103713975 Rises=F Damp=T
 DIIS: error= 1.07D-03 at cycle  18 NSaved=   6.
 NSaved= 6 IEnMin= 6 EnMin= -1227.21772184712     IErMin= 6 ErrMin= 1.07D-03
 ErrMax= 1.07D-03  0.00D+00 EMaxC= 1.00D+00 BMatC= 6.01D-05 BMatP= 4.42D-05
 IDIUse=1 WtCom= 1.00D+00 WtEn= 0.00D+00
 Coeff-Com: -0.646D+00 0.122D+01-0.220D+01 0.728D+00-0.159D+01 0.349D+01
 Coeff:     -0.646D+00 0.122D+01-0.220D+01 0.728D+00-0.159D+01 0.349D+01
 Gap=     0.264 Goal=   None    Shift=    0.500
 Gap=     0.093 Goal=   None    Shift=    0.500
 GapD=    0.093 DampG=0.500 DampE=1.000 DampFc=0.5000 IDamp=-1.
 Damping current iteration by 5.00D-01
 RMSDP=8.41D-05 MaxDP=5.49D-03 DE=-1.04D-04 OVMax= 1.20D-02

 Cycle  19  Pass 1  IDiag  1:
 E= -1227.21780897646     Delta-E=       -0.000087129335 Rises=F Damp=T
 DIIS: error= 9.78D-04 at cycle  19 NSaved=   7.
 NSaved= 7 IEnMin= 7 EnMin= -1227.21780897646     IErMin= 7 ErrMin= 9.78D-04
 ErrMax= 9.78D-04  0.00D+00 EMaxC= 1.00D+00 BMatC= 7.77D-05 BMatP= 4.42D-05
 IDIUse=1 WtCom= 1.00D+00 WtEn= 0.00D+00
 Coeff-Com: -0.143D+00 0.798D+00-0.220D+01 0.797D+00-0.286D+00-0.775D+00
 Coeff-Com:  0.281D+01
 Coeff:     -0.143D+00 0.798D+00-0.220D+01 0.797D+00-0.286D+00-0.775D+00
 Coeff:      0.281D+01
 Gap=     0.264 Goal=   None    Shift=    0.500
 Gap=     0.093 Goal=   None    Shift=    0.500
 RMSDP=6.19D-05 MaxDP=3.84D-03 DE=-8.71D-05 OVMax= 9.69D-03

 Cycle  20  Pass 1  IDiag  1:
 E= -1227.21800057126     Delta-E=       -0.000191594802 Rises=F Damp=F
 DIIS: error= 7.54D-04 at cycle  20 NSaved=   8.
 NSaved= 8 IEnMin= 8 EnMin= -1227.21800057126     IErMin= 8 ErrMin= 7.54D-04
 ErrMax= 7.54D-04  0.00D+00 EMaxC= 1.00D+00 BMatC= 7.93D-05 BMatP= 4.42D-05
 IDIUse=1 WtCom= 1.00D+00 WtEn= 0.00D+00
 Coeff-Com: -0.221D+00 0.239D+00-0.764D+00-0.437D+00 0.186D+01 0.251D+00
 Coeff-Com: -0.202D+01 0.210D+01
 Coeff:     -0.221D+00 0.239D+00-0.764D+00-0.437D+00 0.186D+01 0.251D+00
 Coeff:     -0.202D+01 0.210D+01
 Gap=     0.264 Goal=   None    Shift=    0.500
 Gap=     0.093 Goal=   None    Shift=    0.500
 RMSDP=1.42D-05 MaxDP=1.04D-03 DE=-1.92D-04 OVMax= 7.62D-03

 Cycle  21  Pass 1  IDiag  1:
 E= -1227.21803376575     Delta-E=       -0.000033194489 Rises=F Damp=F
 DIIS: error= 6.16D-04 at cycle  21 NSaved=   9.
 NSaved= 9 IEnMin= 9 EnMin= -1227.21803376575     IErMin= 9 ErrMin= 6.16D-04
 ErrMax= 6.16D-04  0.00D+00 EMaxC= 1.00D+00 BMatC= 5.21D-05 BMatP= 4.42D-05
 IDIUse=1 WtCom= 1.00D+00 WtEn= 0.00D+00
 Coeff-Com: -0.609D+00 0.399D+00 0.740D+00-0.163D+01 0.195D+01 0.294D+01
 Coeff-Com: -0.532D+01-0.204D+01 0.456D+01
 Coeff:     -0.609D+00 0.399D+00 0.740D+00-0.163D+01 0.195D+01 0.294D+01
 Coeff:     -0.532D+01-0.204D+01 0.456D+01
 Gap=     0.264 Goal=   None    Shift=    0.500
 Gap=     0.094 Goal=   None    Shift=    0.500
 RMSDP=1.23D-05 MaxDP=8.68D-04 DE=-3.32D-05 OVMax= 6.46D-03

 Cycle  22  Pass 1  IDiag  1:
 E= -1227.21805614308     Delta-E=       -0.000022377330 Rises=F Damp=F
 DIIS: error= 5.07D-04 at cycle  22 NSaved=  10.
 NSaved=10 IEnMin=10 EnMin= -1227.21805614308     IErMin=10 ErrMin= 5.07D-04
 ErrMax= 5.07D-04  0.00D+00 EMaxC= 1.00D+00 BMatC= 3.79D-05 BMatP= 4.42D-05
 IDIUse=1 WtCom= 1.00D+00 WtEn= 0.00D+00
 Coeff-Com: -0.569D+00 0.629D+00 0.285D-01-0.398D+00-0.139D+00 0.183D+01
 Coeff-Com: -0.844D+00-0.397D+01 0.252D+01 0.191D+01
 Coeff:     -0.569D+00 0.629D+00 0.285D-01-0.398D+00-0.139D+00 0.183D+01
 Coeff:     -0.844D+00-0.397D+01 0.252D+01 0.191D+01
 Gap=     0.264 Goal=   None    Shift=    0.500
 Gap=     0.094 Goal=   None    Shift=    0.500
 RMSDP=9.66D-06 MaxDP=6.91D-04 DE=-2.24D-05 OVMax= 5.23D-03

 Cycle  23  Pass 1  IDiag  1:
 E= -1227.21807114375     Delta-E=       -0.000015000667 Rises=F Damp=F
 DIIS: error= 4.11D-04 at cycle  23 NSaved=  11.
 NSaved=11 IEnMin=11 EnMin= -1227.21807114375     IErMin=11 ErrMin= 4.11D-04
 ErrMax= 4.11D-04  0.00D+00 EMaxC= 1.00D+00 BMatC= 2.62D-05 BMatP= 3.79D-05
 IDIUse=1 WtCom= 1.00D+00 WtEn= 0.00D+00
 Coeff-Com: -0.195D+00 0.454D+00-0.880D+00 0.619D+00-0.964D+00-0.249D+00
 Coeff-Com:  0.274D+01-0.219D+01-0.539D+00 0.142D+00 0.206D+01
 Coeff:     -0.195D+00 0.454D+00-0.880D+00 0.619D+00-0.964D+00-0.249D+00
 Coeff:      0.274D+01-0.219D+01-0.539D+00 0.142D+00 0.206D+01
 Gap=     0.264 Goal=   None    Shift=    0.500
 Gap=     0.094 Goal=   None    Shift=    0.500
 RMSDP=7.71D-06 MaxDP=6.39D-04 DE=-1.50D-05 OVMax= 4.18D-03

 Cycle  24  Pass 1  IDiag  1:
 E= -1227.21808093514     Delta-E=       -0.000009791394 Rises=F Damp=F
 DIIS: error= 3.30D-04 at cycle  24 NSaved=  12.
 NSaved=12 IEnMin=12 EnMin= -1227.21808093514     IErMin=12 ErrMin= 3.30D-04
 ErrMax= 3.30D-04  0.00D+00 EMaxC= 1.00D+00 BMatC= 1.81D-05 BMatP= 2.62D-05
 IDIUse=1 WtCom= 1.00D+00 WtEn= 0.00D+00
 Coeff-Com:  0.213D+00-0.115D+00-0.745D+00 0.251D+00 0.155D+00-0.766D+00
 Coeff-Com:  0.148D+01 0.113D+01-0.163D+01-0.142D+01-0.312D+00 0.276D+01
 Coeff:      0.213D+00-0.115D+00-0.745D+00 0.251D+00 0.155D+00-0.766D+00
 Coeff:      0.148D+01 0.113D+01-0.163D+01-0.142D+01-0.312D+00 0.276D+01
 Gap=     0.264 Goal=   None    Shift=    0.500
 Gap=     0.094 Goal=   None    Shift=    0.500
 RMSDP=5.93D-06 MaxDP=5.57D-04 DE=-9.79D-06 OVMax= 3.22D-03

 Cycle  25  Pass 1  IDiag  1:
 E= -1227.21808742842     Delta-E=       -0.000006493277 Rises=F Damp=F
 DIIS: error= 2.63D-04 at cycle  25 NSaved=  13.
 NSaved=13 IEnMin=13 EnMin= -1227.21808742842     IErMin=13 ErrMin= 2.63D-04
 ErrMax= 2.63D-04  0.00D+00 EMaxC= 1.00D+00 BMatC= 1.19D-05 BMatP= 1.81D-05
 IDIUse=1 WtCom= 1.00D+00 WtEn= 0.00D+00
 Coeff-Com:  0.188D+00-0.369D+00 0.623D-02-0.332D+00 0.876D+00-0.532D-01
 Coeff-Com: -0.724D+00 0.124D+01-0.732D-01-0.109D+01-0.152D+01 0.533D+00
 Coeff-Com:  0.232D+01
 Coeff:      0.188D+00-0.369D+00 0.623D-02-0.332D+00 0.876D+00-0.532D-01
 Coeff:     -0.724D+00 0.124D+01-0.732D-01-0.109D+01-0.152D+01 0.533D+00
 Coeff:      0.232D+01
 Gap=     0.264 Goal=   None    Shift=    0.500
 Gap=     0.094 Goal=   None    Shift=    0.500
 RMSDP=4.66D-06 MaxDP=4.65D-04 DE=-6.49D-06 OVMax= 2.48D-03

 Cycle  26  Pass 1  IDiag  1:
 E= -1227.21809170095     Delta-E=       -0.000004272529 Rises=F Damp=F
 DIIS: error= 2.06D-04 at cycle  26 NSaved=  14.
 NSaved=14 IEnMin=14 EnMin= -1227.21809170095     IErMin=14 ErrMin= 2.06D-04
 ErrMax= 2.06D-04  0.00D+00 EMaxC= 1.00D+00 BMatC= 7.45D-06 BMatP= 1.19D-05
 IDIUse=1 WtCom= 1.00D+00 WtEn= 0.00D+00
 Coeff-Com: -0.415D-02-0.119D+00 0.972D-01-0.266D+00 0.511D+00 0.120D+00
 Coeff-Com: -0.498D+00-0.260D-01 0.737D+00-0.316D+00-0.772D+00-0.733D+00
 Coeff-Com:  0.188D+00 0.208D+01
 Coeff:     -0.415D-02-0.119D+00 0.972D-01-0.266D+00 0.511D+00 0.120D+00
 Coeff:     -0.498D+00-0.260D-01 0.737D+00-0.316D+00-0.772D+00-0.733D+00
 Coeff:      0.188D+00 0.208D+01
 Gap=     0.264 Goal=   None    Shift=    0.500
 Gap=     0.094 Goal=   None    Shift=    0.500
 RMSDP=3.46D-06 MaxDP=3.28D-04 DE=-4.27D-06 OVMax= 1.95D-03

 Cycle  27  Pass 1  IDiag  1:
 E= -1227.21809433019     Delta-E=       -0.000002629246 Rises=F Damp=F
 DIIS: error= 1.61D-04 at cycle  27 NSaved=  15.
 NSaved=15 IEnMin=15 EnMin= -1227.21809433019     IErMin=15 ErrMin= 1.61D-04
 ErrMax= 1.61D-04  0.00D+00 EMaxC= 1.00D+00 BMatC= 4.63D-06 BMatP= 7.45D-06
 IDIUse=1 WtCom= 1.00D+00 WtEn= 0.00D+00
 Coeff-Com: -0.567D-01 0.150D+00-0.246D+00 0.650D-01-0.220D-01-0.272D+00
 Coeff-Com:  0.708D+00-0.433D+00 0.269D-01-0.185D-01 0.353D+00-0.146D-01
 Coeff-Com: -0.156D+01 0.166D+00 0.216D+01
 Coeff:     -0.567D-01 0.150D+00-0.246D+00 0.650D-01-0.220D-01-0.272D+00
 Coeff:      0.708D+00-0.433D+00 0.269D-01-0.185D-01 0.353D+00-0.146D-01
 Coeff:     -0.156D+01 0.166D+00 0.216D+01
 Gap=     0.264 Goal=   None    Shift=    0.500
 Gap=     0.094 Goal=   None    Shift=    0.500
 RMSDP=2.67D-06 MaxDP=2.48D-04 DE=-2.63D-06 OVMax= 1.53D-03

 Cycle  28  Pass 1  IDiag  1:
 E= -1227.21809594745     Delta-E=       -0.000001617259 Rises=F Damp=F
 DIIS: error= 1.25D-04 at cycle  28 NSaved=  16.
 NSaved=16 IEnMin=16 EnMin= -1227.21809594745     IErMin=16 ErrMin= 1.25D-04
 ErrMax= 1.25D-04  0.00D+00 EMaxC= 1.00D+00 BMatC= 2.88D-06 BMatP= 4.63D-06
 IDIUse=1 WtCom= 1.00D+00 WtEn= 0.00D+00
 Coeff-Com:  0.187D-01 0.139D+00-0.403D+00 0.170D+00-0.154D+00-0.304D+00
 Coeff-Com:  0.871D+00 0.128D+00-0.756D+00-0.212D+00 0.363D+00 0.109D+01
 Coeff-Com: -0.619D+00-0.147D+01-0.807D+00 0.294D+01
 Coeff:      0.187D-01 0.139D+00-0.403D+00 0.170D+00-0.154D+00-0.304D+00
 Coeff:      0.871D+00 0.128D+00-0.756D+00-0.212D+00 0.363D+00 0.109D+01
 Coeff:     -0.619D+00-0.147D+01-0.807D+00 0.294D+01
 Gap=     0.264 Goal=   None    Shift=    0.500
 Gap=     0.093 Goal=   None    Shift=    0.500
 RMSDP=2.04D-06 MaxDP=1.76D-04 DE=-1.62D-06 OVMax= 1.17D-03

 Cycle  29  Pass 1  IDiag  1:
 E= -1227.21809691543     Delta-E=       -0.000000967983 Rises=F Damp=F
 DIIS: error= 9.82D-05 at cycle  29 NSaved=  17.
 NSaved=17 IEnMin=17 EnMin= -1227.21809691543     IErMin=17 ErrMin= 9.82D-05
 ErrMax= 9.82D-05  0.00D+00 EMaxC= 1.00D+00 BMatC= 1.81D-06 BMatP= 2.88D-06
 IDIUse=1 WtCom= 1.00D+00 WtEn= 0.00D+00
 Coeff-Com:  0.700D-01-0.160D+00-0.804D-02 0.171D-01 0.132D+00-0.155D+00
 Coeff-Com:  0.152D+00 0.339D+00-0.354D+00-0.370D+00-0.226D+00 0.649D+00
 Coeff-Com:  0.780D+00-0.461D+00-0.200D+01-0.625D-02 0.260D+01
 Coeff:      0.700D-01-0.160D+00-0.804D-02 0.171D-01 0.132D+00-0.155D+00
 Coeff:      0.152D+00 0.339D+00-0.354D+00-0.370D+00-0.226D+00 0.649D+00
 Coeff:      0.780D+00-0.461D+00-0.200D+01-0.625D-02 0.260D+01
 Gap=     0.264 Goal=   None    Shift=    0.500
 Gap=     0.093 Goal=   None    Shift=    0.500
 RMSDP=1.54D-06 MaxDP=1.31D-04 DE=-9.68D-07 OVMax= 9.00D-04

 Cycle  30  Pass 1  IDiag  1:
 E= -1227.21809749831     Delta-E=       -0.000000582878 Rises=F Damp=F
 DIIS: error= 7.66D-05 at cycle  30 NSaved=  18.
 NSaved=18 IEnMin=18 EnMin= -1227.21809749831     IErMin=18 ErrMin= 7.66D-05
 ErrMax= 7.66D-05  0.00D+00 EMaxC= 1.00D+00 BMatC= 1.12D-06 BMatP= 1.81D-06
 IDIUse=1 WtCom= 1.00D+00 WtEn= 0.00D+00
 Coeff-Com:  0.482D-01-0.156D+00 0.774D-01-0.392D-01 0.199D+00-0.144D+00
 Coeff-Com: -0.151D-01 0.197D+00 0.531D-02-0.277D+00-0.372D+00 0.274D+00
 Coeff-Com:  0.561D+00 0.172D+00-0.708D+00-0.706D+00-0.828D+00 0.271D+01
 Coeff:      0.482D-01-0.156D+00 0.774D-01-0.392D-01 0.199D+00-0.144D+00
 Coeff:     -0.151D-01 0.197D+00 0.531D-02-0.277D+00-0.372D+00 0.274D+00
 Coeff:      0.561D+00 0.172D+00-0.708D+00-0.706D+00-0.828D+00 0.271D+01
 Gap=     0.264 Goal=   None    Shift=    0.500
 Gap=     0.093 Goal=   None    Shift=    0.500
 RMSDP=1.20D-06 MaxDP=1.02D-04 DE=-5.83D-07 OVMax= 7.00D-04

 Cycle  31  Pass 1  IDiag  1:
 E= -1227.21809784939     Delta-E=       -0.000000351080 Rises=F Damp=F
 DIIS: error= 5.91D-05 at cycle  31 NSaved=  19.
 NSaved=19 IEnMin=19 EnMin= -1227.21809784939     IErMin=19 ErrMin= 5.91D-05
 ErrMax= 5.91D-05  0.00D+00 EMaxC= 1.00D+00 BMatC= 6.82D-07 BMatP= 1.12D-06
 IDIUse=1 WtCom= 1.00D+00 WtEn= 0.00D+00
 Coeff-Com: -0.120D-01 0.708D-01-0.114D+00-0.364D-01 0.695D-01-0.644D-01
 Coeff-Com:  0.144D+00-0.937D-01 0.108D+00-0.551D-01-0.123D+00 0.170D+00
 Coeff-Com: -0.274D+00 0.621D-01 0.678D+00 0.394D+00-0.224D+01-0.784D+00
 Coeff-Com:  0.310D+01
 Coeff:     -0.120D-01 0.708D-01-0.114D+00-0.364D-01 0.695D-01-0.644D-01
 Coeff:      0.144D+00-0.937D-01 0.108D+00-0.551D-01-0.123D+00 0.170D+00
 Coeff:     -0.274D+00 0.621D-01 0.678D+00 0.394D+00-0.224D+01-0.784D+00
 Coeff:      0.310D+01
 Gap=     0.264 Goal=   None    Shift=    0.500
 Gap=     0.093 Goal=   None    Shift=    0.500
 RMSDP=9.34D-07 MaxDP=9.02D-05 DE=-3.51D-07 OVMax= 5.45D-04

 SCF Done:  E(ULC-wHPBE) =  -1227.21809785     A.U. after   31 cycles
            NFock= 31  Conv=0.93D-06     -V/T= 2.0039
 <Sx>= 0.0000 <Sy>= 0.0000 <Sz>= 0.5000 <S**2>= 0.7741 S= 0.5120
 <L.S>= 0.000000000000E+00
 KE= 1.222439166040D+03 PE=-7.931995216851D+03 EE= 2.908394057774D+03
 Annihilation of the first spin contaminant:
 S**2 before annihilation     0.7741,   after     0.7504
 Leave Link  502 at Tue Jan 26 10:05:50 2021, MaxMem=  4026531840 cpu:           19588.5 elap:            2477.1
 (Enter /opt/ohpc/pub/libs/gaussian/g16-A.03/sandybridge/g16/l508.exe)
 QCSCF skips out because SCF is already converged.
 Leave Link  508 at Tue Jan 26 10:05:50 2021, MaxMem=  4026531840 cpu:               0.0 elap:               0.0
 (Enter /opt/ohpc/pub/libs/gaussian/g16-A.03/sandybridge/g16/l601.exe)
 Copying SCF densities to generalized density rwf, IOpCl= 1 IROHF=0.

 **********************************************************************

            Population analysis using the SCF density.

 **********************************************************************

 Orbital symmetries:
 Alpha Orbitals:
       Occupied  (A) (A) (A) (A) (A) (A) (A) (A) (A) (A) (A) (A)
                 (A) (A) (A) (A) (A) (A) (A) (A) (A) (A) (A) (A)
                 (A) (A) (A) (A) (A) (A) (A) (A) (A) (A) (A) (A)
                 (A) (A) (A) (A) (A) (A) (A) (A) (A) (A) (A) (A)
                 (A) (A) (A) (A) (A) (A) (A) (A) (A) (A) (A) (A)
                 (A) (A) (A) (A) (A) (A) (A) (A) (A) (A) (A) (A)
                 (A) (A) (A) (A) (A) (A) (A) (A) (A) (A) (A) (A)
                 (A) (A) (A) (A) (A) (A) (A) (A) (A) (A) (A) (A)
                 (A) (A) (A) (A) (A) (A) (A) (A) (A) (A) (A)
       Virtual   (A) (A) (A) (A) (A) (A) (A) (A) (A) (A) (A) (A)
                 (A) (A) (A) (A) (A) (A) (A) (A) (A) (A) (A) (A)
                 (A) (A) (A) (A) (A) (A) (A) (A) (A) (A) (A) (A)
                 (A) (A) (A) (A) (A) (A) (A) (A) (A) (A) (A) (A)
                 (A) (A) (A) (A) (A) (A) (A) (A) (A) (A) (A) (A)
                 (A) (A) (A) (A) (A) (A) (A) (A) (A) (A) (A) (A)
                 (A) (A) (A) (A) (A) (A) (A) (A) (A) (A) (A) (A)
                 (A) (A) (A) (A) (A) (A) (A) (A) (A) (A) (A) (A)
                 (A) (A) (A) (A) (A) (A) (A) (A) (A) (A) (A) (A)
                 (A) (A) (A) (A) (A) (A) (A) (A) (A) (A) (A) (A)
                 (A) (A) (A) (A) (A) (A) (A) (A) (A) (A) (A) (A)
                 (A) (A) (A) (A) (A) (A) (A) (A) (A) (A) (A) (A)
                 (A) (A) (A) (A) (A) (A) (A) (A) (A) (A) (A) (A)
                 (A) (A) (A) (A) (A) (A) (A) (A) (A) (A) (A) (A)
                 (A) (A) (A) (A) (A) (A) (A) (A) (A) (A) (A) (A)
                 (A) (A) (A) (A) (A) (A) (A) (A) (A) (A) (A) (A)
                 (A) (A) (A) (A) (A) (A) (A) (A) (A) (A) (A) (A)
                 (A) (A) (A) (A) (A) (A) (A) (A) (A) (A) (A) (A)
                 (A) (A) (A) (A) (A) (A) (A) (A) (A) (A) (A) (A)
                 (A) (A) (A) (A) (A) (A) (A) (A) (A) (A) (A) (A)
                 (A) (A) (A) (A) (A) (A) (A) (A) (A) (A) (A) (A)
                 (A) (A) (A) (A) (A) (A) (A) (A) (A) (A) (A) (A)
                 (A) (A) (A) (A) (A) (A) (A) (A) (A) (A) (A) (A)
                 (A) (A) (A) (A) (A) (A) (A) (A) (A) (A) (A) (A)
                 (A) (A) (A) (A) (A) (A) (A) (A) (A) (A) (A) (A)
                 (A) (A) (A) (A) (A) (A) (A) (A) (A) (A) (A) (A)
                 (A) (A) (A) (A) (A) (A) (A) (A) (A) (A) (A) (A)
                 (A) (A) (A) (A) (A) (A) (A) (A) (A) (A) (A) (A)
                 (A) (A) (A) (A) (A) (A) (A) (A) (A) (A) (A) (A)
                 (A) (A) (A) (A) (A) (A) (A) (A) (A) (A) (A) (A)
                 (A) (A) (A) (A) (A) (A) (A) (A) (A) (A) (A) (A)
                 (A) (A) (A) (A) (A) (A) (A) (A) (A) (A) (A) (A)
                 (A) (A) (A) (A) (A) (A) (A) (A) (A) (A) (A) (A)
                 (A) (A) (A) (A) (A) (A) (A) (A) (A) (A) (A) (A)
                 (A) (A) (A) (A) (A) (A) (A) (A) (A) (A) (A) (A)
                 (A) (A) (A) (A) (A) (A) (A) (A) (A) (A) (A) (A)
                 (A) (A) (A) (A) (A) (A) (A) (A) (A) (A) (A) (A)
                 (A) (A) (A) (A) (A) (A) (A) (A) (A) (A) (A) (A)
                 (A) (A) (A) (A) (A) (A) (A) (A) (A) (A) (A) (A)
                 (A) (A) (A) (A) (A) (A) (A) (A) (A) (A) (A) (A)
                 (A) (A) (A) (A) (A) (A) (A) (A) (A) (A) (A) (A)
                 (A) (A) (A) (A) (A) (A) (A) (A) (A) (A) (A) (A)
                 (A) (A) (A) (A) (A) (A) (A) (A) (A) (A) (A) (A)
                 (A) (A) (A) (A) (A) (A) (A) (A) (A) (A) (A) (A)
                 (A) (A) (A) (A) (A) (A) (A) (A) (A) (A) (A) (A)
                 (A) (A) (A) (A) (A) (A) (A) (A) (A) (A) (A) (A)
                 (A) (A) (A) (A) (A) (A) (A) (A) (A) (A) (A) (A)
                 (A) (A) (A) (A) (A) (A) (A) (A) (A) (A) (A) (A)
                 (A) (A) (A) (A) (A) (A) (A) (A) (A) (A) (A) (A)
                 (A) (A) (A) (A) (A) (A) (A) (A) (A) (A) (A) (A)
                 (A) (A) (A) (A) (A) (A) (A) (A) (A) (A) (A) (A)
                 (A) (A) (A) (A) (A) (A) (A) (A) (A) (A) (A) (A)
                 (A) (A) (A) (A) (A) (A) (A) (A) (A) (A) (A) (A)
                 (A) (A) (A) (A) (A) (A) (A) (A) (A) (A) (A) (A)
                 (A) (A) (A) (A) (A) (A) (A)
 Beta  Orbitals:
       Occupied  (A) (A) (A) (A) (A) (A) (A) (A) (A) (A) (A) (A)
                 (A) (A) (A) (A) (A) (A) (A) (A) (A) (A) (A) (A)
                 (A) (A) (A) (A) (A) (A) (A) (A) (A) (A) (A) (A)
                 (A) (A) (A) (A) (A) (A) (A) (A) (A) (A) (A) (A)
                 (A) (A) (A) (A) (A) (A) (A) (A) (A) (A) (A) (A)
                 (A) (A) (A) (A) (A) (A) (A) (A) (A) (A) (A) (A)
                 (A) (A) (A) (A) (A) (A) (A) (A) (A) (A) (A) (A)
                 (A) (A) (A) (A) (A) (A) (A) (A) (A) (A) (A) (A)
                 (A) (A) (A) (A) (A) (A) (A) (A) (A) (A)
       Virtual   (A) (A) (A) (A) (A) (A) (A) (A) (A) (A) (A) (A)
                 (A) (A) (A) (A) (A) (A) (A) (A) (A) (A) (A) (A)
                 (A) (A) (A) (A) (A) (A) (A) (A) (A) (A) (A) (A)
                 (A) (A) (A) (A) (A) (A) (A) (A) (A) (A) (A) (A)
                 (A) (A) (A) (A) (A) (A) (A) (A) (A) (A) (A) (A)
                 (A) (A) (A) (A) (A) (A) (A) (A) (A) (A) (A) (A)
                 (A) (A) (A) (A) (A) (A) (A) (A) (A) (A) (A) (A)
                 (A) (A) (A) (A) (A) (A) (A) (A) (A) (A) (A) (A)
                 (A) (A) (A) (A) (A) (A) (A) (A) (A) (A) (A) (A)
                 (A) (A) (A) (A) (A) (A) (A) (A) (A) (A) (A) (A)
                 (A) (A) (A) (A) (A) (A) (A) (A) (A) (A) (A) (A)
                 (A) (A) (A) (A) (A) (A) (A) (A) (A) (A) (A) (A)
                 (A) (A) (A) (A) (A) (A) (A) (A) (A) (A) (A) (A)
                 (A) (A) (A) (A) (A) (A) (A) (A) (A) (A) (A) (A)
                 (A) (A) (A) (A) (A) (A) (A) (A) (A) (A) (A) (A)
                 (A) (A) (A) (A) (A) (A) (A) (A) (A) (A) (A) (A)
                 (A) (A) (A) (A) (A) (A) (A) (A) (A) (A) (A) (A)
                 (A) (A) (A) (A) (A) (A) (A) (A) (A) (A) (A) (A)
                 (A) (A) (A) (A) (A) (A) (A) (A) (A) (A) (A) (A)
                 (A) (A) (A) (A) (A) (A) (A) (A) (A) (A) (A) (A)
                 (A) (A) (A) (A) (A) (A) (A) (A) (A) (A) (A) (A)
                 (A) (A) (A) (A) (A) (A) (A) (A) (A) (A) (A) (A)
                 (A) (A) (A) (A) (A) (A) (A) (A) (A) (A) (A) (A)
                 (A) (A) (A) (A) (A) (A) (A) (A) (A) (A) (A) (A)
                 (A) (A) (A) (A) (A) (A) (A) (A) (A) (A) (A) (A)
                 (A) (A) (A) (A) (A) (A) (A) (A) (A) (A) (A) (A)
                 (A) (A) (A) (A) (A) (A) (A) (A) (A) (A) (A) (A)
                 (A) (A) (A) (A) (A) (A) (A) (A) (A) (A) (A) (A)
                 (A) (A) (A) (A) (A) (A) (A) (A) (A) (A) (A) (A)
                 (A) (A) (A) (A) (A) (A) (A) (A) (A) (A) (A) (A)
                 (A) (A) (A) (A) (A) (A) (A) (A) (A) (A) (A) (A)
                 (A) (A) (A) (A) (A) (A) (A) (A) (A) (A) (A) (A)
                 (A) (A) (A) (A) (A) (A) (A) (A) (A) (A) (A) (A)
                 (A) (A) (A) (A) (A) (A) (A) (A) (A) (A) (A) (A)
                 (A) (A) (A) (A) (A) (A) (A) (A) (A) (A) (A) (A)
                 (A) (A) (A) (A) (A) (A) (A) (A) (A) (A) (A) (A)
                 (A) (A) (A) (A) (A) (A) (A) (A) (A) (A) (A) (A)
                 (A) (A) (A) (A) (A) (A) (A) (A) (A) (A) (A) (A)
                 (A) (A) (A) (A) (A) (A) (A) (A) (A) (A) (A) (A)
                 (A) (A) (A) (A) (A) (A) (A) (A) (A) (A) (A) (A)
                 (A) (A) (A) (A) (A) (A) (A) (A) (A) (A) (A) (A)
                 (A) (A) (A) (A) (A) (A) (A) (A) (A) (A) (A) (A)
                 (A) (A) (A) (A) (A) (A) (A) (A) (A) (A) (A) (A)
                 (A) (A) (A) (A) (A) (A) (A) (A) (A) (A) (A) (A)
                 (A) (A) (A) (A) (A) (A) (A) (A) (A) (A) (A) (A)
                 (A) (A) (A) (A) (A) (A) (A) (A) (A) (A) (A) (A)
                 (A) (A) (A) (A) (A) (A) (A) (A) (A) (A) (A) (A)
                 (A) (A) (A) (A) (A) (A) (A) (A) (A) (A) (A) (A)
                 (A) (A) (A) (A) (A) (A) (A) (A) (A) (A) (A) (A)
                 (A) (A) (A) (A) (A) (A) (A) (A) (A) (A) (A) (A)
                 (A) (A) (A) (A) (A) (A) (A) (A) (A) (A) (A) (A)
                 (A) (A) (A) (A) (A) (A) (A) (A) (A) (A) (A) (A)
                 (A) (A) (A) (A) (A) (A) (A) (A) (A) (A) (A) (A)
                 (A) (A) (A) (A) (A) (A) (A) (A) (A) (A) (A) (A)
                 (A) (A) (A) (A) (A) (A) (A) (A)
 The electronic state is 2-A.
 Alpha  occ. eigenvalues --  -14.46522 -14.46520 -14.46517 -14.46515 -10.38574
 Alpha  occ. eigenvalues --  -10.38570 -10.38537 -10.38533 -10.35039 -10.35035
 Alpha  occ. eigenvalues --  -10.33902 -10.33900 -10.32776 -10.32762 -10.30728
 Alpha  occ. eigenvalues --  -10.30726 -10.30725 -10.30724 -10.30539 -10.30538
 Alpha  occ. eigenvalues --  -10.30538 -10.30536 -10.30526 -10.30526 -10.30523
 Alpha  occ. eigenvalues --  -10.30523 -10.30152 -10.30151 -10.30149 -10.30148
 Alpha  occ. eigenvalues --   -1.34353  -1.34349  -1.31353  -1.31350  -1.26545
 Alpha  occ. eigenvalues --   -1.26532  -1.23216  -1.21376  -1.15391  -1.10748
 Alpha  occ. eigenvalues --   -1.10707  -1.10052  -1.06934  -1.06819  -1.06495
 Alpha  occ. eigenvalues --   -1.06488  -1.05776  -1.05772  -1.04800  -1.04612
 Alpha  occ. eigenvalues --   -1.01744  -0.98602  -0.96591  -0.96127  -0.91835
 Alpha  occ. eigenvalues --   -0.91450  -0.89518  -0.89412  -0.89347  -0.89019
 Alpha  occ. eigenvalues --   -0.87140  -0.85616  -0.85294  -0.84940  -0.84785
 Alpha  occ. eigenvalues --   -0.84165  -0.83960  -0.83092  -0.82341  -0.82337
 Alpha  occ. eigenvalues --   -0.81898  -0.80368  -0.79972  -0.78632  -0.78384
 Alpha  occ. eigenvalues --   -0.77992  -0.77791  -0.77152  -0.76488  -0.76420
 Alpha  occ. eigenvalues --   -0.75603  -0.75488  -0.75367  -0.74982  -0.74238
 Alpha  occ. eigenvalues --   -0.74029  -0.73894  -0.73891  -0.73822  -0.73317
 Alpha  occ. eigenvalues --   -0.73306  -0.72965  -0.72947  -0.71899  -0.71751
 Alpha  occ. eigenvalues --   -0.71024  -0.70944  -0.69920  -0.69692  -0.66783
 Alpha  occ. eigenvalues --   -0.65444  -0.65438  -0.63240  -0.63102  -0.63017
 Alpha  occ. eigenvalues --   -0.58746  -0.57677
 Alpha virt. eigenvalues --   -0.31322  -0.27673  -0.25866  -0.25850  -0.21432
 Alpha virt. eigenvalues --   -0.20966  -0.20961  -0.19626  -0.18671  -0.18664
 Alpha virt. eigenvalues --   -0.14956  -0.14877  -0.14599  -0.14091  -0.13314
 Alpha virt. eigenvalues --   -0.13008  -0.12728  -0.12719  -0.11993  -0.11992
 Alpha virt. eigenvalues --   -0.11801  -0.11766  -0.11404  -0.11132  -0.10974
 Alpha virt. eigenvalues --   -0.10796  -0.10311  -0.09865  -0.09824  -0.09578
 Alpha virt. eigenvalues --   -0.08845  -0.08578  -0.08482  -0.08355  -0.08256
 Alpha virt. eigenvalues --   -0.07654  -0.07557  -0.07124  -0.07110  -0.07016
 Alpha virt. eigenvalues --   -0.06797  -0.06729  -0.06610  -0.06476  -0.06442
 Alpha virt. eigenvalues --   -0.05620  -0.05556  -0.05370  -0.04937  -0.04115
 Alpha virt. eigenvalues --   -0.04036  -0.03791  -0.02960  -0.02807  -0.02729
 Alpha virt. eigenvalues --   -0.02320  -0.02051  -0.02030  -0.01966  -0.01685
 Alpha virt. eigenvalues --   -0.01465  -0.00810  -0.00759  -0.00516   0.00751
 Alpha virt. eigenvalues --    0.00909   0.01052   0.01495   0.01638   0.02526
 Alpha virt. eigenvalues --    0.02573   0.02629   0.03070   0.03156   0.03272
 Alpha virt. eigenvalues --    0.03844   0.04351   0.05386   0.05434   0.05534
 Alpha virt. eigenvalues --    0.05784   0.05941   0.06968   0.07049   0.07682
 Alpha virt. eigenvalues --    0.08156   0.08248   0.08486   0.08578   0.09277
 Alpha virt. eigenvalues --    0.09278   0.09681   0.09694   0.10539   0.10586
 Alpha virt. eigenvalues --    0.10681   0.10963   0.11043   0.11575   0.11625
 Alpha virt. eigenvalues --    0.11664   0.12057   0.12872   0.12969   0.13504
 Alpha virt. eigenvalues --    0.13655   0.14113   0.14181   0.14950   0.14974
 Alpha virt. eigenvalues --    0.15447   0.15652   0.16963   0.17282   0.17319
 Alpha virt. eigenvalues --    0.17934   0.18023   0.18120   0.18280   0.18358
 Alpha virt. eigenvalues --    0.18660   0.20169   0.20899   0.21100   0.21283
 Alpha virt. eigenvalues --    0.21901   0.22366   0.22534   0.22640   0.22652
 Alpha virt. eigenvalues --    0.23348   0.23375   0.23618   0.23887   0.23956
 Alpha virt. eigenvalues --    0.24108   0.24411   0.24806   0.24852   0.25323
 Alpha virt. eigenvalues --    0.25464   0.25780   0.25837   0.26414   0.26493
 Alpha virt. eigenvalues --    0.26555   0.27033   0.27130   0.27331   0.27334
 Alpha virt. eigenvalues --    0.27679   0.27907   0.28208   0.28233   0.28678
 Alpha virt. eigenvalues --    0.28985   0.29035   0.29379   0.30029   0.30198
 Alpha virt. eigenvalues --    0.31109   0.31240   0.31603   0.31627   0.31741
 Alpha virt. eigenvalues --    0.31960   0.32117   0.32145   0.32907   0.33172
 Alpha virt. eigenvalues --    0.34435   0.34524   0.35159   0.35238   0.35755
 Alpha virt. eigenvalues --    0.36682   0.36748   0.37349   0.37579   0.38173
 Alpha virt. eigenvalues --    0.38370   0.38426   0.38956   0.40257   0.41238
 Alpha virt. eigenvalues --    0.41421   0.41520   0.42322   0.43097   0.43101
 Alpha virt. eigenvalues --    0.43599   0.43852   0.44202   0.44431   0.44973
 Alpha virt. eigenvalues --    0.44982   0.46437   0.46578   0.46697   0.47230
 Alpha virt. eigenvalues --    0.48401   0.48778   0.48856   0.49212   0.50334
 Alpha virt. eigenvalues --    0.50920   0.51231   0.51918   0.52313   0.52383
 Alpha virt. eigenvalues --    0.53504   0.53592   0.55192   0.55220   0.57221
 Alpha virt. eigenvalues --    0.58257   0.58438   0.60815   0.61588   0.61614
 Alpha virt. eigenvalues --    0.62124   0.62799   0.65677   0.67494   0.67681
 Alpha virt. eigenvalues --    0.67751   0.76684   0.90628   0.90840   0.90963
 Alpha virt. eigenvalues --    0.91005   0.92635   0.96397   0.97073   0.98016
 Alpha virt. eigenvalues --    0.98143   0.98691   0.98964   0.99732   1.00094
 Alpha virt. eigenvalues --    1.00138   1.00157   1.00367   1.01401   1.02784
 Alpha virt. eigenvalues --    1.03030   1.03133   1.03557   1.03845   1.03950
 Alpha virt. eigenvalues --    1.04217   1.04536   1.04625   1.05144   1.05481
 Alpha virt. eigenvalues --    1.05806   1.06377   1.08347   1.08818   1.08969
 Alpha virt. eigenvalues --    1.08998   1.09380   1.09545   1.10438   1.10444
 Alpha virt. eigenvalues --    1.11080   1.11232   1.11473   1.11485   1.11531
 Alpha virt. eigenvalues --    1.11863   1.12705   1.12733   1.13205   1.13425
 Alpha virt. eigenvalues --    1.13964   1.14162   1.14182   1.14211   1.14846
 Alpha virt. eigenvalues --    1.14912   1.16147   1.16441   1.16451   1.16745
 Alpha virt. eigenvalues --    1.17483   1.18043   1.19678   1.19847   1.19891
 Alpha virt. eigenvalues --    1.20655   1.21390   1.21404   1.21637   1.21753
 Alpha virt. eigenvalues --    1.21911   1.21973   1.22300   1.22570   1.22634
 Alpha virt. eigenvalues --    1.23788   1.23944   1.23988   1.24896   1.25036
 Alpha virt. eigenvalues --    1.25102   1.25260   1.25938   1.25982   1.25996
 Alpha virt. eigenvalues --    1.26487   1.27564   1.27858   1.29079   1.29112
 Alpha virt. eigenvalues --    1.29126   1.29309   1.29776   1.29933   1.30163
 Alpha virt. eigenvalues --    1.30237   1.30738   1.31186   1.31408   1.31806
 Alpha virt. eigenvalues --    1.32233   1.32295   1.32493   1.32925   1.33633
 Alpha virt. eigenvalues --    1.33846   1.34376   1.34723   1.34734   1.35497
 Alpha virt. eigenvalues --    1.37355   1.37619   1.37940   1.38380   1.38459
 Alpha virt. eigenvalues --    1.38510   1.39696   1.40961   1.41012   1.41176
 Alpha virt. eigenvalues --    1.41414   1.41884   1.41961   1.42192   1.42815
 Alpha virt. eigenvalues --    1.43404   1.44135   1.44612   1.45630   1.45656
 Alpha virt. eigenvalues --    1.46283   1.47085   1.48216   1.49112   1.49175
 Alpha virt. eigenvalues --    1.49580   1.49835   1.50812   1.51842   1.51859
 Alpha virt. eigenvalues --    1.51971   1.52491   1.53297   1.53317   1.54025
 Alpha virt. eigenvalues --    1.54336   1.54524   1.54590   1.54750   1.54860
 Alpha virt. eigenvalues --    1.55263   1.55339   1.55672   1.55727   1.55966
 Alpha virt. eigenvalues --    1.56048   1.56073   1.56632   1.57257   1.57321
 Alpha virt. eigenvalues --    1.57730   1.57738   1.58625   1.58631   1.58717
 Alpha virt. eigenvalues --    1.59164   1.60606   1.60705   1.61834   1.61981
 Alpha virt. eigenvalues --    1.62117   1.62296   1.62367   1.64286   1.64609
 Alpha virt. eigenvalues --    1.64862   1.64864   1.65385   1.65721   1.66319
 Alpha virt. eigenvalues --    1.66451   1.67703   1.68001   1.68332   1.68520
 Alpha virt. eigenvalues --    1.70074   1.70455   1.71820   1.73636   1.73783
 Alpha virt. eigenvalues --    1.76122   1.76271   1.77826   1.78224   1.79219
 Alpha virt. eigenvalues --    1.79368   1.79874   1.80969   1.81188   1.81196
 Alpha virt. eigenvalues --    1.81708   1.81710   1.86202   1.86379   1.86508
 Alpha virt. eigenvalues --    1.86686   1.87237   1.87839   1.89457   1.90465
 Alpha virt. eigenvalues --    1.90794   1.91633   1.92406   1.92586   1.92638
 Alpha virt. eigenvalues --    1.93291   1.93852   1.95983   1.96525   1.97170
 Alpha virt. eigenvalues --    1.97362   1.98329   2.01845   2.03025   2.04095
 Alpha virt. eigenvalues --    2.04117   2.04140   2.04481   2.04612   2.05302
 Alpha virt. eigenvalues --    2.05641   2.05685   2.05863   2.06369   2.07040
 Alpha virt. eigenvalues --    2.07111   2.07386   2.07554   2.08075   2.08444
 Alpha virt. eigenvalues --    2.08919   2.09301   2.09547   2.10286   2.10801
 Alpha virt. eigenvalues --    2.10851   2.11045   2.11540   2.11683   2.11788
 Alpha virt. eigenvalues --    2.12081   2.12092   2.12565   2.13023   2.13425
 Alpha virt. eigenvalues --    2.13705   2.14029   2.19657   2.20740   2.20860
 Alpha virt. eigenvalues --    2.21007   2.21288   2.22161   2.22406   2.22589
 Alpha virt. eigenvalues --    2.22808   2.26026   2.27330   2.27672   2.27884
 Alpha virt. eigenvalues --    2.28061   2.28481   2.28754   2.29379   2.29395
 Alpha virt. eigenvalues --    2.30407   2.30479   2.30840   2.31088   2.31788
 Alpha virt. eigenvalues --    2.32095   2.33676   2.33978   2.33985   2.34299
 Alpha virt. eigenvalues --    2.34771   2.35681   2.35865   2.36379   2.36511
 Alpha virt. eigenvalues --    2.37527   2.38259   2.39642   2.39881   2.40292
 Alpha virt. eigenvalues --    2.41188   2.41452   2.41852   2.42062   2.43451
 Alpha virt. eigenvalues --    2.43547   2.43647   2.44715   2.45006   2.46213
 Alpha virt. eigenvalues --    2.47364   2.47453   2.48640   2.48830   2.49765
 Alpha virt. eigenvalues --    2.49927   2.50319   2.50407   2.50667   2.51986
 Alpha virt. eigenvalues --    2.52117   2.53587   2.53685   2.53977   2.55767
 Alpha virt. eigenvalues --    2.55886   2.56659   2.57750   2.58209   2.60700
 Alpha virt. eigenvalues --    2.61693   2.61747   2.62615   2.62799   2.64213
 Alpha virt. eigenvalues --    2.64340   2.70098   2.70276   2.75171   2.75269
 Alpha virt. eigenvalues --    2.76361   2.76533   2.78368   2.79056   2.80821
 Alpha virt. eigenvalues --    2.81468   2.83447   2.86255   2.86357   2.86622
 Alpha virt. eigenvalues --    2.87711   2.87743   2.88749   2.88873   2.89951
 Alpha virt. eigenvalues --    2.90267   2.90369   2.91067   2.91940   2.92634
 Alpha virt. eigenvalues --    2.96877   2.97350   2.97700   2.97714   3.00024
 Alpha virt. eigenvalues --    3.01819   3.03136   3.05829   3.05954   3.06472
 Alpha virt. eigenvalues --    3.06698   3.06761   3.07213   3.07244   3.07396
 Alpha virt. eigenvalues --    3.07730   3.09113   3.09155   3.09789   3.10777
 Alpha virt. eigenvalues --    3.12460   3.12496   3.13056   3.14251   3.15540
 Alpha virt. eigenvalues --    3.16065   3.16467   3.18698   3.19262   3.19529
 Alpha virt. eigenvalues --    3.19551   3.20864   3.21133   3.32069   3.33629
 Alpha virt. eigenvalues --    3.39306   3.44798   3.47155   3.47651   3.56122
 Alpha virt. eigenvalues --    3.56595   3.56665   3.60760   3.72755   3.72873
 Alpha virt. eigenvalues --   20.92834  21.04610  21.24231  21.24541  21.29483
 Alpha virt. eigenvalues --   21.41362  21.42683  21.44865  21.52968  21.53887
 Alpha virt. eigenvalues --   21.53981  21.58395  21.60830  21.68613  21.70052
 Alpha virt. eigenvalues --   21.70503  21.71614  21.73084  21.74200  21.74296
 Alpha virt. eigenvalues --   21.81976  21.84652  21.91325  21.92285  21.95183
 Alpha virt. eigenvalues --   21.95435  31.37709  31.38012  31.52127  31.52392
  Beta  occ. eigenvalues --  -14.46306 -14.46304 -14.46302 -14.46300 -10.38589
  Beta  occ. eigenvalues --  -10.38586 -10.38552 -10.38549 -10.35033 -10.35029
  Beta  occ. eigenvalues --  -10.33722 -10.33720 -10.32649 -10.32634 -10.30737
  Beta  occ. eigenvalues --  -10.30736 -10.30735 -10.30734 -10.30531 -10.30530
  Beta  occ. eigenvalues --  -10.30528 -10.30527 -10.30477 -10.30476 -10.30475
  Beta  occ. eigenvalues --  -10.30474 -10.30157 -10.30156 -10.30154 -10.30153
  Beta  occ. eigenvalues --   -1.34131  -1.34128  -1.31049  -1.31046  -1.26268
  Beta  occ. eigenvalues --   -1.26255  -1.22931  -1.21120  -1.15028  -1.10657
  Beta  occ. eigenvalues --   -1.10311  -1.09979  -1.06882  -1.06753  -1.06444
  Beta  occ. eigenvalues --   -1.06437  -1.05728  -1.05724  -1.04739  -1.04530
  Beta  occ. eigenvalues --   -1.01667  -0.98434  -0.96443  -0.95931  -0.91742
  Beta  occ. eigenvalues --   -0.91356  -0.89393  -0.89282  -0.89236  -0.88898
  Beta  occ. eigenvalues --   -0.87052  -0.85391  -0.84969  -0.84852  -0.84590
  Beta  occ. eigenvalues --   -0.84082  -0.83842  -0.82954  -0.81943  -0.81940
  Beta  occ. eigenvalues --   -0.81679  -0.80236  -0.79871  -0.78596  -0.78153
  Beta  occ. eigenvalues --   -0.77648  -0.77604  -0.77061  -0.76401  -0.76310
  Beta  occ. eigenvalues --   -0.75564  -0.75447  -0.74925  -0.74672  -0.74100
  Beta  occ. eigenvalues --   -0.73869  -0.73785  -0.73781  -0.73680  -0.73286
  Beta  occ. eigenvalues --   -0.73277  -0.72881  -0.72488  -0.71860  -0.71723
  Beta  occ. eigenvalues --   -0.70921  -0.70871  -0.69859  -0.69570  -0.65410
  Beta  occ. eigenvalues --   -0.64590  -0.64587  -0.62956  -0.62900  -0.60534
  Beta  occ. eigenvalues --   -0.55070
  Beta virt. eigenvalues --   -0.45726  -0.30753  -0.26860  -0.25438  -0.25262
  Beta virt. eigenvalues --   -0.20829  -0.20483  -0.20480  -0.18963  -0.18616
  Beta virt. eigenvalues --   -0.18611  -0.14927  -0.14840  -0.14576  -0.14052
  Beta virt. eigenvalues --   -0.13270  -0.12945  -0.12654  -0.12640  -0.11957
  Beta virt. eigenvalues --   -0.11879  -0.11721  -0.11552  -0.11360  -0.11074
  Beta virt. eigenvalues --   -0.10938  -0.10754  -0.10256  -0.09726  -0.09657
  Beta virt. eigenvalues --   -0.09448  -0.08800  -0.08522  -0.08417  -0.08312
  Beta virt. eigenvalues --   -0.08206  -0.07542  -0.07490  -0.07021  -0.06998
  Beta virt. eigenvalues --   -0.06889  -0.06734  -0.06664  -0.06506  -0.06385
  Beta virt. eigenvalues --   -0.06280  -0.05569  -0.05511  -0.05263  -0.04831
  Beta virt. eigenvalues --   -0.04049  -0.03982  -0.03731  -0.02909  -0.02757
  Beta virt. eigenvalues --   -0.02618  -0.02266  -0.01975  -0.01932  -0.01869
  Beta virt. eigenvalues --   -0.01608  -0.01411  -0.00768  -0.00718  -0.00394
  Beta virt. eigenvalues --    0.00800   0.00955   0.01158   0.01547   0.01691
  Beta virt. eigenvalues --    0.02611   0.02705   0.02707   0.03179   0.03252
  Beta virt. eigenvalues --    0.03367   0.03917   0.04444   0.05452   0.05495
  Beta virt. eigenvalues --    0.05629   0.05867   0.05996   0.07050   0.07169
  Beta virt. eigenvalues --    0.07818   0.08239   0.08360   0.08639   0.08644
  Beta virt. eigenvalues --    0.09351   0.09419   0.09756   0.09764   0.10644
  Beta virt. eigenvalues --    0.10689   0.10762   0.11040   0.11090   0.11660
  Beta virt. eigenvalues --    0.11716   0.11746   0.12181   0.12966   0.13026
  Beta virt. eigenvalues --    0.13700   0.13819   0.14223   0.14318   0.15033
  Beta virt. eigenvalues --    0.15058   0.15550   0.15745   0.17039   0.17345
  Beta virt. eigenvalues --    0.17394   0.18046   0.18106   0.18160   0.18405
  Beta virt. eigenvalues --    0.18451   0.18759   0.20288   0.21103   0.21222
  Beta virt. eigenvalues --    0.21371   0.21989   0.22497   0.22608   0.22731
  Beta virt. eigenvalues --    0.22752   0.23408   0.23420   0.23714   0.23940
  Beta virt. eigenvalues --    0.24016   0.24199   0.24514   0.24913   0.24919
  Beta virt. eigenvalues --    0.25419   0.25553   0.25899   0.25900   0.26514
  Beta virt. eigenvalues --    0.26574   0.26638   0.27127   0.27228   0.27390
  Beta virt. eigenvalues --    0.27407   0.27773   0.27966   0.28290   0.28323
  Beta virt. eigenvalues --    0.28740   0.29091   0.29110   0.29457   0.30117
  Beta virt. eigenvalues --    0.30292   0.31182   0.31323   0.31700   0.31706
  Beta virt. eigenvalues --    0.31868   0.32117   0.32215   0.32283   0.32999
  Beta virt. eigenvalues --    0.33257   0.34513   0.34633   0.35213   0.35329
  Beta virt. eigenvalues --    0.35810   0.36787   0.36858   0.37427   0.37648
  Beta virt. eigenvalues --    0.38262   0.38432   0.38530   0.39052   0.40305
  Beta virt. eigenvalues --    0.41350   0.41482   0.41650   0.42436   0.43209
  Beta virt. eigenvalues --    0.43214   0.43677   0.43954   0.44300   0.44544
  Beta virt. eigenvalues --    0.45072   0.45099   0.46483   0.46694   0.46771
  Beta virt. eigenvalues --    0.47373   0.48525   0.48862   0.48940   0.49268
  Beta virt. eigenvalues --    0.50424   0.51018   0.51333   0.51976   0.52416
  Beta virt. eigenvalues --    0.52454   0.53537   0.53632   0.55298   0.55358
  Beta virt. eigenvalues --    0.57296   0.58365   0.58552   0.60920   0.61644
  Beta virt. eigenvalues --    0.61700   0.62205   0.62858   0.65765   0.67545
  Beta virt. eigenvalues --    0.67755   0.67836   0.76828   0.90720   0.90938
[...]
    49   Atom        0.000405     -0.000045     -0.000882
    50   Atom       -0.000405     -0.000166     -0.000627
    51   Atom        0.000307      0.001596      0.002939
    52   Atom       -0.000537      0.001675     -0.001019
    53   Atom       -0.001671     -0.000928      0.000563
    54   Atom        0.001067      0.000118     -0.000771
    55   Atom       -0.001994      0.000361      0.002221
    56   Atom       -0.000344      0.000314     -0.001863
    57   Atom       -0.000404      0.000044     -0.000882
    58   Atom        0.000405      0.000166     -0.000630
    59   Atom       -0.000306     -0.001596      0.002937
    60   Atom        0.000539     -0.001675     -0.001020
    61   Atom        0.001670      0.000930      0.000565
    62   Atom       -0.001068     -0.000120     -0.000770
 --------------------------------------------------------


 ---------------------------------------------------------------------------------
              Anisotropic Spin Dipole Couplings in Principal Axis System
 ---------------------------------------------------------------------------------

       Atom             a.u.   MegaHertz   Gauss  10(-4) cm-1        Axes

              Baa    -0.0146    -1.954    -0.697    -0.652 -0.5753  0.7615  0.2984
     1 C(13)  Bbb     0.0007     0.100     0.036     0.033  0.0991 -0.2973  0.9496
              Bcc     0.0138     1.854     0.661     0.618  0.8119  0.5760  0.0955
 
              Baa    -0.0788   -10.572    -3.772    -3.526  0.0000 -0.4223  0.9064
     2 C(13)  Bbb    -0.0750   -10.070    -3.593    -3.359  1.0000  0.0000  0.0000
              Bcc     0.1538    20.642     7.366     6.885 -0.0000  0.9064  0.4223
 
              Baa    -0.0309    -4.141    -1.478    -1.381  0.9428 -0.1176 -0.3119
     3 C(13)  Bbb    -0.0272    -3.654    -1.304    -1.219  0.2145 -0.5023  0.8377
              Bcc     0.0581     7.795     2.781     2.600  0.2552  0.8567  0.4483
 
              Baa    -0.0146    -1.953    -0.697    -0.652  0.5754  0.7614  0.2984
     4 C(13)  Bbb     0.0007     0.100     0.036     0.033 -0.0992 -0.2973  0.9496
              Bcc     0.0138     1.853     0.661     0.618  0.8118 -0.5761 -0.0955
 
              Baa    -0.0611    -8.195    -2.924    -2.734 -0.0000 -0.2352  0.9720
     5 C(13)  Bbb    -0.0568    -7.620    -2.719    -2.542  1.0000  0.0000  0.0000
              Bcc     0.1179    15.815     5.643     5.275 -0.0000  0.9720  0.2352
 
              Baa    -0.0309    -4.140    -1.477    -1.381  0.9428  0.1176  0.3119
     6 C(13)  Bbb    -0.0272    -3.652    -1.303    -1.218 -0.2145 -0.5023  0.8377
              Bcc     0.0581     7.792     2.781     2.599 -0.2552  0.8567  0.4483
 
              Baa    -0.0033    -1.738    -0.620    -0.580  0.5419  0.7946  0.2737
     7 H(1)   Bbb    -0.0030    -1.578    -0.563    -0.526  0.8217 -0.5694  0.0261
              Bcc     0.0062     3.316     1.183     1.106 -0.1766 -0.2108  0.9615
 
              Baa    -0.0026    -1.372    -0.489    -0.457 -0.0429  0.8807  0.4717
     8 H(1)   Bbb    -0.0005    -0.266    -0.095    -0.089  0.9963  0.0025  0.0859
              Bcc     0.0031     1.638     0.584     0.546 -0.0745 -0.4737  0.8776
 
              Baa    -0.0033    -1.738    -0.620    -0.580 -0.5413  0.7951  0.2736
     9 H(1)   Bbb    -0.0030    -1.578    -0.563    -0.526  0.8221  0.5687 -0.0263
              Bcc     0.0062     3.315     1.183     1.106  0.1765 -0.2107  0.9615
 
              Baa    -0.0610    -8.189    -2.922    -2.732 -0.0000  0.2346  0.9721
    10 C(13)  Bbb    -0.0567    -7.614    -2.717    -2.540  1.0000  0.0000  0.0000
              Bcc     0.1178    15.803     5.639     5.271 -0.0000  0.9721 -0.2346
 
              Baa    -0.0309    -4.141    -1.478    -1.381  0.9428  0.1176 -0.3121
    11 C(13)  Bbb    -0.0272    -3.654    -1.304    -1.219  0.2147  0.5019  0.8379
              Bcc     0.0581     7.795     2.781     2.600 -0.2552  0.8569 -0.4479
 
              Baa    -0.0309    -4.143    -1.478    -1.382  0.9428 -0.1176  0.3119
    12 C(13)  Bbb    -0.0272    -3.655    -1.304    -1.219 -0.2146  0.5019  0.8379
              Bcc     0.0581     7.798     2.782     2.601  0.2551  0.8569 -0.4479
 
              Baa    -0.0146    -1.955    -0.698    -0.652  0.5748  0.7620 -0.2982
    13 C(13)  Bbb     0.0008     0.102     0.036     0.034  0.0992  0.2969  0.9497
              Bcc     0.0138     1.853     0.661     0.618  0.8122 -0.5755  0.0950
 
              Baa    -0.0146    -1.956    -0.698    -0.652 -0.5745  0.7622 -0.2983
    14 C(13)  Bbb     0.0008     0.103     0.037     0.034 -0.0993  0.2968  0.9498
              Bcc     0.0138     1.853     0.661     0.618  0.8125  0.5752 -0.0948
 
              Baa    -0.0788   -10.569    -3.771    -3.525  0.0001  0.4219  0.9066
    15 C(13)  Bbb    -0.0750   -10.067    -3.592    -3.358  1.0000 -0.0000 -0.0001
              Bcc     0.1538    20.636     7.364     6.884 -0.0000  0.9066 -0.4219
 
              Baa    -0.0033    -1.737    -0.620    -0.580 -0.5413  0.7952 -0.2732
    16 H(1)   Bbb    -0.0030    -1.578    -0.563    -0.526  0.8221  0.5688  0.0265
              Bcc     0.0062     3.315     1.183     1.106 -0.1765  0.2102  0.9616
 
              Baa    -0.0033    -1.738    -0.620    -0.580  0.5419  0.7948 -0.2733
    17 H(1)   Bbb    -0.0030    -1.578    -0.563    -0.526  0.8217 -0.5693 -0.0265
              Bcc     0.0062     3.316     1.183     1.106  0.1767  0.2102  0.9616
 
              Baa    -0.0026    -1.371    -0.489    -0.457 -0.0428  0.8809 -0.4714
    18 H(1)   Bbb    -0.0005    -0.265    -0.095    -0.088  0.9963  0.0025 -0.0858
              Bcc     0.0031     1.636     0.584     0.546  0.0744  0.4733  0.8778
 
              Baa    -0.0026    -1.371    -0.489    -0.457  0.0428  0.8809 -0.4713
    19 H(1)   Bbb    -0.0005    -0.265    -0.095    -0.088  0.9963 -0.0026  0.0855
              Bcc     0.0031     1.636     0.584     0.546 -0.0741  0.4732  0.8778
 
              Baa    -0.0026    -1.372    -0.489    -0.458  0.0428  0.8807  0.4717
    20 H(1)   Bbb    -0.0005    -0.266    -0.095    -0.089  0.9963 -0.0024 -0.0858
              Bcc     0.0031     1.638     0.584     0.546  0.0744 -0.4737  0.8775
 
              Baa    -0.0107    -1.441    -0.514    -0.481 -0.0000  0.6810  0.7323
    21 C(13)  Bbb     0.0013     0.173     0.062     0.058  1.0000 -0.0000  0.0000
              Bcc     0.0094     1.268     0.452     0.423  0.0000  0.7323 -0.6810
 
              Baa    -0.0192    -2.575    -0.919    -0.859  0.4603 -0.4217  0.7812
    22 C(13)  Bbb     0.0032     0.426     0.152     0.142  0.5342  0.8344  0.1357
              Bcc     0.0160     2.149     0.767     0.717  0.7091 -0.3549 -0.6093
 
              Baa    -0.0192    -2.574    -0.918    -0.859 -0.4604 -0.4220  0.7810
    23 C(13)  Bbb     0.0032     0.424     0.151     0.142 -0.5347  0.8341  0.1355
              Bcc     0.0160     2.150     0.767     0.717  0.7087  0.3552  0.6096
 
              Baa    -0.1353    -5.217    -1.862    -1.740 -0.1198  0.8454  0.5205
    24 N(14)  Bbb    -0.1344    -5.184    -1.850    -1.729  0.9923  0.1184  0.0361
              Bcc     0.2697    10.401     3.711     3.469  0.0311 -0.5208  0.8531
 
              Baa    -0.1353    -5.218    -1.862    -1.740  0.1195  0.8455  0.5205
    25 N(14)  Bbb    -0.1344    -5.185    -1.850    -1.729  0.9923 -0.1182 -0.0358
              Bcc     0.2697    10.402     3.712     3.470 -0.0313 -0.5208  0.8531
 
              Baa    -0.0040    -0.537    -0.192    -0.179  0.8951 -0.3817 -0.2304
    26 C(13)  Bbb    -0.0001    -0.008    -0.003    -0.003  0.4007  0.4619  0.7913
              Bcc     0.0041     0.545     0.194     0.182  0.1956  0.8006 -0.5664
 
              Baa    -0.0018    -0.944    -0.337    -0.315 -0.1931  0.8704 -0.4530
    27 H(1)   Bbb    -0.0010    -0.521    -0.186    -0.174  0.9742  0.1149 -0.1945
              Bcc     0.0027     1.465     0.523     0.489  0.1173  0.4788  0.8701
 
              Baa    -0.0020    -1.073    -0.383    -0.358  0.0351 -0.4243  0.9048
    28 H(1)   Bbb     0.0002     0.113     0.040     0.038 -0.2503  0.8728  0.4190
              Bcc     0.0018     0.960     0.342     0.320  0.9675  0.2412  0.0756
 
              Baa    -0.0019    -1.022    -0.365    -0.341 -0.1757 -0.1569  0.9719
    29 H(1)   Bbb    -0.0006    -0.341    -0.122    -0.114  0.9774  0.0898  0.1912
              Bcc     0.0026     1.363     0.486     0.455 -0.1172  0.9835  0.1376
 
              Baa    -0.0044    -0.586    -0.209    -0.195  0.0817  0.8843  0.4598
    30 C(13)  Bbb     0.0004     0.054     0.019     0.018  0.8562 -0.2984  0.4217
              Bcc     0.0040     0.532     0.190     0.177 -0.5101 -0.3592  0.7815
 
              Baa    -0.0018    -0.986    -0.352    -0.329 -0.1896  0.7830 -0.5924
    31 H(1)   Bbb    -0.0008    -0.428    -0.153    -0.143  0.6163  0.5646  0.5490
              Bcc     0.0027     1.414     0.505     0.472  0.7644 -0.2610 -0.5896
 
              Baa    -0.0017    -0.889    -0.317    -0.296 -0.1665  0.1968  0.9662
    32 H(1)   Bbb    -0.0013    -0.672    -0.240    -0.224  0.5081  0.8569 -0.0870
              Bcc     0.0029     1.561     0.557     0.521  0.8450 -0.4765  0.2427
 
              Baa    -0.0018    -0.937    -0.334    -0.312  0.2271 -0.6135  0.7563
    33 H(1)   Bbb    -0.0002    -0.129    -0.046    -0.043 -0.3631  0.6672  0.6503
              Bcc     0.0020     1.065     0.380     0.355  0.9036  0.4224  0.0712
 
              Baa    -0.0040    -0.538    -0.192    -0.179  0.8951  0.3815  0.2310
    34 C(13)  Bbb    -0.0001    -0.008    -0.003    -0.003 -0.4011  0.4623  0.7909
              Bcc     0.0041     0.546     0.195     0.182 -0.1949  0.8005 -0.5667
 
              Baa    -0.0018    -0.943    -0.337    -0.315  0.1930  0.8706 -0.4525
    35 H(1)   Bbb    -0.0010    -0.522    -0.186    -0.174  0.9741 -0.1146  0.1951
              Bcc     0.0027     1.466     0.523     0.489 -0.1180  0.4784  0.8702
 
              Baa    -0.0020    -1.073    -0.383    -0.358 -0.0355 -0.4235  0.9052
    36 H(1)   Bbb     0.0002     0.113     0.040     0.038  0.2498  0.8733  0.4183
              Bcc     0.0018     0.960     0.343     0.320  0.9676 -0.2410 -0.0748
 
              Baa    -0.0019    -1.023    -0.365    -0.341  0.1749 -0.1573  0.9719
    37 H(1)   Bbb    -0.0006    -0.341    -0.122    -0.114  0.9775 -0.0905 -0.1906
              Bcc     0.0026     1.364     0.487     0.455  0.1179  0.9834  0.1380
 
              Baa    -0.0044    -0.586    -0.209    -0.195 -0.0814  0.8847  0.4590
    38 C(13)  Bbb     0.0004     0.055     0.020     0.018  0.8566  0.2975 -0.4215
              Bcc     0.0040     0.531     0.189     0.177  0.5095 -0.3589  0.7821
 
              Baa    -0.0018    -0.986    -0.352    -0.329  0.1905  0.7798 -0.5963
    39 H(1)   Bbb    -0.0008    -0.429    -0.153    -0.143  0.6156 -0.5680 -0.5462
              Bcc     0.0027     1.415     0.505     0.472  0.7647  0.2630  0.5883
 
              Baa    -0.0017    -0.887    -0.317    -0.296  0.1663  0.2016  0.9652
    40 H(1)   Bbb    -0.0013    -0.673    -0.240    -0.225 -0.5076  0.8567 -0.0915
              Bcc     0.0029     1.561     0.557     0.521  0.8454  0.4748 -0.2448
 
              Baa    -0.0018    -0.938    -0.335    -0.313 -0.2284 -0.6124  0.7568
    41 H(1)   Bbb    -0.0002    -0.128    -0.046    -0.043  0.3627  0.6679  0.6499
              Bcc     0.0020     1.066     0.380     0.356  0.9035 -0.4229 -0.0696
 
              Baa    -0.0108    -1.443    -0.515    -0.481  0.0000 -0.6814  0.7319
    42 C(13)  Bbb     0.0013     0.172     0.061     0.057  1.0000  0.0001  0.0001
              Bcc     0.0095     1.271     0.454     0.424 -0.0001  0.7319  0.6814
 
              Baa    -0.0192    -2.577    -0.919    -0.859 -0.4601  0.4218  0.7813
    43 C(13)  Bbb     0.0032     0.425     0.152     0.142  0.5349  0.8340 -0.1352
              Bcc     0.0160     2.151     0.768     0.718  0.7087 -0.3557  0.6094
 
              Baa    -0.0192    -2.576    -0.919    -0.859  0.4600  0.4219  0.7813
    44 C(13)  Bbb     0.0032     0.425     0.152     0.142 -0.5352  0.8339 -0.1351
              Bcc     0.0160     2.151     0.768     0.717  0.7085  0.3559 -0.6094
 
              Baa    -0.1354    -5.223    -1.864    -1.742 -0.1202  0.8454 -0.5204
    45 N(14)  Bbb    -0.1346    -5.190    -1.852    -1.731  0.9923  0.1188 -0.0362
              Bcc     0.2700    10.413     3.715     3.473 -0.0312  0.5207  0.8532
 
              Baa    -0.1354    -5.223    -1.864    -1.742  0.1202  0.8454 -0.5204
    46 N(14)  Bbb    -0.1346    -5.190    -1.852    -1.731  0.9923 -0.1188  0.0363
              Bcc     0.2700    10.412     3.715     3.473  0.0311  0.5207  0.8532
 
              Baa    -0.0040    -0.538    -0.192    -0.179  0.8951 -0.3815  0.2306
    47 C(13)  Bbb    -0.0001    -0.008    -0.003    -0.003 -0.4008 -0.4622  0.7910
              Bcc     0.0041     0.546     0.195     0.182  0.1952  0.8005  0.5666
 
              Baa    -0.0018    -0.944    -0.337    -0.315 -0.1935  0.8703  0.4529
    48 H(1)   Bbb    -0.0010    -0.522    -0.186    -0.174  0.9741  0.1151  0.1949
              Bcc     0.0027     1.467     0.523     0.489 -0.1175 -0.4789  0.8700
 
              Baa    -0.0020    -1.074    -0.383    -0.358 -0.0352  0.4238  0.9051
    49 H(1)   Bbb     0.0002     0.113     0.040     0.038 -0.2507  0.8729 -0.4185
              Bcc     0.0018     0.961     0.343     0.320  0.9674  0.2417 -0.0755
 
              Baa    -0.0019    -1.024    -0.365    -0.341  0.1756  0.1569  0.9719
    50 H(1)   Bbb    -0.0006    -0.341    -0.122    -0.114  0.9774  0.0901 -0.1911
              Bcc     0.0026     1.365     0.487     0.455 -0.1175  0.9835 -0.1375
 
              Baa    -0.0044    -0.586    -0.209    -0.196  0.0815  0.8845 -0.4594
    51 C(13)  Bbb     0.0004     0.054     0.019     0.018  0.8566 -0.2977 -0.4213
              Bcc     0.0040     0.532     0.190     0.177  0.5094  0.3592  0.7819
 
              Baa    -0.0018    -0.987    -0.352    -0.329 -0.1900  0.7817  0.5940
    52 H(1)   Bbb    -0.0008    -0.429    -0.153    -0.143  0.6159  0.5661 -0.5479
              Bcc     0.0027     1.416     0.505     0.472  0.7646 -0.2617  0.5890
 
              Baa    -0.0017    -0.889    -0.317    -0.297  0.1665 -0.1987  0.9658
    53 H(1)   Bbb    -0.0013    -0.673    -0.240    -0.225  0.5079  0.8568  0.0887
              Bcc     0.0029     1.562     0.557     0.521  0.8451 -0.4758 -0.2436
 
              Baa    -0.0018    -0.938    -0.335    -0.313 -0.2275  0.6130  0.7566
    54 H(1)   Bbb    -0.0002    -0.129    -0.046    -0.043 -0.3632  0.6675 -0.6500
              Bcc     0.0020     1.067     0.381     0.356  0.9035  0.4227 -0.0708
 
              Baa    -0.0040    -0.538    -0.192    -0.180  0.8950  0.3816 -0.2309
    55 C(13)  Bbb    -0.0001    -0.008    -0.003    -0.003  0.4012 -0.4625  0.7906
              Bcc     0.0041     0.546     0.195     0.182 -0.1949  0.8003  0.5671
 
              Baa    -0.0018    -0.944    -0.337    -0.315  0.1932  0.8706  0.4525
    56 H(1)   Bbb    -0.0010    -0.523    -0.186    -0.174  0.9740 -0.1147 -0.1952
              Bcc     0.0027     1.467     0.523     0.489  0.1181 -0.4784  0.8701
 
              Baa    -0.0020    -1.074    -0.383    -0.358  0.0353  0.4234  0.9052
    57 H(1)   Bbb     0.0002     0.113     0.040     0.038  0.2502  0.8732 -0.4182
              Bcc     0.0018     0.961     0.343     0.321  0.9676 -0.2412  0.0751
 
              Baa    -0.0019    -1.024    -0.365    -0.341 -0.1750  0.1573  0.9719
    58 H(1)   Bbb    -0.0006    -0.341    -0.122    -0.114  0.9775 -0.0902  0.1906
              Bcc     0.0026     1.365     0.487     0.455  0.1177  0.9834 -0.1380
 
              Baa    -0.0044    -0.586    -0.209    -0.196 -0.0815  0.8847 -0.4590
    59 C(13)  Bbb     0.0004     0.054     0.019     0.018  0.8566  0.2976  0.4215
              Bcc     0.0040     0.532     0.190     0.177 -0.5095  0.3589  0.7821
 
              Baa    -0.0018    -0.987    -0.352    -0.329  0.1902  0.7806  0.5954
    60 H(1)   Bbb    -0.0008    -0.429    -0.153    -0.143  0.6158 -0.5672  0.5468
              Bcc     0.0027     1.416     0.505     0.472  0.7646  0.2626 -0.5886
 
              Baa    -0.0017    -0.889    -0.317    -0.296 -0.1664 -0.2005  0.9655
    61 H(1)   Bbb    -0.0013    -0.674    -0.240    -0.225 -0.5078  0.8567  0.0904
              Bcc     0.0029     1.562     0.557     0.521  0.8452  0.4753  0.2443
 
              Baa    -0.0018    -0.938    -0.335    -0.313  0.2281  0.6126  0.7567
    62 H(1)   Bbb    -0.0002    -0.128    -0.046    -0.043  0.3629  0.6678 -0.6499
              Bcc     0.0020     1.067     0.381     0.356  0.9035 -0.4228  0.0700
 

 ---------------------------------------------------------------------------------

 No NMR shielding tensors so no spin-rotation constants.
 Leave Link  601 at Tue Jan 26 10:05:52 2021, MaxMem=  4026531840 cpu:               9.6 elap:               1.3
 (Enter /opt/ohpc/pub/libs/gaussian/g16-A.03/sandybridge/g16/l9999.exe)

 Test job not archived.
 1\1\GINC-CNODE145\SP\ULC-wHPBE\TZVP\C26H32N4(3+,2)\RDU230\26-Jan-2021\
 0\\#P LC-wHPBE/TZVP iop(3/107=0201400000, 3/108=0201400000) scf=(conve
 r=6,fermi,ndamp=35,noincfock,novaracc,vshift=500,xqc)\\H32 C26 N4\\3,2
 \C,0,-2.823961,0.444264,1.111805\C,0,-3.524911,0.0001,0.000001\C,0,-1.
 447297,0.438089,1.110761\C,0,-2.823968,-0.444049,-1.11184\C,0,-0.74021
 8,0.000107,-0.000031\C,0,-1.447325,-0.43786,-1.11083\H,0,-0.914462,0.7
 97765,1.980986\H,0,-3.355363,-0.783593,-1.991035\H,0,-0.914491,-0.7974
 9,-1.981076\C,0,0.740229,0.000109,-0.000016\C,0,1.447379,0.437502,-1.1
 10991\C,0,1.447259,-0.437322,1.111037\C,0,2.824033,0.443666,-1.111944\
 C,0,2.823909,-0.443539,1.112143\C,0,3.52491,0.000034,0.000126\H,0,0.91
 4614,0.796709,-1.981454\H,0,0.914365,-0.796519,1.981427\H,0,3.355477,0
 .782802,-1.991269\H,0,3.355249,-0.782652,1.991539\H,0,-3.355316,0.7838
 24,1.991014\C,0,4.975135,0.000032,0.000145\C,0,6.14652,-0.565054,0.408
 043\C,0,6.146453,0.56505,-0.408017\N,0,6.78098,-1.491697,1.066857\N,0,
 6.780843,1.491604,-1.067037\C,0,6.057956,-2.591048,1.684578\H,0,6.1547
 08,-2.5451,2.768364\H,0,5.008879,-2.544629,1.410837\H,0,6.464629,-3.53
 7319,1.332266\C,0,8.228734,-1.518275,1.186143\H,0,8.494477,-1.775383,2
 .209103\H,0,8.659441,-2.259109,0.51335\H,0,8.642938,-0.539771,0.968827
 \C,0,6.05773,2.591089,-1.684422\H,0,6.153192,2.544651,-2.768303\H,0,5.
 008941,2.545387,-1.409434\H,0,6.465326,3.537274,-1.332961\C,0,8.228631
 ,1.518112,-1.186291\H,0,8.494234,1.779605,-2.208151\H,0,8.659838,2.255
 827,-0.510389\H,0,8.642467,0.538433,-0.973542\C,0,-4.975109,0.000078,0
 .000026\C,0,-6.146534,0.56508,0.407916\C,0,-6.146403,-0.565147,-0.4079
 45\N,0,-6.781069,1.491701,1.066705\N,0,-6.780732,-1.491927,-1.0667\C,0
 ,-6.058202,2.591312,1.684129\H,0,-6.154554,2.545406,2.767953\H,0,-5.00
 9205,2.545245,1.410016\H,0,-6.465319,3.537423,1.331906\C,0,-8.228858,1
 .518145,1.185797\H,0,-8.494704,1.776946,2.208295\H,0,-8.659724,2.25773
 5,0.511728\H,0,-8.642813,0.539154,0.970202\C,0,-6.057561,-2.59137,-1.6
 84106\H,0,-6.153074,-2.544964,-2.767982\H,0,-5.008776,-2.545628,-1.409
 122\H,0,-6.465122,-3.537559,-1.33261\C,0,-8.228499,-1.518584,-1.185941
 \H,0,-8.494145,-1.779106,-2.208049\H,0,-8.65952,-2.25704,-0.510729\H,0
 ,-8.642516,-0.539209,-0.97216\\Version=EM64L-G16RevA.03\State=2-A\HF=-
 1227.2180978\S2=0.774132\S2-1=0.\S2A=0.750395\RMSD=9.341e-07\Dipole=-0
 .0027484,-0.0000438,-0.0000311\Quadrupole=271.7914167,-131.5946884,-14
 0.1967283,0.0012529,0.0002566,0.0031773\PG=C01 [X(C26H32N4)]\\@


 BLESSED ARE THOSE WHO NOUGHT EXPECT,
 FOR THEY SHALL NOT BE DISAPPOINTED..  WALCOT - ODE TO PITT
 Job cpu time:       0 days  5 hours 28 minutes 23.0 seconds.
 Elapsed time:       0 days  0 hours 41 minutes 31.7 seconds.
 File lengths (MBytes):  RWF=    332 Int=      0 D2E=      0 Chk=     48 Scr=      8
 Normal termination of Gaussian 16 at Tue Jan 26 10:05:52 2021.
