 Entering Gaussian System, Link 0=g16
 Input=mol_bp_cp_whol_tune_n9.gjf
 Output=mol_bp_cp_whol_tune_n9.log
 Initial command:
 /opt/ohpc/pub/libs/gaussian/g16-A.03/sandybridge/g16/l1.exe "/mnt/gpfs2_4m/scratch/rdu230/ondemand/projects/init_structures/gaussian/wtuning/mol_bp_cp_whol/tuning_mol_bp_cp_whol_ocycle0/Gau-67811.inp" -scrdir="/mnt/gpfs2_4m/scratch/rdu230/ondemand/projects/init_structures/gaussian/wtuning/mol_bp_cp_whol/tuning_mol_bp_cp_whol_ocycle0/"
 Entering Link 1 = /opt/ohpc/pub/libs/gaussian/g16-A.03/sandybridge/g16/l1.exe PID=     67812.
  
 Copyright (c) 1988,1990,1992,1993,1995,1998,2003,2009,2016,
            Gaussian, Inc.  All Rights Reserved.
  
 This is part of the Gaussian(R) 16 program.  It is based on
 the Gaussian(R) 09 system (copyright 2009, Gaussian, Inc.),
 the Gaussian(R) 03 system (copyright 2003, Gaussian, Inc.),
 the Gaussian(R) 98 system (copyright 1998, Gaussian, Inc.),
 the Gaussian(R) 94 system (copyright 1995, Gaussian, Inc.),
 the Gaussian 92(TM) system (copyright 1992, Gaussian, Inc.),
 the Gaussian 90(TM) system (copyright 1990, Gaussian, Inc.),
 the Gaussian 88(TM) system (copyright 1988, Gaussian, Inc.),
 the Gaussian 86(TM) system (copyright 1986, Carnegie Mellon
 University), and the Gaussian 82(TM) system (copyright 1983,
 Carnegie Mellon University). Gaussian is a federally registered
 trademark of Gaussian, Inc.
  
 This software contains proprietary and confidential information,
 including trade secrets, belonging to Gaussian, Inc.
  
 This software is provided under written license and may be
 used, copied, transmitted, or stored only in accord with that
 written license.
  
 The following legend is applicable only to US Government
 contracts under FAR:
  
                    RESTRICTED RIGHTS LEGEND
  
 Use, reproduction and disclosure by the US Government is
 subject to restrictions as set forth in subparagraphs (a)
 and (c) of the Commercial Computer Software - Restricted
 Rights clause in FAR 52.227-19.
  
 Gaussian, Inc.
 340 Quinnipiac St., Bldg. 40, Wallingford CT 06492
  
  
 ---------------------------------------------------------------
 Warning -- This program may not be used in any manner that
 competes with the business of Gaussian, Inc. or will provide
 assistance to any competitor of Gaussian, Inc.  The licensee
 of this program is prohibited from giving any competitor of
 Gaussian, Inc. access to this program.  By using this program,
 the user acknowledges that Gaussian, Inc. is engaged in the
 business of creating and licensing software in the field of
 computational chemistry and represents and warrants to the
 licensee that it is not a competitor of Gaussian, Inc. and that
 it will not use this program in any manner prohibited above.
 ---------------------------------------------------------------
  

 Cite this work as:
 Gaussian 16, Revision A.03,
 M. J. Frisch, G. W. Trucks, H. B. Schlegel, G. E. Scuseria, 
 M. A. Robb, J. R. Cheeseman, G. Scalmani, V. Barone, 
 G. A. Petersson, H. Nakatsuji, X. Li, M. Caricato, A. V. Marenich, 
 J. Bloino, B. G. Janesko, R. Gomperts, B. Mennucci, H. P. Hratchian, 
 J. V. Ortiz, A. F. Izmaylov, J. L. Sonnenberg, D. Williams-Young, 
 F. Ding, F. Lipparini, F. Egidi, J. Goings, B. Peng, A. Petrone, 
 T. Henderson, D. Ranasinghe, V. G. Zakrzewski, J. Gao, N. Rega, 
 G. Zheng, W. Liang, M. Hada, M. Ehara, K. Toyota, R. Fukuda, 
 J. Hasegawa, M. Ishida, T. Nakajima, Y. Honda, O. Kitao, H. Nakai, 
 T. Vreven, K. Throssell, J. A. Montgomery, Jr., J. E. Peralta, 
 F. Ogliaro, M. J. Bearpark, J. J. Heyd, E. N. Brothers, K. N. Kudin, 
 V. N. Staroverov, T. A. Keith, R. Kobayashi, J. Normand, 
 K. Raghavachari, A. P. Rendell, J. C. Burant, S. S. Iyengar, 
 J. Tomasi, M. Cossi, J. M. Millam, M. Klene, C. Adamo, R. Cammi, 
 J. W. Ochterski, R. L. Martin, K. Morokuma, O. Farkas, 
 J. B. Foresman, and D. J. Fox, Gaussian, Inc., Wallingford CT, 2016.
 
 ******************************************
 Gaussian 16:  EM64L-G16RevA.03 25-Dec-2016
                26-Jan-2021 
 ******************************************
 %mem=30GB
 %nproc=8
 Will use up to    8 processors via shared memory.
 ----------------------------------------------------------------------
 #P LC-wHPBE/TZVP iop(3/107=0200200000, 3/108=0200200000) scf=(conver=6
 ,fermi,ndamp=35,noincfock,novaracc,vshift=500,xqc)
 ----------------------------------------------------------------------
 1/38=1,172=1/1;
 2/12=2,17=6,18=5,40=1/2;
 3/5=19,7=101,11=2,25=1,30=1,74=-71,107=200200000,108=200200000/1,2,3;
 4//1;
 5/5=100002,6=6,8=3,10=500,13=1,18=-1,22=13,38=1,93=35/2,8;
 6/7=2,8=2,9=2,10=2,28=1/1;
 99/5=1,9=1/99;
 Leave Link    1 at Tue Jan 26 11:58:29 2021, MaxMem=  4026531840 cpu:               2.5 elap:               0.4
 (Enter /opt/ohpc/pub/libs/gaussian/g16-A.03/sandybridge/g16/l101.exe)
 ----------
 H32 C26 N4
 ----------
 Symbolic Z-matrix:
 Charge =  2 Multiplicity = 1
 C                    -2.82396   0.44426   1.1118 
 C                    -3.52491   0.0001    0. 
 C                    -1.4473    0.43809   1.11076 
 C                    -2.82397  -0.44405  -1.11184 
 C                    -0.74022   0.00011  -0.00003 
 C                    -1.44733  -0.43786  -1.11083 
 H                    -0.91446   0.79777   1.98099 
 H                    -3.35536  -0.78359  -1.99104 
 H                    -0.91449  -0.79749  -1.98108 
 C                     0.74023   0.00011  -0.00002 
 C                     1.44738   0.4375   -1.11099 
 C                     1.44726  -0.43732   1.11104 
 C                     2.82403   0.44367  -1.11194 
 C                     2.82391  -0.44354   1.11214 
 C                     3.52491   0.00003   0.00013 
 H                     0.91461   0.79671  -1.98145 
 H                     0.91437  -0.79652   1.98143 
 H                     3.35548   0.7828   -1.99127 
 H                     3.35525  -0.78265   1.99154 
 H                    -3.35532   0.78382   1.99101 
 C                     4.97514   0.00003   0.00015 
 C                     6.14652  -0.56505   0.40804 
 C                     6.14645   0.56505  -0.40802 
 N                     6.78098  -1.4917    1.06686 
 N                     6.78084   1.4916   -1.06704 
 C                     6.05796  -2.59105   1.68458 
 H                     6.15471  -2.5451    2.76836 
 H                     5.00888  -2.54463   1.41084 
 H                     6.46463  -3.53732   1.33227 
 C                     8.22873  -1.51828   1.18614 
 H                     8.49448  -1.77538   2.2091 
 H                     8.65944  -2.25911   0.51335 
 H                     8.64294  -0.53977   0.96883 
 C                     6.05773   2.59109  -1.68442 
 H                     6.15319   2.54465  -2.7683 
 H                     5.00894   2.54539  -1.40943 
 H                     6.46533   3.53727  -1.33296 
 C                     8.22863   1.51811  -1.18629 
 H                     8.49423   1.77961  -2.20815 
 H                     8.65984   2.25583  -0.51039 
 H                     8.64247   0.53843  -0.97354 
 C                    -4.97511   0.00008   0.00003 
 C                    -6.14653   0.56508   0.40792 
 C                    -6.1464   -0.56515  -0.40795 
 N                    -6.78107   1.4917    1.06671 
 N                    -6.78073  -1.49193  -1.0667 
 C                    -6.0582    2.59131   1.68413 
 H                    -6.15455   2.54541   2.76795 
 H                    -5.0092    2.54525   1.41002 
 H                    -6.46532   3.53742   1.33191 
 C                    -8.22886   1.51815   1.1858 
 H                    -8.4947    1.77695   2.2083 
 H                    -8.65972   2.25774   0.51173 
 H                    -8.64281   0.53915   0.9702 
 C                    -6.05756  -2.59137  -1.68411 
 H                    -6.15307  -2.54496  -2.76798 
 H                    -5.00878  -2.54563  -1.40912 
 H                    -6.46512  -3.53756  -1.33261 
 C                    -8.2285   -1.51858  -1.18594 
 H                    -8.49414  -1.77911  -2.20805 
 H                    -8.65952  -2.25704  -0.51073 
 H                    -8.64252  -0.53921  -0.97216 
 
 ITRead=  0  0  0  0  0  0  0  0  0  0  0  0  0  0  0  0  0  0  0  0
 ITRead=  0  0  0  0  0  0  0  0  0  0  0  0  0  0  0  0  0  0  0  0
 ITRead=  0  0  0  0  0  0  0  0  0  0  0  0  0  0  0  0  0  0  0  0
 ITRead=  0  0
 MicOpt= -1 -1 -1 -1 -1 -1 -1 -1 -1 -1 -1 -1 -1 -1 -1 -1 -1 -1 -1 -1
 MicOpt= -1 -1 -1 -1 -1 -1 -1 -1 -1 -1 -1 -1 -1 -1 -1 -1 -1 -1 -1 -1
 MicOpt= -1 -1 -1 -1 -1 -1 -1 -1 -1 -1 -1 -1 -1 -1 -1 -1 -1 -1 -1 -1
 MicOpt= -1 -1
 NAtoms=     62 NQM=       62 NQMF=       0 NMMI=      0 NMMIF=      0
                NMic=       0 NMicF=      0.
                    Isotopes and Nuclear Properties:
 (Nuclear quadrupole moments (NQMom) in fm**2, nuclear magnetic moments (NMagM)
  in nuclear magnetons)

  Atom         1           2           3           4           5           6           7           8           9          10
 IAtWgt=          12          12          12          12          12          12           1           1           1          12
 AtmWgt=  12.0000000  12.0000000  12.0000000  12.0000000  12.0000000  12.0000000   1.0078250   1.0078250   1.0078250  12.0000000
 NucSpn=           0           0           0           0           0           0           1           1           1           0
 AtZEff=  -0.0000000  -0.0000000  -0.0000000  -0.0000000  -0.0000000  -0.0000000  -0.0000000  -0.0000000  -0.0000000  -0.0000000
 NQMom=    0.0000000   0.0000000   0.0000000   0.0000000   0.0000000   0.0000000   0.0000000   0.0000000   0.0000000   0.0000000
 NMagM=    0.0000000   0.0000000   0.0000000   0.0000000   0.0000000   0.0000000   2.7928460   2.7928460   2.7928460   0.0000000
 AtZNuc=   6.0000000   6.0000000   6.0000000   6.0000000   6.0000000   6.0000000   1.0000000   1.0000000   1.0000000   6.0000000

  Atom        11          12          13          14          15          16          17          18          19          20
 IAtWgt=          12          12          12          12          12           1           1           1           1           1
 AtmWgt=  12.0000000  12.0000000  12.0000000  12.0000000  12.0000000   1.0078250   1.0078250   1.0078250   1.0078250   1.0078250
 NucSpn=           0           0           0           0           0           1           1           1           1           1
 AtZEff=  -0.0000000  -0.0000000  -0.0000000  -0.0000000  -0.0000000  -0.0000000  -0.0000000  -0.0000000  -0.0000000  -0.0000000
 NQMom=    0.0000000   0.0000000   0.0000000   0.0000000   0.0000000   0.0000000   0.0000000   0.0000000   0.0000000   0.0000000
 NMagM=    0.0000000   0.0000000   0.0000000   0.0000000   0.0000000   2.7928460   2.7928460   2.7928460   2.7928460   2.7928460
 AtZNuc=   6.0000000   6.0000000   6.0000000   6.0000000   6.0000000   1.0000000   1.0000000   1.0000000   1.0000000   1.0000000

  Atom        21          22          23          24          25          26          27          28          29          30
 IAtWgt=          12          12          12          14          14          12           1           1           1          12
 AtmWgt=  12.0000000  12.0000000  12.0000000  14.0030740  14.0030740  12.0000000   1.0078250   1.0078250   1.0078250  12.0000000
 NucSpn=           0           0           0           2           2           0           1           1           1           0
 AtZEff=  -0.0000000  -0.0000000  -0.0000000  -0.0000000  -0.0000000  -0.0000000  -0.0000000  -0.0000000  -0.0000000  -0.0000000
 NQMom=    0.0000000   0.0000000   0.0000000   2.0440000   2.0440000   0.0000000   0.0000000   0.0000000   0.0000000   0.0000000
 NMagM=    0.0000000   0.0000000   0.0000000   0.4037610   0.4037610   0.0000000   2.7928460   2.7928460   2.7928460   0.0000000
 AtZNuc=   6.0000000   6.0000000   6.0000000   7.0000000   7.0000000   6.0000000   1.0000000   1.0000000   1.0000000   6.0000000

  Atom        31          32          33          34          35          36          37          38          39          40
 IAtWgt=           1           1           1          12           1           1           1          12           1           1
 AtmWgt=   1.0078250   1.0078250   1.0078250  12.0000000   1.0078250   1.0078250   1.0078250  12.0000000   1.0078250   1.0078250
 NucSpn=           1           1           1           0           1           1           1           0           1           1
 AtZEff=  -0.0000000  -0.0000000  -0.0000000  -0.0000000  -0.0000000  -0.0000000  -0.0000000  -0.0000000  -0.0000000  -0.0000000
 NQMom=    0.0000000   0.0000000   0.0000000   0.0000000   0.0000000   0.0000000   0.0000000   0.0000000   0.0000000   0.0000000
 NMagM=    2.7928460   2.7928460   2.7928460   0.0000000   2.7928460   2.7928460   2.7928460   0.0000000   2.7928460   2.7928460
 AtZNuc=   1.0000000   1.0000000   1.0000000   6.0000000   1.0000000   1.0000000   1.0000000   6.0000000   1.0000000   1.0000000

  Atom        41          42          43          44          45          46          47          48          49          50
 IAtWgt=           1          12          12          12          14          14          12           1           1           1
 AtmWgt=   1.0078250  12.0000000  12.0000000  12.0000000  14.0030740  14.0030740  12.0000000   1.0078250   1.0078250   1.0078250
 NucSpn=           1           0           0           0           2           2           0           1           1           1
 AtZEff=  -0.0000000  -0.0000000  -0.0000000  -0.0000000  -0.0000000  -0.0000000  -0.0000000  -0.0000000  -0.0000000  -0.0000000
 NQMom=    0.0000000   0.0000000   0.0000000   0.0000000   2.0440000   2.0440000   0.0000000   0.0000000   0.0000000   0.0000000
 NMagM=    2.7928460   0.0000000   0.0000000   0.0000000   0.4037610   0.4037610   0.0000000   2.7928460   2.7928460   2.7928460
 AtZNuc=   1.0000000   6.0000000   6.0000000   6.0000000   7.0000000   7.0000000   6.0000000   1.0000000   1.0000000   1.0000000

  Atom        51          52          53          54          55          56          57          58          59          60
 IAtWgt=          12           1           1           1          12           1           1           1          12           1
 AtmWgt=  12.0000000   1.0078250   1.0078250   1.0078250  12.0000000   1.0078250   1.0078250   1.0078250  12.0000000   1.0078250
 NucSpn=           0           1           1           1           0           1           1           1           0           1
 AtZEff=  -0.0000000  -0.0000000  -0.0000000  -0.0000000  -0.0000000  -0.0000000  -0.0000000  -0.0000000  -0.0000000  -0.0000000
 NQMom=    0.0000000   0.0000000   0.0000000   0.0000000   0.0000000   0.0000000   0.0000000   0.0000000   0.0000000   0.0000000
 NMagM=    0.0000000   2.7928460   2.7928460   2.7928460   0.0000000   2.7928460   2.7928460   2.7928460   0.0000000   2.7928460
 AtZNuc=   6.0000000   1.0000000   1.0000000   1.0000000   6.0000000   1.0000000   1.0000000   1.0000000   6.0000000   1.0000000

  Atom        61          62
 IAtWgt=           1           1
 AtmWgt=   1.0078250   1.0078250
 NucSpn=           1           1
 AtZEff=  -0.0000000  -0.0000000
 NQMom=    0.0000000   0.0000000
 NMagM=    2.7928460   2.7928460
 AtZNuc=   1.0000000   1.0000000
 Leave Link  101 at Tue Jan 26 11:58:29 2021, MaxMem=  4026531840 cpu:               0.9 elap:               0.1
 (Enter /opt/ohpc/pub/libs/gaussian/g16-A.03/sandybridge/g16/l202.exe)
 Stoichiometry    C26H32N4(2+)
 Framework group  C1[X(C26H32N4)]
 Deg. of freedom   180
 Full point group                 C1      NOp   1
 Largest Abelian subgroup         C1      NOp   1
 Largest concise Abelian subgroup C1      NOp   1
                         Standard orientation:                         
 ---------------------------------------------------------------------
 Center     Atomic      Atomic             Coordinates (Angstroms)
 Number     Number       Type             X           Y           Z
 ---------------------------------------------------------------------
      1          6           0        2.823961   -0.444264    1.111805
      2          6           0        3.524911   -0.000100    0.000001
      3          6           0        1.447297   -0.438089    1.110761
      4          6           0        2.823968    0.444049   -1.111840
      5          6           0        0.740218   -0.000107   -0.000031
      6          6           0        1.447325    0.437860   -1.110830
      7          1           0        0.914462   -0.797765    1.980986
      8          1           0        3.355363    0.783593   -1.991035
      9          1           0        0.914491    0.797490   -1.981076
     10          6           0       -0.740229   -0.000109   -0.000016
     11          6           0       -1.447379   -0.437502   -1.110991
     12          6           0       -1.447259    0.437322    1.111037
     13          6           0       -2.824033   -0.443666   -1.111944
     14          6           0       -2.823909    0.443539    1.112143
     15          6           0       -3.524910   -0.000034    0.000126
     16          1           0       -0.914614   -0.796709   -1.981454
     17          1           0       -0.914365    0.796519    1.981427
     18          1           0       -3.355477   -0.782802   -1.991269
     19          1           0       -3.355249    0.782652    1.991539
     20          1           0        3.355316   -0.783824    1.991014
     21          6           0       -4.975135   -0.000032    0.000145
     22          6           0       -6.146520    0.565054    0.408043
     23          6           0       -6.146453   -0.565050   -0.408017
     24          7           0       -6.780980    1.491697    1.066857
     25          7           0       -6.780843   -1.491604   -1.067037
     26          6           0       -6.057956    2.591048    1.684578
     27          1           0       -6.154708    2.545100    2.768364
     28          1           0       -5.008879    2.544629    1.410837
     29          1           0       -6.464629    3.537319    1.332266
     30          6           0       -8.228734    1.518275    1.186143
     31          1           0       -8.494477    1.775383    2.209103
     32          1           0       -8.659441    2.259109    0.513350
     33          1           0       -8.642938    0.539771    0.968827
     34          6           0       -6.057730   -2.591089   -1.684422
     35          1           0       -6.153192   -2.544651   -2.768303
     36          1           0       -5.008941   -2.545387   -1.409434
     37          1           0       -6.465326   -3.537274   -1.332961
     38          6           0       -8.228631   -1.518112   -1.186291
     39          1           0       -8.494234   -1.779605   -2.208151
     40          1           0       -8.659838   -2.255827   -0.510389
     41          1           0       -8.642467   -0.538433   -0.973542
     42          6           0        4.975109   -0.000078    0.000026
     43          6           0        6.146534   -0.565080    0.407916
     44          6           0        6.146403    0.565147   -0.407945
     45          7           0        6.781069   -1.491701    1.066705
     46          7           0        6.780732    1.491927   -1.066700
     47          6           0        6.058202   -2.591312    1.684129
     48          1           0        6.154554   -2.545406    2.767953
     49          1           0        5.009205   -2.545245    1.410016
     50          1           0        6.465319   -3.537423    1.331906
     51          6           0        8.228858   -1.518145    1.185797
     52          1           0        8.494704   -1.776946    2.208295
     53          1           0        8.659724   -2.257735    0.511728
     54          1           0        8.642813   -0.539154    0.970202
     55          6           0        6.057561    2.591370   -1.684106
     56          1           0        6.153074    2.544964   -2.767982
     57          1           0        5.008776    2.545628   -1.409122
     58          1           0        6.465122    3.537559   -1.332610
     59          6           0        8.228499    1.518584   -1.185941
     60          1           0        8.494145    1.779106   -2.208049
     61          1           0        8.659520    2.257040   -0.510729
     62          1           0        8.642516    0.539209   -0.972160
 ---------------------------------------------------------------------
 Rotational constants (GHZ):           0.4108366           0.0399477           0.0392121
 Leave Link  202 at Tue Jan 26 11:58:29 2021, MaxMem=  4026531840 cpu:               0.1 elap:               0.0
 (Enter /opt/ohpc/pub/libs/gaussian/g16-A.03/sandybridge/g16/l301.exe)
 Standard basis: TZVP (5D, 7F)
 Ernie: Thresh=  0.10000D-02 Tol=  0.10000D-05 Strict=F.
 There are   792 symmetry adapted cartesian basis functions of A   symmetry.
 There are   762 symmetry adapted basis functions of A   symmetry.
   762 basis functions,  1306 primitive gaussians,   792 cartesian basis functions
   107 alpha electrons      107 beta electrons
       nuclear repulsion energy      2573.9438951873 Hartrees.
 IExCor=33909 DFT=T Ex+Corr=LC-wHPBE ExCW=0 ScaHFX=  1.000000
 ScaDFX=  1.000000  1.000000  1.000000  1.000000 ScalE2=  1.000000  1.000000
 IRadAn=      5 IRanWt=     -1 IRanGd=            0 ICorTp=0 IEmpDi=  4
 HFx  wShort=  0.000000 wLong=  0.200200 cFull=  0.000000 cShort=  0.000000 cLong=  1.000000
 DFx  wShort=  0.000000 wLong=  0.200200 cFull=  0.000000 cShort=  1.000000 cLong=  0.000000
 NAtoms=   62 NActive=   62 NUniq=   62 SFac= 1.00D+00 NAtFMM=   60 NAOKFM=T Big=T
 Integral buffers will be    131072 words long.
 Raffenetti 2 integral format.
 Two-electron integral symmetry is turned on.
 Leave Link  301 at Tue Jan 26 11:58:29 2021, MaxMem=  4026531840 cpu:               0.4 elap:               0.1
 (Enter /opt/ohpc/pub/libs/gaussian/g16-A.03/sandybridge/g16/l302.exe)
 NPDir=0 NMtPBC=     1 NCelOv=     1 NCel=       1 NClECP=     1 NCelD=      1
         NCelK=      1 NCelE2=     1 NClLst=     1 CellRange=     0.0.
 One-electron integrals computed using PRISM.
 One-electron integral symmetry used in STVInt
 NBasis=   762 RedAO= T EigKep=  6.76D-06  NBF=   762
 NBsUse=   762 1.00D-06 EigRej= -1.00D+00 NBFU=   762
 Precomputing XC quadrature grid using
 IXCGrd= 4 IRadAn=           5 IRanWt=          -1 IRanGd=           0 AccXCQ= 0.00D+00.
 Generated NRdTot=       0 NPtTot=           0 NUsed=           0 NTot=          32
 NSgBfM=   719   719   719   719   719 MxSgAt=    62 MxSgA2=    62.
 Leave Link  302 at Tue Jan 26 11:58:31 2021, MaxMem=  4026531840 cpu:              17.1 elap:               2.2
 (Enter /opt/ohpc/pub/libs/gaussian/g16-A.03/sandybridge/g16/l303.exe)
 DipDrv:  MaxL=1.
 Leave Link  303 at Tue Jan 26 11:58:32 2021, MaxMem=  4026531840 cpu:               1.3 elap:               0.2
 (Enter /opt/ohpc/pub/libs/gaussian/g16-A.03/sandybridge/g16/l401.exe)
 ExpMin= 9.52D-02 ExpMax= 1.97D+04 ExpMxC= 6.73D+02 IAcc=3 IRadAn=         5 AccDes= 0.00D+00
 Harris functional with IExCor=33909 and IRadAn=       5 diagonalized for initial guess.
 HarFok:  IExCor=33909 AccDes= 0.00D+00 IRadAn=         5 IDoV= 1 UseB2=F ITyADJ=14
 ICtDFT=  3500011 ScaDFX=  1.000000  1.000000  1.000000  1.000000
 FoFCou: FMM=F IPFlag=           0 FMFlag=      100000 FMFlg1=        2001
         NFxFlg=           0 DoJE=T BraDBF=F KetDBF=T FulRan=T
         wScrn=  0.000000 ICntrl=       500 IOpCl=  0 I1Cent=   200000004 NGrid=           0
         NMat0=    1 NMatS0=      1 NMatT0=    0 NMatD0=    1 NMtDS0=    0 NMtDT0=    0
 Petite list used in FoFCou.
 Harris En= -1204.98553690690    
 JPrj=0 DoOrth=F DoCkMO=F.
 Leave Link  401 at Tue Jan 26 11:58:42 2021, MaxMem=  4026531840 cpu:              82.6 elap:              10.4
 (Enter /opt/ohpc/pub/libs/gaussian/g16-A.03/sandybridge/g16/l502.exe)
 Integral symmetry usage will be decided dynamically.
 Closed shell SCF:
 Using DIIS extrapolation, IDIIS=    10.
 NGot=  4026531840 LenX=  4025262970 LenY=  4024634914
 Requested convergence on RMS density matrix=1.00D-06 within  32 cycles.
 Requested convergence on MAX density matrix=1.00D-04.
 Requested convergence on             energy=1.00D-04.
 Virtual orbitals will be shifted by   0.500 hartree.
 No special actions if energy rises.
 Dynamic level shift is on during FON iterations.

 Cycle   1  Pass 1  IDiag  1:
 FoFJK:  IHMeth= 1 ICntrl=       0 DoSepK=T KAlg= 0 I1Cent=           0 FoldK=F
 IRaf=         1 NMat=       1 IRICut=       1 DoRegI=T DoRafI=F ISym2E= 0 IDoP0=0 IntGTp=1.
 FoFCou: FMM=T IPFlag=           0 FMFlag=      100000 FMFlg1=        2001
         NFxFlg=           0 DoJE=T BraDBF=F KetDBF=F FulRan=T
         wScrn=  0.000000 ICntrl=       500 IOpCl=  0 I1Cent=           0 NGrid=           0
         NMat0=    1 NMatS0=      1 NMatT0=    0 NMatD0=    1 NMtDS0=    0 NMtDT0=    0
 Symmetry not used in FoFCou.
 FMM levels:  10  Number of levels for PrismC:   9
 E= -1227.23762814840    
 DIIS: error= 3.13D-02 at cycle   1 NSaved=   1.
 NSaved= 1 IEnMin= 1 EnMin= -1227.23762814840     IErMin= 1 ErrMin= 3.13D-02
 ErrMax= 3.13D-02  0.00D+00 EMaxC= 1.00D+00 BMatC= 4.55D-01 BMatP= 4.55D-01
 IDIUse=1 WtCom= 1.00D+00 WtEn= 0.00D+00
 Coeff-Com:  0.100D+01
 Coeff:      0.100D+01
 Gap=     0.330 Goal=   None    Shift=    0.500
 T= 1521. Gap= 0.726 NK=0 IS=  108 IE=  762 IFin=  107
          NO(<0.9)=   0  NV(>0.1)=   0    107.00e < EF      0.00e >EF  Err=0.0D+00
 GapD=    0.330 DampG=1.000 DampE=0.500 DampFc=0.5000 IDamp=-1.
 Damping current iteration by 5.00D-01
 RMSDP=2.44D-03 MaxDP=1.02D-01              OVMax= 6.66D-02

 Cycle   2  Pass 1  IDiag  1:
 E= -1227.50213675338     Delta-E=       -0.264508604986 Rises=F Damp=T
 DIIS: error= 1.28D-02 at cycle   2 NSaved=   2.
 NSaved= 2 IEnMin= 2 EnMin= -1227.50213675338     IErMin= 2 ErrMin= 1.28D-02
 ErrMax= 1.28D-02  0.00D+00 EMaxC= 1.00D+00 BMatC= 8.20D-02 BMatP= 4.55D-01
 IDIUse=1 WtCom= 1.00D+00 WtEn= 0.00D+00
 Coeff-Com: -0.613D+00 0.161D+01
 Coeff:     -0.613D+00 0.161D+01
 Gap=     0.285 Goal=   None    Shift=    0.500
 T= 1390. Gap= 0.762 NK=0 IS=  108 IE=  762 IFin=  107
          NO(<0.9)=   0  NV(>0.1)=   0    107.00e < EF      0.00e >EF  Err=0.0D+00
 GapD=    0.285 DampG=1.000 DampE=0.500 DampFc=0.5000 IDamp=-1.
 Damping current iteration by 5.00D-01
 RMSDP=1.23D-03 MaxDP=6.73D-02 DE=-2.65D-01 OVMax= 1.67D-02

 Cycle   3  Pass 1  IDiag  1:
 E= -1227.59524222255     Delta-E=       -0.093105469172 Rises=F Damp=T
 DIIS: error= 5.62D-03 at cycle   3 NSaved=   3.
 NSaved= 3 IEnMin= 3 EnMin= -1227.59524222255     IErMin= 3 ErrMin= 5.62D-03
 ErrMax= 5.62D-03  0.00D+00 EMaxC= 1.00D+00 BMatC= 1.66D-02 BMatP= 8.20D-02
 IDIUse=1 WtCom= 1.00D+00 WtEn= 0.00D+00
 Coeff-Com:  0.684D-01-0.997D+00 0.193D+01
 Coeff:      0.684D-01-0.997D+00 0.193D+01
 Gap=     0.265 Goal=   None    Shift=    0.500
 T= 1141. Gap= 0.764 NK=0 IS=  108 IE=  762 IFin=  107
          NO(<0.9)=   0  NV(>0.1)=   0    107.00e < EF      0.00e >EF  Err=0.0D+00
 GapD=    0.265 DampG=1.000 DampE=1.000 DampFc=1.0000 IDamp=-1.
 RMSDP=6.49D-04 MaxDP=3.47D-02 DE=-9.31D-02 OVMax= 1.29D-02

 Cycle   4  Pass 1  IDiag  1:
 E= -1227.67329300785     Delta-E=       -0.078050785294 Rises=F Damp=F
 DIIS: error= 1.70D-03 at cycle   4 NSaved=   4.
 NSaved= 4 IEnMin= 4 EnMin= -1227.67329300785     IErMin= 4 ErrMin= 1.70D-03
 ErrMax= 1.70D-03  0.00D+00 EMaxC= 1.00D+00 BMatC= 4.79D-04 BMatP= 1.66D-02
 IDIUse=1 WtCom= 1.00D+00 WtEn= 0.00D+00
 Coeff-Com:  0.731D-01-0.255D+00 0.271D+00 0.911D+00
 Coeff:      0.731D-01-0.255D+00 0.271D+00 0.911D+00
 Gap=     0.264 Goal=   None    Shift=    0.500
 T=  599. Gap= 0.764 NK=0 IS=  108 IE=  762 IFin=  107
          NO(<0.9)=   0  NV(>0.1)=   0    107.00e < EF      0.00e >EF  Err=0.0D+00
 GapD=    0.264 DampG=1.000 DampE=1.000 DampFc=1.0000 IDamp=-1.
 RMSDP=9.93D-05 MaxDP=4.13D-03 DE=-7.81D-02 OVMax= 8.94D-03

 Cycle   5  Pass 1  IDiag  1:
 E= -1227.67397544789     Delta-E=       -0.000682440043 Rises=F Damp=F
 DIIS: error= 1.37D-03 at cycle   5 NSaved=   5.
 NSaved= 5 IEnMin= 5 EnMin= -1227.67397544789     IErMin= 5 ErrMin= 1.37D-03
 ErrMax= 1.37D-03  0.00D+00 EMaxC= 1.00D+00 BMatC= 8.60D-05 BMatP= 4.79D-04
 IDIUse=1 WtCom= 1.00D+00 WtEn= 0.00D+00
 Coeff-Com:  0.531D-02 0.847D-01-0.204D+00-0.152D+00 0.127D+01
 Coeff:      0.531D-02 0.847D-01-0.204D+00-0.152D+00 0.127D+01
 Gap=     0.265 Goal=   None    Shift=    0.500
 T=   94. Gap= 0.765 NK=0 IS=  108 IE=  762 IFin=  107
          NO(<0.9)=   0  NV(>0.1)=   0    107.00e < EF      0.00e >EF  Err=0.0D+00
 GapD=    0.265 DampG=1.000 DampE=1.000 DampFc=1.0000 IDamp=-1.
 RMSDP=6.41D-05 MaxDP=2.57D-03 DE=-6.82D-04 OVMax= 7.61D-03

 Cycle   6  Pass 1  IDiag  1:
 E= -1227.67423626376     Delta-E=       -0.000260815865 Rises=F Damp=F
 DIIS: error= 1.03D-03 at cycle   6 NSaved=   6.
 NSaved= 6 IEnMin= 6 EnMin= -1227.67423626376     IErMin= 6 ErrMin= 1.03D-03
 ErrMax= 1.03D-03  0.00D+00 EMaxC= 1.00D+00 BMatC= 3.03D-05 BMatP= 8.60D-05
 IDIUse=1 WtCom= 1.00D+00 WtEn= 0.00D+00
 Coeff-Com: -0.205D-01 0.776D-01-0.917D-01-0.296D+00-0.134D+00 0.146D+01
 Coeff:     -0.205D-01 0.776D-01-0.917D-01-0.296D+00-0.134D+00 0.146D+01
 Gap=     0.265 Goal=   None    Shift=    0.500
 GapD=    0.265 DampG=1.000 DampE=1.000 DampFc=1.0000 IDamp=-1.
 RMSDP=3.98D-05 MaxDP=1.26D-03 DE=-2.61D-04 OVMax= 6.13D-03

 Cycle   7  Pass 1  IDiag  1:
 E= -1227.67436781262     Delta-E=       -0.000131548860 Rises=F Damp=F
 DIIS: error= 7.46D-04 at cycle   7 NSaved=   7.
 NSaved= 7 IEnMin= 7 EnMin= -1227.67436781262     IErMin= 7 ErrMin= 7.46D-04
 ErrMax= 7.46D-04  0.00D+00 EMaxC= 1.00D+00 BMatC= 1.30D-05 BMatP= 3.03D-05
 IDIUse=1 WtCom= 1.00D+00 WtEn= 0.00D+00
 Coeff-Com: -0.547D-02-0.207D-01 0.597D-01 0.185D-01-0.531D+00-0.460D+00
 Coeff-Com:  0.194D+01
 Coeff:     -0.547D-02-0.207D-01 0.597D-01 0.185D-01-0.531D+00-0.460D+00
 Coeff:      0.194D+01
 Gap=     0.265 Goal=   None    Shift=    0.500
 RMSDP=2.34D-05 MaxDP=9.18D-04 DE=-1.32D-04 OVMax= 4.93D-03

 Cycle   8  Pass 1  IDiag  1:
 E= -1227.67443643267     Delta-E=       -0.000068620049 Rises=F Damp=F
 DIIS: error= 5.22D-04 at cycle   8 NSaved=   8.
 NSaved= 8 IEnMin= 8 EnMin= -1227.67443643267     IErMin= 8 ErrMin= 5.22D-04
 ErrMax= 5.22D-04  0.00D+00 EMaxC= 1.00D+00 BMatC= 5.98D-06 BMatP= 1.30D-05
 IDIUse=1 WtCom= 1.00D+00 WtEn= 0.00D+00
 Coeff-Com:  0.246D-02-0.208D-01 0.332D-01 0.125D+00-0.247D+00-0.646D+00
 Coeff-Com:  0.139D+00 0.162D+01
 Coeff:      0.246D-02-0.208D-01 0.332D-01 0.125D+00-0.247D+00-0.646D+00
 Coeff:      0.139D+00 0.162D+01
 Gap=     0.265 Goal=   None    Shift=    0.500
 RMSDP=1.33D-05 MaxDP=8.01D-04 DE=-6.86D-05 OVMax= 3.56D-03

 Cycle   9  Pass 1  IDiag  1:
 E= -1227.67446907340     Delta-E=       -0.000032640737 Rises=F Damp=F
 DIIS: error= 3.55D-04 at cycle   9 NSaved=   9.
 NSaved= 9 IEnMin= 9 EnMin= -1227.67446907340     IErMin= 9 ErrMin= 3.55D-04
 ErrMax= 3.55D-04  0.00D+00 EMaxC= 1.00D+00 BMatC= 2.74D-06 BMatP= 5.98D-06
 IDIUse=1 WtCom= 1.00D+00 WtEn= 0.00D+00
 Coeff-Com:  0.231D-02 0.672D-02-0.213D-01 0.738D-01 0.827D-01-0.173D+00
 Coeff-Com: -0.898D+00 0.229D+00 0.170D+01
 Coeff:      0.231D-02 0.672D-02-0.213D-01 0.738D-01 0.827D-01-0.173D+00
 Coeff:     -0.898D+00 0.229D+00 0.170D+01
 Gap=     0.265 Goal=   None    Shift=    0.500
 RMSDP=8.14D-06 MaxDP=6.83D-04 DE=-3.26D-05 OVMax= 2.55D-03

 Cycle  10  Pass 1  IDiag  1:
 E= -1227.67448413378     Delta-E=       -0.000015060379 Rises=F Damp=F
 DIIS: error= 2.37D-04 at cycle  10 NSaved=  10.
 NSaved=10 IEnMin=10 EnMin= -1227.67448413378     IErMin=10 ErrMin= 2.37D-04
 ErrMax= 2.37D-04  0.00D+00 EMaxC= 1.00D+00 BMatC= 1.19D-06 BMatP= 2.74D-06
 IDIUse=1 WtCom= 1.00D+00 WtEn= 0.00D+00
 Coeff-Com: -0.175D-02 0.132D-01-0.203D-01-0.137D-01 0.584D-01 0.161D+00
 Coeff-Com: -0.216D+00-0.618D+00-0.506D+00 0.214D+01
 Coeff:     -0.175D-02 0.132D-01-0.203D-01-0.137D-01 0.584D-01 0.161D+00
 Coeff:     -0.216D+00-0.618D+00-0.506D+00 0.214D+01
 Gap=     0.265 Goal=   None    Shift=    0.500
 RMSDP=4.93D-06 MaxDP=4.39D-04 DE=-1.51D-05 OVMax= 1.71D-03

 Cycle  11  Pass 1  IDiag  1:
 E= -1227.67449052860     Delta-E=       -0.000006394814 Rises=F Damp=F
 DIIS: error= 1.54D-04 at cycle  11 NSaved=  11.
 NSaved=11 IEnMin=11 EnMin= -1227.67449052860     IErMin=11 ErrMin= 1.54D-04
 ErrMax= 1.54D-04  0.00D+00 EMaxC= 1.00D+00 BMatC= 5.42D-07 BMatP= 1.19D-06
 IDIUse=1 WtCom= 1.00D+00 WtEn= 0.00D+00
 Coeff-Com: -0.169D-02 0.516D-02-0.445D-02-0.168D-01-0.239D-01 0.128D+00
 Coeff-Com:  0.196D+00-0.452D+00-0.687D+00-0.273D-02 0.186D+01
 Coeff:     -0.169D-02 0.516D-02-0.445D-02-0.168D-01-0.239D-01 0.128D+00
 Coeff:      0.196D+00-0.452D+00-0.687D+00-0.273D-02 0.186D+01
 Gap=     0.265 Goal=   None    Shift=    0.500
 RMSDP=3.09D-06 MaxDP=2.58D-04 DE=-6.39D-06 OVMax= 1.12D-03

 Cycle  12  Pass 1  IDiag  1:
 E= -1227.67449315598     Delta-E=       -0.000002627388 Rises=F Damp=F
 DIIS: error= 1.01D-04 at cycle  12 NSaved=  12.
 NSaved=12 IEnMin=12 EnMin= -1227.67449315598     IErMin=12 ErrMin= 1.01D-04
 ErrMax= 1.01D-04  0.00D+00 EMaxC= 1.00D+00 BMatC= 2.54D-07 BMatP= 5.42D-07
 IDIUse=1 WtCom= 1.00D+00 WtEn= 0.00D+00
 Coeff-Com: -0.365D-03-0.862D-03 0.296D-02 0.452D-02-0.490D-01 0.114D-01
 Coeff-Com:  0.192D+00-0.447D-01-0.916D-01-0.116D+01 0.478D+00 0.166D+01
 Coeff:     -0.365D-03-0.862D-03 0.296D-02 0.452D-02-0.490D-01 0.114D-01
 Coeff:      0.192D+00-0.447D-01-0.916D-01-0.116D+01 0.478D+00 0.166D+01
 Gap=     0.265 Goal=   None    Shift=    0.500
 RMSDP=1.85D-06 MaxDP=1.21D-04 DE=-2.63D-06 OVMax= 7.22D-04

 Cycle  13  Pass 1  IDiag  1:
 E= -1227.67449423391     Delta-E=       -0.000001077926 Rises=F Damp=F
 DIIS: error= 6.50D-05 at cycle  13 NSaved=  13.
 NSaved=13 IEnMin=13 EnMin= -1227.67449423391     IErMin=13 ErrMin= 6.50D-05
 ErrMax= 6.50D-05  0.00D+00 EMaxC= 1.00D+00 BMatC= 1.12D-07 BMatP= 2.54D-07
 IDIUse=1 WtCom= 1.00D+00 WtEn= 0.00D+00
 Coeff-Com:  0.342D-03-0.778D-03 0.332D-03 0.110D-01-0.100D-01-0.389D-01
 Coeff-Com: -0.187D-01 0.150D+00 0.277D+00-0.531D+00-0.488D+00-0.854D+00
 Coeff-Com:  0.250D+01
 Coeff:      0.342D-03-0.778D-03 0.332D-03 0.110D-01-0.100D-01-0.389D-01
 Coeff:     -0.187D-01 0.150D+00 0.277D+00-0.531D+00-0.488D+00-0.854D+00
 Coeff:      0.250D+01
 Gap=     0.265 Goal=   None    Shift=    0.500
 RMSDP=1.17D-06 MaxDP=4.80D-05 DE=-1.08D-06 OVMax= 4.60D-04

 Cycle  14  Pass 1  IDiag  1:
 E= -1227.67449466702     Delta-E=       -0.000000433108 Rises=F Damp=F
 DIIS: error= 4.17D-05 at cycle  14 NSaved=  14.
 NSaved=14 IEnMin=14 EnMin= -1227.67449466702     IErMin=14 ErrMin= 4.17D-05
 ErrMax= 4.17D-05  0.00D+00 EMaxC= 1.00D+00 BMatC= 5.11D-08 BMatP= 1.12D-07
 IDIUse=1 WtCom= 1.00D+00 WtEn= 0.00D+00
 Coeff-Com:  0.212D-03 0.365D-04-0.844D-03 0.560D-02 0.329D-02-0.206D-01
 Coeff-Com: -0.476D-01 0.964D-01 0.175D+00-0.839D-01-0.351D+00-0.107D+01
 Coeff-Com:  0.803D+00 0.149D+01
 Coeff:      0.212D-03 0.365D-04-0.844D-03 0.560D-02 0.329D-02-0.206D-01
 Coeff:     -0.476D-01 0.964D-01 0.175D+00-0.839D-01-0.351D+00-0.107D+01
 Coeff:      0.803D+00 0.149D+01
 Gap=     0.265 Goal=   None    Shift=    0.500
 RMSDP=7.19D-07 MaxDP=2.05D-05 DE=-4.33D-07 OVMax= 2.93D-04

 SCF Done:  E(RLC-wHPBE) =  -1227.67449467     A.U. after   14 cycles
            NFock= 14  Conv=0.72D-06     -V/T= 2.0040
 KE= 1.222724704319D+03 PE=-7.955809281977D+03 EE= 2.931466187804D+03
 Leave Link  502 at Tue Jan 26 12:13:18 2021, MaxMem=  4026531840 cpu:            6909.9 elap:             876.0
 (Enter /opt/ohpc/pub/libs/gaussian/g16-A.03/sandybridge/g16/l508.exe)
 QCSCF skips out because SCF is already converged.
 Leave Link  508 at Tue Jan 26 12:13:18 2021, MaxMem=  4026531840 cpu:               0.1 elap:               0.0
 (Enter /opt/ohpc/pub/libs/gaussian/g16-A.03/sandybridge/g16/l601.exe)
 Copying SCF densities to generalized density rwf, IOpCl= 0 IROHF=0.

 **********************************************************************

            Population analysis using the SCF density.

 **********************************************************************

 Orbital symmetries:
       Occupied  (A) (A) (A) (A) (A) (A) (A) (A) (A) (A) (A) (A)
                 (A) (A) (A) (A) (A) (A) (A) (A) (A) (A) (A) (A)
                 (A) (A) (A) (A) (A) (A) (A) (A) (A) (A) (A) (A)
                 (A) (A) (A) (A) (A) (A) (A) (A) (A) (A) (A) (A)
                 (A) (A) (A) (A) (A) (A) (A) (A) (A) (A) (A) (A)
                 (A) (A) (A) (A) (A) (A) (A) (A) (A) (A) (A) (A)
                 (A) (A) (A) (A) (A) (A) (A) (A) (A) (A) (A) (A)
                 (A) (A) (A) (A) (A) (A) (A) (A) (A) (A) (A) (A)
                 (A) (A) (A) (A) (A) (A) (A) (A) (A) (A) (A)
       Virtual   (A) (A) (A) (A) (A) (A) (A) (A) (A) (A) (A) (A)
                 (A) (A) (A) (A) (A) (A) (A) (A) (A) (A) (A) (A)
                 (A) (A) (A) (A) (A) (A) (A) (A) (A) (A) (A) (A)
                 (A) (A) (A) (A) (A) (A) (A) (A) (A) (A) (A) (A)
                 (A) (A) (A) (A) (A) (A) (A) (A) (A) (A) (A) (A)
                 (A) (A) (A) (A) (A) (A) (A) (A) (A) (A) (A) (A)
                 (A) (A) (A) (A) (A) (A) (A) (A) (A) (A) (A) (A)
                 (A) (A) (A) (A) (A) (A) (A) (A) (A) (A) (A) (A)
                 (A) (A) (A) (A) (A) (A) (A) (A) (A) (A) (A) (A)
                 (A) (A) (A) (A) (A) (A) (A) (A) (A) (A) (A) (A)
                 (A) (A) (A) (A) (A) (A) (A) (A) (A) (A) (A) (A)
                 (A) (A) (A) (A) (A) (A) (A) (A) (A) (A) (A) (A)
                 (A) (A) (A) (A) (A) (A) (A) (A) (A) (A) (A) (A)
                 (A) (A) (A) (A) (A) (A) (A) (A) (A) (A) (A) (A)
                 (A) (A) (A) (A) (A) (A) (A) (A) (A) (A) (A) (A)
                 (A) (A) (A) (A) (A) (A) (A) (A) (A) (A) (A) (A)
                 (A) (A) (A) (A) (A) (A) (A) (A) (A) (A) (A) (A)
                 (A) (A) (A) (A) (A) (A) (A) (A) (A) (A) (A) (A)
                 (A) (A) (A) (A) (A) (A) (A) (A) (A) (A) (A) (A)
                 (A) (A) (A) (A) (A) (A) (A) (A) (A) (A) (A) (A)
                 (A) (A) (A) (A) (A) (A) (A) (A) (A) (A) (A) (A)
                 (A) (A) (A) (A) (A) (A) (A) (A) (A) (A) (A) (A)
                 (A) (A) (A) (A) (A) (A) (A) (A) (A) (A) (A) (A)
                 (A) (A) (A) (A) (A) (A) (A) (A) (A) (A) (A) (A)
                 (A) (A) (A) (A) (A) (A) (A) (A) (A) (A) (A) (A)
                 (A) (A) (A) (A) (A) (A) (A) (A) (A) (A) (A) (A)
                 (A) (A) (A) (A) (A) (A) (A) (A) (A) (A) (A) (A)
                 (A) (A) (A) (A) (A) (A) (A) (A) (A) (A) (A) (A)
                 (A) (A) (A) (A) (A) (A) (A) (A) (A) (A) (A) (A)
                 (A) (A) (A) (A) (A) (A) (A) (A) (A) (A) (A) (A)
                 (A) (A) (A) (A) (A) (A) (A) (A) (A) (A) (A) (A)
                 (A) (A) (A) (A) (A) (A) (A) (A) (A) (A) (A) (A)
                 (A) (A) (A) (A) (A) (A) (A) (A) (A) (A) (A) (A)
                 (A) (A) (A) (A) (A) (A) (A) (A) (A) (A) (A) (A)
                 (A) (A) (A) (A) (A) (A) (A) (A) (A) (A) (A) (A)
                 (A) (A) (A) (A) (A) (A) (A) (A) (A) (A) (A) (A)
                 (A) (A) (A) (A) (A) (A) (A) (A) (A) (A) (A) (A)
                 (A) (A) (A) (A) (A) (A) (A) (A) (A) (A) (A) (A)
                 (A) (A) (A) (A) (A) (A) (A) (A) (A) (A) (A) (A)
                 (A) (A) (A) (A) (A) (A) (A) (A) (A) (A) (A) (A)
                 (A) (A) (A) (A) (A) (A) (A) (A) (A) (A) (A) (A)
                 (A) (A) (A) (A) (A) (A) (A) (A) (A) (A) (A) (A)
                 (A) (A) (A) (A) (A) (A) (A) (A) (A) (A) (A) (A)
                 (A) (A) (A) (A) (A) (A) (A) (A) (A) (A) (A) (A)
                 (A) (A) (A) (A) (A) (A) (A) (A) (A) (A) (A) (A)
                 (A) (A) (A) (A) (A) (A) (A) (A) (A) (A) (A) (A)
                 (A) (A) (A) (A) (A) (A) (A) (A) (A) (A) (A) (A)
                 (A) (A) (A) (A) (A) (A) (A) (A) (A) (A) (A) (A)
                 (A) (A) (A) (A) (A) (A) (A) (A) (A) (A) (A) (A)
                 (A) (A) (A) (A) (A) (A) (A) (A) (A) (A) (A) (A)
                 (A) (A) (A) (A) (A) (A) (A) (A) (A) (A) (A) (A)
                 (A) (A) (A) (A) (A) (A) (A) (A) (A) (A) (A) (A)
                 (A) (A) (A) (A) (A) (A) (A) (A) (A) (A) (A) (A)
                 (A) (A) (A) (A) (A) (A) (A) (A) (A) (A) (A) (A)
                 (A) (A) (A) (A) (A) (A) (A)
 The electronic state is 1-A.
 Alpha  occ. eigenvalues --  -14.34888 -14.34888 -14.34887 -14.34887 -10.27476
 Alpha  occ. eigenvalues --  -10.27476 -10.27439 -10.27439 -10.23668 -10.23668
 Alpha  occ. eigenvalues --  -10.21066 -10.21065 -10.21065 -10.21064 -10.20976
 Alpha  occ. eigenvalues --  -10.20975 -10.20975 -10.20975 -10.20653 -10.20653
 Alpha  occ. eigenvalues --  -10.19264 -10.19250 -10.18561 -10.18561 -10.18560
 Alpha  occ. eigenvalues --  -10.18560 -10.17888 -10.17887 -10.17886 -10.17885
 Alpha  occ. eigenvalues --   -1.23284  -1.23284  -1.20502  -1.20501  -1.15343
 Alpha  occ. eigenvalues --   -1.15339  -1.10397  -1.08736  -1.02622  -0.98478
 Alpha  occ. eigenvalues --   -0.98224  -0.97846  -0.97140  -0.96930  -0.96780
 Alpha  occ. eigenvalues --   -0.96764  -0.95636  -0.95635  -0.94610  -0.94393
 Alpha  occ. eigenvalues --   -0.89631  -0.86197  -0.84418  -0.83793  -0.80108
 Alpha  occ. eigenvalues --   -0.79797  -0.79651  -0.79545  -0.79146  -0.78900
 Alpha  occ. eigenvalues --   -0.75899  -0.74722  -0.74656  -0.74654  -0.73882
 Alpha  occ. eigenvalues --   -0.73647  -0.73142  -0.72310  -0.72307  -0.71919
 Alpha  occ. eigenvalues --   -0.69852  -0.68466  -0.68141  -0.67224  -0.67182
 Alpha  occ. eigenvalues --   -0.66722  -0.66520  -0.66376  -0.66334  -0.66273
 Alpha  occ. eigenvalues --   -0.66012  -0.65146  -0.64905  -0.64881  -0.64728
 Alpha  occ. eigenvalues --   -0.64725  -0.64237  -0.63857  -0.63836  -0.63664
 Alpha  occ. eigenvalues --   -0.63095  -0.62540  -0.62496  -0.61632  -0.61236
 Alpha  occ. eigenvalues --   -0.59836  -0.59147  -0.58013  -0.57566  -0.55007
 Alpha  occ. eigenvalues --   -0.54997  -0.54211  -0.51035  -0.50941  -0.50860
 Alpha  occ. eigenvalues --   -0.47508  -0.45853
 Alpha virt. eigenvalues --   -0.19305  -0.15988  -0.13878  -0.13836  -0.10245
 Alpha virt. eigenvalues --   -0.10244  -0.09883  -0.09188  -0.09170  -0.07835
 Alpha virt. eigenvalues --   -0.06048  -0.05962  -0.05052  -0.04662  -0.04265
 Alpha virt. eigenvalues --   -0.04028  -0.03872  -0.03575  -0.02651  -0.02424
 Alpha virt. eigenvalues --   -0.02309  -0.01946  -0.01721  -0.01680  -0.01269
 Alpha virt. eigenvalues --   -0.01180  -0.00730  -0.00687  -0.00585  -0.00078
 Alpha virt. eigenvalues --    0.00146   0.00345   0.00598   0.00608   0.00617
 Alpha virt. eigenvalues --    0.00896   0.01196   0.01469   0.01976   0.02003
 Alpha virt. eigenvalues --    0.02352   0.02505   0.02668   0.03022   0.03207
 Alpha virt. eigenvalues --    0.03461   0.03925   0.04258   0.05060   0.05148
 Alpha virt. eigenvalues --    0.05279   0.05317   0.05746   0.05978   0.07501
 Alpha virt. eigenvalues --    0.07927   0.08127   0.08375   0.08417   0.08496
 Alpha virt. eigenvalues --    0.08643   0.08664   0.08709   0.09398   0.09764
 Alpha virt. eigenvalues --    0.09919   0.10671   0.10695   0.11921   0.12378
 Alpha virt. eigenvalues --    0.12701   0.12916   0.13410   0.13669   0.13858
 Alpha virt. eigenvalues --    0.13902   0.14783   0.14841   0.15034   0.15888
 Alpha virt. eigenvalues --    0.16031   0.16078   0.16729   0.16975   0.17839
 Alpha virt. eigenvalues --    0.18134   0.18177   0.18315   0.18762   0.18767
 Alpha virt. eigenvalues --    0.18873   0.18932   0.19275   0.20029   0.20060
 Alpha virt. eigenvalues --    0.20106   0.20435   0.21061   0.21604   0.21672
 Alpha virt. eigenvalues --    0.21856   0.22385   0.22439   0.23131   0.24062
 Alpha virt. eigenvalues --    0.24445   0.24610   0.24698   0.24935   0.25440
 Alpha virt. eigenvalues --    0.25544   0.25705   0.26809   0.26838   0.27070
 Alpha virt. eigenvalues --    0.27281   0.27610   0.28043   0.28360   0.28773
 Alpha virt. eigenvalues --    0.29101   0.29810   0.30548   0.31297   0.31378
 Alpha virt. eigenvalues --    0.31598   0.31691   0.32004   0.32273   0.32325
 Alpha virt. eigenvalues --    0.32435   0.32586   0.32770   0.33156   0.33237
 Alpha virt. eigenvalues --    0.33427   0.33548   0.33955   0.34304   0.34307
 Alpha virt. eigenvalues --    0.34659   0.34812   0.34919   0.35650   0.35734
 Alpha virt. eigenvalues --    0.35886   0.35892   0.36640   0.36893   0.36904
 Alpha virt. eigenvalues --    0.36930   0.37409   0.37839   0.37893   0.38357
 Alpha virt. eigenvalues --    0.38743   0.38762   0.39640   0.39803   0.39972
 Alpha virt. eigenvalues --    0.40491   0.41248   0.41525   0.41549   0.41587
 Alpha virt. eigenvalues --    0.41669   0.41771   0.42046   0.42732   0.43143
 Alpha virt. eigenvalues --    0.43796   0.44509   0.44822   0.44903   0.45377
 Alpha virt. eigenvalues --    0.46661   0.46899   0.47088   0.48104   0.48222
 Alpha virt. eigenvalues --    0.48646   0.48871   0.49360   0.49945   0.51072
 Alpha virt. eigenvalues --    0.51130   0.51996   0.52247   0.52275   0.52839
 Alpha virt. eigenvalues --    0.53126   0.54153   0.54268   0.54475   0.54651
 Alpha virt. eigenvalues --    0.54810   0.56541   0.57192   0.57723   0.58025
 Alpha virt. eigenvalues --    0.58924   0.59267   0.59433   0.60141   0.60785
 Alpha virt. eigenvalues --    0.61606   0.61723   0.62720   0.62843   0.63146
 Alpha virt. eigenvalues --    0.63221   0.63372   0.65849   0.66055   0.67575
 Alpha virt. eigenvalues --    0.68850   0.69236   0.71417   0.72131   0.72148
 Alpha virt. eigenvalues --    0.72532   0.73128   0.76341   0.77501   0.77593
 Alpha virt. eigenvalues --    0.78025   0.87688   1.00047   1.00171   1.00215
 Alpha virt. eigenvalues --    1.00258   1.03819   1.06963   1.07494   1.09167
 Alpha virt. eigenvalues --    1.09196   1.09500   1.09596   1.09703   1.10433
 Alpha virt. eigenvalues --    1.10636   1.11221   1.11403   1.12017   1.12458
 Alpha virt. eigenvalues --    1.13030   1.13570   1.13688   1.13766   1.14179
 Alpha virt. eigenvalues --    1.14877   1.14960   1.16306   1.16523   1.17012
 Alpha virt. eigenvalues --    1.17081   1.17216   1.18519   1.18776   1.18889
 Alpha virt. eigenvalues --    1.19406   1.19986   1.20163   1.20220   1.20361
 Alpha virt. eigenvalues --    1.20862   1.21290   1.21443   1.21500   1.21655
 Alpha virt. eigenvalues --    1.22171   1.22372   1.22881   1.23489   1.23633
 Alpha virt. eigenvalues --    1.23751   1.23863   1.24107   1.24595   1.25354
 Alpha virt. eigenvalues --    1.25741   1.25815   1.25955   1.28190   1.28613
 Alpha virt. eigenvalues --    1.28863   1.29179   1.30394   1.30546   1.31030
 Alpha virt. eigenvalues --    1.31636   1.31717   1.31732   1.32424   1.32517
 Alpha virt. eigenvalues --    1.32535   1.32953   1.33038   1.33364   1.33701
 Alpha virt. eigenvalues --    1.34227   1.34327   1.34527   1.34947   1.35138
 Alpha virt. eigenvalues --    1.35607   1.35980   1.35991   1.36521   1.36757
 Alpha virt. eigenvalues --    1.37908   1.38781   1.39131   1.39370   1.39769
 Alpha virt. eigenvalues --    1.40006   1.40012   1.40550   1.40558   1.40926
 Alpha virt. eigenvalues --    1.41011   1.41346   1.41651   1.41729   1.41938
 Alpha virt. eigenvalues --    1.42711   1.42766   1.42936   1.43507   1.43812
 Alpha virt. eigenvalues --    1.43915   1.44083   1.44309   1.45167   1.45740
 Alpha virt. eigenvalues --    1.48115   1.48463   1.49199   1.49535   1.49583
 Alpha virt. eigenvalues --    1.49878   1.49905   1.51053   1.51257   1.51267
 Alpha virt. eigenvalues --    1.51289   1.52072   1.52222   1.52604   1.53072
 Alpha virt. eigenvalues --    1.54314   1.54346   1.54809   1.55411   1.55444
 Alpha virt. eigenvalues --    1.57144   1.57329   1.58350   1.58401   1.58469
 Alpha virt. eigenvalues --    1.59457   1.60473   1.60907   1.61353   1.61372
 Alpha virt. eigenvalues --    1.62149   1.63474   1.63568   1.63610   1.63669
 Alpha virt. eigenvalues --    1.63821   1.63965   1.64437   1.64606   1.64684
 Alpha virt. eigenvalues --    1.64938   1.65057   1.65386   1.65427   1.65711
 Alpha virt. eigenvalues --    1.66156   1.66175   1.66178   1.66385   1.66656
 Alpha virt. eigenvalues --    1.67646   1.67745   1.68158   1.68261   1.68288
 Alpha virt. eigenvalues --    1.69208   1.70685   1.70731   1.72504   1.72543
 Alpha virt. eigenvalues --    1.72719   1.73192   1.74173   1.74905   1.75069
 Alpha virt. eigenvalues --    1.75075   1.75893   1.75992   1.76150   1.77510
 Alpha virt. eigenvalues --    1.78176   1.79449   1.79580   1.80105   1.80513
 Alpha virt. eigenvalues --    1.81889   1.82217   1.84031   1.85041   1.85401
 Alpha virt. eigenvalues --    1.87473   1.87769   1.88687   1.88849   1.89321
 Alpha virt. eigenvalues --    1.89340   1.90070   1.91863   1.91888   1.92367
 Alpha virt. eigenvalues --    1.92466   1.93335   1.96285   1.96633   1.96935
 Alpha virt. eigenvalues --    1.97187   1.97829   1.97853   2.00165   2.01123
 Alpha virt. eigenvalues --    2.01260   2.01548   2.02516   2.02536   2.03311
 Alpha virt. eigenvalues --    2.03959   2.04998   2.05975   2.06400   2.07266
 Alpha virt. eigenvalues --    2.08211   2.08790   2.13311   2.13720   2.14167
 Alpha virt. eigenvalues --    2.14399   2.14782   2.15275   2.15376   2.16016
 Alpha virt. eigenvalues --    2.16158   2.16252   2.16538   2.16554   2.16785
 Alpha virt. eigenvalues --    2.17889   2.18082   2.18886   2.19044   2.19193
 Alpha virt. eigenvalues --    2.19610   2.19635   2.19897   2.20520   2.20723
 Alpha virt. eigenvalues --    2.21774   2.21781   2.22345   2.22371   2.22981
 Alpha virt. eigenvalues --    2.23135   2.23272   2.23502   2.23876   2.23931
 Alpha virt. eigenvalues --    2.24557   2.25071   2.30083   2.30412   2.30448
 Alpha virt. eigenvalues --    2.30589   2.32406   2.33158   2.33447   2.33538
 Alpha virt. eigenvalues --    2.33749   2.37101   2.37558   2.37934   2.38216
 Alpha virt. eigenvalues --    2.38221   2.39040   2.39103   2.39401   2.39776
 Alpha virt. eigenvalues --    2.40651   2.40689   2.41192   2.41819   2.42169
 Alpha virt. eigenvalues --    2.43065   2.43870   2.43948   2.44175   2.44308
 Alpha virt. eigenvalues --    2.44808   2.45050   2.45209   2.46717   2.47090
 Alpha virt. eigenvalues --    2.48897   2.49085   2.50236   2.50335   2.50952
 Alpha virt. eigenvalues --    2.51161   2.51539   2.52037   2.52205   2.53171
 Alpha virt. eigenvalues --    2.53477   2.54098   2.55846   2.56327   2.56665
 Alpha virt. eigenvalues --    2.57025   2.57525   2.59338   2.59573   2.59914
 Alpha virt. eigenvalues --    2.60301   2.60357   2.61231   2.61610   2.62238
 Alpha virt. eigenvalues --    2.62360   2.63490   2.63640   2.65009   2.65629
 Alpha virt. eigenvalues --    2.65736   2.68045   2.68855   2.69563   2.71778
 Alpha virt. eigenvalues --    2.71857   2.72014   2.73378   2.73381   2.74486
 Alpha virt. eigenvalues --    2.74673   2.81049   2.81193   2.86479   2.86824
 Alpha virt. eigenvalues --    2.87687   2.88263   2.89846   2.90464   2.93116
 Alpha virt. eigenvalues --    2.93695   2.94874   2.95067   2.95824   2.96549
 Alpha virt. eigenvalues --    2.96609   2.98233   2.98392   2.98402   2.99465
 Alpha virt. eigenvalues --    2.99598   3.01696   3.02219   3.02692   3.03589
 Alpha virt. eigenvalues --    3.07736   3.08755   3.08929   3.09203   3.11739
 Alpha virt. eigenvalues --    3.13650   3.14841   3.15225   3.15360   3.15911
 Alpha virt. eigenvalues --    3.15921   3.15943   3.16658   3.16681   3.17214
 Alpha virt. eigenvalues --    3.18336   3.18393   3.18892   3.21177   3.21245
 Alpha virt. eigenvalues --    3.21614   3.21973   3.23441   3.24610   3.24880
 Alpha virt. eigenvalues --    3.25478   3.27791   3.29428   3.29605   3.29792
 Alpha virt. eigenvalues --    3.30038   3.31167   3.31756   3.43922   3.45593
 Alpha virt. eigenvalues --    3.50774   3.55841   3.57228   3.57955   3.66943
 Alpha virt. eigenvalues --    3.67019   3.67548   3.72612   3.83539   3.83658
 Alpha virt. eigenvalues --   21.05480  21.17010  21.35326  21.35619  21.41853
 Alpha virt. eigenvalues --   21.53558  21.53948  21.56877  21.62839  21.63223
 Alpha virt. eigenvalues --   21.63394  21.68927  21.73071  21.79701  21.79750
 Alpha virt. eigenvalues --   21.80591  21.83334  21.83668  21.84092  21.85405
 Alpha virt. eigenvalues --   21.94412  21.96880  22.02926  22.04056  22.06104
 Alpha virt. eigenvalues --   22.06357  31.49139  31.49442  31.63557  31.63822
          Condensed to atoms (all electrons):
 Mulliken charges:
               1
     1  C   -0.093420
     2  C    0.144727
     3  C   -0.150093
     4  C   -0.093423
     5  C    0.016116
     6  C   -0.150067
     7  H    0.159886
     8  H    0.155750
     9  H    0.159872
    10  C    0.016140
    11  C   -0.150061
    12  C   -0.150102
    13  C   -0.093437
    14  C   -0.093408
    15  C    0.144726
    16  H    0.159868
    17  H    0.159885
    18  H    0.155752
    19  H    0.155730
    20  H    0.155728
    21  C   -0.474872
    22  C    0.073097
    23  C    0.073023
    24  N    0.017759
    25  N    0.017820
    26  C   -0.256355
    27  H    0.177713
    28  H    0.152480
    29  H    0.173649
    30  C   -0.258143
    31  H    0.173303
    32  H    0.184621
    33  H    0.146895
    34  C   -0.256693
    35  H    0.177797
    36  H    0.152525
    37  H    0.173748
    38  C   -0.258707
    39  H    0.173399
    40  H    0.184742
    41  H    0.147113
    42  C   -0.474891
    43  C    0.073111
    44  C    0.073052
    45  N    0.017804
    46  N    0.017814
    47  C   -0.256455
    48  H    0.177744
    49  H    0.152483
    50  H    0.173680
    51  C   -0.258359
    52  H    0.173339
    53  H    0.184664
    54  H    0.146976
    55  C   -0.256639
    56  H    0.177789
    57  H    0.152519
    58  H    0.173726
    59  C   -0.258594
    60  H    0.173381
    61  H    0.184717
    62  H    0.147058
 Sum of Mulliken charges =   2.00000
 Mulliken charges with hydrogens summed into heavy atoms:
               1
     1  C    0.062308
     2  C    0.144727
     3  C    0.009792
     4  C    0.062327
     5  C    0.016116
     6  C    0.009804
    10  C    0.016140
    11  C    0.009808
    12  C    0.009784
    13  C    0.062315
    14  C    0.062322
    15  C    0.144726
    21  C   -0.474872
    22  C    0.073097
    23  C    0.073023
    24  N    0.017759
    25  N    0.017820
    26  C    0.247487
    30  C    0.246676
    34  C    0.247376
    38  C    0.246548
    42  C   -0.474891
    43  C    0.073111
    44  C    0.073052
    45  N    0.017804
    46  N    0.017814
    47  C    0.247451
    51  C    0.246619
    55  C    0.247395
    59  C    0.246562
 Electronic spatial extent (au):  <R**2>=          26736.7579
 Charge=              2.0000 electrons
 Dipole moment (field-independent basis, Debye):
    X=             -0.0002    Y=              0.0001    Z=             -0.0004  Tot=              0.0005
 Quadrupole moment (field-independent basis, Debye-Ang):
   XX=            267.1411   YY=           -135.4678   ZZ=           -143.8433
   XY=              0.0040   XZ=              0.0008   YZ=             -0.0014
 Traceless Quadrupole moment (field-independent basis, Debye-Ang):
   XX=            271.1977   YY=           -131.4111   ZZ=           -139.7866
   XY=              0.0040   XZ=              0.0008   YZ=             -0.0014
 Octapole moment (field-independent basis, Debye-Ang**2):
  XXX=             -0.0072  YYY=              0.0097  ZZZ=              0.0048  XYY=              0.0363
  XXY=              0.0034  XXZ=             -0.0264  XZZ=             -0.0390  YZZ=             -0.0032
  YYZ=             -0.0157  XYZ=           -193.2364
 Hexadecapole moment (field-independent basis, Debye-Ang**3):
 XXXX=          -6134.7379 YYYY=          -1881.9204 ZZZZ=          -1399.6085 XXXY=              0.1095
 XXXZ=              0.2440 YYYX=              0.0062 YYYZ=             -0.0141 ZZZX=             -0.0259
 ZZZY=              0.0128 XXYY=          -3749.5884 XXZZ=          -4501.5331 YYZZ=           -504.4890
 XXYZ=              0.0680 YYXZ=              0.0340 ZZXY=              0.0829
 N-N= 2.573943895187D+03 E-N=-7.955808260825D+03  KE= 1.222724704319D+03
 No NMR shielding tensors so no spin-rotation constants.
 Leave Link  601 at Tue Jan 26 12:13:19 2021, MaxMem=  4026531840 cpu:               5.2 elap:               0.7
 (Enter /opt/ohpc/pub/libs/gaussian/g16-A.03/sandybridge/g16/l9999.exe)

 Test job not archived.
 1\1\GINC-CNODE145\SP\RLC-wHPBE\TZVP\C26H32N4(2+)\RDU230\26-Jan-2021\0\
 \#P LC-wHPBE/TZVP iop(3/107=0200200000, 3/108=0200200000) scf=(conver=
 6,fermi,ndamp=35,noincfock,novaracc,vshift=500,xqc)\\H32 C26 N4\\2,1\C
 ,0,-2.823961,0.444264,1.111805\C,0,-3.524911,0.0001,0.000001\C,0,-1.44
 7297,0.438089,1.110761\C,0,-2.823968,-0.444049,-1.11184\C,0,-0.740218,
 0.000107,-0.000031\C,0,-1.447325,-0.43786,-1.11083\H,0,-0.914462,0.797
 765,1.980986\H,0,-3.355363,-0.783593,-1.991035\H,0,-0.914491,-0.79749,
 -1.981076\C,0,0.740229,0.000109,-0.000016\C,0,1.447379,0.437502,-1.110
 991\C,0,1.447259,-0.437322,1.111037\C,0,2.824033,0.443666,-1.111944\C,
 0,2.823909,-0.443539,1.112143\C,0,3.52491,0.000034,0.000126\H,0,0.9146
 14,0.796709,-1.981454\H,0,0.914365,-0.796519,1.981427\H,0,3.355477,0.7
 82802,-1.991269\H,0,3.355249,-0.782652,1.991539\H,0,-3.355316,0.783824
 ,1.991014\C,0,4.975135,0.000032,0.000145\C,0,6.14652,-0.565054,0.40804
 3\C,0,6.146453,0.56505,-0.408017\N,0,6.78098,-1.491697,1.066857\N,0,6.
 780843,1.491604,-1.067037\C,0,6.057956,-2.591048,1.684578\H,0,6.154708
 ,-2.5451,2.768364\H,0,5.008879,-2.544629,1.410837\H,0,6.464629,-3.5373
 19,1.332266\C,0,8.228734,-1.518275,1.186143\H,0,8.494477,-1.775383,2.2
 09103\H,0,8.659441,-2.259109,0.51335\H,0,8.642938,-0.539771,0.968827\C
 ,0,6.05773,2.591089,-1.684422\H,0,6.153192,2.544651,-2.768303\H,0,5.00
 8941,2.545387,-1.409434\H,0,6.465326,3.537274,-1.332961\C,0,8.228631,1
 .518112,-1.186291\H,0,8.494234,1.779605,-2.208151\H,0,8.659838,2.25582
 7,-0.510389\H,0,8.642467,0.538433,-0.973542\C,0,-4.975109,0.000078,0.0
 00026\C,0,-6.146534,0.56508,0.407916\C,0,-6.146403,-0.565147,-0.407945
 \N,0,-6.781069,1.491701,1.066705\N,0,-6.780732,-1.491927,-1.0667\C,0,-
 6.058202,2.591312,1.684129\H,0,-6.154554,2.545406,2.767953\H,0,-5.0092
 05,2.545245,1.410016\H,0,-6.465319,3.537423,1.331906\C,0,-8.228858,1.5
 18145,1.185797\H,0,-8.494704,1.776946,2.208295\H,0,-8.659724,2.257735,
 0.511728\H,0,-8.642813,0.539154,0.970202\C,0,-6.057561,-2.59137,-1.684
 106\H,0,-6.153074,-2.544964,-2.767982\H,0,-5.008776,-2.545628,-1.40912
 2\H,0,-6.465122,-3.537559,-1.33261\C,0,-8.228499,-1.518584,-1.185941\H
 ,0,-8.494145,-1.779106,-2.208049\H,0,-8.65952,-2.25704,-0.510729\H,0,-
 8.642516,-0.539209,-0.97216\\Version=EM64L-G16RevA.03\State=1-A\HF=-12
 27.6744947\RMSD=7.194e-07\Dipole=0.0000817,-0.0000496,-0.0001665\Quadr
 upole=201.6288801,-97.7009338,-103.9279463,0.0029881,-0.0006027,0.0010
 393\PG=C01 [X(C26H32N4)]\\@


 IT'S WHAT A FELLER THINKS HE KNOWS THAT HURTS HIM...
                    ------
           KIN HUBBARD
 Job cpu time:       0 days  1 hours 57 minutes  0.8 seconds.
 Elapsed time:       0 days  0 hours 14 minutes 50.2 seconds.
 File lengths (MBytes):  RWF=    228 Int=      0 D2E=      0 Chk=     40 Scr=      8
 Normal termination of Gaussian 16 at Tue Jan 26 12:13:19 2021.
