 Entering Gaussian System, Link 0=g16
 Input=mol_bp_cp_whol_tune_n7.gjf
 Output=mol_bp_cp_whol_tune_n7.log
 Initial command:
 /opt/ohpc/pub/libs/gaussian/g16-A.03/sandybridge/g16/l1.exe "/mnt/gpfs2_4m/scratch/rdu230/ondemand/projects/init_structures/gaussian/wtuning/mol_bp_cp_whol/tuning_mol_bp_cp_whol_ocycle0/Gau-60841.inp" -scrdir="/mnt/gpfs2_4m/scratch/rdu230/ondemand/projects/init_structures/gaussian/wtuning/mol_bp_cp_whol/tuning_mol_bp_cp_whol_ocycle0/"
 Entering Link 1 = /opt/ohpc/pub/libs/gaussian/g16-A.03/sandybridge/g16/l1.exe PID=     60842.
  
 Copyright (c) 1988,1990,1992,1993,1995,1998,2003,2009,2016,
            Gaussian, Inc.  All Rights Reserved.
  
 This is part of the Gaussian(R) 16 program.  It is based on
 the Gaussian(R) 09 system (copyright 2009, Gaussian, Inc.),
 the Gaussian(R) 03 system (copyright 2003, Gaussian, Inc.),
 the Gaussian(R) 98 system (copyright 1998, Gaussian, Inc.),
 the Gaussian(R) 94 system (copyright 1995, Gaussian, Inc.),
 the Gaussian 92(TM) system (copyright 1992, Gaussian, Inc.),
 the Gaussian 90(TM) system (copyright 1990, Gaussian, Inc.),
 the Gaussian 88(TM) system (copyright 1988, Gaussian, Inc.),
 the Gaussian 86(TM) system (copyright 1986, Carnegie Mellon
 University), and the Gaussian 82(TM) system (copyright 1983,
 Carnegie Mellon University). Gaussian is a federally registered
 trademark of Gaussian, Inc.
  
 This software contains proprietary and confidential information,
 including trade secrets, belonging to Gaussian, Inc.
  
 This software is provided under written license and may be
 used, copied, transmitted, or stored only in accord with that
 written license.
  
 The following legend is applicable only to US Government
 contracts under FAR:
  
                    RESTRICTED RIGHTS LEGEND
  
 Use, reproduction and disclosure by the US Government is
 subject to restrictions as set forth in subparagraphs (a)
 and (c) of the Commercial Computer Software - Restricted
 Rights clause in FAR 52.227-19.
  
 Gaussian, Inc.
 340 Quinnipiac St., Bldg. 40, Wallingford CT 06492
  
  
 ---------------------------------------------------------------
 Warning -- This program may not be used in any manner that
 competes with the business of Gaussian, Inc. or will provide
 assistance to any competitor of Gaussian, Inc.  The licensee
 of this program is prohibited from giving any competitor of
 Gaussian, Inc. access to this program.  By using this program,
 the user acknowledges that Gaussian, Inc. is engaged in the
 business of creating and licensing software in the field of
 computational chemistry and represents and warrants to the
 licensee that it is not a competitor of Gaussian, Inc. and that
 it will not use this program in any manner prohibited above.
 ---------------------------------------------------------------
  

 Cite this work as:
 Gaussian 16, Revision A.03,
 M. J. Frisch, G. W. Trucks, H. B. Schlegel, G. E. Scuseria, 
 M. A. Robb, J. R. Cheeseman, G. Scalmani, V. Barone, 
 G. A. Petersson, H. Nakatsuji, X. Li, M. Caricato, A. V. Marenich, 
 J. Bloino, B. G. Janesko, R. Gomperts, B. Mennucci, H. P. Hratchian, 
 J. V. Ortiz, A. F. Izmaylov, J. L. Sonnenberg, D. Williams-Young, 
 F. Ding, F. Lipparini, F. Egidi, J. Goings, B. Peng, A. Petrone, 
 T. Henderson, D. Ranasinghe, V. G. Zakrzewski, J. Gao, N. Rega, 
 G. Zheng, W. Liang, M. Hada, M. Ehara, K. Toyota, R. Fukuda, 
 J. Hasegawa, M. Ishida, T. Nakajima, Y. Honda, O. Kitao, H. Nakai, 
 T. Vreven, K. Throssell, J. A. Montgomery, Jr., J. E. Peralta, 
 F. Ogliaro, M. J. Bearpark, J. J. Heyd, E. N. Brothers, K. N. Kudin, 
 V. N. Staroverov, T. A. Keith, R. Kobayashi, J. Normand, 
 K. Raghavachari, A. P. Rendell, J. C. Burant, S. S. Iyengar, 
 J. Tomasi, M. Cossi, J. M. Millam, M. Klene, C. Adamo, R. Cammi, 
 J. W. Ochterski, R. L. Martin, K. Morokuma, O. Farkas, 
 J. B. Foresman, and D. J. Fox, Gaussian, Inc., Wallingford CT, 2016.
 
 ******************************************
 Gaussian 16:  EM64L-G16RevA.03 25-Dec-2016
                26-Jan-2021 
 ******************************************
 %mem=30GB
 %nproc=8
 Will use up to    8 processors via shared memory.
 ----------------------------------------------------------------------
 #P LC-wHPBE/TZVP iop(3/107=0197300000, 3/108=0197300000) scf=(conver=6
 ,fermi,ndamp=35,noincfock,novaracc,vshift=500,xqc)
 ----------------------------------------------------------------------
 1/38=1,172=1/1;
 2/12=2,17=6,18=5,40=1/2;
 3/5=19,7=101,11=2,25=1,30=1,74=-71,107=197300000,108=197300000/1,2,3;
 4//1;
 5/5=100002,6=6,8=3,10=500,13=1,18=-1,22=13,38=1,93=35/2,8;
 6/7=2,8=2,9=2,10=2,28=1/1;
 99/5=1,9=1/99;
 Leave Link    1 at Tue Jan 26 10:05:52 2021, MaxMem=  4026531840 cpu:               1.5 elap:               0.2
 (Enter /opt/ohpc/pub/libs/gaussian/g16-A.03/sandybridge/g16/l101.exe)
 ----------
 H32 C26 N4
 ----------
 Symbolic Z-matrix:
 Charge =  2 Multiplicity = 1
 C                    -2.82396   0.44426   1.1118 
 C                    -3.52491   0.0001    0. 
 C                    -1.4473    0.43809   1.11076 
 C                    -2.82397  -0.44405  -1.11184 
 C                    -0.74022   0.00011  -0.00003 
 C                    -1.44733  -0.43786  -1.11083 
 H                    -0.91446   0.79777   1.98099 
 H                    -3.35536  -0.78359  -1.99104 
 H                    -0.91449  -0.79749  -1.98108 
 C                     0.74023   0.00011  -0.00002 
 C                     1.44738   0.4375   -1.11099 
 C                     1.44726  -0.43732   1.11104 
 C                     2.82403   0.44367  -1.11194 
 C                     2.82391  -0.44354   1.11214 
 C                     3.52491   0.00003   0.00013 
 H                     0.91461   0.79671  -1.98145 
 H                     0.91437  -0.79652   1.98143 
 H                     3.35548   0.7828   -1.99127 
 H                     3.35525  -0.78265   1.99154 
 H                    -3.35532   0.78382   1.99101 
 C                     4.97514   0.00003   0.00015 
 C                     6.14652  -0.56505   0.40804 
 C                     6.14645   0.56505  -0.40802 
 N                     6.78098  -1.4917    1.06686 
 N                     6.78084   1.4916   -1.06704 
 C                     6.05796  -2.59105   1.68458 
 H                     6.15471  -2.5451    2.76836 
 H                     5.00888  -2.54463   1.41084 
 H                     6.46463  -3.53732   1.33227 
 C                     8.22873  -1.51828   1.18614 
 H                     8.49448  -1.77538   2.2091 
 H                     8.65944  -2.25911   0.51335 
 H                     8.64294  -0.53977   0.96883 
 C                     6.05773   2.59109  -1.68442 
 H                     6.15319   2.54465  -2.7683 
 H                     5.00894   2.54539  -1.40943 
 H                     6.46533   3.53727  -1.33296 
 C                     8.22863   1.51811  -1.18629 
 H                     8.49423   1.77961  -2.20815 
 H                     8.65984   2.25583  -0.51039 
 H                     8.64247   0.53843  -0.97354 
 C                    -4.97511   0.00008   0.00003 
 C                    -6.14653   0.56508   0.40792 
 C                    -6.1464   -0.56515  -0.40795 
 N                    -6.78107   1.4917    1.06671 
 N                    -6.78073  -1.49193  -1.0667 
 C                    -6.0582    2.59131   1.68413 
 H                    -6.15455   2.54541   2.76795 
 H                    -5.0092    2.54525   1.41002 
 H                    -6.46532   3.53742   1.33191 
 C                    -8.22886   1.51815   1.1858 
 H                    -8.4947    1.77695   2.2083 
 H                    -8.65972   2.25774   0.51173 
 H                    -8.64281   0.53915   0.9702 
 C                    -6.05756  -2.59137  -1.68411 
 H                    -6.15307  -2.54496  -2.76798 
 H                    -5.00878  -2.54563  -1.40912 
 H                    -6.46512  -3.53756  -1.33261 
 C                    -8.2285   -1.51858  -1.18594 
 H                    -8.49414  -1.77911  -2.20805 
 H                    -8.65952  -2.25704  -0.51073 
 H                    -8.64252  -0.53921  -0.97216 
 
 ITRead=  0  0  0  0  0  0  0  0  0  0  0  0  0  0  0  0  0  0  0  0
 ITRead=  0  0  0  0  0  0  0  0  0  0  0  0  0  0  0  0  0  0  0  0
 ITRead=  0  0  0  0  0  0  0  0  0  0  0  0  0  0  0  0  0  0  0  0
 ITRead=  0  0
 MicOpt= -1 -1 -1 -1 -1 -1 -1 -1 -1 -1 -1 -1 -1 -1 -1 -1 -1 -1 -1 -1
 MicOpt= -1 -1 -1 -1 -1 -1 -1 -1 -1 -1 -1 -1 -1 -1 -1 -1 -1 -1 -1 -1
 MicOpt= -1 -1 -1 -1 -1 -1 -1 -1 -1 -1 -1 -1 -1 -1 -1 -1 -1 -1 -1 -1
 MicOpt= -1 -1
 NAtoms=     62 NQM=       62 NQMF=       0 NMMI=      0 NMMIF=      0
                NMic=       0 NMicF=      0.
                    Isotopes and Nuclear Properties:
 (Nuclear quadrupole moments (NQMom) in fm**2, nuclear magnetic moments (NMagM)
  in nuclear magnetons)

  Atom         1           2           3           4           5           6           7           8           9          10
 IAtWgt=          12          12          12          12          12          12           1           1           1          12
 AtmWgt=  12.0000000  12.0000000  12.0000000  12.0000000  12.0000000  12.0000000   1.0078250   1.0078250   1.0078250  12.0000000
 NucSpn=           0           0           0           0           0           0           1           1           1           0
 AtZEff=  -0.0000000  -0.0000000  -0.0000000  -0.0000000  -0.0000000  -0.0000000  -0.0000000  -0.0000000  -0.0000000  -0.0000000
 NQMom=    0.0000000   0.0000000   0.0000000   0.0000000   0.0000000   0.0000000   0.0000000   0.0000000   0.0000000   0.0000000
 NMagM=    0.0000000   0.0000000   0.0000000   0.0000000   0.0000000   0.0000000   2.7928460   2.7928460   2.7928460   0.0000000
 AtZNuc=   6.0000000   6.0000000   6.0000000   6.0000000   6.0000000   6.0000000   1.0000000   1.0000000   1.0000000   6.0000000

  Atom        11          12          13          14          15          16          17          18          19          20
 IAtWgt=          12          12          12          12          12           1           1           1           1           1
 AtmWgt=  12.0000000  12.0000000  12.0000000  12.0000000  12.0000000   1.0078250   1.0078250   1.0078250   1.0078250   1.0078250
 NucSpn=           0           0           0           0           0           1           1           1           1           1
 AtZEff=  -0.0000000  -0.0000000  -0.0000000  -0.0000000  -0.0000000  -0.0000000  -0.0000000  -0.0000000  -0.0000000  -0.0000000
 NQMom=    0.0000000   0.0000000   0.0000000   0.0000000   0.0000000   0.0000000   0.0000000   0.0000000   0.0000000   0.0000000
 NMagM=    0.0000000   0.0000000   0.0000000   0.0000000   0.0000000   2.7928460   2.7928460   2.7928460   2.7928460   2.7928460
 AtZNuc=   6.0000000   6.0000000   6.0000000   6.0000000   6.0000000   1.0000000   1.0000000   1.0000000   1.0000000   1.0000000

  Atom        21          22          23          24          25          26          27          28          29          30
 IAtWgt=          12          12          12          14          14          12           1           1           1          12
 AtmWgt=  12.0000000  12.0000000  12.0000000  14.0030740  14.0030740  12.0000000   1.0078250   1.0078250   1.0078250  12.0000000
 NucSpn=           0           0           0           2           2           0           1           1           1           0
 AtZEff=  -0.0000000  -0.0000000  -0.0000000  -0.0000000  -0.0000000  -0.0000000  -0.0000000  -0.0000000  -0.0000000  -0.0000000
 NQMom=    0.0000000   0.0000000   0.0000000   2.0440000   2.0440000   0.0000000   0.0000000   0.0000000   0.0000000   0.0000000
 NMagM=    0.0000000   0.0000000   0.0000000   0.4037610   0.4037610   0.0000000   2.7928460   2.7928460   2.7928460   0.0000000
 AtZNuc=   6.0000000   6.0000000   6.0000000   7.0000000   7.0000000   6.0000000   1.0000000   1.0000000   1.0000000   6.0000000

  Atom        31          32          33          34          35          36          37          38          39          40
 IAtWgt=           1           1           1          12           1           1           1          12           1           1
 AtmWgt=   1.0078250   1.0078250   1.0078250  12.0000000   1.0078250   1.0078250   1.0078250  12.0000000   1.0078250   1.0078250
 NucSpn=           1           1           1           0           1           1           1           0           1           1
 AtZEff=  -0.0000000  -0.0000000  -0.0000000  -0.0000000  -0.0000000  -0.0000000  -0.0000000  -0.0000000  -0.0000000  -0.0000000
 NQMom=    0.0000000   0.0000000   0.0000000   0.0000000   0.0000000   0.0000000   0.0000000   0.0000000   0.0000000   0.0000000
 NMagM=    2.7928460   2.7928460   2.7928460   0.0000000   2.7928460   2.7928460   2.7928460   0.0000000   2.7928460   2.7928460
 AtZNuc=   1.0000000   1.0000000   1.0000000   6.0000000   1.0000000   1.0000000   1.0000000   6.0000000   1.0000000   1.0000000

  Atom        41          42          43          44          45          46          47          48          49          50
 IAtWgt=           1          12          12          12          14          14          12           1           1           1
 AtmWgt=   1.0078250  12.0000000  12.0000000  12.0000000  14.0030740  14.0030740  12.0000000   1.0078250   1.0078250   1.0078250
 NucSpn=           1           0           0           0           2           2           0           1           1           1
 AtZEff=  -0.0000000  -0.0000000  -0.0000000  -0.0000000  -0.0000000  -0.0000000  -0.0000000  -0.0000000  -0.0000000  -0.0000000
 NQMom=    0.0000000   0.0000000   0.0000000   0.0000000   2.0440000   2.0440000   0.0000000   0.0000000   0.0000000   0.0000000
 NMagM=    2.7928460   0.0000000   0.0000000   0.0000000   0.4037610   0.4037610   0.0000000   2.7928460   2.7928460   2.7928460
 AtZNuc=   1.0000000   6.0000000   6.0000000   6.0000000   7.0000000   7.0000000   6.0000000   1.0000000   1.0000000   1.0000000

  Atom        51          52          53          54          55          56          57          58          59          60
 IAtWgt=          12           1           1           1          12           1           1           1          12           1
 AtmWgt=  12.0000000   1.0078250   1.0078250   1.0078250  12.0000000   1.0078250   1.0078250   1.0078250  12.0000000   1.0078250
 NucSpn=           0           1           1           1           0           1           1           1           0           1
 AtZEff=  -0.0000000  -0.0000000  -0.0000000  -0.0000000  -0.0000000  -0.0000000  -0.0000000  -0.0000000  -0.0000000  -0.0000000
 NQMom=    0.0000000   0.0000000   0.0000000   0.0000000   0.0000000   0.0000000   0.0000000   0.0000000   0.0000000   0.0000000
 NMagM=    0.0000000   2.7928460   2.7928460   2.7928460   0.0000000   2.7928460   2.7928460   2.7928460   0.0000000   2.7928460
 AtZNuc=   6.0000000   1.0000000   1.0000000   1.0000000   6.0000000   1.0000000   1.0000000   1.0000000   6.0000000   1.0000000

  Atom        61          62
 IAtWgt=           1           1
 AtmWgt=   1.0078250   1.0078250
 NucSpn=           1           1
 AtZEff=  -0.0000000  -0.0000000
 NQMom=    0.0000000   0.0000000
 NMagM=    2.7928460   2.7928460
 AtZNuc=   1.0000000   1.0000000
 Leave Link  101 at Tue Jan 26 10:05:52 2021, MaxMem=  4026531840 cpu:               0.9 elap:               0.1
 (Enter /opt/ohpc/pub/libs/gaussian/g16-A.03/sandybridge/g16/l202.exe)
 Stoichiometry    C26H32N4(2+)
 Framework group  C1[X(C26H32N4)]
 Deg. of freedom   180
 Full point group                 C1      NOp   1
 Largest Abelian subgroup         C1      NOp   1
 Largest concise Abelian subgroup C1      NOp   1
                         Standard orientation:                         
 ---------------------------------------------------------------------
 Center     Atomic      Atomic             Coordinates (Angstroms)
 Number     Number       Type             X           Y           Z
 ---------------------------------------------------------------------
      1          6           0        2.823961   -0.444264    1.111805
      2          6           0        3.524911   -0.000100    0.000001
      3          6           0        1.447297   -0.438089    1.110761
      4          6           0        2.823968    0.444049   -1.111840
      5          6           0        0.740218   -0.000107   -0.000031
      6          6           0        1.447325    0.437860   -1.110830
      7          1           0        0.914462   -0.797765    1.980986
      8          1           0        3.355363    0.783593   -1.991035
      9          1           0        0.914491    0.797490   -1.981076
     10          6           0       -0.740229   -0.000109   -0.000016
     11          6           0       -1.447379   -0.437502   -1.110991
     12          6           0       -1.447259    0.437322    1.111037
     13          6           0       -2.824033   -0.443666   -1.111944
     14          6           0       -2.823909    0.443539    1.112143
     15          6           0       -3.524910   -0.000034    0.000126
     16          1           0       -0.914614   -0.796709   -1.981454
     17          1           0       -0.914365    0.796519    1.981427
     18          1           0       -3.355477   -0.782802   -1.991269
     19          1           0       -3.355249    0.782652    1.991539
     20          1           0        3.355316   -0.783824    1.991014
     21          6           0       -4.975135   -0.000032    0.000145
     22          6           0       -6.146520    0.565054    0.408043
     23          6           0       -6.146453   -0.565050   -0.408017
     24          7           0       -6.780980    1.491697    1.066857
     25          7           0       -6.780843   -1.491604   -1.067037
     26          6           0       -6.057956    2.591048    1.684578
     27          1           0       -6.154708    2.545100    2.768364
     28          1           0       -5.008879    2.544629    1.410837
     29          1           0       -6.464629    3.537319    1.332266
     30          6           0       -8.228734    1.518275    1.186143
     31          1           0       -8.494477    1.775383    2.209103
     32          1           0       -8.659441    2.259109    0.513350
     33          1           0       -8.642938    0.539771    0.968827
     34          6           0       -6.057730   -2.591089   -1.684422
     35          1           0       -6.153192   -2.544651   -2.768303
     36          1           0       -5.008941   -2.545387   -1.409434
     37          1           0       -6.465326   -3.537274   -1.332961
     38          6           0       -8.228631   -1.518112   -1.186291
     39          1           0       -8.494234   -1.779605   -2.208151
     40          1           0       -8.659838   -2.255827   -0.510389
     41          1           0       -8.642467   -0.538433   -0.973542
     42          6           0        4.975109   -0.000078    0.000026
     43          6           0        6.146534   -0.565080    0.407916
     44          6           0        6.146403    0.565147   -0.407945
     45          7           0        6.781069   -1.491701    1.066705
     46          7           0        6.780732    1.491927   -1.066700
     47          6           0        6.058202   -2.591312    1.684129
     48          1           0        6.154554   -2.545406    2.767953
     49          1           0        5.009205   -2.545245    1.410016
     50          1           0        6.465319   -3.537423    1.331906
     51          6           0        8.228858   -1.518145    1.185797
     52          1           0        8.494704   -1.776946    2.208295
     53          1           0        8.659724   -2.257735    0.511728
     54          1           0        8.642813   -0.539154    0.970202
     55          6           0        6.057561    2.591370   -1.684106
     56          1           0        6.153074    2.544964   -2.767982
     57          1           0        5.008776    2.545628   -1.409122
     58          1           0        6.465122    3.537559   -1.332610
     59          6           0        8.228499    1.518584   -1.185941
     60          1           0        8.494145    1.779106   -2.208049
     61          1           0        8.659520    2.257040   -0.510729
     62          1           0        8.642516    0.539209   -0.972160
 ---------------------------------------------------------------------
 Rotational constants (GHZ):           0.4108366           0.0399477           0.0392121
 Leave Link  202 at Tue Jan 26 10:05:52 2021, MaxMem=  4026531840 cpu:               0.1 elap:               0.0
 (Enter /opt/ohpc/pub/libs/gaussian/g16-A.03/sandybridge/g16/l301.exe)
 Standard basis: TZVP (5D, 7F)
 Ernie: Thresh=  0.10000D-02 Tol=  0.10000D-05 Strict=F.
 There are   792 symmetry adapted cartesian basis functions of A   symmetry.
 There are   762 symmetry adapted basis functions of A   symmetry.
   762 basis functions,  1306 primitive gaussians,   792 cartesian basis functions
   107 alpha electrons      107 beta electrons
       nuclear repulsion energy      2573.9438951873 Hartrees.
 IExCor=33909 DFT=T Ex+Corr=LC-wHPBE ExCW=0 ScaHFX=  1.000000
 ScaDFX=  1.000000  1.000000  1.000000  1.000000 ScalE2=  1.000000  1.000000
 IRadAn=      5 IRanWt=     -1 IRanGd=            0 ICorTp=0 IEmpDi=  4
 HFx  wShort=  0.000000 wLong=  0.197300 cFull=  0.000000 cShort=  0.000000 cLong=  1.000000
 DFx  wShort=  0.000000 wLong=  0.197300 cFull=  0.000000 cShort=  1.000000 cLong=  0.000000
 NAtoms=   62 NActive=   62 NUniq=   62 SFac= 1.00D+00 NAtFMM=   60 NAOKFM=T Big=T
 Integral buffers will be    131072 words long.
 Raffenetti 2 integral format.
 Two-electron integral symmetry is turned on.
 Leave Link  301 at Tue Jan 26 10:05:52 2021, MaxMem=  4026531840 cpu:               0.5 elap:               0.1
 (Enter /opt/ohpc/pub/libs/gaussian/g16-A.03/sandybridge/g16/l302.exe)
 NPDir=0 NMtPBC=     1 NCelOv=     1 NCel=       1 NClECP=     1 NCelD=      1
         NCelK=      1 NCelE2=     1 NClLst=     1 CellRange=     0.0.
 One-electron integrals computed using PRISM.
 One-electron integral symmetry used in STVInt
 NBasis=   762 RedAO= T EigKep=  6.76D-06  NBF=   762
 NBsUse=   762 1.00D-06 EigRej= -1.00D+00 NBFU=   762
 Precomputing XC quadrature grid using
 IXCGrd= 4 IRadAn=           5 IRanWt=          -1 IRanGd=           0 AccXCQ= 0.00D+00.
 Generated NRdTot=       0 NPtTot=           0 NUsed=           0 NTot=          32
 NSgBfM=   719   719   719   719   719 MxSgAt=    62 MxSgA2=    62.
 Leave Link  302 at Tue Jan 26 10:05:55 2021, MaxMem=  4026531840 cpu:              17.2 elap:               2.2
 (Enter /opt/ohpc/pub/libs/gaussian/g16-A.03/sandybridge/g16/l303.exe)
 DipDrv:  MaxL=1.
 Leave Link  303 at Tue Jan 26 10:05:55 2021, MaxMem=  4026531840 cpu:               1.3 elap:               0.2
 (Enter /opt/ohpc/pub/libs/gaussian/g16-A.03/sandybridge/g16/l401.exe)
 ExpMin= 9.52D-02 ExpMax= 1.97D+04 ExpMxC= 6.73D+02 IAcc=3 IRadAn=         5 AccDes= 0.00D+00
 Harris functional with IExCor=33909 and IRadAn=       5 diagonalized for initial guess.
 HarFok:  IExCor=33909 AccDes= 0.00D+00 IRadAn=         5 IDoV= 1 UseB2=F ITyADJ=14
 ICtDFT=  3500011 ScaDFX=  1.000000  1.000000  1.000000  1.000000
 FoFCou: FMM=F IPFlag=           0 FMFlag=      100000 FMFlg1=        2001
         NFxFlg=           0 DoJE=T BraDBF=F KetDBF=T FulRan=T
         wScrn=  0.000000 ICntrl=       500 IOpCl=  0 I1Cent=   200000004 NGrid=           0
         NMat0=    1 NMatS0=      1 NMatT0=    0 NMatD0=    1 NMtDS0=    0 NMtDT0=    0
 Petite list used in FoFCou.
 Harris En= -1205.29294787877    
 JPrj=0 DoOrth=F DoCkMO=F.
 Leave Link  401 at Tue Jan 26 10:06:05 2021, MaxMem=  4026531840 cpu:              81.2 elap:              10.2
 (Enter /opt/ohpc/pub/libs/gaussian/g16-A.03/sandybridge/g16/l502.exe)
 Integral symmetry usage will be decided dynamically.
 Closed shell SCF:
 Using DIIS extrapolation, IDIIS=    10.
 NGot=  4026531840 LenX=  4025262970 LenY=  4024634914
 Requested convergence on RMS density matrix=1.00D-06 within  32 cycles.
 Requested convergence on MAX density matrix=1.00D-04.
 Requested convergence on             energy=1.00D-04.
 Virtual orbitals will be shifted by   0.500 hartree.
 No special actions if energy rises.
 Dynamic level shift is on during FON iterations.

 Cycle   1  Pass 1  IDiag  1:
 FoFJK:  IHMeth= 1 ICntrl=       0 DoSepK=T KAlg= 0 I1Cent=           0 FoldK=F
 IRaf=         1 NMat=       1 IRICut=       1 DoRegI=T DoRafI=F ISym2E= 0 IDoP0=0 IntGTp=1.
 FoFCou: FMM=T IPFlag=           0 FMFlag=      100000 FMFlg1=        2001
         NFxFlg=           0 DoJE=T BraDBF=F KetDBF=F FulRan=T
         wScrn=  0.000000 ICntrl=       500 IOpCl=  0 I1Cent=           0 NGrid=           0
         NMat0=    1 NMatS0=      1 NMatT0=    0 NMatD0=    1 NMtDS0=    0 NMtDT0=    0
 Symmetry not used in FoFCou.
 FMM levels:  10  Number of levels for PrismC:   9
 E= -1227.23004868348    
 DIIS: error= 3.14D-02 at cycle   1 NSaved=   1.
 NSaved= 1 IEnMin= 1 EnMin= -1227.23004868348     IErMin= 1 ErrMin= 3.14D-02
 ErrMax= 3.14D-02  0.00D+00 EMaxC= 1.00D+00 BMatC= 4.57D-01 BMatP= 4.57D-01
 IDIUse=1 WtCom= 1.00D+00 WtEn= 0.00D+00
 Coeff-Com:  0.100D+01
 Coeff:      0.100D+01
 Gap=     0.329 Goal=   None    Shift=    0.500
 T= 1523. Gap= 0.725 NK=0 IS=  108 IE=  762 IFin=  107
          NO(<0.9)=   0  NV(>0.1)=   0    107.00e < EF      0.00e >EF  Err=0.0D+00
 GapD=    0.329 DampG=1.000 DampE=0.500 DampFc=0.5000 IDamp=-1.
 Damping current iteration by 5.00D-01
 RMSDP=2.44D-03 MaxDP=1.02D-01              OVMax= 6.67D-02

 Cycle   2  Pass 1  IDiag  1:
 E= -1227.49602258262     Delta-E=       -0.265973899137 Rises=F Damp=T
 DIIS: error= 1.29D-02 at cycle   2 NSaved=   2.
 NSaved= 2 IEnMin= 2 EnMin= -1227.49602258262     IErMin= 2 ErrMin= 1.29D-02
 ErrMax= 1.29D-02  0.00D+00 EMaxC= 1.00D+00 BMatC= 8.20D-02 BMatP= 4.57D-01
 IDIUse=1 WtCom= 1.00D+00 WtEn= 0.00D+00
 Coeff-Com: -0.611D+00 0.161D+01
 Coeff:     -0.611D+00 0.161D+01
 Gap=     0.284 Goal=   None    Shift=    0.500
 T= 1392. Gap= 0.761 NK=0 IS=  108 IE=  762 IFin=  107
          NO(<0.9)=   0  NV(>0.1)=   0    107.00e < EF      0.00e >EF  Err=0.0D+00
 GapD=    0.284 DampG=1.000 DampE=0.500 DampFc=0.5000 IDamp=-1.
 Damping current iteration by 5.00D-01
 RMSDP=1.22D-03 MaxDP=6.67D-02 DE=-2.66D-01 OVMax= 1.66D-02

 Cycle   3  Pass 1  IDiag  1:
 E= -1227.58949821278     Delta-E=       -0.093475630164 Rises=F Damp=T
 DIIS: error= 5.62D-03 at cycle   3 NSaved=   3.
 NSaved= 3 IEnMin= 3 EnMin= -1227.58949821278     IErMin= 3 ErrMin= 5.62D-03
 ErrMax= 5.62D-03  0.00D+00 EMaxC= 1.00D+00 BMatC= 1.66D-02 BMatP= 8.20D-02
 IDIUse=1 WtCom= 1.00D+00 WtEn= 0.00D+00
 Coeff-Com:  0.694D-01-0.998D+00 0.193D+01
 Coeff:      0.694D-01-0.998D+00 0.193D+01
 Gap=     0.263 Goal=   None    Shift=    0.500
 T= 1142. Gap= 0.763 NK=0 IS=  108 IE=  762 IFin=  107
          NO(<0.9)=   0  NV(>0.1)=   0    107.00e < EF      0.00e >EF  Err=0.0D+00
 GapD=    0.263 DampG=1.000 DampE=1.000 DampFc=1.0000 IDamp=-1.
 RMSDP=6.43D-04 MaxDP=3.42D-02 DE=-9.35D-02 OVMax= 1.28D-02

 Cycle   4  Pass 1  IDiag  1:
 E= -1227.66779336127     Delta-E=       -0.078295148492 Rises=F Damp=F
 DIIS: error= 1.68D-03 at cycle   4 NSaved=   4.
 NSaved= 4 IEnMin= 4 EnMin= -1227.66779336127     IErMin= 4 ErrMin= 1.68D-03
 ErrMax= 1.68D-03  0.00D+00 EMaxC= 1.00D+00 BMatC= 4.83D-04 BMatP= 1.66D-02
 IDIUse=1 WtCom= 1.00D+00 WtEn= 0.00D+00
 Coeff-Com:  0.733D-01-0.256D+00 0.273D+00 0.910D+00
 Coeff:      0.733D-01-0.256D+00 0.273D+00 0.910D+00
 Gap=     0.263 Goal=   None    Shift=    0.500
 T=  598. Gap= 0.763 NK=0 IS=  108 IE=  762 IFin=  107
          NO(<0.9)=   0  NV(>0.1)=   0    107.00e < EF      0.00e >EF  Err=0.0D+00
 GapD=    0.263 DampG=1.000 DampE=1.000 DampFc=1.0000 IDamp=-1.
 RMSDP=9.97D-05 MaxDP=4.13D-03 DE=-7.83D-02 OVMax= 8.86D-03

 Cycle   5  Pass 1  IDiag  1:
 E= -1227.66847507041     Delta-E=       -0.000681709135 Rises=F Damp=F
 DIIS: error= 1.36D-03 at cycle   5 NSaved=   5.
 NSaved= 5 IEnMin= 5 EnMin= -1227.66847507041     IErMin= 5 ErrMin= 1.36D-03
 ErrMax= 1.36D-03  0.00D+00 EMaxC= 1.00D+00 BMatC= 8.58D-05 BMatP= 4.83D-04
 IDIUse=1 WtCom= 1.00D+00 WtEn= 0.00D+00
 Coeff-Com:  0.555D-02 0.833D-01-0.201D+00-0.146D+00 0.126D+01
 Coeff:      0.555D-02 0.833D-01-0.201D+00-0.146D+00 0.126D+01
 Gap=     0.264 Goal=   None    Shift=    0.500
 T=   91. Gap= 0.764 NK=0 IS=  108 IE=  762 IFin=  107
          NO(<0.9)=   0  NV(>0.1)=   0    107.00e < EF      0.00e >EF  Err=0.0D+00
 GapD=    0.264 DampG=1.000 DampE=1.000 DampFc=1.0000 IDamp=-1.
 RMSDP=6.44D-05 MaxDP=2.57D-03 DE=-6.82D-04 OVMax= 7.54D-03

 Cycle   6  Pass 1  IDiag  1:
 E= -1227.66873268967     Delta-E=       -0.000257619265 Rises=F Damp=F
 DIIS: error= 1.02D-03 at cycle   6 NSaved=   6.
 NSaved= 6 IEnMin= 6 EnMin= -1227.66873268967     IErMin= 6 ErrMin= 1.02D-03
 ErrMax= 1.02D-03  0.00D+00 EMaxC= 1.00D+00 BMatC= 3.00D-05 BMatP= 8.58D-05
 IDIUse=1 WtCom= 1.00D+00 WtEn= 0.00D+00
 Coeff-Com: -0.203D-01 0.774D-01-0.921D-01-0.293D+00-0.127D+00 0.146D+01
 Coeff:     -0.203D-01 0.774D-01-0.921D-01-0.293D+00-0.127D+00 0.146D+01
 Gap=     0.264 Goal=   None    Shift=    0.500
 GapD=    0.264 DampG=1.000 DampE=1.000 DampFc=1.0000 IDamp=-1.
 RMSDP=3.97D-05 MaxDP=1.26D-03 DE=-2.58D-04 OVMax= 6.07D-03

 Cycle   7  Pass 1  IDiag  1:
 E= -1227.66886224638     Delta-E=       -0.000129556713 Rises=F Damp=F
 DIIS: error= 7.41D-04 at cycle   7 NSaved=   7.
 NSaved= 7 IEnMin= 7 EnMin= -1227.66886224638     IErMin= 7 ErrMin= 7.41D-04
 ErrMax= 7.41D-04  0.00D+00 EMaxC= 1.00D+00 BMatC= 1.28D-05 BMatP= 3.00D-05
 IDIUse=1 WtCom= 1.00D+00 WtEn= 0.00D+00
 Coeff-Com: -0.544D-02-0.206D-01 0.593D-01 0.157D-01-0.524D+00-0.463D+00
 Coeff-Com:  0.194D+01
 Coeff:     -0.544D-02-0.206D-01 0.593D-01 0.157D-01-0.524D+00-0.463D+00
 Coeff:      0.194D+01
 Gap=     0.264 Goal=   None    Shift=    0.500
 RMSDP=2.34D-05 MaxDP=9.12D-04 DE=-1.30D-04 OVMax= 4.89D-03

 Cycle   8  Pass 1  IDiag  1:
 E= -1227.66892998536     Delta-E=       -0.000067738977 Rises=F Damp=F
 DIIS: error= 5.19D-04 at cycle   8 NSaved=   8.
 NSaved= 8 IEnMin= 8 EnMin= -1227.66892998536     IErMin= 8 ErrMin= 5.19D-04
 ErrMax= 5.19D-04  0.00D+00 EMaxC= 1.00D+00 BMatC= 5.93D-06 BMatP= 1.28D-05
 IDIUse=1 WtCom= 1.00D+00 WtEn= 0.00D+00
 Coeff-Com:  0.248D-02-0.213D-01 0.341D-01 0.123D+00-0.247D+00-0.649D+00
 Coeff-Com:  0.146D+00 0.161D+01
 Coeff:      0.248D-02-0.213D-01 0.341D-01 0.123D+00-0.247D+00-0.649D+00
 Coeff:      0.146D+00 0.161D+01
 Gap=     0.264 Goal=   None    Shift=    0.500
 RMSDP=1.33D-05 MaxDP=8.01D-04 DE=-6.77D-05 OVMax= 3.55D-03

 Cycle   9  Pass 1  IDiag  1:
 E= -1227.66896232812     Delta-E=       -0.000032342762 Rises=F Damp=F
 DIIS: error= 3.55D-04 at cycle   9 NSaved=   9.
 NSaved= 9 IEnMin= 9 EnMin= -1227.66896232812     IErMin= 9 ErrMin= 3.55D-04
 ErrMax= 3.55D-04  0.00D+00 EMaxC= 1.00D+00 BMatC= 2.72D-06 BMatP= 5.93D-06
 IDIUse=1 WtCom= 1.00D+00 WtEn= 0.00D+00
 Coeff-Com:  0.233D-02 0.631D-02-0.206D-01 0.742D-01 0.805D-01-0.175D+00
 Coeff-Com: -0.897D+00 0.232D+00 0.170D+01
 Coeff:      0.233D-02 0.631D-02-0.206D-01 0.742D-01 0.805D-01-0.175D+00
 Coeff:     -0.897D+00 0.232D+00 0.170D+01
 Gap=     0.264 Goal=   None    Shift=    0.500
 RMSDP=8.11D-06 MaxDP=6.85D-04 DE=-3.23D-05 OVMax= 2.54D-03

 Cycle  10  Pass 1  IDiag  1:
 E= -1227.66897731089     Delta-E=       -0.000014982767 Rises=F Damp=F
 DIIS: error= 2.36D-04 at cycle  10 NSaved=  10.
 NSaved=10 IEnMin=10 EnMin= -1227.66897731089     IErMin=10 ErrMin= 2.36D-04
 ErrMax= 2.36D-04  0.00D+00 EMaxC= 1.00D+00 BMatC= 1.18D-06 BMatP= 2.72D-06
 IDIUse=1 WtCom= 1.00D+00 WtEn= 0.00D+00
 Coeff-Com: -0.173D-02 0.132D-01-0.204D-01-0.128D-01 0.588D-01 0.159D+00
 Coeff-Com: -0.223D+00-0.611D+00-0.507D+00 0.214D+01
 Coeff:     -0.173D-02 0.132D-01-0.204D-01-0.128D-01 0.588D-01 0.159D+00
 Coeff:     -0.223D+00-0.611D+00-0.507D+00 0.214D+01
 Gap=     0.264 Goal=   None    Shift=    0.500
 RMSDP=4.92D-06 MaxDP=4.42D-04 DE=-1.50D-05 OVMax= 1.71D-03

 Cycle  11  Pass 1  IDiag  1:
 E= -1227.66898369751     Delta-E=       -0.000006386623 Rises=F Damp=F
 DIIS: error= 1.54D-04 at cycle  11 NSaved=  11.
 NSaved=11 IEnMin=11 EnMin= -1227.66898369751     IErMin=11 ErrMin= 1.54D-04
 ErrMax= 1.54D-04  0.00D+00 EMaxC= 1.00D+00 BMatC= 5.41D-07 BMatP= 1.18D-06
 IDIUse=1 WtCom= 1.00D+00 WtEn= 0.00D+00
 Coeff-Com: -0.170D-02 0.525D-02-0.463D-02-0.167D-01-0.232D-01 0.128D+00
 Coeff-Com:  0.195D+00-0.449D+00-0.695D+00 0.249D-02 0.186D+01
 Coeff:     -0.170D-02 0.525D-02-0.463D-02-0.167D-01-0.232D-01 0.128D+00
 Coeff:      0.195D+00-0.449D+00-0.695D+00 0.249D-02 0.186D+01
 Gap=     0.264 Goal=   None    Shift=    0.500
 RMSDP=3.09D-06 MaxDP=2.60D-04 DE=-6.39D-06 OVMax= 1.12D-03

 Cycle  12  Pass 1  IDiag  1:
 E= -1227.66898633073     Delta-E=       -0.000002633213 Rises=F Damp=F
 DIIS: error= 1.01D-04 at cycle  12 NSaved=  12.
 NSaved=12 IEnMin=12 EnMin= -1227.66898633073     IErMin=12 ErrMin= 1.01D-04
 ErrMax= 1.01D-04  0.00D+00 EMaxC= 1.00D+00 BMatC= 2.54D-07 BMatP= 5.41D-07
 IDIUse=1 WtCom= 1.00D+00 WtEn= 0.00D+00
 Coeff-Com: -0.377D-03-0.839D-03 0.296D-02 0.416D-02-0.492D-01 0.125D-01
 Coeff-Com:  0.196D+00-0.480D-01-0.101D+00-0.116D+01 0.491D+00 0.165D+01
 Coeff:     -0.377D-03-0.839D-03 0.296D-02 0.416D-02-0.492D-01 0.125D-01
 Coeff:      0.196D+00-0.480D-01-0.101D+00-0.116D+01 0.491D+00 0.165D+01
 Gap=     0.264 Goal=   None    Shift=    0.500
 RMSDP=1.86D-06 MaxDP=1.22D-04 DE=-2.63D-06 OVMax= 7.24D-04

 Cycle  13  Pass 1  IDiag  1:
 E= -1227.66898741485     Delta-E=       -0.000001084129 Rises=F Damp=F
 DIIS: error= 6.53D-05 at cycle  13 NSaved=  13.
 NSaved=13 IEnMin=13 EnMin= -1227.66898741485     IErMin=13 ErrMin= 6.53D-05
 ErrMax= 6.53D-05  0.00D+00 EMaxC= 1.00D+00 BMatC= 1.13D-07 BMatP= 2.54D-07
 IDIUse=1 WtCom= 1.00D+00 WtEn= 0.00D+00
 Coeff-Com:  0.341D-03-0.810D-03 0.402D-03 0.110D-01-0.106D-01-0.386D-01
 Coeff-Com: -0.172D-01 0.148D+00 0.278D+00-0.531D+00-0.487D+00-0.870D+00
 Coeff-Com:  0.252D+01
 Coeff:      0.341D-03-0.810D-03 0.402D-03 0.110D-01-0.106D-01-0.386D-01
 Coeff:     -0.172D-01 0.148D+00 0.278D+00-0.531D+00-0.487D+00-0.870D+00
 Coeff:      0.252D+01
 Gap=     0.264 Goal=   None    Shift=    0.500
 RMSDP=1.18D-06 MaxDP=4.84D-05 DE=-1.08D-06 OVMax= 4.62D-04

 Cycle  14  Pass 1  IDiag  1:
 E= -1227.66898785204     Delta-E=       -0.000000437181 Rises=F Damp=F
 DIIS: error= 4.20D-05 at cycle  14 NSaved=  14.
 NSaved=14 IEnMin=14 EnMin= -1227.66898785204     IErMin=14 ErrMin= 4.20D-05
 ErrMax= 4.20D-05  0.00D+00 EMaxC= 1.00D+00 BMatC= 5.17D-08 BMatP= 1.13D-07
 IDIUse=1 WtCom= 1.00D+00 WtEn= 0.00D+00
 Coeff-Com:  0.219D-03 0.404D-05-0.801D-03 0.578D-02 0.292D-02-0.210D-01
 Coeff-Com: -0.480D-01 0.980D-01 0.181D+00-0.872D-01-0.361D+00-0.108D+01
 Coeff-Com:  0.839D+00 0.148D+01
 Coeff:      0.219D-03 0.404D-05-0.801D-03 0.578D-02 0.292D-02-0.210D-01
 Coeff:     -0.480D-01 0.980D-01 0.181D+00-0.872D-01-0.361D+00-0.108D+01
 Coeff:      0.839D+00 0.148D+01
 Gap=     0.264 Goal=   None    Shift=    0.500
 RMSDP=7.23D-07 MaxDP=2.05D-05 DE=-4.37D-07 OVMax= 2.95D-04

 SCF Done:  E(RLC-wHPBE) =  -1227.66898785     A.U. after   14 cycles
            NFock= 14  Conv=0.72D-06     -V/T= 2.0040
 KE= 1.222736114207D+03 PE=-7.955821517342D+03 EE= 2.931472520095D+03
 Leave Link  502 at Tue Jan 26 10:20:43 2021, MaxMem=  4026531840 cpu:            6924.0 elap:             877.9
 (Enter /opt/ohpc/pub/libs/gaussian/g16-A.03/sandybridge/g16/l508.exe)
 QCSCF skips out because SCF is already converged.
 Leave Link  508 at Tue Jan 26 10:20:43 2021, MaxMem=  4026531840 cpu:               0.0 elap:               0.0
 (Enter /opt/ohpc/pub/libs/gaussian/g16-A.03/sandybridge/g16/l601.exe)
 Copying SCF densities to generalized density rwf, IOpCl= 0 IROHF=0.

 **********************************************************************

            Population analysis using the SCF density.

 **********************************************************************

 Orbital symmetries:
       Occupied  (A) (A) (A) (A) (A) (A) (A) (A) (A) (A) (A) (A)
                 (A) (A) (A) (A) (A) (A) (A) (A) (A) (A) (A) (A)
                 (A) (A) (A) (A) (A) (A) (A) (A) (A) (A) (A) (A)
                 (A) (A) (A) (A) (A) (A) (A) (A) (A) (A) (A) (A)
                 (A) (A) (A) (A) (A) (A) (A) (A) (A) (A) (A) (A)
                 (A) (A) (A) (A) (A) (A) (A) (A) (A) (A) (A) (A)
                 (A) (A) (A) (A) (A) (A) (A) (A) (A) (A) (A) (A)
                 (A) (A) (A) (A) (A) (A) (A) (A) (A) (A) (A) (A)
                 (A) (A) (A) (A) (A) (A) (A) (A) (A) (A) (A)
       Virtual   (A) (A) (A) (A) (A) (A) (A) (A) (A) (A) (A) (A)
                 (A) (A) (A) (A) (A) (A) (A) (A) (A) (A) (A) (A)
                 (A) (A) (A) (A) (A) (A) (A) (A) (A) (A) (A) (A)
                 (A) (A) (A) (A) (A) (A) (A) (A) (A) (A) (A) (A)
                 (A) (A) (A) (A) (A) (A) (A) (A) (A) (A) (A) (A)
                 (A) (A) (A) (A) (A) (A) (A) (A) (A) (A) (A) (A)
                 (A) (A) (A) (A) (A) (A) (A) (A) (A) (A) (A) (A)
                 (A) (A) (A) (A) (A) (A) (A) (A) (A) (A) (A) (A)
                 (A) (A) (A) (A) (A) (A) (A) (A) (A) (A) (A) (A)
                 (A) (A) (A) (A) (A) (A) (A) (A) (A) (A) (A) (A)
                 (A) (A) (A) (A) (A) (A) (A) (A) (A) (A) (A) (A)
                 (A) (A) (A) (A) (A) (A) (A) (A) (A) (A) (A) (A)
                 (A) (A) (A) (A) (A) (A) (A) (A) (A) (A) (A) (A)
                 (A) (A) (A) (A) (A) (A) (A) (A) (A) (A) (A) (A)
                 (A) (A) (A) (A) (A) (A) (A) (A) (A) (A) (A) (A)
                 (A) (A) (A) (A) (A) (A) (A) (A) (A) (A) (A) (A)
                 (A) (A) (A) (A) (A) (A) (A) (A) (A) (A) (A) (A)
                 (A) (A) (A) (A) (A) (A) (A) (A) (A) (A) (A) (A)
                 (A) (A) (A) (A) (A) (A) (A) (A) (A) (A) (A) (A)
                 (A) (A) (A) (A) (A) (A) (A) (A) (A) (A) (A) (A)
                 (A) (A) (A) (A) (A) (A) (A) (A) (A) (A) (A) (A)
                 (A) (A) (A) (A) (A) (A) (A) (A) (A) (A) (A) (A)
                 (A) (A) (A) (A) (A) (A) (A) (A) (A) (A) (A) (A)
                 (A) (A) (A) (A) (A) (A) (A) (A) (A) (A) (A) (A)
                 (A) (A) (A) (A) (A) (A) (A) (A) (A) (A) (A) (A)
                 (A) (A) (A) (A) (A) (A) (A) (A) (A) (A) (A) (A)
                 (A) (A) (A) (A) (A) (A) (A) (A) (A) (A) (A) (A)
                 (A) (A) (A) (A) (A) (A) (A) (A) (A) (A) (A) (A)
                 (A) (A) (A) (A) (A) (A) (A) (A) (A) (A) (A) (A)
                 (A) (A) (A) (A) (A) (A) (A) (A) (A) (A) (A) (A)
                 (A) (A) (A) (A) (A) (A) (A) (A) (A) (A) (A) (A)
                 (A) (A) (A) (A) (A) (A) (A) (A) (A) (A) (A) (A)
                 (A) (A) (A) (A) (A) (A) (A) (A) (A) (A) (A) (A)
                 (A) (A) (A) (A) (A) (A) (A) (A) (A) (A) (A) (A)
                 (A) (A) (A) (A) (A) (A) (A) (A) (A) (A) (A) (A)
                 (A) (A) (A) (A) (A) (A) (A) (A) (A) (A) (A) (A)
                 (A) (A) (A) (A) (A) (A) (A) (A) (A) (A) (A) (A)
                 (A) (A) (A) (A) (A) (A) (A) (A) (A) (A) (A) (A)
                 (A) (A) (A) (A) (A) (A) (A) (A) (A) (A) (A) (A)
                 (A) (A) (A) (A) (A) (A) (A) (A) (A) (A) (A) (A)
                 (A) (A) (A) (A) (A) (A) (A) (A) (A) (A) (A) (A)
                 (A) (A) (A) (A) (A) (A) (A) (A) (A) (A) (A) (A)
                 (A) (A) (A) (A) (A) (A) (A) (A) (A) (A) (A) (A)
                 (A) (A) (A) (A) (A) (A) (A) (A) (A) (A) (A) (A)
                 (A) (A) (A) (A) (A) (A) (A) (A) (A) (A) (A) (A)
                 (A) (A) (A) (A) (A) (A) (A) (A) (A) (A) (A) (A)
                 (A) (A) (A) (A) (A) (A) (A) (A) (A) (A) (A) (A)
                 (A) (A) (A) (A) (A) (A) (A) (A) (A) (A) (A) (A)
                 (A) (A) (A) (A) (A) (A) (A) (A) (A) (A) (A) (A)
                 (A) (A) (A) (A) (A) (A) (A) (A) (A) (A) (A) (A)
                 (A) (A) (A) (A) (A) (A) (A) (A) (A) (A) (A) (A)
                 (A) (A) (A) (A) (A) (A) (A) (A) (A) (A) (A) (A)
                 (A) (A) (A) (A) (A) (A) (A) (A) (A) (A) (A) (A)
                 (A) (A) (A) (A) (A) (A) (A) (A) (A) (A) (A) (A)
                 (A) (A) (A) (A) (A) (A) (A)
 The electronic state is 1-A.
 Alpha  occ. eigenvalues --  -14.34730 -14.34730 -14.34729 -14.34729 -10.27298
 Alpha  occ. eigenvalues --  -10.27298 -10.27261 -10.27261 -10.23497 -10.23496
 Alpha  occ. eigenvalues --  -10.20904 -10.20904 -10.20903 -10.20903 -10.20814
 Alpha  occ. eigenvalues --  -10.20814 -10.20813 -10.20813 -10.20488 -10.20488
 Alpha  occ. eigenvalues --  -10.19099 -10.19085 -10.18396 -10.18396 -10.18395
 Alpha  occ. eigenvalues --  -10.18395 -10.17724 -10.17723 -10.17723 -10.17722
 Alpha  occ. eigenvalues --   -1.23108  -1.23108  -1.20332  -1.20332  -1.15173
 Alpha  occ. eigenvalues --   -1.15169  -1.10222  -1.08562  -1.02452  -0.98311
 Alpha  occ. eigenvalues --   -0.98059  -0.97680  -0.96978  -0.96768  -0.96618
 Alpha  occ. eigenvalues --   -0.96602  -0.95478  -0.95477  -0.94454  -0.94238
 Alpha  occ. eigenvalues --   -0.89475  -0.86043  -0.84269  -0.83643  -0.79963
 Alpha  occ. eigenvalues --   -0.79653  -0.79512  -0.79406  -0.79006  -0.78761
 Alpha  occ. eigenvalues --   -0.75761  -0.74576  -0.74523  -0.74508  -0.73751
 Alpha  occ. eigenvalues --   -0.73517  -0.73010  -0.72173  -0.72169  -0.71788
 Alpha  occ. eigenvalues --   -0.69722  -0.68336  -0.68011  -0.67092  -0.67052
 Alpha  occ. eigenvalues --   -0.66594  -0.66395  -0.66250  -0.66209  -0.66148
 Alpha  occ. eigenvalues --   -0.65888  -0.65024  -0.64782  -0.64758  -0.64606
 Alpha  occ. eigenvalues --   -0.64602  -0.64114  -0.63737  -0.63717  -0.63541
 Alpha  occ. eigenvalues --   -0.62968  -0.62422  -0.62378  -0.61516  -0.61112
 Alpha  occ. eigenvalues --   -0.59722  -0.59033  -0.57902  -0.57455  -0.54897
 Alpha  occ. eigenvalues --   -0.54887  -0.54113  -0.50946  -0.50851  -0.50771
 Alpha  occ. eigenvalues --   -0.47428  -0.45778
 Alpha virt. eigenvalues --   -0.19362  -0.16054  -0.13950  -0.13908  -0.10323
 Alpha virt. eigenvalues --   -0.10322  -0.09964  -0.09257  -0.09240  -0.07918
 Alpha virt. eigenvalues --   -0.06115  -0.06029  -0.05121  -0.04733  -0.04339
 Alpha virt. eigenvalues --   -0.04103  -0.03947  -0.03654  -0.02721  -0.02499
 Alpha virt. eigenvalues --   -0.02388  -0.02017  -0.01792  -0.01760  -0.01348
 Alpha virt. eigenvalues --   -0.01258  -0.00812  -0.00762  -0.00655  -0.00155
 Alpha virt. eigenvalues --    0.00073   0.00266   0.00522   0.00536   0.00538
 Alpha virt. eigenvalues --    0.00823   0.01125   0.01396   0.01900   0.01925
 Alpha virt. eigenvalues --    0.02270   0.02432   0.02591   0.02943   0.03126
 Alpha virt. eigenvalues --    0.03383   0.03837   0.04180   0.04984   0.05056
 Alpha virt. eigenvalues --    0.05195   0.05237   0.05667   0.05898   0.07418
 Alpha virt. eigenvalues --    0.07851   0.08049   0.08288   0.08330   0.08419
 Alpha virt. eigenvalues --    0.08566   0.08577   0.08620   0.09316   0.09680
 Alpha virt. eigenvalues --    0.09830   0.10593   0.10615   0.11844   0.12297
 Alpha virt. eigenvalues --    0.12617   0.12837   0.13325   0.13583   0.13774
 Alpha virt. eigenvalues --    0.13819   0.14701   0.14756   0.14952   0.15797
 Alpha virt. eigenvalues --    0.15943   0.15985   0.16640   0.16895   0.17749
 Alpha virt. eigenvalues --    0.18042   0.18088   0.18229   0.18671   0.18683
 Alpha virt. eigenvalues --    0.18781   0.18847   0.19185   0.19935   0.19971
 Alpha virt. eigenvalues --    0.20015   0.20343   0.20978   0.21512   0.21584
 Alpha virt. eigenvalues --    0.21763   0.22293   0.22350   0.23045   0.23969
 Alpha virt. eigenvalues --    0.24364   0.24515   0.24604   0.24848   0.25344
 Alpha virt. eigenvalues --    0.25455   0.25616   0.26719   0.26751   0.26988
 Alpha virt. eigenvalues --    0.27193   0.27508   0.27953   0.28269   0.28671
 Alpha virt. eigenvalues --    0.29010   0.29720   0.30456   0.31213   0.31282
 Alpha virt. eigenvalues --    0.31506   0.31599   0.31918   0.32184   0.32231
 Alpha virt. eigenvalues --    0.32350   0.32499   0.32680   0.33062   0.33141
 Alpha virt. eigenvalues --    0.33331   0.33453   0.33858   0.34208   0.34214
 Alpha virt. eigenvalues --    0.34569   0.34720   0.34817   0.35556   0.35640
 Alpha virt. eigenvalues --    0.35796   0.35799   0.36544   0.36806   0.36807
 Alpha virt. eigenvalues --    0.36836   0.37312   0.37743   0.37795   0.38266
 Alpha virt. eigenvalues --    0.38654   0.38668   0.39536   0.39706   0.39876
 Alpha virt. eigenvalues --    0.40397   0.41159   0.41429   0.41450   0.41490
 Alpha virt. eigenvalues --    0.41575   0.41669   0.41951   0.42631   0.43044
 Alpha virt. eigenvalues --    0.43699   0.44414   0.44729   0.44797   0.45265
 Alpha virt. eigenvalues --    0.46567   0.46802   0.46993   0.48002   0.48131
 Alpha virt. eigenvalues --    0.48554   0.48766   0.49265   0.49849   0.50973
 Alpha virt. eigenvalues --    0.51033   0.51895   0.52151   0.52171   0.52740
 Alpha virt. eigenvalues --    0.53030   0.54060   0.54173   0.54385   0.54558
 Alpha virt. eigenvalues --    0.54722   0.56449   0.57091   0.57622   0.57921
 Alpha virt. eigenvalues --    0.58827   0.59170   0.59336   0.60024   0.60681
 Alpha virt. eigenvalues --    0.61505   0.61618   0.62614   0.62745   0.63048
 Alpha virt. eigenvalues --    0.63104   0.63264   0.65752   0.65937   0.67480
 Alpha virt. eigenvalues --    0.68745   0.69132   0.71319   0.72027   0.72045
 Alpha virt. eigenvalues --    0.72430   0.73028   0.76241   0.77399   0.77490
 Alpha virt. eigenvalues --    0.77930   0.87591   0.99920   1.00044   1.00088
 Alpha virt. eigenvalues --    1.00131   1.03700   1.06838   1.07369   1.09044
 Alpha virt. eigenvalues --    1.09072   1.09374   1.09470   1.09575   1.10305
 Alpha virt. eigenvalues --    1.10509   1.11096   1.11282   1.11891   1.12333
 Alpha virt. eigenvalues --    1.12904   1.13446   1.13564   1.13643   1.14054
 Alpha virt. eigenvalues --    1.14753   1.14834   1.16179   1.16399   1.16884
 Alpha virt. eigenvalues --    1.16956   1.17091   1.18391   1.18650   1.18765
 Alpha virt. eigenvalues --    1.19279   1.19860   1.20036   1.20092   1.20235
 Alpha virt. eigenvalues --    1.20737   1.21165   1.21318   1.21376   1.21531
 Alpha virt. eigenvalues --    1.22044   1.22248   1.22757   1.23364   1.23508
 Alpha virt. eigenvalues --    1.23626   1.23737   1.23981   1.24469   1.25231
 Alpha virt. eigenvalues --    1.25615   1.25690   1.25829   1.28062   1.28482
 Alpha virt. eigenvalues --    1.28737   1.29054   1.30270   1.30421   1.30901
 Alpha virt. eigenvalues --    1.31509   1.31591   1.31605   1.32298   1.32395
 Alpha virt. eigenvalues --    1.32411   1.32828   1.32913   1.33237   1.33574
 Alpha virt. eigenvalues --    1.34104   1.34203   1.34398   1.34823   1.35013
 Alpha virt. eigenvalues --    1.35480   1.35850   1.35860   1.36395   1.36629
 Alpha virt. eigenvalues --    1.37781   1.38651   1.39000   1.39240   1.39636
 Alpha virt. eigenvalues --    1.39880   1.39883   1.40418   1.40429   1.40797
 Alpha virt. eigenvalues --    1.40883   1.41218   1.41522   1.41600   1.41810
 Alpha virt. eigenvalues --    1.42583   1.42635   1.42805   1.43377   1.43680
 Alpha virt. eigenvalues --    1.43784   1.43954   1.44181   1.45044   1.45611
 Alpha virt. eigenvalues --    1.47989   1.48338   1.49069   1.49410   1.49455
 Alpha virt. eigenvalues --    1.49746   1.49779   1.50921   1.51126   1.51134
 Alpha virt. eigenvalues --    1.51155   1.51947   1.52097   1.52475   1.52946
 Alpha virt. eigenvalues --    1.54186   1.54220   1.54683   1.55281   1.55314
 Alpha virt. eigenvalues --    1.57018   1.57202   1.58222   1.58272   1.58343
 Alpha virt. eigenvalues --    1.59324   1.60342   1.60772   1.61219   1.61238
 Alpha virt. eigenvalues --    1.62015   1.63339   1.63430   1.63475   1.63529
 Alpha virt. eigenvalues --    1.63681   1.63828   1.64301   1.64471   1.64550
 Alpha virt. eigenvalues --    1.64804   1.64921   1.65251   1.65292   1.65577
 Alpha virt. eigenvalues --    1.66019   1.66037   1.66043   1.66246   1.66521
 Alpha virt. eigenvalues --    1.67510   1.67609   1.68022   1.68126   1.68153
 Alpha virt. eigenvalues --    1.69075   1.70551   1.70597   1.72369   1.72409
 Alpha virt. eigenvalues --    1.72585   1.73059   1.74038   1.74769   1.74934
 Alpha virt. eigenvalues --    1.74938   1.75762   1.75857   1.76018   1.77376
 Alpha virt. eigenvalues --    1.78041   1.79315   1.79445   1.79969   1.80377
 Alpha virt. eigenvalues --    1.81754   1.82083   1.83895   1.84907   1.85266
 Alpha virt. eigenvalues --    1.87338   1.87631   1.88551   1.88713   1.89185
 Alpha virt. eigenvalues --    1.89204   1.89934   1.91730   1.91755   1.92232
 Alpha virt. eigenvalues --    1.92332   1.93200   1.96150   1.96498   1.96799
 Alpha virt. eigenvalues --    1.97053   1.97695   1.97718   2.00029   2.00984
 Alpha virt. eigenvalues --    2.01120   2.01412   2.02380   2.02399   2.03172
 Alpha virt. eigenvalues --    2.03824   2.04861   2.05839   2.06263   2.07130
 Alpha virt. eigenvalues --    2.08073   2.08654   2.13170   2.13578   2.14026
 Alpha virt. eigenvalues --    2.14261   2.14641   2.15138   2.15239   2.15879
 Alpha virt. eigenvalues --    2.16021   2.16112   2.16400   2.16413   2.16647
 Alpha virt. eigenvalues --    2.17748   2.17943   2.18745   2.18902   2.19053
 Alpha virt. eigenvalues --    2.19470   2.19493   2.19759   2.20382   2.20582
 Alpha virt. eigenvalues --    2.21633   2.21640   2.22207   2.22232   2.22839
 Alpha virt. eigenvalues --    2.22996   2.23136   2.23362   2.23734   2.23792
 Alpha virt. eigenvalues --    2.24417   2.24932   2.29944   2.30273   2.30308
 Alpha virt. eigenvalues --    2.30449   2.32265   2.33018   2.33307   2.33400
 Alpha virt. eigenvalues --    2.33611   2.36959   2.37416   2.37793   2.38071
 Alpha virt. eigenvalues --    2.38076   2.38896   2.38959   2.39260   2.39632
 Alpha virt. eigenvalues --    2.40510   2.40547   2.41049   2.41677   2.42031
 Alpha virt. eigenvalues --    2.42926   2.43726   2.43805   2.44033   2.44167
 Alpha virt. eigenvalues --    2.44666   2.44908   2.45066   2.46578   2.46952
 Alpha virt. eigenvalues --    2.48755   2.48945   2.50095   2.50194   2.50810
 Alpha virt. eigenvalues --    2.51020   2.51396   2.51893   2.52061   2.53028
 Alpha virt. eigenvalues --    2.53334   2.53959   2.55705   2.56186   2.56522
 Alpha virt. eigenvalues --    2.56883   2.57386   2.59196   2.59430   2.59769
 Alpha virt. eigenvalues --    2.60159   2.60214   2.61089   2.61469   2.62092
 Alpha virt. eigenvalues --    2.62216   2.63349   2.63499   2.64867   2.65487
 Alpha virt. eigenvalues --    2.65593   2.67903   2.68715   2.69420   2.71634
 Alpha virt. eigenvalues --    2.71714   2.71873   2.73236   2.73239   2.74343
 Alpha virt. eigenvalues --    2.74531   2.80906   2.81050   2.86342   2.86688
 Alpha virt. eigenvalues --    2.87553   2.88129   2.89706   2.90325   2.92978
 Alpha virt. eigenvalues --    2.93557   2.94736   2.94928   2.95686   2.96410
 Alpha virt. eigenvalues --    2.96470   2.98095   2.98254   2.98264   2.99327
 Alpha virt. eigenvalues --    2.99460   3.01556   3.02080   3.02552   3.03448
 Alpha virt. eigenvalues --    3.07596   3.08612   3.08787   3.09061   3.11601
 Alpha virt. eigenvalues --    3.13514   3.14702   3.15081   3.15216   3.15767
 Alpha virt. eigenvalues --    3.15777   3.15799   3.16514   3.16537   3.17071
 Alpha virt. eigenvalues --    3.18193   3.18250   3.18747   3.21033   3.21104
 Alpha virt. eigenvalues --    3.21471   3.21829   3.23298   3.24467   3.24737
 Alpha virt. eigenvalues --    3.25336   3.27652   3.29286   3.29462   3.29649
 Alpha virt. eigenvalues --    3.29894   3.31025   3.31615   3.43780   3.45449
 Alpha virt. eigenvalues --    3.50627   3.55695   3.57081   3.57810   3.66796
 Alpha virt. eigenvalues --    3.66873   3.67404   3.72466   3.83397   3.83516
 Alpha virt. eigenvalues --   21.05319  21.16850  21.35175  21.35468  21.41693
 Alpha virt. eigenvalues --   21.53397  21.53788  21.56716  21.62676  21.63059
 Alpha virt. eigenvalues --   21.63231  21.68765  21.72911  21.79537  21.79586
 Alpha virt. eigenvalues --   21.80429  21.83171  21.83504  21.83931  21.85244
 Alpha virt. eigenvalues --   21.94251  21.96720  22.02772  22.03900  22.05955
 Alpha virt. eigenvalues --   22.06208  31.48972  31.49274  31.63389  31.63654
          Condensed to atoms (all electrons):
 Mulliken charges:
               1
     1  C   -0.093320
     2  C    0.145134
     3  C   -0.149792
     4  C   -0.093323
     5  C    0.016308
     6  C   -0.149766
     7  H    0.159545
     8  H    0.155408
     9  H    0.159531
    10  C    0.016332
    11  C   -0.149760
    12  C   -0.149801
    13  C   -0.093336
    14  C   -0.093307
    15  C    0.145132
    16  H    0.159528
    17  H    0.159545
    18  H    0.155410
    19  H    0.155388
    20  H    0.155386
    21  C   -0.475430
    22  C    0.073212
    23  C    0.073138
    24  N    0.018047
    25  N    0.018109
    26  C   -0.256712
    27  H    0.177769
    28  H    0.152624
    29  H    0.173737
    30  C   -0.258501
    31  H    0.173386
    32  H    0.184673
    33  H    0.147043
    34  C   -0.257050
    35  H    0.177853
    36  H    0.152669
    37  H    0.173836
    38  C   -0.259064
    39  H    0.173482
    40  H    0.184794
    41  H    0.147261
    42  C   -0.475449
    43  C    0.073226
    44  C    0.073167
    45  N    0.018092
    46  N    0.018102
    47  C   -0.256812
    48  H    0.177800
    49  H    0.152627
    50  H    0.173767
    51  C   -0.258717
    52  H    0.173422
    53  H    0.184715
    54  H    0.147124
    55  C   -0.256996
    56  H    0.177845
    57  H    0.152664
    58  H    0.173814
    59  C   -0.258951
    60  H    0.173465
    61  H    0.184768
    62  H    0.147206
 Sum of Mulliken charges =   2.00000
 Mulliken charges with hydrogens summed into heavy atoms:
               1
     1  C    0.062066
     2  C    0.145134
     3  C    0.009753
     4  C    0.062085
     5  C    0.016308
     6  C    0.009765
    10  C    0.016332
    11  C    0.009769
    12  C    0.009745
    13  C    0.062073
    14  C    0.062080
    15  C    0.145132
    21  C   -0.475430
    22  C    0.073212
    23  C    0.073138
    24  N    0.018047
    25  N    0.018109
    26  C    0.247418
    30  C    0.246601
    34  C    0.247307
    38  C    0.246473
    42  C   -0.475449
    43  C    0.073226
    44  C    0.073167
    45  N    0.018092
    46  N    0.018102
    47  C    0.247382
    51  C    0.246545
    55  C    0.247326
    59  C    0.246488
 Electronic spatial extent (au):  <R**2>=          26736.7590
 Charge=              2.0000 electrons
 Dipole moment (field-independent basis, Debye):
    X=             -0.0002    Y=              0.0001    Z=             -0.0004  Tot=              0.0005
 Quadrupole moment (field-independent basis, Debye-Ang):
   XX=            267.1536   YY=           -135.4680   ZZ=           -143.8571
   XY=              0.0040   XZ=              0.0008   YZ=             -0.0014
 Traceless Quadrupole moment (field-independent basis, Debye-Ang):
   XX=            271.2108   YY=           -131.4108   ZZ=           -139.7999
   XY=              0.0040   XZ=              0.0008   YZ=             -0.0014
 Octapole moment (field-independent basis, Debye-Ang**2):
  XXX=             -0.0072  YYY=              0.0097  ZZZ=              0.0048  XYY=              0.0363
  XXY=              0.0034  XXZ=             -0.0264  XZZ=             -0.0391  YZZ=             -0.0032
  YYZ=             -0.0157  XYZ=           -193.2725
 Hexadecapole moment (field-independent basis, Debye-Ang**3):
 XXXX=          -6134.2395 YYYY=          -1882.0890 ZZZZ=          -1399.8305 XXXY=              0.1093
 XXXZ=              0.2440 YYYX=              0.0062 YYYZ=             -0.0141 ZZZX=             -0.0259
 ZZZY=              0.0128 XXYY=          -3749.6150 XXZZ=          -4501.7857 YYZZ=           -504.5494
 XXYZ=              0.0680 YYXZ=              0.0340 ZZXY=              0.0829
 N-N= 2.573943895187D+03 E-N=-7.955820493999D+03  KE= 1.222736114207D+03
 No NMR shielding tensors so no spin-rotation constants.
 Leave Link  601 at Tue Jan 26 10:20:44 2021, MaxMem=  4026531840 cpu:               5.4 elap:               0.8
 (Enter /opt/ohpc/pub/libs/gaussian/g16-A.03/sandybridge/g16/l9999.exe)

 Test job not archived.
 1\1\GINC-CNODE145\SP\RLC-wHPBE\TZVP\C26H32N4(2+)\RDU230\26-Jan-2021\0\
 \#P LC-wHPBE/TZVP iop(3/107=0197300000, 3/108=0197300000) scf=(conver=
 6,fermi,ndamp=35,noincfock,novaracc,vshift=500,xqc)\\H32 C26 N4\\2,1\C
 ,0,-2.823961,0.444264,1.111805\C,0,-3.524911,0.0001,0.000001\C,0,-1.44
 7297,0.438089,1.110761\C,0,-2.823968,-0.444049,-1.11184\C,0,-0.740218,
 0.000107,-0.000031\C,0,-1.447325,-0.43786,-1.11083\H,0,-0.914462,0.797
 765,1.980986\H,0,-3.355363,-0.783593,-1.991035\H,0,-0.914491,-0.79749,
 -1.981076\C,0,0.740229,0.000109,-0.000016\C,0,1.447379,0.437502,-1.110
 991\C,0,1.447259,-0.437322,1.111037\C,0,2.824033,0.443666,-1.111944\C,
 0,2.823909,-0.443539,1.112143\C,0,3.52491,0.000034,0.000126\H,0,0.9146
 14,0.796709,-1.981454\H,0,0.914365,-0.796519,1.981427\H,0,3.355477,0.7
 82802,-1.991269\H,0,3.355249,-0.782652,1.991539\H,0,-3.355316,0.783824
 ,1.991014\C,0,4.975135,0.000032,0.000145\C,0,6.14652,-0.565054,0.40804
 3\C,0,6.146453,0.56505,-0.408017\N,0,6.78098,-1.491697,1.066857\N,0,6.
 780843,1.491604,-1.067037\C,0,6.057956,-2.591048,1.684578\H,0,6.154708
 ,-2.5451,2.768364\H,0,5.008879,-2.544629,1.410837\H,0,6.464629,-3.5373
 19,1.332266\C,0,8.228734,-1.518275,1.186143\H,0,8.494477,-1.775383,2.2
 09103\H,0,8.659441,-2.259109,0.51335\H,0,8.642938,-0.539771,0.968827\C
 ,0,6.05773,2.591089,-1.684422\H,0,6.153192,2.544651,-2.768303\H,0,5.00
 8941,2.545387,-1.409434\H,0,6.465326,3.537274,-1.332961\C,0,8.228631,1
 .518112,-1.186291\H,0,8.494234,1.779605,-2.208151\H,0,8.659838,2.25582
 7,-0.510389\H,0,8.642467,0.538433,-0.973542\C,0,-4.975109,0.000078,0.0
 00026\C,0,-6.146534,0.56508,0.407916\C,0,-6.146403,-0.565147,-0.407945
 \N,0,-6.781069,1.491701,1.066705\N,0,-6.780732,-1.491927,-1.0667\C,0,-
 6.058202,2.591312,1.684129\H,0,-6.154554,2.545406,2.767953\H,0,-5.0092
 05,2.545245,1.410016\H,0,-6.465319,3.537423,1.331906\C,0,-8.228858,1.5
 18145,1.185797\H,0,-8.494704,1.776946,2.208295\H,0,-8.659724,2.257735,
 0.511728\H,0,-8.642813,0.539154,0.970202\C,0,-6.057561,-2.59137,-1.684
 106\H,0,-6.153074,-2.544964,-2.767982\H,0,-5.008776,-2.545628,-1.40912
 2\H,0,-6.465122,-3.537559,-1.33261\C,0,-8.228499,-1.518584,-1.185941\H
 ,0,-8.494145,-1.779106,-2.208049\H,0,-8.65952,-2.25704,-0.510729\H,0,-
 8.642516,-0.539209,-0.97216\\Version=EM64L-G16RevA.03\State=1-A\HF=-12
 27.6689879\RMSD=7.226e-07\Dipole=0.0000817,-0.0000498,-0.0001664\Quadr
 upole=201.6385731,-97.7007428,-103.9378303,0.002986,-0.000604,0.001037
 5\PG=C01 [X(C26H32N4)]\\@


 CONFIDENCE: THAT QUIET ASSURED FEELING YOU HAVE
 JUST BEFORE YOU FALL FLAT ON YOUR FACE.
 Job cpu time:       0 days  1 hours 57 minutes 12.6 seconds.
 Elapsed time:       0 days  0 hours 14 minutes 51.8 seconds.
 File lengths (MBytes):  RWF=    228 Int=      0 D2E=      0 Chk=     40 Scr=      8
 Normal termination of Gaussian 16 at Tue Jan 26 10:20:44 2021.
