 Entering Gaussian System, Link 0=g16
 Input=mol_bp_pa_half_tune_n8.gjf
 Output=mol_bp_pa_half_tune_n8.log
 Initial command:
 /opt/ohpc/pub/libs/gaussian/g16-A.03/sandybridge/g16/l1.exe "/mnt/gpfs2_4m/scratch/rdu230/ondemand/projects/init_structures/wtuning/mol_bp_pa_half/tuning_mol_bp_pa_half_ocycle0/Gau-422723.inp" -scrdir="/mnt/gpfs2_4m/scratch/rdu230/ondemand/projects/init_structures/wtuning/mol_bp_pa_half/tuning_mol_bp_pa_half_ocycle0/"
 Entering Link 1 = /opt/ohpc/pub/libs/gaussian/g16-A.03/sandybridge/g16/l1.exe PID=    422724.
  
 Copyright (c) 1988,1990,1992,1993,1995,1998,2003,2009,2016,
            Gaussian, Inc.  All Rights Reserved.
  
 This is part of the Gaussian(R) 16 program.  It is based on
 the Gaussian(R) 09 system (copyright 2009, Gaussian, Inc.),
 the Gaussian(R) 03 system (copyright 2003, Gaussian, Inc.),
 the Gaussian(R) 98 system (copyright 1998, Gaussian, Inc.),
 the Gaussian(R) 94 system (copyright 1995, Gaussian, Inc.),
 the Gaussian 92(TM) system (copyright 1992, Gaussian, Inc.),
 the Gaussian 90(TM) system (copyright 1990, Gaussian, Inc.),
 the Gaussian 88(TM) system (copyright 1988, Gaussian, Inc.),
 the Gaussian 86(TM) system (copyright 1986, Carnegie Mellon
 University), and the Gaussian 82(TM) system (copyright 1983,
 Carnegie Mellon University). Gaussian is a federally registered
 trademark of Gaussian, Inc.
  
 This software contains proprietary and confidential information,
 including trade secrets, belonging to Gaussian, Inc.
  
 This software is provided under written license and may be
 used, copied, transmitted, or stored only in accord with that
 written license.
  
 The following legend is applicable only to US Government
 contracts under FAR:
  
                    RESTRICTED RIGHTS LEGEND
  
 Use, reproduction and disclosure by the US Government is
 subject to restrictions as set forth in subparagraphs (a)
 and (c) of the Commercial Computer Software - Restricted
 Rights clause in FAR 52.227-19.
  
 Gaussian, Inc.
 340 Quinnipiac St., Bldg. 40, Wallingford CT 06492
  
  
 ---------------------------------------------------------------
 Warning -- This program may not be used in any manner that
 competes with the business of Gaussian, Inc. or will provide
 assistance to any competitor of Gaussian, Inc.  The licensee
 of this program is prohibited from giving any competitor of
 Gaussian, Inc. access to this program.  By using this program,
 the user acknowledges that Gaussian, Inc. is engaged in the
 business of creating and licensing software in the field of
 computational chemistry and represents and warrants to the
 licensee that it is not a competitor of Gaussian, Inc. and that
 it will not use this program in any manner prohibited above.
 ---------------------------------------------------------------
  

 Cite this work as:
 Gaussian 16, Revision A.03,
 M. J. Frisch, G. W. Trucks, H. B. Schlegel, G. E. Scuseria, 
 M. A. Robb, J. R. Cheeseman, G. Scalmani, V. Barone, 
 G. A. Petersson, H. Nakatsuji, X. Li, M. Caricato, A. V. Marenich, 
 J. Bloino, B. G. Janesko, R. Gomperts, B. Mennucci, H. P. Hratchian, 
 J. V. Ortiz, A. F. Izmaylov, J. L. Sonnenberg, D. Williams-Young, 
 F. Ding, F. Lipparini, F. Egidi, J. Goings, B. Peng, A. Petrone, 
 T. Henderson, D. Ranasinghe, V. G. Zakrzewski, J. Gao, N. Rega, 
 G. Zheng, W. Liang, M. Hada, M. Ehara, K. Toyota, R. Fukuda, 
 J. Hasegawa, M. Ishida, T. Nakajima, Y. Honda, O. Kitao, H. Nakai, 
 T. Vreven, K. Throssell, J. A. Montgomery, Jr., J. E. Peralta, 
 F. Ogliaro, M. J. Bearpark, J. J. Heyd, E. N. Brothers, K. N. Kudin, 
 V. N. Staroverov, T. A. Keith, R. Kobayashi, J. Normand, 
 K. Raghavachari, A. P. Rendell, J. C. Burant, S. S. Iyengar, 
 J. Tomasi, M. Cossi, J. M. Millam, M. Klene, C. Adamo, R. Cammi, 
 J. W. Ochterski, R. L. Martin, K. Morokuma, O. Farkas, 
 J. B. Foresman, and D. J. Fox, Gaussian, Inc., Wallingford CT, 2016.
 
 ******************************************
 Gaussian 16:  EM64L-G16RevA.03 25-Dec-2016
                17-Jan-2021 
 ******************************************
 %mem=30GB
 %nproc=8
 Will use up to    8 processors via shared memory.
 ----------------------------------------------------------------------
 #P LC-wHPBE/TZVP iop(3/107=0182400000, 3/108=0182400000) scf=(conver=6
 ,fermi,ndamp=35,noincfock,novaracc,vshift=500,xqc)
 ----------------------------------------------------------------------
 1/38=1,172=1/1;
 2/12=2,17=6,18=5,40=1/2;
 3/5=19,7=101,11=2,25=1,30=1,74=-71,107=182400000,108=182400000/1,2,3;
 4//1;
 5/5=100002,6=6,8=3,10=500,13=1,18=-1,22=13,38=1,93=35/2,8;
 6/7=2,8=2,9=2,10=2,28=1/1;
 99/5=1,9=1/99;
 Leave Link    1 at Sun Jan 17 15:15:54 2021, MaxMem=  4026531840 cpu:               1.8 elap:               0.3
 (Enter /opt/ohpc/pub/libs/gaussian/g16-A.03/sandybridge/g16/l101.exe)
 ----------
 H19 C24 N1
 ----------
 Symbolic Z-matrix:
 Charge =  0 Multiplicity = 1
 C                     6.12918   1.2015   -0.03086 
 C                     6.83027   0.        0.00018 
 C                     4.73896   1.20071  -0.0322 
 C                     6.12924  -1.20147   0.03115 
 C                     4.02175  -0.00003   0.00003 
 C                     4.73896  -1.20072   0.03236 
 H                     7.91954   0.00005   0.00019 
 H                     4.19807   2.14545  -0.08115 
 H                     6.66878  -2.14754   0.06341 
 H                     4.19815  -2.1455    0.08126 
 C                     2.53689  -0.00001  -0.00006 
 C                     1.81336  -0.92429  -0.76008 
 C                     1.81326   0.92429   0.75979 
 C                     0.42603  -0.92247  -0.77116 
 C                     0.4259    0.9225    0.77064 
 C                    -0.28834   0.00002  -0.00031 
 H                     2.34757  -1.63866  -1.38605 
 H                     2.34735   1.63867   1.38585 
 H                    -0.11537  -1.63849  -1.38716 
 H                    -0.11557   1.63858   1.3865 
 H                     6.66876   2.14754  -0.06301 
 N                    -1.70438  0.        -0.0005 
 C                    -2.41427   1.22777   0.00404 
 C                    -3.5594    1.38202   0.79211 
 C                    -1.97996   2.30141  -0.78017 
 C                    -4.25737   2.58338   0.78619 
 C                    -2.67353   3.50521  -0.76583 
 C                    -3.81785   3.6535    0.01242 
 H                    -3.90005   0.55124   1.40781 
 H                    -1.09249   2.18558  -1.40008 
 H                    -5.14792   2.68661   1.40537 
 H                    -2.32151   4.33176  -1.38228 
 H                    -4.36318   4.59595   0.01566 
 C                    -2.41424  -1.22779  -0.00441 
 C                    -3.55968  -1.38219  -0.79203 
 C                    -1.97969  -2.30125   0.77987 
 C                    -4.25767  -2.58353  -0.7856 
 C                    -2.67329  -3.50506   0.76603 
 C                    -3.81789  -3.65351  -0.01177 
 H                    -3.90052  -0.55152  -1.40776 
 H                    -1.09201  -2.1853    1.39947 
 H                    -5.14847  -2.68689  -1.4044 
 H                    -2.32101  -4.33148   1.38252 
 H                    -4.36322  -4.59595  -0.01469 
 
 ITRead=  0  0  0  0  0  0  0  0  0  0  0  0  0  0  0  0  0  0  0  0
 ITRead=  0  0  0  0  0  0  0  0  0  0  0  0  0  0  0  0  0  0  0  0
 ITRead=  0  0  0  0
 MicOpt= -1 -1 -1 -1 -1 -1 -1 -1 -1 -1 -1 -1 -1 -1 -1 -1 -1 -1 -1 -1
 MicOpt= -1 -1 -1 -1 -1 -1 -1 -1 -1 -1 -1 -1 -1 -1 -1 -1 -1 -1 -1 -1
 MicOpt= -1 -1 -1 -1
 NAtoms=     44 NQM=       44 NQMF=       0 NMMI=      0 NMMIF=      0
                NMic=       0 NMicF=      0.
                    Isotopes and Nuclear Properties:
 (Nuclear quadrupole moments (NQMom) in fm**2, nuclear magnetic moments (NMagM)
  in nuclear magnetons)

  Atom         1           2           3           4           5           6           7           8           9          10
 IAtWgt=          12          12          12          12          12          12           1           1           1           1
 AtmWgt=  12.0000000  12.0000000  12.0000000  12.0000000  12.0000000  12.0000000   1.0078250   1.0078250   1.0078250   1.0078250
 NucSpn=           0           0           0           0           0           0           1           1           1           1
 AtZEff=  -0.0000000  -0.0000000  -0.0000000  -0.0000000  -0.0000000  -0.0000000  -0.0000000  -0.0000000  -0.0000000  -0.0000000
 NQMom=    0.0000000   0.0000000   0.0000000   0.0000000   0.0000000   0.0000000   0.0000000   0.0000000   0.0000000   0.0000000
 NMagM=    0.0000000   0.0000000   0.0000000   0.0000000   0.0000000   0.0000000   2.7928460   2.7928460   2.7928460   2.7928460
 AtZNuc=   6.0000000   6.0000000   6.0000000   6.0000000   6.0000000   6.0000000   1.0000000   1.0000000   1.0000000   1.0000000

  Atom        11          12          13          14          15          16          17          18          19          20
 IAtWgt=          12          12          12          12          12          12           1           1           1           1
 AtmWgt=  12.0000000  12.0000000  12.0000000  12.0000000  12.0000000  12.0000000   1.0078250   1.0078250   1.0078250   1.0078250
 NucSpn=           0           0           0           0           0           0           1           1           1           1
 AtZEff=  -0.0000000  -0.0000000  -0.0000000  -0.0000000  -0.0000000  -0.0000000  -0.0000000  -0.0000000  -0.0000000  -0.0000000
 NQMom=    0.0000000   0.0000000   0.0000000   0.0000000   0.0000000   0.0000000   0.0000000   0.0000000   0.0000000   0.0000000
 NMagM=    0.0000000   0.0000000   0.0000000   0.0000000   0.0000000   0.0000000   2.7928460   2.7928460   2.7928460   2.7928460
 AtZNuc=   6.0000000   6.0000000   6.0000000   6.0000000   6.0000000   6.0000000   1.0000000   1.0000000   1.0000000   1.0000000

  Atom        21          22          23          24          25          26          27          28          29          30
 IAtWgt=           1          14          12          12          12          12          12          12           1           1
 AtmWgt=   1.0078250  14.0030740  12.0000000  12.0000000  12.0000000  12.0000000  12.0000000  12.0000000   1.0078250   1.0078250
 NucSpn=           1           2           0           0           0           0           0           0           1           1
 AtZEff=  -0.0000000  -0.0000000  -0.0000000  -0.0000000  -0.0000000  -0.0000000  -0.0000000  -0.0000000  -0.0000000  -0.0000000
 NQMom=    0.0000000   2.0440000   0.0000000   0.0000000   0.0000000   0.0000000   0.0000000   0.0000000   0.0000000   0.0000000
 NMagM=    2.7928460   0.4037610   0.0000000   0.0000000   0.0000000   0.0000000   0.0000000   0.0000000   2.7928460   2.7928460
 AtZNuc=   1.0000000   7.0000000   6.0000000   6.0000000   6.0000000   6.0000000   6.0000000   6.0000000   1.0000000   1.0000000

  Atom        31          32          33          34          35          36          37          38          39          40
 IAtWgt=           1           1           1          12          12          12          12          12          12           1
 AtmWgt=   1.0078250   1.0078250   1.0078250  12.0000000  12.0000000  12.0000000  12.0000000  12.0000000  12.0000000   1.0078250
 NucSpn=           1           1           1           0           0           0           0           0           0           1
 AtZEff=  -0.0000000  -0.0000000  -0.0000000  -0.0000000  -0.0000000  -0.0000000  -0.0000000  -0.0000000  -0.0000000  -0.0000000
 NQMom=    0.0000000   0.0000000   0.0000000   0.0000000   0.0000000   0.0000000   0.0000000   0.0000000   0.0000000   0.0000000
 NMagM=    2.7928460   2.7928460   2.7928460   0.0000000   0.0000000   0.0000000   0.0000000   0.0000000   0.0000000   2.7928460
 AtZNuc=   1.0000000   1.0000000   1.0000000   6.0000000   6.0000000   6.0000000   6.0000000   6.0000000   6.0000000   1.0000000

  Atom        41          42          43          44
 IAtWgt=           1           1           1           1
 AtmWgt=   1.0078250   1.0078250   1.0078250   1.0078250
 NucSpn=           1           1           1           1
 AtZEff=  -0.0000000  -0.0000000  -0.0000000  -0.0000000
 NQMom=    0.0000000   0.0000000   0.0000000   0.0000000
 NMagM=    2.7928460   2.7928460   2.7928460   2.7928460
 AtZNuc=   1.0000000   1.0000000   1.0000000   1.0000000
 Leave Link  101 at Sun Jan 17 15:15:54 2021, MaxMem=  4026531840 cpu:               0.7 elap:               0.1
 (Enter /opt/ohpc/pub/libs/gaussian/g16-A.03/sandybridge/g16/l202.exe)
                          Input orientation:                          
 ---------------------------------------------------------------------
 Center     Atomic      Atomic             Coordinates (Angstroms)
 Number     Number       Type             X           Y           Z
 ---------------------------------------------------------------------
      1          6           0        6.129184    1.201496   -0.030856
      2          6           0        6.830271    0.000001    0.000182
      3          6           0        4.738958    1.200713   -0.032197
      4          6           0        6.129235   -1.201473    0.031153
      5          6           0        4.021751   -0.000032    0.000031
      6          6           0        4.738962   -1.200719    0.032361
      7          1           0        7.919539    0.000045    0.000190
      8          1           0        4.198073    2.145454   -0.081149
      9          1           0        6.668779   -2.147537    0.063412
     10          1           0        4.198148   -2.145504    0.081256
     11          6           0        2.536892   -0.000014   -0.000063
     12          6           0        1.813363   -0.924286   -0.760077
     13          6           0        1.813258    0.924290    0.759786
     14          6           0        0.426027   -0.922473   -0.771159
     15          6           0        0.425899    0.922498    0.770636
     16          6           0       -0.288344    0.000018   -0.000311
     17          1           0        2.347573   -1.638662   -1.386050
     18          1           0        2.347350    1.638674    1.385851
     19          1           0       -0.115370   -1.638494   -1.387158
     20          1           0       -0.115571    1.638578    1.386504
     21          1           0        6.668762    2.147543   -0.063006
     22          7           0       -1.704382   -0.000003   -0.000499
     23          6           0       -2.414266    1.227770    0.004035
     24          6           0       -3.559402    1.382015    0.792108
     25          6           0       -1.979956    2.301413   -0.780170
     26          6           0       -4.257371    2.583383    0.786193
     27          6           0       -2.673527    3.505213   -0.765830
     28          6           0       -3.817854    3.653503    0.012423
     29          1           0       -3.900046    0.551242    1.407814
     30          1           0       -1.092486    2.185578   -1.400082
     31          1           0       -5.147916    2.686607    1.405370
     32          1           0       -2.321511    4.331764   -1.382280
     33          1           0       -4.363183    4.595952    0.015664
     34          6           0       -2.414241   -1.227791   -0.004406
     35          6           0       -3.559682   -1.382189   -0.792032
     36          6           0       -1.979686   -2.301249    0.779869
     37          6           0       -4.257673   -2.583532   -0.785597
     38          6           0       -2.673287   -3.505060    0.766028
     39          6           0       -3.817885   -3.653507   -0.011769
     40          1           0       -3.900521   -0.551523   -1.407763
     41          1           0       -1.092008   -2.185299    1.399468
     42          1           0       -5.148466   -2.686887   -1.404399
     43          1           0       -2.321010   -4.331477    1.382521
     44          1           0       -4.363223   -4.595951   -0.014691
 ---------------------------------------------------------------------
                    Distance matrix (angstroms):
                    1          2          3          4          5
     1  C    0.000000
     2  C    1.391430   0.000000
     3  C    1.390227   2.411711   0.000000
     4  C    2.403769   1.391384   2.776217   0.000000
     5  C    2.426087   2.808520   1.399004   2.426091   0.000000
     6  C    2.776212   2.411708   2.402300   1.390274   1.398959
     7  H    2.156344   1.089268   3.399816   2.156338   3.897788
     8  H    2.150064   3.396770   1.089719   3.865737   2.154249
     9  H    3.393534   2.154529   3.865764   1.089580   3.409186
    10  H    3.865731   3.396739   3.391536   2.150070   2.154243
    11  C    3.788025   4.293379   2.508361   3.788061   1.484859
    12  C    4.865904   5.157680   3.688433   4.396547   2.511770
    13  C    4.396496   5.157686   3.043578   4.865946   2.511780
    14  C    6.130685   6.516154   4.863677   5.766119   3.791420
    15  C    5.766081   6.516178   4.395955   6.130753   3.791444
    16  C    6.529100   7.118615   5.168796   6.529157   4.310095
    17  H    4.919718   4.970054   3.951416   4.062089   2.721985
    18  H    4.062075   4.970101   2.814686   4.919786   2.722035
    19  H    6.992822   7.269890   5.784593   6.418542   4.660968
    20  H    6.418482   7.269907   5.076504   6.992887   4.660985
    21  H    1.089579   2.154533   2.149786   3.393503   3.409211
    22  N    7.925230   8.534653   6.554339   7.925282   5.726133
    23  C    8.543562   9.325712   7.153367   8.882194   6.552086
    24  C    9.725151  10.511062   8.341171  10.056001   7.746697
    25  C    8.217630   9.139231   6.849439   8.870594   6.475017
    26  C   10.509886  11.411726   9.138680  11.080470   8.708384
    27  C    9.128802  10.158517   7.797042  10.013825   7.596054
    28  C   10.244890  11.257477   8.901528  11.068682   8.649155
    29  H   10.152736  10.836282   8.782245  10.273932   8.064777
    30  H    7.415910   8.337120   6.070157   8.103937   5.735209
    31  H   11.464785  12.355945  10.100731  12.007488   9.657940
    32  H    9.112583  10.219124   7.840690  10.199491   7.804628
    33  H   11.027886  12.100265   9.714881  11.987544   9.561926
    34  C    8.882131   9.325690   7.554248   8.543591   6.552053
    35  C   10.056289  10.511383   8.724457   9.725503   7.746990
    36  C    8.870190   9.138873   7.619932   8.217340   6.474642
    37  C   11.080743  11.412037   9.789152  10.510234   8.708648
    38  C   10.013500  10.158228   8.816056   9.128579   7.595756
    39  C   11.068677  11.257508   9.837857  10.244975   8.649157
    40  H   10.274431  10.836807   8.922058  10.153271   8.065260
    41  H    8.103198   8.336429   6.893106   7.415292   5.734488
    42  H   12.007978  12.356470  10.712494  11.465331   9.658390
    43  H   10.198882  10.218537   9.080182   9.112067   7.804057
    44  H   11.987546  12.100302  10.791261  11.027976   9.561929
                    6          7          8          9         10
     6  C    0.000000
     7  H    3.399844   0.000000
     8  H    3.391507   4.296360   0.000000
     9  H    2.149796   2.486062   4.955306   0.000000
    10  H    1.089720   4.296359   4.294030   2.470696   0.000000
    11  C    2.508357   5.382647   2.714614   4.657078   2.714684
    12  C    3.043600   6.222361   3.946022   5.074401   2.808276
    13  C    3.688435   6.222370   2.808159   5.787672   3.946104
    14  C    4.395961   7.589383   4.910868   6.416326   4.056022
    15  C    4.863704   7.589410   4.055916   6.992770   4.910982
    16  C    5.168814   8.207883   4.973667   7.281319   4.973784
    17  H    2.814680   5.971083   4.409836   4.586144   2.415472
    18  H    3.951442   5.971135   2.415386   5.895675   4.409923
    19  H    5.076536   8.316809   5.884702   6.956145   4.584729
    20  H    5.784618   8.316829   4.584589   7.881158   5.884821
    21  H    3.865758   2.485998   2.470756   4.296940   4.955300
    22  N    6.554348   9.623921   6.280801   8.644409   6.280901
    23  C    7.554272  10.406481   6.676258   9.690094   7.423541
    24  C    8.724138  11.588920   7.843713  10.844557   8.551508
    25  C    7.620301  10.193393   6.219405   9.762449   7.660685
    26  C    9.788856  12.472713   8.511087  11.928318   9.713656
    27  C    8.816343  11.184187   7.038226  10.950795   8.936894
    28  C    9.837834  12.292856   8.157086  11.984329   9.893913
    29  H    8.921530  11.915864   8.386779  10.990491   8.637878
    30  H    6.893815   9.378375   5.452633   9.008603   6.995959
    31  H   10.711994  13.414564   9.478929  12.837604  10.604315
    32  H    9.080741  11.205093   6.998419  11.175718   9.306067
    33  H   10.791233  13.114414   8.905584  12.929853  10.897152
    34  C    7.153349  10.406470   7.423434   9.129720   6.676318
    35  C    8.341466  11.589249   8.551747  10.292665   7.844056
    36  C    6.849100  10.193062   7.660237   8.679452   6.219160
    37  C    9.138964  12.473044   9.713866  10.968056   8.511417
    38  C    7.796774  11.183927   8.936532   9.466295   7.038034
    39  C    8.901559  12.292913   9.893854  10.594514   8.157175
    40  H    8.782715  11.916391   8.638334  10.789890   8.387276
    41  H    6.069480   9.377723   6.995184   7.875042   5.452065
    42  H   10.101198  13.415112  10.604730  11.920262   9.479423
    43  H    7.840139  11.204542   9.305450   9.344835   6.997942
    44  H    9.714916  13.114482  10.897098  11.300703   8.905671
                   11         12         13         14         15
    11  C    0.000000
    12  C    1.398354   0.000000
    13  C    1.398340   2.393160   0.000000
    14  C    2.429253   1.387381   2.771053   0.000000
    15  C    2.429258   2.771056   1.387403   2.404381   0.000000
    16  C    2.825236   2.418420   2.418420   1.398400   1.398382
    17  H    2.154523   1.089750   3.385089   2.140878   3.860527
    18  H    2.154526   3.385102   1.089750   3.860524   2.140881
    19  H    3.412205   2.150194   3.859642   1.088693   3.392304
    20  H    3.412200   3.859646   2.150201   3.392318   1.088694
    21  H    4.657071   5.787654   5.074372   6.992726   6.416310
    22  N    4.241274   3.715614   3.715662   2.446121   2.446171
    23  C    5.101121   4.805004   4.305255   3.645783   2.957601
    24  C    6.300979   6.049372   5.392220   4.861904   4.011763
    25  C    5.129040   4.979438   4.319306   4.022720   3.177191
    26  C    7.311234   7.179729   6.293316   6.053973   4.969084
    27  C    6.326253   6.304972   5.396286   5.404782   4.317127
    28  C    7.330153   7.298186   6.302109   6.289999   5.103206
    29  H    6.612123   6.286492   5.762026   5.063069   4.388351
    30  H    4.461978   4.304047   3.833957   3.515879   2.934771
    31  H    8.261322   8.135546   7.209749   6.987959   5.880679
    32  H    6.654240   6.716426   5.770237   5.960658   4.879181
    33  H    8.290608   8.320128   7.223797   7.349057   6.082726
    34  C    5.101095   4.305321   4.804913   2.957744   3.645659
    35  C    6.301257   5.392616   6.049502   4.012188   4.861931
    36  C    5.128689   4.319107   4.979049   3.177132   4.022371
    37  C    7.311480   6.293745   7.179779   4.969544   6.053921
    38  C    6.325995   5.396241   6.304623   4.317227   5.404465
    39  C    7.330166   6.302346   7.298034   5.103529   6.289808
    40  H    6.612569   5.762545   6.286777   4.388837   5.063207
    41  H    4.461286   3.833402   4.303406   2.934413   3.515377
    42  H    8.261729   7.210338   8.135717   5.881252   6.987988
    43  H    6.653745   5.769984   6.715881   4.879125   5.960215
    44  H    8.290623   7.224053   8.319964   6.083058   7.348858
                   16         17         18         19         20
    16  C    0.000000
    17  H    3.399059   0.000000
    18  H    3.399047   4.292361   0.000000
    19  H    2.153598   2.462943   4.949182   0.000000
    20  H    2.153598   4.949185   2.462921   4.293297   0.000000
    21  H    7.281285   5.895631   4.586146   7.881110   6.956098
    22  N    1.416038   4.585117   4.585167   2.670662   2.670776
    23  C    2.454982   5.729213   4.975062   3.928843   2.713666
    24  C    3.638360   6.982923   5.942064   5.072872   3.504155
    25  C    2.960769   5.883773   4.884306   4.400907   2.934239
    26  C    4.800577   8.134469   6.698836   6.301101   4.290401
    27  C    4.308307   7.214954   5.772599   5.778230   3.828839
    28  C    5.079917   8.244709   6.629901   6.608513   4.433387
    29  H    3.915489   7.185687   6.341368   5.189469   3.937639
    30  H    2.717108   5.143833   4.460157   3.946954   3.003104
    31  H    5.727926   9.092983   7.568194   7.199391   5.140352
    32  H    4.980726   7.579337   6.059170   6.364830   4.448099
    33  H    6.142245   9.266578   7.460171   7.673340   5.354201
    34  C    2.454989   4.975201   5.729065   2.713943   3.928688
    35  C    3.638540   5.942583   6.982966   3.504733   5.072766
    36  C    2.960599   4.884199   5.883319   2.934438   4.400587
    37  C    4.800727   6.699448   8.134405   4.291113   6.300892
    38  C    4.308225   5.772687   7.214498   3.829258   5.777881
    39  C    5.079964   6.630318   8.244431   4.434026   6.608212
    40  H    3.915730   6.342005   7.185898   3.938185   5.189443
    41  H    2.716775   4.459668   5.143164   3.003015   3.946598
    42  H    5.728150   7.568997   9.093032   5.141156   7.199224
    43  H    4.980543   6.059035   7.578674   4.448385   6.364396
    44  H    6.142294   7.460628   9.266275   5.354855   7.673021
                   21         22         23         24         25
    21  H    0.000000
    22  N    8.644386   0.000000
    23  C    9.129725   1.418232   0.000000
    24  C   10.292356   2.445260   1.398638   0.000000
    25  C    8.679765   2.445474   1.398682   2.410809   0.000000
    26  C   10.967747   3.716251   2.417952   1.389417   2.778420
    27  C    9.466551   3.716384   2.417986   2.778474   1.389381
    28  C   10.594466   4.220786   2.802554   2.415443   2.415413
    29  H   10.789402   2.666113   2.153097   1.088722   3.396633
    30  H    7.875671   2.666461   2.153147   3.396628   1.088720
    31  H   11.919757   4.588275   3.400704   2.145094   3.867936
    32  H    9.345390   4.588504   3.400772   3.867991   2.145116
    33  H   11.300651   5.309641   3.891409   3.402693   3.402651
    34  C    9.690060   1.418231   2.455576   2.959209   3.639463
    35  C   10.844886   2.445220   2.959322   3.185957   4.008067
    36  C    9.762061   2.445506   3.639334   4.007753   4.859858
    37  C   11.928629   3.716221   4.306703   4.324615   5.389871
    38  C   10.950484   3.716418   4.800771   4.966828   6.048683
    39  C   11.984347   4.220795   5.079100   5.105831   6.279291
    40  H   10.991045   2.666007   2.714408   2.948621   3.495953
    41  H    9.007880   2.666539   3.917223   4.379800   5.066543
    42  H   12.838143   4.588245   4.978361   4.889349   5.942411
    43  H   11.175117   4.588534   5.728363   5.875899   6.984897
    44  H   12.929878   5.309649   6.141214   6.085485   7.337544
                   26         27         28         29         30
    26  C    0.000000
    27  C    2.401480   0.000000
    28  C    1.391780   1.391816   0.000000
    29  H    2.154922   3.867172   3.402631   0.000000
    30  H    3.867111   2.154856   3.402588   4.293917   0.000000
    31  H    1.089544   3.392171   2.155053   2.473251   4.956622
    32  H    3.392148   1.089547   2.155058   4.956687   2.473244
    33  H    2.157625   2.157633   1.088855   4.302587   4.302522
    34  C    4.306649   4.800867   5.079118   2.714211   3.917402
    35  C    4.324734   4.967158   5.106074   2.948445   4.380153
    36  C    5.389575   6.048603   6.279085   3.495540   5.066648
    37  C    5.400698   6.291480   6.303244   3.842624   5.756771
    38  C    6.291174   7.175689   7.288551   4.286072   6.290813
    39  C    6.303070   7.288720   7.307050   4.438680   6.591671
    40  H    3.842970   4.286572   4.439145   3.023833   3.921332
    41  H    5.756384   6.290600   6.591338   3.920944   5.190573
    42  H    5.776547   6.698895   6.631626   4.466830   6.339709
    43  H    7.205580   8.133473   8.238787   5.131758   7.191951
    44  H    7.224642   8.309521   8.267506   5.360191   7.655466
                   31         32         33         34         35
    31  H    0.000000
    32  H    4.297220   0.000000
    33  H    2.488511   2.488467   0.000000
    34  C    4.978249   5.728507   6.141234   0.000000
    35  C    4.889393   5.876284   6.085734   1.398652   0.000000
    36  C    5.942023   6.984883   7.337333   1.398656   2.410795
    37  C    5.776438   7.205975   7.224828   2.417961   1.389409
    38  C    6.698454   8.133559   8.309344   2.417980   2.778458
    39  C    6.631313   8.239053   8.267507   2.802565   2.415443
    40  H    4.467124   5.132291   5.360662   2.153086   1.088716
    41  H    6.339234   7.191795   7.655120   2.153134   3.396627
    42  H    6.063764   7.566613   7.461434   3.400725   2.145103
    43  H    7.566070   9.093727   9.259469   3.400754   3.867983
    44  H    7.461097   9.259751   9.191953   3.891419   3.402676
                   36         37         38         39         40
    36  C    0.000000
    37  C    2.778415   0.000000
    38  C    1.389401   2.401465   0.000000
    39  C    2.415423   1.391787   1.391801   0.000000
    40  H    3.396599   2.154927   3.867150   3.402636   0.000000
    41  H    1.088724   3.867109   2.154869   3.402592   4.293893
    42  H    3.867934   1.089546   3.392149   2.155045   2.473289
    43  H    2.145115   3.392154   1.089554   2.155069   4.956671
    44  H    3.402680   2.157607   2.157649   1.088854   4.302574
                   41         42         43         44
    41  H    0.000000
    42  H    4.956623   0.000000
    43  H    2.473219   4.297221   0.000000
    44  H    4.302550   2.488457   2.488530   0.000000
 Stoichiometry    C24H19N
 Framework group  C1[X(C24H19N)]
 Deg. of freedom   126
 Full point group                 C1      NOp   1
 Largest Abelian subgroup         C1      NOp   1
 Largest concise Abelian subgroup C1      NOp   1
                         Standard orientation:                         
 ---------------------------------------------------------------------
 Center     Atomic      Atomic             Coordinates (Angstroms)
 Number     Number       Type             X           Y           Z
 ---------------------------------------------------------------------
      1          6           0       -6.129184    1.201496    0.030856
      2          6           0       -6.830271    0.000001   -0.000182
      3          6           0       -4.738958    1.200713    0.032197
      4          6           0       -6.129235   -1.201473   -0.031153
      5          6           0       -4.021751   -0.000032   -0.000031
      6          6           0       -4.738962   -1.200719   -0.032361
      7          1           0       -7.919539    0.000045   -0.000190
      8          1           0       -4.198073    2.145454    0.081149
      9          1           0       -6.668779   -2.147537   -0.063412
     10          1           0       -4.198148   -2.145504   -0.081256
     11          6           0       -2.536892   -0.000014    0.000063
     12          6           0       -1.813363   -0.924286    0.760077
     13          6           0       -1.813258    0.924290   -0.759786
     14          6           0       -0.426027   -0.922473    0.771159
     15          6           0       -0.425899    0.922498   -0.770636
     16          6           0        0.288344    0.000018    0.000311
     17          1           0       -2.347573   -1.638662    1.386050
     18          1           0       -2.347350    1.638674   -1.385851
     19          1           0        0.115370   -1.638494    1.387158
     20          1           0        0.115571    1.638578   -1.386504
     21          1           0       -6.668762    2.147543    0.063006
     22          7           0        1.704382   -0.000003    0.000499
     23          6           0        2.414266    1.227770   -0.004035
     24          6           0        3.559402    1.382015   -0.792108
     25          6           0        1.979956    2.301413    0.780170
     26          6           0        4.257371    2.583383   -0.786193
     27          6           0        2.673527    3.505213    0.765830
     28          6           0        3.817854    3.653503   -0.012423
     29          1           0        3.900046    0.551242   -1.407814
     30          1           0        1.092486    2.185578    1.400082
     31          1           0        5.147916    2.686607   -1.405370
     32          1           0        2.321511    4.331764    1.382280
     33          1           0        4.363183    4.595952   -0.015664
     34          6           0        2.414241   -1.227791    0.004406
     35          6           0        3.559682   -1.382189    0.792032
     36          6           0        1.979686   -2.301249   -0.779869
     37          6           0        4.257673   -2.583532    0.785597
     38          6           0        2.673287   -3.505060   -0.766028
     39          6           0        3.817885   -3.653507    0.011769
     40          1           0        3.900521   -0.551523    1.407763
     41          1           0        1.092008   -2.185299   -1.399468
     42          1           0        5.148466   -2.686887    1.404399
     43          1           0        2.321010   -4.331477   -1.382521
     44          1           0        4.363223   -4.595951    0.014691
 ---------------------------------------------------------------------
 Rotational constants (GHZ):           0.3772696           0.1165367           0.0926339
 Leave Link  202 at Sun Jan 17 15:15:54 2021, MaxMem=  4026531840 cpu:               0.2 elap:               0.0
 (Enter /opt/ohpc/pub/libs/gaussian/g16-A.03/sandybridge/g16/l301.exe)
 Standard basis: TZVP (5D, 7F)
 Ernie: Thresh=  0.10000D-02 Tol=  0.10000D-05 Strict=F.
 There are   614 symmetry adapted cartesian basis functions of A   symmetry.
 There are   589 symmetry adapted basis functions of A   symmetry.
   589 basis functions,  1027 primitive gaussians,   614 cartesian basis functions
    85 alpha electrons       85 beta electrons
       nuclear repulsion energy      1905.4959532784 Hartrees.
 IExCor=33909 DFT=T Ex+Corr=LC-wHPBE ExCW=0 ScaHFX=  1.000000
 ScaDFX=  1.000000  1.000000  1.000000  1.000000 ScalE2=  1.000000  1.000000
 IRadAn=      5 IRanWt=     -1 IRanGd=            0 ICorTp=0 IEmpDi=  4
 HFx  wShort=  0.000000 wLong=  0.182400 cFull=  0.000000 cShort=  0.000000 cLong=  1.000000
 DFx  wShort=  0.000000 wLong=  0.182400 cFull=  0.000000 cShort=  1.000000 cLong=  0.000000
 NAtoms=   44 NActive=   44 NUniq=   44 SFac= 1.00D+00 NAtFMM=   60 NAOKFM=F Big=F
 Integral buffers will be    131072 words long.
 Raffenetti 2 integral format.
 Two-electron integral symmetry is turned on.
 Leave Link  301 at Sun Jan 17 15:15:54 2021, MaxMem=  4026531840 cpu:               0.4 elap:               0.1
 (Enter /opt/ohpc/pub/libs/gaussian/g16-A.03/sandybridge/g16/l302.exe)
 NPDir=0 NMtPBC=     1 NCelOv=     1 NCel=       1 NClECP=     1 NCelD=      1
         NCelK=      1 NCelE2=     1 NClLst=     1 CellRange=     0.0.
 One-electron integrals computed using PRISM.
 One-electron integral symmetry used in STVInt
 NBasis=   589 RedAO= T EigKep=  7.25D-06  NBF=   589
 NBsUse=   589 1.00D-06 EigRej= -1.00D+00 NBFU=   589
 Precomputing XC quadrature grid using
 IXCGrd= 4 IRadAn=           5 IRanWt=          -1 IRanGd=           0 AccXCQ= 0.00D+00.
 Generated NRdTot=       0 NPtTot=           0 NUsed=           0 NTot=          32
 NSgBfM=   586   586   586   586   586 MxSgAt=    44 MxSgA2=    44.
 Leave Link  302 at Sun Jan 17 15:15:55 2021, MaxMem=  4026531840 cpu:               8.0 elap:               1.1
 (Enter /opt/ohpc/pub/libs/gaussian/g16-A.03/sandybridge/g16/l303.exe)
 DipDrv:  MaxL=1.
 Leave Link  303 at Sun Jan 17 15:15:56 2021, MaxMem=  4026531840 cpu:               0.8 elap:               0.1
 (Enter /opt/ohpc/pub/libs/gaussian/g16-A.03/sandybridge/g16/l401.exe)
 ExpMin= 9.52D-02 ExpMax= 1.97D+04 ExpMxC= 6.73D+02 IAcc=3 IRadAn=         5 AccDes= 0.00D+00
 Harris functional with IExCor=33909 and IRadAn=       5 diagonalized for initial guess.
 HarFok:  IExCor=33909 AccDes= 0.00D+00 IRadAn=         5 IDoV= 1 UseB2=F ITyADJ=14
 ICtDFT=  3500011 ScaDFX=  1.000000  1.000000  1.000000  1.000000
 FoFCou: FMM=F IPFlag=           0 FMFlag=      100000 FMFlg1=           0
         NFxFlg=           0 DoJE=T BraDBF=F KetDBF=T FulRan=T
         wScrn=  0.000000 ICntrl=       500 IOpCl=  0 I1Cent=   200000004 NGrid=           0
         NMat0=    1 NMatS0=      1 NMatT0=    0 NMatD0=    1 NMtDS0=    0 NMtDT0=    0
 Petite list used in FoFCou.
 Harris En= -963.605969054141    
 JPrj=0 DoOrth=F DoCkMO=F.
 Leave Link  401 at Sun Jan 17 15:16:02 2021, MaxMem=  4026531840 cpu:              48.1 elap:               6.1
 (Enter /opt/ohpc/pub/libs/gaussian/g16-A.03/sandybridge/g16/l502.exe)
 Integral symmetry usage will be decided dynamically.
 Closed shell SCF:
 Using DIIS extrapolation, IDIIS=    10.
 NGot=  4026531840 LenX=  4025766914 LenY=  4025389304
 Requested convergence on RMS density matrix=1.00D-06 within  32 cycles.
 Requested convergence on MAX density matrix=1.00D-04.
 Requested convergence on             energy=1.00D-04.
 Virtual orbitals will be shifted by   0.500 hartree.
 No special actions if energy rises.
 Dynamic level shift is on during FON iterations.

 Cycle   1  Pass 1  IDiag  1:
 FoFJK:  IHMeth= 1 ICntrl=       0 DoSepK=T KAlg= 0 I1Cent=           0 FoldK=F
 IRaf=         1 NMat=       1 IRICut=       1 DoRegI=T DoRafI=F ISym2E= 0 IDoP0=0 IntGTp=1.
 FoFCou: FMM=F IPFlag=           0 FMFlag=      100000 FMFlg1=           0
         NFxFlg=           0 DoJE=T BraDBF=F KetDBF=F FulRan=T
         wScrn=  0.000000 ICntrl=       500 IOpCl=  0 I1Cent=           0 NGrid=           0
         NMat0=    1 NMatS0=      1 NMatT0=    0 NMatD0=    1 NMtDS0=    0 NMtDT0=    0
 Symmetry not used in FoFCou.
 E= -979.669785960105    
 DIIS: error= 3.36D-02 at cycle   1 NSaved=   1.
 NSaved= 1 IEnMin= 1 EnMin= -979.669785960105     IErMin= 1 ErrMin= 3.36D-02
 ErrMax= 3.36D-02  0.00D+00 EMaxC= 1.00D+00 BMatC= 4.13D-01 BMatP= 4.13D-01
 IDIUse=1 WtCom= 1.00D+00 WtEn= 0.00D+00
 Coeff-Com:  0.100D+01
 Coeff:      0.100D+01
 Gap=     0.295 Goal=   None    Shift=    0.500
 T= 1565. Gap= 0.746 NK=0 IS=   86 IE=  589 IFin=   85
          NO(<0.9)=   0  NV(>0.1)=   0     85.00e < EF      0.00e >EF  Err=0.0D+00
 GapD=    0.295 DampG=1.000 DampE=0.500 DampFc=0.5000 IDamp=-1.
 Damping current iteration by 5.00D-01
 RMSDP=2.37D-03 MaxDP=9.42D-02              OVMax= 7.88D-02

 Cycle   2  Pass 1  IDiag  1:
 E= -979.933963130914     Delta-E=       -0.264177170809 Rises=F Damp=T
 DIIS: error= 1.56D-02 at cycle   2 NSaved=   2.
 NSaved= 2 IEnMin= 2 EnMin= -979.933963130914     IErMin= 2 ErrMin= 1.56D-02
 ErrMax= 1.56D-02  0.00D+00 EMaxC= 1.00D+00 BMatC= 7.18D-02 BMatP= 4.13D-01
 IDIUse=1 WtCom= 1.00D+00 WtEn= 0.00D+00
 Coeff-Com: -0.573D+00 0.157D+01
 Coeff:     -0.573D+00 0.157D+01
 Gap=     0.274 Goal=   None    Shift=    0.500
 T= 1446. Gap= 0.744 NK=0 IS=   86 IE=  589 IFin=   85
          NO(<0.9)=   0  NV(>0.1)=   0     85.00e < EF      0.00e >EF  Err=0.0D+00
 GapD=    0.274 DampG=1.000 DampE=0.500 DampFc=0.5000 IDamp=-1.
 Damping current iteration by 5.00D-01
 RMSDP=1.37D-03 MaxDP=6.57D-02 DE=-2.64D-01 OVMax= 2.03D-02

 Cycle   3  Pass 1  IDiag  1:
 E= -980.025051440604     Delta-E=       -0.091088309690 Rises=F Damp=T
 DIIS: error= 7.24D-03 at cycle   3 NSaved=   3.
 NSaved= 3 IEnMin= 3 EnMin= -980.025051440604     IErMin= 3 ErrMin= 7.24D-03
 ErrMax= 7.24D-03  0.00D+00 EMaxC= 1.00D+00 BMatC= 1.39D-02 BMatP= 7.18D-02
 IDIUse=1 WtCom= 1.00D+00 WtEn= 0.00D+00
 Coeff-Com:  0.430D-01-0.859D+00 0.182D+01
 Coeff:      0.430D-01-0.859D+00 0.182D+01
 Gap=     0.259 Goal=   None    Shift=    0.500
 T= 1216. Gap= 0.757 NK=0 IS=   86 IE=  589 IFin=   85
          NO(<0.9)=   0  NV(>0.1)=   0     85.00e < EF      0.00e >EF  Err=0.0D+00
 GapD=    0.259 DampG=1.000 DampE=1.000 DampFc=1.0000 IDamp=-1.
 RMSDP=7.34D-04 MaxDP=3.86D-02 DE=-9.11D-02 OVMax= 1.16D-02

 Cycle   4  Pass 1  IDiag  1:
 E= -980.100504540295     Delta-E=       -0.075453099691 Rises=F Damp=F
 DIIS: error= 1.13D-03 at cycle   4 NSaved=   4.
 NSaved= 4 IEnMin= 4 EnMin= -980.100504540295     IErMin= 4 ErrMin= 1.13D-03
 ErrMax= 1.13D-03  0.00D+00 EMaxC= 1.00D+00 BMatC= 5.81D-04 BMatP= 1.39D-02
 IDIUse=1 WtCom= 1.00D+00 WtEn= 0.00D+00
 Coeff-Com:  0.801D-01-0.243D+00 0.236D+00 0.927D+00
 Coeff:      0.801D-01-0.243D+00 0.236D+00 0.927D+00
 Gap=     0.254 Goal=   None    Shift=    0.500
 T=  702. Gap= 0.754 NK=0 IS=   86 IE=  589 IFin=   85
          NO(<0.9)=   0  NV(>0.1)=   0     85.00e < EF      0.00e >EF  Err=0.0D+00
 GapD=    0.254 DampG=1.000 DampE=1.000 DampFc=1.0000 IDamp=-1.
 RMSDP=1.70D-04 MaxDP=7.49D-03 DE=-7.55D-02 OVMax= 5.61D-03

 Cycle   5  Pass 1  IDiag  1:
 E= -980.101135512097     Delta-E=       -0.000630971802 Rises=F Damp=F
 DIIS: error= 4.77D-04 at cycle   5 NSaved=   5.
 NSaved= 5 IEnMin= 5 EnMin= -980.101135512097     IErMin= 5 ErrMin= 4.77D-04
 ErrMax= 4.77D-04  0.00D+00 EMaxC= 1.00D+00 BMatC= 8.63D-05 BMatP= 5.81D-04
 IDIUse=1 WtCom= 1.00D+00 WtEn= 0.00D+00
 Coeff-Com:  0.168D-01-0.807D-03-0.672D-01-0.186D+00 0.124D+01
 Coeff:      0.168D-01-0.807D-03-0.672D-01-0.186D+00 0.124D+01
 Gap=     0.254 Goal=   None    Shift=    0.500
 RMSDP=1.25D-04 MaxDP=5.25D-03 DE=-6.31D-04 OVMax= 4.41D-03

 Cycle   6  Pass 1  IDiag  1:
 E= -980.101298154091     Delta-E=       -0.000162641994 Rises=F Damp=F
 DIIS: error= 4.44D-04 at cycle   6 NSaved=   6.
 NSaved= 6 IEnMin= 6 EnMin= -980.101298154091     IErMin= 6 ErrMin= 4.44D-04
 ErrMax= 4.44D-04  0.00D+00 EMaxC= 1.00D+00 BMatC= 1.82D-05 BMatP= 8.63D-05
 IDIUse=1 WtCom= 1.00D+00 WtEn= 0.00D+00
 Coeff-Com: -0.105D-01 0.437D-01-0.600D-01-0.235D+00 0.845D-01 0.118D+01
 Coeff:     -0.105D-01 0.437D-01-0.600D-01-0.235D+00 0.845D-01 0.118D+01
 Gap=     0.254 Goal=   None    Shift=    0.500
 RMSDP=7.58D-05 MaxDP=3.50D-03 DE=-1.63D-04 OVMax= 3.71D-03

 Cycle   7  Pass 1  IDiag  1:
 E= -980.101356006966     Delta-E=       -0.000057852875 Rises=F Damp=F
 DIIS: error= 3.08D-04 at cycle   7 NSaved=   7.
 NSaved= 7 IEnMin= 7 EnMin= -980.101356006966     IErMin= 7 ErrMin= 3.08D-04
 ErrMax= 3.08D-04  0.00D+00 EMaxC= 1.00D+00 BMatC= 5.77D-06 BMatP= 1.82D-05
 IDIUse=1 WtCom= 1.00D+00 WtEn= 0.00D+00
 Coeff-Com: -0.626D-02 0.590D-02 0.827D-02 0.310D-01-0.343D+00-0.457D+00
 Coeff-Com:  0.176D+01
 Coeff:     -0.626D-02 0.590D-02 0.827D-02 0.310D-01-0.343D+00-0.457D+00
 Coeff:      0.176D+01
 Gap=     0.255 Goal=   None    Shift=    0.500
 RMSDP=4.36D-05 MaxDP=1.95D-03 DE=-5.79D-05 OVMax= 2.93D-03

 Cycle   8  Pass 1  IDiag  1:
 E= -980.101382674133     Delta-E=       -0.000026667166 Rises=F Damp=F
 DIIS: error= 2.16D-04 at cycle   8 NSaved=   8.
 NSaved= 8 IEnMin= 8 EnMin= -980.101382674133     IErMin= 8 ErrMin= 2.16D-04
 ErrMax= 2.16D-04  0.00D+00 EMaxC= 1.00D+00 BMatC= 2.40D-06 BMatP= 5.77D-06
 IDIUse=1 WtCom= 1.00D+00 WtEn= 0.00D+00
 Coeff-Com:  0.231D-02-0.754D-02 0.740D-02 0.810D-01-0.520D-01-0.442D+00
 Coeff-Com: -0.674D+00 0.208D+01
 Coeff:      0.231D-02-0.754D-02 0.740D-02 0.810D-01-0.520D-01-0.442D+00
 Coeff:     -0.674D+00 0.208D+01
 Gap=     0.255 Goal=   None    Shift=    0.500
 RMSDP=2.06D-05 MaxDP=8.77D-04 DE=-2.67D-05 OVMax= 2.21D-03

 Cycle   9  Pass 1  IDiag  1:
 E= -980.101395213689     Delta-E=       -0.000012539556 Rises=F Damp=F
 DIIS: error= 1.51D-04 at cycle   9 NSaved=   9.
 NSaved= 9 IEnMin= 9 EnMin= -980.101395213689     IErMin= 9 ErrMin= 1.51D-04
 ErrMax= 1.51D-04  0.00D+00 EMaxC= 1.00D+00 BMatC= 1.09D-06 BMatP= 2.40D-06
 IDIUse=1 WtCom= 1.00D+00 WtEn= 0.00D+00
 Coeff-Com:  0.216D-02 0.136D-02-0.977D-02 0.375D-01 0.971D-01-0.118D+00
 Coeff-Com: -0.925D+00 0.355D+00 0.156D+01
 Coeff:      0.216D-02 0.136D-02-0.977D-02 0.375D-01 0.971D-01-0.118D+00
 Coeff:     -0.925D+00 0.355D+00 0.156D+01
 Gap=     0.255 Goal=   None    Shift=    0.500
 RMSDP=9.04D-06 MaxDP=3.71D-04 DE=-1.25D-05 OVMax= 1.55D-03

 Cycle  10  Pass 1  IDiag  1:
 E= -980.101400843693     Delta-E=       -0.000005630004 Rises=F Damp=F
 DIIS: error= 9.93D-05 at cycle  10 NSaved=  10.
 NSaved=10 IEnMin=10 EnMin= -980.101400843693     IErMin=10 ErrMin= 9.93D-05
 ErrMax= 9.93D-05  0.00D+00 EMaxC= 1.00D+00 BMatC= 4.95D-07 BMatP= 1.09D-06
 IDIUse=1 WtCom= 1.00D+00 WtEn= 0.00D+00
 Coeff-Com: -0.686D-03 0.868D-02-0.146D-01-0.396D-02 0.684D-01 0.760D-01
 Coeff-Com: -0.140D+00-0.713D+00-0.235D+00 0.195D+01
 Coeff:     -0.686D-03 0.868D-02-0.146D-01-0.396D-02 0.684D-01 0.760D-01
 Coeff:     -0.140D+00-0.713D+00-0.235D+00 0.195D+01
 Gap=     0.255 Goal=   None    Shift=    0.500
 RMSDP=4.79D-06 MaxDP=1.40D-04 DE=-5.63D-06 OVMax= 1.09D-03

 Cycle  11  Pass 1  IDiag  1:
 E= -980.101403347587     Delta-E=       -0.000002503894 Rises=F Damp=F
 DIIS: error= 6.81D-05 at cycle  11 NSaved=  11.
 NSaved=11 IEnMin=11 EnMin= -980.101403347587     IErMin=11 ErrMin= 6.81D-05
 ErrMax= 6.81D-05  0.00D+00 EMaxC= 1.00D+00 BMatC= 2.30D-07 BMatP= 4.95D-07
 IDIUse=1 WtCom= 1.00D+00 WtEn= 0.00D+00
 Coeff-Com: -0.105D-02 0.446D-02-0.506D-02-0.191D-02-0.987D-02 0.353D-01
 Coeff-Com:  0.189D+00-0.239D+00-0.747D+00-0.222D+00 0.200D+01
 Coeff:     -0.105D-02 0.446D-02-0.506D-02-0.191D-02-0.987D-02 0.353D-01
 Coeff:      0.189D+00-0.239D+00-0.747D+00-0.222D+00 0.200D+01
 Gap=     0.255 Goal=   None    Shift=    0.500
 RMSDP=3.04D-06 MaxDP=8.88D-05 DE=-2.50D-06 OVMax= 7.24D-04

 Cycle  12  Pass 1  IDiag  1:
 E= -980.101404414354     Delta-E=       -0.000001066768 Rises=F Damp=F
 DIIS: error= 4.75D-05 at cycle  12 NSaved=  12.
 NSaved=12 IEnMin=12 EnMin= -980.101404414354     IErMin=12 ErrMin= 4.75D-05
 ErrMax= 4.75D-05  0.00D+00 EMaxC= 1.00D+00 BMatC= 1.08D-07 BMatP= 2.30D-07
 IDIUse=1 WtCom= 1.00D+00 WtEn= 0.00D+00
 Coeff-Com: -0.476D-03 0.855D-03 0.770D-04 0.419D-02-0.291D-01-0.590D-02
 Coeff-Com:  0.133D+00 0.157D+00-0.486D+00-0.840D+00 0.569D+00 0.150D+01
 Coeff:     -0.476D-03 0.855D-03 0.770D-04 0.419D-02-0.291D-01-0.590D-02
 Coeff:      0.133D+00 0.157D+00-0.486D+00-0.840D+00 0.569D+00 0.150D+01
 Gap=     0.255 Goal=   None    Shift=    0.500
 RMSDP=1.81D-06 MaxDP=5.47D-05 DE=-1.07D-06 OVMax= 4.79D-04

 Cycle  13  Pass 1  IDiag  1:
 E= -980.101404866528     Delta-E=       -0.000000452173 Rises=F Damp=F
 DIIS: error= 3.26D-05 at cycle  13 NSaved=  13.
 NSaved=13 IEnMin=13 EnMin= -980.101404866528     IErMin=13 ErrMin= 3.26D-05
 ErrMax= 3.26D-05  0.00D+00 EMaxC= 1.00D+00 BMatC= 4.82D-08 BMatP= 1.08D-07
 IDIUse=1 WtCom= 1.00D+00 WtEn= 0.00D+00
 Coeff-Com:  0.215D-03-0.397D-03 0.494D-04 0.447D-02-0.733D-03-0.146D-01
 Coeff-Com: -0.832D-01 0.191D+00 0.144D+00-0.626D-01-0.975D+00-0.748D+00
 Coeff-Com:  0.254D+01
 Coeff:      0.215D-03-0.397D-03 0.494D-04 0.447D-02-0.733D-03-0.146D-01
 Coeff:     -0.832D-01 0.191D+00 0.144D+00-0.626D-01-0.975D+00-0.748D+00
 Coeff:      0.254D+01
 Gap=     0.255 Goal=   None    Shift=    0.500
 RMSDP=1.16D-06 MaxDP=3.46D-05 DE=-4.52D-07 OVMax= 3.11D-04

 Cycle  14  Pass 1  IDiag  1:
 E= -980.101405054622     Delta-E=       -0.000000188094 Rises=F Damp=F
 DIIS: error= 2.24D-05 at cycle  14 NSaved=  14.
 NSaved=14 IEnMin=14 EnMin= -980.101405054622     IErMin=14 ErrMin= 2.24D-05
 ErrMax= 2.24D-05  0.00D+00 EMaxC= 1.00D+00 BMatC= 2.31D-08 BMatP= 4.82D-08
 IDIUse=1 WtCom= 1.00D+00 WtEn= 0.00D+00
 Coeff-Com:  0.224D-03-0.271D-03-0.257D-03 0.276D-02 0.408D-02-0.824D-02
 Coeff-Com: -0.824D-01 0.117D+00 0.194D+00 0.935D-01-0.870D+00-0.822D+00
 Coeff-Com:  0.126D+01 0.111D+01
 Coeff:      0.224D-03-0.271D-03-0.257D-03 0.276D-02 0.408D-02-0.824D-02
 Coeff:     -0.824D-01 0.117D+00 0.194D+00 0.935D-01-0.870D+00-0.822D+00
 Coeff:      0.126D+01 0.111D+01
 Gap=     0.255 Goal=   None    Shift=    0.500
 RMSDP=7.10D-07 MaxDP=2.15D-05 DE=-1.88D-07 OVMax= 2.04D-04

 SCF Done:  E(RLC-wHPBE) =  -980.101405055     A.U. after   14 cycles
            NFock= 14  Conv=0.71D-06     -V/T= 2.0048
 KE= 9.754048489620D+02 PE=-6.086291409259D+03 EE= 2.225289201964D+03
 Leave Link  502 at Sun Jan 17 15:25:34 2021, MaxMem=  4026531840 cpu:            4565.9 elap:             572.5
 (Enter /opt/ohpc/pub/libs/gaussian/g16-A.03/sandybridge/g16/l508.exe)
 QCSCF skips out because SCF is already converged.
 Leave Link  508 at Sun Jan 17 15:25:34 2021, MaxMem=  4026531840 cpu:               0.0 elap:               0.0
 (Enter /opt/ohpc/pub/libs/gaussian/g16-A.03/sandybridge/g16/l601.exe)
 Copying SCF densities to generalized density rwf, IOpCl= 0 IROHF=0.

 **********************************************************************

            Population analysis using the SCF density.

 **********************************************************************

 Orbital symmetries:
       Occupied  (A) (A) (A) (A) (A) (A) (A) (A) (A) (A) (A) (A)
                 (A) (A) (A) (A) (A) (A) (A) (A) (A) (A) (A) (A)
                 (A) (A) (A) (A) (A) (A) (A) (A) (A) (A) (A) (A)
                 (A) (A) (A) (A) (A) (A) (A) (A) (A) (A) (A) (A)
                 (A) (A) (A) (A) (A) (A) (A) (A) (A) (A) (A) (A)
                 (A) (A) (A) (A) (A) (A) (A) (A) (A) (A) (A) (A)
                 (A) (A) (A) (A) (A) (A) (A) (A) (A) (A) (A) (A)
                 (A)
       Virtual   (A) (A) (A) (A) (A) (A) (A) (A) (A) (A) (A) (A)
                 (A) (A) (A) (A) (A) (A) (A) (A) (A) (A) (A) (A)
                 (A) (A) (A) (A) (A) (A) (A) (A) (A) (A) (A) (A)
                 (A) (A) (A) (A) (A) (A) (A) (A) (A) (A) (A) (A)
                 (A) (A) (A) (A) (A) (A) (A) (A) (A) (A) (A) (A)
                 (A) (A) (A) (A) (A) (A) (A) (A) (A) (A) (A) (A)
                 (A) (A) (A) (A) (A) (A) (A) (A) (A) (A) (A) (A)
                 (A) (A) (A) (A) (A) (A) (A) (A) (A) (A) (A) (A)
                 (A) (A) (A) (A) (A) (A) (A) (A) (A) (A) (A) (A)
                 (A) (A) (A) (A) (A) (A) (A) (A) (A) (A) (A) (A)
                 (A) (A) (A) (A) (A) (A) (A) (A) (A) (A) (A) (A)
                 (A) (A) (A) (A) (A) (A) (A) (A) (A) (A) (A) (A)
                 (A) (A) (A) (A) (A) (A) (A) (A) (A) (A) (A) (A)
                 (A) (A) (A) (A) (A) (A) (A) (A) (A) (A) (A) (A)
                 (A) (A) (A) (A) (A) (A) (A) (A) (A) (A) (A) (A)
                 (A) (A) (A) (A) (A) (A) (A) (A) (A) (A) (A) (A)
                 (A) (A) (A) (A) (A) (A) (A) (A) (A) (A) (A) (A)
                 (A) (A) (A) (A) (A) (A) (A) (A) (A) (A) (A) (A)
                 (A) (A) (A) (A) (A) (A) (A) (A) (A) (A) (A) (A)
                 (A) (A) (A) (A) (A) (A) (A) (A) (A) (A) (A) (A)
                 (A) (A) (A) (A) (A) (A) (A) (A) (A) (A) (A) (A)
                 (A) (A) (A) (A) (A) (A) (A) (A) (A) (A) (A) (A)
                 (A) (A) (A) (A) (A) (A) (A) (A) (A) (A) (A) (A)
                 (A) (A) (A) (A) (A) (A) (A) (A) (A) (A) (A) (A)
                 (A) (A) (A) (A) (A) (A) (A) (A) (A) (A) (A) (A)
                 (A) (A) (A) (A) (A) (A) (A) (A) (A) (A) (A) (A)
                 (A) (A) (A) (A) (A) (A) (A) (A) (A) (A) (A) (A)
                 (A) (A) (A) (A) (A) (A) (A) (A) (A) (A) (A) (A)
                 (A) (A) (A) (A) (A) (A) (A) (A) (A) (A) (A) (A)
                 (A) (A) (A) (A) (A) (A) (A) (A) (A) (A) (A) (A)
                 (A) (A) (A) (A) (A) (A) (A) (A) (A) (A) (A) (A)
                 (A) (A) (A) (A) (A) (A) (A) (A) (A) (A) (A) (A)
                 (A) (A) (A) (A) (A) (A) (A) (A) (A) (A) (A) (A)
                 (A) (A) (A) (A) (A) (A) (A) (A) (A) (A) (A) (A)
                 (A) (A) (A) (A) (A) (A) (A) (A) (A) (A) (A) (A)
                 (A) (A) (A) (A) (A) (A) (A) (A) (A) (A) (A) (A)
                 (A) (A) (A) (A) (A) (A) (A) (A) (A) (A) (A) (A)
                 (A) (A) (A) (A) (A) (A) (A) (A) (A) (A) (A) (A)
                 (A) (A) (A) (A) (A) (A) (A) (A) (A) (A) (A) (A)
                 (A) (A) (A) (A) (A) (A) (A) (A) (A) (A) (A) (A)
                 (A) (A) (A) (A) (A) (A) (A) (A) (A) (A) (A) (A)
                 (A) (A) (A) (A) (A) (A) (A) (A) (A) (A) (A) (A)
 The electronic state is 1-A.
 Alpha  occ. eigenvalues --  -14.12420 -10.03327 -10.03325 -10.03306 -10.00188
 Alpha  occ. eigenvalues --   -9.99901  -9.99293  -9.99293  -9.99289  -9.99289
 Alpha  occ. eigenvalues --   -9.99280  -9.99277  -9.99110  -9.99107  -9.99057
 Alpha  occ. eigenvalues --   -9.99056  -9.99026  -9.99026  -9.99018  -9.99018
 Alpha  occ. eigenvalues --   -9.99014  -9.99014  -9.98980  -9.98828  -9.98828
 Alpha  occ. eigenvalues --   -0.99727  -0.90222  -0.89222  -0.88616  -0.87204
 Alpha  occ. eigenvalues --   -0.81560  -0.79859  -0.78724  -0.78623  -0.78284
 Alpha  occ. eigenvalues --   -0.77956  -0.77273  -0.74219  -0.68031  -0.67628
 Alpha  occ. eigenvalues --   -0.65929  -0.65160  -0.64837  -0.63700  -0.63234
 Alpha  occ. eigenvalues --   -0.61613  -0.58954  -0.58811  -0.57335  -0.54658
 Alpha  occ. eigenvalues --   -0.53281  -0.52436  -0.52306  -0.50898  -0.50333
 Alpha  occ. eigenvalues --   -0.49426  -0.49181  -0.48970  -0.48296  -0.48053
 Alpha  occ. eigenvalues --   -0.47542  -0.47336  -0.47197  -0.46804  -0.44060
 Alpha  occ. eigenvalues --   -0.43763  -0.43640  -0.43414  -0.42877  -0.41548
 Alpha  occ. eigenvalues --   -0.40959  -0.40541  -0.39771  -0.39533  -0.39014
 Alpha  occ. eigenvalues --   -0.38803  -0.37062  -0.34003  -0.32773  -0.32745
 Alpha  occ. eigenvalues --   -0.31840  -0.31693  -0.31563  -0.30042  -0.24438
 Alpha virt. eigenvalues --    0.01026   0.02185   0.02582   0.03825   0.04530
 Alpha virt. eigenvalues --    0.04585   0.05133   0.08092   0.10207   0.10957
 Alpha virt. eigenvalues --    0.11118   0.11895   0.12838   0.13421   0.13896
 Alpha virt. eigenvalues --    0.13991   0.14426   0.14945   0.15318   0.16338
 Alpha virt. eigenvalues --    0.16430   0.16473   0.16768   0.17359   0.17529
 Alpha virt. eigenvalues --    0.18190   0.18197   0.18678   0.18982   0.20361
 Alpha virt. eigenvalues --    0.20454   0.21192   0.21714   0.23375   0.24323
 Alpha virt. eigenvalues --    0.24388   0.24538   0.25326   0.25342   0.25916
 Alpha virt. eigenvalues --    0.26187   0.26355   0.27042   0.27207   0.27698
 Alpha virt. eigenvalues --    0.27838   0.28163   0.28627   0.28831   0.29173
 Alpha virt. eigenvalues --    0.29176   0.29440   0.29682   0.29843   0.30271
 Alpha virt. eigenvalues --    0.30656   0.30861   0.31113   0.32015   0.32053
 Alpha virt. eigenvalues --    0.32824   0.32989   0.33210   0.33579   0.33601
 Alpha virt. eigenvalues --    0.34544   0.34659   0.35590   0.36043   0.36421
 Alpha virt. eigenvalues --    0.36876   0.37631   0.37915   0.38022   0.38117
 Alpha virt. eigenvalues --    0.38973   0.39375   0.39429   0.40290   0.40566
 Alpha virt. eigenvalues --    0.41708   0.41722   0.42072   0.42427   0.43051
 Alpha virt. eigenvalues --    0.43228   0.43655   0.43673   0.43731   0.44155
 Alpha virt. eigenvalues --    0.44468   0.44496   0.45234   0.45436   0.46062
 Alpha virt. eigenvalues --    0.46270   0.46546   0.47344   0.47749   0.47759
 Alpha virt. eigenvalues --    0.47964   0.48108   0.48360   0.48532   0.48736
 Alpha virt. eigenvalues --    0.49536   0.49652   0.49825   0.50378   0.50889
 Alpha virt. eigenvalues --    0.51080   0.51955   0.52238   0.52252   0.53454
 Alpha virt. eigenvalues --    0.53536   0.54066   0.54524   0.54920   0.55184
 Alpha virt. eigenvalues --    0.55267   0.55378   0.55710   0.56395   0.56423
 Alpha virt. eigenvalues --    0.56684   0.57320   0.57974   0.58455   0.59175
 Alpha virt. eigenvalues --    0.60122   0.60759   0.60850   0.61297   0.62560
 Alpha virt. eigenvalues --    0.63128   0.63247   0.65186   0.66180   0.66310
 Alpha virt. eigenvalues --    0.66970   0.67849   0.68140   0.68721   0.70911
 Alpha virt. eigenvalues --    0.71246   0.71766   0.72216   0.72665   0.73631
 Alpha virt. eigenvalues --    0.74313   0.74368   0.74436   0.74732   0.75108
 Alpha virt. eigenvalues --    0.75487   0.75552   0.77002   0.77414   0.77971
 Alpha virt. eigenvalues --    0.78205   0.80939   0.81165   0.81275   0.81630
 Alpha virt. eigenvalues --    0.82005   0.83160   0.84769   0.86769   0.87684
 Alpha virt. eigenvalues --    0.89827   0.90300   0.90403   0.90884   0.94415
 Alpha virt. eigenvalues --    0.96396   0.96894   0.99477   1.16341   1.18931
 Alpha virt. eigenvalues --    1.19852   1.23357   1.23439   1.24886   1.24963
 Alpha virt. eigenvalues --    1.26641   1.26853   1.27066   1.27543   1.27918
 Alpha virt. eigenvalues --    1.28034   1.29355   1.29684   1.30124   1.30433
 Alpha virt. eigenvalues --    1.30625   1.31042   1.31128   1.31407   1.32103
 Alpha virt. eigenvalues --    1.32134   1.32500   1.33511   1.33634   1.34007
 Alpha virt. eigenvalues --    1.34504   1.34769   1.34856   1.35097   1.35410
 Alpha virt. eigenvalues --    1.35602   1.36742   1.36974   1.37467   1.37478
 Alpha virt. eigenvalues --    1.38214   1.39023   1.39514   1.44597   1.44821
 Alpha virt. eigenvalues --    1.45401   1.45487   1.45906   1.46637   1.46865
 Alpha virt. eigenvalues --    1.47102   1.47143   1.47281   1.47635   1.47702
 Alpha virt. eigenvalues --    1.47863   1.48187   1.48998   1.49515   1.49950
 Alpha virt. eigenvalues --    1.49954   1.50256   1.50611   1.50845   1.50998
 Alpha virt. eigenvalues --    1.51044   1.51481   1.52164   1.52461   1.52795
 Alpha virt. eigenvalues --    1.53223   1.54361   1.54544   1.54740   1.55347
 Alpha virt. eigenvalues --    1.56157   1.56720   1.57118   1.57393   1.57732
 Alpha virt. eigenvalues --    1.57736   1.58078   1.58403   1.58984   1.59189
 Alpha virt. eigenvalues --    1.59605   1.60141   1.60242   1.60749   1.61174
 Alpha virt. eigenvalues --    1.61473   1.61570   1.63147   1.63576   1.64074
 Alpha virt. eigenvalues --    1.65198   1.67612   1.69548   1.69885   1.70086
 Alpha virt. eigenvalues --    1.70295   1.70811   1.73286   1.74281   1.77384
 Alpha virt. eigenvalues --    1.79008   1.79448   1.79468   1.79686   1.79880
 Alpha virt. eigenvalues --    1.79980   1.80839   1.80884   1.81120   1.82045
 Alpha virt. eigenvalues --    1.82232   1.82277   1.83517   1.83643   1.84175
 Alpha virt. eigenvalues --    1.84633   1.84891   1.85378   1.85407   1.87362
 Alpha virt. eigenvalues --    1.88382   1.89875   1.90203   1.90726   1.90937
 Alpha virt. eigenvalues --    1.91191   1.91669   1.91675   1.92823   1.93565
 Alpha virt. eigenvalues --    1.93707   1.93757   1.94435   1.94593   1.94739
 Alpha virt. eigenvalues --    1.95031   1.95274   1.95628   1.96004   1.96233
 Alpha virt. eigenvalues --    1.96242   1.97325   1.97478   1.99458   1.99506
 Alpha virt. eigenvalues --    2.00108   2.00175   2.00859   2.02568   2.02646
 Alpha virt. eigenvalues --    2.03292   2.03388   2.04478   2.05434   2.06256
 Alpha virt. eigenvalues --    2.06791   2.07389   2.10060   2.11202   2.12455
 Alpha virt. eigenvalues --    2.14211   2.14572   2.15184   2.17645   2.21870
 Alpha virt. eigenvalues --    2.22139   2.24608   2.25735   2.26796   2.28479
 Alpha virt. eigenvalues --    2.28955   2.30242   2.31118   2.31797   2.32565
 Alpha virt. eigenvalues --    2.32815   2.33567   2.33747   2.33937   2.34013
 Alpha virt. eigenvalues --    2.34601   2.35543   2.36391   2.36413   2.37146
 Alpha virt. eigenvalues --    2.37290   2.37573   2.38057   2.38061   2.39009
 Alpha virt. eigenvalues --    2.39160   2.39256   2.39436   2.39689   2.40503
 Alpha virt. eigenvalues --    2.40743   2.43659   2.47945   2.48342   2.48881
 Alpha virt. eigenvalues --    2.51771   2.51772   2.52451   2.52550   2.53849
 Alpha virt. eigenvalues --    2.53983   2.54269   2.54826   2.55368   2.55697
 Alpha virt. eigenvalues --    2.57943   2.57964   2.58242   2.61318   2.62579
 Alpha virt. eigenvalues --    2.64679   2.64884   2.65889   2.66318   2.66663
 Alpha virt. eigenvalues --    2.66964   2.67012   2.67627   2.68322   2.68610
 Alpha virt. eigenvalues --    2.69590   2.69962   2.70207   2.70268   2.72000
 Alpha virt. eigenvalues --    2.74024   2.76478   2.76539   2.78240   2.78909
 Alpha virt. eigenvalues --    2.79846   2.80525   2.81535   2.82687   2.83868
 Alpha virt. eigenvalues --    2.84315   2.86022   2.86927   2.87592   2.87593
 Alpha virt. eigenvalues --    2.92395   2.98542   2.99153   3.00082   3.00501
 Alpha virt. eigenvalues --    3.01388   3.03546   3.04193   3.04431   3.05650
 Alpha virt. eigenvalues --    3.05672   3.05752   3.06748   3.07542   3.08728
 Alpha virt. eigenvalues --    3.10097   3.11137   3.12500   3.12854   3.14265
 Alpha virt. eigenvalues --    3.15516   3.16129   3.17088   3.17982   3.19647
 Alpha virt. eigenvalues --    3.20389   3.20571   3.20860   3.21965   3.22919
 Alpha virt. eigenvalues --    3.23649   3.25490   3.26176   3.30174   3.30382
 Alpha virt. eigenvalues --    3.33249   3.34683   3.35380   3.38316   3.39728
 Alpha virt. eigenvalues --    3.41918   3.42636   3.43079   3.48008   3.54482
 Alpha virt. eigenvalues --    3.55686   3.57058   3.59737   3.60601   3.62980
 Alpha virt. eigenvalues --    3.78329   3.84024   3.93133   3.93952  21.09911
 Alpha virt. eigenvalues --   21.20679  21.22431  21.33221  21.62343  21.68126
 Alpha virt. eigenvalues --   21.68441  21.71304  21.73544  21.74356  21.80384
 Alpha virt. eigenvalues --   21.85510  21.90662  21.93278  21.95375  21.95653
 Alpha virt. eigenvalues --   21.97579  21.99162  22.02757  22.03721  22.07771
 Alpha virt. eigenvalues --   22.09524  22.14608  22.15423  32.04672
          Condensed to atoms (all electrons):
               1          2          3          4          5          6
     1  C    5.025010   0.449068   0.367681   0.001156   0.009238  -0.114437
     2  C    0.449068   5.008316  -0.013059   0.449100  -0.085737  -0.013066
     3  C    0.367681  -0.013059   5.225574  -0.114439   0.399641  -0.041675
     4  C    0.001156   0.449100  -0.114439   5.025005   0.009246   0.367657
     5  C    0.009238  -0.085737   0.399641   0.009246   5.421406   0.399654
     6  C   -0.114437  -0.013066  -0.041675   0.367657   0.399654   5.225580
     7  H   -0.063166   0.421523   0.019631  -0.063165  -0.004804   0.019630
     8  H   -0.039525   0.012028   0.403733  -0.002074  -0.055982   0.016424
     9  H    0.014791  -0.061969  -0.000777   0.415526   0.016267  -0.055587
    10  H   -0.002074   0.012028   0.016425  -0.039538  -0.055986   0.403746
    11  C    0.020839   0.006108  -0.083430   0.020838   0.126121  -0.083442
    12  C   -0.001436  -0.000138   0.031701   0.003889  -0.112827  -0.025622
    13  C    0.003884  -0.000135  -0.025610  -0.001439  -0.112824   0.031708
    14  C    0.000209  -0.000022  -0.000661  -0.000068   0.039836   0.000522
    15  C   -0.000069  -0.000021   0.000524   0.000208   0.039837  -0.000657
    16  C   -0.000079   0.000011   0.000749  -0.000079  -0.009709   0.000750
    17  H   -0.000138   0.000017  -0.000032   0.000981  -0.019074   0.003753
    18  H    0.000983   0.000017   0.003751  -0.000137  -0.019073  -0.000034
    19  H    0.000000  -0.000000  -0.000005  -0.000004  -0.000925  -0.000045
    20  H   -0.000004  -0.000000  -0.000045   0.000000  -0.000925  -0.000005
    21  H    0.415525  -0.061971  -0.055584   0.014791   0.016267  -0.000776
    22  N   -0.000000   0.000000   0.000003  -0.000000  -0.000200   0.000003
    23  C    0.000000   0.000000   0.000011  -0.000000  -0.000162   0.000001
    24  C   -0.000000   0.000000   0.000000   0.000000  -0.000001  -0.000000
    25  C    0.000001   0.000000  -0.000010  -0.000000   0.000035   0.000005
    26  C   -0.000000   0.000000   0.000000   0.000000  -0.000000  -0.000000
    27  C    0.000000  -0.000000  -0.000001  -0.000000   0.000007   0.000000
    28  C   -0.000000  -0.000000  -0.000000   0.000000   0.000000  -0.000000
    29  H    0.000000  -0.000000   0.000000  -0.000000   0.000000  -0.000000
    30  H    0.000000   0.000000   0.000009  -0.000000  -0.000084  -0.000002
    31  H    0.000000   0.000000   0.000000  -0.000000  -0.000000   0.000000
    32  H   -0.000000   0.000000  -0.000000  -0.000000  -0.000000   0.000000
    33  H   -0.000000  -0.000000  -0.000000   0.000000   0.000000   0.000000
    34  C   -0.000000   0.000000   0.000001   0.000000  -0.000162   0.000011
    35  C    0.000000   0.000000  -0.000000  -0.000000  -0.000001   0.000000
    36  C   -0.000000   0.000000   0.000005   0.000001   0.000035  -0.000010
    37  C    0.000000   0.000000  -0.000000  -0.000000  -0.000000   0.000000
    38  C   -0.000000  -0.000000   0.000000   0.000000   0.000007  -0.000001
    39  C    0.000000  -0.000000  -0.000000  -0.000000   0.000000  -0.000000
    40  H   -0.000000  -0.000000  -0.000000   0.000000   0.000000   0.000000
    41  H   -0.000000   0.000000  -0.000002   0.000000  -0.000084   0.000009
    42  H   -0.000000   0.000000   0.000000   0.000000  -0.000000   0.000000
    43  H   -0.000000   0.000000   0.000000  -0.000000  -0.000000  -0.000000
    44  H    0.000000  -0.000000   0.000000  -0.000000   0.000000  -0.000000
               7          8          9         10         11         12
     1  C   -0.063166  -0.039525   0.014791  -0.002074   0.020839  -0.001436
     2  C    0.421523   0.012028  -0.061969   0.012028   0.006108  -0.000138
     3  C    0.019631   0.403733  -0.000777   0.016425  -0.083430   0.031701
     4  C   -0.063165  -0.002074   0.415526  -0.039538   0.020838   0.003889
     5  C   -0.004804  -0.055982   0.016267  -0.055986   0.126121  -0.112827
     6  C    0.019630   0.016424  -0.055587   0.403746  -0.083442  -0.025622
     7  H    0.583399  -0.000228  -0.008678  -0.000228  -0.000172  -0.000007
     8  H   -0.000228   0.556290   0.000040  -0.000197  -0.018106  -0.000554
     9  H   -0.008678   0.000040   0.587140  -0.007252  -0.001567   0.000013
    10  H   -0.000228  -0.000197  -0.007252   0.556297  -0.018105   0.006315
    11  C   -0.000172  -0.018106  -0.001567  -0.018105   5.555186   0.344216
    12  C   -0.000007  -0.000554   0.000013   0.006315   0.344216   5.419281
    13  C   -0.000007   0.006316   0.000018  -0.000552   0.344273  -0.004099
    14  C    0.000000  -0.000219  -0.000012   0.000482   0.001496   0.232750
    15  C    0.000000   0.000485  -0.000003  -0.000219   0.001422  -0.154591
    16  C   -0.000000   0.000237   0.000001   0.000238  -0.126942   0.021422
    17  H   -0.000003  -0.000044   0.000014   0.001046  -0.077183   0.406736
    18  H   -0.000003   0.001044   0.000001  -0.000044  -0.077170   0.016247
    19  H    0.000000  -0.000002  -0.000000  -0.000016   0.013025  -0.040110
    20  H    0.000000  -0.000016   0.000000  -0.000002   0.013019   0.001156
    21  H   -0.008676  -0.007253  -0.000258   0.000040  -0.001567   0.000018
    22  N   -0.000000   0.000001   0.000000   0.000001   0.003388   0.019965
    23  C   -0.000000   0.000001  -0.000000   0.000000   0.001971  -0.005399
    24  C    0.000000   0.000000   0.000000  -0.000000   0.000153  -0.000015
    25  C    0.000000   0.000006  -0.000000   0.000000  -0.001839   0.002619
    26  C    0.000000  -0.000000  -0.000000   0.000000   0.000019  -0.000066
    27  C    0.000000  -0.000000   0.000000   0.000000  -0.000129  -0.000045
    28  C   -0.000000   0.000000   0.000000  -0.000000  -0.000005   0.000028
    29  H   -0.000000  -0.000000   0.000000  -0.000000  -0.000006   0.000017
    30  H   -0.000000   0.000001  -0.000000  -0.000000   0.000252   0.000803
    31  H   -0.000000   0.000000  -0.000000   0.000000  -0.000000   0.000000
    32  H    0.000000  -0.000000  -0.000000   0.000000  -0.000004  -0.000001
    33  H   -0.000000   0.000000   0.000000  -0.000000  -0.000000   0.000000
    34  C   -0.000000   0.000000  -0.000000   0.000001   0.001970  -0.003968
    35  C    0.000000  -0.000000  -0.000000   0.000000   0.000153   0.000725
    36  C    0.000000   0.000000   0.000000   0.000006  -0.001843  -0.004385
    37  C    0.000000   0.000000  -0.000000  -0.000000   0.000019   0.000048
    38  C    0.000000   0.000000   0.000000  -0.000000  -0.000129  -0.000316
    39  C   -0.000000  -0.000000   0.000000   0.000000  -0.000005  -0.000060
    40  H   -0.000000  -0.000000   0.000000  -0.000000  -0.000006   0.000013
    41  H   -0.000000  -0.000000  -0.000000   0.000001   0.000252  -0.001771
    42  H   -0.000000   0.000000  -0.000000   0.000000  -0.000000  -0.000001
    43  H    0.000000   0.000000  -0.000000  -0.000000  -0.000004   0.000031
    44  H   -0.000000  -0.000000   0.000000   0.000000  -0.000000  -0.000001
              13         14         15         16         17         18
     1  C    0.003884   0.000209  -0.000069  -0.000079  -0.000138   0.000983
     2  C   -0.000135  -0.000022  -0.000021   0.000011   0.000017   0.000017
     3  C   -0.025610  -0.000661   0.000524   0.000749  -0.000032   0.003751
     4  C   -0.001439  -0.000068   0.000208  -0.000079   0.000981  -0.000137
     5  C   -0.112824   0.039836   0.039837  -0.009709  -0.019074  -0.019073
     6  C    0.031708   0.000522  -0.000657   0.000750   0.003753  -0.000034
     7  H   -0.000007   0.000000   0.000000  -0.000000  -0.000003  -0.000003
     8  H    0.006316  -0.000219   0.000485   0.000237  -0.000044   0.001044
     9  H    0.000018  -0.000012  -0.000003   0.000001   0.000014   0.000001
    10  H   -0.000552   0.000482  -0.000219   0.000238   0.001046  -0.000044
    11  C    0.344273   0.001496   0.001422  -0.126942  -0.077183  -0.077170
    12  C   -0.004099   0.232750  -0.154591   0.021422   0.406736   0.016247
    13  C    5.419214  -0.154603   0.232794   0.021400   0.016249   0.406718
    14  C   -0.154603   5.392867  -0.066594   0.335350  -0.029583  -0.001487
    15  C    0.232794  -0.066594   5.392740   0.335498  -0.001488  -0.029566
    16  C    0.021400   0.335350   0.335498   5.475444   0.018797   0.018791
    17  H    0.016249  -0.029583  -0.001488   0.018797   0.562478  -0.000161
    18  H    0.406718  -0.001487  -0.029566   0.018791  -0.000161   0.562474
    19  H    0.001154   0.401197   0.009530  -0.045850  -0.006756   0.000022
    20  H   -0.040107   0.009529   0.401167  -0.045814   0.000022  -0.006753
    21  H    0.000013  -0.000003  -0.000012   0.000001   0.000001   0.000014
    22  N    0.019979  -0.015188  -0.015297   0.167997  -0.000497  -0.000497
    23  C   -0.003976  -0.004847   0.027803  -0.085437   0.000023  -0.000079
    24  C    0.000725  -0.011262   0.018998  -0.009940   0.000001  -0.000046
    25  C   -0.004396   0.017993  -0.066532   0.028751  -0.000026   0.000131
    26  C    0.000048  -0.000261   0.003266  -0.004913   0.000000  -0.000002
    27  C   -0.000317   0.001501  -0.009428   0.001528  -0.000001   0.000026
    28  C   -0.000060   0.000018  -0.000541   0.002043   0.000000  -0.000002
    29  H    0.000013  -0.000314   0.000423  -0.001472  -0.000000   0.000000
    30  H   -0.001770  -0.001674   0.004618   0.001656   0.000008  -0.000042
    31  H   -0.000001   0.000002  -0.000029   0.000011  -0.000000   0.000000
    32  H    0.000031  -0.000031   0.000022  -0.000182   0.000000   0.000000
    33  H   -0.000001   0.000001  -0.000016   0.000018  -0.000000   0.000000
    34  C   -0.005397   0.027821  -0.004898  -0.085419  -0.000079   0.000023
    35  C   -0.000015   0.018999  -0.011263  -0.009896  -0.000046   0.000001
    36  C    0.002622  -0.066558   0.018003   0.028743   0.000132  -0.000026
    37  C   -0.000066   0.003263  -0.000262  -0.004912  -0.000002   0.000000
    38  C   -0.000044  -0.009436   0.001502   0.001526   0.000026  -0.000001
    39  C    0.000028  -0.000540   0.000018   0.002047  -0.000002   0.000000
    40  H    0.000017   0.000422  -0.000315  -0.001466   0.000000  -0.000000
    41  H    0.000804   0.004616  -0.001673   0.001674  -0.000042   0.000008
    42  H    0.000000  -0.000029   0.000002   0.000011   0.000000  -0.000000
    43  H   -0.000001   0.000022  -0.000031  -0.000182   0.000000   0.000000
    44  H    0.000000  -0.000015   0.000001   0.000018   0.000000  -0.000000
              19         20         21         22         23         24
     1  C    0.000000  -0.000004   0.415525  -0.000000   0.000000  -0.000000
     2  C   -0.000000  -0.000000  -0.061971   0.000000   0.000000   0.000000
     3  C   -0.000005  -0.000045  -0.055584   0.000003   0.000011   0.000000
     4  C   -0.000004   0.000000   0.014791  -0.000000  -0.000000   0.000000
     5  C   -0.000925  -0.000925   0.016267  -0.000200  -0.000162  -0.000001
     6  C   -0.000045  -0.000005  -0.000776   0.000003   0.000001  -0.000000
     7  H    0.000000   0.000000  -0.008676  -0.000000  -0.000000   0.000000
     8  H   -0.000002  -0.000016  -0.007253   0.000001   0.000001   0.000000
     9  H   -0.000000   0.000000  -0.000258   0.000000  -0.000000   0.000000
    10  H   -0.000016  -0.000002   0.000040   0.000001   0.000000  -0.000000
    11  C    0.013025   0.013019  -0.001567   0.003388   0.001971   0.000153
    12  C   -0.040110   0.001156   0.000018   0.019965  -0.005399  -0.000015
    13  C    0.001154  -0.040107   0.000013   0.019979  -0.003976   0.000725
    14  C    0.401197   0.009529  -0.000003  -0.015188  -0.004847  -0.011262
    15  C    0.009530   0.401167  -0.000012  -0.015297   0.027803   0.018998
    16  C   -0.045850  -0.045814   0.000001   0.167997  -0.085437  -0.009940
    17  H   -0.006756   0.000022   0.000001  -0.000497   0.000023   0.000001
    18  H    0.000022  -0.006753   0.000014  -0.000497  -0.000079  -0.000046
    19  H    0.526952  -0.000315   0.000000  -0.006263  -0.000925  -0.000311
    20  H   -0.000315   0.526944  -0.000000  -0.006282   0.002745   0.000070
    21  H    0.000000  -0.000000   0.587141   0.000000  -0.000000  -0.000000
    22  N   -0.006263  -0.006282   0.000000   6.521495   0.163742  -0.009800
    23  C   -0.000925   0.002745  -0.000000   0.163742   5.412989   0.355766
    24  C   -0.000311   0.000070  -0.000000  -0.009800   0.355766   5.255741
    25  C    0.000367   0.001133   0.000000  -0.011216   0.358451  -0.050057
    26  C    0.000014   0.000377  -0.000000   0.013438   0.021361   0.359237
    27  C    0.000008  -0.001882   0.000000   0.013552   0.019936  -0.139708
    28  C   -0.000005   0.000523   0.000000   0.005794  -0.098631  -0.018267
    29  H   -0.000008   0.000036   0.000000  -0.007328  -0.035786   0.397790
    30  H    0.000010   0.001183  -0.000000  -0.007972  -0.034431   0.013280
    31  H   -0.000000   0.000003  -0.000000  -0.000593   0.018177  -0.053162
    32  H   -0.000000  -0.000051  -0.000000  -0.000586   0.018098  -0.002476
    33  H   -0.000000   0.000003   0.000000  -0.000041  -0.008140   0.025130
    34  C    0.002729  -0.000931  -0.000000   0.163762  -0.086812   0.027050
    35  C    0.000070  -0.000310   0.000000  -0.009710   0.027059  -0.057599
    36  C    0.001132   0.000368  -0.000000  -0.011303  -0.005243   0.013364
    37  C    0.000376   0.000014  -0.000000   0.013421  -0.001184  -0.006737
    38  C   -0.001883   0.000008   0.000000   0.013564  -0.005127   0.003648
    39  C    0.000524  -0.000005   0.000000   0.005795   0.002411  -0.000994
    40  H    0.000036  -0.000008   0.000000  -0.007309   0.002739   0.001313
    41  H    0.001183   0.000010  -0.000000  -0.007991  -0.000840   0.000184
    42  H    0.000003  -0.000000  -0.000000  -0.000593  -0.000193   0.000053
    43  H   -0.000051  -0.000000  -0.000000  -0.000586   0.000012  -0.000025
    44  H    0.000003  -0.000000   0.000000  -0.000041   0.000019  -0.000017
              25         26         27         28         29         30
     1  C    0.000001  -0.000000   0.000000  -0.000000   0.000000   0.000000
     2  C    0.000000   0.000000  -0.000000  -0.000000  -0.000000   0.000000
     3  C   -0.000010   0.000000  -0.000001  -0.000000   0.000000   0.000009
     4  C   -0.000000   0.000000  -0.000000   0.000000  -0.000000  -0.000000
     5  C    0.000035  -0.000000   0.000007   0.000000   0.000000  -0.000084
     6  C    0.000005  -0.000000   0.000000  -0.000000  -0.000000  -0.000002
     7  H    0.000000   0.000000   0.000000  -0.000000  -0.000000  -0.000000
     8  H    0.000006  -0.000000  -0.000000   0.000000  -0.000000   0.000001
     9  H   -0.000000  -0.000000   0.000000   0.000000   0.000000  -0.000000
    10  H    0.000000   0.000000   0.000000  -0.000000  -0.000000  -0.000000
    11  C   -0.001839   0.000019  -0.000129  -0.000005  -0.000006   0.000252
    12  C    0.002619  -0.000066  -0.000045   0.000028   0.000017   0.000803
    13  C   -0.004396   0.000048  -0.000317  -0.000060   0.000013  -0.001770
    14  C    0.017993  -0.000261   0.001501   0.000018  -0.000314  -0.001674
    15  C   -0.066532   0.003266  -0.009428  -0.000541   0.000423   0.004618
    16  C    0.028751  -0.004913   0.001528   0.002043  -0.001472   0.001656
    17  H   -0.000026   0.000000  -0.000001   0.000000  -0.000000   0.000008
    18  H    0.000131  -0.000002   0.000026  -0.000002   0.000000  -0.000042
    19  H    0.000367   0.000014   0.000008  -0.000005  -0.000008   0.000010
    20  H    0.001133   0.000377  -0.001882   0.000523   0.000036   0.001183
    21  H    0.000000  -0.000000   0.000000   0.000000   0.000000  -0.000000
    22  N   -0.011216   0.013438   0.013552   0.005794  -0.007328  -0.007972
    23  C    0.358451   0.021361   0.019936  -0.098631  -0.035786  -0.034431
    24  C   -0.050057   0.359237  -0.139708  -0.018267   0.397790   0.013280
    25  C    5.253705  -0.136454   0.357126  -0.019769   0.012915   0.396995
    26  C   -0.136454   5.085972   0.034606   0.428115  -0.043525  -0.001332
    27  C    0.357126   0.034606   5.092693   0.428221  -0.001323  -0.044560
    28  C   -0.019769   0.428115   0.428221   5.054720   0.010274   0.010269
    29  H    0.012915  -0.043525  -0.001323   0.010274   0.523941  -0.000275
    30  H    0.396995  -0.001332  -0.044560   0.010269  -0.000275   0.524416
    31  H   -0.002463   0.416539   0.016897  -0.068137  -0.007451   0.000014
    32  H   -0.053371   0.016891   0.416563  -0.067893   0.000015  -0.007456
    33  H    0.025187  -0.072901  -0.072911   0.432419  -0.000108  -0.000107
    34  C   -0.005204  -0.001190  -0.005128   0.002415   0.002752  -0.000834
    35  C    0.013358  -0.006743   0.003646  -0.000994   0.001314   0.000183
    36  C   -0.008838   0.000740  -0.000263   0.000074  -0.000699  -0.000229
    37  C    0.000740  -0.000573   0.000085  -0.000057  -0.001409  -0.000008
    38  C   -0.000263   0.000085  -0.000056   0.000020   0.000494   0.000016
    39  C    0.000074  -0.000057   0.000020  -0.000011   0.000417  -0.000005
    40  H   -0.000702  -0.001409   0.000493   0.000417   0.000929   0.000033
    41  H   -0.000229  -0.000008   0.000016  -0.000005   0.000033  -0.000009
    42  H   -0.000032   0.000025  -0.000001  -0.000001  -0.000044  -0.000000
    43  H    0.000001  -0.000001   0.000000   0.000000   0.000003  -0.000000
    44  H    0.000001  -0.000001  -0.000000  -0.000000   0.000003   0.000000
              31         32         33         34         35         36
     1  C    0.000000  -0.000000  -0.000000  -0.000000   0.000000  -0.000000
     2  C    0.000000   0.000000  -0.000000   0.000000   0.000000   0.000000
     3  C    0.000000  -0.000000  -0.000000   0.000001  -0.000000   0.000005
     4  C   -0.000000  -0.000000   0.000000   0.000000  -0.000000   0.000001
     5  C   -0.000000  -0.000000   0.000000  -0.000162  -0.000001   0.000035
     6  C    0.000000   0.000000   0.000000   0.000011   0.000000  -0.000010
     7  H   -0.000000   0.000000  -0.000000  -0.000000   0.000000   0.000000
     8  H    0.000000  -0.000000   0.000000   0.000000  -0.000000   0.000000
     9  H   -0.000000  -0.000000   0.000000  -0.000000  -0.000000   0.000000
    10  H    0.000000   0.000000  -0.000000   0.000001   0.000000   0.000006
    11  C   -0.000000  -0.000004  -0.000000   0.001970   0.000153  -0.001843
    12  C    0.000000  -0.000001   0.000000  -0.003968   0.000725  -0.004385
    13  C   -0.000001   0.000031  -0.000001  -0.005397  -0.000015   0.002622
    14  C    0.000002  -0.000031   0.000001   0.027821   0.018999  -0.066558
    15  C   -0.000029   0.000022  -0.000016  -0.004898  -0.011263   0.018003
    16  C    0.000011  -0.000182   0.000018  -0.085419  -0.009896   0.028743
    17  H   -0.000000   0.000000  -0.000000  -0.000079  -0.000046   0.000132
    18  H    0.000000   0.000000   0.000000   0.000023   0.000001  -0.000026
    19  H   -0.000000  -0.000000  -0.000000   0.002729   0.000070   0.001132
    20  H    0.000003  -0.000051   0.000003  -0.000931  -0.000310   0.000368
    21  H   -0.000000  -0.000000   0.000000  -0.000000   0.000000  -0.000000
    22  N   -0.000593  -0.000586  -0.000041   0.163762  -0.009710  -0.011303
    23  C    0.018177   0.018098  -0.008140  -0.086812   0.027059  -0.005243
    24  C   -0.053162  -0.002476   0.025130   0.027050  -0.057599   0.013364
    25  C   -0.002463  -0.053371   0.025187  -0.005204   0.013358  -0.008838
    26  C    0.416539   0.016891  -0.072901  -0.001190  -0.006743   0.000740
    27  C    0.016897   0.416563  -0.072911  -0.005128   0.003646  -0.000263
    28  C   -0.068137  -0.067893   0.432419   0.002415  -0.000994   0.000074
    29  H   -0.007451   0.000015  -0.000108   0.002752   0.001314  -0.000699
    30  H    0.000014  -0.007456  -0.000107  -0.000834   0.000183  -0.000229
    31  H    0.584736  -0.000246  -0.008978  -0.000193   0.000053  -0.000032
    32  H   -0.000246   0.584873  -0.008973   0.000012  -0.000025   0.000001
    33  H   -0.008978  -0.008973   0.585866   0.000019  -0.000017   0.000001
    34  C   -0.000193   0.000012   0.000019   5.412925   0.355660   0.358539
    35  C    0.000053  -0.000025  -0.000017   0.355660   5.255837  -0.050064
    36  C   -0.000032   0.000001   0.000001   0.358539  -0.050064   5.253696
    37  C    0.000025  -0.000001  -0.000001   0.021349   0.359276  -0.136429
    38  C   -0.000001   0.000000  -0.000000   0.019964  -0.139752   0.357094
    39  C   -0.000001   0.000000  -0.000000  -0.098630  -0.018240  -0.019795
    40  H   -0.000044   0.000003   0.000003  -0.035810   0.397798   0.012915
    41  H   -0.000000  -0.000000   0.000000  -0.034407   0.013279   0.396971
    42  H   -0.000000   0.000000  -0.000000   0.018182  -0.053175  -0.002465
    43  H    0.000000  -0.000000  -0.000000   0.018093  -0.002475  -0.053360
    44  H   -0.000000  -0.000000  -0.000000  -0.008141   0.025132   0.025187
              37         38         39         40         41         42
     1  C    0.000000  -0.000000   0.000000  -0.000000  -0.000000  -0.000000
     2  C    0.000000  -0.000000  -0.000000  -0.000000   0.000000   0.000000
     3  C   -0.000000   0.000000  -0.000000  -0.000000  -0.000002   0.000000
     4  C   -0.000000   0.000000  -0.000000   0.000000   0.000000   0.000000
     5  C   -0.000000   0.000007   0.000000   0.000000  -0.000084  -0.000000
     6  C    0.000000  -0.000001  -0.000000   0.000000   0.000009   0.000000
     7  H    0.000000   0.000000  -0.000000  -0.000000  -0.000000  -0.000000
     8  H    0.000000   0.000000  -0.000000  -0.000000  -0.000000   0.000000
     9  H   -0.000000   0.000000   0.000000   0.000000  -0.000000  -0.000000
    10  H   -0.000000  -0.000000   0.000000  -0.000000   0.000001   0.000000
    11  C    0.000019  -0.000129  -0.000005  -0.000006   0.000252  -0.000000
    12  C    0.000048  -0.000316  -0.000060   0.000013  -0.001771  -0.000001
    13  C   -0.000066  -0.000044   0.000028   0.000017   0.000804   0.000000
    14  C    0.003263  -0.009436  -0.000540   0.000422   0.004616  -0.000029
    15  C   -0.000262   0.001502   0.000018  -0.000315  -0.001673   0.000002
    16  C   -0.004912   0.001526   0.002047  -0.001466   0.001674   0.000011
    17  H   -0.000002   0.000026  -0.000002   0.000000  -0.000042   0.000000
    18  H    0.000000  -0.000001   0.000000  -0.000000   0.000008  -0.000000
    19  H    0.000376  -0.001883   0.000524   0.000036   0.001183   0.000003
    20  H    0.000014   0.000008  -0.000005  -0.000008   0.000010  -0.000000
    21  H   -0.000000   0.000000   0.000000   0.000000  -0.000000  -0.000000
    22  N    0.013421   0.013564   0.005795  -0.007309  -0.007991  -0.000593
    23  C   -0.001184  -0.005127   0.002411   0.002739  -0.000840  -0.000193
    24  C   -0.006737   0.003648  -0.000994   0.001313   0.000184   0.000053
    25  C    0.000740  -0.000263   0.000074  -0.000702  -0.000229  -0.000032
    26  C   -0.000573   0.000085  -0.000057  -0.001409  -0.000008   0.000025
    27  C    0.000085  -0.000056   0.000020   0.000493   0.000016  -0.000001
    28  C   -0.000057   0.000020  -0.000011   0.000417  -0.000005  -0.000001
    29  H   -0.001409   0.000494   0.000417   0.000929   0.000033  -0.000044
    30  H   -0.000008   0.000016  -0.000005   0.000033  -0.000009  -0.000000
    31  H    0.000025  -0.000001  -0.000001  -0.000044  -0.000000  -0.000000
    32  H   -0.000001   0.000000   0.000000   0.000003  -0.000000   0.000000
    33  H   -0.000001  -0.000000  -0.000000   0.000003   0.000000  -0.000000
    34  C    0.021349   0.019964  -0.098630  -0.035810  -0.034407   0.018182
    35  C    0.359276  -0.139752  -0.018240   0.397798   0.013279  -0.053175
    36  C   -0.136429   0.357094  -0.019795   0.012915   0.396971  -0.002465
    37  C    5.085922   0.034604   0.428106  -0.043513  -0.001329   0.416551
    38  C    0.034604   5.092741   0.428247  -0.001324  -0.044557   0.016901
    39  C    0.428106   0.428247   5.054695   0.010276   0.010264  -0.068146
    40  H   -0.043513  -0.001324   0.010276   0.523940  -0.000275  -0.007453
    41  H   -0.001329  -0.044557   0.010264  -0.000275   0.524401   0.000014
    42  H    0.416551   0.016901  -0.068146  -0.007453   0.000014   0.584742
    43  H    0.016888   0.416550  -0.067883   0.000015  -0.007454  -0.000246
    44  H   -0.072909  -0.072910   0.432423  -0.000108  -0.000107  -0.008979
              43         44
     1  C   -0.000000   0.000000
     2  C    0.000000  -0.000000
     3  C    0.000000   0.000000
     4  C   -0.000000  -0.000000
     5  C   -0.000000   0.000000
     6  C   -0.000000  -0.000000
     7  H    0.000000  -0.000000
     8  H    0.000000  -0.000000
     9  H   -0.000000   0.000000
    10  H   -0.000000   0.000000
    11  C   -0.000004  -0.000000
    12  C    0.000031  -0.000001
    13  C   -0.000001   0.000000
    14  C    0.000022  -0.000015
    15  C   -0.000031   0.000001
    16  C   -0.000182   0.000018
    17  H    0.000000   0.000000
    18  H    0.000000  -0.000000
    19  H   -0.000051   0.000003
    20  H   -0.000000  -0.000000
    21  H   -0.000000   0.000000
    22  N   -0.000586  -0.000041
    23  C    0.000012   0.000019
    24  C   -0.000025  -0.000017
    25  C    0.000001   0.000001
    26  C   -0.000001  -0.000001
    27  C    0.000000  -0.000000
    28  C    0.000000  -0.000000
    29  H    0.000003   0.000003
    30  H   -0.000000   0.000000
    31  H    0.000000  -0.000000
    32  H   -0.000000  -0.000000
    33  H   -0.000000  -0.000000
    34  C    0.018093  -0.008141
    35  C   -0.002475   0.025132
    36  C   -0.053360   0.025187
    37  C    0.016888  -0.072909
    38  C    0.416550  -0.072910
    39  C   -0.067883   0.432423
    40  H    0.000015  -0.000108
    41  H   -0.007454  -0.000107
    42  H   -0.000246  -0.008979
    43  H    0.584872  -0.008973
    44  H   -0.008973   0.585868
 Mulliken charges:
               1
     1  C   -0.087458
     2  C   -0.122096
     3  C   -0.134112
     4  C   -0.087455
     5  C    0.000963
     6  C   -0.134096
     7  H    0.104952
     8  H    0.127594
     9  H    0.102290
    10  H    0.127588
    11  C    0.036933
    12  C   -0.152582
    13  C   -0.152590
    14  C   -0.125488
    15  C   -0.125356
    16  C   -0.032420
    17  H    0.124873
    18  H    0.124871
    19  H    0.145137
    20  H    0.145146
    21  H    0.102291
    22  N   -0.006604
    23  C   -0.056105
    24  C   -0.112087
    25  C   -0.108191
    26  C   -0.111299
    27  C   -0.111169
    28  C   -0.100974
    29  H    0.148380
    30  H    0.147047
    31  H    0.104876
    32  H    0.104787
    33  H    0.103547
    34  C   -0.056077
    35  C   -0.112218
    36  C   -0.108085
    37  C   -0.111295
    38  C   -0.111195
    39  C   -0.100971
    40  H    0.148379
    41  H    0.147065
    42  H    0.104876
    43  H    0.104784
    44  H    0.103546
 Sum of Mulliken charges =  -0.00000
 Mulliken charges with hydrogens summed into heavy atoms:
               1
     1  C    0.014833
     2  C   -0.017144
     3  C   -0.006519
     4  C    0.014836
     5  C    0.000963
     6  C   -0.006508
    11  C    0.036933
    12  C   -0.027710
    13  C   -0.027719
    14  C    0.019649
    15  C    0.019789
    16  C   -0.032420
    22  N   -0.006604
    23  C   -0.056105
    24  C    0.036293
    25  C    0.038856
    26  C   -0.006422
    27  C   -0.006382
    28  C    0.002573
    34  C   -0.056077
    35  C    0.036161
    36  C    0.038980
    37  C   -0.006419
    38  C   -0.006410
    39  C    0.002575
 Electronic spatial extent (au):  <R**2>=          11114.9016
 Charge=             -0.0000 electrons
 Dipole moment (field-independent basis, Debye):
    X=              0.2418    Y=              0.0002    Z=             -0.0003  Tot=              0.2418
 Quadrupole moment (field-independent basis, Debye-Ang):
   XX=           -134.5141   YY=           -133.2842   ZZ=           -148.5096
   XY=              0.0006   XZ=             -0.0009   YZ=              0.4541
 Traceless Quadrupole moment (field-independent basis, Debye-Ang):
   XX=              4.2552   YY=              5.4851   ZZ=             -9.7403
   XY=              0.0006   XZ=             -0.0009   YZ=              0.4541
 Octapole moment (field-independent basis, Debye-Ang**2):
  XXX=            -34.5188  YYY=              0.0078  ZZZ=              0.0029  XYY=              7.0792
  XXY=             -0.0049  XXZ=             -0.0097  XZZ=             19.2140  YZZ=              0.0023
  YYZ=             -0.0042  XYZ=             -2.3752
 Hexadecapole moment (field-independent basis, Debye-Ang**3):
 XXXX=         -10831.1154 YYYY=          -3333.7893 ZZZZ=           -509.5674 XXXY=             -0.0719
 XXXZ=              0.0146 YYYX=              0.0297 YYYZ=             84.6217 ZZZX=             -0.0134
 ZZZY=              0.2313 XXYY=          -2275.4676 XXZZ=          -2154.2557 YYZZ=           -681.4848
 XXYZ=            -71.4691 YYXZ=             -0.0166 ZZXY=              0.0201
 N-N= 1.905495953278D+03 E-N=-6.086291979003D+03  KE= 9.754048489620D+02
 No NMR shielding tensors so no spin-rotation constants.
 Leave Link  601 at Sun Jan 17 15:25:35 2021, MaxMem=  4026531840 cpu:               3.3 elap:               0.5
 (Enter /opt/ohpc/pub/libs/gaussian/g16-A.03/sandybridge/g16/l9999.exe)

 Test job not archived.
 1\1\GINC-CASCADEB025\SP\RLC-wHPBE\TZVP\C24H19N1\RDU230\17-Jan-2021\0\\
 #P LC-wHPBE/TZVP iop(3/107=0182400000, 3/108=0182400000) scf=(conver=6
 ,fermi,ndamp=35,noincfock,novaracc,vshift=500,xqc)\\H19 C24 N1\\0,1\C,
 0,6.129184,1.201496,-0.030856\C,0,6.830271,0.000001,0.000182\C,0,4.738
 958,1.200713,-0.032197\C,0,6.129235,-1.201473,0.031153\C,0,4.021751,-0
 .000032,0.000031\C,0,4.738962,-1.200719,0.032361\H,0,7.919539,0.000045
 ,0.00019\H,0,4.198073,2.145454,-0.081149\H,0,6.668779,-2.147537,0.0634
 12\H,0,4.198148,-2.145504,0.081256\C,0,2.536892,-0.000014,-0.000063\C,
 0,1.813363,-0.924286,-0.760077\C,0,1.813258,0.92429,0.759786\C,0,0.426
 027,-0.922473,-0.771159\C,0,0.425899,0.922498,0.770636\C,0,-0.288344,0
 .000018,-0.000311\H,0,2.347573,-1.638662,-1.38605\H,0,2.34735,1.638674
 ,1.385851\H,0,-0.11537,-1.638494,-1.387158\H,0,-0.115571,1.638578,1.38
 6504\H,0,6.668762,2.147543,-0.063006\N,0,-1.704382,-0.000003,-0.000499
 \C,0,-2.414266,1.22777,0.004035\C,0,-3.559402,1.382015,0.792108\C,0,-1
 .979956,2.301413,-0.78017\C,0,-4.257371,2.583383,0.786193\C,0,-2.67352
 7,3.505213,-0.76583\C,0,-3.817854,3.653503,0.012423\H,0,-3.900046,0.55
 1242,1.407814\H,0,-1.092486,2.185578,-1.400082\H,0,-5.147916,2.686607,
 1.40537\H,0,-2.321511,4.331764,-1.38228\H,0,-4.363183,4.595952,0.01566
 4\C,0,-2.414241,-1.227791,-0.004406\C,0,-3.559682,-1.382189,-0.792032\
 C,0,-1.979686,-2.301249,0.779869\C,0,-4.257673,-2.583532,-0.785597\C,0
 ,-2.673287,-3.50506,0.766028\C,0,-3.817885,-3.653507,-0.011769\H,0,-3.
 900521,-0.551523,-1.407763\H,0,-1.092008,-2.185299,1.399468\H,0,-5.148
 466,-2.686887,-1.404399\H,0,-2.32101,-4.331477,1.382521\H,0,-4.363223,
 -4.595951,-0.014691\\Version=EM64L-G16RevA.03\State=1-A\HF=-980.101405
 1\RMSD=7.095e-07\Dipole=-0.0951464,0.0000669,0.0001082\Quadrupole=3.16
 36537,4.0780338,-7.2416875,-0.0004656,-0.0006815,-0.3375776\PG=C01 [X(
 C24H19N1)]\\@


 WHERE THERE IS MUCH DESIRE TO LEARN, THERE OF NECESSITY WILL BE
 MUCH ARGUING, MUCH WRITING, MANY OPINIONS; FOR OPINION IN GOOD MEN
 IS BUT KNOWLEDGE IN THE MAKING. -- JOHN MILTON.
 Job cpu time:       0 days  1 hours 17 minutes  9.7 seconds.
 Elapsed time:       0 days  0 hours  9 minutes 40.9 seconds.
 File lengths (MBytes):  RWF=    156 Int=      0 D2E=      0 Chk=     28 Scr=      8
 Normal termination of Gaussian 16 at Sun Jan 17 15:25:35 2021.
