 Entering Gaussian System, Link 0=g16
 Input=mol_bp_pa_half_tune_c7.gjf
 Output=mol_bp_pa_half_tune_c7.log
 Initial command:
 /opt/ohpc/pub/libs/gaussian/g16-A.03/sandybridge/g16/l1.exe "/mnt/gpfs2_4m/scratch/rdu230/ondemand/projects/init_structures/wtuning/mol_bp_pa_half/tuning_mol_bp_pa_half_ocycle0/Gau-419656.inp" -scrdir="/mnt/gpfs2_4m/scratch/rdu230/ondemand/projects/init_structures/wtuning/mol_bp_pa_half/tuning_mol_bp_pa_half_ocycle0/"
 Entering Link 1 = /opt/ohpc/pub/libs/gaussian/g16-A.03/sandybridge/g16/l1.exe PID=    419657.
  
 Copyright (c) 1988,1990,1992,1993,1995,1998,2003,2009,2016,
            Gaussian, Inc.  All Rights Reserved.
  
 This is part of the Gaussian(R) 16 program.  It is based on
 the Gaussian(R) 09 system (copyright 2009, Gaussian, Inc.),
 the Gaussian(R) 03 system (copyright 2003, Gaussian, Inc.),
 the Gaussian(R) 98 system (copyright 1998, Gaussian, Inc.),
 the Gaussian(R) 94 system (copyright 1995, Gaussian, Inc.),
 the Gaussian 92(TM) system (copyright 1992, Gaussian, Inc.),
 the Gaussian 90(TM) system (copyright 1990, Gaussian, Inc.),
 the Gaussian 88(TM) system (copyright 1988, Gaussian, Inc.),
 the Gaussian 86(TM) system (copyright 1986, Carnegie Mellon
 University), and the Gaussian 82(TM) system (copyright 1983,
 Carnegie Mellon University). Gaussian is a federally registered
 trademark of Gaussian, Inc.
  
 This software contains proprietary and confidential information,
 including trade secrets, belonging to Gaussian, Inc.
  
 This software is provided under written license and may be
 used, copied, transmitted, or stored only in accord with that
 written license.
  
 The following legend is applicable only to US Government
 contracts under FAR:
  
                    RESTRICTED RIGHTS LEGEND
  
 Use, reproduction and disclosure by the US Government is
 subject to restrictions as set forth in subparagraphs (a)
 and (c) of the Commercial Computer Software - Restricted
 Rights clause in FAR 52.227-19.
  
 Gaussian, Inc.
 340 Quinnipiac St., Bldg. 40, Wallingford CT 06492
  
  
 ---------------------------------------------------------------
 Warning -- This program may not be used in any manner that
 competes with the business of Gaussian, Inc. or will provide
 assistance to any competitor of Gaussian, Inc.  The licensee
 of this program is prohibited from giving any competitor of
 Gaussian, Inc. access to this program.  By using this program,
 the user acknowledges that Gaussian, Inc. is engaged in the
 business of creating and licensing software in the field of
 computational chemistry and represents and warrants to the
 licensee that it is not a competitor of Gaussian, Inc. and that
 it will not use this program in any manner prohibited above.
 ---------------------------------------------------------------
  

 Cite this work as:
 Gaussian 16, Revision A.03,
 M. J. Frisch, G. W. Trucks, H. B. Schlegel, G. E. Scuseria, 
 M. A. Robb, J. R. Cheeseman, G. Scalmani, V. Barone, 
 G. A. Petersson, H. Nakatsuji, X. Li, M. Caricato, A. V. Marenich, 
 J. Bloino, B. G. Janesko, R. Gomperts, B. Mennucci, H. P. Hratchian, 
 J. V. Ortiz, A. F. Izmaylov, J. L. Sonnenberg, D. Williams-Young, 
 F. Ding, F. Lipparini, F. Egidi, J. Goings, B. Peng, A. Petrone, 
 T. Henderson, D. Ranasinghe, V. G. Zakrzewski, J. Gao, N. Rega, 
 G. Zheng, W. Liang, M. Hada, M. Ehara, K. Toyota, R. Fukuda, 
 J. Hasegawa, M. Ishida, T. Nakajima, Y. Honda, O. Kitao, H. Nakai, 
 T. Vreven, K. Throssell, J. A. Montgomery, Jr., J. E. Peralta, 
 F. Ogliaro, M. J. Bearpark, J. J. Heyd, E. N. Brothers, K. N. Kudin, 
 V. N. Staroverov, T. A. Keith, R. Kobayashi, J. Normand, 
 K. Raghavachari, A. P. Rendell, J. C. Burant, S. S. Iyengar, 
 J. Tomasi, M. Cossi, J. M. Millam, M. Klene, C. Adamo, R. Cammi, 
 J. W. Ochterski, R. L. Martin, K. Morokuma, O. Farkas, 
 J. B. Foresman, and D. J. Fox, Gaussian, Inc., Wallingford CT, 2016.
 
 ******************************************
 Gaussian 16:  EM64L-G16RevA.03 25-Dec-2016
                17-Jan-2021 
 ******************************************
 %mem=30GB
 %nproc=8
 Will use up to    8 processors via shared memory.
 ----------------------------------------------------------------------
 #P LC-wHPBE/TZVP iop(3/107=0177900000, 3/108=0177900000) scf=(conver=6
 ,fermi,ndamp=35,noincfock,novaracc,vshift=500,xqc)
 ----------------------------------------------------------------------
 1/38=1,172=1/1;
 2/12=2,17=6,18=5,40=1/2;
 3/5=19,7=101,11=2,25=1,30=1,74=-71,107=177900000,108=177900000/1,2,3;
 4//1;
 5/5=100002,6=6,8=3,10=500,13=1,18=-1,22=13,38=1,93=35/2,8;
 6/7=2,8=2,9=2,10=2,28=1/1;
 99/5=1,9=1/99;
 Leave Link    1 at Sun Jan 17 14:58:22 2021, MaxMem=  4026531840 cpu:               1.7 elap:               0.2
 (Enter /opt/ohpc/pub/libs/gaussian/g16-A.03/sandybridge/g16/l101.exe)
 ----------
 H19 C24 N1
 ----------
 Symbolic Z-matrix:
 Charge =  1 Multiplicity = 2
 C                     6.12918   1.2015   -0.03086 
 C                     6.83027   0.        0.00018 
 C                     4.73896   1.20071  -0.0322 
 C                     6.12924  -1.20147   0.03115 
 C                     4.02175  -0.00003   0.00003 
 C                     4.73896  -1.20072   0.03236 
 H                     7.91954   0.00005   0.00019 
 H                     4.19807   2.14545  -0.08115 
 H                     6.66878  -2.14754   0.06341 
 H                     4.19815  -2.1455    0.08126 
 C                     2.53689  -0.00001  -0.00006 
 C                     1.81336  -0.92429  -0.76008 
 C                     1.81326   0.92429   0.75979 
 C                     0.42603  -0.92247  -0.77116 
 C                     0.4259    0.9225    0.77064 
 C                    -0.28834   0.00002  -0.00031 
 H                     2.34757  -1.63866  -1.38605 
 H                     2.34735   1.63867   1.38585 
 H                    -0.11537  -1.63849  -1.38716 
 H                    -0.11557   1.63858   1.3865 
 H                     6.66876   2.14754  -0.06301 
 N                    -1.70438  0.        -0.0005 
 C                    -2.41427   1.22777   0.00404 
 C                    -3.5594    1.38202   0.79211 
 C                    -1.97996   2.30141  -0.78017 
 C                    -4.25737   2.58338   0.78619 
 C                    -2.67353   3.50521  -0.76583 
 C                    -3.81785   3.6535    0.01242 
 H                    -3.90005   0.55124   1.40781 
 H                    -1.09249   2.18558  -1.40008 
 H                    -5.14792   2.68661   1.40537 
 H                    -2.32151   4.33176  -1.38228 
 H                    -4.36318   4.59595   0.01566 
 C                    -2.41424  -1.22779  -0.00441 
 C                    -3.55968  -1.38219  -0.79203 
 C                    -1.97969  -2.30125   0.77987 
 C                    -4.25767  -2.58353  -0.7856 
 C                    -2.67329  -3.50506   0.76603 
 C                    -3.81789  -3.65351  -0.01177 
 H                    -3.90052  -0.55152  -1.40776 
 H                    -1.09201  -2.1853    1.39947 
 H                    -5.14847  -2.68689  -1.4044 
 H                    -2.32101  -4.33148   1.38252 
 H                    -4.36322  -4.59595  -0.01469 
 
 ITRead=  0  0  0  0  0  0  0  0  0  0  0  0  0  0  0  0  0  0  0  0
 ITRead=  0  0  0  0  0  0  0  0  0  0  0  0  0  0  0  0  0  0  0  0
 ITRead=  0  0  0  0
 MicOpt= -1 -1 -1 -1 -1 -1 -1 -1 -1 -1 -1 -1 -1 -1 -1 -1 -1 -1 -1 -1
 MicOpt= -1 -1 -1 -1 -1 -1 -1 -1 -1 -1 -1 -1 -1 -1 -1 -1 -1 -1 -1 -1
 MicOpt= -1 -1 -1 -1
 NAtoms=     44 NQM=       44 NQMF=       0 NMMI=      0 NMMIF=      0
                NMic=       0 NMicF=      0.
                    Isotopes and Nuclear Properties:
 (Nuclear quadrupole moments (NQMom) in fm**2, nuclear magnetic moments (NMagM)
  in nuclear magnetons)

  Atom         1           2           3           4           5           6           7           8           9          10
 IAtWgt=          12          12          12          12          12          12           1           1           1           1
 AtmWgt=  12.0000000  12.0000000  12.0000000  12.0000000  12.0000000  12.0000000   1.0078250   1.0078250   1.0078250   1.0078250
 NucSpn=           0           0           0           0           0           0           1           1           1           1
 AtZEff=  -0.0000000  -0.0000000  -0.0000000  -0.0000000  -0.0000000  -0.0000000  -0.0000000  -0.0000000  -0.0000000  -0.0000000
 NQMom=    0.0000000   0.0000000   0.0000000   0.0000000   0.0000000   0.0000000   0.0000000   0.0000000   0.0000000   0.0000000
 NMagM=    0.0000000   0.0000000   0.0000000   0.0000000   0.0000000   0.0000000   2.7928460   2.7928460   2.7928460   2.7928460
 AtZNuc=   6.0000000   6.0000000   6.0000000   6.0000000   6.0000000   6.0000000   1.0000000   1.0000000   1.0000000   1.0000000

  Atom        11          12          13          14          15          16          17          18          19          20
 IAtWgt=          12          12          12          12          12          12           1           1           1           1
 AtmWgt=  12.0000000  12.0000000  12.0000000  12.0000000  12.0000000  12.0000000   1.0078250   1.0078250   1.0078250   1.0078250
 NucSpn=           0           0           0           0           0           0           1           1           1           1
 AtZEff=  -0.0000000  -0.0000000  -0.0000000  -0.0000000  -0.0000000  -0.0000000  -0.0000000  -0.0000000  -0.0000000  -0.0000000
 NQMom=    0.0000000   0.0000000   0.0000000   0.0000000   0.0000000   0.0000000   0.0000000   0.0000000   0.0000000   0.0000000
 NMagM=    0.0000000   0.0000000   0.0000000   0.0000000   0.0000000   0.0000000   2.7928460   2.7928460   2.7928460   2.7928460
 AtZNuc=   6.0000000   6.0000000   6.0000000   6.0000000   6.0000000   6.0000000   1.0000000   1.0000000   1.0000000   1.0000000

  Atom        21          22          23          24          25          26          27          28          29          30
 IAtWgt=           1          14          12          12          12          12          12          12           1           1
 AtmWgt=   1.0078250  14.0030740  12.0000000  12.0000000  12.0000000  12.0000000  12.0000000  12.0000000   1.0078250   1.0078250
 NucSpn=           1           2           0           0           0           0           0           0           1           1
 AtZEff=  -0.0000000  -0.0000000  -0.0000000  -0.0000000  -0.0000000  -0.0000000  -0.0000000  -0.0000000  -0.0000000  -0.0000000
 NQMom=    0.0000000   2.0440000   0.0000000   0.0000000   0.0000000   0.0000000   0.0000000   0.0000000   0.0000000   0.0000000
 NMagM=    2.7928460   0.4037610   0.0000000   0.0000000   0.0000000   0.0000000   0.0000000   0.0000000   2.7928460   2.7928460
 AtZNuc=   1.0000000   7.0000000   6.0000000   6.0000000   6.0000000   6.0000000   6.0000000   6.0000000   1.0000000   1.0000000

  Atom        31          32          33          34          35          36          37          38          39          40
 IAtWgt=           1           1           1          12          12          12          12          12          12           1
 AtmWgt=   1.0078250   1.0078250   1.0078250  12.0000000  12.0000000  12.0000000  12.0000000  12.0000000  12.0000000   1.0078250
 NucSpn=           1           1           1           0           0           0           0           0           0           1
 AtZEff=  -0.0000000  -0.0000000  -0.0000000  -0.0000000  -0.0000000  -0.0000000  -0.0000000  -0.0000000  -0.0000000  -0.0000000
 NQMom=    0.0000000   0.0000000   0.0000000   0.0000000   0.0000000   0.0000000   0.0000000   0.0000000   0.0000000   0.0000000
 NMagM=    2.7928460   2.7928460   2.7928460   0.0000000   0.0000000   0.0000000   0.0000000   0.0000000   0.0000000   2.7928460
 AtZNuc=   1.0000000   1.0000000   1.0000000   6.0000000   6.0000000   6.0000000   6.0000000   6.0000000   6.0000000   1.0000000

  Atom        41          42          43          44
 IAtWgt=           1           1           1           1
 AtmWgt=   1.0078250   1.0078250   1.0078250   1.0078250
 NucSpn=           1           1           1           1
 AtZEff=  -0.0000000  -0.0000000  -0.0000000  -0.0000000
 NQMom=    0.0000000   0.0000000   0.0000000   0.0000000
 NMagM=    2.7928460   2.7928460   2.7928460   2.7928460
 AtZNuc=   1.0000000   1.0000000   1.0000000   1.0000000
 Leave Link  101 at Sun Jan 17 14:58:22 2021, MaxMem=  4026531840 cpu:               0.7 elap:               0.1
 (Enter /opt/ohpc/pub/libs/gaussian/g16-A.03/sandybridge/g16/l202.exe)
                          Input orientation:                          
 ---------------------------------------------------------------------
 Center     Atomic      Atomic             Coordinates (Angstroms)
 Number     Number       Type             X           Y           Z
 ---------------------------------------------------------------------
      1          6           0        6.129184    1.201496   -0.030856
      2          6           0        6.830271    0.000001    0.000182
      3          6           0        4.738958    1.200713   -0.032197
      4          6           0        6.129235   -1.201473    0.031153
      5          6           0        4.021751   -0.000032    0.000031
      6          6           0        4.738962   -1.200719    0.032361
      7          1           0        7.919539    0.000045    0.000190
      8          1           0        4.198073    2.145454   -0.081149
      9          1           0        6.668779   -2.147537    0.063412
     10          1           0        4.198148   -2.145504    0.081256
     11          6           0        2.536892   -0.000014   -0.000063
     12          6           0        1.813363   -0.924286   -0.760077
     13          6           0        1.813258    0.924290    0.759786
     14          6           0        0.426027   -0.922473   -0.771159
     15          6           0        0.425899    0.922498    0.770636
     16          6           0       -0.288344    0.000018   -0.000311
     17          1           0        2.347573   -1.638662   -1.386050
     18          1           0        2.347350    1.638674    1.385851
     19          1           0       -0.115370   -1.638494   -1.387158
     20          1           0       -0.115571    1.638578    1.386504
     21          1           0        6.668762    2.147543   -0.063006
     22          7           0       -1.704382   -0.000003   -0.000499
     23          6           0       -2.414266    1.227770    0.004035
     24          6           0       -3.559402    1.382015    0.792108
     25          6           0       -1.979956    2.301413   -0.780170
     26          6           0       -4.257371    2.583383    0.786193
     27          6           0       -2.673527    3.505213   -0.765830
     28          6           0       -3.817854    3.653503    0.012423
     29          1           0       -3.900046    0.551242    1.407814
     30          1           0       -1.092486    2.185578   -1.400082
     31          1           0       -5.147916    2.686607    1.405370
     32          1           0       -2.321511    4.331764   -1.382280
     33          1           0       -4.363183    4.595952    0.015664
     34          6           0       -2.414241   -1.227791   -0.004406
     35          6           0       -3.559682   -1.382189   -0.792032
     36          6           0       -1.979686   -2.301249    0.779869
     37          6           0       -4.257673   -2.583532   -0.785597
     38          6           0       -2.673287   -3.505060    0.766028
     39          6           0       -3.817885   -3.653507   -0.011769
     40          1           0       -3.900521   -0.551523   -1.407763
     41          1           0       -1.092008   -2.185299    1.399468
     42          1           0       -5.148466   -2.686887   -1.404399
     43          1           0       -2.321010   -4.331477    1.382521
     44          1           0       -4.363223   -4.595951   -0.014691
 ---------------------------------------------------------------------
                    Distance matrix (angstroms):
                    1          2          3          4          5
     1  C    0.000000
     2  C    1.391430   0.000000
     3  C    1.390227   2.411711   0.000000
     4  C    2.403769   1.391384   2.776217   0.000000
     5  C    2.426087   2.808520   1.399004   2.426091   0.000000
     6  C    2.776212   2.411708   2.402300   1.390274   1.398959
     7  H    2.156344   1.089268   3.399816   2.156338   3.897788
     8  H    2.150064   3.396770   1.089719   3.865737   2.154249
     9  H    3.393534   2.154529   3.865764   1.089580   3.409186
    10  H    3.865731   3.396739   3.391536   2.150070   2.154243
    11  C    3.788025   4.293379   2.508361   3.788061   1.484859
    12  C    4.865904   5.157680   3.688433   4.396547   2.511770
    13  C    4.396496   5.157686   3.043578   4.865946   2.511780
    14  C    6.130685   6.516154   4.863677   5.766119   3.791420
    15  C    5.766081   6.516178   4.395955   6.130753   3.791444
    16  C    6.529100   7.118615   5.168796   6.529157   4.310095
    17  H    4.919718   4.970054   3.951416   4.062089   2.721985
    18  H    4.062075   4.970101   2.814686   4.919786   2.722035
    19  H    6.992822   7.269890   5.784593   6.418542   4.660968
    20  H    6.418482   7.269907   5.076504   6.992887   4.660985
    21  H    1.089579   2.154533   2.149786   3.393503   3.409211
    22  N    7.925230   8.534653   6.554339   7.925282   5.726133
    23  C    8.543562   9.325712   7.153367   8.882194   6.552086
    24  C    9.725151  10.511062   8.341171  10.056001   7.746697
    25  C    8.217630   9.139231   6.849439   8.870594   6.475017
    26  C   10.509886  11.411726   9.138680  11.080470   8.708384
    27  C    9.128802  10.158517   7.797042  10.013825   7.596054
    28  C   10.244890  11.257477   8.901528  11.068682   8.649155
    29  H   10.152736  10.836282   8.782245  10.273932   8.064777
    30  H    7.415910   8.337120   6.070157   8.103937   5.735209
    31  H   11.464785  12.355945  10.100731  12.007488   9.657940
    32  H    9.112583  10.219124   7.840690  10.199491   7.804628
    33  H   11.027886  12.100265   9.714881  11.987544   9.561926
    34  C    8.882131   9.325690   7.554248   8.543591   6.552053
    35  C   10.056289  10.511383   8.724457   9.725503   7.746990
    36  C    8.870190   9.138873   7.619932   8.217340   6.474642
    37  C   11.080743  11.412037   9.789152  10.510234   8.708648
    38  C   10.013500  10.158228   8.816056   9.128579   7.595756
    39  C   11.068677  11.257508   9.837857  10.244975   8.649157
    40  H   10.274431  10.836807   8.922058  10.153271   8.065260
    41  H    8.103198   8.336429   6.893106   7.415292   5.734488
    42  H   12.007978  12.356470  10.712494  11.465331   9.658390
    43  H   10.198882  10.218537   9.080182   9.112067   7.804057
    44  H   11.987546  12.100302  10.791261  11.027976   9.561929
                    6          7          8          9         10
     6  C    0.000000
     7  H    3.399844   0.000000
     8  H    3.391507   4.296360   0.000000
     9  H    2.149796   2.486062   4.955306   0.000000
    10  H    1.089720   4.296359   4.294030   2.470696   0.000000
    11  C    2.508357   5.382647   2.714614   4.657078   2.714684
    12  C    3.043600   6.222361   3.946022   5.074401   2.808276
    13  C    3.688435   6.222370   2.808159   5.787672   3.946104
    14  C    4.395961   7.589383   4.910868   6.416326   4.056022
    15  C    4.863704   7.589410   4.055916   6.992770   4.910982
    16  C    5.168814   8.207883   4.973667   7.281319   4.973784
    17  H    2.814680   5.971083   4.409836   4.586144   2.415472
    18  H    3.951442   5.971135   2.415386   5.895675   4.409923
    19  H    5.076536   8.316809   5.884702   6.956145   4.584729
    20  H    5.784618   8.316829   4.584589   7.881158   5.884821
    21  H    3.865758   2.485998   2.470756   4.296940   4.955300
    22  N    6.554348   9.623921   6.280801   8.644409   6.280901
    23  C    7.554272  10.406481   6.676258   9.690094   7.423541
    24  C    8.724138  11.588920   7.843713  10.844557   8.551508
    25  C    7.620301  10.193393   6.219405   9.762449   7.660685
    26  C    9.788856  12.472713   8.511087  11.928318   9.713656
    27  C    8.816343  11.184187   7.038226  10.950795   8.936894
    28  C    9.837834  12.292856   8.157086  11.984329   9.893913
    29  H    8.921530  11.915864   8.386779  10.990491   8.637878
    30  H    6.893815   9.378375   5.452633   9.008603   6.995959
    31  H   10.711994  13.414564   9.478929  12.837604  10.604315
    32  H    9.080741  11.205093   6.998419  11.175718   9.306067
    33  H   10.791233  13.114414   8.905584  12.929853  10.897152
    34  C    7.153349  10.406470   7.423434   9.129720   6.676318
    35  C    8.341466  11.589249   8.551747  10.292665   7.844056
    36  C    6.849100  10.193062   7.660237   8.679452   6.219160
    37  C    9.138964  12.473044   9.713866  10.968056   8.511417
    38  C    7.796774  11.183927   8.936532   9.466295   7.038034
    39  C    8.901559  12.292913   9.893854  10.594514   8.157175
    40  H    8.782715  11.916391   8.638334  10.789890   8.387276
    41  H    6.069480   9.377723   6.995184   7.875042   5.452065
    42  H   10.101198  13.415112  10.604730  11.920262   9.479423
    43  H    7.840139  11.204542   9.305450   9.344835   6.997942
    44  H    9.714916  13.114482  10.897098  11.300703   8.905671
                   11         12         13         14         15
    11  C    0.000000
    12  C    1.398354   0.000000
    13  C    1.398340   2.393160   0.000000
    14  C    2.429253   1.387381   2.771053   0.000000
    15  C    2.429258   2.771056   1.387403   2.404381   0.000000
    16  C    2.825236   2.418420   2.418420   1.398400   1.398382
    17  H    2.154523   1.089750   3.385089   2.140878   3.860527
    18  H    2.154526   3.385102   1.089750   3.860524   2.140881
    19  H    3.412205   2.150194   3.859642   1.088693   3.392304
    20  H    3.412200   3.859646   2.150201   3.392318   1.088694
    21  H    4.657071   5.787654   5.074372   6.992726   6.416310
    22  N    4.241274   3.715614   3.715662   2.446121   2.446171
    23  C    5.101121   4.805004   4.305255   3.645783   2.957601
    24  C    6.300979   6.049372   5.392220   4.861904   4.011763
    25  C    5.129040   4.979438   4.319306   4.022720   3.177191
    26  C    7.311234   7.179729   6.293316   6.053973   4.969084
    27  C    6.326253   6.304972   5.396286   5.404782   4.317127
    28  C    7.330153   7.298186   6.302109   6.289999   5.103206
    29  H    6.612123   6.286492   5.762026   5.063069   4.388351
    30  H    4.461978   4.304047   3.833957   3.515879   2.934771
    31  H    8.261322   8.135546   7.209749   6.987959   5.880679
    32  H    6.654240   6.716426   5.770237   5.960658   4.879181
    33  H    8.290608   8.320128   7.223797   7.349057   6.082726
    34  C    5.101095   4.305321   4.804913   2.957744   3.645659
    35  C    6.301257   5.392616   6.049502   4.012188   4.861931
    36  C    5.128689   4.319107   4.979049   3.177132   4.022371
    37  C    7.311480   6.293745   7.179779   4.969544   6.053921
    38  C    6.325995   5.396241   6.304623   4.317227   5.404465
    39  C    7.330166   6.302346   7.298034   5.103529   6.289808
    40  H    6.612569   5.762545   6.286777   4.388837   5.063207
    41  H    4.461286   3.833402   4.303406   2.934413   3.515377
    42  H    8.261729   7.210338   8.135717   5.881252   6.987988
    43  H    6.653745   5.769984   6.715881   4.879125   5.960215
    44  H    8.290623   7.224053   8.319964   6.083058   7.348858
                   16         17         18         19         20
    16  C    0.000000
    17  H    3.399059   0.000000
    18  H    3.399047   4.292361   0.000000
    19  H    2.153598   2.462943   4.949182   0.000000
    20  H    2.153598   4.949185   2.462921   4.293297   0.000000
    21  H    7.281285   5.895631   4.586146   7.881110   6.956098
    22  N    1.416038   4.585117   4.585167   2.670662   2.670776
    23  C    2.454982   5.729213   4.975062   3.928843   2.713666
    24  C    3.638360   6.982923   5.942064   5.072872   3.504155
    25  C    2.960769   5.883773   4.884306   4.400907   2.934239
    26  C    4.800577   8.134469   6.698836   6.301101   4.290401
    27  C    4.308307   7.214954   5.772599   5.778230   3.828839
    28  C    5.079917   8.244709   6.629901   6.608513   4.433387
    29  H    3.915489   7.185687   6.341368   5.189469   3.937639
    30  H    2.717108   5.143833   4.460157   3.946954   3.003104
    31  H    5.727926   9.092983   7.568194   7.199391   5.140352
    32  H    4.980726   7.579337   6.059170   6.364830   4.448099
    33  H    6.142245   9.266578   7.460171   7.673340   5.354201
    34  C    2.454989   4.975201   5.729065   2.713943   3.928688
    35  C    3.638540   5.942583   6.982966   3.504733   5.072766
    36  C    2.960599   4.884199   5.883319   2.934438   4.400587
    37  C    4.800727   6.699448   8.134405   4.291113   6.300892
    38  C    4.308225   5.772687   7.214498   3.829258   5.777881
    39  C    5.079964   6.630318   8.244431   4.434026   6.608212
    40  H    3.915730   6.342005   7.185898   3.938185   5.189443
    41  H    2.716775   4.459668   5.143164   3.003015   3.946598
    42  H    5.728150   7.568997   9.093032   5.141156   7.199224
    43  H    4.980543   6.059035   7.578674   4.448385   6.364396
    44  H    6.142294   7.460628   9.266275   5.354855   7.673021
                   21         22         23         24         25
    21  H    0.000000
    22  N    8.644386   0.000000
    23  C    9.129725   1.418232   0.000000
    24  C   10.292356   2.445260   1.398638   0.000000
    25  C    8.679765   2.445474   1.398682   2.410809   0.000000
    26  C   10.967747   3.716251   2.417952   1.389417   2.778420
    27  C    9.466551   3.716384   2.417986   2.778474   1.389381
    28  C   10.594466   4.220786   2.802554   2.415443   2.415413
    29  H   10.789402   2.666113   2.153097   1.088722   3.396633
    30  H    7.875671   2.666461   2.153147   3.396628   1.088720
    31  H   11.919757   4.588275   3.400704   2.145094   3.867936
    32  H    9.345390   4.588504   3.400772   3.867991   2.145116
    33  H   11.300651   5.309641   3.891409   3.402693   3.402651
    34  C    9.690060   1.418231   2.455576   2.959209   3.639463
    35  C   10.844886   2.445220   2.959322   3.185957   4.008067
    36  C    9.762061   2.445506   3.639334   4.007753   4.859858
    37  C   11.928629   3.716221   4.306703   4.324615   5.389871
    38  C   10.950484   3.716418   4.800771   4.966828   6.048683
    39  C   11.984347   4.220795   5.079100   5.105831   6.279291
    40  H   10.991045   2.666007   2.714408   2.948621   3.495953
    41  H    9.007880   2.666539   3.917223   4.379800   5.066543
    42  H   12.838143   4.588245   4.978361   4.889349   5.942411
    43  H   11.175117   4.588534   5.728363   5.875899   6.984897
    44  H   12.929878   5.309649   6.141214   6.085485   7.337544
                   26         27         28         29         30
    26  C    0.000000
    27  C    2.401480   0.000000
    28  C    1.391780   1.391816   0.000000
    29  H    2.154922   3.867172   3.402631   0.000000
    30  H    3.867111   2.154856   3.402588   4.293917   0.000000
    31  H    1.089544   3.392171   2.155053   2.473251   4.956622
    32  H    3.392148   1.089547   2.155058   4.956687   2.473244
    33  H    2.157625   2.157633   1.088855   4.302587   4.302522
    34  C    4.306649   4.800867   5.079118   2.714211   3.917402
    35  C    4.324734   4.967158   5.106074   2.948445   4.380153
    36  C    5.389575   6.048603   6.279085   3.495540   5.066648
    37  C    5.400698   6.291480   6.303244   3.842624   5.756771
    38  C    6.291174   7.175689   7.288551   4.286072   6.290813
    39  C    6.303070   7.288720   7.307050   4.438680   6.591671
    40  H    3.842970   4.286572   4.439145   3.023833   3.921332
    41  H    5.756384   6.290600   6.591338   3.920944   5.190573
    42  H    5.776547   6.698895   6.631626   4.466830   6.339709
    43  H    7.205580   8.133473   8.238787   5.131758   7.191951
    44  H    7.224642   8.309521   8.267506   5.360191   7.655466
                   31         32         33         34         35
    31  H    0.000000
    32  H    4.297220   0.000000
    33  H    2.488511   2.488467   0.000000
    34  C    4.978249   5.728507   6.141234   0.000000
    35  C    4.889393   5.876284   6.085734   1.398652   0.000000
    36  C    5.942023   6.984883   7.337333   1.398656   2.410795
    37  C    5.776438   7.205975   7.224828   2.417961   1.389409
    38  C    6.698454   8.133559   8.309344   2.417980   2.778458
    39  C    6.631313   8.239053   8.267507   2.802565   2.415443
    40  H    4.467124   5.132291   5.360662   2.153086   1.088716
    41  H    6.339234   7.191795   7.655120   2.153134   3.396627
    42  H    6.063764   7.566613   7.461434   3.400725   2.145103
    43  H    7.566070   9.093727   9.259469   3.400754   3.867983
    44  H    7.461097   9.259751   9.191953   3.891419   3.402676
                   36         37         38         39         40
    36  C    0.000000
    37  C    2.778415   0.000000
    38  C    1.389401   2.401465   0.000000
    39  C    2.415423   1.391787   1.391801   0.000000
    40  H    3.396599   2.154927   3.867150   3.402636   0.000000
    41  H    1.088724   3.867109   2.154869   3.402592   4.293893
    42  H    3.867934   1.089546   3.392149   2.155045   2.473289
    43  H    2.145115   3.392154   1.089554   2.155069   4.956671
    44  H    3.402680   2.157607   2.157649   1.088854   4.302574
                   41         42         43         44
    41  H    0.000000
    42  H    4.956623   0.000000
    43  H    2.473219   4.297221   0.000000
    44  H    4.302550   2.488457   2.488530   0.000000
 Stoichiometry    C24H19N(1+,2)
 Framework group  C1[X(C24H19N)]
 Deg. of freedom   126
 Full point group                 C1      NOp   1
 Largest Abelian subgroup         C1      NOp   1
 Largest concise Abelian subgroup C1      NOp   1
                         Standard orientation:                         
 ---------------------------------------------------------------------
 Center     Atomic      Atomic             Coordinates (Angstroms)
 Number     Number       Type             X           Y           Z
 ---------------------------------------------------------------------
      1          6           0       -6.129184    1.201496    0.030856
      2          6           0       -6.830271    0.000001   -0.000182
      3          6           0       -4.738958    1.200713    0.032197
      4          6           0       -6.129235   -1.201473   -0.031153
      5          6           0       -4.021751   -0.000032   -0.000031
      6          6           0       -4.738962   -1.200719   -0.032361
      7          1           0       -7.919539    0.000045   -0.000190
      8          1           0       -4.198073    2.145454    0.081149
      9          1           0       -6.668779   -2.147537   -0.063412
     10          1           0       -4.198148   -2.145504   -0.081256
     11          6           0       -2.536892   -0.000014    0.000063
     12          6           0       -1.813363   -0.924286    0.760077
     13          6           0       -1.813258    0.924290   -0.759786
     14          6           0       -0.426027   -0.922473    0.771159
     15          6           0       -0.425899    0.922498   -0.770636
     16          6           0        0.288344    0.000018    0.000311
     17          1           0       -2.347573   -1.638662    1.386050
     18          1           0       -2.347350    1.638674   -1.385851
     19          1           0        0.115370   -1.638494    1.387158
     20          1           0        0.115571    1.638578   -1.386504
     21          1           0       -6.668762    2.147543    0.063006
     22          7           0        1.704382   -0.000003    0.000499
     23          6           0        2.414266    1.227770   -0.004035
     24          6           0        3.559402    1.382015   -0.792108
     25          6           0        1.979956    2.301413    0.780170
     26          6           0        4.257371    2.583383   -0.786193
     27          6           0        2.673527    3.505213    0.765830
     28          6           0        3.817854    3.653503   -0.012423
     29          1           0        3.900046    0.551242   -1.407814
     30          1           0        1.092486    2.185578    1.400082
     31          1           0        5.147916    2.686607   -1.405370
     32          1           0        2.321511    4.331764    1.382280
     33          1           0        4.363183    4.595952   -0.015664
     34          6           0        2.414241   -1.227791    0.004406
     35          6           0        3.559682   -1.382189    0.792032
     36          6           0        1.979686   -2.301249   -0.779869
     37          6           0        4.257673   -2.583532    0.785597
     38          6           0        2.673287   -3.505060   -0.766028
     39          6           0        3.817885   -3.653507    0.011769
     40          1           0        3.900521   -0.551523    1.407763
     41          1           0        1.092008   -2.185299   -1.399468
     42          1           0        5.148466   -2.686887    1.404399
     43          1           0        2.321010   -4.331477   -1.382521
     44          1           0        4.363223   -4.595951    0.014691
 ---------------------------------------------------------------------
 Rotational constants (GHZ):           0.3772696           0.1165367           0.0926339
 Leave Link  202 at Sun Jan 17 14:58:23 2021, MaxMem=  4026531840 cpu:               0.3 elap:               0.1
 (Enter /opt/ohpc/pub/libs/gaussian/g16-A.03/sandybridge/g16/l301.exe)
 Standard basis: TZVP (5D, 7F)
 Ernie: Thresh=  0.10000D-02 Tol=  0.10000D-05 Strict=F.
 There are   614 symmetry adapted cartesian basis functions of A   symmetry.
 There are   589 symmetry adapted basis functions of A   symmetry.
   589 basis functions,  1027 primitive gaussians,   614 cartesian basis functions
    85 alpha electrons       84 beta electrons
       nuclear repulsion energy      1905.4959532784 Hartrees.
 IExCor=33909 DFT=T Ex+Corr=LC-wHPBE ExCW=0 ScaHFX=  1.000000
 ScaDFX=  1.000000  1.000000  1.000000  1.000000 ScalE2=  1.000000  1.000000
 IRadAn=      5 IRanWt=     -1 IRanGd=            0 ICorTp=0 IEmpDi=  4
 HFx  wShort=  0.000000 wLong=  0.177900 cFull=  0.000000 cShort=  0.000000 cLong=  1.000000
 DFx  wShort=  0.000000 wLong=  0.177900 cFull=  0.000000 cShort=  1.000000 cLong=  0.000000
 NAtoms=   44 NActive=   44 NUniq=   44 SFac= 1.00D+00 NAtFMM=   60 NAOKFM=F Big=F
 Integral buffers will be    131072 words long.
 Raffenetti 2 integral format.
 Two-electron integral symmetry is turned on.
 Leave Link  301 at Sun Jan 17 14:58:23 2021, MaxMem=  4026531840 cpu:               0.4 elap:               0.1
 (Enter /opt/ohpc/pub/libs/gaussian/g16-A.03/sandybridge/g16/l302.exe)
 NPDir=0 NMtPBC=     1 NCelOv=     1 NCel=       1 NClECP=     1 NCelD=      1
         NCelK=      1 NCelE2=     1 NClLst=     1 CellRange=     0.0.
 One-electron integrals computed using PRISM.
 One-electron integral symmetry used in STVInt
 NBasis=   589 RedAO= T EigKep=  7.25D-06  NBF=   589
 NBsUse=   589 1.00D-06 EigRej= -1.00D+00 NBFU=   589
 Precomputing XC quadrature grid using
 IXCGrd= 4 IRadAn=           5 IRanWt=          -1 IRanGd=           0 AccXCQ= 0.00D+00.
 Generated NRdTot=       0 NPtTot=           0 NUsed=           0 NTot=          32
 NSgBfM=   586   586   586   586   586 MxSgAt=    44 MxSgA2=    44.
 Leave Link  302 at Sun Jan 17 14:58:24 2021, MaxMem=  4026531840 cpu:               8.0 elap:               1.1
 (Enter /opt/ohpc/pub/libs/gaussian/g16-A.03/sandybridge/g16/l303.exe)
 DipDrv:  MaxL=1.
 Leave Link  303 at Sun Jan 17 14:58:24 2021, MaxMem=  4026531840 cpu:               0.7 elap:               0.1
 (Enter /opt/ohpc/pub/libs/gaussian/g16-A.03/sandybridge/g16/l401.exe)
 ExpMin= 9.52D-02 ExpMax= 1.97D+04 ExpMxC= 6.73D+02 IAcc=3 IRadAn=         5 AccDes= 0.00D+00
 Harris functional with IExCor=33909 and IRadAn=       5 diagonalized for initial guess.
 HarFok:  IExCor=33909 AccDes= 0.00D+00 IRadAn=         5 IDoV= 1 UseB2=F ITyADJ=14
 ICtDFT=  3500011 ScaDFX=  1.000000  1.000000  1.000000  1.000000
 FoFCou: FMM=F IPFlag=           0 FMFlag=      100000 FMFlg1=           0
         NFxFlg=           0 DoJE=T BraDBF=F KetDBF=T FulRan=T
         wScrn=  0.000000 ICntrl=       500 IOpCl=  0 I1Cent=   200000004 NGrid=           0
         NMat0=    1 NMatS0=      1 NMatT0=    0 NMatD0=    1 NMtDS0=    0 NMtDT0=    0
 Petite list used in FoFCou.
 Harris En= -963.805369660365    
 JPrj=0 DoOrth=F DoCkMO=F.
 Initial guess <Sx>= 0.0000 <Sy>= 0.0000 <Sz>= 0.5000 <S**2>= 0.7500 S= 0.5000
 Leave Link  401 at Sun Jan 17 14:58:30 2021, MaxMem=  4026531840 cpu:              49.0 elap:               6.2
 (Enter /opt/ohpc/pub/libs/gaussian/g16-A.03/sandybridge/g16/l502.exe)
 Integral symmetry usage will be decided dynamically.
 UHF open shell SCF:
 Using DIIS extrapolation, IDIIS=    10.
 NGot=  4026531840 LenX=  4025766914 LenY=  4025389304
 Requested convergence on RMS density matrix=1.00D-06 within  32 cycles.
 Requested convergence on MAX density matrix=1.00D-04.
 Requested convergence on             energy=1.00D-04.
 Virtual orbitals will be shifted by   0.500 hartree.
 No special actions if energy rises.
 Dynamic level shift is on during FON iterations.

 Cycle   1  Pass 1  IDiag  1:
 FoFJK:  IHMeth= 1 ICntrl=       0 DoSepK=T KAlg= 0 I1Cent=           0 FoldK=F
 IRaf=         1 NMat=       1 IRICut=       1 DoRegI=T DoRafI=F ISym2E= 0 IDoP0=0 IntGTp=1.
 FoFCou: FMM=F IPFlag=           0 FMFlag=      100000 FMFlg1=           0
         NFxFlg=           0 DoJE=T BraDBF=F KetDBF=F FulRan=T
         wScrn=  0.000000 ICntrl=       500 IOpCl=  0 I1Cent=           0 NGrid=           0
         NMat0=    1 NMatS0=      1 NMatT0=    0 NMatD0=    1 NMtDS0=    0 NMtDT0=    0
 Symmetry not used in FoFCou.
 E= -979.428967079150    
 DIIS: error= 3.02D-02 at cycle   1 NSaved=   1.
 NSaved= 1 IEnMin= 1 EnMin= -979.428967079150     IErMin= 1 ErrMin= 3.02D-02
 ErrMax= 3.02D-02  0.00D+00 EMaxC= 1.00D+00 BMatC= 1.66D+00 BMatP= 1.66D+00
 IDIUse=1 WtCom= 1.00D+00 WtEn= 0.00D+00
 Coeff-Com:  0.100D+01
 Coeff:      0.100D+01
 Gap=     0.392 Goal=   None    Shift=    0.500
 T= 1500. Gap= 0.676 NK=0 IS=   86 IE=  589 IFin=   85
          NO(<0.9)=   0  NV(>0.1)=   0     85.00e < EF      0.00e >EF  Err=0.0D+00
 Gap=     0.066 Goal=   None    Shift=    0.500
 T= 1500. Gap= 0.487 NK=0 IS=   85 IE=  589 IFin=   84
          NO(<0.9)=   0  NV(>0.1)=   0     84.00e < EF      0.00e >EF  Err=0.0D+00
 GapD=    0.066 DampG=0.500 DampE=0.500 DampFc=0.2500 IDamp=-1.
 Damping current iteration by 2.50D-01
 RMSDP=2.61D-03 MaxDP=8.26D-02              OVMax= 9.35D-02

 Cycle   2  Pass 1  IDiag  1:
 E= -979.583753092206     Delta-E=       -0.154786013056 Rises=F Damp=T
 DIIS: error= 2.19D-02 at cycle   2 NSaved=   2.
 NSaved= 2 IEnMin= 2 EnMin= -979.583753092206     IErMin= 2 ErrMin= 2.19D-02
 ErrMax= 2.19D-02  0.00D+00 EMaxC= 1.00D+00 BMatC= 7.66D-01 BMatP= 1.66D+00
 IDIUse=1 WtCom= 1.00D+00 WtEn= 0.00D+00
 Coeff-Com: -0.188D+01 0.288D+01
 Coeff:     -0.188D+01 0.288D+01
 Gap=     0.290 Goal=   None    Shift=    0.500
 T= 1442. Gap= 0.761 NK=0 IS=   86 IE=  589 IFin=   85
          NO(<0.9)=   0  NV(>0.1)=   0     85.00e < EF      0.00e >EF  Err=0.0D+00
 Gap=     0.187 Goal=   None    Shift=    0.500
 T= 1442. Gap= 0.650 NK=0 IS=   85 IE=  589 IFin=   84
          NO(<0.9)=   0  NV(>0.1)=   0     84.00e < EF      0.00e >EF  Err=0.0D+00
 GapD=    0.187 DampG=1.000 DampE=0.500 DampFc=0.5000 IDamp=-1.
 Damping current iteration by 5.00D-01
 RMSDP=1.88D-03 MaxDP=6.78D-02 DE=-1.55D-01 OVMax= 3.15D-02

 Cycle   3  Pass 1  IDiag  1:
 E= -979.741568866415     Delta-E=       -0.157815774209 Rises=F Damp=T
 DIIS: error= 1.01D-02 at cycle   3 NSaved=   3.
 NSaved= 3 IEnMin= 3 EnMin= -979.741568866415     IErMin= 3 ErrMin= 1.01D-02
 ErrMax= 1.01D-02  0.00D+00 EMaxC= 1.00D+00 BMatC= 1.46D-01 BMatP= 7.66D-01
 IDIUse=1 WtCom= 1.00D+00 WtEn= 0.00D+00
 Coeff-Com:  0.694D-01-0.869D+00 0.180D+01
 Coeff:      0.694D-01-0.869D+00 0.180D+01
 Gap=     0.271 Goal=   None    Shift=    0.500
 T= 1275. Gap= 0.770 NK=4 IS=   86 IE=   96 IFin=   85
          NO(<0.9)=   0  NV(>0.1)=   0     85.00e < EF      0.00e >EF  Err=0.0D+00
 Gap=     0.147 Goal=   None    Shift=    0.500
 T= 1275. Gap= 0.646 NK=4 IS=   85 IE=   94 IFin=   84
          NO(<0.9)=   0  NV(>0.1)=   0     84.00e < EF      0.00e >EF  Err=0.0D+00
 GapD=    0.147 DampG=1.000 DampE=0.500 DampFc=0.5000 IDamp=-1.
 Damping current iteration by 5.00D-01
 RMSDP=9.20D-04 MaxDP=3.48D-02 DE=-1.58D-01 OVMax= 1.00D-02

 Cycle   4  Pass 1  IDiag  1:
 E= -979.800269668484     Delta-E=       -0.058700802069 Rises=F Damp=T
 DIIS: error= 4.79D-03 at cycle   4 NSaved=   4.
 NSaved= 4 IEnMin= 4 EnMin= -979.800269668484     IErMin= 4 ErrMin= 4.79D-03
 ErrMax= 4.79D-03  0.00D+00 EMaxC= 1.00D+00 BMatC= 3.01D-02 BMatP= 1.46D-01
 IDIUse=1 WtCom= 1.00D+00 WtEn= 0.00D+00
 Coeff-Com:  0.195D+00-0.302D+00-0.815D+00 0.192D+01
 Coeff:      0.195D+00-0.302D+00-0.815D+00 0.192D+01
 Gap=     0.270 Goal=   None    Shift=    0.500
 T=  960. Gap= 0.770 NK=4 IS=   86 IE=   96 IFin=   85
          NO(<0.9)=   0  NV(>0.1)=   0     85.00e < EF      0.00e >EF  Err=0.0D+00
 Gap=     0.150 Goal=   None    Shift=    0.500
 T=  960. Gap= 0.650 NK=4 IS=   85 IE=   94 IFin=   84
          NO(<0.9)=   0  NV(>0.1)=   0     84.00e < EF      0.00e >EF  Err=0.0D+00
 GapD=    0.150 DampG=1.000 DampE=1.000 DampFc=1.0000 IDamp=-1.
 RMSDP=4.53D-04 MaxDP=2.31D-02 DE=-5.87D-02 OVMax= 7.62D-03

 Cycle   5  Pass 1  IDiag  1:
 E= -979.850425872650     Delta-E=       -0.050156204166 Rises=F Damp=F
 DIIS: error= 7.71D-04 at cycle   5 NSaved=   5.
 NSaved= 5 IEnMin= 5 EnMin= -979.850425872650     IErMin= 5 ErrMin= 7.71D-04
 ErrMax= 7.71D-04  0.00D+00 EMaxC= 1.00D+00 BMatC= 6.65D-04 BMatP= 3.01D-02
 IDIUse=1 WtCom= 1.00D+00 WtEn= 0.00D+00
 Coeff-Com:  0.379D-01 0.493D-02 0.917D-01-0.419D+00 0.128D+01
 Coeff:      0.379D-01 0.493D-02 0.917D-01-0.419D+00 0.128D+01
 Gap=     0.272 Goal=   None    Shift=    0.500
 Gap=     0.153 Goal=   None    Shift=    0.500
 RMSDP=1.03D-04 MaxDP=3.64D-03 DE=-5.02D-02 OVMax= 5.66D-03

 Cycle   6  Pass 1  IDiag  1:
 E= -979.850799602798     Delta-E=       -0.000373730148 Rises=F Damp=F
 DIIS: error= 6.71D-04 at cycle   6 NSaved=   6.
 NSaved= 6 IEnMin= 6 EnMin= -979.850799602798     IErMin= 6 ErrMin= 6.71D-04
 ErrMax= 6.71D-04  0.00D+00 EMaxC= 1.00D+00 BMatC= 1.72D-04 BMatP= 6.65D-04
 IDIUse=1 WtCom= 1.00D+00 WtEn= 0.00D+00
 Coeff-Com: -0.496D-01 0.859D-01 0.252D+00-0.620D+00-0.780D-01 0.141D+01
 Coeff:     -0.496D-01 0.859D-01 0.252D+00-0.620D+00-0.780D-01 0.141D+01
 Gap=     0.272 Goal=   None    Shift=    0.500
 Gap=     0.154 Goal=   None    Shift=    0.500
 RMSDP=6.08D-05 MaxDP=2.33D-03 DE=-3.74D-04 OVMax= 4.84D-03

 Cycle   7  Pass 1  IDiag  1:
 E= -979.850974952552     Delta-E=       -0.000175349754 Rises=F Damp=F
 DIIS: error= 4.37D-04 at cycle   7 NSaved=   7.
 NSaved= 7 IEnMin= 7 EnMin= -979.850974952552     IErMin= 7 ErrMin= 4.37D-04
 ErrMax= 4.37D-04  0.00D+00 EMaxC= 1.00D+00 BMatC= 7.25D-05 BMatP= 1.72D-04
 IDIUse=1 WtCom= 1.00D+00 WtEn= 0.00D+00
 Coeff-Com: -0.181D-01 0.151D-01-0.348D-01 0.966D-01-0.426D+00-0.547D+00
 Coeff-Com:  0.191D+01
 Coeff:     -0.181D-01 0.151D-01-0.348D-01 0.966D-01-0.426D+00-0.547D+00
 Coeff:      0.191D+01
 Gap=     0.273 Goal=   None    Shift=    0.500
 Gap=     0.154 Goal=   None    Shift=    0.500
 RMSDP=3.64D-05 MaxDP=1.02D-03 DE=-1.75D-04 OVMax= 4.18D-03

 Cycle   8  Pass 1  IDiag  1:
 E= -979.851074157752     Delta-E=       -0.000099205200 Rises=F Damp=F
 DIIS: error= 3.00D-04 at cycle   8 NSaved=   8.
 NSaved= 8 IEnMin= 8 EnMin= -979.851074157752     IErMin= 8 ErrMin= 3.00D-04
 ErrMax= 3.00D-04  0.00D+00 EMaxC= 1.00D+00 BMatC= 3.56D-05 BMatP= 7.25D-05
 IDIUse=1 WtCom= 1.00D+00 WtEn= 0.00D+00
 Coeff-Com:  0.112D-01-0.171D-01-0.103D+00 0.220D+00 0.663D-02-0.746D+00
 Coeff-Com: -0.485D+00 0.211D+01
 Coeff:      0.112D-01-0.171D-01-0.103D+00 0.220D+00 0.663D-02-0.746D+00
 Coeff:     -0.485D+00 0.211D+01
 Gap=     0.273 Goal=   None    Shift=    0.500
 Gap=     0.155 Goal=   None    Shift=    0.500
 RMSDP=2.05D-05 MaxDP=6.69D-04 DE=-9.92D-05 OVMax= 3.42D-03

 Cycle   9  Pass 1  IDiag  1:
 E= -979.851131218379     Delta-E=       -0.000057060627 Rises=F Damp=F
 DIIS: error= 2.30D-04 at cycle   9 NSaved=   9.
 NSaved= 9 IEnMin= 9 EnMin= -979.851131218379     IErMin= 9 ErrMin= 2.30D-04
 ErrMax= 2.30D-04  0.00D+00 EMaxC= 1.00D+00 BMatC= 1.86D-05 BMatP= 3.56D-05
 IDIUse=1 WtCom= 1.00D+00 WtEn= 0.00D+00
 Coeff-Com:  0.932D-02-0.874D-02-0.344D-01 0.585D-01 0.214D+00-0.285D+00
 Coeff-Com: -0.103D+01 0.539D+00 0.154D+01
 Coeff:      0.932D-02-0.874D-02-0.344D-01 0.585D-01 0.214D+00-0.285D+00
 Coeff:     -0.103D+01 0.539D+00 0.154D+01
 Gap=     0.273 Goal=   None    Shift=    0.500
 Gap=     0.156 Goal=   None    Shift=    0.500
 RMSDP=1.25D-05 MaxDP=3.94D-04 DE=-5.71D-05 OVMax= 2.71D-03

 Cycle  10  Pass 1  IDiag  1:
 E= -979.851161977802     Delta-E=       -0.000030759423 Rises=F Damp=F
 DIIS: error= 1.65D-04 at cycle  10 NSaved=  10.
 NSaved=10 IEnMin=10 EnMin= -979.851161977802     IErMin=10 ErrMin= 1.65D-04
 ErrMax= 1.65D-04  0.00D+00 EMaxC= 1.00D+00 BMatC= 9.50D-06 BMatP= 1.86D-05
 IDIUse=1 WtCom= 1.00D+00 WtEn= 0.00D+00
 Coeff-Com: -0.648D-02 0.108D-01 0.520D-01-0.115D+00 0.852D-01 0.272D+00
 Coeff-Com:  0.114D-02-0.109D+01-0.835D+00 0.262D+01
 Coeff:     -0.648D-02 0.108D-01 0.520D-01-0.115D+00 0.852D-01 0.272D+00
 Coeff:      0.114D-02-0.109D+01-0.835D+00 0.262D+01
 Gap=     0.273 Goal=   None    Shift=    0.500
 Gap=     0.156 Goal=   None    Shift=    0.500
 RMSDP=9.36D-06 MaxDP=2.42D-04 DE=-3.08D-05 OVMax= 2.23D-03

 Cycle  11  Pass 1  IDiag  1:
 E= -979.851179574582     Delta-E=       -0.000017596781 Rises=F Damp=F
 DIIS: error= 1.32D-04 at cycle  11 NSaved=  11.
 NSaved=11 IEnMin=11 EnMin= -979.851179574582     IErMin=11 ErrMin= 1.32D-04
 ErrMax= 1.32D-04  0.00D+00 EMaxC= 1.00D+00 BMatC= 5.03D-06 BMatP= 9.50D-06
 IDIUse=1 WtCom= 1.00D+00 WtEn= 0.00D+00
 Coeff-Com: -0.626D-02 0.737D-02 0.406D-01-0.798D-01-0.365D-01 0.237D+00
 Coeff-Com:  0.385D+00-0.791D+00-0.111D+01 0.803D+00 0.155D+01
 Coeff:     -0.626D-02 0.737D-02 0.406D-01-0.798D-01-0.365D-01 0.237D+00
 Coeff:      0.385D+00-0.791D+00-0.111D+01 0.803D+00 0.155D+01
 Gap=     0.273 Goal=   None    Shift=    0.500
 Gap=     0.156 Goal=   None    Shift=    0.500
 RMSDP=6.32D-06 MaxDP=2.08D-04 DE=-1.76D-05 OVMax= 1.64D-03

 Cycle  12  Pass 1  IDiag  1:
 E= -979.851188256098     Delta-E=       -0.000008681516 Rises=F Damp=F
 DIIS: error= 1.11D-04 at cycle  12 NSaved=  12.
 NSaved=12 IEnMin=12 EnMin= -979.851188256098     IErMin=12 ErrMin= 1.11D-04
 ErrMax= 1.11D-04  0.00D+00 EMaxC= 1.00D+00 BMatC= 2.60D-06 BMatP= 5.03D-06
 IDIUse=1 WtCom= 1.00D+00 WtEn= 0.00D+00
 Coeff-Com:  0.126D-02-0.406D-02-0.735D-02 0.241D-01-0.735D-01-0.261D-01
 Coeff-Com:  0.189D+00 0.248D+00-0.141D+00-0.114D+01-0.436D+00 0.236D+01
 Coeff:      0.126D-02-0.406D-02-0.735D-02 0.241D-01-0.735D-01-0.261D-01
 Coeff:      0.189D+00 0.248D+00-0.141D+00-0.114D+01-0.436D+00 0.236D+01
 Gap=     0.273 Goal=   None    Shift=    0.500
 Gap=     0.156 Goal=   None    Shift=    0.500
 RMSDP=5.01D-06 MaxDP=1.56D-04 DE=-8.68D-06 OVMax= 1.30D-03

 Cycle  13  Pass 1  IDiag  1:
 E= -979.851192729056     Delta-E=       -0.000004472958 Rises=F Damp=F
 DIIS: error= 9.84D-05 at cycle  13 NSaved=  13.
 NSaved=13 IEnMin=13 EnMin= -979.851192729056     IErMin=13 ErrMin= 9.84D-05
 ErrMax= 9.84D-05  0.00D+00 EMaxC= 1.00D+00 BMatC= 1.48D-06 BMatP= 2.60D-06
 IDIUse=1 WtCom= 1.00D+00 WtEn= 0.00D+00
 Coeff-Com:  0.325D-02-0.450D-02-0.159D-01 0.333D-01 0.898D-02-0.103D+00
 Coeff-Com: -0.169D+00 0.413D+00 0.558D+00-0.570D+00-0.152D+01 0.629D-01
 Coeff-Com:  0.230D+01
 Coeff:      0.325D-02-0.450D-02-0.159D-01 0.333D-01 0.898D-02-0.103D+00
 Coeff:     -0.169D+00 0.413D+00 0.558D+00-0.570D+00-0.152D+01 0.629D-01
 Coeff:      0.230D+01
 Gap=     0.273 Goal=   None    Shift=    0.500
 Gap=     0.156 Goal=   None    Shift=    0.500
 RMSDP=3.76D-06 MaxDP=1.35D-04 DE=-4.47D-06 OVMax= 1.05D-03

 Cycle  14  Pass 1  IDiag  1:
 E= -979.851195042070     Delta-E=       -0.000002313014 Rises=F Damp=F
 DIIS: error= 8.48D-05 at cycle  14 NSaved=  14.
 NSaved=14 IEnMin=14 EnMin= -979.851195042070     IErMin=14 ErrMin= 8.48D-05
 ErrMax= 8.48D-05  0.00D+00 EMaxC= 1.00D+00 BMatC= 7.79D-07 BMatP= 1.48D-06
 IDIUse=1 WtCom= 1.00D+00 WtEn= 0.00D+00
 Coeff-Com:  0.105D-02-0.634D-03-0.290D-02 0.295D-02 0.338D-01-0.328D-01
 Coeff-Com: -0.153D+00 0.678D-01 0.362D+00 0.219D+00-0.844D+00-0.637D+00
 Coeff-Com:  0.121D+00 0.186D+01
 Coeff:      0.105D-02-0.634D-03-0.290D-02 0.295D-02 0.338D-01-0.328D-01
 Coeff:     -0.153D+00 0.678D-01 0.362D+00 0.219D+00-0.844D+00-0.637D+00
 Coeff:      0.121D+00 0.186D+01
 Gap=     0.273 Goal=   None    Shift=    0.500
 Gap=     0.156 Goal=   None    Shift=    0.500
 RMSDP=2.64D-06 MaxDP=1.04D-04 DE=-2.31D-06 OVMax= 8.01D-04

 Cycle  15  Pass 1  IDiag  1:
 E= -979.851196217245     Delta-E=       -0.000001175175 Rises=F Damp=F
 DIIS: error= 7.50D-05 at cycle  15 NSaved=  15.
 NSaved=15 IEnMin=15 EnMin= -979.851196217245     IErMin=15 ErrMin= 7.50D-05
 ErrMax= 7.50D-05  0.00D+00 EMaxC= 1.00D+00 BMatC= 4.43D-07 BMatP= 7.79D-07
 IDIUse=1 WtCom= 1.00D+00 WtEn= 0.00D+00
 Coeff-Com: -0.158D-02 0.251D-02 0.933D-02-0.208D-01 0.792D-02 0.552D-01
 Coeff-Com:  0.507D-01-0.270D+00-0.151D+00 0.444D+00 0.477D+00-0.155D+00
 Coeff-Com: -0.185D+01 0.208D+00 0.219D+01
 Coeff:     -0.158D-02 0.251D-02 0.933D-02-0.208D-01 0.792D-02 0.552D-01
 Coeff:      0.507D-01-0.270D+00-0.151D+00 0.444D+00 0.477D+00-0.155D+00
 Coeff:     -0.185D+01 0.208D+00 0.219D+01
 Gap=     0.273 Goal=   None    Shift=    0.500
 Gap=     0.156 Goal=   None    Shift=    0.500
 RMSDP=2.06D-06 MaxDP=9.77D-05 DE=-1.18D-06 OVMax= 6.65D-04

 Cycle  16  Pass 1  IDiag  1:
 E= -979.851196914538     Delta-E=       -0.000000697293 Rises=F Damp=F
 DIIS: error= 6.66D-05 at cycle  16 NSaved=  16.
 NSaved=16 IEnMin=16 EnMin= -979.851196914538     IErMin=16 ErrMin= 6.66D-05
 ErrMax= 6.66D-05  0.00D+00 EMaxC= 1.00D+00 BMatC= 2.64D-07 BMatP= 4.43D-07
 IDIUse=1 WtCom= 1.00D+00 WtEn= 0.00D+00
 Coeff-Com: -0.105D-02 0.159D-02 0.357D-02-0.817D-02-0.949D-02 0.362D-01
 Coeff-Com:  0.746D-01-0.148D+00-0.137D+00 0.323D-01 0.483D+00 0.252D+00
 Coeff-Com: -0.106D+01-0.398D+00-0.156D-01 0.189D+01
 Coeff:     -0.105D-02 0.159D-02 0.357D-02-0.817D-02-0.949D-02 0.362D-01
 Coeff:      0.746D-01-0.148D+00-0.137D+00 0.323D-01 0.483D+00 0.252D+00
 Coeff:     -0.106D+01-0.398D+00-0.156D-01 0.189D+01
 Gap=     0.273 Goal=   None    Shift=    0.500
 Gap=     0.156 Goal=   None    Shift=    0.500
 RMSDP=1.53D-06 MaxDP=6.33D-05 DE=-6.97D-07 OVMax= 5.54D-04

 Cycle  17  Pass 1  IDiag  1:
 E= -979.851197358053     Delta-E=       -0.000000443515 Rises=F Damp=F
 DIIS: error= 5.72D-05 at cycle  17 NSaved=  17.
 NSaved=17 IEnMin=17 EnMin= -979.851197358053     IErMin=17 ErrMin= 5.72D-05
 ErrMax= 5.72D-05  0.00D+00 EMaxC= 1.00D+00 BMatC= 1.65D-07 BMatP= 2.64D-07
 IDIUse=1 WtCom= 1.00D+00 WtEn= 0.00D+00
 Coeff-Com:  0.618D-03-0.793D-03-0.594D-02 0.119D-01-0.980D-02-0.232D-01
 Coeff-Com: -0.160D-01 0.136D+00 0.103D+00-0.364D+00-0.207D+00 0.341D+00
 Coeff-Com:  0.837D+00-0.257D+00-0.193D+01-0.596D+00 0.298D+01
 Coeff:      0.618D-03-0.793D-03-0.594D-02 0.119D-01-0.980D-02-0.232D-01
 Coeff:     -0.160D-01 0.136D+00 0.103D+00-0.364D+00-0.207D+00 0.341D+00
 Coeff:      0.837D+00-0.257D+00-0.193D+01-0.596D+00 0.298D+01
 Gap=     0.273 Goal=   None    Shift=    0.500
 Gap=     0.156 Goal=   None    Shift=    0.500
 RMSDP=1.44D-06 MaxDP=7.51D-05 DE=-4.44D-07 OVMax= 5.11D-04

 Cycle  18  Pass 1  IDiag  1:
 E= -979.851197687851     Delta-E=       -0.000000329798 Rises=F Damp=F
 DIIS: error= 5.10D-05 at cycle  18 NSaved=  18.
 NSaved=18 IEnMin=18 EnMin= -979.851197687851     IErMin=18 ErrMin= 5.10D-05
 ErrMax= 5.10D-05  0.00D+00 EMaxC= 1.00D+00 BMatC= 1.26D-07 BMatP= 1.65D-07
 IDIUse=1 WtCom= 1.00D+00 WtEn= 0.00D+00
 Coeff-Com:  0.702D-03-0.907D-03-0.329D-02 0.655D-02 0.458D-02-0.196D-01
 Coeff-Com: -0.609D-01 0.102D+00 0.176D+00-0.147D+00-0.431D+00 0.992D-01
 Coeff-Com:  0.569D+00 0.531D+00-0.462D+00-0.267D+01 0.104D+01 0.226D+01
 Coeff:      0.702D-03-0.907D-03-0.329D-02 0.655D-02 0.458D-02-0.196D-01
 Coeff:     -0.609D-01 0.102D+00 0.176D+00-0.147D+00-0.431D+00 0.992D-01
 Coeff:      0.569D+00 0.531D+00-0.462D+00-0.267D+01 0.104D+01 0.226D+01
 Gap=     0.273 Goal=   None    Shift=    0.500
 Gap=     0.156 Goal=   None    Shift=    0.500
 RMSDP=1.23D-06 MaxDP=5.70D-05 DE=-3.30D-07 OVMax= 4.65D-04

 Cycle  19  Pass 1  IDiag  1:
 E= -979.851197932426     Delta-E=       -0.000000244575 Rises=F Damp=F
 DIIS: error= 4.46D-05 at cycle  19 NSaved=  19.
 NSaved=19 IEnMin=19 EnMin= -979.851197932426     IErMin=19 ErrMin= 4.46D-05
 ErrMax= 4.46D-05  0.00D+00 EMaxC= 1.00D+00 BMatC= 9.40D-08 BMatP= 1.26D-07
 IDIUse=1 WtCom= 1.00D+00 WtEn= 0.00D+00
 Coeff-Com:  0.921D-04-0.904D-05 0.342D-03-0.123D-02 0.726D-02 0.976D-03
 Coeff-Com: -0.294D-01-0.193D-01 0.985D-01 0.603D-01-0.226D+00 0.120D-01
 Coeff-Com: -0.174D+00 0.715D+00 0.518D+00-0.210D+01 0.192D+00-0.521D+00
 Coeff-Com:  0.247D+01
 Coeff:      0.921D-04-0.904D-05 0.342D-03-0.123D-02 0.726D-02 0.976D-03
 Coeff:     -0.294D-01-0.193D-01 0.985D-01 0.603D-01-0.226D+00 0.120D-01
 Coeff:     -0.174D+00 0.715D+00 0.518D+00-0.210D+01 0.192D+00-0.521D+00
 Coeff:      0.247D+01
 Gap=     0.273 Goal=   None    Shift=    0.500
 Gap=     0.156 Goal=   None    Shift=    0.500
 RMSDP=1.09D-06 MaxDP=4.99D-05 DE=-2.45D-07 OVMax= 4.22D-04

 Cycle  20  Pass 1  IDiag  1:
 E= -979.851198110751     Delta-E=       -0.000000178325 Rises=F Damp=F
 DIIS: error= 3.84D-05 at cycle  20 NSaved=  20.
 NSaved=20 IEnMin=20 EnMin= -979.851198110751     IErMin=20 ErrMin= 3.84D-05
 ErrMax= 3.84D-05  0.00D+00 EMaxC= 1.00D+00 BMatC= 7.36D-08 BMatP= 9.40D-08
 IDIUse=1 WtCom= 1.00D+00 WtEn= 0.00D+00
 Coeff-Com: -0.307D-03 0.621D-03 0.588D-03-0.217D-02-0.135D-02 0.107D-01
 Coeff-Com:  0.212D-01-0.699D-01 0.492D-02 0.362D-01 0.556D-01 0.107D+00
 Coeff-Com: -0.451D+00 0.320D+00 0.152D+00-0.201D+00 0.734D+00-0.287D+01
 Coeff-Com:  0.915D+00 0.224D+01
 Coeff:     -0.307D-03 0.621D-03 0.588D-03-0.217D-02-0.135D-02 0.107D-01
 Coeff:      0.212D-01-0.699D-01 0.492D-02 0.362D-01 0.556D-01 0.107D+00
 Coeff:     -0.451D+00 0.320D+00 0.152D+00-0.201D+00 0.734D+00-0.287D+01
 Coeff:      0.915D+00 0.224D+01
 Gap=     0.273 Goal=   None    Shift=    0.500
 Gap=     0.156 Goal=   None    Shift=    0.500
 RMSDP=9.54D-07 MaxDP=4.25D-05 DE=-1.78D-07 OVMax= 3.81D-04

 SCF Done:  E(ULC-wHPBE) =  -979.851198111     A.U. after   20 cycles
            NFock= 20  Conv=0.95D-06     -V/T= 2.0048
 <Sx>= 0.0000 <Sy>= 0.0000 <Sz>= 0.5000 <S**2>= 0.7676 S= 0.5087
 <L.S>= 0.000000000000E+00
 KE= 9.751690862405D+02 PE=-6.064389278561D+03 EE= 2.203873040931D+03
 Annihilation of the first spin contaminant:
 S**2 before annihilation     0.7676,   after     0.7503
 Leave Link  502 at Sun Jan 17 15:15:52 2021, MaxMem=  4026531840 cpu:            8317.0 elap:            1042.3
 (Enter /opt/ohpc/pub/libs/gaussian/g16-A.03/sandybridge/g16/l508.exe)
 QCSCF skips out because SCF is already converged.
 Leave Link  508 at Sun Jan 17 15:15:52 2021, MaxMem=  4026531840 cpu:               0.2 elap:               0.0
 (Enter /opt/ohpc/pub/libs/gaussian/g16-A.03/sandybridge/g16/l601.exe)
 Copying SCF densities to generalized density rwf, IOpCl= 1 IROHF=0.

 **********************************************************************

            Population analysis using the SCF density.

 **********************************************************************

 Orbital symmetries:
 Alpha Orbitals:
       Occupied  (A) (A) (A) (A) (A) (A) (A) (A) (A) (A) (A) (A)
                 (A) (A) (A) (A) (A) (A) (A) (A) (A) (A) (A) (A)
                 (A) (A) (A) (A) (A) (A) (A) (A) (A) (A) (A) (A)
                 (A) (A) (A) (A) (A) (A) (A) (A) (A) (A) (A) (A)
                 (A) (A) (A) (A) (A) (A) (A) (A) (A) (A) (A) (A)
                 (A) (A) (A) (A) (A) (A) (A) (A) (A) (A) (A) (A)
                 (A) (A) (A) (A) (A) (A) (A) (A) (A) (A) (A) (A)
                 (A)
       Virtual   (A) (A) (A) (A) (A) (A) (A) (A) (A) (A) (A) (A)
                 (A) (A) (A) (A) (A) (A) (A) (A) (A) (A) (A) (A)
                 (A) (A) (A) (A) (A) (A) (A) (A) (A) (A) (A) (A)
                 (A) (A) (A) (A) (A) (A) (A) (A) (A) (A) (A) (A)
                 (A) (A) (A) (A) (A) (A) (A) (A) (A) (A) (A) (A)
                 (A) (A) (A) (A) (A) (A) (A) (A) (A) (A) (A) (A)
                 (A) (A) (A) (A) (A) (A) (A) (A) (A) (A) (A) (A)
                 (A) (A) (A) (A) (A) (A) (A) (A) (A) (A) (A) (A)
                 (A) (A) (A) (A) (A) (A) (A) (A) (A) (A) (A) (A)
                 (A) (A) (A) (A) (A) (A) (A) (A) (A) (A) (A) (A)
                 (A) (A) (A) (A) (A) (A) (A) (A) (A) (A) (A) (A)
                 (A) (A) (A) (A) (A) (A) (A) (A) (A) (A) (A) (A)
                 (A) (A) (A) (A) (A) (A) (A) (A) (A) (A) (A) (A)
                 (A) (A) (A) (A) (A) (A) (A) (A) (A) (A) (A) (A)
                 (A) (A) (A) (A) (A) (A) (A) (A) (A) (A) (A) (A)
                 (A) (A) (A) (A) (A) (A) (A) (A) (A) (A) (A) (A)
                 (A) (A) (A) (A) (A) (A) (A) (A) (A) (A) (A) (A)
                 (A) (A) (A) (A) (A) (A) (A) (A) (A) (A) (A) (A)
                 (A) (A) (A) (A) (A) (A) (A) (A) (A) (A) (A) (A)
                 (A) (A) (A) (A) (A) (A) (A) (A) (A) (A) (A) (A)
                 (A) (A) (A) (A) (A) (A) (A) (A) (A) (A) (A) (A)
                 (A) (A) (A) (A) (A) (A) (A) (A) (A) (A) (A) (A)
                 (A) (A) (A) (A) (A) (A) (A) (A) (A) (A) (A) (A)
                 (A) (A) (A) (A) (A) (A) (A) (A) (A) (A) (A) (A)
                 (A) (A) (A) (A) (A) (A) (A) (A) (A) (A) (A) (A)
                 (A) (A) (A) (A) (A) (A) (A) (A) (A) (A) (A) (A)
                 (A) (A) (A) (A) (A) (A) (A) (A) (A) (A) (A) (A)
                 (A) (A) (A) (A) (A) (A) (A) (A) (A) (A) (A) (A)
                 (A) (A) (A) (A) (A) (A) (A) (A) (A) (A) (A) (A)
                 (A) (A) (A) (A) (A) (A) (A) (A) (A) (A) (A) (A)
                 (A) (A) (A) (A) (A) (A) (A) (A) (A) (A) (A) (A)
                 (A) (A) (A) (A) (A) (A) (A) (A) (A) (A) (A) (A)
                 (A) (A) (A) (A) (A) (A) (A) (A) (A) (A) (A) (A)
                 (A) (A) (A) (A) (A) (A) (A) (A) (A) (A) (A) (A)
                 (A) (A) (A) (A) (A) (A) (A) (A) (A) (A) (A) (A)
                 (A) (A) (A) (A) (A) (A) (A) (A) (A) (A) (A) (A)
                 (A) (A) (A) (A) (A) (A) (A) (A) (A) (A) (A) (A)
                 (A) (A) (A) (A) (A) (A) (A) (A) (A) (A) (A) (A)
                 (A) (A) (A) (A) (A) (A) (A) (A) (A) (A) (A) (A)
                 (A) (A) (A) (A) (A) (A) (A) (A) (A) (A) (A) (A)
                 (A) (A) (A) (A) (A) (A) (A) (A) (A) (A) (A) (A)
                 (A) (A) (A) (A) (A) (A) (A) (A) (A) (A) (A) (A)
 Beta  Orbitals:
       Occupied  (A) (A) (A) (A) (A) (A) (A) (A) (A) (A) (A) (A)
                 (A) (A) (A) (A) (A) (A) (A) (A) (A) (A) (A) (A)
                 (A) (A) (A) (A) (A) (A) (A) (A) (A) (A) (A) (A)
                 (A) (A) (A) (A) (A) (A) (A) (A) (A) (A) (A) (A)
                 (A) (A) (A) (A) (A) (A) (A) (A) (A) (A) (A) (A)
                 (A) (A) (A) (A) (A) (A) (A) (A) (A) (A) (A) (A)
                 (A) (A) (A) (A) (A) (A) (A) (A) (A) (A) (A) (A)
       Virtual   (A) (A) (A) (A) (A) (A) (A) (A) (A) (A) (A) (A)
                 (A) (A) (A) (A) (A) (A) (A) (A) (A) (A) (A) (A)
                 (A) (A) (A) (A) (A) (A) (A) (A) (A) (A) (A) (A)
                 (A) (A) (A) (A) (A) (A) (A) (A) (A) (A) (A) (A)
                 (A) (A) (A) (A) (A) (A) (A) (A) (A) (A) (A) (A)
                 (A) (A) (A) (A) (A) (A) (A) (A) (A) (A) (A) (A)
                 (A) (A) (A) (A) (A) (A) (A) (A) (A) (A) (A) (A)
                 (A) (A) (A) (A) (A) (A) (A) (A) (A) (A) (A) (A)
                 (A) (A) (A) (A) (A) (A) (A) (A) (A) (A) (A) (A)
                 (A) (A) (A) (A) (A) (A) (A) (A) (A) (A) (A) (A)
                 (A) (A) (A) (A) (A) (A) (A) (A) (A) (A) (A) (A)
                 (A) (A) (A) (A) (A) (A) (A) (A) (A) (A) (A) (A)
                 (A) (A) (A) (A) (A) (A) (A) (A) (A) (A) (A) (A)
                 (A) (A) (A) (A) (A) (A) (A) (A) (A) (A) (A) (A)
                 (A) (A) (A) (A) (A) (A) (A) (A) (A) (A) (A) (A)
                 (A) (A) (A) (A) (A) (A) (A) (A) (A) (A) (A) (A)
                 (A) (A) (A) (A) (A) (A) (A) (A) (A) (A) (A) (A)
                 (A) (A) (A) (A) (A) (A) (A) (A) (A) (A) (A) (A)
                 (A) (A) (A) (A) (A) (A) (A) (A) (A) (A) (A) (A)
                 (A) (A) (A) (A) (A) (A) (A) (A) (A) (A) (A) (A)
                 (A) (A) (A) (A) (A) (A) (A) (A) (A) (A) (A) (A)
                 (A) (A) (A) (A) (A) (A) (A) (A) (A) (A) (A) (A)
                 (A) (A) (A) (A) (A) (A) (A) (A) (A) (A) (A) (A)
                 (A) (A) (A) (A) (A) (A) (A) (A) (A) (A) (A) (A)
                 (A) (A) (A) (A) (A) (A) (A) (A) (A) (A) (A) (A)
                 (A) (A) (A) (A) (A) (A) (A) (A) (A) (A) (A) (A)
                 (A) (A) (A) (A) (A) (A) (A) (A) (A) (A) (A) (A)
                 (A) (A) (A) (A) (A) (A) (A) (A) (A) (A) (A) (A)
                 (A) (A) (A) (A) (A) (A) (A) (A) (A) (A) (A) (A)
                 (A) (A) (A) (A) (A) (A) (A) (A) (A) (A) (A) (A)
                 (A) (A) (A) (A) (A) (A) (A) (A) (A) (A) (A) (A)
                 (A) (A) (A) (A) (A) (A) (A) (A) (A) (A) (A) (A)
                 (A) (A) (A) (A) (A) (A) (A) (A) (A) (A) (A) (A)
                 (A) (A) (A) (A) (A) (A) (A) (A) (A) (A) (A) (A)
                 (A) (A) (A) (A) (A) (A) (A) (A) (A) (A) (A) (A)
                 (A) (A) (A) (A) (A) (A) (A) (A) (A) (A) (A) (A)
                 (A) (A) (A) (A) (A) (A) (A) (A) (A) (A) (A) (A)
                 (A) (A) (A) (A) (A) (A) (A) (A) (A) (A) (A) (A)
                 (A) (A) (A) (A) (A) (A) (A) (A) (A) (A) (A) (A)
                 (A) (A) (A) (A) (A) (A) (A) (A) (A) (A) (A) (A)
                 (A) (A) (A) (A) (A) (A) (A) (A) (A) (A) (A) (A)
                 (A) (A) (A) (A) (A) (A) (A) (A) (A) (A) (A) (A)
                 (A)
 The electronic state is 2-A.
 Alpha  occ. eigenvalues --  -14.32274 -10.17840 -10.17597 -10.17595 -10.13637
 Alpha  occ. eigenvalues --  -10.13261 -10.13260 -10.13049 -10.13049 -10.13002
 Alpha  occ. eigenvalues --  -10.13002 -10.12184 -10.12184 -10.12027 -10.12025
 Alpha  occ. eigenvalues --  -10.11933 -10.11933 -10.11923 -10.11922 -10.10292
 Alpha  occ. eigenvalues --  -10.08781 -10.08779 -10.08119 -10.08059 -10.08046
 Alpha  occ. eigenvalues --   -1.16679  -1.03388  -1.02912  -1.01203  -0.98588
 Alpha  occ. eigenvalues --   -0.94320  -0.93707  -0.91718  -0.91697  -0.91500
 Alpha  occ. eigenvalues --   -0.89809  -0.87519  -0.86652  -0.81499  -0.81272
 Alpha  occ. eigenvalues --   -0.78877  -0.78058  -0.77948  -0.75379  -0.74024
 Alpha  occ. eigenvalues --   -0.73439  -0.72483  -0.72338  -0.68417  -0.67217
 Alpha  occ. eigenvalues --   -0.66649  -0.66455  -0.63825  -0.63778  -0.63425
 Alpha  occ. eigenvalues --   -0.61700  -0.61560  -0.61001  -0.60649  -0.60338
 Alpha  occ. eigenvalues --   -0.60119  -0.59718  -0.58734  -0.57929  -0.57119
 Alpha  occ. eigenvalues --   -0.57073  -0.56129  -0.55045  -0.54500  -0.54230
 Alpha  occ. eigenvalues --   -0.53876  -0.52802  -0.52374  -0.52295  -0.51206
 Alpha  occ. eigenvalues --   -0.49171  -0.48521  -0.46728  -0.46372  -0.46058
 Alpha  occ. eigenvalues --   -0.44897  -0.44816  -0.41769  -0.41150  -0.39200
 Alpha virt. eigenvalues --   -0.11895  -0.11158  -0.11056  -0.08926  -0.08751
 Alpha virt. eigenvalues --   -0.07491  -0.05735  -0.04294  -0.01613  -0.00049
 Alpha virt. eigenvalues --    0.00272   0.01600   0.01704   0.02434   0.02552
 Alpha virt. eigenvalues --    0.03026   0.03713   0.04440   0.04623   0.04869
 Alpha virt. eigenvalues --    0.05260   0.05328   0.05757   0.06208   0.06459
 Alpha virt. eigenvalues --    0.07515   0.07733   0.07969   0.08521   0.09556
 Alpha virt. eigenvalues --    0.09817   0.10140   0.10362   0.11903   0.11993
 Alpha virt. eigenvalues --    0.12322   0.13084   0.13159   0.13421   0.13528
 Alpha virt. eigenvalues --    0.14436   0.14914   0.15709   0.15756   0.16182
 Alpha virt. eigenvalues --    0.16562   0.16599   0.17049   0.17479   0.17492
 Alpha virt. eigenvalues --    0.17713   0.17858   0.18301   0.18553   0.19415
 Alpha virt. eigenvalues --    0.19622   0.19863   0.20329   0.20933   0.21082
 Alpha virt. eigenvalues --    0.21180   0.21492   0.21507   0.21902   0.22353
 Alpha virt. eigenvalues --    0.22818   0.23483   0.23670   0.24325   0.25050
 Alpha virt. eigenvalues --    0.25225   0.25237   0.25685   0.25825   0.26763
 Alpha virt. eigenvalues --    0.27586   0.27759   0.28417   0.28968   0.29026
 Alpha virt. eigenvalues --    0.29471   0.29824   0.29990   0.30802   0.31351
 Alpha virt. eigenvalues --    0.31754   0.31798   0.32168   0.32340   0.32475
 Alpha virt. eigenvalues --    0.32704   0.33179   0.34078   0.34232   0.34468
 Alpha virt. eigenvalues --    0.34812   0.35735   0.35933   0.36422   0.36660
 Alpha virt. eigenvalues --    0.36787   0.36841   0.37216   0.37826   0.38220
 Alpha virt. eigenvalues --    0.38328   0.38871   0.39355   0.39554   0.39661
 Alpha virt. eigenvalues --    0.39710   0.40283   0.41024   0.41330   0.41609
 Alpha virt. eigenvalues --    0.41725   0.42013   0.42567   0.43008   0.43214
 Alpha virt. eigenvalues --    0.43816   0.43923   0.44395   0.44937   0.45196
 Alpha virt. eigenvalues --    0.45755   0.46521   0.46589   0.46906   0.47876
 Alpha virt. eigenvalues --    0.48525   0.48725   0.48743   0.48968   0.50293
 Alpha virt. eigenvalues --    0.50889   0.51050   0.53100   0.53676   0.54158
 Alpha virt. eigenvalues --    0.55020   0.55582   0.56826   0.56915   0.58345
 Alpha virt. eigenvalues --    0.59251   0.59420   0.60516   0.60950   0.61614
 Alpha virt. eigenvalues --    0.61712   0.62006   0.62172   0.62505   0.63400
 Alpha virt. eigenvalues --    0.64047   0.64796   0.65157   0.65488   0.65728
 Alpha virt. eigenvalues --    0.66942   0.67832   0.69158   0.69161   0.70362
 Alpha virt. eigenvalues --    0.70441   0.70980   0.72670   0.74739   0.76352
 Alpha virt. eigenvalues --    0.76372   0.77908   0.78232   0.78583   0.83547
 Alpha virt. eigenvalues --    0.84337   0.85119   0.86571   1.03737   1.05833
 Alpha virt. eigenvalues --    1.06216   1.10397   1.10964   1.12494   1.13156
 Alpha virt. eigenvalues --    1.13255   1.14159   1.14454   1.15755   1.15900
 Alpha virt. eigenvalues --    1.16164   1.16750   1.17000   1.17910   1.17930
 Alpha virt. eigenvalues --    1.18413   1.18796   1.19415   1.19418   1.19754
 Alpha virt. eigenvalues --    1.20109   1.20788   1.20981   1.21326   1.21432
 Alpha virt. eigenvalues --    1.22349   1.22522   1.22990   1.23548   1.23795
 Alpha virt. eigenvalues --    1.24021   1.24558   1.24653   1.25080   1.25942
 Alpha virt. eigenvalues --    1.25960   1.26432   1.28270   1.31624   1.32015
 Alpha virt. eigenvalues --    1.32615   1.33069   1.33590   1.33892   1.34074
 Alpha virt. eigenvalues --    1.34262   1.34265   1.34953   1.35177   1.35407
 Alpha virt. eigenvalues --    1.35744   1.36307   1.36620   1.36922   1.37202
 Alpha virt. eigenvalues --    1.37411   1.38178   1.38282   1.38553   1.38665
 Alpha virt. eigenvalues --    1.39597   1.39903   1.40119   1.40568   1.41388
 Alpha virt. eigenvalues --    1.41470   1.41788   1.41926   1.42145   1.42470
 Alpha virt. eigenvalues --    1.42854   1.44223   1.44539   1.44572   1.45080
 Alpha virt. eigenvalues --    1.45296   1.45301   1.45926   1.46580   1.46952
 Alpha virt. eigenvalues --    1.47314   1.47320   1.47469   1.48180   1.48258
 Alpha virt. eigenvalues --    1.48714   1.48925   1.50272   1.50480   1.52010
 Alpha virt. eigenvalues --    1.52571   1.54853   1.56310   1.56458   1.57685
 Alpha virt. eigenvalues --    1.57917   1.58928   1.60310   1.60639   1.64469
 Alpha virt. eigenvalues --    1.65297   1.65488   1.66422   1.66597   1.67530
 Alpha virt. eigenvalues --    1.67691   1.68406   1.68805   1.68966   1.69423
 Alpha virt. eigenvalues --    1.70122   1.71039   1.71225   1.71524   1.71561
 Alpha virt. eigenvalues --    1.71859   1.72356   1.73488   1.73868   1.74132
 Alpha virt. eigenvalues --    1.75645   1.77076   1.77727   1.78120   1.78534
 Alpha virt. eigenvalues --    1.78821   1.80571   1.80804   1.81109   1.81144
 Alpha virt. eigenvalues --    1.81505   1.81603   1.81648   1.82060   1.82532
 Alpha virt. eigenvalues --    1.82591   1.82849   1.82967   1.83552   1.83730
 Alpha virt. eigenvalues --    1.84279   1.84912   1.86509   1.87141   1.87526
 Alpha virt. eigenvalues --    1.87683   1.88373   1.88585   1.89170   1.89579
 Alpha virt. eigenvalues --    1.90636   1.92035   1.92508   1.93138   1.93623
 Alpha virt. eigenvalues --    1.94444   1.95089   1.96378   1.97567   2.00223
 Alpha virt. eigenvalues --    2.00576   2.01884   2.02843   2.03744   2.08050
 Alpha virt. eigenvalues --    2.08055   2.10440   2.11496   2.12221   2.14948
 Alpha virt. eigenvalues --    2.16230   2.18370   2.18488   2.19144   2.19536
 Alpha virt. eigenvalues --    2.19659   2.19855   2.20283   2.20584   2.20953
 Alpha virt. eigenvalues --    2.21202   2.22598   2.22851   2.23510   2.24031
 Alpha virt. eigenvalues --    2.24758   2.25267   2.25394   2.25755   2.26096
 Alpha virt. eigenvalues --    2.26105   2.26501   2.26726   2.27020   2.27587
 Alpha virt. eigenvalues --    2.29355   2.30310   2.32792   2.33876   2.34358
 Alpha virt. eigenvalues --    2.38958   2.39143   2.40400   2.40802   2.41324
 Alpha virt. eigenvalues --    2.41742   2.42301   2.42592   2.43849   2.44335
 Alpha virt. eigenvalues --    2.44498   2.46120   2.46294   2.48215   2.48704
 Alpha virt. eigenvalues --    2.51895   2.52231   2.52942   2.53095   2.53720
 Alpha virt. eigenvalues --    2.54033   2.54967   2.55345   2.55793   2.56251
 Alpha virt. eigenvalues --    2.57003   2.57181   2.57207   2.60276   2.61717
 Alpha virt. eigenvalues --    2.62878   2.62966   2.63105   2.64155   2.64641
 Alpha virt. eigenvalues --    2.66526   2.66539   2.68375   2.70682   2.71938
 Alpha virt. eigenvalues --    2.73102   2.73351   2.73450   2.74036   2.75107
 Alpha virt. eigenvalues --    2.79016   2.83242   2.83765   2.86865   2.88191
 Alpha virt. eigenvalues --    2.90737   2.91074   2.91841   2.92175   2.92866
 Alpha virt. eigenvalues --    2.93623   2.94408   2.94765   2.95882   2.96278
 Alpha virt. eigenvalues --    2.97340   2.98882   2.99333   3.00726   3.01000
 Alpha virt. eigenvalues --    3.02879   3.04023   3.05485   3.05804   3.05949
 Alpha virt. eigenvalues --    3.06509   3.08069   3.09019   3.09077   3.10131
 Alpha virt. eigenvalues --    3.10876   3.12434   3.12569   3.16822   3.18800
 Alpha virt. eigenvalues --    3.21372   3.22039   3.22471   3.26002   3.26422
 Alpha virt. eigenvalues --    3.29009   3.29880   3.32252   3.32629   3.41285
 Alpha virt. eigenvalues --    3.43180   3.44269   3.45905   3.46643   3.48096
 Alpha virt. eigenvalues --    3.66023   3.71931   3.78280   3.78882  20.98276
 Alpha virt. eigenvalues --   21.06955  21.08723  21.21027  21.50572  21.54606
 Alpha virt. eigenvalues --   21.57467  21.57474  21.60563  21.60762  21.66430
 Alpha virt. eigenvalues --   21.73100  21.76734  21.80887  21.82582  21.83246
 Alpha virt. eigenvalues --   21.84407  21.86785  21.88629  21.89864  21.94577
 Alpha virt. eigenvalues --   21.98410  22.00199  22.01282  31.84480
  Beta  occ. eigenvalues --  -14.31459 -10.17852 -10.17644 -10.17642 -10.13449
  Beta  occ. eigenvalues --  -10.13125 -10.13123 -10.12912 -10.12912 -10.12869
  Beta  occ. eigenvalues --  -10.12868 -10.12078 -10.12076 -10.12040 -10.12040
  Beta  occ. eigenvalues --  -10.11987 -10.11987 -10.11970 -10.11970 -10.10309
  Beta  occ. eigenvalues --  -10.08744 -10.08742 -10.08096 -10.08073 -10.08043
  Beta  occ. eigenvalues --   -1.15631  -1.03155  -1.02717  -1.00935  -0.98478
  Beta  occ. eigenvalues --   -0.94097  -0.93512  -0.91572  -0.91546  -0.91356
  Beta  occ. eigenvalues --   -0.89488  -0.87481  -0.86384  -0.81245  -0.81033
  Beta  occ. eigenvalues --   -0.78630  -0.77897  -0.77831  -0.75218  -0.73966
  Beta  occ. eigenvalues --   -0.73356  -0.72310  -0.72184  -0.68304  -0.67085
  Beta  occ. eigenvalues --   -0.66399  -0.65772  -0.63701  -0.63673  -0.63334
  Beta  occ. eigenvalues --   -0.61622  -0.61422  -0.60869  -0.60518  -0.60229
  Beta  occ. eigenvalues --   -0.60050  -0.59589  -0.58693  -0.57302  -0.56776
  Beta  occ. eigenvalues --   -0.56655  -0.56014  -0.54964  -0.54136  -0.53903
  Beta  occ. eigenvalues --   -0.53643  -0.52601  -0.52278  -0.52195  -0.50224
  Beta  occ. eigenvalues --   -0.49128  -0.48381  -0.45708  -0.45707  -0.45413
  Beta  occ. eigenvalues --   -0.44422  -0.44372  -0.41068  -0.40083
  Beta virt. eigenvalues --   -0.24467  -0.11221  -0.10785  -0.10525  -0.08435
  Beta virt. eigenvalues --   -0.08337  -0.06608  -0.05638  -0.03818  -0.01518
  Beta virt. eigenvalues --    0.00019   0.00350   0.01658   0.01763   0.02504
  Beta virt. eigenvalues --    0.02593   0.03081   0.03820   0.04583   0.04723
  Beta virt. eigenvalues --    0.05117   0.05432   0.05447   0.05795   0.06285
  Beta virt. eigenvalues --    0.06690   0.07577   0.07773   0.08101   0.08807
  Beta virt. eigenvalues --    0.09667   0.09858   0.10261   0.10441   0.12007
  Beta virt. eigenvalues --    0.12167   0.12457   0.13210   0.13343   0.13535
  Beta virt. eigenvalues --    0.13656   0.14544   0.14995   0.15848   0.15904
  Beta virt. eigenvalues --    0.16320   0.16697   0.16731   0.17173   0.17539
  Beta virt. eigenvalues --    0.17574   0.17753   0.17932   0.18399   0.18645
  Beta virt. eigenvalues --    0.19464   0.19682   0.19952   0.20366   0.21008
  Beta virt. eigenvalues --    0.21188   0.21245   0.21550   0.21678   0.21997
  Beta virt. eigenvalues --    0.22463   0.22966   0.23682   0.23860   0.24399
  Beta virt. eigenvalues --    0.25171   0.25340   0.25397   0.25807   0.25989
  Beta virt. eigenvalues --    0.26925   0.27727   0.27989   0.28553   0.29079
  Beta virt. eigenvalues --    0.29113   0.29628   0.29990   0.30139   0.30946
  Beta virt. eigenvalues --    0.31461   0.31843   0.31939   0.32301   0.32443
  Beta virt. eigenvalues --    0.32607   0.32838   0.33330   0.34228   0.34335
  Beta virt. eigenvalues --    0.34616   0.34943   0.35822   0.36085   0.36440
  Beta virt. eigenvalues --    0.36756   0.36818   0.36936   0.37283   0.37918
  Beta virt. eigenvalues --    0.38266   0.38416   0.38967   0.39449   0.39688
  Beta virt. eigenvalues --    0.39743   0.39799   0.40424   0.41084   0.41412
  Beta virt. eigenvalues --    0.41691   0.41781   0.42124   0.42683   0.43153
  Beta virt. eigenvalues --    0.43290   0.43948   0.43995   0.44518   0.45039
  Beta virt. eigenvalues --    0.45295   0.45845   0.46574   0.46655   0.46996
  Beta virt. eigenvalues --    0.47958   0.48619   0.48826   0.48856   0.49090
  Beta virt. eigenvalues --    0.50422   0.50995   0.51171   0.53187   0.53766
  Beta virt. eigenvalues --    0.54297   0.55159   0.55684   0.56918   0.57008
  Beta virt. eigenvalues --    0.58463   0.59338   0.59533   0.60620   0.61063
  Beta virt. eigenvalues --    0.61704   0.61896   0.62079   0.62273   0.62642
  Beta virt. eigenvalues --    0.63458   0.64137   0.64924   0.65218   0.65601
  Beta virt. eigenvalues --    0.65786   0.67031   0.67995   0.69232   0.69285
  Beta virt. eigenvalues --    0.70447   0.70531   0.71085   0.73042   0.75161
  Beta virt. eigenvalues --    0.76444   0.76806   0.78016   0.78326   0.78700
  Beta virt. eigenvalues --    0.83671   0.84433   0.85232   0.86760   1.03844
  Beta virt. eigenvalues --    1.05921   1.06310   1.10533   1.11061   1.12641
  Beta virt. eigenvalues --    1.13313   1.13420   1.14248   1.14561   1.15921
  Beta virt. eigenvalues --    1.16022   1.16320   1.16930   1.17171   1.18069
  Beta virt. eigenvalues --    1.18112   1.18523   1.18898   1.19527   1.19543
  Beta virt. eigenvalues --    1.19826   1.20184   1.20936   1.21110   1.21465
  Beta virt. eigenvalues --    1.21525   1.22423   1.22657   1.23074   1.23796
  Beta virt. eigenvalues --    1.23892   1.24115   1.24596   1.24845   1.25274
  Beta virt. eigenvalues --    1.25994   1.26001   1.26582   1.28349   1.31916
  Beta virt. eigenvalues --    1.32225   1.32748   1.33535   1.33690   1.34176
  Beta virt. eigenvalues --    1.34276   1.34402   1.34510   1.35285   1.35296
  Beta virt. eigenvalues --    1.35464   1.35846   1.36410   1.36751   1.37144
  Beta virt. eigenvalues --    1.37440   1.37611   1.38280   1.38338   1.38538
  Beta virt. eigenvalues --    1.38800   1.39670   1.40014   1.40272   1.40709
  Beta virt. eigenvalues --    1.41559   1.41675   1.41907   1.41997   1.42387
  Beta virt. eigenvalues --    1.42623   1.42925   1.44305   1.44609   1.44642
  Beta virt. eigenvalues --    1.45247   1.45436   1.45491   1.46007   1.46744
  Beta virt. eigenvalues --    1.47212   1.47476   1.47535   1.47608   1.48345
  Beta virt. eigenvalues --    1.48468   1.48854   1.49011   1.50494   1.50628
  Beta virt. eigenvalues --    1.52176   1.52772   1.55000   1.56493   1.56632
  Beta virt. eigenvalues --    1.57822   1.58003   1.59008   1.60447   1.60726
  Beta virt. eigenvalues --    1.64662   1.65526   1.65748   1.66723   1.66933
  Beta virt. eigenvalues --    1.67708   1.68004   1.68387   1.68978   1.69071
  Beta virt. eigenvalues --    1.69586   1.70222   1.71208   1.71275   1.71660
  Beta virt. eigenvalues --    1.71714   1.72038   1.72457   1.73707   1.73952
  Beta virt. eigenvalues --    1.74299   1.75952   1.77231   1.77939   1.78338
  Beta virt. eigenvalues --    1.78746   1.78990   1.80730   1.80956   1.81213
  Beta virt. eigenvalues --    1.81240   1.81645   1.81720   1.81781   1.82204
  Beta virt. eigenvalues --    1.82617   1.82736   1.82972   1.83035   1.83664
  Beta virt. eigenvalues --    1.83973   1.84367   1.85014   1.86591   1.87287
  Beta virt. eigenvalues --    1.87687   1.87806   1.88587   1.88766   1.89311
  Beta virt. eigenvalues --    1.89849   1.90835   1.92218   1.92595   1.93427
  Beta virt. eigenvalues --    1.93751   1.94649   1.95182   1.96571   1.97783
  Beta virt. eigenvalues --    2.00443   2.00673   2.02106   2.02972   2.04107
  Beta virt. eigenvalues --    2.08348   2.08370   2.11100   2.11939   2.12811
  Beta virt. eigenvalues --    2.15405   2.16390   2.18531   2.18770   2.19320
  Beta virt. eigenvalues --    2.19844   2.19946   2.20070   2.20462   2.20819
  Beta virt. eigenvalues --    2.21130   2.21414   2.22854   2.23165   2.23744
  Beta virt. eigenvalues --    2.24299   2.25020   2.25434   2.25552   2.25959
  Beta virt. eigenvalues --    2.26284   2.26302   2.26654   2.27006   2.27164
  Beta virt. eigenvalues --    2.27738   2.29415   2.30549   2.33093   2.34070
  Beta virt. eigenvalues --    2.34871   2.39100   2.39343   2.40456   2.40829
  Beta virt. eigenvalues --    2.41548   2.41956   2.42362   2.42637   2.43959
  Beta virt. eigenvalues --    2.44503   2.44901   2.46192   2.46517   2.48445
  Beta virt. eigenvalues --    2.49145   2.52113   2.52486   2.53203   2.53377
  Beta virt. eigenvalues --    2.53863   2.54188   2.55165   2.55871   2.55898
  Beta virt. eigenvalues --    2.56549   2.57116   2.57370   2.57420   2.60321
  Beta virt. eigenvalues --    2.61858   2.63238   2.63383   2.63456   2.64482
  Beta virt. eigenvalues --    2.64975   2.66896   2.67272   2.68447   2.70796
[...]
    40  H(1)              -0.00116      -5.20182      -1.85614      -1.73514
    41  H(1)              -0.00115      -5.14109      -1.83447      -1.71488
    42  H(1)               0.00075       3.36795       1.20177       1.12343
    43  H(1)               0.00082       3.67932       1.31287       1.22729
    44  H(1)              -0.00166      -7.40861      -2.64358      -2.47125
 --------------------------------------------------------
       Center         ----  Spin Dipole Couplings  ----
                      3XX-RR        3YY-RR        3ZZ-RR
 --------------------------------------------------------
     1   Atom        0.006957      0.004586     -0.011544
     2   Atom       -0.015369     -0.017475      0.032844
     3   Atom       -0.011019     -0.013425      0.024444
     4   Atom        0.006957      0.004587     -0.011544
     5   Atom        0.005379      0.003725     -0.009104
     6   Atom       -0.011021     -0.013429      0.024450
     7   Atom        0.002610     -0.002289     -0.000321
     8   Atom       -0.000207      0.001685     -0.001478
     9   Atom        0.000753     -0.000014     -0.000739
    10   Atom       -0.000207      0.001685     -0.001478
    11   Atom       -0.074896     -0.003813      0.078710
    12   Atom        0.019991     -0.002389     -0.017602
    13   Atom        0.019983     -0.002383     -0.017601
    14   Atom       -0.054191      0.056516     -0.002324
    15   Atom       -0.054190      0.056528     -0.002337
    16   Atom       -0.000416     -0.023249      0.023665
    17   Atom        0.001480     -0.000675     -0.000805
    18   Atom        0.001479     -0.000675     -0.000804
    19   Atom       -0.003089      0.002620      0.000469
    20   Atom       -0.003088      0.002619      0.000469
    21   Atom        0.000753     -0.000014     -0.000739
    22   Atom       -0.501795     -0.502149      1.003944
    23   Atom       -0.010525      0.004757      0.005769
    24   Atom        0.042417     -0.040441     -0.001975
    25   Atom        0.015053     -0.010564     -0.004488
    26   Atom        0.003552      0.014360     -0.017913
    27   Atom        0.000519      0.017849     -0.018368
    28   Atom       -0.013617     -0.045031      0.058648
    29   Atom        0.000260     -0.000458      0.000198
    30   Atom        0.001806     -0.002145      0.000339
    31   Atom       -0.000585      0.001476     -0.000892
    32   Atom        0.000132      0.000816     -0.000948
    33   Atom       -0.001788      0.005649     -0.003861
    34   Atom       -0.010495      0.004733      0.005762
    35   Atom        0.042343     -0.040428     -0.001915
    36   Atom        0.015025     -0.010545     -0.004480
    37   Atom        0.003567      0.014358     -0.017925
    38   Atom        0.000539      0.017845     -0.018384
    39   Atom       -0.013676     -0.045017      0.058693
    40   Atom        0.000263     -0.000460      0.000196
    41   Atom        0.001810     -0.002147      0.000338
    42   Atom       -0.000584      0.001476     -0.000893
    43   Atom        0.000133      0.000816     -0.000948
    44   Atom       -0.001790      0.005650     -0.003859
 --------------------------------------------------------
                        XY            XZ            YZ
 --------------------------------------------------------
     1   Atom       -0.000080      0.001350      0.000057
     2   Atom        0.000000     -0.000001     -0.000899
     3   Atom       -0.002658      0.008854     -0.007153
     4   Atom        0.000079     -0.001348      0.000057
     5   Atom       -0.000000     -0.000000      0.005974
     6   Atom        0.002658     -0.008859     -0.007154
     7   Atom       -0.000000      0.000000     -0.000088
     8   Atom        0.000074     -0.000099     -0.000639
     9   Atom       -0.000081     -0.000059      0.000083
    10   Atom       -0.000075      0.000099     -0.000639
    11   Atom       -0.000012     -0.000018      0.110662
    12   Atom        0.001735      0.002839     -0.025548
    13   Atom       -0.001734     -0.002835     -0.025535
    14   Atom        0.015661      0.006804      0.076262
    15   Atom       -0.015680     -0.006815      0.076254
    16   Atom        0.000017      0.000034      0.008466
    17   Atom       -0.000321      0.000465     -0.001900
    18   Atom        0.000320     -0.000464     -0.001901
    19   Atom       -0.001201      0.001788     -0.005736
    20   Atom        0.001203     -0.001790     -0.005736
    21   Atom        0.000081      0.000060      0.000083
    22   Atom        0.000001      0.000092      0.013245
    23   Atom        0.016356     -0.009432      0.008384
    24   Atom       -0.036381      0.067754     -0.029833
    25   Atom       -0.056270      0.060912     -0.043549
    26   Atom        0.012868     -0.023829      0.016609
    27   Atom        0.011669     -0.027246      0.012859
    28   Atom       -0.027293      0.080842     -0.046852
    29   Atom       -0.002561     -0.003645      0.004008
    30   Atom       -0.001167     -0.005352      0.001118
    31   Atom        0.000995     -0.001005      0.001016
    32   Atom        0.001530     -0.001358      0.000328
    33   Atom        0.006484      0.003196     -0.001873
    34   Atom       -0.016370      0.009405      0.008440
    35   Atom        0.036384     -0.067775     -0.029865
    36   Atom        0.056283     -0.060909     -0.043570
    37   Atom       -0.012868      0.023826      0.016622
    38   Atom       -0.011667      0.027236      0.012868
    39   Atom        0.027294     -0.080817     -0.046885
    40   Atom        0.002562      0.003646      0.004007
    41   Atom        0.001165      0.005353      0.001115
    42   Atom       -0.000995      0.001004      0.001017
    43   Atom       -0.001530      0.001357      0.000329
    44   Atom       -0.006485     -0.003198     -0.001870
 --------------------------------------------------------


 ---------------------------------------------------------------------------------
              Anisotropic Spin Dipole Couplings in Principal Axis System
 ---------------------------------------------------------------------------------

       Atom             a.u.   MegaHertz   Gauss  10(-4) cm-1        Axes

              Baa    -0.0116    -1.562    -0.557    -0.521 -0.0724 -0.0038  0.9974
     1 C(13)  Bbb     0.0046     0.615     0.220     0.205  0.0301  0.9995  0.0060
              Bcc     0.0071     0.947     0.338     0.316  0.9969 -0.0304  0.0722
 
              Baa    -0.0175    -2.347    -0.838    -0.783 -0.0000  0.9998  0.0179
     2 C(13)  Bbb    -0.0154    -2.062    -0.736    -0.688  1.0000  0.0000  0.0000
              Bcc     0.0329     4.410     1.573     1.471 -0.0000 -0.0179  0.9998
 
              Baa    -0.0152    -2.043    -0.729    -0.681  0.4294  0.9007  0.0666
     3 C(13)  Bbb    -0.0127    -1.704    -0.608    -0.568  0.8734 -0.3954 -0.2843
              Bcc     0.0279     3.747     1.337     1.250  0.2298 -0.1802  0.9564
 
              Baa    -0.0116    -1.562    -0.557    -0.521  0.0723 -0.0039  0.9974
     4 C(13)  Bbb     0.0046     0.615     0.220     0.205 -0.0300  0.9995  0.0061
              Bcc     0.0071     0.947     0.338     0.316  0.9969  0.0303 -0.0721
 
              Baa    -0.0115    -1.537    -0.548    -0.513  0.0000 -0.3662  0.9305
     5 C(13)  Bbb     0.0054     0.722     0.258     0.241  1.0000  0.0001  0.0000
              Bcc     0.0061     0.815     0.291     0.272 -0.0001  0.9305  0.3662
 
              Baa    -0.0152    -2.043    -0.729    -0.681 -0.4294  0.9007  0.0665
     6 C(13)  Bbb    -0.0127    -1.705    -0.608    -0.569  0.8734  0.3953  0.2844
              Bcc     0.0279     3.748     1.337     1.250 -0.2298 -0.1802  0.9564
 
              Baa    -0.0023    -1.223    -0.436    -0.408  0.0000  0.9990  0.0444
     7 H(1)   Bbb    -0.0003    -0.169    -0.060    -0.056 -0.0000 -0.0444  0.9990
              Bcc     0.0026     1.392     0.497     0.464  1.0000 -0.0000  0.0000
 
              Baa    -0.0016    -0.858    -0.306    -0.286  0.0594  0.1889  0.9802
     8 H(1)   Bbb    -0.0002    -0.110    -0.039    -0.037  0.9972 -0.0560 -0.0496
              Bcc     0.0018     0.967     0.345     0.323  0.0455  0.9804 -0.1917
 
              Baa    -0.0008    -0.400    -0.143    -0.133  0.0335 -0.1078  0.9936
     9 H(1)   Bbb    -0.0000    -0.008    -0.003    -0.003  0.1125  0.9883  0.1034
              Bcc     0.0008     0.408     0.146     0.136  0.9931 -0.1084 -0.0452
 
              Baa    -0.0016    -0.858    -0.306    -0.286 -0.0594  0.1889  0.9802
    10 H(1)   Bbb    -0.0002    -0.110    -0.039    -0.037  0.9972  0.0561  0.0496
              Bcc     0.0018     0.968     0.345     0.323 -0.0456  0.9804 -0.1917
 
              Baa    -0.0807   -10.823    -3.862    -3.610 -0.0000  0.8214 -0.5704
    11 C(13)  Bbb    -0.0749   -10.050    -3.586    -3.352  1.0000  0.0001  0.0001
              Bcc     0.1556    20.874     7.448     6.963 -0.0001  0.5704  0.8214
 
              Baa    -0.0368    -4.944    -1.764    -1.649 -0.0582  0.5965  0.8005
    12 C(13)  Bbb     0.0166     2.232     0.797     0.745  0.0855  0.8019 -0.5913
              Bcc     0.0202     2.712     0.968     0.905  0.9946 -0.0340  0.0977
 
              Baa    -0.0368    -4.942    -1.763    -1.649  0.0582  0.5964  0.8006
    13 C(13)  Bbb     0.0166     2.231     0.796     0.744 -0.0851  0.8020 -0.5913
              Bcc     0.0202     2.711     0.967     0.904  0.9947  0.0338 -0.0974
 
              Baa    -0.0586    -7.859    -2.804    -2.621  0.7676 -0.4234  0.4812
    14 C(13)  Bbb    -0.0520    -6.975    -2.489    -2.327 -0.6329 -0.3820  0.6734
              Bcc     0.1105    14.834     5.293     4.948  0.1013  0.8215  0.5612
 
              Baa    -0.0586    -7.859    -2.804    -2.621  0.7678  0.4232 -0.4809
    15 C(13)  Bbb    -0.0520    -6.975    -2.489    -2.327  0.6326 -0.3821  0.6737
              Bcc     0.1105    14.834     5.293     4.948 -0.1014  0.8215  0.5611
 
              Baa    -0.0247    -3.319    -1.184    -1.107 -0.0005  0.9850 -0.1723
    16 C(13)  Bbb    -0.0004    -0.056    -0.020    -0.019  1.0000  0.0002 -0.0015
              Bcc     0.0251     3.374     1.204     1.126  0.0014  0.1723  0.9850
 
              Baa    -0.0026    -1.411    -0.503    -0.471 -0.0276  0.6918  0.7216
    17 H(1)   Bbb     0.0007     0.398     0.142     0.133  0.6000  0.5888 -0.5416
              Bcc     0.0019     1.013     0.361     0.338  0.7995 -0.4180  0.4313
 
              Baa    -0.0026    -1.411    -0.503    -0.471  0.0275  0.6918  0.7215
    18 H(1)   Bbb     0.0007     0.398     0.142     0.133  0.6004 -0.5885  0.5414
              Bcc     0.0019     1.013     0.361     0.338  0.7992  0.4184 -0.4316
 
              Baa    -0.0046    -2.460    -0.878    -0.820 -0.4615  0.5031  0.7307
    19 H(1)   Bbb    -0.0032    -1.688    -0.602    -0.563  0.8671  0.4298  0.2518
              Bcc     0.0078     4.148     1.480     1.384 -0.1873  0.7498 -0.6346
 
              Baa    -0.0046    -2.460    -0.878    -0.820  0.4616  0.5030  0.7307
    20 H(1)   Bbb    -0.0032    -1.689    -0.603    -0.563  0.8670 -0.4300 -0.2517
              Bcc     0.0078     4.148     1.480     1.384  0.1876  0.7498 -0.6346
 
              Baa    -0.0008    -0.400    -0.143    -0.133 -0.0336 -0.1078  0.9936
    21 H(1)   Bbb    -0.0000    -0.008    -0.003    -0.003 -0.1126  0.9882  0.1034
              Bcc     0.0008     0.408     0.146     0.136  0.9931  0.1084  0.0453
 
              Baa    -0.5023   -19.371    -6.912    -6.462 -0.0012  1.0000 -0.0088
    22 N(14)  Bbb    -0.5018   -19.353    -6.906    -6.456  1.0000  0.0012 -0.0001
              Bcc     1.0041    38.724    13.818    12.917  0.0001  0.0088  1.0000
 
              Baa    -0.0259    -3.470    -1.238    -1.158  0.7748 -0.5145  0.3674
    23 C(13)  Bbb     0.0100     1.343     0.479     0.448 -0.4786 -0.0975  0.8726
              Bcc     0.0159     2.128     0.759     0.710  0.4131  0.8519  0.3218
 
              Baa    -0.0567    -7.611    -2.716    -2.539 -0.0306  0.8613  0.5072
    24 C(13)  Bbb    -0.0498    -6.684    -2.385    -2.230 -0.6396 -0.4068  0.6522
              Bcc     0.1065    14.295     5.101     4.768  0.7681 -0.3045  0.5633
 
              Baa    -0.0580    -7.785    -2.778    -2.597  0.7497  0.4187 -0.5125
    25 C(13)  Bbb    -0.0512    -6.866    -2.450    -2.290  0.0315  0.7510  0.6596
              Bcc     0.1092    14.651     5.228     4.887  0.6610 -0.5106  0.5498
 
              Baa    -0.0412    -5.530    -1.973    -1.845  0.5167 -0.3528  0.7801
    26 C(13)  Bbb     0.0183     2.450     0.874     0.817  0.6952 -0.3589 -0.6228
              Bcc     0.0230     3.080     1.099     1.027  0.4997  0.8641  0.0598
 
              Baa    -0.0427    -5.727    -2.044    -1.910  0.5649 -0.2742  0.7782
    27 C(13)  Bbb     0.0189     2.537     0.905     0.846  0.6484 -0.4358 -0.6243
              Bcc     0.0238     3.190     1.138     1.064  0.5103  0.8573 -0.0684
 
              Baa    -0.0672    -9.018    -3.218    -3.008  0.6909 -0.4091 -0.5961
    28 C(13)  Bbb    -0.0608    -8.161    -2.912    -2.722  0.5065  0.8622 -0.0046
              Bcc     0.1280    17.179     6.130     5.730  0.5158 -0.2987  0.8029
 
              Baa    -0.0043    -2.299    -0.820    -0.767  0.2563 -0.6100  0.7498
    29 H(1)   Bbb    -0.0026    -1.362    -0.486    -0.454  0.7895  0.5796  0.2017
              Bcc     0.0069     3.661     1.306     1.221 -0.5576  0.5403  0.6302
 
              Baa    -0.0043    -2.311    -0.825    -0.771  0.6525 -0.0387  0.7568
    30 H(1)   Bbb    -0.0024    -1.299    -0.463    -0.433  0.1599  0.9832 -0.0877
              Bcc     0.0068     3.610     1.288     1.204  0.7407 -0.1782 -0.6477
 
              Baa    -0.0023    -1.222    -0.436    -0.408  0.6193 -0.3528  0.7014
    31 H(1)   Bbb     0.0003     0.147     0.052     0.049  0.7383 -0.0423 -0.6731
              Bcc     0.0020     1.075     0.384     0.359  0.2672  0.9347  0.2343
 
              Baa    -0.0023    -1.241    -0.443    -0.414  0.6154 -0.3721  0.6948
    32 H(1)   Bbb     0.0002     0.080     0.029     0.027 -0.4089  0.6029  0.6850
              Bcc     0.0022     1.161     0.414     0.387  0.6739  0.7057 -0.2189
 
              Baa    -0.0085    -4.536    -1.619    -1.513  0.6760 -0.3923 -0.6238
    33 H(1)   Bbb    -0.0009    -0.482    -0.172    -0.161  0.5405 -0.3115  0.7816
              Bcc     0.0094     5.018     1.791     1.674  0.5009  0.8655 -0.0015
 
              Baa    -0.0259    -3.471    -1.239    -1.158  0.7740  0.5155 -0.3677
    34 C(13)  Bbb     0.0100     1.339     0.478     0.447  0.4815 -0.1020  0.8705
              Bcc     0.0159     2.132     0.761     0.711 -0.4113  0.8508  0.3271
 
              Baa    -0.0567    -7.611    -2.716    -2.539  0.0309  0.8611  0.5075
    35 C(13)  Bbb    -0.0498    -6.685    -2.385    -2.230  0.6400 -0.4071  0.6517
              Bcc     0.1065    14.296     5.101     4.769  0.7678  0.3046 -0.5637
 
              Baa    -0.0580    -7.786    -2.778    -2.597  0.7498 -0.4191  0.5120
    36 C(13)  Bbb    -0.0512    -6.867    -2.450    -2.291 -0.0311  0.7507  0.6599
              Bcc     0.1092    14.653     5.229     4.888  0.6609  0.5107 -0.5499
 
              Baa    -0.0412    -5.531    -1.974    -1.845 -0.5165 -0.3529  0.7802
    37 C(13)  Bbb     0.0183     2.451     0.874     0.817  0.6955  0.3586  0.6226
              Bcc     0.0230     3.080     1.099     1.028 -0.4995  0.8642  0.0603
 
              Baa    -0.0427    -5.727    -2.043    -1.910 -0.5646 -0.2743  0.7784
    38 C(13)  Bbb     0.0189     2.537     0.905     0.846  0.6486  0.4357  0.6241
              Bcc     0.0238     3.190     1.138     1.064 -0.5103  0.8573 -0.0680
 
              Baa    -0.0672    -9.019    -3.218    -3.008  0.6911  0.4090  0.5959
    39 C(13)  Bbb    -0.0608    -8.161    -2.912    -2.722 -0.5066  0.8622 -0.0043
              Bcc     0.1280    17.180     6.130     5.731 -0.5156 -0.2989  0.8030
 
              Baa    -0.0043    -2.299    -0.820    -0.767 -0.2560 -0.6101  0.7498
    40 H(1)   Bbb    -0.0026    -1.362    -0.486    -0.454  0.7894 -0.5796 -0.2021
              Bcc     0.0069     3.661     1.306     1.221  0.5580  0.5402  0.6300
 
              Baa    -0.0043    -2.312    -0.825    -0.771 -0.6523 -0.0387  0.7569
    41 H(1)   Bbb    -0.0024    -1.299    -0.464    -0.433 -0.1596  0.9833 -0.0873
              Bcc     0.0068     3.611     1.288     1.204  0.7409  0.1778  0.6476
 
              Baa    -0.0023    -1.222    -0.436    -0.408 -0.6189 -0.3529  0.7017
    42 H(1)   Bbb     0.0003     0.146     0.052     0.049  0.7386  0.0423  0.6728
              Bcc     0.0020     1.076     0.384     0.359 -0.2671  0.9347  0.2345
 
              Baa    -0.0023    -1.241    -0.443    -0.414 -0.6152 -0.3723  0.6949
    43 H(1)   Bbb     0.0002     0.081     0.029     0.027  0.4090  0.6028  0.6851
              Bcc     0.0022     1.161     0.414     0.387 -0.6740  0.7057 -0.2186
 
              Baa    -0.0085    -4.536    -1.619    -1.513  0.6762  0.3923  0.6237
    44 H(1)   Bbb    -0.0009    -0.482    -0.172    -0.161 -0.5402 -0.3116  0.7817
              Bcc     0.0094     5.019     1.791     1.674 -0.5009  0.8655 -0.0012
 

 ---------------------------------------------------------------------------------

 No NMR shielding tensors so no spin-rotation constants.
 Leave Link  601 at Sun Jan 17 15:15:54 2021, MaxMem=  4026531840 cpu:               7.1 elap:               1.2
 (Enter /opt/ohpc/pub/libs/gaussian/g16-A.03/sandybridge/g16/l9999.exe)

 Test job not archived.
 1\1\GINC-CASCADEB025\SP\ULC-wHPBE\TZVP\C24H19N1(1+,2)\RDU230\17-Jan-20
 21\0\\#P LC-wHPBE/TZVP iop(3/107=0177900000, 3/108=0177900000) scf=(co
 nver=6,fermi,ndamp=35,noincfock,novaracc,vshift=500,xqc)\\H19 C24 N1\\
 1,2\C,0,6.129184,1.201496,-0.030856\C,0,6.830271,0.000001,0.000182\C,0
 ,4.738958,1.200713,-0.032197\C,0,6.129235,-1.201473,0.031153\C,0,4.021
 751,-0.000032,0.000031\C,0,4.738962,-1.200719,0.032361\H,0,7.919539,0.
 000045,0.00019\H,0,4.198073,2.145454,-0.081149\H,0,6.668779,-2.147537,
 0.063412\H,0,4.198148,-2.145504,0.081256\C,0,2.536892,-0.000014,-0.000
 063\C,0,1.813363,-0.924286,-0.760077\C,0,1.813258,0.92429,0.759786\C,0
 ,0.426027,-0.922473,-0.771159\C,0,0.425899,0.922498,0.770636\C,0,-0.28
 8344,0.000018,-0.000311\H,0,2.347573,-1.638662,-1.38605\H,0,2.34735,1.
 638674,1.385851\H,0,-0.11537,-1.638494,-1.387158\H,0,-0.115571,1.63857
 8,1.386504\H,0,6.668762,2.147543,-0.063006\N,0,-1.704382,-0.000003,-0.
 000499\C,0,-2.414266,1.22777,0.004035\C,0,-3.559402,1.382015,0.792108\
 C,0,-1.979956,2.301413,-0.78017\C,0,-4.257371,2.583383,0.786193\C,0,-2
 .673527,3.505213,-0.76583\C,0,-3.817854,3.653503,0.012423\H,0,-3.90004
 6,0.551242,1.407814\H,0,-1.092486,2.185578,-1.400082\H,0,-5.147916,2.6
 86607,1.40537\H,0,-2.321511,4.331764,-1.38228\H,0,-4.363183,4.595952,0
 .015664\C,0,-2.414241,-1.227791,-0.004406\C,0,-3.559682,-1.382189,-0.7
 92032\C,0,-1.979686,-2.301249,0.779869\C,0,-4.257673,-2.583532,-0.7855
 97\C,0,-2.673287,-3.50506,0.766028\C,0,-3.817885,-3.653507,-0.011769\H
 ,0,-3.900521,-0.551523,-1.407763\H,0,-1.092008,-2.185299,1.399468\H,0,
 -5.148466,-2.686887,-1.404399\H,0,-2.32101,-4.331477,1.382521\H,0,-4.3
 63223,-4.595951,-0.014691\\Version=EM64L-G16RevA.03\State=2-A\HF=-979.
 8511981\S2=0.767556\S2-1=0.\S2A=0.750285\RMSD=9.538e-07\Dipole=-1.7341
 524,0.0000038,0.0001027\Quadrupole=27.726418,1.6007375,-29.3271556,-0.
 0001172,-0.0011551,-0.2990868\PG=C01 [X(C24H19N1)]\\@


 THE FIRST MORNING OF CREATION WROTE WHAT THE LAST DAWN OF
 RECKONING SHALL READ. -- OMAR KHAYYAM
 Job cpu time:       0 days  2 hours 19 minutes 46.0 seconds.
 Elapsed time:       0 days  0 hours 17 minutes 31.6 seconds.
 File lengths (MBytes):  RWF=    220 Int=      0 D2E=      0 Chk=     32 Scr=      8
 Normal termination of Gaussian 16 at Sun Jan 17 15:15:54 2021.
