 Entering Gaussian System, Link 0=g16
 Input=mol_bp_pa_half_tune_c6.gjf
 Output=mol_bp_pa_half_tune_c6.log
 Initial command:
 /opt/ohpc/pub/libs/gaussian/g16-A.03/sandybridge/g16/l1.exe "/mnt/gpfs2_4m/scratch/rdu230/ondemand/projects/init_structures/wtuning/mol_bp_pa_half/tuning_mol_bp_pa_half_ocycle0/Gau-414694.inp" -scrdir="/mnt/gpfs2_4m/scratch/rdu230/ondemand/projects/init_structures/wtuning/mol_bp_pa_half/tuning_mol_bp_pa_half_ocycle0/"
 Entering Link 1 = /opt/ohpc/pub/libs/gaussian/g16-A.03/sandybridge/g16/l1.exe PID=    414695.
  
 Copyright (c) 1988,1990,1992,1993,1995,1998,2003,2009,2016,
            Gaussian, Inc.  All Rights Reserved.
  
 This is part of the Gaussian(R) 16 program.  It is based on
 the Gaussian(R) 09 system (copyright 2009, Gaussian, Inc.),
 the Gaussian(R) 03 system (copyright 2003, Gaussian, Inc.),
 the Gaussian(R) 98 system (copyright 1998, Gaussian, Inc.),
 the Gaussian(R) 94 system (copyright 1995, Gaussian, Inc.),
 the Gaussian 92(TM) system (copyright 1992, Gaussian, Inc.),
 the Gaussian 90(TM) system (copyright 1990, Gaussian, Inc.),
 the Gaussian 88(TM) system (copyright 1988, Gaussian, Inc.),
 the Gaussian 86(TM) system (copyright 1986, Carnegie Mellon
 University), and the Gaussian 82(TM) system (copyright 1983,
 Carnegie Mellon University). Gaussian is a federally registered
 trademark of Gaussian, Inc.
  
 This software contains proprietary and confidential information,
 including trade secrets, belonging to Gaussian, Inc.
  
 This software is provided under written license and may be
 used, copied, transmitted, or stored only in accord with that
 written license.
  
 The following legend is applicable only to US Government
 contracts under FAR:
  
                    RESTRICTED RIGHTS LEGEND
  
 Use, reproduction and disclosure by the US Government is
 subject to restrictions as set forth in subparagraphs (a)
 and (c) of the Commercial Computer Software - Restricted
 Rights clause in FAR 52.227-19.
  
 Gaussian, Inc.
 340 Quinnipiac St., Bldg. 40, Wallingford CT 06492
  
  
 ---------------------------------------------------------------
 Warning -- This program may not be used in any manner that
 competes with the business of Gaussian, Inc. or will provide
 assistance to any competitor of Gaussian, Inc.  The licensee
 of this program is prohibited from giving any competitor of
 Gaussian, Inc. access to this program.  By using this program,
 the user acknowledges that Gaussian, Inc. is engaged in the
 business of creating and licensing software in the field of
 computational chemistry and represents and warrants to the
 licensee that it is not a competitor of Gaussian, Inc. and that
 it will not use this program in any manner prohibited above.
 ---------------------------------------------------------------
  

 Cite this work as:
 Gaussian 16, Revision A.03,
 M. J. Frisch, G. W. Trucks, H. B. Schlegel, G. E. Scuseria, 
 M. A. Robb, J. R. Cheeseman, G. Scalmani, V. Barone, 
 G. A. Petersson, H. Nakatsuji, X. Li, M. Caricato, A. V. Marenich, 
 J. Bloino, B. G. Janesko, R. Gomperts, B. Mennucci, H. P. Hratchian, 
 J. V. Ortiz, A. F. Izmaylov, J. L. Sonnenberg, D. Williams-Young, 
 F. Ding, F. Lipparini, F. Egidi, J. Goings, B. Peng, A. Petrone, 
 T. Henderson, D. Ranasinghe, V. G. Zakrzewski, J. Gao, N. Rega, 
 G. Zheng, W. Liang, M. Hada, M. Ehara, K. Toyota, R. Fukuda, 
 J. Hasegawa, M. Ishida, T. Nakajima, Y. Honda, O. Kitao, H. Nakai, 
 T. Vreven, K. Throssell, J. A. Montgomery, Jr., J. E. Peralta, 
 F. Ogliaro, M. J. Bearpark, J. J. Heyd, E. N. Brothers, K. N. Kudin, 
 V. N. Staroverov, T. A. Keith, R. Kobayashi, J. Normand, 
 K. Raghavachari, A. P. Rendell, J. C. Burant, S. S. Iyengar, 
 J. Tomasi, M. Cossi, J. M. Millam, M. Klene, C. Adamo, R. Cammi, 
 J. W. Ochterski, R. L. Martin, K. Morokuma, O. Farkas, 
 J. B. Foresman, and D. J. Fox, Gaussian, Inc., Wallingford CT, 2016.
 
 ******************************************
 Gaussian 16:  EM64L-G16RevA.03 25-Dec-2016
                17-Jan-2021 
 ******************************************
 %mem=30GB
 %nproc=8
 Will use up to    8 processors via shared memory.
 ----------------------------------------------------------------------
 #P LC-wHPBE/TZVP iop(3/107=0182000000, 3/108=0182000000) scf=(conver=6
 ,fermi,ndamp=35,noincfock,novaracc,vshift=500,xqc)
 ----------------------------------------------------------------------
 1/38=1,172=1/1;
 2/12=2,17=6,18=5,40=1/2;
 3/5=19,7=101,11=2,25=1,30=1,74=-71,107=182000000,108=182000000/1,2,3;
 4//1;
 5/5=100002,6=6,8=3,10=500,13=1,18=-1,22=13,38=1,93=35/2,8;
 6/7=2,8=2,9=2,10=2,28=1/1;
 99/5=1,9=1/99;
 Leave Link    1 at Sun Jan 17 14:31:06 2021, MaxMem=  4026531840 cpu:               1.6 elap:               0.2
 (Enter /opt/ohpc/pub/libs/gaussian/g16-A.03/sandybridge/g16/l101.exe)
 ----------
 H19 C24 N1
 ----------
 Symbolic Z-matrix:
 Charge =  1 Multiplicity = 2
 C                     6.12918   1.2015   -0.03086 
 C                     6.83027   0.        0.00018 
 C                     4.73896   1.20071  -0.0322 
 C                     6.12924  -1.20147   0.03115 
 C                     4.02175  -0.00003   0.00003 
 C                     4.73896  -1.20072   0.03236 
 H                     7.91954   0.00005   0.00019 
 H                     4.19807   2.14545  -0.08115 
 H                     6.66878  -2.14754   0.06341 
 H                     4.19815  -2.1455    0.08126 
 C                     2.53689  -0.00001  -0.00006 
 C                     1.81336  -0.92429  -0.76008 
 C                     1.81326   0.92429   0.75979 
 C                     0.42603  -0.92247  -0.77116 
 C                     0.4259    0.9225    0.77064 
 C                    -0.28834   0.00002  -0.00031 
 H                     2.34757  -1.63866  -1.38605 
 H                     2.34735   1.63867   1.38585 
 H                    -0.11537  -1.63849  -1.38716 
 H                    -0.11557   1.63858   1.3865 
 H                     6.66876   2.14754  -0.06301 
 N                    -1.70438  0.        -0.0005 
 C                    -2.41427   1.22777   0.00404 
 C                    -3.5594    1.38202   0.79211 
 C                    -1.97996   2.30141  -0.78017 
 C                    -4.25737   2.58338   0.78619 
 C                    -2.67353   3.50521  -0.76583 
 C                    -3.81785   3.6535    0.01242 
 H                    -3.90005   0.55124   1.40781 
 H                    -1.09249   2.18558  -1.40008 
 H                    -5.14792   2.68661   1.40537 
 H                    -2.32151   4.33176  -1.38228 
 H                    -4.36318   4.59595   0.01566 
 C                    -2.41424  -1.22779  -0.00441 
 C                    -3.55968  -1.38219  -0.79203 
 C                    -1.97969  -2.30125   0.77987 
 C                    -4.25767  -2.58353  -0.7856 
 C                    -2.67329  -3.50506   0.76603 
 C                    -3.81789  -3.65351  -0.01177 
 H                    -3.90052  -0.55152  -1.40776 
 H                    -1.09201  -2.1853    1.39947 
 H                    -5.14847  -2.68689  -1.4044 
 H                    -2.32101  -4.33148   1.38252 
 H                    -4.36322  -4.59595  -0.01469 
 
 ITRead=  0  0  0  0  0  0  0  0  0  0  0  0  0  0  0  0  0  0  0  0
 ITRead=  0  0  0  0  0  0  0  0  0  0  0  0  0  0  0  0  0  0  0  0
 ITRead=  0  0  0  0
 MicOpt= -1 -1 -1 -1 -1 -1 -1 -1 -1 -1 -1 -1 -1 -1 -1 -1 -1 -1 -1 -1
 MicOpt= -1 -1 -1 -1 -1 -1 -1 -1 -1 -1 -1 -1 -1 -1 -1 -1 -1 -1 -1 -1
 MicOpt= -1 -1 -1 -1
 NAtoms=     44 NQM=       44 NQMF=       0 NMMI=      0 NMMIF=      0
                NMic=       0 NMicF=      0.
                    Isotopes and Nuclear Properties:
 (Nuclear quadrupole moments (NQMom) in fm**2, nuclear magnetic moments (NMagM)
  in nuclear magnetons)

  Atom         1           2           3           4           5           6           7           8           9          10
 IAtWgt=          12          12          12          12          12          12           1           1           1           1
 AtmWgt=  12.0000000  12.0000000  12.0000000  12.0000000  12.0000000  12.0000000   1.0078250   1.0078250   1.0078250   1.0078250
 NucSpn=           0           0           0           0           0           0           1           1           1           1
 AtZEff=  -0.0000000  -0.0000000  -0.0000000  -0.0000000  -0.0000000  -0.0000000  -0.0000000  -0.0000000  -0.0000000  -0.0000000
 NQMom=    0.0000000   0.0000000   0.0000000   0.0000000   0.0000000   0.0000000   0.0000000   0.0000000   0.0000000   0.0000000
 NMagM=    0.0000000   0.0000000   0.0000000   0.0000000   0.0000000   0.0000000   2.7928460   2.7928460   2.7928460   2.7928460
 AtZNuc=   6.0000000   6.0000000   6.0000000   6.0000000   6.0000000   6.0000000   1.0000000   1.0000000   1.0000000   1.0000000

  Atom        11          12          13          14          15          16          17          18          19          20
 IAtWgt=          12          12          12          12          12          12           1           1           1           1
 AtmWgt=  12.0000000  12.0000000  12.0000000  12.0000000  12.0000000  12.0000000   1.0078250   1.0078250   1.0078250   1.0078250
 NucSpn=           0           0           0           0           0           0           1           1           1           1
 AtZEff=  -0.0000000  -0.0000000  -0.0000000  -0.0000000  -0.0000000  -0.0000000  -0.0000000  -0.0000000  -0.0000000  -0.0000000
 NQMom=    0.0000000   0.0000000   0.0000000   0.0000000   0.0000000   0.0000000   0.0000000   0.0000000   0.0000000   0.0000000
 NMagM=    0.0000000   0.0000000   0.0000000   0.0000000   0.0000000   0.0000000   2.7928460   2.7928460   2.7928460   2.7928460
 AtZNuc=   6.0000000   6.0000000   6.0000000   6.0000000   6.0000000   6.0000000   1.0000000   1.0000000   1.0000000   1.0000000

  Atom        21          22          23          24          25          26          27          28          29          30
 IAtWgt=           1          14          12          12          12          12          12          12           1           1
 AtmWgt=   1.0078250  14.0030740  12.0000000  12.0000000  12.0000000  12.0000000  12.0000000  12.0000000   1.0078250   1.0078250
 NucSpn=           1           2           0           0           0           0           0           0           1           1
 AtZEff=  -0.0000000  -0.0000000  -0.0000000  -0.0000000  -0.0000000  -0.0000000  -0.0000000  -0.0000000  -0.0000000  -0.0000000
 NQMom=    0.0000000   2.0440000   0.0000000   0.0000000   0.0000000   0.0000000   0.0000000   0.0000000   0.0000000   0.0000000
 NMagM=    2.7928460   0.4037610   0.0000000   0.0000000   0.0000000   0.0000000   0.0000000   0.0000000   2.7928460   2.7928460
 AtZNuc=   1.0000000   7.0000000   6.0000000   6.0000000   6.0000000   6.0000000   6.0000000   6.0000000   1.0000000   1.0000000

  Atom        31          32          33          34          35          36          37          38          39          40
 IAtWgt=           1           1           1          12          12          12          12          12          12           1
 AtmWgt=   1.0078250   1.0078250   1.0078250  12.0000000  12.0000000  12.0000000  12.0000000  12.0000000  12.0000000   1.0078250
 NucSpn=           1           1           1           0           0           0           0           0           0           1
 AtZEff=  -0.0000000  -0.0000000  -0.0000000  -0.0000000  -0.0000000  -0.0000000  -0.0000000  -0.0000000  -0.0000000  -0.0000000
 NQMom=    0.0000000   0.0000000   0.0000000   0.0000000   0.0000000   0.0000000   0.0000000   0.0000000   0.0000000   0.0000000
 NMagM=    2.7928460   2.7928460   2.7928460   0.0000000   0.0000000   0.0000000   0.0000000   0.0000000   0.0000000   2.7928460
 AtZNuc=   1.0000000   1.0000000   1.0000000   6.0000000   6.0000000   6.0000000   6.0000000   6.0000000   6.0000000   1.0000000

  Atom        41          42          43          44
 IAtWgt=           1           1           1           1
 AtmWgt=   1.0078250   1.0078250   1.0078250   1.0078250
 NucSpn=           1           1           1           1
 AtZEff=  -0.0000000  -0.0000000  -0.0000000  -0.0000000
 NQMom=    0.0000000   0.0000000   0.0000000   0.0000000
 NMagM=    2.7928460   2.7928460   2.7928460   2.7928460
 AtZNuc=   1.0000000   1.0000000   1.0000000   1.0000000
 Leave Link  101 at Sun Jan 17 14:31:06 2021, MaxMem=  4026531840 cpu:               0.6 elap:               0.1
 (Enter /opt/ohpc/pub/libs/gaussian/g16-A.03/sandybridge/g16/l202.exe)
                          Input orientation:                          
 ---------------------------------------------------------------------
 Center     Atomic      Atomic             Coordinates (Angstroms)
 Number     Number       Type             X           Y           Z
 ---------------------------------------------------------------------
      1          6           0        6.129184    1.201496   -0.030856
      2          6           0        6.830271    0.000001    0.000182
      3          6           0        4.738958    1.200713   -0.032197
      4          6           0        6.129235   -1.201473    0.031153
      5          6           0        4.021751   -0.000032    0.000031
      6          6           0        4.738962   -1.200719    0.032361
      7          1           0        7.919539    0.000045    0.000190
      8          1           0        4.198073    2.145454   -0.081149
      9          1           0        6.668779   -2.147537    0.063412
     10          1           0        4.198148   -2.145504    0.081256
     11          6           0        2.536892   -0.000014   -0.000063
     12          6           0        1.813363   -0.924286   -0.760077
     13          6           0        1.813258    0.924290    0.759786
     14          6           0        0.426027   -0.922473   -0.771159
     15          6           0        0.425899    0.922498    0.770636
     16          6           0       -0.288344    0.000018   -0.000311
     17          1           0        2.347573   -1.638662   -1.386050
     18          1           0        2.347350    1.638674    1.385851
     19          1           0       -0.115370   -1.638494   -1.387158
     20          1           0       -0.115571    1.638578    1.386504
     21          1           0        6.668762    2.147543   -0.063006
     22          7           0       -1.704382   -0.000003   -0.000499
     23          6           0       -2.414266    1.227770    0.004035
     24          6           0       -3.559402    1.382015    0.792108
     25          6           0       -1.979956    2.301413   -0.780170
     26          6           0       -4.257371    2.583383    0.786193
     27          6           0       -2.673527    3.505213   -0.765830
     28          6           0       -3.817854    3.653503    0.012423
     29          1           0       -3.900046    0.551242    1.407814
     30          1           0       -1.092486    2.185578   -1.400082
     31          1           0       -5.147916    2.686607    1.405370
     32          1           0       -2.321511    4.331764   -1.382280
     33          1           0       -4.363183    4.595952    0.015664
     34          6           0       -2.414241   -1.227791   -0.004406
     35          6           0       -3.559682   -1.382189   -0.792032
     36          6           0       -1.979686   -2.301249    0.779869
     37          6           0       -4.257673   -2.583532   -0.785597
     38          6           0       -2.673287   -3.505060    0.766028
     39          6           0       -3.817885   -3.653507   -0.011769
     40          1           0       -3.900521   -0.551523   -1.407763
     41          1           0       -1.092008   -2.185299    1.399468
     42          1           0       -5.148466   -2.686887   -1.404399
     43          1           0       -2.321010   -4.331477    1.382521
     44          1           0       -4.363223   -4.595951   -0.014691
 ---------------------------------------------------------------------
                    Distance matrix (angstroms):
                    1          2          3          4          5
     1  C    0.000000
     2  C    1.391430   0.000000
     3  C    1.390227   2.411711   0.000000
     4  C    2.403769   1.391384   2.776217   0.000000
     5  C    2.426087   2.808520   1.399004   2.426091   0.000000
     6  C    2.776212   2.411708   2.402300   1.390274   1.398959
     7  H    2.156344   1.089268   3.399816   2.156338   3.897788
     8  H    2.150064   3.396770   1.089719   3.865737   2.154249
     9  H    3.393534   2.154529   3.865764   1.089580   3.409186
    10  H    3.865731   3.396739   3.391536   2.150070   2.154243
    11  C    3.788025   4.293379   2.508361   3.788061   1.484859
    12  C    4.865904   5.157680   3.688433   4.396547   2.511770
    13  C    4.396496   5.157686   3.043578   4.865946   2.511780
    14  C    6.130685   6.516154   4.863677   5.766119   3.791420
    15  C    5.766081   6.516178   4.395955   6.130753   3.791444
    16  C    6.529100   7.118615   5.168796   6.529157   4.310095
    17  H    4.919718   4.970054   3.951416   4.062089   2.721985
    18  H    4.062075   4.970101   2.814686   4.919786   2.722035
    19  H    6.992822   7.269890   5.784593   6.418542   4.660968
    20  H    6.418482   7.269907   5.076504   6.992887   4.660985
    21  H    1.089579   2.154533   2.149786   3.393503   3.409211
    22  N    7.925230   8.534653   6.554339   7.925282   5.726133
    23  C    8.543562   9.325712   7.153367   8.882194   6.552086
    24  C    9.725151  10.511062   8.341171  10.056001   7.746697
    25  C    8.217630   9.139231   6.849439   8.870594   6.475017
    26  C   10.509886  11.411726   9.138680  11.080470   8.708384
    27  C    9.128802  10.158517   7.797042  10.013825   7.596054
    28  C   10.244890  11.257477   8.901528  11.068682   8.649155
    29  H   10.152736  10.836282   8.782245  10.273932   8.064777
    30  H    7.415910   8.337120   6.070157   8.103937   5.735209
    31  H   11.464785  12.355945  10.100731  12.007488   9.657940
    32  H    9.112583  10.219124   7.840690  10.199491   7.804628
    33  H   11.027886  12.100265   9.714881  11.987544   9.561926
    34  C    8.882131   9.325690   7.554248   8.543591   6.552053
    35  C   10.056289  10.511383   8.724457   9.725503   7.746990
    36  C    8.870190   9.138873   7.619932   8.217340   6.474642
    37  C   11.080743  11.412037   9.789152  10.510234   8.708648
    38  C   10.013500  10.158228   8.816056   9.128579   7.595756
    39  C   11.068677  11.257508   9.837857  10.244975   8.649157
    40  H   10.274431  10.836807   8.922058  10.153271   8.065260
    41  H    8.103198   8.336429   6.893106   7.415292   5.734488
    42  H   12.007978  12.356470  10.712494  11.465331   9.658390
    43  H   10.198882  10.218537   9.080182   9.112067   7.804057
    44  H   11.987546  12.100302  10.791261  11.027976   9.561929
                    6          7          8          9         10
     6  C    0.000000
     7  H    3.399844   0.000000
     8  H    3.391507   4.296360   0.000000
     9  H    2.149796   2.486062   4.955306   0.000000
    10  H    1.089720   4.296359   4.294030   2.470696   0.000000
    11  C    2.508357   5.382647   2.714614   4.657078   2.714684
    12  C    3.043600   6.222361   3.946022   5.074401   2.808276
    13  C    3.688435   6.222370   2.808159   5.787672   3.946104
    14  C    4.395961   7.589383   4.910868   6.416326   4.056022
    15  C    4.863704   7.589410   4.055916   6.992770   4.910982
    16  C    5.168814   8.207883   4.973667   7.281319   4.973784
    17  H    2.814680   5.971083   4.409836   4.586144   2.415472
    18  H    3.951442   5.971135   2.415386   5.895675   4.409923
    19  H    5.076536   8.316809   5.884702   6.956145   4.584729
    20  H    5.784618   8.316829   4.584589   7.881158   5.884821
    21  H    3.865758   2.485998   2.470756   4.296940   4.955300
    22  N    6.554348   9.623921   6.280801   8.644409   6.280901
    23  C    7.554272  10.406481   6.676258   9.690094   7.423541
    24  C    8.724138  11.588920   7.843713  10.844557   8.551508
    25  C    7.620301  10.193393   6.219405   9.762449   7.660685
    26  C    9.788856  12.472713   8.511087  11.928318   9.713656
    27  C    8.816343  11.184187   7.038226  10.950795   8.936894
    28  C    9.837834  12.292856   8.157086  11.984329   9.893913
    29  H    8.921530  11.915864   8.386779  10.990491   8.637878
    30  H    6.893815   9.378375   5.452633   9.008603   6.995959
    31  H   10.711994  13.414564   9.478929  12.837604  10.604315
    32  H    9.080741  11.205093   6.998419  11.175718   9.306067
    33  H   10.791233  13.114414   8.905584  12.929853  10.897152
    34  C    7.153349  10.406470   7.423434   9.129720   6.676318
    35  C    8.341466  11.589249   8.551747  10.292665   7.844056
    36  C    6.849100  10.193062   7.660237   8.679452   6.219160
    37  C    9.138964  12.473044   9.713866  10.968056   8.511417
    38  C    7.796774  11.183927   8.936532   9.466295   7.038034
    39  C    8.901559  12.292913   9.893854  10.594514   8.157175
    40  H    8.782715  11.916391   8.638334  10.789890   8.387276
    41  H    6.069480   9.377723   6.995184   7.875042   5.452065
    42  H   10.101198  13.415112  10.604730  11.920262   9.479423
    43  H    7.840139  11.204542   9.305450   9.344835   6.997942
    44  H    9.714916  13.114482  10.897098  11.300703   8.905671
                   11         12         13         14         15
    11  C    0.000000
    12  C    1.398354   0.000000
    13  C    1.398340   2.393160   0.000000
    14  C    2.429253   1.387381   2.771053   0.000000
    15  C    2.429258   2.771056   1.387403   2.404381   0.000000
    16  C    2.825236   2.418420   2.418420   1.398400   1.398382
    17  H    2.154523   1.089750   3.385089   2.140878   3.860527
    18  H    2.154526   3.385102   1.089750   3.860524   2.140881
    19  H    3.412205   2.150194   3.859642   1.088693   3.392304
    20  H    3.412200   3.859646   2.150201   3.392318   1.088694
    21  H    4.657071   5.787654   5.074372   6.992726   6.416310
    22  N    4.241274   3.715614   3.715662   2.446121   2.446171
    23  C    5.101121   4.805004   4.305255   3.645783   2.957601
    24  C    6.300979   6.049372   5.392220   4.861904   4.011763
    25  C    5.129040   4.979438   4.319306   4.022720   3.177191
    26  C    7.311234   7.179729   6.293316   6.053973   4.969084
    27  C    6.326253   6.304972   5.396286   5.404782   4.317127
    28  C    7.330153   7.298186   6.302109   6.289999   5.103206
    29  H    6.612123   6.286492   5.762026   5.063069   4.388351
    30  H    4.461978   4.304047   3.833957   3.515879   2.934771
    31  H    8.261322   8.135546   7.209749   6.987959   5.880679
    32  H    6.654240   6.716426   5.770237   5.960658   4.879181
    33  H    8.290608   8.320128   7.223797   7.349057   6.082726
    34  C    5.101095   4.305321   4.804913   2.957744   3.645659
    35  C    6.301257   5.392616   6.049502   4.012188   4.861931
    36  C    5.128689   4.319107   4.979049   3.177132   4.022371
    37  C    7.311480   6.293745   7.179779   4.969544   6.053921
    38  C    6.325995   5.396241   6.304623   4.317227   5.404465
    39  C    7.330166   6.302346   7.298034   5.103529   6.289808
    40  H    6.612569   5.762545   6.286777   4.388837   5.063207
    41  H    4.461286   3.833402   4.303406   2.934413   3.515377
    42  H    8.261729   7.210338   8.135717   5.881252   6.987988
    43  H    6.653745   5.769984   6.715881   4.879125   5.960215
    44  H    8.290623   7.224053   8.319964   6.083058   7.348858
                   16         17         18         19         20
    16  C    0.000000
    17  H    3.399059   0.000000
    18  H    3.399047   4.292361   0.000000
    19  H    2.153598   2.462943   4.949182   0.000000
    20  H    2.153598   4.949185   2.462921   4.293297   0.000000
    21  H    7.281285   5.895631   4.586146   7.881110   6.956098
    22  N    1.416038   4.585117   4.585167   2.670662   2.670776
    23  C    2.454982   5.729213   4.975062   3.928843   2.713666
    24  C    3.638360   6.982923   5.942064   5.072872   3.504155
    25  C    2.960769   5.883773   4.884306   4.400907   2.934239
    26  C    4.800577   8.134469   6.698836   6.301101   4.290401
    27  C    4.308307   7.214954   5.772599   5.778230   3.828839
    28  C    5.079917   8.244709   6.629901   6.608513   4.433387
    29  H    3.915489   7.185687   6.341368   5.189469   3.937639
    30  H    2.717108   5.143833   4.460157   3.946954   3.003104
    31  H    5.727926   9.092983   7.568194   7.199391   5.140352
    32  H    4.980726   7.579337   6.059170   6.364830   4.448099
    33  H    6.142245   9.266578   7.460171   7.673340   5.354201
    34  C    2.454989   4.975201   5.729065   2.713943   3.928688
    35  C    3.638540   5.942583   6.982966   3.504733   5.072766
    36  C    2.960599   4.884199   5.883319   2.934438   4.400587
    37  C    4.800727   6.699448   8.134405   4.291113   6.300892
    38  C    4.308225   5.772687   7.214498   3.829258   5.777881
    39  C    5.079964   6.630318   8.244431   4.434026   6.608212
    40  H    3.915730   6.342005   7.185898   3.938185   5.189443
    41  H    2.716775   4.459668   5.143164   3.003015   3.946598
    42  H    5.728150   7.568997   9.093032   5.141156   7.199224
    43  H    4.980543   6.059035   7.578674   4.448385   6.364396
    44  H    6.142294   7.460628   9.266275   5.354855   7.673021
                   21         22         23         24         25
    21  H    0.000000
    22  N    8.644386   0.000000
    23  C    9.129725   1.418232   0.000000
    24  C   10.292356   2.445260   1.398638   0.000000
    25  C    8.679765   2.445474   1.398682   2.410809   0.000000
    26  C   10.967747   3.716251   2.417952   1.389417   2.778420
    27  C    9.466551   3.716384   2.417986   2.778474   1.389381
    28  C   10.594466   4.220786   2.802554   2.415443   2.415413
    29  H   10.789402   2.666113   2.153097   1.088722   3.396633
    30  H    7.875671   2.666461   2.153147   3.396628   1.088720
    31  H   11.919757   4.588275   3.400704   2.145094   3.867936
    32  H    9.345390   4.588504   3.400772   3.867991   2.145116
    33  H   11.300651   5.309641   3.891409   3.402693   3.402651
    34  C    9.690060   1.418231   2.455576   2.959209   3.639463
    35  C   10.844886   2.445220   2.959322   3.185957   4.008067
    36  C    9.762061   2.445506   3.639334   4.007753   4.859858
    37  C   11.928629   3.716221   4.306703   4.324615   5.389871
    38  C   10.950484   3.716418   4.800771   4.966828   6.048683
    39  C   11.984347   4.220795   5.079100   5.105831   6.279291
    40  H   10.991045   2.666007   2.714408   2.948621   3.495953
    41  H    9.007880   2.666539   3.917223   4.379800   5.066543
    42  H   12.838143   4.588245   4.978361   4.889349   5.942411
    43  H   11.175117   4.588534   5.728363   5.875899   6.984897
    44  H   12.929878   5.309649   6.141214   6.085485   7.337544
                   26         27         28         29         30
    26  C    0.000000
    27  C    2.401480   0.000000
    28  C    1.391780   1.391816   0.000000
    29  H    2.154922   3.867172   3.402631   0.000000
    30  H    3.867111   2.154856   3.402588   4.293917   0.000000
    31  H    1.089544   3.392171   2.155053   2.473251   4.956622
    32  H    3.392148   1.089547   2.155058   4.956687   2.473244
    33  H    2.157625   2.157633   1.088855   4.302587   4.302522
    34  C    4.306649   4.800867   5.079118   2.714211   3.917402
    35  C    4.324734   4.967158   5.106074   2.948445   4.380153
    36  C    5.389575   6.048603   6.279085   3.495540   5.066648
    37  C    5.400698   6.291480   6.303244   3.842624   5.756771
    38  C    6.291174   7.175689   7.288551   4.286072   6.290813
    39  C    6.303070   7.288720   7.307050   4.438680   6.591671
    40  H    3.842970   4.286572   4.439145   3.023833   3.921332
    41  H    5.756384   6.290600   6.591338   3.920944   5.190573
    42  H    5.776547   6.698895   6.631626   4.466830   6.339709
    43  H    7.205580   8.133473   8.238787   5.131758   7.191951
    44  H    7.224642   8.309521   8.267506   5.360191   7.655466
                   31         32         33         34         35
    31  H    0.000000
    32  H    4.297220   0.000000
    33  H    2.488511   2.488467   0.000000
    34  C    4.978249   5.728507   6.141234   0.000000
    35  C    4.889393   5.876284   6.085734   1.398652   0.000000
    36  C    5.942023   6.984883   7.337333   1.398656   2.410795
    37  C    5.776438   7.205975   7.224828   2.417961   1.389409
    38  C    6.698454   8.133559   8.309344   2.417980   2.778458
    39  C    6.631313   8.239053   8.267507   2.802565   2.415443
    40  H    4.467124   5.132291   5.360662   2.153086   1.088716
    41  H    6.339234   7.191795   7.655120   2.153134   3.396627
    42  H    6.063764   7.566613   7.461434   3.400725   2.145103
    43  H    7.566070   9.093727   9.259469   3.400754   3.867983
    44  H    7.461097   9.259751   9.191953   3.891419   3.402676
                   36         37         38         39         40
    36  C    0.000000
    37  C    2.778415   0.000000
    38  C    1.389401   2.401465   0.000000
    39  C    2.415423   1.391787   1.391801   0.000000
    40  H    3.396599   2.154927   3.867150   3.402636   0.000000
    41  H    1.088724   3.867109   2.154869   3.402592   4.293893
    42  H    3.867934   1.089546   3.392149   2.155045   2.473289
    43  H    2.145115   3.392154   1.089554   2.155069   4.956671
    44  H    3.402680   2.157607   2.157649   1.088854   4.302574
                   41         42         43         44
    41  H    0.000000
    42  H    4.956623   0.000000
    43  H    2.473219   4.297221   0.000000
    44  H    4.302550   2.488457   2.488530   0.000000
 Stoichiometry    C24H19N(1+,2)
 Framework group  C1[X(C24H19N)]
 Deg. of freedom   126
 Full point group                 C1      NOp   1
 Largest Abelian subgroup         C1      NOp   1
 Largest concise Abelian subgroup C1      NOp   1
                         Standard orientation:                         
 ---------------------------------------------------------------------
 Center     Atomic      Atomic             Coordinates (Angstroms)
 Number     Number       Type             X           Y           Z
 ---------------------------------------------------------------------
      1          6           0       -6.129184    1.201496    0.030856
      2          6           0       -6.830271    0.000001   -0.000182
      3          6           0       -4.738958    1.200713    0.032197
      4          6           0       -6.129235   -1.201473   -0.031153
      5          6           0       -4.021751   -0.000032   -0.000031
      6          6           0       -4.738962   -1.200719   -0.032361
      7          1           0       -7.919539    0.000045   -0.000190
      8          1           0       -4.198073    2.145454    0.081149
      9          1           0       -6.668779   -2.147537   -0.063412
     10          1           0       -4.198148   -2.145504   -0.081256
     11          6           0       -2.536892   -0.000014    0.000063
     12          6           0       -1.813363   -0.924286    0.760077
     13          6           0       -1.813258    0.924290   -0.759786
     14          6           0       -0.426027   -0.922473    0.771159
     15          6           0       -0.425899    0.922498   -0.770636
     16          6           0        0.288344    0.000018    0.000311
     17          1           0       -2.347573   -1.638662    1.386050
     18          1           0       -2.347350    1.638674   -1.385851
     19          1           0        0.115370   -1.638494    1.387158
     20          1           0        0.115571    1.638578   -1.386504
     21          1           0       -6.668762    2.147543    0.063006
     22          7           0        1.704382   -0.000003    0.000499
     23          6           0        2.414266    1.227770   -0.004035
     24          6           0        3.559402    1.382015   -0.792108
     25          6           0        1.979956    2.301413    0.780170
     26          6           0        4.257371    2.583383   -0.786193
     27          6           0        2.673527    3.505213    0.765830
     28          6           0        3.817854    3.653503   -0.012423
     29          1           0        3.900046    0.551242   -1.407814
     30          1           0        1.092486    2.185578    1.400082
     31          1           0        5.147916    2.686607   -1.405370
     32          1           0        2.321511    4.331764    1.382280
     33          1           0        4.363183    4.595952   -0.015664
     34          6           0        2.414241   -1.227791    0.004406
     35          6           0        3.559682   -1.382189    0.792032
     36          6           0        1.979686   -2.301249   -0.779869
     37          6           0        4.257673   -2.583532    0.785597
     38          6           0        2.673287   -3.505060   -0.766028
     39          6           0        3.817885   -3.653507    0.011769
     40          1           0        3.900521   -0.551523    1.407763
     41          1           0        1.092008   -2.185299   -1.399468
     42          1           0        5.148466   -2.686887    1.404399
     43          1           0        2.321010   -4.331477   -1.382521
     44          1           0        4.363223   -4.595951    0.014691
 ---------------------------------------------------------------------
 Rotational constants (GHZ):           0.3772696           0.1165367           0.0926339
 Leave Link  202 at Sun Jan 17 14:31:06 2021, MaxMem=  4026531840 cpu:               0.3 elap:               0.1
 (Enter /opt/ohpc/pub/libs/gaussian/g16-A.03/sandybridge/g16/l301.exe)
 Standard basis: TZVP (5D, 7F)
 Ernie: Thresh=  0.10000D-02 Tol=  0.10000D-05 Strict=F.
 There are   614 symmetry adapted cartesian basis functions of A   symmetry.
 There are   589 symmetry adapted basis functions of A   symmetry.
   589 basis functions,  1027 primitive gaussians,   614 cartesian basis functions
    85 alpha electrons       84 beta electrons
       nuclear repulsion energy      1905.4959532784 Hartrees.
 IExCor=33909 DFT=T Ex+Corr=LC-wHPBE ExCW=0 ScaHFX=  1.000000
 ScaDFX=  1.000000  1.000000  1.000000  1.000000 ScalE2=  1.000000  1.000000
 IRadAn=      5 IRanWt=     -1 IRanGd=            0 ICorTp=0 IEmpDi=  4
 HFx  wShort=  0.000000 wLong=  0.182000 cFull=  0.000000 cShort=  0.000000 cLong=  1.000000
 DFx  wShort=  0.000000 wLong=  0.182000 cFull=  0.000000 cShort=  1.000000 cLong=  0.000000
 NAtoms=   44 NActive=   44 NUniq=   44 SFac= 1.00D+00 NAtFMM=   60 NAOKFM=F Big=F
 Integral buffers will be    131072 words long.
 Raffenetti 2 integral format.
 Two-electron integral symmetry is turned on.
 Leave Link  301 at Sun Jan 17 14:31:07 2021, MaxMem=  4026531840 cpu:               0.4 elap:               0.1
 (Enter /opt/ohpc/pub/libs/gaussian/g16-A.03/sandybridge/g16/l302.exe)
 NPDir=0 NMtPBC=     1 NCelOv=     1 NCel=       1 NClECP=     1 NCelD=      1
         NCelK=      1 NCelE2=     1 NClLst=     1 CellRange=     0.0.
 One-electron integrals computed using PRISM.
 One-electron integral symmetry used in STVInt
 NBasis=   589 RedAO= T EigKep=  7.25D-06  NBF=   589
 NBsUse=   589 1.00D-06 EigRej= -1.00D+00 NBFU=   589
 Precomputing XC quadrature grid using
 IXCGrd= 4 IRadAn=           5 IRanWt=          -1 IRanGd=           0 AccXCQ= 0.00D+00.
 Generated NRdTot=       0 NPtTot=           0 NUsed=           0 NTot=          32
 NSgBfM=   586   586   586   586   586 MxSgAt=    44 MxSgA2=    44.
 Leave Link  302 at Sun Jan 17 14:31:08 2021, MaxMem=  4026531840 cpu:               8.0 elap:               1.1
 (Enter /opt/ohpc/pub/libs/gaussian/g16-A.03/sandybridge/g16/l303.exe)
 DipDrv:  MaxL=1.
 Leave Link  303 at Sun Jan 17 14:31:08 2021, MaxMem=  4026531840 cpu:               1.4 elap:               0.3
 (Enter /opt/ohpc/pub/libs/gaussian/g16-A.03/sandybridge/g16/l401.exe)
 ExpMin= 9.52D-02 ExpMax= 1.97D+04 ExpMxC= 6.73D+02 IAcc=3 IRadAn=         5 AccDes= 0.00D+00
 Harris functional with IExCor=33909 and IRadAn=       5 diagonalized for initial guess.
 HarFok:  IExCor=33909 AccDes= 0.00D+00 IRadAn=         5 IDoV= 1 UseB2=F ITyADJ=14
 ICtDFT=  3500011 ScaDFX=  1.000000  1.000000  1.000000  1.000000
 FoFCou: FMM=F IPFlag=           0 FMFlag=      100000 FMFlg1=           0
         NFxFlg=           0 DoJE=T BraDBF=F KetDBF=T FulRan=T
         wScrn=  0.000000 ICntrl=       500 IOpCl=  0 I1Cent=   200000004 NGrid=           0
         NMat0=    1 NMatS0=      1 NMatT0=    0 NMatD0=    1 NMtDS0=    0 NMtDT0=    0
 Petite list used in FoFCou.
 Harris En= -963.456174840371    
 JPrj=0 DoOrth=F DoCkMO=F.
 Initial guess <Sx>= 0.0000 <Sy>= 0.0000 <Sz>= 0.5000 <S**2>= 0.7500 S= 0.5000
 Leave Link  401 at Sun Jan 17 14:31:14 2021, MaxMem=  4026531840 cpu:              49.7 elap:               6.3
 (Enter /opt/ohpc/pub/libs/gaussian/g16-A.03/sandybridge/g16/l502.exe)
 Integral symmetry usage will be decided dynamically.
 UHF open shell SCF:
 Using DIIS extrapolation, IDIIS=    10.
 NGot=  4026531840 LenX=  4025766914 LenY=  4025389304
 Requested convergence on RMS density matrix=1.00D-06 within  32 cycles.
 Requested convergence on MAX density matrix=1.00D-04.
 Requested convergence on             energy=1.00D-04.
 Virtual orbitals will be shifted by   0.500 hartree.
 No special actions if energy rises.
 Dynamic level shift is on during FON iterations.

 Cycle   1  Pass 1  IDiag  1:
 FoFJK:  IHMeth= 1 ICntrl=       0 DoSepK=T KAlg= 0 I1Cent=           0 FoldK=F
 IRaf=         1 NMat=       1 IRICut=       1 DoRegI=T DoRafI=F ISym2E= 0 IDoP0=0 IntGTp=1.
 FoFCou: FMM=F IPFlag=           0 FMFlag=      100000 FMFlg1=           0
         NFxFlg=           0 DoJE=T BraDBF=F KetDBF=F FulRan=T
         wScrn=  0.000000 ICntrl=       500 IOpCl=  0 I1Cent=           0 NGrid=           0
         NMat0=    1 NMatS0=      1 NMatT0=    0 NMatD0=    1 NMtDS0=    0 NMtDT0=    0
 Symmetry not used in FoFCou.
 E= -979.436517311852    
 DIIS: error= 3.00D-02 at cycle   1 NSaved=   1.
 NSaved= 1 IEnMin= 1 EnMin= -979.436517311852     IErMin= 1 ErrMin= 3.00D-02
 ErrMax= 3.00D-02  0.00D+00 EMaxC= 1.00D+00 BMatC= 1.66D+00 BMatP= 1.66D+00
 IDIUse=1 WtCom= 1.00D+00 WtEn= 0.00D+00
 Coeff-Com:  0.100D+01
 Coeff:      0.100D+01
 Gap=     0.394 Goal=   None    Shift=    0.500
 T= 1497. Gap= 0.678 NK=0 IS=   86 IE=  589 IFin=   85
          NO(<0.9)=   0  NV(>0.1)=   0     85.00e < EF      0.00e >EF  Err=0.0D+00
 Gap=     0.068 Goal=   None    Shift=    0.500
 T= 1497. Gap= 0.489 NK=0 IS=   85 IE=  589 IFin=   84
          NO(<0.9)=   0  NV(>0.1)=   0     84.00e < EF      0.00e >EF  Err=0.0D+00
 GapD=    0.068 DampG=0.500 DampE=0.500 DampFc=0.2500 IDamp=-1.
 Damping current iteration by 2.50D-01
 RMSDP=2.61D-03 MaxDP=8.32D-02              OVMax= 9.39D-02

 Cycle   2  Pass 1  IDiag  1:
 E= -979.590217834696     Delta-E=       -0.153700522845 Rises=F Damp=T
 DIIS: error= 2.18D-02 at cycle   2 NSaved=   2.
 NSaved= 2 IEnMin= 2 EnMin= -979.590217834696     IErMin= 2 ErrMin= 2.18D-02
 ErrMax= 2.18D-02  0.00D+00 EMaxC= 1.00D+00 BMatC= 7.65D-01 BMatP= 1.66D+00
 IDIUse=1 WtCom= 1.00D+00 WtEn= 0.00D+00
 Coeff-Com: -0.188D+01 0.288D+01
 Coeff:     -0.188D+01 0.288D+01
 Gap=     0.292 Goal=   None    Shift=    0.500
 T= 1439. Gap= 0.763 NK=0 IS=   86 IE=  589 IFin=   85
          NO(<0.9)=   0  NV(>0.1)=   0     85.00e < EF      0.00e >EF  Err=0.0D+00
 Gap=     0.189 Goal=   None    Shift=    0.500
 T= 1439. Gap= 0.651 NK=0 IS=   85 IE=  589 IFin=   84
          NO(<0.9)=   0  NV(>0.1)=   0     84.00e < EF      0.00e >EF  Err=0.0D+00
 GapD=    0.189 DampG=1.000 DampE=0.500 DampFc=0.5000 IDamp=-1.
 Damping current iteration by 5.00D-01
 RMSDP=1.89D-03 MaxDP=6.86D-02 DE=-1.54D-01 OVMax= 3.15D-02

 Cycle   3  Pass 1  IDiag  1:
 E= -979.747191631959     Delta-E=       -0.156973797262 Rises=F Damp=T
 DIIS: error= 1.01D-02 at cycle   3 NSaved=   3.
 NSaved= 3 IEnMin= 3 EnMin= -979.747191631959     IErMin= 3 ErrMin= 1.01D-02
 ErrMax= 1.01D-02  0.00D+00 EMaxC= 1.00D+00 BMatC= 1.46D-01 BMatP= 7.65D-01
 IDIUse=1 WtCom= 1.00D+00 WtEn= 0.00D+00
 Coeff-Com:  0.696D-01-0.873D+00 0.180D+01
 Coeff:      0.696D-01-0.873D+00 0.180D+01
 Gap=     0.273 Goal=   None    Shift=    0.500
 T= 1272. Gap= 0.772 NK=4 IS=   86 IE=   96 IFin=   85
          NO(<0.9)=   0  NV(>0.1)=   0     85.00e < EF      0.00e >EF  Err=0.0D+00
 Gap=     0.149 Goal=   None    Shift=    0.500
 T= 1272. Gap= 0.648 NK=4 IS=   85 IE=   94 IFin=   84
          NO(<0.9)=   0  NV(>0.1)=   0     84.00e < EF      0.00e >EF  Err=0.0D+00
 GapD=    0.149 DampG=1.000 DampE=0.500 DampFc=0.5000 IDamp=-1.
 Damping current iteration by 5.00D-01
 RMSDP=9.29D-04 MaxDP=3.51D-02 DE=-1.57D-01 OVMax= 1.01D-02

 Cycle   4  Pass 1  IDiag  1:
 E= -979.805686898341     Delta-E=       -0.058495266382 Rises=F Damp=T
 DIIS: error= 4.77D-03 at cycle   4 NSaved=   4.
 NSaved= 4 IEnMin= 4 EnMin= -979.805686898341     IErMin= 4 ErrMin= 4.77D-03
 ErrMax= 4.77D-03  0.00D+00 EMaxC= 1.00D+00 BMatC= 3.03D-02 BMatP= 1.46D-01
 IDIUse=1 WtCom= 1.00D+00 WtEn= 0.00D+00
 Coeff-Com:  0.194D+00-0.300D+00-0.821D+00 0.193D+01
 Coeff:      0.194D+00-0.300D+00-0.821D+00 0.193D+01
 Gap=     0.272 Goal=   None    Shift=    0.500
 T=  957. Gap= 0.772 NK=4 IS=   86 IE=   96 IFin=   85
          NO(<0.9)=   0  NV(>0.1)=   0     85.00e < EF      0.00e >EF  Err=0.0D+00
 Gap=     0.152 Goal=   None    Shift=    0.500
 T=  957. Gap= 0.652 NK=4 IS=   85 IE=   94 IFin=   84
          NO(<0.9)=   0  NV(>0.1)=   0     84.00e < EF      0.00e >EF  Err=0.0D+00
 GapD=    0.152 DampG=1.000 DampE=1.000 DampFc=1.0000 IDamp=-1.
 RMSDP=4.60D-04 MaxDP=2.32D-02 DE=-5.85D-02 OVMax= 7.70D-03

 Cycle   5  Pass 1  IDiag  1:
 E= -979.855714522332     Delta-E=       -0.050027623992 Rises=F Damp=F
 DIIS: error= 7.95D-04 at cycle   5 NSaved=   5.
 NSaved= 5 IEnMin= 5 EnMin= -979.855714522332     IErMin= 5 ErrMin= 7.95D-04
 ErrMax= 7.95D-04  0.00D+00 EMaxC= 1.00D+00 BMatC= 6.61D-04 BMatP= 3.03D-02
 IDIUse=1 WtCom= 1.00D+00 WtEn= 0.00D+00
 Coeff-Com:  0.364D-01 0.866D-02 0.942D-01-0.433D+00 0.129D+01
 Coeff:      0.364D-01 0.866D-02 0.942D-01-0.433D+00 0.129D+01
 Gap=     0.274 Goal=   None    Shift=    0.500
 Gap=     0.154 Goal=   None    Shift=    0.500
 RMSDP=1.02D-04 MaxDP=3.68D-03 DE=-5.00D-02 OVMax= 5.74D-03

 Cycle   6  Pass 1  IDiag  1:
 E= -979.856093922029     Delta-E=       -0.000379399696 Rises=F Damp=F
 DIIS: error= 6.85D-04 at cycle   6 NSaved=   6.
 NSaved= 6 IEnMin= 6 EnMin= -979.856093922029     IErMin= 6 ErrMin= 6.85D-04
 ErrMax= 6.85D-04  0.00D+00 EMaxC= 1.00D+00 BMatC= 1.75D-04 BMatP= 6.61D-04
 IDIUse=1 WtCom= 1.00D+00 WtEn= 0.00D+00
 Coeff-Com: -0.508D-01 0.876D-01 0.257D+00-0.629D+00-0.818D-01 0.142D+01
 Coeff:     -0.508D-01 0.876D-01 0.257D+00-0.629D+00-0.818D-01 0.142D+01
 Gap=     0.274 Goal=   None    Shift=    0.500
 Gap=     0.155 Goal=   None    Shift=    0.500
 RMSDP=6.04D-05 MaxDP=2.25D-03 DE=-3.79D-04 OVMax= 4.85D-03

 Cycle   7  Pass 1  IDiag  1:
 E= -979.856274316331     Delta-E=       -0.000180394303 Rises=F Damp=F
 DIIS: error= 4.45D-04 at cycle   7 NSaved=   7.
 NSaved= 7 IEnMin= 7 EnMin= -979.856274316331     IErMin= 7 ErrMin= 4.45D-04
 ErrMax= 4.45D-04  0.00D+00 EMaxC= 1.00D+00 BMatC= 7.44D-05 BMatP= 1.75D-04
 IDIUse=1 WtCom= 1.00D+00 WtEn= 0.00D+00
 Coeff-Com: -0.181D-01 0.146D-01-0.359D-01 0.101D+00-0.432D+00-0.554D+00
 Coeff-Com:  0.192D+01
 Coeff:     -0.181D-01 0.146D-01-0.359D-01 0.101D+00-0.432D+00-0.554D+00
 Coeff:      0.192D+01
 Gap=     0.275 Goal=   None    Shift=    0.500
 Gap=     0.156 Goal=   None    Shift=    0.500
 RMSDP=3.65D-05 MaxDP=9.91D-04 DE=-1.80D-04 OVMax= 4.19D-03

 Cycle   8  Pass 1  IDiag  1:
 E= -979.856376668342     Delta-E=       -0.000102352011 Rises=F Damp=F
 DIIS: error= 3.04D-04 at cycle   8 NSaved=   8.
 NSaved= 8 IEnMin= 8 EnMin= -979.856376668342     IErMin= 8 ErrMin= 3.04D-04
 ErrMax= 3.04D-04  0.00D+00 EMaxC= 1.00D+00 BMatC= 3.65D-05 BMatP= 7.44D-05
 IDIUse=1 WtCom= 1.00D+00 WtEn= 0.00D+00
 Coeff-Com:  0.114D-01-0.174D-01-0.104D+00 0.221D+00 0.116D-01-0.752D+00
 Coeff-Com: -0.489D+00 0.212D+01
 Coeff:      0.114D-01-0.174D-01-0.104D+00 0.221D+00 0.116D-01-0.752D+00
 Coeff:     -0.489D+00 0.212D+01
 Gap=     0.275 Goal=   None    Shift=    0.500
 Gap=     0.157 Goal=   None    Shift=    0.500
 RMSDP=2.06D-05 MaxDP=6.58D-04 DE=-1.02D-04 OVMax= 3.41D-03

 Cycle   9  Pass 1  IDiag  1:
 E= -979.856435461182     Delta-E=       -0.000058792840 Rises=F Damp=F
 DIIS: error= 2.33D-04 at cycle   9 NSaved=   9.
 NSaved= 9 IEnMin= 9 EnMin= -979.856435461182     IErMin= 9 ErrMin= 2.33D-04
 ErrMax= 2.33D-04  0.00D+00 EMaxC= 1.00D+00 BMatC= 1.91D-05 BMatP= 3.65D-05
 IDIUse=1 WtCom= 1.00D+00 WtEn= 0.00D+00
 Coeff-Com:  0.932D-02-0.861D-02-0.330D-01 0.552D-01 0.220D+00-0.284D+00
 Coeff-Com: -0.103D+01 0.522D+00 0.155D+01
 Coeff:      0.932D-02-0.861D-02-0.330D-01 0.552D-01 0.220D+00-0.284D+00
 Coeff:     -0.103D+01 0.522D+00 0.155D+01
 Gap=     0.275 Goal=   None    Shift=    0.500
 Gap=     0.157 Goal=   None    Shift=    0.500
 RMSDP=1.26D-05 MaxDP=3.91D-04 DE=-5.88D-05 OVMax= 2.69D-03

 Cycle  10  Pass 1  IDiag  1:
 E= -979.856467073528     Delta-E=       -0.000031612346 Rises=F Damp=F
 DIIS: error= 1.60D-04 at cycle  10 NSaved=  10.
 NSaved=10 IEnMin=10 EnMin= -979.856467073528     IErMin=10 ErrMin= 1.60D-04
 ErrMax= 1.60D-04  0.00D+00 EMaxC= 1.00D+00 BMatC= 9.70D-06 BMatP= 1.91D-05
 IDIUse=1 WtCom= 1.00D+00 WtEn= 0.00D+00
 Coeff-Com: -0.672D-02 0.110D-01 0.544D-01-0.119D+00 0.818D-01 0.281D+00
 Coeff-Com:  0.210D-01-0.112D+01-0.844D+00 0.264D+01
 Coeff:     -0.672D-02 0.110D-01 0.544D-01-0.119D+00 0.818D-01 0.281D+00
 Coeff:      0.210D-01-0.112D+01-0.844D+00 0.264D+01
 Gap=     0.275 Goal=   None    Shift=    0.500
 Gap=     0.157 Goal=   None    Shift=    0.500
 RMSDP=9.51D-06 MaxDP=2.50D-04 DE=-3.16D-05 OVMax= 2.21D-03

 Cycle  11  Pass 1  IDiag  1:
 E= -979.856485155994     Delta-E=       -0.000018082466 Rises=F Damp=F
 DIIS: error= 1.35D-04 at cycle  11 NSaved=  11.
 NSaved=11 IEnMin=11 EnMin= -979.856485155994     IErMin=11 ErrMin= 1.35D-04
 ErrMax= 1.35D-04  0.00D+00 EMaxC= 1.00D+00 BMatC= 5.12D-06 BMatP= 9.70D-06
 IDIUse=1 WtCom= 1.00D+00 WtEn= 0.00D+00
 Coeff-Com: -0.631D-02 0.714D-02 0.420D-01-0.815D-01-0.406D-01 0.241D+00
 Coeff-Com:  0.396D+00-0.803D+00-0.112D+01 0.822D+00 0.154D+01
 Coeff:     -0.631D-02 0.714D-02 0.420D-01-0.815D-01-0.406D-01 0.241D+00
 Coeff:      0.396D+00-0.803D+00-0.112D+01 0.822D+00 0.154D+01
 Gap=     0.275 Goal=   None    Shift=    0.500
 Gap=     0.158 Goal=   None    Shift=    0.500
 RMSDP=6.41D-06 MaxDP=2.03D-04 DE=-1.81D-05 OVMax= 1.61D-03

 Cycle  12  Pass 1  IDiag  1:
 E= -979.856493999251     Delta-E=       -0.000008843258 Rises=F Damp=F
 DIIS: error= 1.11D-04 at cycle  12 NSaved=  12.
 NSaved=12 IEnMin=12 EnMin= -979.856493999251     IErMin=12 ErrMin= 1.11D-04
 ErrMax= 1.11D-04  0.00D+00 EMaxC= 1.00D+00 BMatC= 2.63D-06 BMatP= 5.12D-06
 IDIUse=1 WtCom= 1.00D+00 WtEn= 0.00D+00
 Coeff-Com:  0.142D-02-0.437D-02-0.773D-02 0.254D-01-0.737D-01-0.290D-01
 Coeff-Com:  0.183D+00 0.259D+00-0.138D+00-0.112D+01-0.467D+00 0.237D+01
 Coeff:      0.142D-02-0.437D-02-0.773D-02 0.254D-01-0.737D-01-0.290D-01
 Coeff:      0.183D+00 0.259D+00-0.138D+00-0.112D+01-0.467D+00 0.237D+01
 Gap=     0.275 Goal=   None    Shift=    0.500
 Gap=     0.158 Goal=   None    Shift=    0.500
 RMSDP=5.06D-06 MaxDP=1.51D-04 DE=-8.84D-06 OVMax= 1.26D-03

 Cycle  13  Pass 1  IDiag  1:
 E= -979.856498508293     Delta-E=       -0.000004509041 Rises=F Damp=F
 DIIS: error= 9.27D-05 at cycle  13 NSaved=  13.
 NSaved=13 IEnMin=13 EnMin= -979.856498508293     IErMin=13 ErrMin= 9.27D-05
 ErrMax= 9.27D-05  0.00D+00 EMaxC= 1.00D+00 BMatC= 1.48D-06 BMatP= 2.63D-06
 IDIUse=1 WtCom= 1.00D+00 WtEn= 0.00D+00
 Coeff-Com:  0.326D-02-0.444D-02-0.160D-01 0.332D-01 0.111D-01-0.103D+00
 Coeff-Com: -0.173D+00 0.411D+00 0.555D+00-0.554D+00-0.151D+01 0.627D-01
 Coeff-Com:  0.229D+01
 Coeff:      0.326D-02-0.444D-02-0.160D-01 0.332D-01 0.111D-01-0.103D+00
 Coeff:     -0.173D+00 0.411D+00 0.555D+00-0.554D+00-0.151D+01 0.627D-01
 Coeff:      0.229D+01
 Gap=     0.275 Goal=   None    Shift=    0.500
 Gap=     0.158 Goal=   None    Shift=    0.500
 RMSDP=3.78D-06 MaxDP=1.31D-04 DE=-4.51D-06 OVMax= 1.01D-03

 Cycle  14  Pass 1  IDiag  1:
 E= -979.856500801802     Delta-E=       -0.000002293509 Rises=F Damp=F
 DIIS: error= 7.76D-05 at cycle  14 NSaved=  14.
 NSaved=14 IEnMin=14 EnMin= -979.856500801802     IErMin=14 ErrMin= 7.76D-05
 ErrMax= 7.76D-05  0.00D+00 EMaxC= 1.00D+00 BMatC= 7.65D-07 BMatP= 1.48D-06
 IDIUse=1 WtCom= 1.00D+00 WtEn= 0.00D+00
 Coeff-Com:  0.964D-03-0.504D-03-0.244D-02 0.191D-02 0.341D-01-0.310D-01
 Coeff-Com: -0.148D+00 0.577D-01 0.351D+00 0.222D+00-0.814D+00-0.632D+00
 Coeff-Com:  0.105D+00 0.186D+01
 Coeff:      0.964D-03-0.504D-03-0.244D-02 0.191D-02 0.341D-01-0.310D-01
 Coeff:     -0.148D+00 0.577D-01 0.351D+00 0.222D+00-0.814D+00-0.632D+00
 Coeff:      0.105D+00 0.186D+01
 Gap=     0.275 Goal=   None    Shift=    0.500
 Gap=     0.158 Goal=   None    Shift=    0.500
 RMSDP=2.63D-06 MaxDP=1.01D-04 DE=-2.29D-06 OVMax= 7.56D-04

 Cycle  15  Pass 1  IDiag  1:
 E= -979.856501940724     Delta-E=       -0.000001138922 Rises=F Damp=F
 DIIS: error= 6.89D-05 at cycle  15 NSaved=  15.
 NSaved=15 IEnMin=15 EnMin= -979.856501940724     IErMin=15 ErrMin= 6.89D-05
 ErrMax= 6.89D-05  0.00D+00 EMaxC= 1.00D+00 BMatC= 4.25D-07 BMatP= 7.65D-07
 IDIUse=1 WtCom= 1.00D+00 WtEn= 0.00D+00
 Coeff-Com: -0.157D-02 0.243D-02 0.945D-02-0.208D-01 0.682D-02 0.548D-01
 Coeff-Com:  0.535D-01-0.267D+00-0.149D+00 0.430D+00 0.474D+00-0.165D+00
 Coeff-Com: -0.179D+01 0.199D+00 0.216D+01
 Coeff:     -0.157D-02 0.243D-02 0.945D-02-0.208D-01 0.682D-02 0.548D-01
 Coeff:      0.535D-01-0.267D+00-0.149D+00 0.430D+00 0.474D+00-0.165D+00
 Coeff:     -0.179D+01 0.199D+00 0.216D+01
 Gap=     0.275 Goal=   None    Shift=    0.500
 Gap=     0.158 Goal=   None    Shift=    0.500
 RMSDP=2.03D-06 MaxDP=9.39D-05 DE=-1.14D-06 OVMax= 6.20D-04

 Cycle  16  Pass 1  IDiag  1:
 E= -979.856502600903     Delta-E=       -0.000000660179 Rises=F Damp=F
 DIIS: error= 6.13D-05 at cycle  16 NSaved=  16.
 NSaved=16 IEnMin=16 EnMin= -979.856502600903     IErMin=16 ErrMin= 6.13D-05
 ErrMax= 6.13D-05  0.00D+00 EMaxC= 1.00D+00 BMatC= 2.48D-07 BMatP= 4.25D-07
 IDIUse=1 WtCom= 1.00D+00 WtEn= 0.00D+00
 Coeff-Com: -0.956D-03 0.140D-02 0.321D-02-0.716D-02-0.102D-01 0.333D-01
 Coeff-Com:  0.717D-01-0.134D+00-0.128D+00 0.161D-01 0.451D+00 0.246D+00
 Coeff-Com: -0.956D+00-0.414D+00-0.100D+00 0.193D+01
 Coeff:     -0.956D-03 0.140D-02 0.321D-02-0.716D-02-0.102D-01 0.333D-01
 Coeff:      0.717D-01-0.134D+00-0.128D+00 0.161D-01 0.451D+00 0.246D+00
 Coeff:     -0.956D+00-0.414D+00-0.100D+00 0.193D+01
 Gap=     0.275 Goal=   None    Shift=    0.500
 Gap=     0.158 Goal=   None    Shift=    0.500
 RMSDP=1.49D-06 MaxDP=6.08D-05 DE=-6.60D-07 OVMax= 5.14D-04

 Cycle  17  Pass 1  IDiag  1:
 E= -979.856503013389     Delta-E=       -0.000000412486 Rises=F Damp=F
 DIIS: error= 5.27D-05 at cycle  17 NSaved=  17.
 NSaved=17 IEnMin=17 EnMin= -979.856503013389     IErMin=17 ErrMin= 5.27D-05
 ErrMax= 5.27D-05  0.00D+00 EMaxC= 1.00D+00 BMatC= 1.53D-07 BMatP= 2.48D-07
 IDIUse=1 WtCom= 1.00D+00 WtEn= 0.00D+00
 Coeff-Com:  0.614D-03-0.792D-03-0.572D-02 0.115D-01-0.886D-02-0.225D-01
 Coeff-Com: -0.175D-01 0.131D+00 0.982D-01-0.340D+00-0.207D+00 0.330D+00
 Coeff-Com:  0.788D+00-0.252D+00-0.185D+01-0.502D+00 0.285D+01
 Coeff:      0.614D-03-0.792D-03-0.572D-02 0.115D-01-0.886D-02-0.225D-01
 Coeff:     -0.175D-01 0.131D+00 0.982D-01-0.340D+00-0.207D+00 0.330D+00
 Coeff:      0.788D+00-0.252D+00-0.185D+01-0.502D+00 0.285D+01
 Gap=     0.275 Goal=   None    Shift=    0.500
 Gap=     0.158 Goal=   None    Shift=    0.500
 RMSDP=1.36D-06 MaxDP=6.96D-05 DE=-4.12D-07 OVMax= 4.67D-04

 Cycle  18  Pass 1  IDiag  1:
 E= -979.856503313995     Delta-E=       -0.000000300606 Rises=F Damp=F
 DIIS: error= 4.70D-05 at cycle  18 NSaved=  18.
 NSaved=18 IEnMin=18 EnMin= -979.856503313995     IErMin=18 ErrMin= 4.70D-05
 ErrMax= 4.70D-05  0.00D+00 EMaxC= 1.00D+00 BMatC= 1.13D-07 BMatP= 1.53D-07
 IDIUse=1 WtCom= 1.00D+00 WtEn= 0.00D+00
 Coeff-Com:  0.653D-03-0.853D-03-0.263D-02 0.527D-02 0.580D-02-0.176D-01
 Coeff-Com: -0.591D-01 0.882D-01 0.166D+00-0.113D+00-0.410D+00 0.727D-01
 Coeff-Com:  0.489D+00 0.550D+00-0.315D+00-0.262D+01 0.769D+00 0.239D+01
 Coeff:      0.653D-03-0.853D-03-0.263D-02 0.527D-02 0.580D-02-0.176D-01
 Coeff:     -0.591D-01 0.882D-01 0.166D+00-0.113D+00-0.410D+00 0.727D-01
 Coeff:      0.489D+00 0.550D+00-0.315D+00-0.262D+01 0.769D+00 0.239D+01
 Gap=     0.275 Goal=   None    Shift=    0.500
 Gap=     0.158 Goal=   None    Shift=    0.500
 RMSDP=1.19D-06 MaxDP=5.46D-05 DE=-3.01D-07 OVMax= 4.28D-04

 Cycle  19  Pass 1  IDiag  1:
 E= -979.856503537247     Delta-E=       -0.000000223252 Rises=F Damp=F
 DIIS: error= 4.13D-05 at cycle  19 NSaved=  19.
 NSaved=19 IEnMin=19 EnMin= -979.856503537247     IErMin=19 ErrMin= 4.13D-05
 ErrMax= 4.13D-05  0.00D+00 EMaxC= 1.00D+00 BMatC= 8.42D-08 BMatP= 1.13D-07
 IDIUse=1 WtCom= 1.00D+00 WtEn= 0.00D+00
 Coeff-Com:  0.757D-04-0.395D-05 0.653D-03-0.178D-02 0.743D-02 0.167D-02
 Coeff-Com: -0.273D-01-0.247D-01 0.940D-01 0.678D-01-0.211D+00-0.286D-03
 Coeff-Com: -0.190D+00 0.711D+00 0.534D+00-0.205D+01 0.351D-01-0.274D+00
 Coeff-Com:  0.232D+01
 Coeff:      0.757D-04-0.395D-05 0.653D-03-0.178D-02 0.743D-02 0.167D-02
 Coeff:     -0.273D-01-0.247D-01 0.940D-01 0.678D-01-0.211D+00-0.286D-03
 Coeff:     -0.190D+00 0.711D+00 0.534D+00-0.205D+01 0.351D-01-0.274D+00
 Coeff:      0.232D+01
 Gap=     0.275 Goal=   None    Shift=    0.500
 Gap=     0.158 Goal=   None    Shift=    0.500
 RMSDP=1.02D-06 MaxDP=4.56D-05 DE=-2.23D-07 OVMax= 3.85D-04

 Cycle  20  Pass 1  IDiag  1:
 E= -979.856503698092     Delta-E=       -0.000000160844 Rises=F Damp=F
 DIIS: error= 3.55D-05 at cycle  20 NSaved=  20.
 NSaved=20 IEnMin=20 EnMin= -979.856503698092     IErMin=20 ErrMin= 3.55D-05
 ErrMax= 3.55D-05  0.00D+00 EMaxC= 1.00D+00 BMatC= 6.39D-08 BMatP= 8.42D-08
 IDIUse=1 WtCom= 1.00D+00 WtEn= 0.00D+00
 Coeff-Com: -0.284D-03 0.569D-03 0.541D-03-0.197D-02-0.184D-02 0.100D-01
 Coeff-Com:  0.219D-01-0.661D-01 0.367D-02 0.288D-01 0.573D-01 0.104D+00
 Coeff-Com: -0.413D+00 0.284D+00 0.845D-01-0.736D-01 0.687D+00-0.266D+01
 Coeff-Com:  0.479D+00 0.246D+01
 Coeff:     -0.284D-03 0.569D-03 0.541D-03-0.197D-02-0.184D-02 0.100D-01
 Coeff:      0.219D-01-0.661D-01 0.367D-02 0.288D-01 0.573D-01 0.104D+00
 Coeff:     -0.413D+00 0.284D+00 0.845D-01-0.736D-01 0.687D+00-0.266D+01
 Coeff:      0.479D+00 0.246D+01
 Gap=     0.275 Goal=   None    Shift=    0.500
 Gap=     0.158 Goal=   None    Shift=    0.500
 RMSDP=9.26D-07 MaxDP=4.17D-05 DE=-1.61D-07 OVMax= 3.53D-04

 SCF Done:  E(ULC-wHPBE) =  -979.856503698     A.U. after   20 cycles
            NFock= 20  Conv=0.93D-06     -V/T= 2.0048
 <Sx>= 0.0000 <Sy>= 0.0000 <Sz>= 0.5000 <S**2>= 0.7682 S= 0.5091
 <L.S>= 0.000000000000E+00
 KE= 9.751558823247D+02 PE=-6.064372777019D+03 EE= 2.203864437718D+03
 Annihilation of the first spin contaminant:
 S**2 before annihilation     0.7682,   after     0.7503
 Leave Link  502 at Sun Jan 17 14:48:41 2021, MaxMem=  4026531840 cpu:            8349.7 elap:            1046.4
 (Enter /opt/ohpc/pub/libs/gaussian/g16-A.03/sandybridge/g16/l508.exe)
 QCSCF skips out because SCF is already converged.
 Leave Link  508 at Sun Jan 17 14:48:41 2021, MaxMem=  4026531840 cpu:               0.0 elap:               0.0
 (Enter /opt/ohpc/pub/libs/gaussian/g16-A.03/sandybridge/g16/l601.exe)
 Copying SCF densities to generalized density rwf, IOpCl= 1 IROHF=0.

 **********************************************************************

            Population analysis using the SCF density.

 **********************************************************************

 Orbital symmetries:
 Alpha Orbitals:
       Occupied  (A) (A) (A) (A) (A) (A) (A) (A) (A) (A) (A) (A)
                 (A) (A) (A) (A) (A) (A) (A) (A) (A) (A) (A) (A)
                 (A) (A) (A) (A) (A) (A) (A) (A) (A) (A) (A) (A)
                 (A) (A) (A) (A) (A) (A) (A) (A) (A) (A) (A) (A)
                 (A) (A) (A) (A) (A) (A) (A) (A) (A) (A) (A) (A)
                 (A) (A) (A) (A) (A) (A) (A) (A) (A) (A) (A) (A)
                 (A) (A) (A) (A) (A) (A) (A) (A) (A) (A) (A) (A)
                 (A)
       Virtual   (A) (A) (A) (A) (A) (A) (A) (A) (A) (A) (A) (A)
                 (A) (A) (A) (A) (A) (A) (A) (A) (A) (A) (A) (A)
                 (A) (A) (A) (A) (A) (A) (A) (A) (A) (A) (A) (A)
                 (A) (A) (A) (A) (A) (A) (A) (A) (A) (A) (A) (A)
                 (A) (A) (A) (A) (A) (A) (A) (A) (A) (A) (A) (A)
                 (A) (A) (A) (A) (A) (A) (A) (A) (A) (A) (A) (A)
                 (A) (A) (A) (A) (A) (A) (A) (A) (A) (A) (A) (A)
                 (A) (A) (A) (A) (A) (A) (A) (A) (A) (A) (A) (A)
                 (A) (A) (A) (A) (A) (A) (A) (A) (A) (A) (A) (A)
                 (A) (A) (A) (A) (A) (A) (A) (A) (A) (A) (A) (A)
                 (A) (A) (A) (A) (A) (A) (A) (A) (A) (A) (A) (A)
                 (A) (A) (A) (A) (A) (A) (A) (A) (A) (A) (A) (A)
                 (A) (A) (A) (A) (A) (A) (A) (A) (A) (A) (A) (A)
                 (A) (A) (A) (A) (A) (A) (A) (A) (A) (A) (A) (A)
                 (A) (A) (A) (A) (A) (A) (A) (A) (A) (A) (A) (A)
                 (A) (A) (A) (A) (A) (A) (A) (A) (A) (A) (A) (A)
                 (A) (A) (A) (A) (A) (A) (A) (A) (A) (A) (A) (A)
                 (A) (A) (A) (A) (A) (A) (A) (A) (A) (A) (A) (A)
                 (A) (A) (A) (A) (A) (A) (A) (A) (A) (A) (A) (A)
                 (A) (A) (A) (A) (A) (A) (A) (A) (A) (A) (A) (A)
                 (A) (A) (A) (A) (A) (A) (A) (A) (A) (A) (A) (A)
                 (A) (A) (A) (A) (A) (A) (A) (A) (A) (A) (A) (A)
                 (A) (A) (A) (A) (A) (A) (A) (A) (A) (A) (A) (A)
                 (A) (A) (A) (A) (A) (A) (A) (A) (A) (A) (A) (A)
                 (A) (A) (A) (A) (A) (A) (A) (A) (A) (A) (A) (A)
                 (A) (A) (A) (A) (A) (A) (A) (A) (A) (A) (A) (A)
                 (A) (A) (A) (A) (A) (A) (A) (A) (A) (A) (A) (A)
                 (A) (A) (A) (A) (A) (A) (A) (A) (A) (A) (A) (A)
                 (A) (A) (A) (A) (A) (A) (A) (A) (A) (A) (A) (A)
                 (A) (A) (A) (A) (A) (A) (A) (A) (A) (A) (A) (A)
                 (A) (A) (A) (A) (A) (A) (A) (A) (A) (A) (A) (A)
                 (A) (A) (A) (A) (A) (A) (A) (A) (A) (A) (A) (A)
                 (A) (A) (A) (A) (A) (A) (A) (A) (A) (A) (A) (A)
                 (A) (A) (A) (A) (A) (A) (A) (A) (A) (A) (A) (A)
                 (A) (A) (A) (A) (A) (A) (A) (A) (A) (A) (A) (A)
                 (A) (A) (A) (A) (A) (A) (A) (A) (A) (A) (A) (A)
                 (A) (A) (A) (A) (A) (A) (A) (A) (A) (A) (A) (A)
                 (A) (A) (A) (A) (A) (A) (A) (A) (A) (A) (A) (A)
                 (A) (A) (A) (A) (A) (A) (A) (A) (A) (A) (A) (A)
                 (A) (A) (A) (A) (A) (A) (A) (A) (A) (A) (A) (A)
                 (A) (A) (A) (A) (A) (A) (A) (A) (A) (A) (A) (A)
                 (A) (A) (A) (A) (A) (A) (A) (A) (A) (A) (A) (A)
 Beta  Orbitals:
       Occupied  (A) (A) (A) (A) (A) (A) (A) (A) (A) (A) (A) (A)
                 (A) (A) (A) (A) (A) (A) (A) (A) (A) (A) (A) (A)
                 (A) (A) (A) (A) (A) (A) (A) (A) (A) (A) (A) (A)
                 (A) (A) (A) (A) (A) (A) (A) (A) (A) (A) (A) (A)
                 (A) (A) (A) (A) (A) (A) (A) (A) (A) (A) (A) (A)
                 (A) (A) (A) (A) (A) (A) (A) (A) (A) (A) (A) (A)
                 (A) (A) (A) (A) (A) (A) (A) (A) (A) (A) (A) (A)
       Virtual   (A) (A) (A) (A) (A) (A) (A) (A) (A) (A) (A) (A)
                 (A) (A) (A) (A) (A) (A) (A) (A) (A) (A) (A) (A)
                 (A) (A) (A) (A) (A) (A) (A) (A) (A) (A) (A) (A)
                 (A) (A) (A) (A) (A) (A) (A) (A) (A) (A) (A) (A)
                 (A) (A) (A) (A) (A) (A) (A) (A) (A) (A) (A) (A)
                 (A) (A) (A) (A) (A) (A) (A) (A) (A) (A) (A) (A)
                 (A) (A) (A) (A) (A) (A) (A) (A) (A) (A) (A) (A)
                 (A) (A) (A) (A) (A) (A) (A) (A) (A) (A) (A) (A)
                 (A) (A) (A) (A) (A) (A) (A) (A) (A) (A) (A) (A)
                 (A) (A) (A) (A) (A) (A) (A) (A) (A) (A) (A) (A)
                 (A) (A) (A) (A) (A) (A) (A) (A) (A) (A) (A) (A)
                 (A) (A) (A) (A) (A) (A) (A) (A) (A) (A) (A) (A)
                 (A) (A) (A) (A) (A) (A) (A) (A) (A) (A) (A) (A)
                 (A) (A) (A) (A) (A) (A) (A) (A) (A) (A) (A) (A)
                 (A) (A) (A) (A) (A) (A) (A) (A) (A) (A) (A) (A)
                 (A) (A) (A) (A) (A) (A) (A) (A) (A) (A) (A) (A)
                 (A) (A) (A) (A) (A) (A) (A) (A) (A) (A) (A) (A)
                 (A) (A) (A) (A) (A) (A) (A) (A) (A) (A) (A) (A)
                 (A) (A) (A) (A) (A) (A) (A) (A) (A) (A) (A) (A)
                 (A) (A) (A) (A) (A) (A) (A) (A) (A) (A) (A) (A)
                 (A) (A) (A) (A) (A) (A) (A) (A) (A) (A) (A) (A)
                 (A) (A) (A) (A) (A) (A) (A) (A) (A) (A) (A) (A)
                 (A) (A) (A) (A) (A) (A) (A) (A) (A) (A) (A) (A)
                 (A) (A) (A) (A) (A) (A) (A) (A) (A) (A) (A) (A)
                 (A) (A) (A) (A) (A) (A) (A) (A) (A) (A) (A) (A)
                 (A) (A) (A) (A) (A) (A) (A) (A) (A) (A) (A) (A)
                 (A) (A) (A) (A) (A) (A) (A) (A) (A) (A) (A) (A)
                 (A) (A) (A) (A) (A) (A) (A) (A) (A) (A) (A) (A)
                 (A) (A) (A) (A) (A) (A) (A) (A) (A) (A) (A) (A)
                 (A) (A) (A) (A) (A) (A) (A) (A) (A) (A) (A) (A)
                 (A) (A) (A) (A) (A) (A) (A) (A) (A) (A) (A) (A)
                 (A) (A) (A) (A) (A) (A) (A) (A) (A) (A) (A) (A)
                 (A) (A) (A) (A) (A) (A) (A) (A) (A) (A) (A) (A)
                 (A) (A) (A) (A) (A) (A) (A) (A) (A) (A) (A) (A)
                 (A) (A) (A) (A) (A) (A) (A) (A) (A) (A) (A) (A)
                 (A) (A) (A) (A) (A) (A) (A) (A) (A) (A) (A) (A)
                 (A) (A) (A) (A) (A) (A) (A) (A) (A) (A) (A) (A)
                 (A) (A) (A) (A) (A) (A) (A) (A) (A) (A) (A) (A)
                 (A) (A) (A) (A) (A) (A) (A) (A) (A) (A) (A) (A)
                 (A) (A) (A) (A) (A) (A) (A) (A) (A) (A) (A) (A)
                 (A) (A) (A) (A) (A) (A) (A) (A) (A) (A) (A) (A)
                 (A) (A) (A) (A) (A) (A) (A) (A) (A) (A) (A) (A)
                 (A)
 The electronic state is 2-A.
 Alpha  occ. eigenvalues --  -14.32544 -10.18079 -10.17839 -10.17838 -10.13872
 Alpha  occ. eigenvalues --  -10.13502 -10.13501 -10.13292 -10.13291 -10.13245
 Alpha  occ. eigenvalues --  -10.13244 -10.12423 -10.12423 -10.12257 -10.12255
 Alpha  occ. eigenvalues --  -10.12168 -10.12168 -10.12158 -10.12158 -10.10510
 Alpha  occ. eigenvalues --  -10.09001 -10.08999 -10.08335 -10.08277 -10.08264
 Alpha  occ. eigenvalues --   -1.16947  -1.03639  -1.03166  -1.01454  -0.98824
 Alpha  occ. eigenvalues --   -0.94560  -0.93952  -0.91958  -0.91939  -0.91743
 Alpha  occ. eigenvalues --   -0.90046  -0.87743  -0.86879  -0.81727  -0.81496
 Alpha  occ. eigenvalues --   -0.79101  -0.78280  -0.78170  -0.75595  -0.74230
 Alpha  occ. eigenvalues --   -0.73647  -0.72696  -0.72553  -0.68624  -0.67420
 Alpha  occ. eigenvalues --   -0.66858  -0.66666  -0.64021  -0.63973  -0.63621
 Alpha  occ. eigenvalues --   -0.61895  -0.61755  -0.61188  -0.60844  -0.60527
 Alpha  occ. eigenvalues --   -0.60312  -0.59903  -0.58914  -0.58128  -0.57313
 Alpha  occ. eigenvalues --   -0.57278  -0.56304  -0.55218  -0.54690  -0.54405
 Alpha  occ. eigenvalues --   -0.54054  -0.52982  -0.52547  -0.52467  -0.51386
 Alpha  occ. eigenvalues --   -0.49327  -0.48677  -0.46875  -0.46520  -0.46205
 Alpha  occ. eigenvalues --   -0.45040  -0.44961  -0.41904  -0.41275  -0.39321
 Alpha virt. eigenvalues --   -0.11796  -0.11058  -0.10950  -0.08812  -0.08639
 Alpha virt. eigenvalues --   -0.07380  -0.05609  -0.04166  -0.01509   0.00058
 Alpha virt. eigenvalues --    0.00381   0.01707   0.01811   0.02541   0.02657
 Alpha virt. eigenvalues --    0.03138   0.03827   0.04568   0.04734   0.05021
 Alpha virt. eigenvalues --    0.05387   0.05442   0.05866   0.06318   0.06599
 Alpha virt. eigenvalues --    0.07621   0.07848   0.08088   0.08640   0.09702
 Alpha virt. eigenvalues --    0.09931   0.10264   0.10512   0.12024   0.12111
 Alpha virt. eigenvalues --    0.12447   0.13204   0.13277   0.13544   0.13648
 Alpha virt. eigenvalues --    0.14562   0.15033   0.15828   0.15872   0.16303
 Alpha virt. eigenvalues --    0.16688   0.16721   0.17176   0.17606   0.17618
 Alpha virt. eigenvalues --    0.17832   0.17987   0.18429   0.18679   0.19542
 Alpha virt. eigenvalues --    0.19754   0.19987   0.20464   0.21061   0.21212
 Alpha virt. eigenvalues --    0.21312   0.21626   0.21632   0.22039   0.22483
 Alpha virt. eigenvalues --    0.22949   0.23616   0.23796   0.24465   0.25183
 Alpha virt. eigenvalues --    0.25361   0.25371   0.25819   0.25964   0.26903
 Alpha virt. eigenvalues --    0.27724   0.27899   0.28556   0.29106   0.29162
 Alpha virt. eigenvalues --    0.29612   0.29966   0.30125   0.30941   0.31494
 Alpha virt. eigenvalues --    0.31888   0.31936   0.32301   0.32472   0.32613
 Alpha virt. eigenvalues --    0.32843   0.33312   0.34209   0.34374   0.34605
 Alpha virt. eigenvalues --    0.34952   0.35864   0.36071   0.36548   0.36794
 Alpha virt. eigenvalues --    0.36908   0.36979   0.37341   0.37958   0.38354
 Alpha virt. eigenvalues --    0.38468   0.39005   0.39489   0.39689   0.39794
 Alpha virt. eigenvalues --    0.39845   0.40415   0.41163   0.41462   0.41752
 Alpha virt. eigenvalues --    0.41864   0.42143   0.42703   0.43145   0.43355
 Alpha virt. eigenvalues --    0.43958   0.44062   0.44536   0.45081   0.45338
 Alpha virt. eigenvalues --    0.45904   0.46674   0.46743   0.47056   0.48024
 Alpha virt. eigenvalues --    0.48664   0.48872   0.48888   0.49118   0.50447
 Alpha virt. eigenvalues --    0.51042   0.51198   0.53246   0.53831   0.54311
 Alpha virt. eigenvalues --    0.55168   0.55732   0.56975   0.57080   0.58492
 Alpha virt. eigenvalues --    0.59398   0.59571   0.60675   0.61106   0.61773
 Alpha virt. eigenvalues --    0.61883   0.62152   0.62318   0.62658   0.63564
 Alpha virt. eigenvalues --    0.64200   0.64953   0.65307   0.65651   0.65903
 Alpha virt. eigenvalues --    0.67096   0.67978   0.69299   0.69313   0.70505
 Alpha virt. eigenvalues --    0.70591   0.71120   0.72809   0.74880   0.76497
 Alpha virt. eigenvalues --    0.76514   0.78052   0.78371   0.78727   0.83687
 Alpha virt. eigenvalues --    0.84474   0.85263   0.86710   1.03908   1.06006
 Alpha virt. eigenvalues --    1.06386   1.10577   1.11142   1.12676   1.13339
 Alpha virt. eigenvalues --    1.13438   1.14347   1.14630   1.15941   1.16089
 Alpha virt. eigenvalues --    1.16346   1.16933   1.17186   1.18095   1.18113
 Alpha virt. eigenvalues --    1.18607   1.18980   1.19594   1.19603   1.19942
 Alpha virt. eigenvalues --    1.20292   1.20971   1.21157   1.21505   1.21617
 Alpha virt. eigenvalues --    1.22531   1.22697   1.23180   1.23729   1.23983
 Alpha virt. eigenvalues --    1.24210   1.24735   1.24835   1.25269   1.26133
 Alpha virt. eigenvalues --    1.26150   1.26626   1.28463   1.31810   1.32196
 Alpha virt. eigenvalues --    1.32801   1.33248   1.33774   1.34075   1.34259
 Alpha virt. eigenvalues --    1.34450   1.34457   1.35135   1.35358   1.35604
 Alpha virt. eigenvalues --    1.35928   1.36492   1.36804   1.37102   1.37384
 Alpha virt. eigenvalues --    1.37597   1.38366   1.38469   1.38752   1.38867
 Alpha virt. eigenvalues --    1.39781   1.40092   1.40308   1.40760   1.41569
 Alpha virt. eigenvalues --    1.41657   1.41973   1.42111   1.42326   1.42662
 Alpha virt. eigenvalues --    1.43039   1.44410   1.44728   1.44759   1.45267
 Alpha virt. eigenvalues --    1.45481   1.45489   1.46122   1.46769   1.47134
 Alpha virt. eigenvalues --    1.47499   1.47501   1.47655   1.48365   1.48443
 Alpha virt. eigenvalues --    1.48899   1.49119   1.50455   1.50667   1.52199
 Alpha virt. eigenvalues --    1.52758   1.55035   1.56489   1.56637   1.57867
 Alpha virt. eigenvalues --    1.58110   1.59113   1.60488   1.60825   1.64655
 Alpha virt. eigenvalues --    1.65481   1.65672   1.66608   1.66785   1.67720
 Alpha virt. eigenvalues --    1.67881   1.68597   1.68992   1.69154   1.69611
 Alpha virt. eigenvalues --    1.70322   1.71231   1.71425   1.71718   1.71763
 Alpha virt. eigenvalues --    1.72047   1.72547   1.73684   1.74069   1.74327
 Alpha virt. eigenvalues --    1.75842   1.77268   1.77916   1.78310   1.78724
 Alpha virt. eigenvalues --    1.79011   1.80768   1.80995   1.81302   1.81350
 Alpha virt. eigenvalues --    1.81700   1.81795   1.81839   1.82251   1.82725
 Alpha virt. eigenvalues --    1.82792   1.83039   1.83166   1.83752   1.83921
 Alpha virt. eigenvalues --    1.84481   1.85115   1.86714   1.87338   1.87721
 Alpha virt. eigenvalues --    1.87880   1.88570   1.88783   1.89366   1.89772
 Alpha virt. eigenvalues --    1.90834   1.92228   1.92717   1.93332   1.93821
 Alpha virt. eigenvalues --    1.94646   1.95296   1.96567   1.97755   2.00415
 Alpha virt. eigenvalues --    2.00773   2.02080   2.03047   2.03942   2.08247
 Alpha virt. eigenvalues --    2.08248   2.10632   2.11692   2.12412   2.15145
 Alpha virt. eigenvalues --    2.16435   2.18570   2.18687   2.19342   2.19736
 Alpha virt. eigenvalues --    2.19855   2.20057   2.20494   2.20783   2.21157
 Alpha virt. eigenvalues --    2.21404   2.22797   2.23051   2.23708   2.24237
 Alpha virt. eigenvalues --    2.24953   2.25470   2.25598   2.25953   2.26301
 Alpha virt. eigenvalues --    2.26309   2.26714   2.26927   2.27231   2.27799
 Alpha virt. eigenvalues --    2.29573   2.30509   2.32980   2.34070   2.34548
 Alpha virt. eigenvalues --    2.39159   2.39341   2.40597   2.41005   2.41522
 Alpha virt. eigenvalues --    2.41938   2.42516   2.42798   2.44054   2.44535
 Alpha virt. eigenvalues --    2.44697   2.46329   2.46499   2.48413   2.48895
 Alpha virt. eigenvalues --    2.52093   2.52430   2.53142   2.53296   2.53926
 Alpha virt. eigenvalues --    2.54230   2.55164   2.55540   2.55993   2.56459
 Alpha virt. eigenvalues --    2.57214   2.57378   2.57417   2.60491   2.61920
 Alpha virt. eigenvalues --    2.63074   2.63162   2.63308   2.64356   2.64838
 Alpha virt. eigenvalues --    2.66720   2.66729   2.68584   2.70879   2.72138
 Alpha virt. eigenvalues --    2.73301   2.73548   2.73655   2.74237   2.75311
 Alpha virt. eigenvalues --    2.79213   2.83430   2.83953   2.87053   2.88382
 Alpha virt. eigenvalues --    2.90940   2.91270   2.92036   2.92369   2.93062
 Alpha virt. eigenvalues --    2.93817   2.94604   2.94975   2.96077   2.96490
 Alpha virt. eigenvalues --    2.97541   2.99076   2.99533   3.00934   3.01197
 Alpha virt. eigenvalues --    3.03078   3.04218   3.05693   3.06008   3.06153
 Alpha virt. eigenvalues --    3.06710   3.08265   3.09220   3.09273   3.10344
 Alpha virt. eigenvalues --    3.11079   3.12639   3.12770   3.17018   3.19009
 Alpha virt. eigenvalues --    3.21574   3.22242   3.22685   3.26216   3.26620
 Alpha virt. eigenvalues --    3.29205   3.30072   3.32441   3.32838   3.41485
 Alpha virt. eigenvalues --    3.43380   3.44478   3.46105   3.46854   3.48295
 Alpha virt. eigenvalues --    3.66233   3.72147   3.78483   3.79081  20.98511
 Alpha virt. eigenvalues --   21.07177  21.08945  21.21260  21.50806  21.54828
 Alpha virt. eigenvalues --   21.57688  21.57708  21.60794  21.60986  21.66652
 Alpha virt. eigenvalues --   21.73331  21.76957  21.81111  21.82808  21.83473
 Alpha virt. eigenvalues --   21.84641  21.87020  21.88852  21.90089  21.94801
 Alpha virt. eigenvalues --   21.98647  22.00419  22.01508  31.84672
  Beta  occ. eigenvalues --  -14.31723 -10.18093 -10.17888 -10.17886 -10.13683
  Beta  occ. eigenvalues --  -10.13364 -10.13363 -10.13154 -10.13154 -10.13111
  Beta  occ. eigenvalues --  -10.13110 -10.12309 -10.12307 -10.12278 -10.12278
  Beta  occ. eigenvalues --  -10.12224 -10.12224 -10.12207 -10.12207 -10.10528
  Beta  occ. eigenvalues --  -10.08964 -10.08962 -10.08314 -10.08291 -10.08260
  Beta  occ. eigenvalues --   -1.15893  -1.03406  -1.02971  -1.01184  -0.98714
  Beta  occ. eigenvalues --   -0.94338  -0.93757  -0.91812  -0.91788  -0.91598
  Beta  occ. eigenvalues --   -0.89722  -0.87704  -0.86610  -0.81472  -0.81256
  Beta  occ. eigenvalues --   -0.78853  -0.78119  -0.78053  -0.75434  -0.74172
  Beta  occ. eigenvalues --   -0.73564  -0.72523  -0.72399  -0.68509  -0.67288
  Beta  occ. eigenvalues --   -0.66603  -0.65975  -0.63897  -0.63867  -0.63530
  Beta  occ. eigenvalues --   -0.61817  -0.61616  -0.61056  -0.60713  -0.60417
  Beta  occ. eigenvalues --   -0.60242  -0.59772  -0.58874  -0.57499  -0.56965
  Beta  occ. eigenvalues --   -0.56854  -0.56190  -0.55136  -0.54311  -0.54078
  Beta  occ. eigenvalues --   -0.53819  -0.52777  -0.52450  -0.52368  -0.50383
  Beta  occ. eigenvalues --   -0.49284  -0.48534  -0.45853  -0.45836  -0.45548
  Beta  occ. eigenvalues --   -0.44560  -0.44505  -0.41193  -0.40195
  Beta virt. eigenvalues --   -0.24413  -0.11120  -0.10678  -0.10421  -0.08314
  Beta virt. eigenvalues --   -0.08220  -0.06482  -0.05512  -0.03684  -0.01414
  Beta virt. eigenvalues --    0.00126   0.00458   0.01765   0.01870   0.02611
  Beta virt. eigenvalues --    0.02698   0.03191   0.03931   0.04708   0.04833
  Beta virt. eigenvalues --    0.05260   0.05566   0.05569   0.05902   0.06394
  Beta virt. eigenvalues --    0.06827   0.07682   0.07888   0.08225   0.08926
  Beta virt. eigenvalues --    0.09812   0.09971   0.10385   0.10591   0.12128
  Beta virt. eigenvalues --    0.12286   0.12581   0.13329   0.13462   0.13657
  Beta virt. eigenvalues --    0.13776   0.14669   0.15114   0.15968   0.16021
  Beta virt. eigenvalues --    0.16443   0.16819   0.16858   0.17301   0.17666
  Beta virt. eigenvalues --    0.17699   0.17872   0.18061   0.18527   0.18770
  Beta virt. eigenvalues --    0.19590   0.19813   0.20075   0.20501   0.21136
  Beta virt. eigenvalues --    0.21318   0.21377   0.21675   0.21812   0.22134
  Beta virt. eigenvalues --    0.22594   0.23096   0.23816   0.23987   0.24540
  Beta virt. eigenvalues --    0.25304   0.25476   0.25531   0.25941   0.26129
  Beta virt. eigenvalues --    0.27065   0.27865   0.28130   0.28693   0.29216
  Beta virt. eigenvalues --    0.29248   0.29769   0.30132   0.30274   0.31084
  Beta virt. eigenvalues --    0.31604   0.31977   0.32077   0.32433   0.32575
  Beta virt. eigenvalues --    0.32745   0.32978   0.33464   0.34359   0.34477
  Beta virt. eigenvalues --    0.34754   0.35083   0.35951   0.36222   0.36566
  Beta virt. eigenvalues --    0.36890   0.36938   0.37074   0.37407   0.38050
  Beta virt. eigenvalues --    0.38399   0.38555   0.39101   0.39583   0.39822
  Beta virt. eigenvalues --    0.39875   0.39933   0.40555   0.41223   0.41544
  Beta virt. eigenvalues --    0.41834   0.41920   0.42255   0.42820   0.43290
  Beta virt. eigenvalues --    0.43431   0.44090   0.44134   0.44659   0.45182
  Beta virt. eigenvalues --    0.45439   0.45994   0.46730   0.46807   0.47146
  Beta virt. eigenvalues --    0.48106   0.48759   0.48970   0.49001   0.49240
  Beta virt. eigenvalues --    0.50575   0.51147   0.51319   0.53333   0.53921
  Beta virt. eigenvalues --    0.54450   0.55307   0.55833   0.57067   0.57174
  Beta virt. eigenvalues --    0.58610   0.59485   0.59684   0.60779   0.61219
  Beta virt. eigenvalues --    0.61863   0.62066   0.62226   0.62418   0.62796
  Beta virt. eigenvalues --    0.63622   0.64290   0.65082   0.65368   0.65766
  Beta virt. eigenvalues --    0.65958   0.67184   0.68140   0.69385   0.69425
  Beta virt. eigenvalues --    0.70589   0.70680   0.71225   0.73183   0.75304
  Beta virt. eigenvalues --    0.76588   0.76949   0.78161   0.78464   0.78844
  Beta virt. eigenvalues --    0.83811   0.84570   0.85378   0.86898   1.04015
  Beta virt. eigenvalues --    1.06093   1.06479   1.10713   1.11239   1.12823
  Beta virt. eigenvalues --    1.13497   1.13603   1.14435   1.14737   1.16107
  Beta virt. eigenvalues --    1.16211   1.16502   1.17113   1.17357   1.18252
  Beta virt. eigenvalues --    1.18300   1.18716   1.19081   1.19703   1.19731
  Beta virt. eigenvalues --    1.20014   1.20366   1.21118   1.21286   1.21644
  Beta virt. eigenvalues --    1.21711   1.22604   1.22832   1.23264   1.23978
  Beta virt. eigenvalues --    1.24079   1.24303   1.24771   1.25027   1.25463
  Beta virt. eigenvalues --    1.26183   1.26191   1.26774   1.28541   1.32103
  Beta virt. eigenvalues --    1.32407   1.32933   1.33717   1.33873   1.34359
  Beta virt. eigenvalues --    1.34461   1.34596   1.34693   1.35469   1.35476
  Beta virt. eigenvalues --    1.35661   1.36029   1.36594   1.36935   1.37326
  Beta virt. eigenvalues --    1.37622   1.37796   1.38463   1.38525   1.38736
  Beta virt. eigenvalues --    1.39001   1.39854   1.40203   1.40461   1.40901
  Beta virt. eigenvalues --    1.41741   1.41861   1.42092   1.42181   1.42568
  Beta virt. eigenvalues --    1.42815   1.43110   1.44492   1.44797   1.44829
  Beta virt. eigenvalues --    1.45432   1.45624   1.45678   1.46203   1.46933
  Beta virt. eigenvalues --    1.47394   1.47660   1.47714   1.47793   1.48530
  Beta virt. eigenvalues --    1.48653   1.49039   1.49206   1.50677   1.50815
  Beta virt. eigenvalues --    1.52364   1.52958   1.55181   1.56673   1.56811
  Beta virt. eigenvalues --    1.58004   1.58196   1.59192   1.60624   1.60912
  Beta virt. eigenvalues --    1.64848   1.65710   1.65933   1.66909   1.67122
  Beta virt. eigenvalues --    1.67897   1.68194   1.68576   1.69165   1.69257
  Beta virt. eigenvalues --    1.69773   1.70422   1.71401   1.71476   1.71860
  Beta virt. eigenvalues --    1.71907   1.72228   1.72648   1.73904   1.74156
  Beta virt. eigenvalues --    1.74492   1.76149   1.77422   1.78129   1.78528
  Beta virt. eigenvalues --    1.78936   1.79181   1.80927   1.81147   1.81419
  Beta virt. eigenvalues --    1.81432   1.81840   1.81912   1.81971   1.82395
  Beta virt. eigenvalues --    1.82809   1.82936   1.83161   1.83234   1.83864
  Beta virt. eigenvalues --    1.84164   1.84570   1.85217   1.86795   1.87483
  Beta virt. eigenvalues --    1.87881   1.88002   1.88783   1.88964   1.89506
  Beta virt. eigenvalues --    1.90041   1.91034   1.92411   1.92803   1.93622
  Beta virt. eigenvalues --    1.93949   1.94852   1.95387   1.96760   1.97972
  Beta virt. eigenvalues --    2.00635   2.00869   2.02302   2.03176   2.04305
  Beta virt. eigenvalues --    2.08546   2.08564   2.11297   2.12136   2.13005
  Beta virt. eigenvalues --    2.15603   2.16595   2.18730   2.18970   2.19518
  Beta virt. eigenvalues --    2.20041   2.20144   2.20275   2.20668   2.21019
  Beta virt. eigenvalues --    2.21332   2.21616   2.23052   2.23365   2.23942
  Beta virt. eigenvalues --    2.24504   2.25214   2.25637   2.25756   2.26158
  Beta virt. eigenvalues --    2.26488   2.26505   2.26867   2.27205   2.27376
  Beta virt. eigenvalues --    2.27947   2.29632   2.30748   2.33281   2.34263
  Beta virt. eigenvalues --    2.35063   2.39300   2.39541   2.40652   2.41031
  Beta virt. eigenvalues --    2.41746   2.42154   2.42575   2.42841   2.44164
  Beta virt. eigenvalues --    2.44703   2.45100   2.46400   2.46723   2.48643
  Beta virt. eigenvalues --    2.49337   2.52311   2.52685   2.53402   2.53577
  Beta virt. eigenvalues --    2.54069   2.54386   2.55362   2.56074   2.56097
  Beta virt. eigenvalues --    2.56750   2.57331   2.57567   2.57625   2.60536
  Beta virt. eigenvalues --    2.62063   2.63445   2.63580   2.63654   2.64681
  Beta virt. eigenvalues --    2.65172   2.67091   2.67463   2.68655   2.70992
[...]
    40  H(1)              -0.00118      -5.26334      -1.87809      -1.75566
    41  H(1)              -0.00116      -5.20248      -1.85637      -1.73536
    42  H(1)               0.00076       3.41731       1.21938       1.13989
    43  H(1)               0.00083       3.72770       1.33013       1.24343
    44  H(1)              -0.00167      -7.45419      -2.65984      -2.48645
 --------------------------------------------------------
       Center         ----  Spin Dipole Couplings  ----
                      3XX-RR        3YY-RR        3ZZ-RR
 --------------------------------------------------------
     1   Atom        0.007025      0.004654     -0.011679
     2   Atom       -0.015260     -0.017367      0.032627
     3   Atom       -0.011014     -0.013421      0.024435
     4   Atom        0.007025      0.004654     -0.011679
     5   Atom        0.005620      0.003980     -0.009600
     6   Atom       -0.011017     -0.013425      0.024441
     7   Atom        0.002592     -0.002275     -0.000317
     8   Atom       -0.000206      0.001678     -0.001472
     9   Atom        0.000761     -0.000025     -0.000736
    10   Atom       -0.000206      0.001678     -0.001472
    11   Atom       -0.075270     -0.003688      0.078958
    12   Atom        0.020578     -0.002609     -0.017968
    13   Atom        0.020570     -0.002603     -0.017967
    14   Atom       -0.054714      0.056787     -0.002073
    15   Atom       -0.054713      0.056799     -0.002086
    16   Atom        0.000235     -0.023337      0.023102
    17   Atom        0.001520     -0.000700     -0.000820
    18   Atom        0.001519     -0.000700     -0.000819
    19   Atom       -0.003130      0.002646      0.000484
    20   Atom       -0.003130      0.002645      0.000484
    21   Atom        0.000761     -0.000025     -0.000736
    22   Atom       -0.504898     -0.505245      1.010143
    23   Atom       -0.010439      0.005174      0.005265
    24   Atom        0.042540     -0.040755     -0.001785
    25   Atom        0.015070     -0.010775     -0.004294
    26   Atom        0.003563      0.014650     -0.018213
    27   Atom        0.000510      0.018157     -0.018667
    28   Atom       -0.013624     -0.045221      0.058846
    29   Atom        0.000254     -0.000463      0.000209
    30   Atom        0.001827     -0.002179      0.000352
    31   Atom       -0.000615      0.001521     -0.000907
    32   Atom        0.000152      0.000811     -0.000963
    33   Atom       -0.001795      0.005669     -0.003874
    34   Atom       -0.010408      0.005150      0.005258
    35   Atom        0.042465     -0.040741     -0.001724
    36   Atom        0.015042     -0.010756     -0.004286
    37   Atom        0.003578      0.014648     -0.018226
    38   Atom        0.000530      0.018153     -0.018684
    39   Atom       -0.013683     -0.045207      0.058890
    40   Atom        0.000258     -0.000465      0.000207
    41   Atom        0.001831     -0.002181      0.000350
    42   Atom       -0.000614      0.001521     -0.000907
    43   Atom        0.000153      0.000810     -0.000963
    44   Atom       -0.001797      0.005670     -0.003873
 --------------------------------------------------------
                        XY            XZ            YZ
 --------------------------------------------------------
     1   Atom       -0.000077      0.001331      0.000073
     2   Atom        0.000000     -0.000001     -0.000890
     3   Atom       -0.002658      0.008820     -0.007146
     4   Atom        0.000077     -0.001329      0.000073
     5   Atom       -0.000000      0.000000      0.005890
     6   Atom        0.002658     -0.008824     -0.007148
     7   Atom       -0.000000      0.000000     -0.000087
     8   Atom        0.000073     -0.000095     -0.000637
     9   Atom       -0.000089     -0.000060      0.000081
    10   Atom       -0.000073      0.000095     -0.000637
    11   Atom       -0.000012     -0.000018      0.111276
    12   Atom        0.001771      0.002887     -0.026376
    13   Atom       -0.001769     -0.002884     -0.026363
    14   Atom        0.015758      0.006867      0.077013
    15   Atom       -0.015777     -0.006877      0.077005
    16   Atom        0.000017      0.000034      0.007502
    17   Atom       -0.000357      0.000497     -0.001885
    18   Atom        0.000356     -0.000496     -0.001886
    19   Atom       -0.001221      0.001814     -0.005757
    20   Atom        0.001223     -0.001816     -0.005757
    21   Atom        0.000090      0.000060      0.000081
    22   Atom        0.000001      0.000092      0.013321
    23   Atom        0.016634     -0.010156      0.008800
    24   Atom       -0.036628      0.068297     -0.030101
    25   Atom       -0.056586      0.061427     -0.043884
    26   Atom        0.013129     -0.024359      0.016946
    27   Atom        0.011921     -0.027805      0.013148
    28   Atom       -0.027448      0.081252     -0.047086
    29   Atom       -0.002593     -0.003650      0.004035
    30   Atom       -0.001183     -0.005377      0.001109
    31   Atom        0.001002     -0.000983      0.001034
    32   Atom        0.001566     -0.001363      0.000299
    33   Atom        0.006508      0.003215     -0.001883
    34   Atom       -0.016648      0.010128      0.008857
    35   Atom        0.036631     -0.068318     -0.030134
    36   Atom        0.056599     -0.061424     -0.043905
    37   Atom       -0.013129      0.024356      0.016960
    38   Atom       -0.011919      0.027796      0.013157
    39   Atom        0.027449     -0.081227     -0.047119
    40   Atom        0.002594      0.003651      0.004033
    41   Atom        0.001181      0.005378      0.001106
    42   Atom       -0.001002      0.000982      0.001035
    43   Atom       -0.001566      0.001363      0.000300
    44   Atom       -0.006509     -0.003216     -0.001880
 --------------------------------------------------------


 ---------------------------------------------------------------------------------
              Anisotropic Spin Dipole Couplings in Principal Axis System
 ---------------------------------------------------------------------------------

       Atom             a.u.   MegaHertz   Gauss  10(-4) cm-1        Axes

              Baa    -0.0118    -1.580    -0.564    -0.527 -0.0706 -0.0047  0.9975
     1 C(13)  Bbb     0.0047     0.624     0.223     0.208  0.0286  0.9996  0.0068
              Bcc     0.0071     0.956     0.341     0.319  0.9971 -0.0290  0.0705
 
              Baa    -0.0174    -2.333    -0.832    -0.778 -0.0000  0.9998  0.0178
     2 C(13)  Bbb    -0.0153    -2.048    -0.731    -0.683  1.0000  0.0000  0.0000
              Bcc     0.0326     4.380     1.563     1.461 -0.0000 -0.0178  0.9998
 
              Baa    -0.0152    -2.042    -0.729    -0.681  0.4292  0.9007  0.0669
     3 C(13)  Bbb    -0.0127    -1.701    -0.607    -0.567  0.8737 -0.3952 -0.2837
              Bcc     0.0279     3.743     1.336     1.249  0.2292 -0.1802  0.9566
 
              Baa    -0.0118    -1.580    -0.564    -0.527  0.0705 -0.0048  0.9975
     4 C(13)  Bbb     0.0047     0.624     0.223     0.208 -0.0285  0.9996  0.0068
              Bcc     0.0071     0.956     0.341     0.319  0.9971  0.0289 -0.0704
 
              Baa    -0.0118    -1.583    -0.565    -0.528 -0.0000 -0.3497  0.9369
     5 C(13)  Bbb     0.0056     0.754     0.269     0.252  1.0000  0.0001  0.0000
              Bcc     0.0062     0.829     0.296     0.277 -0.0001  0.9369  0.3497
 
              Baa    -0.0152    -2.043    -0.729    -0.681 -0.4292  0.9007  0.0668
     6 C(13)  Bbb    -0.0127    -1.702    -0.607    -0.568  0.8737  0.3952  0.2838
              Bcc     0.0279     3.744     1.336     1.249 -0.2292 -0.1802  0.9566
 
              Baa    -0.0023    -1.216    -0.434    -0.406  0.0000  0.9990  0.0442
     7 H(1)   Bbb    -0.0003    -0.167    -0.060    -0.056 -0.0000 -0.0442  0.9990
              Bcc     0.0026     1.383     0.494     0.461  1.0000 -0.0000  0.0000
 
              Baa    -0.0016    -0.854    -0.305    -0.285  0.0568  0.1893  0.9803
     8 H(1)   Bbb    -0.0002    -0.109    -0.039    -0.037  0.9974 -0.0546 -0.0472
              Bcc     0.0018     0.964     0.344     0.321  0.0446  0.9804 -0.1919
 
              Baa    -0.0007    -0.398    -0.142    -0.133  0.0330 -0.1075  0.9937
     9 H(1)   Bbb    -0.0000    -0.015    -0.005    -0.005  0.1199  0.9874  0.1029
              Bcc     0.0008     0.413     0.147     0.138  0.9922 -0.1158 -0.0455
 
              Baa    -0.0016    -0.854    -0.305    -0.285 -0.0567  0.1892  0.9803
    10 H(1)   Bbb    -0.0002    -0.110    -0.039    -0.037  0.9974  0.0547  0.0472
              Bcc     0.0018     0.964     0.344     0.322 -0.0447  0.9804 -0.1919
 
              Baa    -0.0811   -10.878    -3.882    -3.629 -0.0000  0.8210 -0.5709
    11 C(13)  Bbb    -0.0753   -10.101    -3.604    -3.369  1.0000  0.0001  0.0001
              Bcc     0.1563    20.979     7.486     6.998 -0.0001  0.5709  0.8210
 
              Baa    -0.0380    -5.093    -1.817    -1.699 -0.0575  0.5989  0.7987
    12 C(13)  Bbb     0.0172     2.302     0.821     0.768  0.0869  0.8000 -0.5936
              Bcc     0.0208     2.791     0.996     0.931  0.9946 -0.0353  0.0981
 
              Baa    -0.0379    -5.091    -1.817    -1.698  0.0575  0.5988  0.7988
    13 C(13)  Bbb     0.0171     2.301     0.821     0.768 -0.0866  0.8001 -0.5936
              Bcc     0.0208     2.790     0.996     0.931  0.9946  0.0351 -0.0978
 
              Baa    -0.0591    -7.929    -2.829    -2.645  0.7711 -0.4219  0.4770
    14 C(13)  Bbb    -0.0524    -7.035    -2.510    -2.347 -0.6287 -0.3855  0.6754
              Bcc     0.1115    14.964     5.340     4.992  0.1010  0.8206  0.5625
 
              Baa    -0.0591    -7.929    -2.829    -2.645  0.7713  0.4217 -0.4767
    15 C(13)  Bbb    -0.0524    -7.035    -2.510    -2.347  0.6284 -0.3856  0.6756
              Bcc     0.1115    14.964     5.340     4.992 -0.1012  0.8207  0.5624
 
              Baa    -0.0245    -3.290    -1.174    -1.097 -0.0005  0.9878 -0.1556
    16 C(13)  Bbb     0.0002     0.031     0.011     0.011  1.0000  0.0002 -0.0016
              Bcc     0.0243     3.259     1.163     1.087  0.0015  0.1556  0.9878
 
              Baa    -0.0026    -1.413    -0.504    -0.471 -0.0267  0.6925  0.7209
    17 H(1)   Bbb     0.0007     0.369     0.132     0.123  0.5857  0.5952 -0.5502
              Bcc     0.0020     1.045     0.373     0.348  0.8101 -0.4075  0.4215
 
              Baa    -0.0026    -1.413    -0.504    -0.471  0.0266  0.6926  0.7209
    18 H(1)   Bbb     0.0007     0.369     0.132     0.123 -0.5860  0.5950 -0.5501
              Bcc     0.0020     1.044     0.373     0.348  0.8099  0.4078 -0.4216
 
              Baa    -0.0046    -2.469    -0.881    -0.824 -0.4764  0.4951  0.7266
    19 H(1)   Bbb    -0.0032    -1.706    -0.609    -0.569  0.8588  0.4393  0.2638
              Bcc     0.0078     4.175     1.490     1.393 -0.1886  0.7496 -0.6344
 
              Baa    -0.0046    -2.469    -0.881    -0.824  0.4765  0.4950  0.7266
    20 H(1)   Bbb    -0.0032    -1.706    -0.609    -0.569  0.8587 -0.4395 -0.2637
              Bcc     0.0078     4.175     1.490     1.393  0.1888  0.7496 -0.6344
 
              Baa    -0.0007    -0.398    -0.142    -0.133 -0.0331 -0.1075  0.9937
    21 H(1)   Bbb    -0.0000    -0.015    -0.005    -0.005 -0.1200  0.9874  0.1028
              Bcc     0.0008     0.413     0.147     0.138  0.9922  0.1159  0.0456
 
              Baa    -0.5054   -19.491    -6.955    -6.501 -0.0013  1.0000 -0.0088
    22 N(14)  Bbb    -0.5049   -19.473    -6.948    -6.495  1.0000  0.0013 -0.0001
              Bcc     1.0103    38.963    13.903    12.997  0.0001  0.0088  1.0000
 
              Baa    -0.0266    -3.566    -1.272    -1.189  0.7687 -0.5098  0.3861
    23 C(13)  Bbb     0.0102     1.371     0.489     0.457 -0.4819 -0.0648  0.8738
              Bcc     0.0164     2.195     0.783     0.732  0.4205  0.8578  0.2955
 
              Baa    -0.0571    -7.668    -2.736    -2.558 -0.0286  0.8629  0.5045
    24 C(13)  Bbb    -0.0502    -6.733    -2.402    -2.246 -0.6407 -0.4033  0.6534
              Bcc     0.1073    14.400     5.138     4.803  0.7673 -0.3045  0.5644
 
              Baa    -0.0584    -7.842    -2.798    -2.616  0.7502  0.4217 -0.5093
    25 C(13)  Bbb    -0.0515    -6.915    -2.467    -2.306  0.0273  0.7498  0.6611
              Bcc     0.1100    14.757     5.266     4.922  0.6607 -0.5099  0.5510
 
              Baa    -0.0421    -5.644    -2.014    -1.883  0.5177 -0.3528  0.7795
    26 C(13)  Bbb     0.0187     2.504     0.894     0.835  0.6958 -0.3565 -0.6235
              Bcc     0.0234     3.140     1.120     1.047  0.4979  0.8651  0.0609
 
              Baa    -0.0435    -5.842    -2.084    -1.949  0.5654 -0.2750  0.7776
    27 C(13)  Bbb     0.0193     2.592     0.925     0.865  0.6468 -0.4373 -0.6249
              Bcc     0.0242     3.250     1.160     1.084  0.5119  0.8562 -0.0694
 
              Baa    -0.0675    -9.063    -3.234    -3.023  0.6907 -0.4089 -0.5964
    28 C(13)  Bbb    -0.0611    -8.198    -2.925    -2.735  0.5065  0.8622 -0.0046
              Bcc     0.1286    17.261     6.159     5.758  0.5161 -0.2989  0.8027
 
              Baa    -0.0043    -2.306    -0.823    -0.769  0.2480 -0.6155  0.7481
    29 H(1)   Bbb    -0.0026    -1.377    -0.491    -0.459  0.7926  0.5729  0.2086
              Bcc     0.0069     3.683     1.314     1.228 -0.5570  0.5412  0.6300
 
              Baa    -0.0043    -2.316    -0.826    -0.772  0.6536 -0.0303  0.7562
    30 H(1)   Bbb    -0.0025    -1.317    -0.470    -0.439  0.1538  0.9837 -0.0935
              Bcc     0.0068     3.633     1.296     1.212  0.7411 -0.1774 -0.6476
 
              Baa    -0.0023    -1.225    -0.437    -0.409  0.6199 -0.3526  0.7010
    31 H(1)   Bbb     0.0002     0.123     0.044     0.041  0.7397 -0.0356 -0.6720
              Bcc     0.0021     1.102     0.393     0.368  0.2619  0.9351  0.2388
 
              Baa    -0.0023    -1.244    -0.444    -0.415  0.6158 -0.3727  0.6942
    32 H(1)   Bbb     0.0001     0.057     0.020     0.019 -0.4038  0.6073  0.6842
              Bcc     0.0022     1.187     0.424     0.396  0.6766  0.7016 -0.2235
 
              Baa    -0.0085    -4.557    -1.626    -1.520  0.6759 -0.3922 -0.6240
    33 H(1)   Bbb    -0.0009    -0.480    -0.171    -0.160  0.5406 -0.3116  0.7814
              Bcc     0.0094     5.036     1.797     1.680  0.5009  0.8655 -0.0015
 
              Baa    -0.0266    -3.567    -1.273    -1.190  0.7679  0.5108 -0.3864
    34 C(13)  Bbb     0.0102     1.367     0.488     0.456  0.4848 -0.0693  0.8719
              Bcc     0.0164     2.200     0.785     0.734 -0.4186  0.8569  0.3008
 
              Baa    -0.0571    -7.668    -2.736    -2.558  0.0290  0.8627  0.5048
    35 C(13)  Bbb    -0.0502    -6.733    -2.403    -2.246  0.6410 -0.4035  0.6529
              Bcc     0.1073    14.401     5.139     4.804  0.7670  0.3047 -0.5647
 
              Baa    -0.0584    -7.843    -2.799    -2.616  0.7503 -0.4221  0.5088
    36 C(13)  Bbb    -0.0515    -6.916    -2.468    -2.307 -0.0269  0.7495  0.6615
              Bcc     0.1100    14.759     5.266     4.923  0.6605  0.5100 -0.5510
 
              Baa    -0.0421    -5.645    -2.014    -1.883 -0.5174 -0.3529  0.7796
    37 C(13)  Bbb     0.0187     2.505     0.894     0.836  0.6961  0.3562  0.6233
              Bcc     0.0234     3.140     1.121     1.048 -0.4977  0.8652  0.0613
 
              Baa    -0.0435    -5.841    -2.084    -1.949 -0.5651 -0.2751  0.7778
    38 C(13)  Bbb     0.0193     2.592     0.925     0.864  0.6470  0.4372  0.6247
              Bcc     0.0242     3.250     1.160     1.084 -0.5119  0.8563 -0.0690
 
              Baa    -0.0675    -9.063    -3.234    -3.023  0.6909  0.4088  0.5962
    39 C(13)  Bbb    -0.0611    -8.199    -2.925    -2.735 -0.5065  0.8622 -0.0043
              Bcc     0.1286    17.262     6.159     5.758 -0.5159 -0.2990  0.8028
 
              Baa    -0.0043    -2.306    -0.823    -0.769 -0.2478 -0.6156  0.7481
    40 H(1)   Bbb    -0.0026    -1.377    -0.491    -0.459  0.7925 -0.5730 -0.2091
              Bcc     0.0069     3.683     1.314     1.228  0.5573  0.5410  0.6298
 
              Baa    -0.0043    -2.316    -0.826    -0.772 -0.6534 -0.0303  0.7564
    41 H(1)   Bbb    -0.0025    -1.318    -0.470    -0.440 -0.1535  0.9837 -0.0932
              Bcc     0.0068     3.634     1.297     1.212  0.7413  0.1770  0.6474
 
              Baa    -0.0023    -1.225    -0.437    -0.409 -0.6196 -0.3528  0.7012
    42 H(1)   Bbb     0.0002     0.122     0.044     0.041  0.7400  0.0355  0.6717
              Bcc     0.0021     1.103     0.393     0.368 -0.2619  0.9350  0.2390
 
              Baa    -0.0023    -1.245    -0.444    -0.415 -0.6156 -0.3729  0.6943
    43 H(1)   Bbb     0.0001     0.057     0.020     0.019  0.4039  0.6072  0.6842
              Bcc     0.0022     1.187     0.424     0.396 -0.6767  0.7016 -0.2231
 
              Baa    -0.0085    -4.557    -1.626    -1.520  0.6761  0.3922  0.6238
    44 H(1)   Bbb    -0.0009    -0.480    -0.171    -0.160 -0.5404 -0.3117  0.7816
              Bcc     0.0094     5.037     1.797     1.680 -0.5009  0.8655 -0.0012
 

 ---------------------------------------------------------------------------------

 No NMR shielding tensors so no spin-rotation constants.
 Leave Link  601 at Sun Jan 17 14:48:41 2021, MaxMem=  4026531840 cpu:               4.9 elap:               0.7
 (Enter /opt/ohpc/pub/libs/gaussian/g16-A.03/sandybridge/g16/l9999.exe)

 Test job not archived.
 1\1\GINC-CASCADEB025\SP\ULC-wHPBE\TZVP\C24H19N1(1+,2)\RDU230\17-Jan-20
 21\0\\#P LC-wHPBE/TZVP iop(3/107=0182000000, 3/108=0182000000) scf=(co
 nver=6,fermi,ndamp=35,noincfock,novaracc,vshift=500,xqc)\\H19 C24 N1\\
 1,2\C,0,6.129184,1.201496,-0.030856\C,0,6.830271,0.000001,0.000182\C,0
 ,4.738958,1.200713,-0.032197\C,0,6.129235,-1.201473,0.031153\C,0,4.021
 751,-0.000032,0.000031\C,0,4.738962,-1.200719,0.032361\H,0,7.919539,0.
 000045,0.00019\H,0,4.198073,2.145454,-0.081149\H,0,6.668779,-2.147537,
 0.063412\H,0,4.198148,-2.145504,0.081256\C,0,2.536892,-0.000014,-0.000
 063\C,0,1.813363,-0.924286,-0.760077\C,0,1.813258,0.92429,0.759786\C,0
 ,0.426027,-0.922473,-0.771159\C,0,0.425899,0.922498,0.770636\C,0,-0.28
 8344,0.000018,-0.000311\H,0,2.347573,-1.638662,-1.38605\H,0,2.34735,1.
 638674,1.385851\H,0,-0.11537,-1.638494,-1.387158\H,0,-0.115571,1.63857
 8,1.386504\H,0,6.668762,2.147543,-0.063006\N,0,-1.704382,-0.000003,-0.
 000499\C,0,-2.414266,1.22777,0.004035\C,0,-3.559402,1.382015,0.792108\
 C,0,-1.979956,2.301413,-0.78017\C,0,-4.257371,2.583383,0.786193\C,0,-2
 .673527,3.505213,-0.76583\C,0,-3.817854,3.653503,0.012423\H,0,-3.90004
 6,0.551242,1.407814\H,0,-1.092486,2.185578,-1.400082\H,0,-5.147916,2.6
 86607,1.40537\H,0,-2.321511,4.331764,-1.38228\H,0,-4.363183,4.595952,0
 .015664\C,0,-2.414241,-1.227791,-0.004406\C,0,-3.559682,-1.382189,-0.7
 92032\C,0,-1.979686,-2.301249,0.779869\C,0,-4.257673,-2.583532,-0.7855
 97\C,0,-2.673287,-3.50506,0.766028\C,0,-3.817885,-3.653507,-0.011769\H
 ,0,-3.900521,-0.551523,-1.407763\H,0,-1.092008,-2.185299,1.399468\H,0,
 -5.148466,-2.686887,-1.404399\H,0,-2.32101,-4.331477,1.382521\H,0,-4.3
 63223,-4.595951,-0.014691\\Version=EM64L-G16RevA.03\State=2-A\HF=-979.
 8565037\S2=0.768244\S2-1=0.\S2A=0.750308\RMSD=9.259e-07\Dipole=-1.7444
 06,0.0000035,0.0001022\Quadrupole=27.6763989,1.63175,-29.3081489,-0.00
 01154,-0.0011565,-0.2992566\PG=C01 [X(C24H19N1)]\\@


 BOOKS ARE LIGHTHOUSES ERECTED IN THE GREAT SEA OF TIME.
     -- E.P.WHIPPLE
 Job cpu time:       0 days  2 hours 20 minutes 17.3 seconds.
 Elapsed time:       0 days  0 hours 17 minutes 35.4 seconds.
 File lengths (MBytes):  RWF=    220 Int=      0 D2E=      0 Chk=     32 Scr=      8
 Normal termination of Gaussian 16 at Sun Jan 17 14:48:41 2021.
