 Entering Gaussian System, Link 0=g16
 Input=mol_bp_pa_half_tune_n10.gjf
 Output=mol_bp_pa_half_tune_n10.log
 Initial command:
 /opt/ohpc/pub/libs/gaussian/g16-A.03/sandybridge/g16/l1.exe "/mnt/gpfs2_4m/scratch/rdu230/ondemand/projects/init_structures/wtuning/mol_bp_pa_half/tuning_mol_bp_pa_half_ocycle0/Gau-432505.inp" -scrdir="/mnt/gpfs2_4m/scratch/rdu230/ondemand/projects/init_structures/wtuning/mol_bp_pa_half/tuning_mol_bp_pa_half_ocycle0/"
 Entering Link 1 = /opt/ohpc/pub/libs/gaussian/g16-A.03/sandybridge/g16/l1.exe PID=    432506.
  
 Copyright (c) 1988,1990,1992,1993,1995,1998,2003,2009,2016,
            Gaussian, Inc.  All Rights Reserved.
  
 This is part of the Gaussian(R) 16 program.  It is based on
 the Gaussian(R) 09 system (copyright 2009, Gaussian, Inc.),
 the Gaussian(R) 03 system (copyright 2003, Gaussian, Inc.),
 the Gaussian(R) 98 system (copyright 1998, Gaussian, Inc.),
 the Gaussian(R) 94 system (copyright 1995, Gaussian, Inc.),
 the Gaussian 92(TM) system (copyright 1992, Gaussian, Inc.),
 the Gaussian 90(TM) system (copyright 1990, Gaussian, Inc.),
 the Gaussian 88(TM) system (copyright 1988, Gaussian, Inc.),
 the Gaussian 86(TM) system (copyright 1986, Carnegie Mellon
 University), and the Gaussian 82(TM) system (copyright 1983,
 Carnegie Mellon University). Gaussian is a federally registered
 trademark of Gaussian, Inc.
  
 This software contains proprietary and confidential information,
 including trade secrets, belonging to Gaussian, Inc.
  
 This software is provided under written license and may be
 used, copied, transmitted, or stored only in accord with that
 written license.
  
 The following legend is applicable only to US Government
 contracts under FAR:
  
                    RESTRICTED RIGHTS LEGEND
  
 Use, reproduction and disclosure by the US Government is
 subject to restrictions as set forth in subparagraphs (a)
 and (c) of the Commercial Computer Software - Restricted
 Rights clause in FAR 52.227-19.
  
 Gaussian, Inc.
 340 Quinnipiac St., Bldg. 40, Wallingford CT 06492
  
  
 ---------------------------------------------------------------
 Warning -- This program may not be used in any manner that
 competes with the business of Gaussian, Inc. or will provide
 assistance to any competitor of Gaussian, Inc.  The licensee
 of this program is prohibited from giving any competitor of
 Gaussian, Inc. access to this program.  By using this program,
 the user acknowledges that Gaussian, Inc. is engaged in the
 business of creating and licensing software in the field of
 computational chemistry and represents and warrants to the
 licensee that it is not a competitor of Gaussian, Inc. and that
 it will not use this program in any manner prohibited above.
 ---------------------------------------------------------------
  

 Cite this work as:
 Gaussian 16, Revision A.03,
 M. J. Frisch, G. W. Trucks, H. B. Schlegel, G. E. Scuseria, 
 M. A. Robb, J. R. Cheeseman, G. Scalmani, V. Barone, 
 G. A. Petersson, H. Nakatsuji, X. Li, M. Caricato, A. V. Marenich, 
 J. Bloino, B. G. Janesko, R. Gomperts, B. Mennucci, H. P. Hratchian, 
 J. V. Ortiz, A. F. Izmaylov, J. L. Sonnenberg, D. Williams-Young, 
 F. Ding, F. Lipparini, F. Egidi, J. Goings, B. Peng, A. Petrone, 
 T. Henderson, D. Ranasinghe, V. G. Zakrzewski, J. Gao, N. Rega, 
 G. Zheng, W. Liang, M. Hada, M. Ehara, K. Toyota, R. Fukuda, 
 J. Hasegawa, M. Ishida, T. Nakajima, Y. Honda, O. Kitao, H. Nakai, 
 T. Vreven, K. Throssell, J. A. Montgomery, Jr., J. E. Peralta, 
 F. Ogliaro, M. J. Bearpark, J. J. Heyd, E. N. Brothers, K. N. Kudin, 
 V. N. Staroverov, T. A. Keith, R. Kobayashi, J. Normand, 
 K. Raghavachari, A. P. Rendell, J. C. Burant, S. S. Iyengar, 
 J. Tomasi, M. Cossi, J. M. Millam, M. Klene, C. Adamo, R. Cammi, 
 J. W. Ochterski, R. L. Martin, K. Morokuma, O. Farkas, 
 J. B. Foresman, and D. J. Fox, Gaussian, Inc., Wallingford CT, 2016.
 
 ******************************************
 Gaussian 16:  EM64L-G16RevA.03 25-Dec-2016
                17-Jan-2021 
 ******************************************
 %mem=30GB
 %nproc=8
 Will use up to    8 processors via shared memory.
 ----------------------------------------------------------------------
 #P LC-wHPBE/TZVP iop(3/107=0182800000, 3/108=0182800000) scf=(conver=6
 ,fermi,ndamp=35,noincfock,novaracc,vshift=500,xqc)
 ----------------------------------------------------------------------
 1/38=1,172=1/1;
 2/12=2,17=6,18=5,40=1/2;
 3/5=19,7=101,11=2,25=1,30=1,74=-71,107=182800000,108=182800000/1,2,3;
 4//1;
 5/5=100002,6=6,8=3,10=500,13=1,18=-1,22=13,38=1,93=35/2,8;
 6/7=2,8=2,9=2,10=2,28=1/1;
 99/5=1,9=1/99;
 Leave Link    1 at Sun Jan 17 16:10:19 2021, MaxMem=  4026531840 cpu:               1.8 elap:               0.3
 (Enter /opt/ohpc/pub/libs/gaussian/g16-A.03/sandybridge/g16/l101.exe)
 ----------
 H19 C24 N1
 ----------
 Symbolic Z-matrix:
 Charge =  0 Multiplicity = 1
 C                     6.12918   1.2015   -0.03086 
 C                     6.83027   0.        0.00018 
 C                     4.73896   1.20071  -0.0322 
 C                     6.12924  -1.20147   0.03115 
 C                     4.02175  -0.00003   0.00003 
 C                     4.73896  -1.20072   0.03236 
 H                     7.91954   0.00005   0.00019 
 H                     4.19807   2.14545  -0.08115 
 H                     6.66878  -2.14754   0.06341 
 H                     4.19815  -2.1455    0.08126 
 C                     2.53689  -0.00001  -0.00006 
 C                     1.81336  -0.92429  -0.76008 
 C                     1.81326   0.92429   0.75979 
 C                     0.42603  -0.92247  -0.77116 
 C                     0.4259    0.9225    0.77064 
 C                    -0.28834   0.00002  -0.00031 
 H                     2.34757  -1.63866  -1.38605 
 H                     2.34735   1.63867   1.38585 
 H                    -0.11537  -1.63849  -1.38716 
 H                    -0.11557   1.63858   1.3865 
 H                     6.66876   2.14754  -0.06301 
 N                    -1.70438  0.        -0.0005 
 C                    -2.41427   1.22777   0.00404 
 C                    -3.5594    1.38202   0.79211 
 C                    -1.97996   2.30141  -0.78017 
 C                    -4.25737   2.58338   0.78619 
 C                    -2.67353   3.50521  -0.76583 
 C                    -3.81785   3.6535    0.01242 
 H                    -3.90005   0.55124   1.40781 
 H                    -1.09249   2.18558  -1.40008 
 H                    -5.14792   2.68661   1.40537 
 H                    -2.32151   4.33176  -1.38228 
 H                    -4.36318   4.59595   0.01566 
 C                    -2.41424  -1.22779  -0.00441 
 C                    -3.55968  -1.38219  -0.79203 
 C                    -1.97969  -2.30125   0.77987 
 C                    -4.25767  -2.58353  -0.7856 
 C                    -2.67329  -3.50506   0.76603 
 C                    -3.81789  -3.65351  -0.01177 
 H                    -3.90052  -0.55152  -1.40776 
 H                    -1.09201  -2.1853    1.39947 
 H                    -5.14847  -2.68689  -1.4044 
 H                    -2.32101  -4.33148   1.38252 
 H                    -4.36322  -4.59595  -0.01469 
 
 ITRead=  0  0  0  0  0  0  0  0  0  0  0  0  0  0  0  0  0  0  0  0
 ITRead=  0  0  0  0  0  0  0  0  0  0  0  0  0  0  0  0  0  0  0  0
 ITRead=  0  0  0  0
 MicOpt= -1 -1 -1 -1 -1 -1 -1 -1 -1 -1 -1 -1 -1 -1 -1 -1 -1 -1 -1 -1
 MicOpt= -1 -1 -1 -1 -1 -1 -1 -1 -1 -1 -1 -1 -1 -1 -1 -1 -1 -1 -1 -1
 MicOpt= -1 -1 -1 -1
 NAtoms=     44 NQM=       44 NQMF=       0 NMMI=      0 NMMIF=      0
                NMic=       0 NMicF=      0.
                    Isotopes and Nuclear Properties:
 (Nuclear quadrupole moments (NQMom) in fm**2, nuclear magnetic moments (NMagM)
  in nuclear magnetons)

  Atom         1           2           3           4           5           6           7           8           9          10
 IAtWgt=          12          12          12          12          12          12           1           1           1           1
 AtmWgt=  12.0000000  12.0000000  12.0000000  12.0000000  12.0000000  12.0000000   1.0078250   1.0078250   1.0078250   1.0078250
 NucSpn=           0           0           0           0           0           0           1           1           1           1
 AtZEff=  -0.0000000  -0.0000000  -0.0000000  -0.0000000  -0.0000000  -0.0000000  -0.0000000  -0.0000000  -0.0000000  -0.0000000
 NQMom=    0.0000000   0.0000000   0.0000000   0.0000000   0.0000000   0.0000000   0.0000000   0.0000000   0.0000000   0.0000000
 NMagM=    0.0000000   0.0000000   0.0000000   0.0000000   0.0000000   0.0000000   2.7928460   2.7928460   2.7928460   2.7928460
 AtZNuc=   6.0000000   6.0000000   6.0000000   6.0000000   6.0000000   6.0000000   1.0000000   1.0000000   1.0000000   1.0000000

  Atom        11          12          13          14          15          16          17          18          19          20
 IAtWgt=          12          12          12          12          12          12           1           1           1           1
 AtmWgt=  12.0000000  12.0000000  12.0000000  12.0000000  12.0000000  12.0000000   1.0078250   1.0078250   1.0078250   1.0078250
 NucSpn=           0           0           0           0           0           0           1           1           1           1
 AtZEff=  -0.0000000  -0.0000000  -0.0000000  -0.0000000  -0.0000000  -0.0000000  -0.0000000  -0.0000000  -0.0000000  -0.0000000
 NQMom=    0.0000000   0.0000000   0.0000000   0.0000000   0.0000000   0.0000000   0.0000000   0.0000000   0.0000000   0.0000000
 NMagM=    0.0000000   0.0000000   0.0000000   0.0000000   0.0000000   0.0000000   2.7928460   2.7928460   2.7928460   2.7928460
 AtZNuc=   6.0000000   6.0000000   6.0000000   6.0000000   6.0000000   6.0000000   1.0000000   1.0000000   1.0000000   1.0000000

  Atom        21          22          23          24          25          26          27          28          29          30
 IAtWgt=           1          14          12          12          12          12          12          12           1           1
 AtmWgt=   1.0078250  14.0030740  12.0000000  12.0000000  12.0000000  12.0000000  12.0000000  12.0000000   1.0078250   1.0078250
 NucSpn=           1           2           0           0           0           0           0           0           1           1
 AtZEff=  -0.0000000  -0.0000000  -0.0000000  -0.0000000  -0.0000000  -0.0000000  -0.0000000  -0.0000000  -0.0000000  -0.0000000
 NQMom=    0.0000000   2.0440000   0.0000000   0.0000000   0.0000000   0.0000000   0.0000000   0.0000000   0.0000000   0.0000000
 NMagM=    2.7928460   0.4037610   0.0000000   0.0000000   0.0000000   0.0000000   0.0000000   0.0000000   2.7928460   2.7928460
 AtZNuc=   1.0000000   7.0000000   6.0000000   6.0000000   6.0000000   6.0000000   6.0000000   6.0000000   1.0000000   1.0000000

  Atom        31          32          33          34          35          36          37          38          39          40
 IAtWgt=           1           1           1          12          12          12          12          12          12           1
 AtmWgt=   1.0078250   1.0078250   1.0078250  12.0000000  12.0000000  12.0000000  12.0000000  12.0000000  12.0000000   1.0078250
 NucSpn=           1           1           1           0           0           0           0           0           0           1
 AtZEff=  -0.0000000  -0.0000000  -0.0000000  -0.0000000  -0.0000000  -0.0000000  -0.0000000  -0.0000000  -0.0000000  -0.0000000
 NQMom=    0.0000000   0.0000000   0.0000000   0.0000000   0.0000000   0.0000000   0.0000000   0.0000000   0.0000000   0.0000000
 NMagM=    2.7928460   2.7928460   2.7928460   0.0000000   0.0000000   0.0000000   0.0000000   0.0000000   0.0000000   2.7928460
 AtZNuc=   1.0000000   1.0000000   1.0000000   6.0000000   6.0000000   6.0000000   6.0000000   6.0000000   6.0000000   1.0000000

  Atom        41          42          43          44
 IAtWgt=           1           1           1           1
 AtmWgt=   1.0078250   1.0078250   1.0078250   1.0078250
 NucSpn=           1           1           1           1
 AtZEff=  -0.0000000  -0.0000000  -0.0000000  -0.0000000
 NQMom=    0.0000000   0.0000000   0.0000000   0.0000000
 NMagM=    2.7928460   2.7928460   2.7928460   2.7928460
 AtZNuc=   1.0000000   1.0000000   1.0000000   1.0000000
 Leave Link  101 at Sun Jan 17 16:10:20 2021, MaxMem=  4026531840 cpu:               0.6 elap:               0.1
 (Enter /opt/ohpc/pub/libs/gaussian/g16-A.03/sandybridge/g16/l202.exe)
                          Input orientation:                          
 ---------------------------------------------------------------------
 Center     Atomic      Atomic             Coordinates (Angstroms)
 Number     Number       Type             X           Y           Z
 ---------------------------------------------------------------------
      1          6           0        6.129184    1.201496   -0.030856
      2          6           0        6.830271    0.000001    0.000182
      3          6           0        4.738958    1.200713   -0.032197
      4          6           0        6.129235   -1.201473    0.031153
      5          6           0        4.021751   -0.000032    0.000031
      6          6           0        4.738962   -1.200719    0.032361
      7          1           0        7.919539    0.000045    0.000190
      8          1           0        4.198073    2.145454   -0.081149
      9          1           0        6.668779   -2.147537    0.063412
     10          1           0        4.198148   -2.145504    0.081256
     11          6           0        2.536892   -0.000014   -0.000063
     12          6           0        1.813363   -0.924286   -0.760077
     13          6           0        1.813258    0.924290    0.759786
     14          6           0        0.426027   -0.922473   -0.771159
     15          6           0        0.425899    0.922498    0.770636
     16          6           0       -0.288344    0.000018   -0.000311
     17          1           0        2.347573   -1.638662   -1.386050
     18          1           0        2.347350    1.638674    1.385851
     19          1           0       -0.115370   -1.638494   -1.387158
     20          1           0       -0.115571    1.638578    1.386504
     21          1           0        6.668762    2.147543   -0.063006
     22          7           0       -1.704382   -0.000003   -0.000499
     23          6           0       -2.414266    1.227770    0.004035
     24          6           0       -3.559402    1.382015    0.792108
     25          6           0       -1.979956    2.301413   -0.780170
     26          6           0       -4.257371    2.583383    0.786193
     27          6           0       -2.673527    3.505213   -0.765830
     28          6           0       -3.817854    3.653503    0.012423
     29          1           0       -3.900046    0.551242    1.407814
     30          1           0       -1.092486    2.185578   -1.400082
     31          1           0       -5.147916    2.686607    1.405370
     32          1           0       -2.321511    4.331764   -1.382280
     33          1           0       -4.363183    4.595952    0.015664
     34          6           0       -2.414241   -1.227791   -0.004406
     35          6           0       -3.559682   -1.382189   -0.792032
     36          6           0       -1.979686   -2.301249    0.779869
     37          6           0       -4.257673   -2.583532   -0.785597
     38          6           0       -2.673287   -3.505060    0.766028
     39          6           0       -3.817885   -3.653507   -0.011769
     40          1           0       -3.900521   -0.551523   -1.407763
     41          1           0       -1.092008   -2.185299    1.399468
     42          1           0       -5.148466   -2.686887   -1.404399
     43          1           0       -2.321010   -4.331477    1.382521
     44          1           0       -4.363223   -4.595951   -0.014691
 ---------------------------------------------------------------------
                    Distance matrix (angstroms):
                    1          2          3          4          5
     1  C    0.000000
     2  C    1.391430   0.000000
     3  C    1.390227   2.411711   0.000000
     4  C    2.403769   1.391384   2.776217   0.000000
     5  C    2.426087   2.808520   1.399004   2.426091   0.000000
     6  C    2.776212   2.411708   2.402300   1.390274   1.398959
     7  H    2.156344   1.089268   3.399816   2.156338   3.897788
     8  H    2.150064   3.396770   1.089719   3.865737   2.154249
     9  H    3.393534   2.154529   3.865764   1.089580   3.409186
    10  H    3.865731   3.396739   3.391536   2.150070   2.154243
    11  C    3.788025   4.293379   2.508361   3.788061   1.484859
    12  C    4.865904   5.157680   3.688433   4.396547   2.511770
    13  C    4.396496   5.157686   3.043578   4.865946   2.511780
    14  C    6.130685   6.516154   4.863677   5.766119   3.791420
    15  C    5.766081   6.516178   4.395955   6.130753   3.791444
    16  C    6.529100   7.118615   5.168796   6.529157   4.310095
    17  H    4.919718   4.970054   3.951416   4.062089   2.721985
    18  H    4.062075   4.970101   2.814686   4.919786   2.722035
    19  H    6.992822   7.269890   5.784593   6.418542   4.660968
    20  H    6.418482   7.269907   5.076504   6.992887   4.660985
    21  H    1.089579   2.154533   2.149786   3.393503   3.409211
    22  N    7.925230   8.534653   6.554339   7.925282   5.726133
    23  C    8.543562   9.325712   7.153367   8.882194   6.552086
    24  C    9.725151  10.511062   8.341171  10.056001   7.746697
    25  C    8.217630   9.139231   6.849439   8.870594   6.475017
    26  C   10.509886  11.411726   9.138680  11.080470   8.708384
    27  C    9.128802  10.158517   7.797042  10.013825   7.596054
    28  C   10.244890  11.257477   8.901528  11.068682   8.649155
    29  H   10.152736  10.836282   8.782245  10.273932   8.064777
    30  H    7.415910   8.337120   6.070157   8.103937   5.735209
    31  H   11.464785  12.355945  10.100731  12.007488   9.657940
    32  H    9.112583  10.219124   7.840690  10.199491   7.804628
    33  H   11.027886  12.100265   9.714881  11.987544   9.561926
    34  C    8.882131   9.325690   7.554248   8.543591   6.552053
    35  C   10.056289  10.511383   8.724457   9.725503   7.746990
    36  C    8.870190   9.138873   7.619932   8.217340   6.474642
    37  C   11.080743  11.412037   9.789152  10.510234   8.708648
    38  C   10.013500  10.158228   8.816056   9.128579   7.595756
    39  C   11.068677  11.257508   9.837857  10.244975   8.649157
    40  H   10.274431  10.836807   8.922058  10.153271   8.065260
    41  H    8.103198   8.336429   6.893106   7.415292   5.734488
    42  H   12.007978  12.356470  10.712494  11.465331   9.658390
    43  H   10.198882  10.218537   9.080182   9.112067   7.804057
    44  H   11.987546  12.100302  10.791261  11.027976   9.561929
                    6          7          8          9         10
     6  C    0.000000
     7  H    3.399844   0.000000
     8  H    3.391507   4.296360   0.000000
     9  H    2.149796   2.486062   4.955306   0.000000
    10  H    1.089720   4.296359   4.294030   2.470696   0.000000
    11  C    2.508357   5.382647   2.714614   4.657078   2.714684
    12  C    3.043600   6.222361   3.946022   5.074401   2.808276
    13  C    3.688435   6.222370   2.808159   5.787672   3.946104
    14  C    4.395961   7.589383   4.910868   6.416326   4.056022
    15  C    4.863704   7.589410   4.055916   6.992770   4.910982
    16  C    5.168814   8.207883   4.973667   7.281319   4.973784
    17  H    2.814680   5.971083   4.409836   4.586144   2.415472
    18  H    3.951442   5.971135   2.415386   5.895675   4.409923
    19  H    5.076536   8.316809   5.884702   6.956145   4.584729
    20  H    5.784618   8.316829   4.584589   7.881158   5.884821
    21  H    3.865758   2.485998   2.470756   4.296940   4.955300
    22  N    6.554348   9.623921   6.280801   8.644409   6.280901
    23  C    7.554272  10.406481   6.676258   9.690094   7.423541
    24  C    8.724138  11.588920   7.843713  10.844557   8.551508
    25  C    7.620301  10.193393   6.219405   9.762449   7.660685
    26  C    9.788856  12.472713   8.511087  11.928318   9.713656
    27  C    8.816343  11.184187   7.038226  10.950795   8.936894
    28  C    9.837834  12.292856   8.157086  11.984329   9.893913
    29  H    8.921530  11.915864   8.386779  10.990491   8.637878
    30  H    6.893815   9.378375   5.452633   9.008603   6.995959
    31  H   10.711994  13.414564   9.478929  12.837604  10.604315
    32  H    9.080741  11.205093   6.998419  11.175718   9.306067
    33  H   10.791233  13.114414   8.905584  12.929853  10.897152
    34  C    7.153349  10.406470   7.423434   9.129720   6.676318
    35  C    8.341466  11.589249   8.551747  10.292665   7.844056
    36  C    6.849100  10.193062   7.660237   8.679452   6.219160
    37  C    9.138964  12.473044   9.713866  10.968056   8.511417
    38  C    7.796774  11.183927   8.936532   9.466295   7.038034
    39  C    8.901559  12.292913   9.893854  10.594514   8.157175
    40  H    8.782715  11.916391   8.638334  10.789890   8.387276
    41  H    6.069480   9.377723   6.995184   7.875042   5.452065
    42  H   10.101198  13.415112  10.604730  11.920262   9.479423
    43  H    7.840139  11.204542   9.305450   9.344835   6.997942
    44  H    9.714916  13.114482  10.897098  11.300703   8.905671
                   11         12         13         14         15
    11  C    0.000000
    12  C    1.398354   0.000000
    13  C    1.398340   2.393160   0.000000
    14  C    2.429253   1.387381   2.771053   0.000000
    15  C    2.429258   2.771056   1.387403   2.404381   0.000000
    16  C    2.825236   2.418420   2.418420   1.398400   1.398382
    17  H    2.154523   1.089750   3.385089   2.140878   3.860527
    18  H    2.154526   3.385102   1.089750   3.860524   2.140881
    19  H    3.412205   2.150194   3.859642   1.088693   3.392304
    20  H    3.412200   3.859646   2.150201   3.392318   1.088694
    21  H    4.657071   5.787654   5.074372   6.992726   6.416310
    22  N    4.241274   3.715614   3.715662   2.446121   2.446171
    23  C    5.101121   4.805004   4.305255   3.645783   2.957601
    24  C    6.300979   6.049372   5.392220   4.861904   4.011763
    25  C    5.129040   4.979438   4.319306   4.022720   3.177191
    26  C    7.311234   7.179729   6.293316   6.053973   4.969084
    27  C    6.326253   6.304972   5.396286   5.404782   4.317127
    28  C    7.330153   7.298186   6.302109   6.289999   5.103206
    29  H    6.612123   6.286492   5.762026   5.063069   4.388351
    30  H    4.461978   4.304047   3.833957   3.515879   2.934771
    31  H    8.261322   8.135546   7.209749   6.987959   5.880679
    32  H    6.654240   6.716426   5.770237   5.960658   4.879181
    33  H    8.290608   8.320128   7.223797   7.349057   6.082726
    34  C    5.101095   4.305321   4.804913   2.957744   3.645659
    35  C    6.301257   5.392616   6.049502   4.012188   4.861931
    36  C    5.128689   4.319107   4.979049   3.177132   4.022371
    37  C    7.311480   6.293745   7.179779   4.969544   6.053921
    38  C    6.325995   5.396241   6.304623   4.317227   5.404465
    39  C    7.330166   6.302346   7.298034   5.103529   6.289808
    40  H    6.612569   5.762545   6.286777   4.388837   5.063207
    41  H    4.461286   3.833402   4.303406   2.934413   3.515377
    42  H    8.261729   7.210338   8.135717   5.881252   6.987988
    43  H    6.653745   5.769984   6.715881   4.879125   5.960215
    44  H    8.290623   7.224053   8.319964   6.083058   7.348858
                   16         17         18         19         20
    16  C    0.000000
    17  H    3.399059   0.000000
    18  H    3.399047   4.292361   0.000000
    19  H    2.153598   2.462943   4.949182   0.000000
    20  H    2.153598   4.949185   2.462921   4.293297   0.000000
    21  H    7.281285   5.895631   4.586146   7.881110   6.956098
    22  N    1.416038   4.585117   4.585167   2.670662   2.670776
    23  C    2.454982   5.729213   4.975062   3.928843   2.713666
    24  C    3.638360   6.982923   5.942064   5.072872   3.504155
    25  C    2.960769   5.883773   4.884306   4.400907   2.934239
    26  C    4.800577   8.134469   6.698836   6.301101   4.290401
    27  C    4.308307   7.214954   5.772599   5.778230   3.828839
    28  C    5.079917   8.244709   6.629901   6.608513   4.433387
    29  H    3.915489   7.185687   6.341368   5.189469   3.937639
    30  H    2.717108   5.143833   4.460157   3.946954   3.003104
    31  H    5.727926   9.092983   7.568194   7.199391   5.140352
    32  H    4.980726   7.579337   6.059170   6.364830   4.448099
    33  H    6.142245   9.266578   7.460171   7.673340   5.354201
    34  C    2.454989   4.975201   5.729065   2.713943   3.928688
    35  C    3.638540   5.942583   6.982966   3.504733   5.072766
    36  C    2.960599   4.884199   5.883319   2.934438   4.400587
    37  C    4.800727   6.699448   8.134405   4.291113   6.300892
    38  C    4.308225   5.772687   7.214498   3.829258   5.777881
    39  C    5.079964   6.630318   8.244431   4.434026   6.608212
    40  H    3.915730   6.342005   7.185898   3.938185   5.189443
    41  H    2.716775   4.459668   5.143164   3.003015   3.946598
    42  H    5.728150   7.568997   9.093032   5.141156   7.199224
    43  H    4.980543   6.059035   7.578674   4.448385   6.364396
    44  H    6.142294   7.460628   9.266275   5.354855   7.673021
                   21         22         23         24         25
    21  H    0.000000
    22  N    8.644386   0.000000
    23  C    9.129725   1.418232   0.000000
    24  C   10.292356   2.445260   1.398638   0.000000
    25  C    8.679765   2.445474   1.398682   2.410809   0.000000
    26  C   10.967747   3.716251   2.417952   1.389417   2.778420
    27  C    9.466551   3.716384   2.417986   2.778474   1.389381
    28  C   10.594466   4.220786   2.802554   2.415443   2.415413
    29  H   10.789402   2.666113   2.153097   1.088722   3.396633
    30  H    7.875671   2.666461   2.153147   3.396628   1.088720
    31  H   11.919757   4.588275   3.400704   2.145094   3.867936
    32  H    9.345390   4.588504   3.400772   3.867991   2.145116
    33  H   11.300651   5.309641   3.891409   3.402693   3.402651
    34  C    9.690060   1.418231   2.455576   2.959209   3.639463
    35  C   10.844886   2.445220   2.959322   3.185957   4.008067
    36  C    9.762061   2.445506   3.639334   4.007753   4.859858
    37  C   11.928629   3.716221   4.306703   4.324615   5.389871
    38  C   10.950484   3.716418   4.800771   4.966828   6.048683
    39  C   11.984347   4.220795   5.079100   5.105831   6.279291
    40  H   10.991045   2.666007   2.714408   2.948621   3.495953
    41  H    9.007880   2.666539   3.917223   4.379800   5.066543
    42  H   12.838143   4.588245   4.978361   4.889349   5.942411
    43  H   11.175117   4.588534   5.728363   5.875899   6.984897
    44  H   12.929878   5.309649   6.141214   6.085485   7.337544
                   26         27         28         29         30
    26  C    0.000000
    27  C    2.401480   0.000000
    28  C    1.391780   1.391816   0.000000
    29  H    2.154922   3.867172   3.402631   0.000000
    30  H    3.867111   2.154856   3.402588   4.293917   0.000000
    31  H    1.089544   3.392171   2.155053   2.473251   4.956622
    32  H    3.392148   1.089547   2.155058   4.956687   2.473244
    33  H    2.157625   2.157633   1.088855   4.302587   4.302522
    34  C    4.306649   4.800867   5.079118   2.714211   3.917402
    35  C    4.324734   4.967158   5.106074   2.948445   4.380153
    36  C    5.389575   6.048603   6.279085   3.495540   5.066648
    37  C    5.400698   6.291480   6.303244   3.842624   5.756771
    38  C    6.291174   7.175689   7.288551   4.286072   6.290813
    39  C    6.303070   7.288720   7.307050   4.438680   6.591671
    40  H    3.842970   4.286572   4.439145   3.023833   3.921332
    41  H    5.756384   6.290600   6.591338   3.920944   5.190573
    42  H    5.776547   6.698895   6.631626   4.466830   6.339709
    43  H    7.205580   8.133473   8.238787   5.131758   7.191951
    44  H    7.224642   8.309521   8.267506   5.360191   7.655466
                   31         32         33         34         35
    31  H    0.000000
    32  H    4.297220   0.000000
    33  H    2.488511   2.488467   0.000000
    34  C    4.978249   5.728507   6.141234   0.000000
    35  C    4.889393   5.876284   6.085734   1.398652   0.000000
    36  C    5.942023   6.984883   7.337333   1.398656   2.410795
    37  C    5.776438   7.205975   7.224828   2.417961   1.389409
    38  C    6.698454   8.133559   8.309344   2.417980   2.778458
    39  C    6.631313   8.239053   8.267507   2.802565   2.415443
    40  H    4.467124   5.132291   5.360662   2.153086   1.088716
    41  H    6.339234   7.191795   7.655120   2.153134   3.396627
    42  H    6.063764   7.566613   7.461434   3.400725   2.145103
    43  H    7.566070   9.093727   9.259469   3.400754   3.867983
    44  H    7.461097   9.259751   9.191953   3.891419   3.402676
                   36         37         38         39         40
    36  C    0.000000
    37  C    2.778415   0.000000
    38  C    1.389401   2.401465   0.000000
    39  C    2.415423   1.391787   1.391801   0.000000
    40  H    3.396599   2.154927   3.867150   3.402636   0.000000
    41  H    1.088724   3.867109   2.154869   3.402592   4.293893
    42  H    3.867934   1.089546   3.392149   2.155045   2.473289
    43  H    2.145115   3.392154   1.089554   2.155069   4.956671
    44  H    3.402680   2.157607   2.157649   1.088854   4.302574
                   41         42         43         44
    41  H    0.000000
    42  H    4.956623   0.000000
    43  H    2.473219   4.297221   0.000000
    44  H    4.302550   2.488457   2.488530   0.000000
 Stoichiometry    C24H19N
 Framework group  C1[X(C24H19N)]
 Deg. of freedom   126
 Full point group                 C1      NOp   1
 Largest Abelian subgroup         C1      NOp   1
 Largest concise Abelian subgroup C1      NOp   1
                         Standard orientation:                         
 ---------------------------------------------------------------------
 Center     Atomic      Atomic             Coordinates (Angstroms)
 Number     Number       Type             X           Y           Z
 ---------------------------------------------------------------------
      1          6           0       -6.129184    1.201496    0.030856
      2          6           0       -6.830271    0.000001   -0.000182
      3          6           0       -4.738958    1.200713    0.032197
      4          6           0       -6.129235   -1.201473   -0.031153
      5          6           0       -4.021751   -0.000032   -0.000031
      6          6           0       -4.738962   -1.200719   -0.032361
      7          1           0       -7.919539    0.000045   -0.000190
      8          1           0       -4.198073    2.145454    0.081149
      9          1           0       -6.668779   -2.147537   -0.063412
     10          1           0       -4.198148   -2.145504   -0.081256
     11          6           0       -2.536892   -0.000014    0.000063
     12          6           0       -1.813363   -0.924286    0.760077
     13          6           0       -1.813258    0.924290   -0.759786
     14          6           0       -0.426027   -0.922473    0.771159
     15          6           0       -0.425899    0.922498   -0.770636
     16          6           0        0.288344    0.000018    0.000311
     17          1           0       -2.347573   -1.638662    1.386050
     18          1           0       -2.347350    1.638674   -1.385851
     19          1           0        0.115370   -1.638494    1.387158
     20          1           0        0.115571    1.638578   -1.386504
     21          1           0       -6.668762    2.147543    0.063006
     22          7           0        1.704382   -0.000003    0.000499
     23          6           0        2.414266    1.227770   -0.004035
     24          6           0        3.559402    1.382015   -0.792108
     25          6           0        1.979956    2.301413    0.780170
     26          6           0        4.257371    2.583383   -0.786193
     27          6           0        2.673527    3.505213    0.765830
     28          6           0        3.817854    3.653503   -0.012423
     29          1           0        3.900046    0.551242   -1.407814
     30          1           0        1.092486    2.185578    1.400082
     31          1           0        5.147916    2.686607   -1.405370
     32          1           0        2.321511    4.331764    1.382280
     33          1           0        4.363183    4.595952   -0.015664
     34          6           0        2.414241   -1.227791    0.004406
     35          6           0        3.559682   -1.382189    0.792032
     36          6           0        1.979686   -2.301249   -0.779869
     37          6           0        4.257673   -2.583532    0.785597
     38          6           0        2.673287   -3.505060   -0.766028
     39          6           0        3.817885   -3.653507    0.011769
     40          1           0        3.900521   -0.551523    1.407763
     41          1           0        1.092008   -2.185299   -1.399468
     42          1           0        5.148466   -2.686887    1.404399
     43          1           0        2.321010   -4.331477   -1.382521
     44          1           0        4.363223   -4.595951    0.014691
 ---------------------------------------------------------------------
 Rotational constants (GHZ):           0.3772696           0.1165367           0.0926339
 Leave Link  202 at Sun Jan 17 16:10:20 2021, MaxMem=  4026531840 cpu:               0.3 elap:               0.1
 (Enter /opt/ohpc/pub/libs/gaussian/g16-A.03/sandybridge/g16/l301.exe)
 Standard basis: TZVP (5D, 7F)
 Ernie: Thresh=  0.10000D-02 Tol=  0.10000D-05 Strict=F.
 There are   614 symmetry adapted cartesian basis functions of A   symmetry.
 There are   589 symmetry adapted basis functions of A   symmetry.
   589 basis functions,  1027 primitive gaussians,   614 cartesian basis functions
    85 alpha electrons       85 beta electrons
       nuclear repulsion energy      1905.4959532784 Hartrees.
 IExCor=33909 DFT=T Ex+Corr=LC-wHPBE ExCW=0 ScaHFX=  1.000000
 ScaDFX=  1.000000  1.000000  1.000000  1.000000 ScalE2=  1.000000  1.000000
 IRadAn=      5 IRanWt=     -1 IRanGd=            0 ICorTp=0 IEmpDi=  4
 HFx  wShort=  0.000000 wLong=  0.182800 cFull=  0.000000 cShort=  0.000000 cLong=  1.000000
 DFx  wShort=  0.000000 wLong=  0.182800 cFull=  0.000000 cShort=  1.000000 cLong=  0.000000
 NAtoms=   44 NActive=   44 NUniq=   44 SFac= 1.00D+00 NAtFMM=   60 NAOKFM=F Big=F
 Integral buffers will be    131072 words long.
 Raffenetti 2 integral format.
 Two-electron integral symmetry is turned on.
 Leave Link  301 at Sun Jan 17 16:10:20 2021, MaxMem=  4026531840 cpu:               0.4 elap:               0.1
 (Enter /opt/ohpc/pub/libs/gaussian/g16-A.03/sandybridge/g16/l302.exe)
 NPDir=0 NMtPBC=     1 NCelOv=     1 NCel=       1 NClECP=     1 NCelD=      1
         NCelK=      1 NCelE2=     1 NClLst=     1 CellRange=     0.0.
 One-electron integrals computed using PRISM.
 One-electron integral symmetry used in STVInt
 NBasis=   589 RedAO= T EigKep=  7.25D-06  NBF=   589
 NBsUse=   589 1.00D-06 EigRej= -1.00D+00 NBFU=   589
 Precomputing XC quadrature grid using
 IXCGrd= 4 IRadAn=           5 IRanWt=          -1 IRanGd=           0 AccXCQ= 0.00D+00.
 Generated NRdTot=       0 NPtTot=           0 NUsed=           0 NTot=          32
 NSgBfM=   586   586   586   586   586 MxSgAt=    44 MxSgA2=    44.
 Leave Link  302 at Sun Jan 17 16:10:21 2021, MaxMem=  4026531840 cpu:               8.5 elap:               1.1
 (Enter /opt/ohpc/pub/libs/gaussian/g16-A.03/sandybridge/g16/l303.exe)
 DipDrv:  MaxL=1.
 Leave Link  303 at Sun Jan 17 16:10:21 2021, MaxMem=  4026531840 cpu:               0.8 elap:               0.1
 (Enter /opt/ohpc/pub/libs/gaussian/g16-A.03/sandybridge/g16/l401.exe)
 ExpMin= 9.52D-02 ExpMax= 1.97D+04 ExpMxC= 6.73D+02 IAcc=3 IRadAn=         5 AccDes= 0.00D+00
 Harris functional with IExCor=33909 and IRadAn=       5 diagonalized for initial guess.
 HarFok:  IExCor=33909 AccDes= 0.00D+00 IRadAn=         5 IDoV= 1 UseB2=F ITyADJ=14
 ICtDFT=  3500011 ScaDFX=  1.000000  1.000000  1.000000  1.000000
 FoFCou: FMM=F IPFlag=           0 FMFlag=      100000 FMFlg1=           0
         NFxFlg=           0 DoJE=T BraDBF=F KetDBF=T FulRan=T
         wScrn=  0.000000 ICntrl=       500 IOpCl=  0 I1Cent=   200000004 NGrid=           0
         NMat0=    1 NMatS0=      1 NMatT0=    0 NMatD0=    1 NMtDS0=    0 NMtDT0=    0
 Petite list used in FoFCou.
 Harris En= -963.571786689600    
 JPrj=0 DoOrth=F DoCkMO=F.
 Leave Link  401 at Sun Jan 17 16:10:27 2021, MaxMem=  4026531840 cpu:              48.2 elap:               6.1
 (Enter /opt/ohpc/pub/libs/gaussian/g16-A.03/sandybridge/g16/l502.exe)
 Integral symmetry usage will be decided dynamically.
 Closed shell SCF:
 Using DIIS extrapolation, IDIIS=    10.
 NGot=  4026531840 LenX=  4025766914 LenY=  4025389304
 Requested convergence on RMS density matrix=1.00D-06 within  32 cycles.
 Requested convergence on MAX density matrix=1.00D-04.
 Requested convergence on             energy=1.00D-04.
 Virtual orbitals will be shifted by   0.500 hartree.
 No special actions if energy rises.
 Dynamic level shift is on during FON iterations.

 Cycle   1  Pass 1  IDiag  1:
 FoFJK:  IHMeth= 1 ICntrl=       0 DoSepK=T KAlg= 0 I1Cent=           0 FoldK=F
 IRaf=         1 NMat=       1 IRICut=       1 DoRegI=T DoRafI=F ISym2E= 0 IDoP0=0 IntGTp=1.
 FoFCou: FMM=F IPFlag=           0 FMFlag=      100000 FMFlg1=           0
         NFxFlg=           0 DoJE=T BraDBF=F KetDBF=F FulRan=T
         wScrn=  0.000000 ICntrl=       500 IOpCl=  0 I1Cent=           0 NGrid=           0
         NMat0=    1 NMatS0=      1 NMatT0=    0 NMatD0=    1 NMtDS0=    0 NMtDT0=    0
 Symmetry not used in FoFCou.
 E= -979.670605286704    
 DIIS: error= 3.36D-02 at cycle   1 NSaved=   1.
 NSaved= 1 IEnMin= 1 EnMin= -979.670605286704     IErMin= 1 ErrMin= 3.36D-02
 ErrMax= 3.36D-02  0.00D+00 EMaxC= 1.00D+00 BMatC= 4.13D-01 BMatP= 4.13D-01
 IDIUse=1 WtCom= 1.00D+00 WtEn= 0.00D+00
 Coeff-Com:  0.100D+01
 Coeff:      0.100D+01
 Gap=     0.295 Goal=   None    Shift=    0.500
 T= 1564. Gap= 0.746 NK=0 IS=   86 IE=  589 IFin=   85
          NO(<0.9)=   0  NV(>0.1)=   0     85.00e < EF      0.00e >EF  Err=0.0D+00
 GapD=    0.295 DampG=1.000 DampE=0.500 DampFc=0.5000 IDamp=-1.
 Damping current iteration by 5.00D-01
 RMSDP=2.37D-03 MaxDP=9.43D-02              OVMax= 7.88D-02

 Cycle   2  Pass 1  IDiag  1:
 E= -979.934585311466     Delta-E=       -0.263980024762 Rises=F Damp=T
 DIIS: error= 1.56D-02 at cycle   2 NSaved=   2.
 NSaved= 2 IEnMin= 2 EnMin= -979.934585311466     IErMin= 2 ErrMin= 1.56D-02
 ErrMax= 1.56D-02  0.00D+00 EMaxC= 1.00D+00 BMatC= 7.18D-02 BMatP= 4.13D-01
 IDIUse=1 WtCom= 1.00D+00 WtEn= 0.00D+00
 Coeff-Com: -0.573D+00 0.157D+01
 Coeff:     -0.573D+00 0.157D+01
 Gap=     0.274 Goal=   None    Shift=    0.500
 T= 1446. Gap= 0.744 NK=0 IS=   86 IE=  589 IFin=   85
          NO(<0.9)=   0  NV(>0.1)=   0     85.00e < EF      0.00e >EF  Err=0.0D+00
 GapD=    0.274 DampG=1.000 DampE=0.500 DampFc=0.5000 IDamp=-1.
 Damping current iteration by 5.00D-01
 RMSDP=1.37D-03 MaxDP=6.58D-02 DE=-2.64D-01 OVMax= 2.02D-02

 Cycle   3  Pass 1  IDiag  1:
 E= -980.025626040914     Delta-E=       -0.091040729448 Rises=F Damp=T
 DIIS: error= 7.24D-03 at cycle   3 NSaved=   3.
 NSaved= 3 IEnMin= 3 EnMin= -980.025626040914     IErMin= 3 ErrMin= 7.24D-03
 ErrMax= 7.24D-03  0.00D+00 EMaxC= 1.00D+00 BMatC= 1.39D-02 BMatP= 7.18D-02
 IDIUse=1 WtCom= 1.00D+00 WtEn= 0.00D+00
 Coeff-Com:  0.429D-01-0.859D+00 0.182D+01
 Coeff:      0.429D-01-0.859D+00 0.182D+01
 Gap=     0.259 Goal=   None    Shift=    0.500
 T= 1216. Gap= 0.757 NK=0 IS=   86 IE=  589 IFin=   85
          NO(<0.9)=   0  NV(>0.1)=   0     85.00e < EF      0.00e >EF  Err=0.0D+00
 GapD=    0.259 DampG=1.000 DampE=1.000 DampFc=1.0000 IDamp=-1.
 RMSDP=7.34D-04 MaxDP=3.86D-02 DE=-9.10D-02 OVMax= 1.16D-02

 Cycle   4  Pass 1  IDiag  1:
 E= -980.101048446889     Delta-E=       -0.075422405975 Rises=F Damp=F
 DIIS: error= 1.13D-03 at cycle   4 NSaved=   4.
 NSaved= 4 IEnMin= 4 EnMin= -980.101048446889     IErMin= 4 ErrMin= 1.13D-03
 ErrMax= 1.13D-03  0.00D+00 EMaxC= 1.00D+00 BMatC= 5.79D-04 BMatP= 1.39D-02
 IDIUse=1 WtCom= 1.00D+00 WtEn= 0.00D+00
 Coeff-Com:  0.801D-01-0.243D+00 0.236D+00 0.927D+00
 Coeff:      0.801D-01-0.243D+00 0.236D+00 0.927D+00
 Gap=     0.254 Goal=   None    Shift=    0.500
 T=  702. Gap= 0.754 NK=0 IS=   86 IE=  589 IFin=   85
          NO(<0.9)=   0  NV(>0.1)=   0     85.00e < EF      0.00e >EF  Err=0.0D+00
 GapD=    0.254 DampG=1.000 DampE=1.000 DampFc=1.0000 IDamp=-1.
 RMSDP=1.70D-04 MaxDP=7.46D-03 DE=-7.54D-02 OVMax= 5.62D-03

 Cycle   5  Pass 1  IDiag  1:
 E= -980.101678807995     Delta-E=       -0.000630361106 Rises=F Damp=F
 DIIS: error= 4.79D-04 at cycle   5 NSaved=   5.
 NSaved= 5 IEnMin= 5 EnMin= -980.101678807995     IErMin= 5 ErrMin= 4.79D-04
 ErrMax= 4.79D-04  0.00D+00 EMaxC= 1.00D+00 BMatC= 8.62D-05 BMatP= 5.79D-04
 IDIUse=1 WtCom= 1.00D+00 WtEn= 0.00D+00
 Coeff-Com:  0.167D-01-0.653D-03-0.675D-01-0.187D+00 0.124D+01
 Coeff:      0.167D-01-0.653D-03-0.675D-01-0.187D+00 0.124D+01
 Gap=     0.255 Goal=   None    Shift=    0.500
 RMSDP=1.25D-04 MaxDP=5.23D-03 DE=-6.30D-04 OVMax= 4.42D-03

 Cycle   6  Pass 1  IDiag  1:
 E= -980.101841645347     Delta-E=       -0.000162837352 Rises=F Damp=F
 DIIS: error= 4.46D-04 at cycle   6 NSaved=   6.
 NSaved= 6 IEnMin= 6 EnMin= -980.101841645347     IErMin= 6 ErrMin= 4.46D-04
 ErrMax= 4.46D-04  0.00D+00 EMaxC= 1.00D+00 BMatC= 1.82D-05 BMatP= 8.62D-05
 IDIUse=1 WtCom= 1.00D+00 WtEn= 0.00D+00
 Coeff-Com: -0.105D-01 0.437D-01-0.600D-01-0.235D+00 0.840D-01 0.118D+01
 Coeff:     -0.105D-01 0.437D-01-0.600D-01-0.235D+00 0.840D-01 0.118D+01
 Gap=     0.255 Goal=   None    Shift=    0.500
 RMSDP=7.57D-05 MaxDP=3.49D-03 DE=-1.63D-04 OVMax= 3.71D-03

 Cycle   7  Pass 1  IDiag  1:
 E= -980.101899667054     Delta-E=       -0.000058021707 Rises=F Damp=F
 DIIS: error= 3.09D-04 at cycle   7 NSaved=   7.
 NSaved= 7 IEnMin= 7 EnMin= -980.101899667054     IErMin= 7 ErrMin= 3.09D-04
 ErrMax= 3.09D-04  0.00D+00 EMaxC= 1.00D+00 BMatC= 5.79D-06 BMatP= 1.82D-05
 IDIUse=1 WtCom= 1.00D+00 WtEn= 0.00D+00
 Coeff-Com: -0.626D-02 0.588D-02 0.835D-02 0.313D-01-0.344D+00-0.457D+00
 Coeff-Com:  0.176D+01
 Coeff:     -0.626D-02 0.588D-02 0.835D-02 0.313D-01-0.344D+00-0.457D+00
 Coeff:      0.176D+01
 Gap=     0.255 Goal=   None    Shift=    0.500
 RMSDP=4.36D-05 MaxDP=1.94D-03 DE=-5.80D-05 OVMax= 2.94D-03

 Cycle   8  Pass 1  IDiag  1:
 E= -980.101926431418     Delta-E=       -0.000026764365 Rises=F Damp=F
 DIIS: error= 2.17D-04 at cycle   8 NSaved=   8.
 NSaved= 8 IEnMin= 8 EnMin= -980.101926431418     IErMin= 8 ErrMin= 2.17D-04
 ErrMax= 2.17D-04  0.00D+00 EMaxC= 1.00D+00 BMatC= 2.40D-06 BMatP= 5.79D-06
 IDIUse=1 WtCom= 1.00D+00 WtEn= 0.00D+00
 Coeff-Com:  0.232D-02-0.751D-02 0.733D-02 0.812D-01-0.518D-01-0.442D+00
 Coeff-Com: -0.675D+00 0.209D+01
 Coeff:      0.232D-02-0.751D-02 0.733D-02 0.812D-01-0.518D-01-0.442D+00
 Coeff:     -0.675D+00 0.209D+01
 Gap=     0.255 Goal=   None    Shift=    0.500
 RMSDP=2.06D-05 MaxDP=8.74D-04 DE=-2.68D-05 OVMax= 2.21D-03

 Cycle   9  Pass 1  IDiag  1:
 E= -980.101939012549     Delta-E=       -0.000012581130 Rises=F Damp=F
 DIIS: error= 1.51D-04 at cycle   9 NSaved=   9.
 NSaved= 9 IEnMin= 9 EnMin= -980.101939012549     IErMin= 9 ErrMin= 1.51D-04
 ErrMax= 1.51D-04  0.00D+00 EMaxC= 1.00D+00 BMatC= 1.09D-06 BMatP= 2.40D-06
 IDIUse=1 WtCom= 1.00D+00 WtEn= 0.00D+00
 Coeff-Com:  0.216D-02 0.142D-02-0.987D-02 0.376D-01 0.974D-01-0.119D+00
 Coeff-Com: -0.925D+00 0.355D+00 0.156D+01
 Coeff:      0.216D-02 0.142D-02-0.987D-02 0.376D-01 0.974D-01-0.119D+00
 Coeff:     -0.925D+00 0.355D+00 0.156D+01
 Gap=     0.255 Goal=   None    Shift=    0.500
 RMSDP=9.04D-06 MaxDP=3.70D-04 DE=-1.26D-05 OVMax= 1.56D-03

 Cycle  10  Pass 1  IDiag  1:
 E= -980.101944657823     Delta-E=       -0.000005645275 Rises=F Damp=F
 DIIS: error= 9.94D-05 at cycle  10 NSaved=  10.
 NSaved=10 IEnMin=10 EnMin= -980.101944657823     IErMin=10 ErrMin= 9.94D-05
 ErrMax= 9.94D-05  0.00D+00 EMaxC= 1.00D+00 BMatC= 4.97D-07 BMatP= 1.09D-06
 IDIUse=1 WtCom= 1.00D+00 WtEn= 0.00D+00
 Coeff-Com: -0.690D-03 0.870D-02-0.147D-01-0.399D-02 0.683D-01 0.760D-01
 Coeff-Com: -0.139D+00-0.713D+00-0.236D+00 0.195D+01
 Coeff:     -0.690D-03 0.870D-02-0.147D-01-0.399D-02 0.683D-01 0.760D-01
 Coeff:     -0.139D+00-0.713D+00-0.236D+00 0.195D+01
 Gap=     0.255 Goal=   None    Shift=    0.500
 RMSDP=4.80D-06 MaxDP=1.41D-04 DE=-5.65D-06 OVMax= 1.09D-03

 Cycle  11  Pass 1  IDiag  1:
 E= -980.101947166919     Delta-E=       -0.000002509095 Rises=F Damp=F
 DIIS: error= 6.81D-05 at cycle  11 NSaved=  11.
 NSaved=11 IEnMin=11 EnMin= -980.101947166919     IErMin=11 ErrMin= 6.81D-05
 ErrMax= 6.81D-05  0.00D+00 EMaxC= 1.00D+00 BMatC= 2.30D-07 BMatP= 4.97D-07
 IDIUse=1 WtCom= 1.00D+00 WtEn= 0.00D+00
 Coeff-Com: -0.105D-02 0.445D-02-0.504D-02-0.192D-02-0.100D-01 0.354D-01
 Coeff-Com:  0.189D+00-0.239D+00-0.747D+00-0.222D+00 0.200D+01
 Coeff:     -0.105D-02 0.445D-02-0.504D-02-0.192D-02-0.100D-01 0.354D-01
 Coeff:      0.189D+00-0.239D+00-0.747D+00-0.222D+00 0.200D+01
 Gap=     0.255 Goal=   None    Shift=    0.500
 RMSDP=3.04D-06 MaxDP=8.89D-05 DE=-2.51D-06 OVMax= 7.24D-04

 Cycle  12  Pass 1  IDiag  1:
 E= -980.101948235149     Delta-E=       -0.000001068230 Rises=F Damp=F
 DIIS: error= 4.75D-05 at cycle  12 NSaved=  12.
 NSaved=12 IEnMin=12 EnMin= -980.101948235149     IErMin=12 ErrMin= 4.75D-05
 ErrMax= 4.75D-05  0.00D+00 EMaxC= 1.00D+00 BMatC= 1.08D-07 BMatP= 2.30D-07
 IDIUse=1 WtCom= 1.00D+00 WtEn= 0.00D+00
 Coeff-Com: -0.476D-03 0.847D-03 0.902D-04 0.419D-02-0.291D-01-0.586D-02
 Coeff-Com:  0.133D+00 0.157D+00-0.486D+00-0.839D+00 0.568D+00 0.150D+01
 Coeff:     -0.476D-03 0.847D-03 0.902D-04 0.419D-02-0.291D-01-0.586D-02
 Coeff:      0.133D+00 0.157D+00-0.486D+00-0.839D+00 0.568D+00 0.150D+01
 Gap=     0.255 Goal=   None    Shift=    0.500
 RMSDP=1.81D-06 MaxDP=5.48D-05 DE=-1.07D-06 OVMax= 4.79D-04

 Cycle  13  Pass 1  IDiag  1:
 E= -980.101948687706     Delta-E=       -0.000000452557 Rises=F Damp=F
 DIIS: error= 3.26D-05 at cycle  13 NSaved=  13.
 NSaved=13 IEnMin=13 EnMin= -980.101948687706     IErMin=13 ErrMin= 3.26D-05
 ErrMax= 3.26D-05  0.00D+00 EMaxC= 1.00D+00 BMatC= 4.82D-08 BMatP= 1.08D-07
 IDIUse=1 WtCom= 1.00D+00 WtEn= 0.00D+00
 Coeff-Com:  0.216D-03-0.394D-03 0.420D-04 0.447D-02-0.678D-03-0.146D-01
 Coeff-Com: -0.833D-01 0.191D+00 0.144D+00-0.626D-01-0.975D+00-0.747D+00
 Coeff-Com:  0.254D+01
 Coeff:      0.216D-03-0.394D-03 0.420D-04 0.447D-02-0.678D-03-0.146D-01
 Coeff:     -0.833D-01 0.191D+00 0.144D+00-0.626D-01-0.975D+00-0.747D+00
 Coeff:      0.254D+01
 Gap=     0.255 Goal=   None    Shift=    0.500
 RMSDP=1.16D-06 MaxDP=3.45D-05 DE=-4.53D-07 OVMax= 3.11D-04

 Cycle  14  Pass 1  IDiag  1:
 E= -980.101948875873     Delta-E=       -0.000000188167 Rises=F Damp=F
 DIIS: error= 2.24D-05 at cycle  14 NSaved=  14.
 NSaved=14 IEnMin=14 EnMin= -980.101948875873     IErMin=14 ErrMin= 2.24D-05
 ErrMax= 2.24D-05  0.00D+00 EMaxC= 1.00D+00 BMatC= 2.31D-08 BMatP= 4.82D-08
 IDIUse=1 WtCom= 1.00D+00 WtEn= 0.00D+00
 Coeff-Com:  0.224D-03-0.268D-03-0.264D-03 0.276D-02 0.413D-02-0.825D-02
 Coeff-Com: -0.824D-01 0.117D+00 0.194D+00 0.933D-01-0.869D+00-0.821D+00
 Coeff-Com:  0.126D+01 0.111D+01
 Coeff:      0.224D-03-0.268D-03-0.264D-03 0.276D-02 0.413D-02-0.825D-02
 Coeff:     -0.824D-01 0.117D+00 0.194D+00 0.933D-01-0.869D+00-0.821D+00
 Coeff:      0.126D+01 0.111D+01
 Gap=     0.255 Goal=   None    Shift=    0.500
 RMSDP=7.10D-07 MaxDP=2.16D-05 DE=-1.88D-07 OVMax= 2.04D-04

 SCF Done:  E(RLC-wHPBE) =  -980.101948876     A.U. after   14 cycles
            NFock= 14  Conv=0.71D-06     -V/T= 2.0048
 KE= 9.754035619272D+02 PE=-6.086290521999D+03 EE= 2.225289057917D+03
 Leave Link  502 at Sun Jan 17 16:19:58 2021, MaxMem=  4026531840 cpu:            4555.1 elap:             571.1
 (Enter /opt/ohpc/pub/libs/gaussian/g16-A.03/sandybridge/g16/l508.exe)
 QCSCF skips out because SCF is already converged.
 Leave Link  508 at Sun Jan 17 16:19:58 2021, MaxMem=  4026531840 cpu:               0.1 elap:               0.0
 (Enter /opt/ohpc/pub/libs/gaussian/g16-A.03/sandybridge/g16/l601.exe)
 Copying SCF densities to generalized density rwf, IOpCl= 0 IROHF=0.

 **********************************************************************

            Population analysis using the SCF density.

 **********************************************************************

 Orbital symmetries:
       Occupied  (A) (A) (A) (A) (A) (A) (A) (A) (A) (A) (A) (A)
                 (A) (A) (A) (A) (A) (A) (A) (A) (A) (A) (A) (A)
                 (A) (A) (A) (A) (A) (A) (A) (A) (A) (A) (A) (A)
                 (A) (A) (A) (A) (A) (A) (A) (A) (A) (A) (A) (A)
                 (A) (A) (A) (A) (A) (A) (A) (A) (A) (A) (A) (A)
                 (A) (A) (A) (A) (A) (A) (A) (A) (A) (A) (A) (A)
                 (A) (A) (A) (A) (A) (A) (A) (A) (A) (A) (A) (A)
                 (A)
       Virtual   (A) (A) (A) (A) (A) (A) (A) (A) (A) (A) (A) (A)
                 (A) (A) (A) (A) (A) (A) (A) (A) (A) (A) (A) (A)
                 (A) (A) (A) (A) (A) (A) (A) (A) (A) (A) (A) (A)
                 (A) (A) (A) (A) (A) (A) (A) (A) (A) (A) (A) (A)
                 (A) (A) (A) (A) (A) (A) (A) (A) (A) (A) (A) (A)
                 (A) (A) (A) (A) (A) (A) (A) (A) (A) (A) (A) (A)
                 (A) (A) (A) (A) (A) (A) (A) (A) (A) (A) (A) (A)
                 (A) (A) (A) (A) (A) (A) (A) (A) (A) (A) (A) (A)
                 (A) (A) (A) (A) (A) (A) (A) (A) (A) (A) (A) (A)
                 (A) (A) (A) (A) (A) (A) (A) (A) (A) (A) (A) (A)
                 (A) (A) (A) (A) (A) (A) (A) (A) (A) (A) (A) (A)
                 (A) (A) (A) (A) (A) (A) (A) (A) (A) (A) (A) (A)
                 (A) (A) (A) (A) (A) (A) (A) (A) (A) (A) (A) (A)
                 (A) (A) (A) (A) (A) (A) (A) (A) (A) (A) (A) (A)
                 (A) (A) (A) (A) (A) (A) (A) (A) (A) (A) (A) (A)
                 (A) (A) (A) (A) (A) (A) (A) (A) (A) (A) (A) (A)
                 (A) (A) (A) (A) (A) (A) (A) (A) (A) (A) (A) (A)
                 (A) (A) (A) (A) (A) (A) (A) (A) (A) (A) (A) (A)
                 (A) (A) (A) (A) (A) (A) (A) (A) (A) (A) (A) (A)
                 (A) (A) (A) (A) (A) (A) (A) (A) (A) (A) (A) (A)
                 (A) (A) (A) (A) (A) (A) (A) (A) (A) (A) (A) (A)
                 (A) (A) (A) (A) (A) (A) (A) (A) (A) (A) (A) (A)
                 (A) (A) (A) (A) (A) (A) (A) (A) (A) (A) (A) (A)
                 (A) (A) (A) (A) (A) (A) (A) (A) (A) (A) (A) (A)
                 (A) (A) (A) (A) (A) (A) (A) (A) (A) (A) (A) (A)
                 (A) (A) (A) (A) (A) (A) (A) (A) (A) (A) (A) (A)
                 (A) (A) (A) (A) (A) (A) (A) (A) (A) (A) (A) (A)
                 (A) (A) (A) (A) (A) (A) (A) (A) (A) (A) (A) (A)
                 (A) (A) (A) (A) (A) (A) (A) (A) (A) (A) (A) (A)
                 (A) (A) (A) (A) (A) (A) (A) (A) (A) (A) (A) (A)
                 (A) (A) (A) (A) (A) (A) (A) (A) (A) (A) (A) (A)
                 (A) (A) (A) (A) (A) (A) (A) (A) (A) (A) (A) (A)
                 (A) (A) (A) (A) (A) (A) (A) (A) (A) (A) (A) (A)
                 (A) (A) (A) (A) (A) (A) (A) (A) (A) (A) (A) (A)
                 (A) (A) (A) (A) (A) (A) (A) (A) (A) (A) (A) (A)
                 (A) (A) (A) (A) (A) (A) (A) (A) (A) (A) (A) (A)
                 (A) (A) (A) (A) (A) (A) (A) (A) (A) (A) (A) (A)
                 (A) (A) (A) (A) (A) (A) (A) (A) (A) (A) (A) (A)
                 (A) (A) (A) (A) (A) (A) (A) (A) (A) (A) (A) (A)
                 (A) (A) (A) (A) (A) (A) (A) (A) (A) (A) (A) (A)
                 (A) (A) (A) (A) (A) (A) (A) (A) (A) (A) (A) (A)
                 (A) (A) (A) (A) (A) (A) (A) (A) (A) (A) (A) (A)
 The electronic state is 1-A.
 Alpha  occ. eigenvalues --  -14.12441 -10.03350 -10.03348 -10.03328 -10.00211
 Alpha  occ. eigenvalues --   -9.99923  -9.99316  -9.99316  -9.99312  -9.99312
 Alpha  occ. eigenvalues --   -9.99303  -9.99300  -9.99133  -9.99129  -9.99079
 Alpha  occ. eigenvalues --   -9.99078  -9.99048  -9.99048  -9.99041  -9.99040
 Alpha  occ. eigenvalues --   -9.99036  -9.99036  -9.99003  -9.98851  -9.98850
 Alpha  occ. eigenvalues --   -0.99750  -0.90246  -0.89246  -0.88640  -0.87227
 Alpha  occ. eigenvalues --   -0.81583  -0.79882  -0.78746  -0.78646  -0.78307
 Alpha  occ. eigenvalues --   -0.77979  -0.77296  -0.74241  -0.68052  -0.67649
 Alpha  occ. eigenvalues --   -0.65950  -0.65181  -0.64858  -0.63720  -0.63255
 Alpha  occ. eigenvalues --   -0.61633  -0.58974  -0.58831  -0.57355  -0.54678
 Alpha  occ. eigenvalues --   -0.53300  -0.52455  -0.52325  -0.50917  -0.50351
 Alpha  occ. eigenvalues --   -0.49444  -0.49199  -0.48988  -0.48314  -0.48071
 Alpha  occ. eigenvalues --   -0.47560  -0.47354  -0.47215  -0.46822  -0.44079
 Alpha  occ. eigenvalues --   -0.43782  -0.43658  -0.43431  -0.42896  -0.41564
 Alpha  occ. eigenvalues --   -0.40976  -0.40558  -0.39787  -0.39549  -0.39029
 Alpha  occ. eigenvalues --   -0.38819  -0.37078  -0.34017  -0.32787  -0.32758
 Alpha  occ. eigenvalues --   -0.31854  -0.31707  -0.31576  -0.30054  -0.24448
 Alpha virt. eigenvalues --    0.01036   0.02196   0.02592   0.03836   0.04542
 Alpha virt. eigenvalues --    0.04596   0.05144   0.08103   0.10218   0.10967
 Alpha virt. eigenvalues --    0.11129   0.11905   0.12848   0.13432   0.13906
 Alpha virt. eigenvalues --    0.14001   0.14436   0.14955   0.15329   0.16349
 Alpha virt. eigenvalues --    0.16440   0.16483   0.16779   0.17373   0.17539
 Alpha virt. eigenvalues --    0.18200   0.18213   0.18688   0.18996   0.20376
 Alpha virt. eigenvalues --    0.20465   0.21206   0.21726   0.23387   0.24336
 Alpha virt. eigenvalues --    0.24400   0.24550   0.25338   0.25354   0.25928
 Alpha virt. eigenvalues --    0.26199   0.26367   0.27053   0.27219   0.27710
 Alpha virt. eigenvalues --    0.27849   0.28175   0.28639   0.28843   0.29185
 Alpha virt. eigenvalues --    0.29188   0.29452   0.29694   0.29855   0.30283
 Alpha virt. eigenvalues --    0.30668   0.30873   0.31126   0.32027   0.32066
 Alpha virt. eigenvalues --    0.32837   0.33002   0.33223   0.33591   0.33614
 Alpha virt. eigenvalues --    0.34558   0.34672   0.35603   0.36056   0.36434
 Alpha virt. eigenvalues --    0.36889   0.37645   0.37928   0.38036   0.38130
 Alpha virt. eigenvalues --    0.38986   0.39388   0.39443   0.40304   0.40580
 Alpha virt. eigenvalues --    0.41722   0.41736   0.42087   0.42441   0.43065
 Alpha virt. eigenvalues --    0.43241   0.43668   0.43686   0.43745   0.44168
 Alpha virt. eigenvalues --    0.44481   0.44510   0.45248   0.45450   0.46075
 Alpha virt. eigenvalues --    0.46282   0.46559   0.47357   0.47762   0.47772
 Alpha virt. eigenvalues --    0.47977   0.48122   0.48374   0.48545   0.48749
 Alpha virt. eigenvalues --    0.49549   0.49666   0.49840   0.50391   0.50902
 Alpha virt. eigenvalues --    0.51093   0.51968   0.52252   0.52266   0.53468
 Alpha virt. eigenvalues --    0.53550   0.54080   0.54537   0.54934   0.55198
 Alpha virt. eigenvalues --    0.55281   0.55393   0.55724   0.56409   0.56437
 Alpha virt. eigenvalues --    0.56699   0.57334   0.57989   0.58469   0.59190
 Alpha virt. eigenvalues --    0.60137   0.60772   0.60864   0.61312   0.62575
 Alpha virt. eigenvalues --    0.63143   0.63262   0.65201   0.66195   0.66326
 Alpha virt. eigenvalues --    0.66986   0.67864   0.68155   0.68737   0.70925
 Alpha virt. eigenvalues --    0.71261   0.71781   0.72231   0.72680   0.73647
 Alpha virt. eigenvalues --    0.74329   0.74384   0.74451   0.74749   0.75124
 Alpha virt. eigenvalues --    0.75504   0.75567   0.77017   0.77429   0.77986
 Alpha virt. eigenvalues --    0.78221   0.80954   0.81180   0.81289   0.81644
 Alpha virt. eigenvalues --    0.82020   0.83175   0.84783   0.86784   0.87698
 Alpha virt. eigenvalues --    0.89842   0.90314   0.90417   0.90899   0.94429
 Alpha virt. eigenvalues --    0.96411   0.96909   0.99491   1.16358   1.18948
 Alpha virt. eigenvalues --    1.19869   1.23375   1.23457   1.24904   1.24982
 Alpha virt. eigenvalues --    1.26659   1.26871   1.27084   1.27561   1.27936
 Alpha virt. eigenvalues --    1.28052   1.29373   1.29702   1.30142   1.30451
 Alpha virt. eigenvalues --    1.30643   1.31061   1.31146   1.31426   1.32121
 Alpha virt. eigenvalues --    1.32152   1.32517   1.33529   1.33652   1.34025
 Alpha virt. eigenvalues --    1.34522   1.34787   1.34873   1.35115   1.35427
 Alpha virt. eigenvalues --    1.35620   1.36760   1.36993   1.37486   1.37496
 Alpha virt. eigenvalues --    1.38233   1.39041   1.39533   1.44615   1.44840
 Alpha virt. eigenvalues --    1.45420   1.45505   1.45924   1.46655   1.46883
 Alpha virt. eigenvalues --    1.47121   1.47161   1.47299   1.47654   1.47720
 Alpha virt. eigenvalues --    1.47881   1.48205   1.49016   1.49534   1.49968
 Alpha virt. eigenvalues --    1.49973   1.50274   1.50629   1.50864   1.51016
 Alpha virt. eigenvalues --    1.51062   1.51499   1.52182   1.52479   1.52813
 Alpha virt. eigenvalues --    1.53241   1.54379   1.54562   1.54759   1.55366
 Alpha virt. eigenvalues --    1.56176   1.56738   1.57137   1.57412   1.57750
 Alpha virt. eigenvalues --    1.57754   1.58097   1.58422   1.59003   1.59207
 Alpha virt. eigenvalues --    1.59623   1.60159   1.60261   1.60767   1.61192
 Alpha virt. eigenvalues --    1.61491   1.61589   1.63165   1.63594   1.64092
 Alpha virt. eigenvalues --    1.65216   1.67630   1.69566   1.69903   1.70104
 Alpha virt. eigenvalues --    1.70314   1.70829   1.73305   1.74299   1.77402
 Alpha virt. eigenvalues --    1.79027   1.79467   1.79487   1.79706   1.79899
 Alpha virt. eigenvalues --    1.79999   1.80858   1.80903   1.81139   1.82064
 Alpha virt. eigenvalues --    1.82251   1.82296   1.83537   1.83662   1.84195
 Alpha virt. eigenvalues --    1.84653   1.84910   1.85398   1.85426   1.87381
 Alpha virt. eigenvalues --    1.88401   1.89895   1.90223   1.90745   1.90956
 Alpha virt. eigenvalues --    1.91210   1.91688   1.91694   1.92842   1.93584
 Alpha virt. eigenvalues --    1.93726   1.93776   1.94454   1.94613   1.94758
 Alpha virt. eigenvalues --    1.95051   1.95294   1.95647   1.96023   1.96253
 Alpha virt. eigenvalues --    1.96261   1.97345   1.97497   1.99477   1.99525
 Alpha virt. eigenvalues --    2.00127   2.00194   2.00878   2.02587   2.02665
 Alpha virt. eigenvalues --    2.03311   2.03408   2.04498   2.05454   2.06275
 Alpha virt. eigenvalues --    2.06810   2.07409   2.10079   2.11221   2.12475
 Alpha virt. eigenvalues --    2.14231   2.14591   2.15204   2.17665   2.21890
 Alpha virt. eigenvalues --    2.22159   2.24628   2.25755   2.26816   2.28499
 Alpha virt. eigenvalues --    2.28975   2.30262   2.31138   2.31817   2.32585
 Alpha virt. eigenvalues --    2.32835   2.33587   2.33767   2.33957   2.34033
 Alpha virt. eigenvalues --    2.34621   2.35563   2.36411   2.36433   2.37166
 Alpha virt. eigenvalues --    2.37310   2.37593   2.38077   2.38081   2.39028
 Alpha virt. eigenvalues --    2.39180   2.39276   2.39456   2.39709   2.40523
 Alpha virt. eigenvalues --    2.40763   2.43679   2.47965   2.48361   2.48901
 Alpha virt. eigenvalues --    2.51791   2.51793   2.52471   2.52570   2.53869
 Alpha virt. eigenvalues --    2.54003   2.54289   2.54846   2.55388   2.55716
 Alpha virt. eigenvalues --    2.57963   2.57984   2.58262   2.61337   2.62598
 Alpha virt. eigenvalues --    2.64699   2.64904   2.65909   2.66339   2.66683
 Alpha virt. eigenvalues --    2.66984   2.67032   2.67647   2.68342   2.68630
 Alpha virt. eigenvalues --    2.69610   2.69982   2.70227   2.70288   2.72019
 Alpha virt. eigenvalues --    2.74044   2.76498   2.76559   2.78260   2.78929
 Alpha virt. eigenvalues --    2.79866   2.80545   2.81555   2.82707   2.83888
 Alpha virt. eigenvalues --    2.84335   2.86042   2.86947   2.87612   2.87613
 Alpha virt. eigenvalues --    2.92415   2.98562   2.99173   3.00101   3.00519
 Alpha virt. eigenvalues --    3.01407   3.03566   3.04213   3.04450   3.05670
 Alpha virt. eigenvalues --    3.05692   3.05772   3.06767   3.07562   3.08748
 Alpha virt. eigenvalues --    3.10117   3.11156   3.12520   3.12874   3.14285
 Alpha virt. eigenvalues --    3.15535   3.16149   3.17108   3.18002   3.19667
 Alpha virt. eigenvalues --    3.20409   3.20590   3.20880   3.21985   3.22939
 Alpha virt. eigenvalues --    3.23669   3.25510   3.26196   3.30194   3.30402
 Alpha virt. eigenvalues --    3.33270   3.34704   3.35400   3.38336   3.39748
 Alpha virt. eigenvalues --    3.41937   3.42656   3.43099   3.48028   3.54502
 Alpha virt. eigenvalues --    3.55707   3.57079   3.59758   3.60622   3.63001
 Alpha virt. eigenvalues --    3.78350   3.84045   3.93154   3.93973  21.09934
 Alpha virt. eigenvalues --   21.20702  21.22454  21.33243  21.62365  21.68148
 Alpha virt. eigenvalues --   21.68464  21.71327  21.73566  21.74378  21.80406
 Alpha virt. eigenvalues --   21.85532  21.90685  21.93301  21.95398  21.95676
 Alpha virt. eigenvalues --   21.97602  21.99184  22.02779  22.03744  22.07793
 Alpha virt. eigenvalues --   22.09547  22.14631  22.15445  32.04696
          Condensed to atoms (all electrons):
               1          2          3          4          5          6
     1  C    5.024756   0.449220   0.367898   0.001077   0.009110  -0.114371
     2  C    0.449220   5.008085  -0.013138   0.449252  -0.085639  -0.013146
     3  C    0.367898  -0.013138   5.225171  -0.114374   0.399865  -0.041648
     4  C    0.001077   0.449252  -0.114374   5.024750   0.009118   0.367874
     5  C    0.009110  -0.085639   0.399865   0.009118   5.420924   0.399878
     6  C   -0.114371  -0.013146  -0.041648   0.367874   0.399878   5.225177
     7  H   -0.063132   0.421518   0.019619  -0.063131  -0.004803   0.019618
     8  H   -0.039493   0.012015   0.403722  -0.002073  -0.055937   0.016411
     9  H    0.014780  -0.061934  -0.000777   0.415523   0.016256  -0.055557
    10  H   -0.002073   0.012016   0.016412  -0.039506  -0.055941   0.403734
    11  C    0.020836   0.006103  -0.083422   0.020834   0.126210  -0.083434
    12  C   -0.001433  -0.000137   0.031676   0.003887  -0.112833  -0.025590
    13  C    0.003882  -0.000135  -0.025577  -0.001436  -0.112829   0.031682
    14  C    0.000209  -0.000022  -0.000659  -0.000069   0.039837   0.000522
    15  C   -0.000070  -0.000021   0.000524   0.000208   0.039839  -0.000656
    16  C   -0.000079   0.000011   0.000749  -0.000079  -0.009715   0.000750
    17  H   -0.000137   0.000017  -0.000031   0.000981  -0.019067   0.003747
    18  H    0.000983   0.000017   0.003745  -0.000137  -0.019066  -0.000033
    19  H    0.000000  -0.000000  -0.000005  -0.000004  -0.000924  -0.000045
    20  H   -0.000004  -0.000000  -0.000045   0.000000  -0.000924  -0.000005
    21  H    0.415521  -0.061936  -0.055554   0.014780   0.016256  -0.000776
    22  N   -0.000000   0.000000   0.000003  -0.000000  -0.000200   0.000003
    23  C    0.000000   0.000000   0.000011  -0.000000  -0.000162   0.000001
    24  C   -0.000000   0.000000   0.000000   0.000000  -0.000001  -0.000000
    25  C    0.000001   0.000000  -0.000010  -0.000000   0.000035   0.000005
    26  C   -0.000000   0.000000   0.000000   0.000000  -0.000000  -0.000000
    27  C    0.000000  -0.000000  -0.000001  -0.000000   0.000007   0.000000
    28  C   -0.000000  -0.000000  -0.000000   0.000000   0.000000  -0.000000
    29  H    0.000000  -0.000000   0.000000  -0.000000   0.000000  -0.000000
    30  H    0.000000   0.000000   0.000009  -0.000000  -0.000084  -0.000002
    31  H    0.000000   0.000000   0.000000  -0.000000  -0.000000   0.000000
    32  H   -0.000000   0.000000  -0.000000  -0.000000  -0.000000   0.000000
    33  H   -0.000000  -0.000000  -0.000000   0.000000   0.000000   0.000000
    34  C   -0.000000   0.000000   0.000001   0.000000  -0.000162   0.000011
    35  C    0.000000   0.000000  -0.000000  -0.000000  -0.000001   0.000000
    36  C   -0.000000   0.000000   0.000005   0.000001   0.000035  -0.000010
    37  C    0.000000   0.000000  -0.000000  -0.000000  -0.000000   0.000000
    38  C   -0.000000  -0.000000   0.000000   0.000000   0.000007  -0.000001
    39  C    0.000000  -0.000000  -0.000000  -0.000000   0.000000  -0.000000
    40  H   -0.000000  -0.000000  -0.000000   0.000000   0.000000   0.000000
    41  H   -0.000000   0.000000  -0.000002   0.000000  -0.000084   0.000009
    42  H   -0.000000   0.000000   0.000000   0.000000  -0.000000   0.000000
    43  H   -0.000000   0.000000   0.000000  -0.000000  -0.000000  -0.000000
    44  H    0.000000  -0.000000   0.000000  -0.000000   0.000000  -0.000000
               7          8          9         10         11         12
     1  C   -0.063132  -0.039493   0.014780  -0.002073   0.020836  -0.001433
     2  C    0.421518   0.012015  -0.061934   0.012016   0.006103  -0.000137
     3  C    0.019619   0.403722  -0.000777   0.016412  -0.083422   0.031676
     4  C   -0.063131  -0.002073   0.415523  -0.039506   0.020834   0.003887
     5  C   -0.004803  -0.055937   0.016256  -0.055941   0.126210  -0.112833
     6  C    0.019618   0.016411  -0.055557   0.403734  -0.083434  -0.025590
     7  H    0.583313  -0.000227  -0.008672  -0.000227  -0.000172  -0.000007
     8  H   -0.000227   0.556198   0.000040  -0.000197  -0.018095  -0.000553
     9  H   -0.008672   0.000040   0.587053  -0.007247  -0.001566   0.000013
    10  H   -0.000227  -0.000197  -0.007247   0.556205  -0.018094   0.006307
    11  C   -0.000172  -0.018095  -0.001566  -0.018094   5.554561   0.344521
    12  C   -0.000007  -0.000553   0.000013   0.006307   0.344521   5.418779
    13  C   -0.000007   0.006309   0.000018  -0.000551   0.344577  -0.004062
    14  C    0.000000  -0.000219  -0.000012   0.000483   0.001363   0.233049
    15  C    0.000000   0.000486  -0.000003  -0.000219   0.001288  -0.154567
    16  C   -0.000000   0.000237   0.000001   0.000238  -0.126833   0.021311
    17  H   -0.000003  -0.000044   0.000014   0.001043  -0.077122   0.406714
    18  H   -0.000003   0.001041   0.000001  -0.000044  -0.077108   0.016234
    19  H    0.000000  -0.000002  -0.000000  -0.000016   0.013013  -0.040076
    20  H    0.000000  -0.000016   0.000000  -0.000002   0.013006   0.001154
    21  H   -0.008671  -0.007248  -0.000258   0.000040  -0.001566   0.000018
    22  N   -0.000000   0.000001   0.000000   0.000001   0.003385   0.019963
    23  C   -0.000000   0.000001  -0.000000   0.000000   0.001970  -0.005399
    24  C    0.000000   0.000000   0.000000  -0.000000   0.000154  -0.000016
    25  C    0.000000   0.000006  -0.000000   0.000000  -0.001840   0.002620
    26  C    0.000000  -0.000000  -0.000000   0.000000   0.000019  -0.000066
    27  C    0.000000  -0.000000   0.000000   0.000000  -0.000129  -0.000044
    28  C   -0.000000   0.000000   0.000000  -0.000000  -0.000005   0.000028
    29  H   -0.000000  -0.000000   0.000000  -0.000000  -0.000006   0.000017
    30  H   -0.000000   0.000001  -0.000000  -0.000000   0.000253   0.000801
    31  H   -0.000000   0.000000  -0.000000   0.000000  -0.000000   0.000000
    32  H    0.000000  -0.000000  -0.000000   0.000000  -0.000004  -0.000001
    33  H   -0.000000   0.000000   0.000000  -0.000000  -0.000000   0.000000
    34  C   -0.000000   0.000000  -0.000000   0.000001   0.001969  -0.003969
    35  C    0.000000  -0.000000  -0.000000   0.000000   0.000154   0.000724
    36  C    0.000000   0.000000   0.000000   0.000006  -0.001844  -0.004383
    37  C    0.000000   0.000000  -0.000000  -0.000000   0.000019   0.000048
    38  C    0.000000   0.000000   0.000000  -0.000000  -0.000129  -0.000316
    39  C   -0.000000  -0.000000   0.000000   0.000000  -0.000005  -0.000060
    40  H   -0.000000  -0.000000   0.000000  -0.000000  -0.000006   0.000013
    41  H   -0.000000  -0.000000  -0.000000   0.000001   0.000252  -0.001771
    42  H   -0.000000   0.000000  -0.000000   0.000000  -0.000000  -0.000001
    43  H    0.000000   0.000000  -0.000000  -0.000000  -0.000004   0.000031
    44  H   -0.000000  -0.000000   0.000000   0.000000  -0.000000  -0.000001
              13         14         15         16         17         18
     1  C    0.003882   0.000209  -0.000070  -0.000079  -0.000137   0.000983
     2  C   -0.000135  -0.000022  -0.000021   0.000011   0.000017   0.000017
     3  C   -0.025577  -0.000659   0.000524   0.000749  -0.000031   0.003745
     4  C   -0.001436  -0.000069   0.000208  -0.000079   0.000981  -0.000137
     5  C   -0.112829   0.039837   0.039839  -0.009715  -0.019067  -0.019066
     6  C    0.031682   0.000522  -0.000656   0.000750   0.003747  -0.000033
     7  H   -0.000007   0.000000   0.000000  -0.000000  -0.000003  -0.000003
     8  H    0.006309  -0.000219   0.000486   0.000237  -0.000044   0.001041
     9  H    0.000018  -0.000012  -0.000003   0.000001   0.000014   0.000001
    10  H   -0.000551   0.000483  -0.000219   0.000238   0.001043  -0.000044
    11  C    0.344577   0.001363   0.001288  -0.126833  -0.077122  -0.077108
    12  C   -0.004062   0.233049  -0.154567   0.021311   0.406714   0.016234
    13  C    5.418711  -0.154579   0.233093   0.021289   0.016235   0.406696
    14  C   -0.154579   5.392525  -0.066592   0.335510  -0.029548  -0.001487
    15  C    0.233093  -0.066592   5.392398   0.335657  -0.001488  -0.029531
    16  C    0.021289   0.335510   0.335657   5.475087   0.018783   0.018777
    17  H    0.016235  -0.029548  -0.001488   0.018783   0.562382  -0.000161
    18  H    0.406696  -0.001487  -0.029531   0.018777  -0.000161   0.562378
    19  H    0.001152   0.401180   0.009523  -0.045806  -0.006750   0.000022
    20  H   -0.040073   0.009522   0.401150  -0.045771   0.000022  -0.006746
    21  H    0.000013  -0.000003  -0.000012   0.000001   0.000001   0.000014
    22  N    0.019977  -0.015166  -0.015275   0.167952  -0.000496  -0.000496
    23  C   -0.003976  -0.004861   0.027807  -0.085340   0.000023  -0.000079
    24  C    0.000725  -0.011261   0.019000  -0.009948   0.000001  -0.000046
    25  C   -0.004394   0.017996  -0.066567   0.028753  -0.000026   0.000131
    26  C    0.000048  -0.000262   0.003268  -0.004915   0.000000  -0.000002
    27  C   -0.000316   0.001501  -0.009425   0.001527  -0.000001   0.000026
    28  C   -0.000060   0.000018  -0.000541   0.002043   0.000000  -0.000002
    29  H    0.000013  -0.000314   0.000423  -0.001471  -0.000000   0.000000
    30  H   -0.001770  -0.001674   0.004612   0.001653   0.000008  -0.000042
    31  H   -0.000001   0.000002  -0.000029   0.000011  -0.000000   0.000000
    32  H    0.000031  -0.000031   0.000022  -0.000182   0.000000   0.000000
    33  H   -0.000001   0.000001  -0.000016   0.000018  -0.000000   0.000000
    34  C   -0.005397   0.027826  -0.004912  -0.085322  -0.000079   0.000023
    35  C   -0.000016   0.019001  -0.011261  -0.009904  -0.000046   0.000001
    36  C    0.002623  -0.066593   0.018006   0.028746   0.000132  -0.000026
    37  C   -0.000066   0.003265  -0.000262  -0.004915  -0.000002   0.000000
    38  C   -0.000044  -0.009433   0.001501   0.001525   0.000026  -0.000001
    39  C    0.000028  -0.000541   0.000019   0.002046  -0.000002   0.000000
    40  H    0.000017   0.000422  -0.000314  -0.001465   0.000000  -0.000000
    41  H    0.000802   0.004610  -0.001673   0.001671  -0.000042   0.000008
    42  H    0.000000  -0.000029   0.000002   0.000011   0.000000  -0.000000
    43  H   -0.000001   0.000022  -0.000031  -0.000182   0.000000   0.000000
    44  H    0.000000  -0.000015   0.000001   0.000018   0.000000  -0.000000
              19         20         21         22         23         24
     1  C    0.000000  -0.000004   0.415521  -0.000000   0.000000  -0.000000
     2  C   -0.000000  -0.000000  -0.061936   0.000000   0.000000   0.000000
     3  C   -0.000005  -0.000045  -0.055554   0.000003   0.000011   0.000000
     4  C   -0.000004   0.000000   0.014780  -0.000000  -0.000000   0.000000
     5  C   -0.000924  -0.000924   0.016256  -0.000200  -0.000162  -0.000001
     6  C   -0.000045  -0.000005  -0.000776   0.000003   0.000001  -0.000000
     7  H    0.000000   0.000000  -0.008671  -0.000000  -0.000000   0.000000
     8  H   -0.000002  -0.000016  -0.007248   0.000001   0.000001   0.000000
     9  H   -0.000000   0.000000  -0.000258   0.000000  -0.000000   0.000000
    10  H   -0.000016  -0.000002   0.000040   0.000001   0.000000  -0.000000
    11  C    0.013013   0.013006  -0.001566   0.003385   0.001970   0.000154
    12  C   -0.040076   0.001154   0.000018   0.019963  -0.005399  -0.000016
    13  C    0.001152  -0.040073   0.000013   0.019977  -0.003976   0.000725
    14  C    0.401180   0.009522  -0.000003  -0.015166  -0.004861  -0.011261
    15  C    0.009523   0.401150  -0.000012  -0.015275   0.027807   0.019000
    16  C   -0.045806  -0.045771   0.000001   0.167952  -0.085340  -0.009948
    17  H   -0.006750   0.000022   0.000001  -0.000496   0.000023   0.000001
    18  H    0.000022  -0.006746   0.000014  -0.000496  -0.000079  -0.000046
    19  H    0.526862  -0.000315   0.000000  -0.006258  -0.000925  -0.000311
    20  H   -0.000315   0.526853  -0.000000  -0.006278   0.002742   0.000069
    21  H    0.000000  -0.000000   0.587053   0.000000  -0.000000  -0.000000
    22  N   -0.006258  -0.006278   0.000000   6.521589   0.163705  -0.009775
    23  C   -0.000925   0.002742  -0.000000   0.163705   5.412616   0.355919
    24  C   -0.000311   0.000069  -0.000000  -0.009775   0.355919   5.255478
    25  C    0.000367   0.001127   0.000000  -0.011192   0.358611  -0.050094
    26  C    0.000014   0.000376  -0.000000   0.013435   0.021238   0.359448
    27  C    0.000008  -0.001882   0.000000   0.013549   0.019813  -0.139625
    28  C   -0.000005   0.000523   0.000000   0.005792  -0.098532  -0.018365
    29  H   -0.000008   0.000036   0.000000  -0.007323  -0.035748   0.397776
    30  H    0.000010   0.001183  -0.000000  -0.007967  -0.034392   0.013270
    31  H   -0.000000   0.000003  -0.000000  -0.000593   0.018166  -0.053129
    32  H   -0.000000  -0.000051  -0.000000  -0.000586   0.018087  -0.002475
    33  H   -0.000000   0.000003   0.000000  -0.000041  -0.008137   0.025115
    34  C    0.002726  -0.000930  -0.000000   0.163725  -0.086716   0.027049
    35  C    0.000069  -0.000310   0.000000  -0.009686   0.027058  -0.057632
    36  C    0.001126   0.000368  -0.000000  -0.011279  -0.005254   0.013367
    37  C    0.000376   0.000014  -0.000000   0.013418  -0.001182  -0.006735
    38  C   -0.001883   0.000008   0.000000   0.013561  -0.005129   0.003650
    39  C    0.000524  -0.000005   0.000000   0.005792   0.002411  -0.000995
    40  H    0.000036  -0.000008   0.000000  -0.007304   0.002736   0.001308
    41  H    0.001183   0.000010  -0.000000  -0.007986  -0.000839   0.000184
    42  H    0.000003  -0.000000  -0.000000  -0.000593  -0.000193   0.000053
    43  H   -0.000051  -0.000000  -0.000000  -0.000586   0.000012  -0.000025
    44  H    0.000003  -0.000000   0.000000  -0.000041   0.000019  -0.000017
              25         26         27         28         29         30
     1  C    0.000001  -0.000000   0.000000  -0.000000   0.000000   0.000000
     2  C    0.000000   0.000000  -0.000000  -0.000000  -0.000000   0.000000
     3  C   -0.000010   0.000000  -0.000001  -0.000000   0.000000   0.000009
     4  C   -0.000000   0.000000  -0.000000   0.000000  -0.000000  -0.000000
     5  C    0.000035  -0.000000   0.000007   0.000000   0.000000  -0.000084
     6  C    0.000005  -0.000000   0.000000  -0.000000  -0.000000  -0.000002
     7  H    0.000000   0.000000   0.000000  -0.000000  -0.000000  -0.000000
     8  H    0.000006  -0.000000  -0.000000   0.000000  -0.000000   0.000001
     9  H   -0.000000  -0.000000   0.000000   0.000000   0.000000  -0.000000
    10  H    0.000000   0.000000   0.000000  -0.000000  -0.000000  -0.000000
    11  C   -0.001840   0.000019  -0.000129  -0.000005  -0.000006   0.000253
    12  C    0.002620  -0.000066  -0.000044   0.000028   0.000017   0.000801
    13  C   -0.004394   0.000048  -0.000316  -0.000060   0.000013  -0.001770
    14  C    0.017996  -0.000262   0.001501   0.000018  -0.000314  -0.001674
    15  C   -0.066567   0.003268  -0.009425  -0.000541   0.000423   0.004612
    16  C    0.028753  -0.004915   0.001527   0.002043  -0.001471   0.001653
    17  H   -0.000026   0.000000  -0.000001   0.000000  -0.000000   0.000008
    18  H    0.000131  -0.000002   0.000026  -0.000002   0.000000  -0.000042
    19  H    0.000367   0.000014   0.000008  -0.000005  -0.000008   0.000010
    20  H    0.001127   0.000376  -0.001882   0.000523   0.000036   0.001183
    21  H    0.000000  -0.000000   0.000000   0.000000   0.000000  -0.000000
    22  N   -0.011192   0.013435   0.013549   0.005792  -0.007323  -0.007967
    23  C    0.358611   0.021238   0.019813  -0.098532  -0.035748  -0.034392
    24  C   -0.050094   0.359448  -0.139625  -0.018365   0.397776   0.013270
    25  C    5.253435  -0.136371   0.357337  -0.019865   0.012905   0.396979
    26  C   -0.136371   5.085707   0.034497   0.428301  -0.043489  -0.001330
    27  C    0.357337   0.034497   5.092428   0.428406  -0.001322  -0.044524
    28  C   -0.019865   0.428301   0.428406   5.054455   0.010262   0.010257
    29  H    0.012905  -0.043489  -0.001322   0.010262   0.523853  -0.000275
    30  H    0.396979  -0.001330  -0.044524   0.010257  -0.000275   0.524328
    31  H   -0.002463   0.416531   0.016884  -0.068100  -0.007445   0.000014
    32  H   -0.053338   0.016878   0.416556  -0.067855   0.000015  -0.007450
    33  H    0.025172  -0.072863  -0.072874   0.432409  -0.000107  -0.000107
    34  C   -0.005215  -0.001188  -0.005130   0.002415   0.002748  -0.000834
    35  C    0.013361  -0.006741   0.003648  -0.000994   0.001309   0.000183
    36  C   -0.008836   0.000739  -0.000264   0.000075  -0.000700  -0.000229
    37  C    0.000740  -0.000572   0.000085  -0.000057  -0.001409  -0.000008
    38  C   -0.000264   0.000085  -0.000056   0.000020   0.000493   0.000016
    39  C    0.000074  -0.000057   0.000020  -0.000011   0.000417  -0.000005
    40  H   -0.000703  -0.001409   0.000493   0.000417   0.000929   0.000033
    41  H   -0.000229  -0.000008   0.000016  -0.000005   0.000033  -0.000009
    42  H   -0.000032   0.000025  -0.000001  -0.000001  -0.000044  -0.000000
    43  H    0.000001  -0.000001   0.000000   0.000000   0.000003  -0.000000
    44  H    0.000001  -0.000001  -0.000000  -0.000000   0.000003   0.000000
              31         32         33         34         35         36
     1  C    0.000000  -0.000000  -0.000000  -0.000000   0.000000  -0.000000
     2  C    0.000000   0.000000  -0.000000   0.000000   0.000000   0.000000
     3  C    0.000000  -0.000000  -0.000000   0.000001  -0.000000   0.000005
     4  C   -0.000000  -0.000000   0.000000   0.000000  -0.000000   0.000001
     5  C   -0.000000  -0.000000   0.000000  -0.000162  -0.000001   0.000035
     6  C    0.000000   0.000000   0.000000   0.000011   0.000000  -0.000010
     7  H   -0.000000   0.000000  -0.000000  -0.000000   0.000000   0.000000
     8  H    0.000000  -0.000000   0.000000   0.000000  -0.000000   0.000000
     9  H   -0.000000  -0.000000   0.000000  -0.000000  -0.000000   0.000000
    10  H    0.000000   0.000000  -0.000000   0.000001   0.000000   0.000006
    11  C   -0.000000  -0.000004  -0.000000   0.001969   0.000154  -0.001844
    12  C    0.000000  -0.000001   0.000000  -0.003969   0.000724  -0.004383
    13  C   -0.000001   0.000031  -0.000001  -0.005397  -0.000016   0.002623
    14  C    0.000002  -0.000031   0.000001   0.027826   0.019001  -0.066593
    15  C   -0.000029   0.000022  -0.000016  -0.004912  -0.011261   0.018006
    16  C    0.000011  -0.000182   0.000018  -0.085322  -0.009904   0.028746
    17  H   -0.000000   0.000000  -0.000000  -0.000079  -0.000046   0.000132
    18  H    0.000000   0.000000   0.000000   0.000023   0.000001  -0.000026
    19  H   -0.000000  -0.000000  -0.000000   0.002726   0.000069   0.001126
    20  H    0.000003  -0.000051   0.000003  -0.000930  -0.000310   0.000368
    21  H   -0.000000  -0.000000   0.000000  -0.000000   0.000000  -0.000000
    22  N   -0.000593  -0.000586  -0.000041   0.163725  -0.009686  -0.011279
    23  C    0.018166   0.018087  -0.008137  -0.086716   0.027058  -0.005254
    24  C   -0.053129  -0.002475   0.025115   0.027049  -0.057632   0.013367
    25  C   -0.002463  -0.053338   0.025172  -0.005215   0.013361  -0.008836
    26  C    0.416531   0.016878  -0.072863  -0.001188  -0.006741   0.000739
    27  C    0.016884   0.416556  -0.072874  -0.005130   0.003648  -0.000264
    28  C   -0.068100  -0.067855   0.432409   0.002415  -0.000994   0.000075
    29  H   -0.007445   0.000015  -0.000107   0.002748   0.001309  -0.000700
    30  H    0.000014  -0.007450  -0.000107  -0.000834   0.000183  -0.000229
    31  H    0.584650  -0.000245  -0.008972  -0.000193   0.000053  -0.000032
    32  H   -0.000245   0.584787  -0.008967   0.000012  -0.000024   0.000001
    33  H   -0.008972  -0.008967   0.585781   0.000019  -0.000017   0.000001
    34  C   -0.000193   0.000012   0.000019   5.412552   0.355812   0.358700
    35  C    0.000053  -0.000024  -0.000017   0.355812   5.255574  -0.050102
    36  C   -0.000032   0.000001   0.000001   0.358700  -0.050102   5.253426
    37  C    0.000025  -0.000001  -0.000001   0.021226   0.359486  -0.136347
    38  C   -0.000001   0.000000  -0.000000   0.019840  -0.139669   0.357305
    39  C   -0.000001   0.000000  -0.000000  -0.098530  -0.018337  -0.019891
    40  H   -0.000044   0.000003   0.000003  -0.035772   0.397783   0.012904
    41  H   -0.000000  -0.000000   0.000000  -0.034368   0.013269   0.396955
    42  H   -0.000000   0.000000  -0.000000   0.018170  -0.053142  -0.002465
    43  H    0.000000  -0.000000  -0.000000   0.018082  -0.002474  -0.053327
    44  H   -0.000000  -0.000000  -0.000000  -0.008138   0.025117   0.025172
              37         38         39         40         41         42
     1  C    0.000000  -0.000000   0.000000  -0.000000  -0.000000  -0.000000
     2  C    0.000000  -0.000000  -0.000000  -0.000000   0.000000   0.000000
     3  C   -0.000000   0.000000  -0.000000  -0.000000  -0.000002   0.000000
     4  C   -0.000000   0.000000  -0.000000   0.000000   0.000000   0.000000
     5  C   -0.000000   0.000007   0.000000   0.000000  -0.000084  -0.000000
     6  C    0.000000  -0.000001  -0.000000   0.000000   0.000009   0.000000
     7  H    0.000000   0.000000  -0.000000  -0.000000  -0.000000  -0.000000
     8  H    0.000000   0.000000  -0.000000  -0.000000  -0.000000   0.000000
     9  H   -0.000000   0.000000   0.000000   0.000000  -0.000000  -0.000000
    10  H   -0.000000  -0.000000   0.000000  -0.000000   0.000001   0.000000
    11  C    0.000019  -0.000129  -0.000005  -0.000006   0.000252  -0.000000
    12  C    0.000048  -0.000316  -0.000060   0.000013  -0.001771  -0.000001
    13  C   -0.000066  -0.000044   0.000028   0.000017   0.000802   0.000000
    14  C    0.003265  -0.009433  -0.000541   0.000422   0.004610  -0.000029
    15  C   -0.000262   0.001501   0.000019  -0.000314  -0.001673   0.000002
    16  C   -0.004915   0.001525   0.002046  -0.001465   0.001671   0.000011
    17  H   -0.000002   0.000026  -0.000002   0.000000  -0.000042   0.000000
    18  H    0.000000  -0.000001   0.000000  -0.000000   0.000008  -0.000000
    19  H    0.000376  -0.001883   0.000524   0.000036   0.001183   0.000003
    20  H    0.000014   0.000008  -0.000005  -0.000008   0.000010  -0.000000
    21  H   -0.000000   0.000000   0.000000   0.000000  -0.000000  -0.000000
    22  N    0.013418   0.013561   0.005792  -0.007304  -0.007986  -0.000593
    23  C   -0.001182  -0.005129   0.002411   0.002736  -0.000839  -0.000193
    24  C   -0.006735   0.003650  -0.000995   0.001308   0.000184   0.000053
    25  C    0.000740  -0.000264   0.000074  -0.000703  -0.000229  -0.000032
    26  C   -0.000572   0.000085  -0.000057  -0.001409  -0.000008   0.000025
    27  C    0.000085  -0.000056   0.000020   0.000493   0.000016  -0.000001
    28  C   -0.000057   0.000020  -0.000011   0.000417  -0.000005  -0.000001
    29  H   -0.001409   0.000493   0.000417   0.000929   0.000033  -0.000044
    30  H   -0.000008   0.000016  -0.000005   0.000033  -0.000009  -0.000000
    31  H    0.000025  -0.000001  -0.000001  -0.000044  -0.000000  -0.000000
    32  H   -0.000001   0.000000   0.000000   0.000003  -0.000000   0.000000
    33  H   -0.000001  -0.000000  -0.000000   0.000003   0.000000  -0.000000
    34  C    0.021226   0.019840  -0.098530  -0.035772  -0.034368   0.018170
    35  C    0.359486  -0.139669  -0.018337   0.397783   0.013269  -0.053142
    36  C   -0.136347   0.357305  -0.019891   0.012904   0.396955  -0.002465
    37  C    5.085657   0.034496   0.428292  -0.043477  -0.001328   0.416544
    38  C    0.034496   5.092477   0.428432  -0.001323  -0.044521   0.016888
    39  C    0.428292   0.428432   5.054430   0.010264   0.010252  -0.068109
    40  H   -0.043477  -0.001323   0.010264   0.523852  -0.000275  -0.007447
    41  H   -0.001328  -0.044521   0.010252  -0.000275   0.524312   0.000014
    42  H    0.416544   0.016888  -0.068109  -0.007447   0.000014   0.584656
    43  H    0.016875   0.416543  -0.067846   0.000015  -0.007448  -0.000245
    44  H   -0.072871  -0.072872   0.432413  -0.000107  -0.000107  -0.008973
              43         44
     1  C   -0.000000   0.000000
     2  C    0.000000  -0.000000
     3  C    0.000000   0.000000
     4  C   -0.000000  -0.000000
     5  C   -0.000000   0.000000
     6  C   -0.000000  -0.000000
     7  H    0.000000  -0.000000
     8  H    0.000000  -0.000000
     9  H   -0.000000   0.000000
    10  H   -0.000000   0.000000
    11  C   -0.000004  -0.000000
    12  C    0.000031  -0.000001
    13  C   -0.000001   0.000000
    14  C    0.000022  -0.000015
    15  C   -0.000031   0.000001
    16  C   -0.000182   0.000018
    17  H    0.000000   0.000000
    18  H    0.000000  -0.000000
    19  H   -0.000051   0.000003
    20  H   -0.000000  -0.000000
    21  H   -0.000000   0.000000
    22  N   -0.000586  -0.000041
    23  C    0.000012   0.000019
    24  C   -0.000025  -0.000017
    25  C    0.000001   0.000001
    26  C   -0.000001  -0.000001
    27  C    0.000000  -0.000000
    28  C    0.000000  -0.000000
    29  H    0.000003   0.000003
    30  H   -0.000000   0.000000
    31  H    0.000000  -0.000000
    32  H   -0.000000  -0.000000
    33  H   -0.000000  -0.000000
    34  C    0.018082  -0.008138
    35  C   -0.002474   0.025117
    36  C   -0.053327   0.025172
    37  C    0.016875  -0.072871
    38  C    0.416543  -0.072872
    39  C   -0.067846   0.432413
    40  H    0.000015  -0.000107
    41  H   -0.007448  -0.000107
    42  H   -0.000245  -0.008973
    43  H    0.584786  -0.008967
    44  H   -0.008967   0.585783
 Mulliken charges:
               1
     1  C   -0.087482
     2  C   -0.122144
     3  C   -0.134167
     4  C   -0.087479
     5  C    0.000992
     6  C   -0.134150
     7  H    0.104986
     8  H    0.127636
     9  H    0.102325
    10  H    0.127630
    11  C    0.036898
    12  C   -0.152626
    13  C   -0.152634
    14  C   -0.125493
    15  C   -0.125361
    16  C   -0.032448
    17  H    0.124916
    18  H    0.124915
    19  H    0.145186
    20  H    0.145195
    21  H    0.102326
    22  N   -0.006730
    23  C   -0.056081
    24  C   -0.112117
    25  C   -0.108218
    26  C   -0.111335
    27  C   -0.111204
    28  C   -0.101022
    29  H    0.148427
    30  H    0.147095
    31  H    0.104910
    32  H    0.104821
    33  H    0.103582
    34  C   -0.056053
    35  C   -0.112248
    36  C   -0.108113
    37  C   -0.111331
    38  C   -0.111230
    39  C   -0.101019
    40  H    0.148426
    41  H    0.147113
    42  H    0.104909
    43  H    0.104818
    44  H    0.103581
 Sum of Mulliken charges =  -0.00000
 Mulliken charges with hydrogens summed into heavy atoms:
               1
     1  C    0.014844
     2  C   -0.017158
     3  C   -0.006531
     4  C    0.014846
     5  C    0.000992
     6  C   -0.006521
    11  C    0.036898
    12  C   -0.027710
    13  C   -0.027719
    14  C    0.019693
    15  C    0.019833
    16  C   -0.032448
    22  N   -0.006730
    23  C   -0.056081
    24  C    0.036310
    25  C    0.038876
    26  C   -0.006425
    27  C   -0.006383
    28  C    0.002560
    34  C   -0.056053
    35  C    0.036178
    36  C    0.039000
    37  C   -0.006422
    38  C   -0.006412
    39  C    0.002562
 Electronic spatial extent (au):  <R**2>=          11114.8951
 Charge=              0.0000 electrons
 Dipole moment (field-independent basis, Debye):
    X=              0.2417    Y=              0.0002    Z=             -0.0003  Tot=              0.2417
 Quadrupole moment (field-independent basis, Debye-Ang):
   XX=           -134.5103   YY=           -133.2808   ZZ=           -148.5080
   XY=              0.0006   XZ=             -0.0009   YZ=              0.4540
 Traceless Quadrupole moment (field-independent basis, Debye-Ang):
   XX=              4.2561   YY=              5.4855   ZZ=             -9.7416
   XY=              0.0006   XZ=             -0.0009   YZ=              0.4540
 Octapole moment (field-independent basis, Debye-Ang**2):
  XXX=            -34.5253  YYY=              0.0078  ZZZ=              0.0029  XYY=              7.0797
  XXY=             -0.0049  XXZ=             -0.0097  XZZ=             19.2155  YZZ=              0.0023
  YYZ=             -0.0042  XYZ=             -2.3752
 Hexadecapole moment (field-independent basis, Debye-Ang**3):
 XXXX=         -10830.8333 YYYY=          -3333.7038 ZZZZ=           -509.5543 XXXY=             -0.0719
 XXXZ=              0.0146 YYYX=              0.0297 YYYZ=             84.6287 ZZZX=             -0.0134
 ZZZY=              0.2310 XXYY=          -2275.3988 XXZZ=          -2154.2331 YYZZ=           -681.4717
 XXYZ=            -71.4758 YYXZ=             -0.0166 ZZXY=              0.0202
 N-N= 1.905495953278D+03 E-N=-6.086291092239D+03  KE= 9.754035619272D+02
 No NMR shielding tensors so no spin-rotation constants.
 Leave Link  601 at Sun Jan 17 16:19:59 2021, MaxMem=  4026531840 cpu:               2.7 elap:               0.4
 (Enter /opt/ohpc/pub/libs/gaussian/g16-A.03/sandybridge/g16/l9999.exe)

 Test job not archived.
 1\1\GINC-CASCADEB025\SP\RLC-wHPBE\TZVP\C24H19N1\RDU230\17-Jan-2021\0\\
 #P LC-wHPBE/TZVP iop(3/107=0182800000, 3/108=0182800000) scf=(conver=6
 ,fermi,ndamp=35,noincfock,novaracc,vshift=500,xqc)\\H19 C24 N1\\0,1\C,
 0,6.129184,1.201496,-0.030856\C,0,6.830271,0.000001,0.000182\C,0,4.738
 958,1.200713,-0.032197\C,0,6.129235,-1.201473,0.031153\C,0,4.021751,-0
 .000032,0.000031\C,0,4.738962,-1.200719,0.032361\H,0,7.919539,0.000045
 ,0.00019\H,0,4.198073,2.145454,-0.081149\H,0,6.668779,-2.147537,0.0634
 12\H,0,4.198148,-2.145504,0.081256\C,0,2.536892,-0.000014,-0.000063\C,
 0,1.813363,-0.924286,-0.760077\C,0,1.813258,0.92429,0.759786\C,0,0.426
 027,-0.922473,-0.771159\C,0,0.425899,0.922498,0.770636\C,0,-0.288344,0
 .000018,-0.000311\H,0,2.347573,-1.638662,-1.38605\H,0,2.34735,1.638674
 ,1.385851\H,0,-0.11537,-1.638494,-1.387158\H,0,-0.115571,1.638578,1.38
 6504\H,0,6.668762,2.147543,-0.063006\N,0,-1.704382,-0.000003,-0.000499
 \C,0,-2.414266,1.22777,0.004035\C,0,-3.559402,1.382015,0.792108\C,0,-1
 .979956,2.301413,-0.78017\C,0,-4.257371,2.583383,0.786193\C,0,-2.67352
 7,3.505213,-0.76583\C,0,-3.817854,3.653503,0.012423\H,0,-3.900046,0.55
 1242,1.407814\H,0,-1.092486,2.185578,-1.400082\H,0,-5.147916,2.686607,
 1.40537\H,0,-2.321511,4.331764,-1.38228\H,0,-4.363183,4.595952,0.01566
 4\C,0,-2.414241,-1.227791,-0.004406\C,0,-3.559682,-1.382189,-0.792032\
 C,0,-1.979686,-2.301249,0.779869\C,0,-4.257673,-2.583532,-0.785597\C,0
 ,-2.673287,-3.50506,0.766028\C,0,-3.817885,-3.653507,-0.011769\H,0,-3.
 900521,-0.551523,-1.407763\H,0,-1.092008,-2.185299,1.399468\H,0,-5.148
 466,-2.686887,-1.404399\H,0,-2.32101,-4.331477,1.382521\H,0,-4.363223,
 -4.595951,-0.014691\\Version=EM64L-G16RevA.03\State=1-A\HF=-980.101948
 9\RMSD=7.096e-07\Dipole=-0.0950817,0.0000669,0.0001083\Quadrupole=3.16
 4287,4.0783651,-7.2426521,-0.0004657,-0.0006817,-0.33755\PG=C01 [X(C24
 H19N1)]\\@


 YOU CAN LEAD A BOY TO COLLEGE....
 BUT YOU CANNOT MAKE HIM THINK....
           ELBERT HUBBARD
 Job cpu time:       0 days  1 hours 16 minutes 59.3 seconds.
 Elapsed time:       0 days  0 hours  9 minutes 39.5 seconds.
 File lengths (MBytes):  RWF=    156 Int=      0 D2E=      0 Chk=     28 Scr=      8
 Normal termination of Gaussian 16 at Sun Jan 17 16:19:59 2021.
