 Entering Gaussian System, Link 0=g16
 Input=mol_bp_pa_half_tune_n1.gjf
 Output=mol_bp_pa_half_tune_n1.log
 Initial command:
 /opt/ohpc/pub/libs/gaussian/g16-A.03/sandybridge/g16/l1.exe "/mnt/gpfs2_4m/scratch/rdu230/ondemand/projects/init_structures/wtuning/mol_bp_pa_half/tuning_mol_bp_pa_half_ocycle0/Gau-388747.inp" -scrdir="/mnt/gpfs2_4m/scratch/rdu230/ondemand/projects/init_structures/wtuning/mol_bp_pa_half/tuning_mol_bp_pa_half_ocycle0/"
 Entering Link 1 = /opt/ohpc/pub/libs/gaussian/g16-A.03/sandybridge/g16/l1.exe PID=    388748.
  
 Copyright (c) 1988,1990,1992,1993,1995,1998,2003,2009,2016,
            Gaussian, Inc.  All Rights Reserved.
  
 This is part of the Gaussian(R) 16 program.  It is based on
 the Gaussian(R) 09 system (copyright 2009, Gaussian, Inc.),
 the Gaussian(R) 03 system (copyright 2003, Gaussian, Inc.),
 the Gaussian(R) 98 system (copyright 1998, Gaussian, Inc.),
 the Gaussian(R) 94 system (copyright 1995, Gaussian, Inc.),
 the Gaussian 92(TM) system (copyright 1992, Gaussian, Inc.),
 the Gaussian 90(TM) system (copyright 1990, Gaussian, Inc.),
 the Gaussian 88(TM) system (copyright 1988, Gaussian, Inc.),
 the Gaussian 86(TM) system (copyright 1986, Carnegie Mellon
 University), and the Gaussian 82(TM) system (copyright 1983,
 Carnegie Mellon University). Gaussian is a federally registered
 trademark of Gaussian, Inc.
  
 This software contains proprietary and confidential information,
 including trade secrets, belonging to Gaussian, Inc.
  
 This software is provided under written license and may be
 used, copied, transmitted, or stored only in accord with that
 written license.
  
 The following legend is applicable only to US Government
 contracts under FAR:
  
                    RESTRICTED RIGHTS LEGEND
  
 Use, reproduction and disclosure by the US Government is
 subject to restrictions as set forth in subparagraphs (a)
 and (c) of the Commercial Computer Software - Restricted
 Rights clause in FAR 52.227-19.
  
 Gaussian, Inc.
 340 Quinnipiac St., Bldg. 40, Wallingford CT 06492
  
  
 ---------------------------------------------------------------
 Warning -- This program may not be used in any manner that
 competes with the business of Gaussian, Inc. or will provide
 assistance to any competitor of Gaussian, Inc.  The licensee
 of this program is prohibited from giving any competitor of
 Gaussian, Inc. access to this program.  By using this program,
 the user acknowledges that Gaussian, Inc. is engaged in the
 business of creating and licensing software in the field of
 computational chemistry and represents and warrants to the
 licensee that it is not a competitor of Gaussian, Inc. and that
 it will not use this program in any manner prohibited above.
 ---------------------------------------------------------------
  

 Cite this work as:
 Gaussian 16, Revision A.03,
 M. J. Frisch, G. W. Trucks, H. B. Schlegel, G. E. Scuseria, 
 M. A. Robb, J. R. Cheeseman, G. Scalmani, V. Barone, 
 G. A. Petersson, H. Nakatsuji, X. Li, M. Caricato, A. V. Marenich, 
 J. Bloino, B. G. Janesko, R. Gomperts, B. Mennucci, H. P. Hratchian, 
 J. V. Ortiz, A. F. Izmaylov, J. L. Sonnenberg, D. Williams-Young, 
 F. Ding, F. Lipparini, F. Egidi, J. Goings, B. Peng, A. Petrone, 
 T. Henderson, D. Ranasinghe, V. G. Zakrzewski, J. Gao, N. Rega, 
 G. Zheng, W. Liang, M. Hada, M. Ehara, K. Toyota, R. Fukuda, 
 J. Hasegawa, M. Ishida, T. Nakajima, Y. Honda, O. Kitao, H. Nakai, 
 T. Vreven, K. Throssell, J. A. Montgomery, Jr., J. E. Peralta, 
 F. Ogliaro, M. J. Bearpark, J. J. Heyd, E. N. Brothers, K. N. Kudin, 
 V. N. Staroverov, T. A. Keith, R. Kobayashi, J. Normand, 
 K. Raghavachari, A. P. Rendell, J. C. Burant, S. S. Iyengar, 
 J. Tomasi, M. Cossi, J. M. Millam, M. Klene, C. Adamo, R. Cammi, 
 J. W. Ochterski, R. L. Martin, K. Morokuma, O. Farkas, 
 J. B. Foresman, and D. J. Fox, Gaussian, Inc., Wallingford CT, 2016.
 
 ******************************************
 Gaussian 16:  EM64L-G16RevA.03 25-Dec-2016
                17-Jan-2021 
 ******************************************
 %mem=30GB
 %nproc=8
 Will use up to    8 processors via shared memory.
 ----------------------------------------------------------------------
 #P LC-wHPBE/TZVP iop(3/107=0328100000, 3/108=0328100000) scf=(conver=6
 ,fermi,ndamp=35,noincfock,novaracc,vshift=500,xqc)
 ----------------------------------------------------------------------
 1/38=1,172=1/1;
 2/12=2,17=6,18=5,40=1/2;
 3/5=19,7=101,11=2,25=1,30=1,74=-71,107=328100000,108=328100000/1,2,3;
 4//1;
 5/5=100002,6=6,8=3,10=500,13=1,18=-1,22=13,38=1,93=35/2,8;
 6/7=2,8=2,9=2,10=2,28=1/1;
 99/5=1,9=1/99;
 Leave Link    1 at Sun Jan 17 12:06:00 2021, MaxMem=  4026531840 cpu:               0.7 elap:               0.1
 (Enter /opt/ohpc/pub/libs/gaussian/g16-A.03/sandybridge/g16/l101.exe)
 ----------
 H19 C24 N1
 ----------
 Symbolic Z-matrix:
 Charge =  0 Multiplicity = 1
 C                     6.12918   1.2015   -0.03086 
 C                     6.83027   0.        0.00018 
 C                     4.73896   1.20071  -0.0322 
 C                     6.12924  -1.20147   0.03115 
 C                     4.02175  -0.00003   0.00003 
 C                     4.73896  -1.20072   0.03236 
 H                     7.91954   0.00005   0.00019 
 H                     4.19807   2.14545  -0.08115 
 H                     6.66878  -2.14754   0.06341 
 H                     4.19815  -2.1455    0.08126 
 C                     2.53689  -0.00001  -0.00006 
 C                     1.81336  -0.92429  -0.76008 
 C                     1.81326   0.92429   0.75979 
 C                     0.42603  -0.92247  -0.77116 
 C                     0.4259    0.9225    0.77064 
 C                    -0.28834   0.00002  -0.00031 
 H                     2.34757  -1.63866  -1.38605 
 H                     2.34735   1.63867   1.38585 
 H                    -0.11537  -1.63849  -1.38716 
 H                    -0.11557   1.63858   1.3865 
 H                     6.66876   2.14754  -0.06301 
 N                    -1.70438  0.        -0.0005 
 C                    -2.41427   1.22777   0.00404 
 C                    -3.5594    1.38202   0.79211 
 C                    -1.97996   2.30141  -0.78017 
 C                    -4.25737   2.58338   0.78619 
 C                    -2.67353   3.50521  -0.76583 
 C                    -3.81785   3.6535    0.01242 
 H                    -3.90005   0.55124   1.40781 
 H                    -1.09249   2.18558  -1.40008 
 H                    -5.14792   2.68661   1.40537 
 H                    -2.32151   4.33176  -1.38228 
 H                    -4.36318   4.59595   0.01566 
 C                    -2.41424  -1.22779  -0.00441 
 C                    -3.55968  -1.38219  -0.79203 
 C                    -1.97969  -2.30125   0.77987 
 C                    -4.25767  -2.58353  -0.7856 
 C                    -2.67329  -3.50506   0.76603 
 C                    -3.81789  -3.65351  -0.01177 
 H                    -3.90052  -0.55152  -1.40776 
 H                    -1.09201  -2.1853    1.39947 
 H                    -5.14847  -2.68689  -1.4044 
 H                    -2.32101  -4.33148   1.38252 
 H                    -4.36322  -4.59595  -0.01469 
 
 ITRead=  0  0  0  0  0  0  0  0  0  0  0  0  0  0  0  0  0  0  0  0
 ITRead=  0  0  0  0  0  0  0  0  0  0  0  0  0  0  0  0  0  0  0  0
 ITRead=  0  0  0  0
 MicOpt= -1 -1 -1 -1 -1 -1 -1 -1 -1 -1 -1 -1 -1 -1 -1 -1 -1 -1 -1 -1
 MicOpt= -1 -1 -1 -1 -1 -1 -1 -1 -1 -1 -1 -1 -1 -1 -1 -1 -1 -1 -1 -1
 MicOpt= -1 -1 -1 -1
 NAtoms=     44 NQM=       44 NQMF=       0 NMMI=      0 NMMIF=      0
                NMic=       0 NMicF=      0.
                    Isotopes and Nuclear Properties:
 (Nuclear quadrupole moments (NQMom) in fm**2, nuclear magnetic moments (NMagM)
  in nuclear magnetons)

  Atom         1           2           3           4           5           6           7           8           9          10
 IAtWgt=          12          12          12          12          12          12           1           1           1           1
 AtmWgt=  12.0000000  12.0000000  12.0000000  12.0000000  12.0000000  12.0000000   1.0078250   1.0078250   1.0078250   1.0078250
 NucSpn=           0           0           0           0           0           0           1           1           1           1
 AtZEff=  -0.0000000  -0.0000000  -0.0000000  -0.0000000  -0.0000000  -0.0000000  -0.0000000  -0.0000000  -0.0000000  -0.0000000
 NQMom=    0.0000000   0.0000000   0.0000000   0.0000000   0.0000000   0.0000000   0.0000000   0.0000000   0.0000000   0.0000000
 NMagM=    0.0000000   0.0000000   0.0000000   0.0000000   0.0000000   0.0000000   2.7928460   2.7928460   2.7928460   2.7928460
 AtZNuc=   6.0000000   6.0000000   6.0000000   6.0000000   6.0000000   6.0000000   1.0000000   1.0000000   1.0000000   1.0000000

  Atom        11          12          13          14          15          16          17          18          19          20
 IAtWgt=          12          12          12          12          12          12           1           1           1           1
 AtmWgt=  12.0000000  12.0000000  12.0000000  12.0000000  12.0000000  12.0000000   1.0078250   1.0078250   1.0078250   1.0078250
 NucSpn=           0           0           0           0           0           0           1           1           1           1
 AtZEff=  -0.0000000  -0.0000000  -0.0000000  -0.0000000  -0.0000000  -0.0000000  -0.0000000  -0.0000000  -0.0000000  -0.0000000
 NQMom=    0.0000000   0.0000000   0.0000000   0.0000000   0.0000000   0.0000000   0.0000000   0.0000000   0.0000000   0.0000000
 NMagM=    0.0000000   0.0000000   0.0000000   0.0000000   0.0000000   0.0000000   2.7928460   2.7928460   2.7928460   2.7928460
 AtZNuc=   6.0000000   6.0000000   6.0000000   6.0000000   6.0000000   6.0000000   1.0000000   1.0000000   1.0000000   1.0000000

  Atom        21          22          23          24          25          26          27          28          29          30
 IAtWgt=           1          14          12          12          12          12          12          12           1           1
 AtmWgt=   1.0078250  14.0030740  12.0000000  12.0000000  12.0000000  12.0000000  12.0000000  12.0000000   1.0078250   1.0078250
 NucSpn=           1           2           0           0           0           0           0           0           1           1
 AtZEff=  -0.0000000  -0.0000000  -0.0000000  -0.0000000  -0.0000000  -0.0000000  -0.0000000  -0.0000000  -0.0000000  -0.0000000
 NQMom=    0.0000000   2.0440000   0.0000000   0.0000000   0.0000000   0.0000000   0.0000000   0.0000000   0.0000000   0.0000000
 NMagM=    2.7928460   0.4037610   0.0000000   0.0000000   0.0000000   0.0000000   0.0000000   0.0000000   2.7928460   2.7928460
 AtZNuc=   1.0000000   7.0000000   6.0000000   6.0000000   6.0000000   6.0000000   6.0000000   6.0000000   1.0000000   1.0000000

  Atom        31          32          33          34          35          36          37          38          39          40
 IAtWgt=           1           1           1          12          12          12          12          12          12           1
 AtmWgt=   1.0078250   1.0078250   1.0078250  12.0000000  12.0000000  12.0000000  12.0000000  12.0000000  12.0000000   1.0078250
 NucSpn=           1           1           1           0           0           0           0           0           0           1
 AtZEff=  -0.0000000  -0.0000000  -0.0000000  -0.0000000  -0.0000000  -0.0000000  -0.0000000  -0.0000000  -0.0000000  -0.0000000
 NQMom=    0.0000000   0.0000000   0.0000000   0.0000000   0.0000000   0.0000000   0.0000000   0.0000000   0.0000000   0.0000000
 NMagM=    2.7928460   2.7928460   2.7928460   0.0000000   0.0000000   0.0000000   0.0000000   0.0000000   0.0000000   2.7928460
 AtZNuc=   1.0000000   1.0000000   1.0000000   6.0000000   6.0000000   6.0000000   6.0000000   6.0000000   6.0000000   1.0000000

  Atom        41          42          43          44
 IAtWgt=           1           1           1           1
 AtmWgt=   1.0078250   1.0078250   1.0078250   1.0078250
 NucSpn=           1           1           1           1
 AtZEff=  -0.0000000  -0.0000000  -0.0000000  -0.0000000
 NQMom=    0.0000000   0.0000000   0.0000000   0.0000000
 NMagM=    2.7928460   2.7928460   2.7928460   2.7928460
 AtZNuc=   1.0000000   1.0000000   1.0000000   1.0000000
 Leave Link  101 at Sun Jan 17 12:06:00 2021, MaxMem=  4026531840 cpu:               0.8 elap:               0.1
 (Enter /opt/ohpc/pub/libs/gaussian/g16-A.03/sandybridge/g16/l202.exe)
                          Input orientation:                          
 ---------------------------------------------------------------------
 Center     Atomic      Atomic             Coordinates (Angstroms)
 Number     Number       Type             X           Y           Z
 ---------------------------------------------------------------------
      1          6           0        6.129184    1.201496   -0.030856
      2          6           0        6.830271    0.000001    0.000182
      3          6           0        4.738958    1.200713   -0.032197
      4          6           0        6.129235   -1.201473    0.031153
      5          6           0        4.021751   -0.000032    0.000031
      6          6           0        4.738962   -1.200719    0.032361
      7          1           0        7.919539    0.000045    0.000190
      8          1           0        4.198073    2.145454   -0.081149
      9          1           0        6.668779   -2.147537    0.063412
     10          1           0        4.198148   -2.145504    0.081256
     11          6           0        2.536892   -0.000014   -0.000063
     12          6           0        1.813363   -0.924286   -0.760077
     13          6           0        1.813258    0.924290    0.759786
     14          6           0        0.426027   -0.922473   -0.771159
     15          6           0        0.425899    0.922498    0.770636
     16          6           0       -0.288344    0.000018   -0.000311
     17          1           0        2.347573   -1.638662   -1.386050
     18          1           0        2.347350    1.638674    1.385851
     19          1           0       -0.115370   -1.638494   -1.387158
     20          1           0       -0.115571    1.638578    1.386504
     21          1           0        6.668762    2.147543   -0.063006
     22          7           0       -1.704382   -0.000003   -0.000499
     23          6           0       -2.414266    1.227770    0.004035
     24          6           0       -3.559402    1.382015    0.792108
     25          6           0       -1.979956    2.301413   -0.780170
     26          6           0       -4.257371    2.583383    0.786193
     27          6           0       -2.673527    3.505213   -0.765830
     28          6           0       -3.817854    3.653503    0.012423
     29          1           0       -3.900046    0.551242    1.407814
     30          1           0       -1.092486    2.185578   -1.400082
     31          1           0       -5.147916    2.686607    1.405370
     32          1           0       -2.321511    4.331764   -1.382280
     33          1           0       -4.363183    4.595952    0.015664
     34          6           0       -2.414241   -1.227791   -0.004406
     35          6           0       -3.559682   -1.382189   -0.792032
     36          6           0       -1.979686   -2.301249    0.779869
     37          6           0       -4.257673   -2.583532   -0.785597
     38          6           0       -2.673287   -3.505060    0.766028
     39          6           0       -3.817885   -3.653507   -0.011769
     40          1           0       -3.900521   -0.551523   -1.407763
     41          1           0       -1.092008   -2.185299    1.399468
     42          1           0       -5.148466   -2.686887   -1.404399
     43          1           0       -2.321010   -4.331477    1.382521
     44          1           0       -4.363223   -4.595951   -0.014691
 ---------------------------------------------------------------------
                    Distance matrix (angstroms):
                    1          2          3          4          5
     1  C    0.000000
     2  C    1.391430   0.000000
     3  C    1.390227   2.411711   0.000000
     4  C    2.403769   1.391384   2.776217   0.000000
     5  C    2.426087   2.808520   1.399004   2.426091   0.000000
     6  C    2.776212   2.411708   2.402300   1.390274   1.398959
     7  H    2.156344   1.089268   3.399816   2.156338   3.897788
     8  H    2.150064   3.396770   1.089719   3.865737   2.154249
     9  H    3.393534   2.154529   3.865764   1.089580   3.409186
    10  H    3.865731   3.396739   3.391536   2.150070   2.154243
    11  C    3.788025   4.293379   2.508361   3.788061   1.484859
    12  C    4.865904   5.157680   3.688433   4.396547   2.511770
    13  C    4.396496   5.157686   3.043578   4.865946   2.511780
    14  C    6.130685   6.516154   4.863677   5.766119   3.791420
    15  C    5.766081   6.516178   4.395955   6.130753   3.791444
    16  C    6.529100   7.118615   5.168796   6.529157   4.310095
    17  H    4.919718   4.970054   3.951416   4.062089   2.721985
    18  H    4.062075   4.970101   2.814686   4.919786   2.722035
    19  H    6.992822   7.269890   5.784593   6.418542   4.660968
    20  H    6.418482   7.269907   5.076504   6.992887   4.660985
    21  H    1.089579   2.154533   2.149786   3.393503   3.409211
    22  N    7.925230   8.534653   6.554339   7.925282   5.726133
    23  C    8.543562   9.325712   7.153367   8.882194   6.552086
    24  C    9.725151  10.511062   8.341171  10.056001   7.746697
    25  C    8.217630   9.139231   6.849439   8.870594   6.475017
    26  C   10.509886  11.411726   9.138680  11.080470   8.708384
    27  C    9.128802  10.158517   7.797042  10.013825   7.596054
    28  C   10.244890  11.257477   8.901528  11.068682   8.649155
    29  H   10.152736  10.836282   8.782245  10.273932   8.064777
    30  H    7.415910   8.337120   6.070157   8.103937   5.735209
    31  H   11.464785  12.355945  10.100731  12.007488   9.657940
    32  H    9.112583  10.219124   7.840690  10.199491   7.804628
    33  H   11.027886  12.100265   9.714881  11.987544   9.561926
    34  C    8.882131   9.325690   7.554248   8.543591   6.552053
    35  C   10.056289  10.511383   8.724457   9.725503   7.746990
    36  C    8.870190   9.138873   7.619932   8.217340   6.474642
    37  C   11.080743  11.412037   9.789152  10.510234   8.708648
    38  C   10.013500  10.158228   8.816056   9.128579   7.595756
    39  C   11.068677  11.257508   9.837857  10.244975   8.649157
    40  H   10.274431  10.836807   8.922058  10.153271   8.065260
    41  H    8.103198   8.336429   6.893106   7.415292   5.734488
    42  H   12.007978  12.356470  10.712494  11.465331   9.658390
    43  H   10.198882  10.218537   9.080182   9.112067   7.804057
    44  H   11.987546  12.100302  10.791261  11.027976   9.561929
                    6          7          8          9         10
     6  C    0.000000
     7  H    3.399844   0.000000
     8  H    3.391507   4.296360   0.000000
     9  H    2.149796   2.486062   4.955306   0.000000
    10  H    1.089720   4.296359   4.294030   2.470696   0.000000
    11  C    2.508357   5.382647   2.714614   4.657078   2.714684
    12  C    3.043600   6.222361   3.946022   5.074401   2.808276
    13  C    3.688435   6.222370   2.808159   5.787672   3.946104
    14  C    4.395961   7.589383   4.910868   6.416326   4.056022
    15  C    4.863704   7.589410   4.055916   6.992770   4.910982
    16  C    5.168814   8.207883   4.973667   7.281319   4.973784
    17  H    2.814680   5.971083   4.409836   4.586144   2.415472
    18  H    3.951442   5.971135   2.415386   5.895675   4.409923
    19  H    5.076536   8.316809   5.884702   6.956145   4.584729
    20  H    5.784618   8.316829   4.584589   7.881158   5.884821
    21  H    3.865758   2.485998   2.470756   4.296940   4.955300
    22  N    6.554348   9.623921   6.280801   8.644409   6.280901
    23  C    7.554272  10.406481   6.676258   9.690094   7.423541
    24  C    8.724138  11.588920   7.843713  10.844557   8.551508
    25  C    7.620301  10.193393   6.219405   9.762449   7.660685
    26  C    9.788856  12.472713   8.511087  11.928318   9.713656
    27  C    8.816343  11.184187   7.038226  10.950795   8.936894
    28  C    9.837834  12.292856   8.157086  11.984329   9.893913
    29  H    8.921530  11.915864   8.386779  10.990491   8.637878
    30  H    6.893815   9.378375   5.452633   9.008603   6.995959
    31  H   10.711994  13.414564   9.478929  12.837604  10.604315
    32  H    9.080741  11.205093   6.998419  11.175718   9.306067
    33  H   10.791233  13.114414   8.905584  12.929853  10.897152
    34  C    7.153349  10.406470   7.423434   9.129720   6.676318
    35  C    8.341466  11.589249   8.551747  10.292665   7.844056
    36  C    6.849100  10.193062   7.660237   8.679452   6.219160
    37  C    9.138964  12.473044   9.713866  10.968056   8.511417
    38  C    7.796774  11.183927   8.936532   9.466295   7.038034
    39  C    8.901559  12.292913   9.893854  10.594514   8.157175
    40  H    8.782715  11.916391   8.638334  10.789890   8.387276
    41  H    6.069480   9.377723   6.995184   7.875042   5.452065
    42  H   10.101198  13.415112  10.604730  11.920262   9.479423
    43  H    7.840139  11.204542   9.305450   9.344835   6.997942
    44  H    9.714916  13.114482  10.897098  11.300703   8.905671
                   11         12         13         14         15
    11  C    0.000000
    12  C    1.398354   0.000000
    13  C    1.398340   2.393160   0.000000
    14  C    2.429253   1.387381   2.771053   0.000000
    15  C    2.429258   2.771056   1.387403   2.404381   0.000000
    16  C    2.825236   2.418420   2.418420   1.398400   1.398382
    17  H    2.154523   1.089750   3.385089   2.140878   3.860527
    18  H    2.154526   3.385102   1.089750   3.860524   2.140881
    19  H    3.412205   2.150194   3.859642   1.088693   3.392304
    20  H    3.412200   3.859646   2.150201   3.392318   1.088694
    21  H    4.657071   5.787654   5.074372   6.992726   6.416310
    22  N    4.241274   3.715614   3.715662   2.446121   2.446171
    23  C    5.101121   4.805004   4.305255   3.645783   2.957601
    24  C    6.300979   6.049372   5.392220   4.861904   4.011763
    25  C    5.129040   4.979438   4.319306   4.022720   3.177191
    26  C    7.311234   7.179729   6.293316   6.053973   4.969084
    27  C    6.326253   6.304972   5.396286   5.404782   4.317127
    28  C    7.330153   7.298186   6.302109   6.289999   5.103206
    29  H    6.612123   6.286492   5.762026   5.063069   4.388351
    30  H    4.461978   4.304047   3.833957   3.515879   2.934771
    31  H    8.261322   8.135546   7.209749   6.987959   5.880679
    32  H    6.654240   6.716426   5.770237   5.960658   4.879181
    33  H    8.290608   8.320128   7.223797   7.349057   6.082726
    34  C    5.101095   4.305321   4.804913   2.957744   3.645659
    35  C    6.301257   5.392616   6.049502   4.012188   4.861931
    36  C    5.128689   4.319107   4.979049   3.177132   4.022371
    37  C    7.311480   6.293745   7.179779   4.969544   6.053921
    38  C    6.325995   5.396241   6.304623   4.317227   5.404465
    39  C    7.330166   6.302346   7.298034   5.103529   6.289808
    40  H    6.612569   5.762545   6.286777   4.388837   5.063207
    41  H    4.461286   3.833402   4.303406   2.934413   3.515377
    42  H    8.261729   7.210338   8.135717   5.881252   6.987988
    43  H    6.653745   5.769984   6.715881   4.879125   5.960215
    44  H    8.290623   7.224053   8.319964   6.083058   7.348858
                   16         17         18         19         20
    16  C    0.000000
    17  H    3.399059   0.000000
    18  H    3.399047   4.292361   0.000000
    19  H    2.153598   2.462943   4.949182   0.000000
    20  H    2.153598   4.949185   2.462921   4.293297   0.000000
    21  H    7.281285   5.895631   4.586146   7.881110   6.956098
    22  N    1.416038   4.585117   4.585167   2.670662   2.670776
    23  C    2.454982   5.729213   4.975062   3.928843   2.713666
    24  C    3.638360   6.982923   5.942064   5.072872   3.504155
    25  C    2.960769   5.883773   4.884306   4.400907   2.934239
    26  C    4.800577   8.134469   6.698836   6.301101   4.290401
    27  C    4.308307   7.214954   5.772599   5.778230   3.828839
    28  C    5.079917   8.244709   6.629901   6.608513   4.433387
    29  H    3.915489   7.185687   6.341368   5.189469   3.937639
    30  H    2.717108   5.143833   4.460157   3.946954   3.003104
    31  H    5.727926   9.092983   7.568194   7.199391   5.140352
    32  H    4.980726   7.579337   6.059170   6.364830   4.448099
    33  H    6.142245   9.266578   7.460171   7.673340   5.354201
    34  C    2.454989   4.975201   5.729065   2.713943   3.928688
    35  C    3.638540   5.942583   6.982966   3.504733   5.072766
    36  C    2.960599   4.884199   5.883319   2.934438   4.400587
    37  C    4.800727   6.699448   8.134405   4.291113   6.300892
    38  C    4.308225   5.772687   7.214498   3.829258   5.777881
    39  C    5.079964   6.630318   8.244431   4.434026   6.608212
    40  H    3.915730   6.342005   7.185898   3.938185   5.189443
    41  H    2.716775   4.459668   5.143164   3.003015   3.946598
    42  H    5.728150   7.568997   9.093032   5.141156   7.199224
    43  H    4.980543   6.059035   7.578674   4.448385   6.364396
    44  H    6.142294   7.460628   9.266275   5.354855   7.673021
                   21         22         23         24         25
    21  H    0.000000
    22  N    8.644386   0.000000
    23  C    9.129725   1.418232   0.000000
    24  C   10.292356   2.445260   1.398638   0.000000
    25  C    8.679765   2.445474   1.398682   2.410809   0.000000
    26  C   10.967747   3.716251   2.417952   1.389417   2.778420
    27  C    9.466551   3.716384   2.417986   2.778474   1.389381
    28  C   10.594466   4.220786   2.802554   2.415443   2.415413
    29  H   10.789402   2.666113   2.153097   1.088722   3.396633
    30  H    7.875671   2.666461   2.153147   3.396628   1.088720
    31  H   11.919757   4.588275   3.400704   2.145094   3.867936
    32  H    9.345390   4.588504   3.400772   3.867991   2.145116
    33  H   11.300651   5.309641   3.891409   3.402693   3.402651
    34  C    9.690060   1.418231   2.455576   2.959209   3.639463
    35  C   10.844886   2.445220   2.959322   3.185957   4.008067
    36  C    9.762061   2.445506   3.639334   4.007753   4.859858
    37  C   11.928629   3.716221   4.306703   4.324615   5.389871
    38  C   10.950484   3.716418   4.800771   4.966828   6.048683
    39  C   11.984347   4.220795   5.079100   5.105831   6.279291
    40  H   10.991045   2.666007   2.714408   2.948621   3.495953
    41  H    9.007880   2.666539   3.917223   4.379800   5.066543
    42  H   12.838143   4.588245   4.978361   4.889349   5.942411
    43  H   11.175117   4.588534   5.728363   5.875899   6.984897
    44  H   12.929878   5.309649   6.141214   6.085485   7.337544
                   26         27         28         29         30
    26  C    0.000000
    27  C    2.401480   0.000000
    28  C    1.391780   1.391816   0.000000
    29  H    2.154922   3.867172   3.402631   0.000000
    30  H    3.867111   2.154856   3.402588   4.293917   0.000000
    31  H    1.089544   3.392171   2.155053   2.473251   4.956622
    32  H    3.392148   1.089547   2.155058   4.956687   2.473244
    33  H    2.157625   2.157633   1.088855   4.302587   4.302522
    34  C    4.306649   4.800867   5.079118   2.714211   3.917402
    35  C    4.324734   4.967158   5.106074   2.948445   4.380153
    36  C    5.389575   6.048603   6.279085   3.495540   5.066648
    37  C    5.400698   6.291480   6.303244   3.842624   5.756771
    38  C    6.291174   7.175689   7.288551   4.286072   6.290813
    39  C    6.303070   7.288720   7.307050   4.438680   6.591671
    40  H    3.842970   4.286572   4.439145   3.023833   3.921332
    41  H    5.756384   6.290600   6.591338   3.920944   5.190573
    42  H    5.776547   6.698895   6.631626   4.466830   6.339709
    43  H    7.205580   8.133473   8.238787   5.131758   7.191951
    44  H    7.224642   8.309521   8.267506   5.360191   7.655466
                   31         32         33         34         35
    31  H    0.000000
    32  H    4.297220   0.000000
    33  H    2.488511   2.488467   0.000000
    34  C    4.978249   5.728507   6.141234   0.000000
    35  C    4.889393   5.876284   6.085734   1.398652   0.000000
    36  C    5.942023   6.984883   7.337333   1.398656   2.410795
    37  C    5.776438   7.205975   7.224828   2.417961   1.389409
    38  C    6.698454   8.133559   8.309344   2.417980   2.778458
    39  C    6.631313   8.239053   8.267507   2.802565   2.415443
    40  H    4.467124   5.132291   5.360662   2.153086   1.088716
    41  H    6.339234   7.191795   7.655120   2.153134   3.396627
    42  H    6.063764   7.566613   7.461434   3.400725   2.145103
    43  H    7.566070   9.093727   9.259469   3.400754   3.867983
    44  H    7.461097   9.259751   9.191953   3.891419   3.402676
                   36         37         38         39         40
    36  C    0.000000
    37  C    2.778415   0.000000
    38  C    1.389401   2.401465   0.000000
    39  C    2.415423   1.391787   1.391801   0.000000
    40  H    3.396599   2.154927   3.867150   3.402636   0.000000
    41  H    1.088724   3.867109   2.154869   3.402592   4.293893
    42  H    3.867934   1.089546   3.392149   2.155045   2.473289
    43  H    2.145115   3.392154   1.089554   2.155069   4.956671
    44  H    3.402680   2.157607   2.157649   1.088854   4.302574
                   41         42         43         44
    41  H    0.000000
    42  H    4.956623   0.000000
    43  H    2.473219   4.297221   0.000000
    44  H    4.302550   2.488457   2.488530   0.000000
 Stoichiometry    C24H19N
 Framework group  C1[X(C24H19N)]
 Deg. of freedom   126
 Full point group                 C1      NOp   1
 Largest Abelian subgroup         C1      NOp   1
 Largest concise Abelian subgroup C1      NOp   1
                         Standard orientation:                         
 ---------------------------------------------------------------------
 Center     Atomic      Atomic             Coordinates (Angstroms)
 Number     Number       Type             X           Y           Z
 ---------------------------------------------------------------------
      1          6           0       -6.129184    1.201496    0.030856
      2          6           0       -6.830271    0.000001   -0.000182
      3          6           0       -4.738958    1.200713    0.032197
      4          6           0       -6.129235   -1.201473   -0.031153
      5          6           0       -4.021751   -0.000032   -0.000031
      6          6           0       -4.738962   -1.200719   -0.032361
      7          1           0       -7.919539    0.000045   -0.000190
      8          1           0       -4.198073    2.145454    0.081149
      9          1           0       -6.668779   -2.147537   -0.063412
     10          1           0       -4.198148   -2.145504   -0.081256
     11          6           0       -2.536892   -0.000014    0.000063
     12          6           0       -1.813363   -0.924286    0.760077
     13          6           0       -1.813258    0.924290   -0.759786
     14          6           0       -0.426027   -0.922473    0.771159
     15          6           0       -0.425899    0.922498   -0.770636
     16          6           0        0.288344    0.000018    0.000311
     17          1           0       -2.347573   -1.638662    1.386050
     18          1           0       -2.347350    1.638674   -1.385851
     19          1           0        0.115370   -1.638494    1.387158
     20          1           0        0.115571    1.638578   -1.386504
     21          1           0       -6.668762    2.147543    0.063006
     22          7           0        1.704382   -0.000003    0.000499
     23          6           0        2.414266    1.227770   -0.004035
     24          6           0        3.559402    1.382015   -0.792108
     25          6           0        1.979956    2.301413    0.780170
     26          6           0        4.257371    2.583383   -0.786193
     27          6           0        2.673527    3.505213    0.765830
     28          6           0        3.817854    3.653503   -0.012423
     29          1           0        3.900046    0.551242   -1.407814
     30          1           0        1.092486    2.185578    1.400082
     31          1           0        5.147916    2.686607   -1.405370
     32          1           0        2.321511    4.331764    1.382280
     33          1           0        4.363183    4.595952   -0.015664
     34          6           0        2.414241   -1.227791    0.004406
     35          6           0        3.559682   -1.382189    0.792032
     36          6           0        1.979686   -2.301249   -0.779869
     37          6           0        4.257673   -2.583532    0.785597
     38          6           0        2.673287   -3.505060   -0.766028
     39          6           0        3.817885   -3.653507    0.011769
     40          1           0        3.900521   -0.551523    1.407763
     41          1           0        1.092008   -2.185299   -1.399468
     42          1           0        5.148466   -2.686887    1.404399
     43          1           0        2.321010   -4.331477   -1.382521
     44          1           0        4.363223   -4.595951    0.014691
 ---------------------------------------------------------------------
 Rotational constants (GHZ):           0.3772696           0.1165367           0.0926339
 Leave Link  202 at Sun Jan 17 12:06:00 2021, MaxMem=  4026531840 cpu:               0.4 elap:               0.1
 (Enter /opt/ohpc/pub/libs/gaussian/g16-A.03/sandybridge/g16/l301.exe)
 Standard basis: TZVP (5D, 7F)
 Ernie: Thresh=  0.10000D-02 Tol=  0.10000D-05 Strict=F.
 There are   614 symmetry adapted cartesian basis functions of A   symmetry.
 There are   589 symmetry adapted basis functions of A   symmetry.
   589 basis functions,  1027 primitive gaussians,   614 cartesian basis functions
    85 alpha electrons       85 beta electrons
       nuclear repulsion energy      1905.4959532784 Hartrees.
 IExCor=33909 DFT=T Ex+Corr=LC-wHPBE ExCW=0 ScaHFX=  1.000000
 ScaDFX=  1.000000  1.000000  1.000000  1.000000 ScalE2=  1.000000  1.000000
 IRadAn=      5 IRanWt=     -1 IRanGd=            0 ICorTp=0 IEmpDi=  4
 HFx  wShort=  0.000000 wLong=  0.328100 cFull=  0.000000 cShort=  0.000000 cLong=  1.000000
 DFx  wShort=  0.000000 wLong=  0.328100 cFull=  0.000000 cShort=  1.000000 cLong=  0.000000
 NAtoms=   44 NActive=   44 NUniq=   44 SFac= 1.00D+00 NAtFMM=   60 NAOKFM=F Big=F
 Integral buffers will be    131072 words long.
 Raffenetti 2 integral format.
 Two-electron integral symmetry is turned on.
 Leave Link  301 at Sun Jan 17 12:06:00 2021, MaxMem=  4026531840 cpu:               0.4 elap:               0.1
 (Enter /opt/ohpc/pub/libs/gaussian/g16-A.03/sandybridge/g16/l302.exe)
 NPDir=0 NMtPBC=     1 NCelOv=     1 NCel=       1 NClECP=     1 NCelD=      1
         NCelK=      1 NCelE2=     1 NClLst=     1 CellRange=     0.0.
 One-electron integrals computed using PRISM.
 One-electron integral symmetry used in STVInt
 NBasis=   589 RedAO= T EigKep=  7.25D-06  NBF=   589
 NBsUse=   589 1.00D-06 EigRej= -1.00D+00 NBFU=   589
 Precomputing XC quadrature grid using
 IXCGrd= 4 IRadAn=           5 IRanWt=          -1 IRanGd=           0 AccXCQ= 0.00D+00.
 Generated NRdTot=       0 NPtTot=           0 NUsed=           0 NTot=          32
 NSgBfM=   586   586   586   586   586 MxSgAt=    44 MxSgA2=    44.
 Leave Link  302 at Sun Jan 17 12:06:01 2021, MaxMem=  4026531840 cpu:               8.1 elap:               1.1
 (Enter /opt/ohpc/pub/libs/gaussian/g16-A.03/sandybridge/g16/l303.exe)
 DipDrv:  MaxL=1.
 Leave Link  303 at Sun Jan 17 12:06:01 2021, MaxMem=  4026531840 cpu:               0.9 elap:               0.2
 (Enter /opt/ohpc/pub/libs/gaussian/g16-A.03/sandybridge/g16/l401.exe)
 ExpMin= 9.52D-02 ExpMax= 1.97D+04 ExpMxC= 6.73D+02 IAcc=3 IRadAn=         5 AccDes= 0.00D+00
 Harris functional with IExCor=33909 and IRadAn=       5 diagonalized for initial guess.
 HarFok:  IExCor=33909 AccDes= 0.00D+00 IRadAn=         5 IDoV= 1 UseB2=F ITyADJ=14
 ICtDFT=  3500011 ScaDFX=  1.000000  1.000000  1.000000  1.000000
 FoFCou: FMM=F IPFlag=           0 FMFlag=      100000 FMFlg1=           0
         NFxFlg=           0 DoJE=T BraDBF=F KetDBF=T FulRan=T
         wScrn=  0.000000 ICntrl=       500 IOpCl=  0 I1Cent=   200000004 NGrid=           0
         NMat0=    1 NMatS0=      1 NMatT0=    0 NMatD0=    1 NMtDS0=    0 NMtDT0=    0
 Petite list used in FoFCou.
 Harris En= -952.020390831171    
 JPrj=0 DoOrth=F DoCkMO=F.
 Leave Link  401 at Sun Jan 17 12:06:07 2021, MaxMem=  4026531840 cpu:              49.1 elap:               6.2
 (Enter /opt/ohpc/pub/libs/gaussian/g16-A.03/sandybridge/g16/l502.exe)
 Integral symmetry usage will be decided dynamically.
 Closed shell SCF:
 Using DIIS extrapolation, IDIIS=    10.
 NGot=  4026531840 LenX=  4025766914 LenY=  4025389304
 Requested convergence on RMS density matrix=1.00D-06 within  32 cycles.
 Requested convergence on MAX density matrix=1.00D-04.
 Requested convergence on             energy=1.00D-04.
 Virtual orbitals will be shifted by   0.500 hartree.
 No special actions if energy rises.
 Dynamic level shift is on during FON iterations.

 Cycle   1  Pass 1  IDiag  1:
 FoFJK:  IHMeth= 1 ICntrl=       0 DoSepK=T KAlg= 0 I1Cent=           0 FoldK=F
 IRaf=         1 NMat=       1 IRICut=       1 DoRegI=T DoRafI=F ISym2E= 0 IDoP0=0 IntGTp=1.
 FoFCou: FMM=F IPFlag=           0 FMFlag=      100000 FMFlg1=           0
         NFxFlg=           0 DoJE=T BraDBF=F KetDBF=F FulRan=T
         wScrn=  0.000000 ICntrl=       500 IOpCl=  0 I1Cent=           0 NGrid=           0
         NMat0=    1 NMatS0=      1 NMatT0=    0 NMatD0=    1 NMtDS0=    0 NMtDT0=    0
 Symmetry not used in FoFCou.
 E= -979.944084688971    
 DIIS: error= 2.66D-02 at cycle   1 NSaved=   1.
 NSaved= 1 IEnMin= 1 EnMin= -979.944084688971     IErMin= 1 ErrMin= 2.66D-02
 ErrMax= 2.66D-02  0.00D+00 EMaxC= 1.00D+00 BMatC= 3.25D-01 BMatP= 3.25D-01
 IDIUse=1 WtCom= 1.00D+00 WtEn= 0.00D+00
 Coeff-Com:  0.100D+01
 Coeff:      0.100D+01
 Gap=     0.345 Goal=   None    Shift=    0.500
 T= 1425. Gap= 0.794 NK=0 IS=   86 IE=  589 IFin=   85
          NO(<0.9)=   0  NV(>0.1)=   0     85.00e < EF      0.00e >EF  Err=0.0D+00
 GapD=    0.345 DampG=1.000 DampE=0.500 DampFc=0.5000 IDamp=-1.
 Damping current iteration by 5.00D-01
 RMSDP=2.44D-03 MaxDP=1.21D-01              OVMax= 7.58D-02

 Cycle   2  Pass 1  IDiag  1:
 E= -980.132449027302     Delta-E=       -0.188364338331 Rises=F Damp=T
 DIIS: error= 1.22D-02 at cycle   2 NSaved=   2.
 NSaved= 2 IEnMin= 2 EnMin= -980.132449027302     IErMin= 2 ErrMin= 1.22D-02
 ErrMax= 1.22D-02  0.00D+00 EMaxC= 1.00D+00 BMatC= 6.33D-02 BMatP= 3.25D-01
 IDIUse=1 WtCom= 1.00D+00 WtEn= 0.00D+00
 Coeff-Com: -0.650D+00 0.165D+01
 Coeff:     -0.650D+00 0.165D+01
 Gap=     0.318 Goal=   None    Shift=    0.500
 T= 1305. Gap= 0.791 NK=0 IS=   86 IE=  589 IFin=   85
          NO(<0.9)=   0  NV(>0.1)=   0     85.00e < EF      0.00e >EF  Err=0.0D+00
 GapD=    0.318 DampG=1.000 DampE=0.500 DampFc=0.5000 IDamp=-1.
 Damping current iteration by 5.00D-01
 RMSDP=1.68D-03 MaxDP=9.19D-02 DE=-1.88D-01 OVMax= 1.64D-02

 Cycle   3  Pass 1  IDiag  1:
 E= -980.200843144573     Delta-E=       -0.068394117271 Rises=F Damp=T
 DIIS: error= 5.54D-03 at cycle   3 NSaved=   3.
 NSaved= 3 IEnMin= 3 EnMin= -980.200843144573     IErMin= 3 ErrMin= 5.54D-03
 ErrMax= 5.54D-03  0.00D+00 EMaxC= 1.00D+00 BMatC= 1.40D-02 BMatP= 6.33D-02
 IDIUse=1 WtCom= 1.00D+00 WtEn= 0.00D+00
 Coeff-Com:  0.195D-01-0.894D+00 0.187D+01
 Coeff:      0.195D-01-0.894D+00 0.187D+01
 Gap=     0.304 Goal=   None    Shift=    0.500
 T= 1072. Gap= 0.803 NK=0 IS=   86 IE=  589 IFin=   85
          NO(<0.9)=   0  NV(>0.1)=   0     85.00e < EF      0.00e >EF  Err=0.0D+00
 GapD=    0.304 DampG=1.000 DampE=1.000 DampFc=1.0000 IDamp=-1.
 RMSDP=1.03D-03 MaxDP=5.83D-02 DE=-6.84D-02 OVMax= 1.43D-02

 Cycle   4  Pass 1  IDiag  1:
 E= -980.260083547533     Delta-E=       -0.059240402960 Rises=F Damp=F
 DIIS: error= 1.35D-03 at cycle   4 NSaved=   4.
 NSaved= 4 IEnMin= 4 EnMin= -980.260083547533     IErMin= 4 ErrMin= 1.35D-03
 ErrMax= 1.35D-03  0.00D+00 EMaxC= 1.00D+00 BMatC= 3.33D-04 BMatP= 1.40D-02
 IDIUse=1 WtCom= 1.00D+00 WtEn= 0.00D+00
 Coeff-Com:  0.688D-01-0.160D+00 0.638D-01 0.103D+01
 Coeff:      0.688D-01-0.160D+00 0.638D-01 0.103D+01
 Gap=     0.302 Goal=   None    Shift=    0.500
 T=  567. Gap= 0.802 NK=0 IS=   86 IE=  589 IFin=   85
          NO(<0.9)=   0  NV(>0.1)=   0     85.00e < EF      0.00e >EF  Err=0.0D+00
 GapD=    0.302 DampG=1.000 DampE=1.000 DampFc=1.0000 IDamp=-1.
 RMSDP=1.23D-04 MaxDP=5.80D-03 DE=-5.92D-02 OVMax= 9.35D-03

 Cycle   5  Pass 1  IDiag  1:
 E= -980.260716699889     Delta-E=       -0.000633152356 Rises=F Damp=F
 DIIS: error= 1.01D-03 at cycle   5 NSaved=   5.
 NSaved= 5 IEnMin= 5 EnMin= -980.260716699889     IErMin= 5 ErrMin= 1.01D-03
 ErrMax= 1.01D-03  0.00D+00 EMaxC= 1.00D+00 BMatC= 8.60D-05 BMatP= 3.33D-04
 IDIUse=1 WtCom= 1.00D+00 WtEn= 0.00D+00
 Coeff-Com:  0.520D-02 0.727D-01-0.187D+00-0.416D+00 0.153D+01
 Coeff:      0.520D-02 0.727D-01-0.187D+00-0.416D+00 0.153D+01
 Gap=     0.303 Goal=   None    Shift=    0.500
 T=   36. Gap= 0.803 NK=0 IS=   86 IE=  589 IFin=   85
          NO(<0.9)=   0  NV(>0.1)=   0     85.00e < EF      0.00e >EF  Err=0.0D+00
 GapD=    0.303 DampG=1.000 DampE=1.000 DampFc=1.0000 IDamp=-1.
 RMSDP=7.68D-05 MaxDP=3.15D-03 DE=-6.33D-04 OVMax= 7.70D-03

 Cycle   6  Pass 1  IDiag  1:
 E= -980.260997621675     Delta-E=       -0.000280921786 Rises=F Damp=F
 DIIS: error= 7.76D-04 at cycle   6 NSaved=   6.
 NSaved= 6 IEnMin= 6 EnMin= -980.260997621675     IErMin= 6 ErrMin= 7.76D-04
 ErrMax= 7.76D-04  0.00D+00 EMaxC= 1.00D+00 BMatC= 2.93D-05 BMatP= 8.60D-05
 IDIUse=1 WtCom= 1.00D+00 WtEn= 0.00D+00
 Coeff-Com: -0.195D-01 0.686D-01-0.741D-01-0.342D+00-0.115D-01 0.138D+01
 Coeff:     -0.195D-01 0.686D-01-0.741D-01-0.342D+00-0.115D-01 0.138D+01
 Gap=     0.304 Goal=   None    Shift=    0.500
 RMSDP=4.33D-05 MaxDP=1.69D-03 DE=-2.81D-04 OVMax= 6.09D-03

 Cycle   7  Pass 1  IDiag  1:
 E= -980.261120926160     Delta-E=       -0.000123304485 Rises=F Damp=F
 DIIS: error= 5.03D-04 at cycle   7 NSaved=   7.
 NSaved= 7 IEnMin= 7 EnMin= -980.261120926160     IErMin= 7 ErrMin= 5.03D-04
 ErrMax= 5.03D-04  0.00D+00 EMaxC= 1.00D+00 BMatC= 1.12D-05 BMatP= 2.93D-05
 IDIUse=1 WtCom= 1.00D+00 WtEn= 0.00D+00
 Coeff-Com: -0.722D-02 0.208D-02 0.259D-01 0.127D+00-0.578D+00-0.583D+00
 Coeff-Com:  0.201D+01
 Coeff:     -0.722D-02 0.208D-02 0.259D-01 0.127D+00-0.578D+00-0.583D+00
 Coeff:      0.201D+01
 Gap=     0.304 Goal=   None    Shift=    0.500
 RMSDP=3.08D-05 MaxDP=1.06D-03 DE=-1.23D-04 OVMax= 4.60D-03

 Cycle   8  Pass 1  IDiag  1:
 E= -980.261177825001     Delta-E=       -0.000056898841 Rises=F Damp=F
 DIIS: error= 3.28D-04 at cycle   8 NSaved=   8.
 NSaved= 8 IEnMin= 8 EnMin= -980.261177825001     IErMin= 8 ErrMin= 3.28D-04
 ErrMax= 3.28D-04  0.00D+00 EMaxC= 1.00D+00 BMatC= 4.46D-06 BMatP= 1.12D-05
 IDIUse=1 WtCom= 1.00D+00 WtEn= 0.00D+00
 Coeff-Com:  0.258D-02 0.894D-02-0.260D-01 0.110D+00 0.433D-01-0.531D+00
 Coeff-Com: -0.810D+00 0.220D+01
 Coeff:      0.258D-02 0.894D-02-0.260D-01 0.110D+00 0.433D-01-0.531D+00
 Coeff:     -0.810D+00 0.220D+01
 Gap=     0.304 Goal=   None    Shift=    0.500
 RMSDP=1.86D-05 MaxDP=6.18D-04 DE=-5.69D-05 OVMax= 3.15D-03

 Cycle   9  Pass 1  IDiag  1:
 E= -980.261200927592     Delta-E=       -0.000023102591 Rises=F Damp=F
 DIIS: error= 2.06D-04 at cycle   9 NSaved=   9.
 NSaved= 9 IEnMin= 9 EnMin= -980.261200927592     IErMin= 9 ErrMin= 2.06D-04
 ErrMax= 2.06D-04  0.00D+00 EMaxC= 1.00D+00 BMatC= 1.89D-06 BMatP= 4.46D-06
 IDIUse=1 WtCom= 1.00D+00 WtEn= 0.00D+00
 Coeff-Com:  0.105D-02 0.163D-01-0.371D-01 0.234D-01 0.189D+00-0.150D+00
 Coeff-Com: -0.816D+00 0.133D+00 0.164D+01
 Coeff:      0.105D-02 0.163D-01-0.371D-01 0.234D-01 0.189D+00-0.150D+00
 Coeff:     -0.816D+00 0.133D+00 0.164D+01
 Gap=     0.304 Goal=   None    Shift=    0.500
 RMSDP=1.05D-05 MaxDP=3.34D-04 DE=-2.31D-05 OVMax= 2.00D-03

 Cycle  10  Pass 1  IDiag  1:
 E= -980.261209777890     Delta-E=       -0.000008850298 Rises=F Damp=F
 DIIS: error= 1.25D-04 at cycle  10 NSaved=  10.
 NSaved=10 IEnMin=10 EnMin= -980.261209777890     IErMin=10 ErrMin= 1.25D-04
 ErrMax= 1.25D-04  0.00D+00 EMaxC= 1.00D+00 BMatC= 7.79D-07 BMatP= 1.89D-06
 IDIUse=1 WtCom= 1.00D+00 WtEn= 0.00D+00
 Coeff-Com: -0.200D-02 0.938D-02-0.122D-01-0.213D-01 0.427D-01 0.929D-01
 Coeff-Com:  0.116D+00-0.916D+00-0.345D+00 0.204D+01
 Coeff:     -0.200D-02 0.938D-02-0.122D-01-0.213D-01 0.427D-01 0.929D-01
 Coeff:      0.116D+00-0.916D+00-0.345D+00 0.204D+01
 Gap=     0.305 Goal=   None    Shift=    0.500
 RMSDP=6.19D-06 MaxDP=1.99D-04 DE=-8.85D-06 OVMax= 1.28D-03

 Cycle  11  Pass 1  IDiag  1:
 E= -980.261213150554     Delta-E=       -0.000003372664 Rises=F Damp=F
 DIIS: error= 7.21D-05 at cycle  11 NSaved=  11.
 NSaved=11 IEnMin=11 EnMin= -980.261213150554     IErMin=11 ErrMin= 7.21D-05
 ErrMax= 7.21D-05  0.00D+00 EMaxC= 1.00D+00 BMatC= 3.11D-07 BMatP= 7.79D-07
 IDIUse=1 WtCom= 1.00D+00 WtEn= 0.00D+00
 Coeff-Com: -0.127D-02 0.139D-02 0.168D-02-0.214D-02-0.417D-01 0.404D-01
 Coeff-Com:  0.225D+00-0.198D+00-0.698D+00-0.245D+00 0.192D+01
 Coeff:     -0.127D-02 0.139D-02 0.168D-02-0.214D-02-0.417D-01 0.404D-01
 Coeff:      0.225D+00-0.198D+00-0.698D+00-0.245D+00 0.192D+01
 Gap=     0.305 Goal=   None    Shift=    0.500
 RMSDP=3.70D-06 MaxDP=1.21D-04 DE=-3.37D-06 OVMax= 7.74D-04

 Cycle  12  Pass 1  IDiag  1:
 E= -980.261214378039     Delta-E=       -0.000001227485 Rises=F Damp=F
 DIIS: error= 4.53D-05 at cycle  12 NSaved=  12.
 NSaved=12 IEnMin=12 EnMin= -980.261214378039     IErMin=12 ErrMin= 4.53D-05
 ErrMax= 4.53D-05  0.00D+00 EMaxC= 1.00D+00 BMatC= 1.23D-07 BMatP= 3.11D-07
 IDIUse=1 WtCom= 1.00D+00 WtEn= 0.00D+00
 Coeff-Com: -0.121D-03-0.262D-03 0.104D-02 0.798D-02-0.244D-01-0.135D-01
 Coeff-Com:  0.251D-01 0.236D+00-0.250D+00-0.719D+00-0.277D-01 0.177D+01
 Coeff:     -0.121D-03-0.262D-03 0.104D-02 0.798D-02-0.244D-01-0.135D-01
 Coeff:      0.251D-01 0.236D+00-0.250D+00-0.719D+00-0.277D-01 0.177D+01
 Gap=     0.305 Goal=   None    Shift=    0.500
 RMSDP=2.13D-06 MaxDP=7.35D-05 DE=-1.23D-06 OVMax= 4.71D-04

 Cycle  13  Pass 1  IDiag  1:
 E= -980.261214824815     Delta-E=       -0.000000446776 Rises=F Damp=F
 DIIS: error= 2.94D-05 at cycle  13 NSaved=  13.
 NSaved=13 IEnMin=13 EnMin= -980.261214824815     IErMin=13 ErrMin= 2.94D-05
 ErrMax= 2.94D-05  0.00D+00 EMaxC= 1.00D+00 BMatC= 4.73D-08 BMatP= 1.23D-07
 IDIUse=1 WtCom= 1.00D+00 WtEn= 0.00D+00
 Coeff-Com:  0.245D-03 0.831D-03-0.253D-02 0.316D-02 0.124D-01-0.164D-01
 Coeff-Com: -0.854D-01 0.141D+00 0.155D+00-0.653D-01-0.935D+00-0.276D+00
 Coeff-Com:  0.207D+01
 Coeff:      0.245D-03 0.831D-03-0.253D-02 0.316D-02 0.124D-01-0.164D-01
 Coeff:     -0.854D-01 0.141D+00 0.155D+00-0.653D-01-0.935D+00-0.276D+00
 Coeff:      0.207D+01
 Gap=     0.305 Goal=   None    Shift=    0.500
 RMSDP=1.21D-06 MaxDP=4.80D-05 DE=-4.47D-07 OVMax= 2.85D-04

 Cycle  14  Pass 1  IDiag  1:
 E= -980.261214987995     Delta-E=       -0.000000163180 Rises=F Damp=F
 DIIS: error= 1.90D-05 at cycle  14 NSaved=  14.
 NSaved=14 IEnMin=14 EnMin= -980.261214987995     IErMin=14 ErrMin= 1.90D-05
 ErrMax= 1.90D-05  0.00D+00 EMaxC= 1.00D+00 BMatC= 1.79D-08 BMatP= 4.73D-08
 IDIUse=1 WtCom= 1.00D+00 WtEn= 0.00D+00
 Coeff-Com:  0.616D-04 0.459D-03-0.114D-02-0.489D-03 0.706D-02-0.671D-03
 Coeff-Com: -0.225D-01-0.789D-02 0.813D-01 0.118D+00-0.306D+00-0.463D+00
 Coeff-Com: -0.311D+00 0.191D+01
 Coeff:      0.616D-04 0.459D-03-0.114D-02-0.489D-03 0.706D-02-0.671D-03
 Coeff:     -0.225D-01-0.789D-02 0.813D-01 0.118D+00-0.306D+00-0.463D+00
 Coeff:     -0.311D+00 0.191D+01
 Gap=     0.305 Goal=   None    Shift=    0.500
 RMSDP=6.82D-07 MaxDP=2.82D-05 DE=-1.63D-07 OVMax= 1.74D-04

 SCF Done:  E(RLC-wHPBE) =  -980.261214988     A.U. after   14 cycles
            NFock= 14  Conv=0.68D-06     -V/T= 2.0055
 KE= 9.749184298172D+02 PE=-6.085879168355D+03 EE= 2.225203570272D+03
 Leave Link  502 at Sun Jan 17 12:15:41 2021, MaxMem=  4026531840 cpu:            4577.0 elap:             573.8
 (Enter /opt/ohpc/pub/libs/gaussian/g16-A.03/sandybridge/g16/l508.exe)
 QCSCF skips out because SCF is already converged.
 Leave Link  508 at Sun Jan 17 12:15:41 2021, MaxMem=  4026531840 cpu:               0.1 elap:               0.0
 (Enter /opt/ohpc/pub/libs/gaussian/g16-A.03/sandybridge/g16/l601.exe)
 Copying SCF densities to generalized density rwf, IOpCl= 0 IROHF=0.

 **********************************************************************

            Population analysis using the SCF density.

 **********************************************************************

 Orbital symmetries:
       Occupied  (A) (A) (A) (A) (A) (A) (A) (A) (A) (A) (A) (A)
                 (A) (A) (A) (A) (A) (A) (A) (A) (A) (A) (A) (A)
                 (A) (A) (A) (A) (A) (A) (A) (A) (A) (A) (A) (A)
                 (A) (A) (A) (A) (A) (A) (A) (A) (A) (A) (A) (A)
                 (A) (A) (A) (A) (A) (A) (A) (A) (A) (A) (A) (A)
                 (A) (A) (A) (A) (A) (A) (A) (A) (A) (A) (A) (A)
                 (A) (A) (A) (A) (A) (A) (A) (A) (A) (A) (A) (A)
                 (A)
       Virtual   (A) (A) (A) (A) (A) (A) (A) (A) (A) (A) (A) (A)
                 (A) (A) (A) (A) (A) (A) (A) (A) (A) (A) (A) (A)
                 (A) (A) (A) (A) (A) (A) (A) (A) (A) (A) (A) (A)
                 (A) (A) (A) (A) (A) (A) (A) (A) (A) (A) (A) (A)
                 (A) (A) (A) (A) (A) (A) (A) (A) (A) (A) (A) (A)
                 (A) (A) (A) (A) (A) (A) (A) (A) (A) (A) (A) (A)
                 (A) (A) (A) (A) (A) (A) (A) (A) (A) (A) (A) (A)
                 (A) (A) (A) (A) (A) (A) (A) (A) (A) (A) (A) (A)
                 (A) (A) (A) (A) (A) (A) (A) (A) (A) (A) (A) (A)
                 (A) (A) (A) (A) (A) (A) (A) (A) (A) (A) (A) (A)
                 (A) (A) (A) (A) (A) (A) (A) (A) (A) (A) (A) (A)
                 (A) (A) (A) (A) (A) (A) (A) (A) (A) (A) (A) (A)
                 (A) (A) (A) (A) (A) (A) (A) (A) (A) (A) (A) (A)
                 (A) (A) (A) (A) (A) (A) (A) (A) (A) (A) (A) (A)
                 (A) (A) (A) (A) (A) (A) (A) (A) (A) (A) (A) (A)
                 (A) (A) (A) (A) (A) (A) (A) (A) (A) (A) (A) (A)
                 (A) (A) (A) (A) (A) (A) (A) (A) (A) (A) (A) (A)
                 (A) (A) (A) (A) (A) (A) (A) (A) (A) (A) (A) (A)
                 (A) (A) (A) (A) (A) (A) (A) (A) (A) (A) (A) (A)
                 (A) (A) (A) (A) (A) (A) (A) (A) (A) (A) (A) (A)
                 (A) (A) (A) (A) (A) (A) (A) (A) (A) (A) (A) (A)
                 (A) (A) (A) (A) (A) (A) (A) (A) (A) (A) (A) (A)
                 (A) (A) (A) (A) (A) (A) (A) (A) (A) (A) (A) (A)
                 (A) (A) (A) (A) (A) (A) (A) (A) (A) (A) (A) (A)
                 (A) (A) (A) (A) (A) (A) (A) (A) (A) (A) (A) (A)
                 (A) (A) (A) (A) (A) (A) (A) (A) (A) (A) (A) (A)
                 (A) (A) (A) (A) (A) (A) (A) (A) (A) (A) (A) (A)
                 (A) (A) (A) (A) (A) (A) (A) (A) (A) (A) (A) (A)
                 (A) (A) (A) (A) (A) (A) (A) (A) (A) (A) (A) (A)
                 (A) (A) (A) (A) (A) (A) (A) (A) (A) (A) (A) (A)
                 (A) (A) (A) (A) (A) (A) (A) (A) (A) (A) (A) (A)
                 (A) (A) (A) (A) (A) (A) (A) (A) (A) (A) (A) (A)
                 (A) (A) (A) (A) (A) (A) (A) (A) (A) (A) (A) (A)
                 (A) (A) (A) (A) (A) (A) (A) (A) (A) (A) (A) (A)
                 (A) (A) (A) (A) (A) (A) (A) (A) (A) (A) (A) (A)
                 (A) (A) (A) (A) (A) (A) (A) (A) (A) (A) (A) (A)
                 (A) (A) (A) (A) (A) (A) (A) (A) (A) (A) (A) (A)
                 (A) (A) (A) (A) (A) (A) (A) (A) (A) (A) (A) (A)
                 (A) (A) (A) (A) (A) (A) (A) (A) (A) (A) (A) (A)
                 (A) (A) (A) (A) (A) (A) (A) (A) (A) (A) (A) (A)
                 (A) (A) (A) (A) (A) (A) (A) (A) (A) (A) (A) (A)
                 (A) (A) (A) (A) (A) (A) (A) (A) (A) (A) (A) (A)
 The electronic state is 1-A.
 Alpha  occ. eigenvalues --  -14.20006 -10.11645 -10.11643 -10.11633 -10.08444
 Alpha  occ. eigenvalues --  -10.08130 -10.07518 -10.07514 -10.07511 -10.07511
 Alpha  occ. eigenvalues --  -10.07507 -10.07506 -10.07330 -10.07327 -10.07229
 Alpha  occ. eigenvalues --  -10.07229 -10.07224 -10.07222 -10.07189 -10.07180
 Alpha  occ. eigenvalues --  -10.07179 -10.07171 -10.07171 -10.07005 -10.07004
 Alpha  occ. eigenvalues --   -1.08069  -0.98809  -0.97701  -0.97080  -0.95527
 Alpha  occ. eigenvalues --   -0.89573  -0.87728  -0.86593  -0.86516  -0.86114
 Alpha  occ. eigenvalues --   -0.85788  -0.84956  -0.81658  -0.74949  -0.74544
 Alpha  occ. eigenvalues --   -0.72826  -0.71992  -0.71640  -0.70435  -0.69876
 Alpha  occ. eigenvalues --   -0.68141  -0.65228  -0.65019  -0.63522  -0.60628
 Alpha  occ. eigenvalues --   -0.59108  -0.58282  -0.58186  -0.56621  -0.55987
 Alpha  occ. eigenvalues --   -0.55057  -0.54794  -0.54569  -0.53781  -0.53471
 Alpha  occ. eigenvalues --   -0.53047  -0.52805  -0.52635  -0.52246  -0.49622
 Alpha  occ. eigenvalues --   -0.49268  -0.49115  -0.48508  -0.48320  -0.46457
 Alpha  occ. eigenvalues --   -0.45835  -0.45465  -0.44578  -0.44312  -0.43734
 Alpha  occ. eigenvalues --   -0.43529  -0.41643  -0.37675  -0.36231  -0.36219
 Alpha  occ. eigenvalues --   -0.35259  -0.35100  -0.34956  -0.33176  -0.27242
 Alpha virt. eigenvalues --    0.03208   0.04524   0.04964   0.06312   0.07147
 Alpha virt. eigenvalues --    0.07218   0.07693   0.10883   0.12651   0.13389
 Alpha virt. eigenvalues --    0.13574   0.14325   0.15173   0.15742   0.16214
 Alpha virt. eigenvalues --    0.16244   0.16804   0.17258   0.17662   0.18671
 Alpha virt. eigenvalues --    0.18766   0.18800   0.19099   0.19786   0.20235
 Alpha virt. eigenvalues --    0.20777   0.20939   0.22413   0.22689   0.23020
 Alpha virt. eigenvalues --    0.24319   0.24747   0.24990   0.26119   0.27221
 Alpha virt. eigenvalues --    0.27248   0.27853   0.28198   0.28447   0.28912
 Alpha virt. eigenvalues --    0.29027   0.29224   0.29739   0.30185   0.30417
 Alpha virt. eigenvalues --    0.30598   0.31066   0.31549   0.31795   0.32180
 Alpha virt. eigenvalues --    0.32318   0.32393   0.32549   0.32853   0.33465
 Alpha virt. eigenvalues --    0.33806   0.33929   0.34465   0.35189   0.35332
 Alpha virt. eigenvalues --    0.36048   0.36458   0.36584   0.36704   0.37045
 Alpha virt. eigenvalues --    0.37862   0.38125   0.39014   0.39462   0.39978
 Alpha virt. eigenvalues --    0.40253   0.41283   0.41495   0.41612   0.41716
 Alpha virt. eigenvalues --    0.42499   0.42887   0.42957   0.43748   0.43967
 Alpha virt. eigenvalues --    0.45256   0.45350   0.45893   0.46141   0.46893
 Alpha virt. eigenvalues --    0.46985   0.47239   0.47415   0.47659   0.47745
 Alpha virt. eigenvalues --    0.48399   0.48407   0.48952   0.49265   0.49610
 Alpha virt. eigenvalues --    0.49678   0.50064   0.50822   0.51251   0.51253
 Alpha virt. eigenvalues --    0.51459   0.51678   0.51782   0.52128   0.52210
 Alpha virt. eigenvalues --    0.52843   0.53416   0.53729   0.53927   0.54358
 Alpha virt. eigenvalues --    0.54629   0.55526   0.55969   0.56113   0.57395
 Alpha virt. eigenvalues --    0.57474   0.58099   0.58099   0.58909   0.59058
 Alpha virt. eigenvalues --    0.59173   0.59394   0.59725   0.60156   0.60431
 Alpha virt. eigenvalues --    0.60980   0.61190   0.62416   0.62442   0.63390
 Alpha virt. eigenvalues --    0.64249   0.64469   0.64835   0.65432   0.66702
 Alpha virt. eigenvalues --    0.67148   0.67531   0.69071   0.70505   0.70930
 Alpha virt. eigenvalues --    0.71176   0.71901   0.72052   0.73349   0.74951
 Alpha virt. eigenvalues --    0.75476   0.76091   0.76505   0.76919   0.78201
 Alpha virt. eigenvalues --    0.78545   0.79056   0.79401   0.79728   0.80020
 Alpha virt. eigenvalues --    0.80300   0.80526   0.81460   0.81499   0.82541
 Alpha virt. eigenvalues --    0.83007   0.85015   0.85297   0.85364   0.85943
 Alpha virt. eigenvalues --    0.86063   0.87127   0.88750   0.90823   0.91607
 Alpha virt. eigenvalues --    0.93896   0.94262   0.94765   0.95175   0.98492
 Alpha virt. eigenvalues --    1.00750   1.01239   1.03529   1.21533   1.24190
 Alpha virt. eigenvalues --    1.25150   1.29081   1.29122   1.30537   1.30678
 Alpha virt. eigenvalues --    1.32398   1.32686   1.32712   1.33211   1.33661
 Alpha virt. eigenvalues --    1.33772   1.35200   1.35365   1.35660   1.36093
 Alpha virt. eigenvalues --    1.36361   1.36843   1.36945   1.37287   1.37791
 Alpha virt. eigenvalues --    1.37927   1.38046   1.39267   1.39396   1.39754
 Alpha virt. eigenvalues --    1.40184   1.40375   1.40449   1.40803   1.40845
 Alpha virt. eigenvalues --    1.41197   1.42325   1.42642   1.43155   1.43175
 Alpha virt. eigenvalues --    1.44101   1.44925   1.45343   1.50555   1.50716
 Alpha virt. eigenvalues --    1.51415   1.51511   1.51893   1.52672   1.52814
 Alpha virt. eigenvalues --    1.53165   1.53166   1.53369   1.53737   1.53740
 Alpha virt. eigenvalues --    1.53872   1.54084   1.54994   1.55520   1.55907
 Alpha virt. eigenvalues --    1.55977   1.56231   1.56600   1.56830   1.56979
 Alpha virt. eigenvalues --    1.56992   1.57388   1.58023   1.58421   1.58710
 Alpha virt. eigenvalues --    1.59078   1.60140   1.60398   1.60686   1.61194
 Alpha virt. eigenvalues --    1.62133   1.62678   1.63112   1.63455   1.63725
 Alpha virt. eigenvalues --    1.63757   1.64279   1.64414   1.65057   1.65059
 Alpha virt. eigenvalues --    1.65461   1.66004   1.66306   1.66799   1.67037
 Alpha virt. eigenvalues --    1.67313   1.67573   1.68891   1.69437   1.69900
 Alpha virt. eigenvalues --    1.71085   1.73407   1.75494   1.75533   1.75990
 Alpha virt. eigenvalues --    1.76260   1.76686   1.79275   1.80261   1.83304
 Alpha virt. eigenvalues --    1.85180   1.85571   1.85684   1.85924   1.86072
 Alpha virt. eigenvalues --    1.86210   1.86999   1.87106   1.87374   1.88281
 Alpha virt. eigenvalues --    1.88474   1.88476   1.89788   1.89921   1.90496
 Alpha virt. eigenvalues --    1.90953   1.91149   1.91647   1.91660   1.93642
 Alpha virt. eigenvalues --    1.94678   1.96137   1.96467   1.96913   1.97140
 Alpha virt. eigenvalues --    1.97437   1.97936   1.97960   1.99118   1.99851
 Alpha virt. eigenvalues --    1.99956   2.00039   2.00723   2.00871   2.01020
 Alpha virt. eigenvalues --    2.01363   2.01585   2.01908   2.02297   2.02547
 Alpha virt. eigenvalues --    2.02557   2.03638   2.03754   2.05785   2.05828
 Alpha virt. eigenvalues --    2.06515   2.06613   2.07204   2.08948   2.09107
 Alpha virt. eigenvalues --    2.09665   2.09745   2.10917   2.11890   2.12694
 Alpha virt. eigenvalues --    2.13202   2.13810   2.16402   2.17566   2.18938
 Alpha virt. eigenvalues --    2.20676   2.21011   2.21674   2.24280   2.28523
 Alpha virt. eigenvalues --    2.28819   2.31268   2.32492   2.33491   2.35133
 Alpha virt. eigenvalues --    2.35736   2.36983   2.37814   2.38601   2.39184
 Alpha virt. eigenvalues --    2.39546   2.40237   2.40394   2.40706   2.40738
 Alpha virt. eigenvalues --    2.41412   2.42264   2.43150   2.43182   2.43846
 Alpha virt. eigenvalues --    2.44011   2.44349   2.44771   2.44774   2.45698
 Alpha virt. eigenvalues --    2.45906   2.45992   2.46196   2.46446   2.47250
 Alpha virt. eigenvalues --    2.47541   2.50373   2.54603   2.54941   2.55615
 Alpha virt. eigenvalues --    2.58513   2.58575   2.59234   2.59269   2.60590
 Alpha virt. eigenvalues --    2.60638   2.60883   2.61409   2.61899   2.62248
 Alpha virt. eigenvalues --    2.64672   2.64694   2.64984   2.67810   2.69201
 Alpha virt. eigenvalues --    2.71372   2.71607   2.72575   2.73168   2.73492
 Alpha virt. eigenvalues --    2.73729   2.73834   2.74357   2.75001   2.75339
 Alpha virt. eigenvalues --    2.76084   2.76650   2.76836   2.76987   2.78253
 Alpha virt. eigenvalues --    2.80777   2.83253   2.83317   2.85140   2.85855
 Alpha virt. eigenvalues --    2.86675   2.87270   2.88199   2.89353   2.90532
 Alpha virt. eigenvalues --    2.91023   2.92645   2.93633   2.94221   2.94290
 Alpha virt. eigenvalues --    2.99106   3.05324   3.05945   3.06418   3.06740
 Alpha virt. eigenvalues --    3.07729   3.10049   3.10671   3.10930   3.12027
 Alpha virt. eigenvalues --    3.12182   3.12294   3.13293   3.14083   3.15214
 Alpha virt. eigenvalues --    3.16587   3.17678   3.19075   3.19380   3.20923
 Alpha virt. eigenvalues --    3.22161   3.22864   3.23713   3.24657   3.26476
 Alpha virt. eigenvalues --    3.27191   3.27252   3.27549   3.28726   3.29690
 Alpha virt. eigenvalues --    3.30440   3.32102   3.32912   3.36639   3.37119
 Alpha virt. eigenvalues --    3.40143   3.41616   3.42310   3.45225   3.46331
 Alpha virt. eigenvalues --    3.48386   3.49133   3.49564   3.54887   3.61270
 Alpha virt. eigenvalues --    3.62511   3.63938   3.66606   3.67718   3.70133
 Alpha virt. eigenvalues --    3.85459   3.91153   4.00301   4.01130  21.17956
 Alpha virt. eigenvalues --   21.28747  21.30503  21.41262  21.70387  21.76190
 Alpha virt. eigenvalues --   21.76515  21.79374  21.81612  21.82415  21.88467
 Alpha virt. eigenvalues --   21.93570  21.98699  22.01356  22.03441  22.03748
 Alpha virt. eigenvalues --   22.05640  22.07232  22.10818  22.11804  22.15842
 Alpha virt. eigenvalues --   22.17592  22.22654  22.23464  32.13364
          Condensed to atoms (all electrons):
               1          2          3          4          5          6
     1  C    4.950428   0.508077   0.438702  -0.034136  -0.039393  -0.086580
     2  C    0.508077   4.933517  -0.047876   0.508112  -0.048832  -0.047872
     3  C    0.438702  -0.047876   5.118008  -0.086577   0.477654  -0.050807
     4  C   -0.034136   0.508112  -0.086577   4.950433  -0.039377   0.438651
     5  C   -0.039393  -0.048832   0.477654  -0.039377   5.263880   0.477664
     6  C   -0.086580  -0.047872  -0.050807   0.438651   0.477664   5.118036
     7  H   -0.045698   0.411363   0.013720  -0.045695  -0.003272   0.013720
     8  H   -0.025042   0.007127   0.392702  -0.001057  -0.036649   0.011193
     9  H    0.009492  -0.044116   0.000033   0.406055   0.011008  -0.039436
    10  H   -0.001057   0.007128   0.011193  -0.025056  -0.036652   0.392714
    11  C    0.019686   0.003832  -0.078016   0.019681   0.140913  -0.078024
    12  C   -0.000965  -0.000067   0.026273   0.003623  -0.108098  -0.018695
    13  C    0.003618  -0.000065  -0.018681  -0.000968  -0.108106   0.026281
    14  C    0.000110  -0.000022  -0.000499  -0.000086   0.039629   0.000744
    15  C   -0.000086  -0.000022   0.000744   0.000109   0.039630  -0.000497
    16  C   -0.000063   0.000012   0.000671  -0.000063  -0.011305   0.000672
    17  H   -0.000084   0.000030   0.000041   0.000886  -0.014950   0.001595
    18  H    0.000887   0.000030   0.001594  -0.000084  -0.014950   0.000040
    19  H    0.000001  -0.000000  -0.000003  -0.000002  -0.000586  -0.000047
    20  H   -0.000002  -0.000000  -0.000047   0.000001  -0.000586  -0.000003
    21  H    0.406052  -0.044119  -0.039430   0.009492   0.011007   0.000033
    22  N   -0.000000   0.000000   0.000004  -0.000000  -0.000213   0.000004
    23  C   -0.000000   0.000000   0.000013  -0.000000  -0.000143  -0.000000
    24  C   -0.000000   0.000000  -0.000000   0.000000  -0.000001  -0.000000
    25  C    0.000001   0.000000  -0.000009  -0.000000   0.000035   0.000005
    26  C   -0.000000   0.000000   0.000000   0.000000  -0.000000  -0.000000
    27  C    0.000000  -0.000000  -0.000001  -0.000000   0.000004   0.000000
    28  C   -0.000000  -0.000000  -0.000000   0.000000   0.000000   0.000000
    29  H    0.000000  -0.000000   0.000000  -0.000000   0.000000  -0.000000
    30  H    0.000000   0.000000   0.000003  -0.000000  -0.000052  -0.000001
    31  H    0.000000   0.000000   0.000000  -0.000000  -0.000000   0.000000
    32  H    0.000000   0.000000   0.000000  -0.000000  -0.000000   0.000000
    33  H   -0.000000  -0.000000  -0.000000   0.000000   0.000000   0.000000
    34  C   -0.000000   0.000000  -0.000000  -0.000000  -0.000142   0.000013
    35  C    0.000000   0.000000  -0.000000  -0.000000  -0.000001  -0.000000
    36  C   -0.000000   0.000000   0.000005   0.000001   0.000035  -0.000009
    37  C    0.000000   0.000000  -0.000000  -0.000000  -0.000000   0.000000
    38  C   -0.000000  -0.000000   0.000000   0.000000   0.000004  -0.000001
    39  C    0.000000  -0.000000   0.000000  -0.000000   0.000000  -0.000000
    40  H   -0.000000  -0.000000  -0.000000   0.000000   0.000000   0.000000
    41  H   -0.000000   0.000000  -0.000001   0.000000  -0.000052   0.000003
    42  H   -0.000000   0.000000   0.000000   0.000000  -0.000000   0.000000
    43  H   -0.000000   0.000000   0.000000   0.000000  -0.000000   0.000000
    44  H    0.000000  -0.000000   0.000000  -0.000000   0.000000  -0.000000
               7          8          9         10         11         12
     1  C   -0.045698  -0.025042   0.009492  -0.001057   0.019686  -0.000965
     2  C    0.411363   0.007127  -0.044116   0.007128   0.003832  -0.000067
     3  C    0.013720   0.392702   0.000033   0.011193  -0.078016   0.026273
     4  C   -0.045695  -0.001057   0.406055  -0.025056   0.019681   0.003623
     5  C   -0.003272  -0.036649   0.011008  -0.036652   0.140913  -0.108098
     6  C    0.013720   0.011193  -0.039436   0.392714  -0.078024  -0.018695
     7  H    0.542193  -0.000158  -0.005663  -0.000158  -0.000145  -0.000005
     8  H   -0.000158   0.515235   0.000025  -0.000160  -0.012803  -0.000271
     9  H   -0.005663   0.000025   0.545167  -0.004442  -0.001157   0.000015
    10  H   -0.000158  -0.000160  -0.004442   0.515242  -0.012801   0.003526
    11  C   -0.000145  -0.012803  -0.001157  -0.012801   5.371605   0.433941
    12  C   -0.000005  -0.000271   0.000015   0.003526   0.433941   5.303095
    13  C   -0.000005   0.003528   0.000011  -0.000268   0.433993  -0.009302
    14  C    0.000000  -0.000144  -0.000008   0.000583  -0.040861   0.308286
    15  C    0.000000   0.000585  -0.000002  -0.000145  -0.040920  -0.143645
    16  C   -0.000000   0.000211   0.000001   0.000211  -0.091177  -0.017593
    17  H   -0.000002  -0.000016   0.000008  -0.000411  -0.052314   0.392107
    18  H   -0.000002  -0.000413  -0.000000  -0.000016  -0.052303   0.010994
    19  H    0.000000  -0.000002  -0.000000  -0.000013   0.007802  -0.025306
    20  H    0.000000  -0.000013   0.000000  -0.000002   0.007797   0.001402
    21  H   -0.005662  -0.004442  -0.000183   0.000025  -0.001157   0.000011
    22  N   -0.000000   0.000001   0.000000   0.000001   0.002611   0.019712
    23  C   -0.000000   0.000001  -0.000000   0.000000   0.002026  -0.005491
    24  C    0.000000   0.000000   0.000000  -0.000000   0.000191  -0.000211
    25  C    0.000000   0.000005  -0.000000   0.000000  -0.002039   0.003060
    26  C    0.000000  -0.000000  -0.000000   0.000000   0.000017  -0.000049
    27  C    0.000000  -0.000000   0.000000   0.000000  -0.000114  -0.000018
    28  C   -0.000000   0.000000   0.000000  -0.000000  -0.000008   0.000023
    29  H   -0.000000  -0.000000   0.000000  -0.000000  -0.000003   0.000008
    30  H   -0.000000  -0.000000  -0.000000  -0.000000   0.000310   0.000337
    31  H   -0.000000   0.000000  -0.000000   0.000000  -0.000000   0.000000
    32  H    0.000000  -0.000000  -0.000000   0.000000  -0.000002  -0.000001
    33  H   -0.000000   0.000000   0.000000  -0.000000  -0.000000   0.000000
    34  C   -0.000000   0.000000  -0.000000   0.000001   0.002025  -0.004341
    35  C    0.000000  -0.000000  -0.000000   0.000000   0.000191   0.000660
    36  C    0.000000   0.000000   0.000000   0.000005  -0.002043  -0.003979
    37  C    0.000000   0.000000  -0.000000  -0.000000   0.000017   0.000067
    38  C    0.000000   0.000000   0.000000  -0.000000  -0.000114  -0.000099
    39  C   -0.000000  -0.000000   0.000000   0.000000  -0.000008  -0.000047
    40  H   -0.000000  -0.000000   0.000000  -0.000000  -0.000003   0.000007
    41  H   -0.000000  -0.000000  -0.000000  -0.000000   0.000310  -0.001612
    42  H   -0.000000   0.000000  -0.000000   0.000000  -0.000000  -0.000001
    43  H    0.000000   0.000000  -0.000000  -0.000000  -0.000002   0.000025
    44  H   -0.000000  -0.000000   0.000000   0.000000  -0.000000  -0.000001
              13         14         15         16         17         18
     1  C    0.003618   0.000110  -0.000086  -0.000063  -0.000084   0.000887
     2  C   -0.000065  -0.000022  -0.000022   0.000012   0.000030   0.000030
     3  C   -0.018681  -0.000499   0.000744   0.000671   0.000041   0.001594
     4  C   -0.000968  -0.000086   0.000109  -0.000063   0.000886  -0.000084
     5  C   -0.108106   0.039629   0.039630  -0.011305  -0.014950  -0.014950
     6  C    0.026281   0.000744  -0.000497   0.000672   0.001595   0.000040
     7  H   -0.000005   0.000000   0.000000  -0.000000  -0.000002  -0.000002
     8  H    0.003528  -0.000144   0.000585   0.000211  -0.000016  -0.000413
     9  H    0.000011  -0.000008  -0.000002   0.000001   0.000008  -0.000000
    10  H   -0.000268   0.000583  -0.000145   0.000211  -0.000411  -0.000016
    11  C    0.433993  -0.040861  -0.040920  -0.091177  -0.052314  -0.052303
    12  C   -0.009302   0.308286  -0.143645  -0.017593   0.392107   0.010994
    13  C    5.303044  -0.143658   0.308324  -0.017612   0.010994   0.392089
    14  C   -0.143658   5.324583  -0.075699   0.383116  -0.014243  -0.000700
    15  C    0.308324  -0.075699   5.324484   0.383207  -0.000701  -0.014226
    16  C   -0.017612   0.383116   0.383207   5.390584   0.013051   0.013046
    17  H    0.010994  -0.014243  -0.000701   0.013051   0.519612  -0.000124
    18  H    0.392089  -0.000700  -0.014226   0.013046  -0.000124   0.519609
    19  H    0.001400   0.389347   0.006027  -0.027187  -0.003956   0.000011
    20  H   -0.025304   0.006027   0.389324  -0.027160   0.000011  -0.003954
    21  H    0.000015  -0.000002  -0.000008   0.000001  -0.000000   0.000009
    22  N    0.019725  -0.005471  -0.005546   0.140270  -0.000386  -0.000386
    23  C   -0.004349  -0.009198   0.030618  -0.056813   0.000022  -0.000069
    24  C    0.000660  -0.011662   0.021001  -0.012297   0.000001  -0.000043
    25  C   -0.003989   0.020746  -0.082922   0.030852  -0.000023   0.000185
    26  C    0.000067  -0.000459   0.003850  -0.005560   0.000000  -0.000002
    27  C   -0.000099   0.001349  -0.008915   0.001308  -0.000001   0.000021
    28  C   -0.000047   0.000091  -0.000834   0.001946  -0.000000   0.000000
    29  H    0.000007  -0.000297   0.000446  -0.001143  -0.000000   0.000000
    30  H   -0.001611  -0.001633   0.002014   0.000511   0.000003  -0.000029
    31  H   -0.000001   0.000001  -0.000025   0.000009  -0.000000   0.000000
    32  H    0.000025  -0.000032   0.000081  -0.000146   0.000000  -0.000000
    33  H   -0.000001   0.000001  -0.000014   0.000017  -0.000000   0.000000
    34  C   -0.005491   0.030648  -0.009246  -0.056799  -0.000069   0.000022
    35  C   -0.000211   0.020999  -0.011662  -0.012257  -0.000043   0.000001
    36  C    0.003063  -0.082947   0.020758   0.030835   0.000186  -0.000023
    37  C   -0.000049   0.003846  -0.000459  -0.005557  -0.000002   0.000000
    38  C   -0.000018  -0.008923   0.001350   0.001306   0.000021  -0.000001
    39  C    0.000023  -0.000833   0.000091   0.001948   0.000000   0.000000
    40  H    0.000008   0.000445  -0.000297  -0.001138   0.000000  -0.000000
    41  H    0.000337   0.002012  -0.001633   0.000526  -0.000029   0.000003
    42  H    0.000000  -0.000025   0.000001   0.000009   0.000000  -0.000000
    43  H   -0.000001   0.000081  -0.000032  -0.000146  -0.000000   0.000000
    44  H    0.000000  -0.000014   0.000001   0.000017   0.000000  -0.000000
              19         20         21         22         23         24
     1  C    0.000001  -0.000002   0.406052  -0.000000  -0.000000  -0.000000
     2  C   -0.000000  -0.000000  -0.044119   0.000000   0.000000   0.000000
     3  C   -0.000003  -0.000047  -0.039430   0.000004   0.000013  -0.000000
     4  C   -0.000002   0.000001   0.009492  -0.000000  -0.000000   0.000000
     5  C   -0.000586  -0.000586   0.011007  -0.000213  -0.000143  -0.000001
     6  C   -0.000047  -0.000003   0.000033   0.000004  -0.000000  -0.000000
     7  H    0.000000   0.000000  -0.005662  -0.000000  -0.000000   0.000000
     8  H   -0.000002  -0.000013  -0.004442   0.000001   0.000001   0.000000
     9  H   -0.000000   0.000000  -0.000183   0.000000  -0.000000   0.000000
    10  H   -0.000013  -0.000002   0.000025   0.000001   0.000000  -0.000000
    11  C    0.007802   0.007797  -0.001157   0.002611   0.002026   0.000191
    12  C   -0.025306   0.001402   0.000011   0.019712  -0.005491  -0.000211
    13  C    0.001400  -0.025304   0.000015   0.019725  -0.004349   0.000660
    14  C    0.389347   0.006027  -0.000002  -0.005471  -0.009198  -0.011662
    15  C    0.006027   0.389324  -0.000008  -0.005546   0.030618   0.021001
    16  C   -0.027187  -0.027160   0.000001   0.140270  -0.056813  -0.012297
    17  H   -0.003956   0.000011  -0.000000  -0.000386   0.000022   0.000001
    18  H    0.000011  -0.003954   0.000009  -0.000386  -0.000069  -0.000043
    19  H    0.486627  -0.000228   0.000000  -0.004190  -0.000759  -0.000289
    20  H   -0.000228   0.486623  -0.000000  -0.004205   0.001651  -0.000294
    21  H    0.000000  -0.000000   0.545167   0.000000  -0.000000  -0.000000
    22  N   -0.004190  -0.004205   0.000000   6.578752   0.139671   0.000277
    23  C   -0.000759   0.001651  -0.000000   0.139671   5.313599   0.412984
    24  C   -0.000289  -0.000294  -0.000000   0.000277   0.412984   5.182328
    25  C    0.000395  -0.001471   0.000000  -0.001369   0.417462  -0.072993
    26  C    0.000005   0.000161  -0.000000   0.012680  -0.029922   0.436066
    27  C    0.000009  -0.001666   0.000000   0.012814  -0.031300  -0.108836
    28  C   -0.000003   0.000449   0.000000   0.005081  -0.062607  -0.058285
    29  H   -0.000007   0.000012   0.000000  -0.004973  -0.019488   0.386707
    30  H   -0.000003   0.001111  -0.000000  -0.005679  -0.017876   0.008967
    31  H   -0.000000   0.000001  -0.000000  -0.000489   0.012808  -0.035966
    32  H   -0.000000  -0.000034  -0.000000  -0.000480   0.012701  -0.001247
    33  H    0.000000   0.000004   0.000000  -0.000038  -0.005986   0.018147
    34  C    0.001640  -0.000763  -0.000000   0.139692  -0.058142   0.027668
    35  C   -0.000294  -0.000289   0.000000   0.000335   0.027689  -0.072485
    36  C   -0.001472   0.000396  -0.000000  -0.001428  -0.008430   0.015506
    37  C    0.000161   0.000005  -0.000000   0.012664  -0.000568  -0.006356
    38  C   -0.001667   0.000009   0.000000   0.012825  -0.005719   0.004218
    39  C    0.000449  -0.000003   0.000000   0.005081   0.002160  -0.001225
    40  H    0.000012  -0.000007   0.000000  -0.004958   0.001526  -0.000815
    41  H    0.001111  -0.000003  -0.000000  -0.005694  -0.000618   0.000208
    42  H    0.000001  -0.000000  -0.000000  -0.000489  -0.000142   0.000102
    43  H   -0.000034  -0.000000  -0.000000  -0.000480   0.000009  -0.000020
    44  H    0.000004   0.000000   0.000000  -0.000038   0.000018  -0.000015
              25         26         27         28         29         30
     1  C    0.000001  -0.000000   0.000000  -0.000000   0.000000   0.000000
     2  C    0.000000   0.000000  -0.000000  -0.000000  -0.000000   0.000000
     3  C   -0.000009   0.000000  -0.000001  -0.000000   0.000000   0.000003
     4  C   -0.000000   0.000000  -0.000000   0.000000  -0.000000  -0.000000
     5  C    0.000035  -0.000000   0.000004   0.000000   0.000000  -0.000052
     6  C    0.000005  -0.000000   0.000000   0.000000  -0.000000  -0.000001
     7  H    0.000000   0.000000   0.000000  -0.000000  -0.000000  -0.000000
     8  H    0.000005  -0.000000  -0.000000   0.000000  -0.000000  -0.000000
     9  H   -0.000000  -0.000000   0.000000   0.000000   0.000000  -0.000000
    10  H    0.000000   0.000000   0.000000  -0.000000  -0.000000  -0.000000
    11  C   -0.002039   0.000017  -0.000114  -0.000008  -0.000003   0.000310
    12  C    0.003060  -0.000049  -0.000018   0.000023   0.000008   0.000337
    13  C   -0.003989   0.000067  -0.000099  -0.000047   0.000007  -0.001611
    14  C    0.020746  -0.000459   0.001349   0.000091  -0.000297  -0.001633
    15  C   -0.082922   0.003850  -0.008915  -0.000834   0.000446   0.002014
    16  C    0.030852  -0.005560   0.001308   0.001946  -0.001143   0.000511
    17  H   -0.000023   0.000000  -0.000001  -0.000000  -0.000000   0.000003
    18  H    0.000185  -0.000002   0.000021   0.000000   0.000000  -0.000029
    19  H    0.000395   0.000005   0.000009  -0.000003  -0.000007  -0.000003
    20  H   -0.001471   0.000161  -0.001666   0.000449   0.000012   0.001111
    21  H    0.000000  -0.000000   0.000000   0.000000   0.000000  -0.000000
    22  N   -0.001369   0.012680   0.012814   0.005081  -0.004973  -0.005679
    23  C    0.417462  -0.029922  -0.031300  -0.062607  -0.019488  -0.017876
    24  C   -0.072993   0.436066  -0.108836  -0.058285   0.386707   0.008967
    25  C    5.178857  -0.105563   0.434242  -0.059558   0.008624   0.385660
    26  C   -0.105563   5.000606  -0.011046   0.497922  -0.028176  -0.000371
    27  C    0.434242  -0.011046   5.007438   0.497794  -0.000353  -0.029064
    28  C   -0.059558   0.497922   0.497794   4.972656   0.005508   0.005491
    29  H    0.008624  -0.028176  -0.000353   0.005508   0.484818  -0.000200
    30  H    0.385660  -0.000371  -0.029064   0.005491  -0.000200   0.485123
    31  H   -0.001238   0.405473   0.011113  -0.049659  -0.004607   0.000008
    32  H   -0.036183   0.011104   0.405529  -0.049399   0.000008  -0.004608
    33  H    0.018228  -0.053651  -0.053673   0.420217  -0.000069  -0.000069
    34  C   -0.008395  -0.000573  -0.005716   0.002163   0.001535  -0.000614
    35  C    0.015498  -0.006361   0.004215  -0.001225  -0.000814   0.000208
    36  C   -0.009124   0.000680  -0.000445   0.000133  -0.001017  -0.000209
    37  C    0.000679  -0.000380   0.000094  -0.000050  -0.001279  -0.000006
    38  C   -0.000445   0.000094  -0.000044   0.000018   0.000206   0.000007
    39  C    0.000133  -0.000050   0.000018  -0.000011   0.000395  -0.000003
    40  H   -0.001018  -0.001279   0.000206   0.000395   0.000887   0.000003
    41  H   -0.000209  -0.000006   0.000007  -0.000003   0.000003  -0.000007
    42  H   -0.000032   0.000021  -0.000002  -0.000000  -0.000031  -0.000000
    43  H    0.000001  -0.000001   0.000000   0.000000   0.000001  -0.000000
    44  H    0.000001  -0.000001  -0.000000  -0.000000   0.000004   0.000000
              31         32         33         34         35         36
     1  C    0.000000   0.000000  -0.000000  -0.000000   0.000000  -0.000000
     2  C    0.000000   0.000000  -0.000000   0.000000   0.000000   0.000000
     3  C    0.000000   0.000000  -0.000000  -0.000000  -0.000000   0.000005
     4  C   -0.000000  -0.000000   0.000000  -0.000000  -0.000000   0.000001
     5  C   -0.000000  -0.000000   0.000000  -0.000142  -0.000001   0.000035
     6  C    0.000000   0.000000   0.000000   0.000013  -0.000000  -0.000009
     7  H   -0.000000   0.000000  -0.000000  -0.000000   0.000000   0.000000
     8  H    0.000000  -0.000000   0.000000   0.000000  -0.000000   0.000000
     9  H   -0.000000  -0.000000   0.000000  -0.000000  -0.000000   0.000000
    10  H    0.000000   0.000000  -0.000000   0.000001   0.000000   0.000005
    11  C   -0.000000  -0.000002  -0.000000   0.002025   0.000191  -0.002043
    12  C    0.000000  -0.000001   0.000000  -0.004341   0.000660  -0.003979
    13  C   -0.000001   0.000025  -0.000001  -0.005491  -0.000211   0.003063
    14  C    0.000001  -0.000032   0.000001   0.030648   0.020999  -0.082947
    15  C   -0.000025   0.000081  -0.000014  -0.009246  -0.011662   0.020758
    16  C    0.000009  -0.000146   0.000017  -0.056799  -0.012257   0.030835
    17  H   -0.000000   0.000000  -0.000000  -0.000069  -0.000043   0.000186
    18  H    0.000000  -0.000000   0.000000   0.000022   0.000001  -0.000023
    19  H   -0.000000  -0.000000   0.000000   0.001640  -0.000294  -0.001472
    20  H    0.000001  -0.000034   0.000004  -0.000763  -0.000289   0.000396
    21  H   -0.000000  -0.000000   0.000000  -0.000000   0.000000  -0.000000
    22  N   -0.000489  -0.000480  -0.000038   0.139692   0.000335  -0.001428
    23  C    0.012808   0.012701  -0.005986  -0.058142   0.027689  -0.008430
    24  C   -0.035966  -0.001247   0.018147   0.027668  -0.072485   0.015506
    25  C   -0.001238  -0.036183   0.018228  -0.008395   0.015498  -0.009124
    26  C    0.405473   0.011104  -0.053651  -0.000573  -0.006361   0.000680
    27  C    0.011113   0.405529  -0.053673  -0.005716   0.004215  -0.000445
    28  C   -0.049659  -0.049399   0.420217   0.002163  -0.001225   0.000133
    29  H   -0.004607   0.000008  -0.000069   0.001535  -0.000814  -0.001017
    30  H    0.000008  -0.004608  -0.000069  -0.000614   0.000208  -0.000209
    31  H    0.543225  -0.000166  -0.005910  -0.000142   0.000102  -0.000032
    32  H   -0.000166   0.543352  -0.005907   0.000009  -0.000020   0.000001
    33  H   -0.005910  -0.005907   0.544193   0.000018  -0.000015   0.000001
    34  C   -0.000142   0.000009   0.000018   5.313547   0.412896   0.417520
    35  C    0.000102  -0.000020  -0.000015   0.412896   5.182437  -0.072995
    36  C   -0.000032   0.000001   0.000001   0.417520  -0.072995   5.178848
    37  C    0.000021  -0.000001  -0.000001  -0.029918   0.436081  -0.105545
    38  C   -0.000002   0.000000  -0.000000  -0.031282  -0.108879   0.434224
    39  C   -0.000000   0.000000  -0.000000  -0.062609  -0.058253  -0.059581
    40  H   -0.000031   0.000001   0.000004  -0.019508   0.386714   0.008623
    41  H   -0.000000  -0.000000   0.000000  -0.017858   0.008966   0.385641
    42  H   -0.000000   0.000000  -0.000000   0.012811  -0.035977  -0.001240
    43  H    0.000000  -0.000000  -0.000000   0.012697  -0.001246  -0.036173
    44  H   -0.000000  -0.000000   0.000000  -0.005986   0.018149   0.018228
              37         38         39         40         41         42
     1  C    0.000000  -0.000000   0.000000  -0.000000  -0.000000  -0.000000
     2  C    0.000000  -0.000000  -0.000000  -0.000000   0.000000   0.000000
     3  C   -0.000000   0.000000   0.000000  -0.000000  -0.000001   0.000000
     4  C   -0.000000   0.000000  -0.000000   0.000000   0.000000   0.000000
     5  C   -0.000000   0.000004   0.000000   0.000000  -0.000052  -0.000000
     6  C    0.000000  -0.000001  -0.000000   0.000000   0.000003   0.000000
     7  H    0.000000   0.000000  -0.000000  -0.000000  -0.000000  -0.000000
     8  H    0.000000   0.000000  -0.000000  -0.000000  -0.000000   0.000000
     9  H   -0.000000   0.000000   0.000000   0.000000  -0.000000  -0.000000
    10  H   -0.000000  -0.000000   0.000000  -0.000000  -0.000000   0.000000
    11  C    0.000017  -0.000114  -0.000008  -0.000003   0.000310  -0.000000
    12  C    0.000067  -0.000099  -0.000047   0.000007  -0.001612  -0.000001
    13  C   -0.000049  -0.000018   0.000023   0.000008   0.000337   0.000000
    14  C    0.003846  -0.008923  -0.000833   0.000445   0.002012  -0.000025
    15  C   -0.000459   0.001350   0.000091  -0.000297  -0.001633   0.000001
    16  C   -0.005557   0.001306   0.001948  -0.001138   0.000526   0.000009
    17  H   -0.000002   0.000021   0.000000   0.000000  -0.000029   0.000000
    18  H    0.000000  -0.000001   0.000000  -0.000000   0.000003  -0.000000
    19  H    0.000161  -0.001667   0.000449   0.000012   0.001111   0.000001
    20  H    0.000005   0.000009  -0.000003  -0.000007  -0.000003  -0.000000
    21  H   -0.000000   0.000000   0.000000   0.000000  -0.000000  -0.000000
    22  N    0.012664   0.012825   0.005081  -0.004958  -0.005694  -0.000489
    23  C   -0.000568  -0.005719   0.002160   0.001526  -0.000618  -0.000142
    24  C   -0.006356   0.004218  -0.001225  -0.000815   0.000208   0.000102
    25  C    0.000679  -0.000445   0.000133  -0.001018  -0.000209  -0.000032
    26  C   -0.000380   0.000094  -0.000050  -0.001279  -0.000006   0.000021
    27  C    0.000094  -0.000044   0.000018   0.000206   0.000007  -0.000002
    28  C   -0.000050   0.000018  -0.000011   0.000395  -0.000003  -0.000000
    29  H   -0.001279   0.000206   0.000395   0.000887   0.000003  -0.000031
    30  H   -0.000006   0.000007  -0.000003   0.000003  -0.000007  -0.000000
    31  H    0.000021  -0.000002  -0.000000  -0.000031  -0.000000  -0.000000
    32  H   -0.000001   0.000000   0.000000   0.000001  -0.000000   0.000000
    33  H   -0.000001  -0.000000  -0.000000   0.000004   0.000000  -0.000000
    34  C   -0.029918  -0.031282  -0.062609  -0.019508  -0.017858   0.012811
    35  C    0.436081  -0.108879  -0.058253   0.386714   0.008966  -0.035977
    36  C   -0.105545   0.434224  -0.059581   0.008623   0.385641  -0.001240
    37  C    5.000578  -0.011045   0.497901  -0.028166  -0.000369   0.405485
    38  C   -0.011045   5.007473   0.497823  -0.000354  -0.029061   0.011116
    39  C    0.497901   0.497823   4.972639   0.005510   0.005487  -0.049667
    40  H   -0.028166  -0.000354   0.005510   0.484816  -0.000200  -0.004608
    41  H   -0.000369  -0.029061   0.005487  -0.000200   0.485110   0.000008
    42  H    0.405485   0.011116  -0.049667  -0.004608   0.000008   0.543230
    43  H    0.011101   0.405516  -0.049390   0.000008  -0.004606  -0.000166
    44  H   -0.053659  -0.053670   0.420220  -0.000069  -0.000069  -0.005911
              43         44
     1  C   -0.000000   0.000000
     2  C    0.000000  -0.000000
     3  C    0.000000   0.000000
     4  C    0.000000  -0.000000
     5  C   -0.000000   0.000000
     6  C    0.000000  -0.000000
     7  H    0.000000  -0.000000
     8  H    0.000000  -0.000000
     9  H   -0.000000   0.000000
    10  H   -0.000000   0.000000
    11  C   -0.000002  -0.000000
    12  C    0.000025  -0.000001
    13  C   -0.000001   0.000000
    14  C    0.000081  -0.000014
    15  C   -0.000032   0.000001
    16  C   -0.000146   0.000017
    17  H   -0.000000   0.000000
    18  H    0.000000  -0.000000
    19  H   -0.000034   0.000004
    20  H   -0.000000   0.000000
    21  H   -0.000000   0.000000
    22  N   -0.000480  -0.000038
    23  C    0.000009   0.000018
    24  C   -0.000020  -0.000015
    25  C    0.000001   0.000001
    26  C   -0.000001  -0.000001
    27  C    0.000000  -0.000000
    28  C    0.000000  -0.000000
    29  H    0.000001   0.000004
    30  H   -0.000000   0.000000
    31  H    0.000000  -0.000000
    32  H   -0.000000  -0.000000
    33  H   -0.000000   0.000000
    34  C    0.012697  -0.005986
    35  C   -0.001246   0.018149
    36  C   -0.036173   0.018228
    37  C    0.011101  -0.053659
    38  C    0.405516  -0.053670
    39  C   -0.049390   0.420220
    40  H    0.000008  -0.000069
    41  H   -0.004606  -0.000069
    42  H   -0.000166  -0.005911
    43  H    0.543351  -0.005907
    44  H   -0.005907   0.544195
 Mulliken charges:
               1
     1  C   -0.103945
     2  C   -0.146234
     3  C   -0.159414
     4  C   -0.103943
     5  C    0.001896
     6  C   -0.159395
     7  H    0.125468
     8  H    0.150555
     9  H    0.123192
    10  H    0.150549
    11  C    0.019070
    12  C   -0.167372
    13  C   -0.167376
    14  C   -0.135229
    15  C   -0.135111
    16  C   -0.050320
    17  H    0.148786
    18  H    0.148785
    19  H    0.171046
    20  H    0.171053
    21  H    0.123192
    22  N   -0.055686
    23  C   -0.057339
    24  C   -0.131992
    25  C   -0.128087
    26  C   -0.125295
    27  C   -0.124866
    28  C   -0.128200
    29  H    0.173288
    30  H    0.172281
    31  H    0.125508
    32  H    0.125416
    33  H    0.124506
    34  C   -0.057310
    35  C   -0.132114
    36  C   -0.127993
    37  C   -0.125291
    38  C   -0.124888
    39  C   -0.128198
    40  H    0.173287
    41  H    0.172298
    42  H    0.125507
    43  H    0.125413
    44  H    0.124505
 Sum of Mulliken charges =  -0.00000
 Mulliken charges with hydrogens summed into heavy atoms:
               1
     1  C    0.019248
     2  C   -0.020766
     3  C   -0.008859
     4  C    0.019249
     5  C    0.001896
     6  C   -0.008846
    11  C    0.019070
    12  C   -0.018586
    13  C   -0.018591
    14  C    0.035816
    15  C    0.035942
    16  C   -0.050320
    22  N   -0.055686
    23  C   -0.057339
    24  C    0.041296
    25  C    0.044194
    26  C    0.000213
    27  C    0.000549
    28  C   -0.003694
    34  C   -0.057310
    35  C    0.041172
    36  C    0.044305
    37  C    0.000216
    38  C    0.000525
    39  C   -0.003693
 Electronic spatial extent (au):  <R**2>=          11112.4846
 Charge=             -0.0000 electrons
 Dipole moment (field-independent basis, Debye):
    X=              0.2095    Y=              0.0002    Z=             -0.0003  Tot=              0.2095
 Quadrupole moment (field-independent basis, Debye-Ang):
   XX=           -133.1036   YY=           -131.9415   ZZ=           -148.0118
   XY=              0.0006   XZ=             -0.0010   YZ=              0.4496
 Traceless Quadrupole moment (field-independent basis, Debye-Ang):
   XX=              4.5820   YY=              5.7441   ZZ=            -10.3261
   XY=              0.0006   XZ=             -0.0010   YZ=              0.4496
 Octapole moment (field-independent basis, Debye-Ang**2):
  XXX=            -36.8610  YYY=              0.0079  ZZZ=              0.0028  XYY=              7.4502
  XXY=             -0.0052  XXZ=             -0.0102  XZZ=             20.0533  YZZ=              0.0024
  YYZ=             -0.0044  XYZ=             -2.4250
 Hexadecapole moment (field-independent basis, Debye-Ang**3):
 XXXX=         -10719.0148 YYYY=          -3297.9854 ZZZZ=           -505.1757 XXXY=             -0.0764
 XXXZ=              0.0151 YYYX=              0.0309 YYYZ=             88.5009 ZZZX=             -0.0143
 ZZZY=              0.1695 XXYY=          -2246.6678 XXZZ=          -2147.8049 YYZZ=           -676.5251
 XXYZ=            -74.9505 YYXZ=             -0.0172 ZZXY=              0.0210
 N-N= 1.905495953278D+03 E-N=-6.085879801640D+03  KE= 9.749184298172D+02
 No NMR shielding tensors so no spin-rotation constants.
 Leave Link  601 at Sun Jan 17 12:15:42 2021, MaxMem=  4026531840 cpu:               3.7 elap:               0.7
 (Enter /opt/ohpc/pub/libs/gaussian/g16-A.03/sandybridge/g16/l9999.exe)

 Test job not archived.
 1\1\GINC-CASCADEB025\SP\RLC-wHPBE\TZVP\C24H19N1\RDU230\17-Jan-2021\0\\
 #P LC-wHPBE/TZVP iop(3/107=0328100000, 3/108=0328100000) scf=(conver=6
 ,fermi,ndamp=35,noincfock,novaracc,vshift=500,xqc)\\H19 C24 N1\\0,1\C,
 0,6.129184,1.201496,-0.030856\C,0,6.830271,0.000001,0.000182\C,0,4.738
 958,1.200713,-0.032197\C,0,6.129235,-1.201473,0.031153\C,0,4.021751,-0
 .000032,0.000031\C,0,4.738962,-1.200719,0.032361\H,0,7.919539,0.000045
 ,0.00019\H,0,4.198073,2.145454,-0.081149\H,0,6.668779,-2.147537,0.0634
 12\H,0,4.198148,-2.145504,0.081256\C,0,2.536892,-0.000014,-0.000063\C,
 0,1.813363,-0.924286,-0.760077\C,0,1.813258,0.92429,0.759786\C,0,0.426
 027,-0.922473,-0.771159\C,0,0.425899,0.922498,0.770636\C,0,-0.288344,0
 .000018,-0.000311\H,0,2.347573,-1.638662,-1.38605\H,0,2.34735,1.638674
 ,1.385851\H,0,-0.11537,-1.638494,-1.387158\H,0,-0.115571,1.638578,1.38
 6504\H,0,6.668762,2.147543,-0.063006\N,0,-1.704382,-0.000003,-0.000499
 \C,0,-2.414266,1.22777,0.004035\C,0,-3.559402,1.382015,0.792108\C,0,-1
 .979956,2.301413,-0.78017\C,0,-4.257371,2.583383,0.786193\C,0,-2.67352
 7,3.505213,-0.76583\C,0,-3.817854,3.653503,0.012423\H,0,-3.900046,0.55
 1242,1.407814\H,0,-1.092486,2.185578,-1.400082\H,0,-5.147916,2.686607,
 1.40537\H,0,-2.321511,4.331764,-1.38228\H,0,-4.363183,4.595952,0.01566
 4\C,0,-2.414241,-1.227791,-0.004406\C,0,-3.559682,-1.382189,-0.792032\
 C,0,-1.979686,-2.301249,0.779869\C,0,-4.257673,-2.583532,-0.785597\C,0
 ,-2.673287,-3.50506,0.766028\C,0,-3.817885,-3.653507,-0.011769\H,0,-3.
 900521,-0.551523,-1.407763\H,0,-1.092008,-2.185299,1.399468\H,0,-5.148
 466,-2.686887,-1.404399\H,0,-2.32101,-4.331477,1.382521\H,0,-4.363223,
 -4.595951,-0.014691\\Version=EM64L-G16RevA.03\State=1-A\HF=-980.261215
 \RMSD=6.822e-07\Dipole=-0.0824227,0.000065,0.0001252\Quadrupole=3.4065
 95,4.2706279,-7.6772229,-0.000464,-0.0007445,-0.3342297\PG=C01 [X(C24H
 19N1)]\\@


 NO SCIENCE HAS EVER MADE MORE RAPID PROGRESS IN A
 SHORTER TIME THAN CHEMISTRY.
   -- MARTIN HEINRICH KLOPROTH, 1791
 (FIRST PROFESSOR OF CHEMISTRY AT THE UNIVERSITY OF BERLIN)
 Job cpu time:       0 days  1 hours 17 minutes 22.0 seconds.
 Elapsed time:       0 days  0 hours  9 minutes 42.5 seconds.
 File lengths (MBytes):  RWF=    156 Int=      0 D2E=      0 Chk=     28 Scr=      8
 Normal termination of Gaussian 16 at Sun Jan 17 12:15:42 2021.
