 Entering Gaussian System, Link 0=g16
 Input=mol_bp_pa_half_tune_n5.gjf
 Output=mol_bp_pa_half_tune_n5.log
 Initial command:
 /opt/ohpc/pub/libs/gaussian/g16-A.03/sandybridge/g16/l1.exe "/mnt/gpfs2_4m/scratch/rdu230/ondemand/projects/init_structures/wtuning/mol_bp_pa_half/tuning_mol_bp_pa_half_ocycle0/Gau-408211.inp" -scrdir="/mnt/gpfs2_4m/scratch/rdu230/ondemand/projects/init_structures/wtuning/mol_bp_pa_half/tuning_mol_bp_pa_half_ocycle0/"
 Entering Link 1 = /opt/ohpc/pub/libs/gaussian/g16-A.03/sandybridge/g16/l1.exe PID=    408212.
  
 Copyright (c) 1988,1990,1992,1993,1995,1998,2003,2009,2016,
            Gaussian, Inc.  All Rights Reserved.
  
 This is part of the Gaussian(R) 16 program.  It is based on
 the Gaussian(R) 09 system (copyright 2009, Gaussian, Inc.),
 the Gaussian(R) 03 system (copyright 2003, Gaussian, Inc.),
 the Gaussian(R) 98 system (copyright 1998, Gaussian, Inc.),
 the Gaussian(R) 94 system (copyright 1995, Gaussian, Inc.),
 the Gaussian 92(TM) system (copyright 1992, Gaussian, Inc.),
 the Gaussian 90(TM) system (copyright 1990, Gaussian, Inc.),
 the Gaussian 88(TM) system (copyright 1988, Gaussian, Inc.),
 the Gaussian 86(TM) system (copyright 1986, Carnegie Mellon
 University), and the Gaussian 82(TM) system (copyright 1983,
 Carnegie Mellon University). Gaussian is a federally registered
 trademark of Gaussian, Inc.
  
 This software contains proprietary and confidential information,
 including trade secrets, belonging to Gaussian, Inc.
  
 This software is provided under written license and may be
 used, copied, transmitted, or stored only in accord with that
 written license.
  
 The following legend is applicable only to US Government
 contracts under FAR:
  
                    RESTRICTED RIGHTS LEGEND
  
 Use, reproduction and disclosure by the US Government is
 subject to restrictions as set forth in subparagraphs (a)
 and (c) of the Commercial Computer Software - Restricted
 Rights clause in FAR 52.227-19.
  
 Gaussian, Inc.
 340 Quinnipiac St., Bldg. 40, Wallingford CT 06492
  
  
 ---------------------------------------------------------------
 Warning -- This program may not be used in any manner that
 competes with the business of Gaussian, Inc. or will provide
 assistance to any competitor of Gaussian, Inc.  The licensee
 of this program is prohibited from giving any competitor of
 Gaussian, Inc. access to this program.  By using this program,
 the user acknowledges that Gaussian, Inc. is engaged in the
 business of creating and licensing software in the field of
 computational chemistry and represents and warrants to the
 licensee that it is not a competitor of Gaussian, Inc. and that
 it will not use this program in any manner prohibited above.
 ---------------------------------------------------------------
  

 Cite this work as:
 Gaussian 16, Revision A.03,
 M. J. Frisch, G. W. Trucks, H. B. Schlegel, G. E. Scuseria, 
 M. A. Robb, J. R. Cheeseman, G. Scalmani, V. Barone, 
 G. A. Petersson, H. Nakatsuji, X. Li, M. Caricato, A. V. Marenich, 
 J. Bloino, B. G. Janesko, R. Gomperts, B. Mennucci, H. P. Hratchian, 
 J. V. Ortiz, A. F. Izmaylov, J. L. Sonnenberg, D. Williams-Young, 
 F. Ding, F. Lipparini, F. Egidi, J. Goings, B. Peng, A. Petrone, 
 T. Henderson, D. Ranasinghe, V. G. Zakrzewski, J. Gao, N. Rega, 
 G. Zheng, W. Liang, M. Hada, M. Ehara, K. Toyota, R. Fukuda, 
 J. Hasegawa, M. Ishida, T. Nakajima, Y. Honda, O. Kitao, H. Nakai, 
 T. Vreven, K. Throssell, J. A. Montgomery, Jr., J. E. Peralta, 
 F. Ogliaro, M. J. Bearpark, J. J. Heyd, E. N. Brothers, K. N. Kudin, 
 V. N. Staroverov, T. A. Keith, R. Kobayashi, J. Normand, 
 K. Raghavachari, A. P. Rendell, J. C. Burant, S. S. Iyengar, 
 J. Tomasi, M. Cossi, J. M. Millam, M. Klene, C. Adamo, R. Cammi, 
 J. W. Ochterski, R. L. Martin, K. Morokuma, O. Farkas, 
 J. B. Foresman, and D. J. Fox, Gaussian, Inc., Wallingford CT, 2016.
 
 ******************************************
 Gaussian 16:  EM64L-G16RevA.03 25-Dec-2016
                17-Jan-2021 
 ******************************************
 %mem=30GB
 %nproc=8
 Will use up to    8 processors via shared memory.
 ----------------------------------------------------------------------
 #P LC-wHPBE/TZVP iop(3/107=0190100000, 3/108=0190100000) scf=(conver=6
 ,fermi,ndamp=35,noincfock,novaracc,vshift=500,xqc)
 ----------------------------------------------------------------------
 1/38=1,172=1/1;
 2/12=2,17=6,18=5,40=1/2;
 3/5=19,7=101,11=2,25=1,30=1,74=-71,107=190100000,108=190100000/1,2,3;
 4//1;
 5/5=100002,6=6,8=3,10=500,13=1,18=-1,22=13,38=1,93=35/2,8;
 6/7=2,8=2,9=2,10=2,28=1/1;
 99/5=1,9=1/99;
 Leave Link    1 at Sun Jan 17 13:54:58 2021, MaxMem=  4026531840 cpu:               1.3 elap:               0.2
 (Enter /opt/ohpc/pub/libs/gaussian/g16-A.03/sandybridge/g16/l101.exe)
 ----------
 H19 C24 N1
 ----------
 Symbolic Z-matrix:
 Charge =  0 Multiplicity = 1
 C                     6.12918   1.2015   -0.03086 
 C                     6.83027   0.        0.00018 
 C                     4.73896   1.20071  -0.0322 
 C                     6.12924  -1.20147   0.03115 
 C                     4.02175  -0.00003   0.00003 
 C                     4.73896  -1.20072   0.03236 
 H                     7.91954   0.00005   0.00019 
 H                     4.19807   2.14545  -0.08115 
 H                     6.66878  -2.14754   0.06341 
 H                     4.19815  -2.1455    0.08126 
 C                     2.53689  -0.00001  -0.00006 
 C                     1.81336  -0.92429  -0.76008 
 C                     1.81326   0.92429   0.75979 
 C                     0.42603  -0.92247  -0.77116 
 C                     0.4259    0.9225    0.77064 
 C                    -0.28834   0.00002  -0.00031 
 H                     2.34757  -1.63866  -1.38605 
 H                     2.34735   1.63867   1.38585 
 H                    -0.11537  -1.63849  -1.38716 
 H                    -0.11557   1.63858   1.3865 
 H                     6.66876   2.14754  -0.06301 
 N                    -1.70438  0.        -0.0005 
 C                    -2.41427   1.22777   0.00404 
 C                    -3.5594    1.38202   0.79211 
 C                    -1.97996   2.30141  -0.78017 
 C                    -4.25737   2.58338   0.78619 
 C                    -2.67353   3.50521  -0.76583 
 C                    -3.81785   3.6535    0.01242 
 H                    -3.90005   0.55124   1.40781 
 H                    -1.09249   2.18558  -1.40008 
 H                    -5.14792   2.68661   1.40537 
 H                    -2.32151   4.33176  -1.38228 
 H                    -4.36318   4.59595   0.01566 
 C                    -2.41424  -1.22779  -0.00441 
 C                    -3.55968  -1.38219  -0.79203 
 C                    -1.97969  -2.30125   0.77987 
 C                    -4.25767  -2.58353  -0.7856 
 C                    -2.67329  -3.50506   0.76603 
 C                    -3.81789  -3.65351  -0.01177 
 H                    -3.90052  -0.55152  -1.40776 
 H                    -1.09201  -2.1853    1.39947 
 H                    -5.14847  -2.68689  -1.4044 
 H                    -2.32101  -4.33148   1.38252 
 H                    -4.36322  -4.59595  -0.01469 
 
 ITRead=  0  0  0  0  0  0  0  0  0  0  0  0  0  0  0  0  0  0  0  0
 ITRead=  0  0  0  0  0  0  0  0  0  0  0  0  0  0  0  0  0  0  0  0
 ITRead=  0  0  0  0
 MicOpt= -1 -1 -1 -1 -1 -1 -1 -1 -1 -1 -1 -1 -1 -1 -1 -1 -1 -1 -1 -1
 MicOpt= -1 -1 -1 -1 -1 -1 -1 -1 -1 -1 -1 -1 -1 -1 -1 -1 -1 -1 -1 -1
 MicOpt= -1 -1 -1 -1
 NAtoms=     44 NQM=       44 NQMF=       0 NMMI=      0 NMMIF=      0
                NMic=       0 NMicF=      0.
                    Isotopes and Nuclear Properties:
 (Nuclear quadrupole moments (NQMom) in fm**2, nuclear magnetic moments (NMagM)
  in nuclear magnetons)

  Atom         1           2           3           4           5           6           7           8           9          10
 IAtWgt=          12          12          12          12          12          12           1           1           1           1
 AtmWgt=  12.0000000  12.0000000  12.0000000  12.0000000  12.0000000  12.0000000   1.0078250   1.0078250   1.0078250   1.0078250
 NucSpn=           0           0           0           0           0           0           1           1           1           1
 AtZEff=  -0.0000000  -0.0000000  -0.0000000  -0.0000000  -0.0000000  -0.0000000  -0.0000000  -0.0000000  -0.0000000  -0.0000000
 NQMom=    0.0000000   0.0000000   0.0000000   0.0000000   0.0000000   0.0000000   0.0000000   0.0000000   0.0000000   0.0000000
 NMagM=    0.0000000   0.0000000   0.0000000   0.0000000   0.0000000   0.0000000   2.7928460   2.7928460   2.7928460   2.7928460
 AtZNuc=   6.0000000   6.0000000   6.0000000   6.0000000   6.0000000   6.0000000   1.0000000   1.0000000   1.0000000   1.0000000

  Atom        11          12          13          14          15          16          17          18          19          20
 IAtWgt=          12          12          12          12          12          12           1           1           1           1
 AtmWgt=  12.0000000  12.0000000  12.0000000  12.0000000  12.0000000  12.0000000   1.0078250   1.0078250   1.0078250   1.0078250
 NucSpn=           0           0           0           0           0           0           1           1           1           1
 AtZEff=  -0.0000000  -0.0000000  -0.0000000  -0.0000000  -0.0000000  -0.0000000  -0.0000000  -0.0000000  -0.0000000  -0.0000000
 NQMom=    0.0000000   0.0000000   0.0000000   0.0000000   0.0000000   0.0000000   0.0000000   0.0000000   0.0000000   0.0000000
 NMagM=    0.0000000   0.0000000   0.0000000   0.0000000   0.0000000   0.0000000   2.7928460   2.7928460   2.7928460   2.7928460
 AtZNuc=   6.0000000   6.0000000   6.0000000   6.0000000   6.0000000   6.0000000   1.0000000   1.0000000   1.0000000   1.0000000

  Atom        21          22          23          24          25          26          27          28          29          30
 IAtWgt=           1          14          12          12          12          12          12          12           1           1
 AtmWgt=   1.0078250  14.0030740  12.0000000  12.0000000  12.0000000  12.0000000  12.0000000  12.0000000   1.0078250   1.0078250
 NucSpn=           1           2           0           0           0           0           0           0           1           1
 AtZEff=  -0.0000000  -0.0000000  -0.0000000  -0.0000000  -0.0000000  -0.0000000  -0.0000000  -0.0000000  -0.0000000  -0.0000000
 NQMom=    0.0000000   2.0440000   0.0000000   0.0000000   0.0000000   0.0000000   0.0000000   0.0000000   0.0000000   0.0000000
 NMagM=    2.7928460   0.4037610   0.0000000   0.0000000   0.0000000   0.0000000   0.0000000   0.0000000   2.7928460   2.7928460
 AtZNuc=   1.0000000   7.0000000   6.0000000   6.0000000   6.0000000   6.0000000   6.0000000   6.0000000   1.0000000   1.0000000

  Atom        31          32          33          34          35          36          37          38          39          40
 IAtWgt=           1           1           1          12          12          12          12          12          12           1
 AtmWgt=   1.0078250   1.0078250   1.0078250  12.0000000  12.0000000  12.0000000  12.0000000  12.0000000  12.0000000   1.0078250
 NucSpn=           1           1           1           0           0           0           0           0           0           1
 AtZEff=  -0.0000000  -0.0000000  -0.0000000  -0.0000000  -0.0000000  -0.0000000  -0.0000000  -0.0000000  -0.0000000  -0.0000000
 NQMom=    0.0000000   0.0000000   0.0000000   0.0000000   0.0000000   0.0000000   0.0000000   0.0000000   0.0000000   0.0000000
 NMagM=    2.7928460   2.7928460   2.7928460   0.0000000   0.0000000   0.0000000   0.0000000   0.0000000   0.0000000   2.7928460
 AtZNuc=   1.0000000   1.0000000   1.0000000   6.0000000   6.0000000   6.0000000   6.0000000   6.0000000   6.0000000   1.0000000

  Atom        41          42          43          44
 IAtWgt=           1           1           1           1
 AtmWgt=   1.0078250   1.0078250   1.0078250   1.0078250
 NucSpn=           1           1           1           1
 AtZEff=  -0.0000000  -0.0000000  -0.0000000  -0.0000000
 NQMom=    0.0000000   0.0000000   0.0000000   0.0000000
 NMagM=    2.7928460   2.7928460   2.7928460   2.7928460
 AtZNuc=   1.0000000   1.0000000   1.0000000   1.0000000
 Leave Link  101 at Sun Jan 17 13:54:58 2021, MaxMem=  4026531840 cpu:               0.7 elap:               0.1
 (Enter /opt/ohpc/pub/libs/gaussian/g16-A.03/sandybridge/g16/l202.exe)
                          Input orientation:                          
 ---------------------------------------------------------------------
 Center     Atomic      Atomic             Coordinates (Angstroms)
 Number     Number       Type             X           Y           Z
 ---------------------------------------------------------------------
      1          6           0        6.129184    1.201496   -0.030856
      2          6           0        6.830271    0.000001    0.000182
      3          6           0        4.738958    1.200713   -0.032197
      4          6           0        6.129235   -1.201473    0.031153
      5          6           0        4.021751   -0.000032    0.000031
      6          6           0        4.738962   -1.200719    0.032361
      7          1           0        7.919539    0.000045    0.000190
      8          1           0        4.198073    2.145454   -0.081149
      9          1           0        6.668779   -2.147537    0.063412
     10          1           0        4.198148   -2.145504    0.081256
     11          6           0        2.536892   -0.000014   -0.000063
     12          6           0        1.813363   -0.924286   -0.760077
     13          6           0        1.813258    0.924290    0.759786
     14          6           0        0.426027   -0.922473   -0.771159
     15          6           0        0.425899    0.922498    0.770636
     16          6           0       -0.288344    0.000018   -0.000311
     17          1           0        2.347573   -1.638662   -1.386050
     18          1           0        2.347350    1.638674    1.385851
     19          1           0       -0.115370   -1.638494   -1.387158
     20          1           0       -0.115571    1.638578    1.386504
     21          1           0        6.668762    2.147543   -0.063006
     22          7           0       -1.704382   -0.000003   -0.000499
     23          6           0       -2.414266    1.227770    0.004035
     24          6           0       -3.559402    1.382015    0.792108
     25          6           0       -1.979956    2.301413   -0.780170
     26          6           0       -4.257371    2.583383    0.786193
     27          6           0       -2.673527    3.505213   -0.765830
     28          6           0       -3.817854    3.653503    0.012423
     29          1           0       -3.900046    0.551242    1.407814
     30          1           0       -1.092486    2.185578   -1.400082
     31          1           0       -5.147916    2.686607    1.405370
     32          1           0       -2.321511    4.331764   -1.382280
     33          1           0       -4.363183    4.595952    0.015664
     34          6           0       -2.414241   -1.227791   -0.004406
     35          6           0       -3.559682   -1.382189   -0.792032
     36          6           0       -1.979686   -2.301249    0.779869
     37          6           0       -4.257673   -2.583532   -0.785597
     38          6           0       -2.673287   -3.505060    0.766028
     39          6           0       -3.817885   -3.653507   -0.011769
     40          1           0       -3.900521   -0.551523   -1.407763
     41          1           0       -1.092008   -2.185299    1.399468
     42          1           0       -5.148466   -2.686887   -1.404399
     43          1           0       -2.321010   -4.331477    1.382521
     44          1           0       -4.363223   -4.595951   -0.014691
 ---------------------------------------------------------------------
                    Distance matrix (angstroms):
                    1          2          3          4          5
     1  C    0.000000
     2  C    1.391430   0.000000
     3  C    1.390227   2.411711   0.000000
     4  C    2.403769   1.391384   2.776217   0.000000
     5  C    2.426087   2.808520   1.399004   2.426091   0.000000
     6  C    2.776212   2.411708   2.402300   1.390274   1.398959
     7  H    2.156344   1.089268   3.399816   2.156338   3.897788
     8  H    2.150064   3.396770   1.089719   3.865737   2.154249
     9  H    3.393534   2.154529   3.865764   1.089580   3.409186
    10  H    3.865731   3.396739   3.391536   2.150070   2.154243
    11  C    3.788025   4.293379   2.508361   3.788061   1.484859
    12  C    4.865904   5.157680   3.688433   4.396547   2.511770
    13  C    4.396496   5.157686   3.043578   4.865946   2.511780
    14  C    6.130685   6.516154   4.863677   5.766119   3.791420
    15  C    5.766081   6.516178   4.395955   6.130753   3.791444
    16  C    6.529100   7.118615   5.168796   6.529157   4.310095
    17  H    4.919718   4.970054   3.951416   4.062089   2.721985
    18  H    4.062075   4.970101   2.814686   4.919786   2.722035
    19  H    6.992822   7.269890   5.784593   6.418542   4.660968
    20  H    6.418482   7.269907   5.076504   6.992887   4.660985
    21  H    1.089579   2.154533   2.149786   3.393503   3.409211
    22  N    7.925230   8.534653   6.554339   7.925282   5.726133
    23  C    8.543562   9.325712   7.153367   8.882194   6.552086
    24  C    9.725151  10.511062   8.341171  10.056001   7.746697
    25  C    8.217630   9.139231   6.849439   8.870594   6.475017
    26  C   10.509886  11.411726   9.138680  11.080470   8.708384
    27  C    9.128802  10.158517   7.797042  10.013825   7.596054
    28  C   10.244890  11.257477   8.901528  11.068682   8.649155
    29  H   10.152736  10.836282   8.782245  10.273932   8.064777
    30  H    7.415910   8.337120   6.070157   8.103937   5.735209
    31  H   11.464785  12.355945  10.100731  12.007488   9.657940
    32  H    9.112583  10.219124   7.840690  10.199491   7.804628
    33  H   11.027886  12.100265   9.714881  11.987544   9.561926
    34  C    8.882131   9.325690   7.554248   8.543591   6.552053
    35  C   10.056289  10.511383   8.724457   9.725503   7.746990
    36  C    8.870190   9.138873   7.619932   8.217340   6.474642
    37  C   11.080743  11.412037   9.789152  10.510234   8.708648
    38  C   10.013500  10.158228   8.816056   9.128579   7.595756
    39  C   11.068677  11.257508   9.837857  10.244975   8.649157
    40  H   10.274431  10.836807   8.922058  10.153271   8.065260
    41  H    8.103198   8.336429   6.893106   7.415292   5.734488
    42  H   12.007978  12.356470  10.712494  11.465331   9.658390
    43  H   10.198882  10.218537   9.080182   9.112067   7.804057
    44  H   11.987546  12.100302  10.791261  11.027976   9.561929
                    6          7          8          9         10
     6  C    0.000000
     7  H    3.399844   0.000000
     8  H    3.391507   4.296360   0.000000
     9  H    2.149796   2.486062   4.955306   0.000000
    10  H    1.089720   4.296359   4.294030   2.470696   0.000000
    11  C    2.508357   5.382647   2.714614   4.657078   2.714684
    12  C    3.043600   6.222361   3.946022   5.074401   2.808276
    13  C    3.688435   6.222370   2.808159   5.787672   3.946104
    14  C    4.395961   7.589383   4.910868   6.416326   4.056022
    15  C    4.863704   7.589410   4.055916   6.992770   4.910982
    16  C    5.168814   8.207883   4.973667   7.281319   4.973784
    17  H    2.814680   5.971083   4.409836   4.586144   2.415472
    18  H    3.951442   5.971135   2.415386   5.895675   4.409923
    19  H    5.076536   8.316809   5.884702   6.956145   4.584729
    20  H    5.784618   8.316829   4.584589   7.881158   5.884821
    21  H    3.865758   2.485998   2.470756   4.296940   4.955300
    22  N    6.554348   9.623921   6.280801   8.644409   6.280901
    23  C    7.554272  10.406481   6.676258   9.690094   7.423541
    24  C    8.724138  11.588920   7.843713  10.844557   8.551508
    25  C    7.620301  10.193393   6.219405   9.762449   7.660685
    26  C    9.788856  12.472713   8.511087  11.928318   9.713656
    27  C    8.816343  11.184187   7.038226  10.950795   8.936894
    28  C    9.837834  12.292856   8.157086  11.984329   9.893913
    29  H    8.921530  11.915864   8.386779  10.990491   8.637878
    30  H    6.893815   9.378375   5.452633   9.008603   6.995959
    31  H   10.711994  13.414564   9.478929  12.837604  10.604315
    32  H    9.080741  11.205093   6.998419  11.175718   9.306067
    33  H   10.791233  13.114414   8.905584  12.929853  10.897152
    34  C    7.153349  10.406470   7.423434   9.129720   6.676318
    35  C    8.341466  11.589249   8.551747  10.292665   7.844056
    36  C    6.849100  10.193062   7.660237   8.679452   6.219160
    37  C    9.138964  12.473044   9.713866  10.968056   8.511417
    38  C    7.796774  11.183927   8.936532   9.466295   7.038034
    39  C    8.901559  12.292913   9.893854  10.594514   8.157175
    40  H    8.782715  11.916391   8.638334  10.789890   8.387276
    41  H    6.069480   9.377723   6.995184   7.875042   5.452065
    42  H   10.101198  13.415112  10.604730  11.920262   9.479423
    43  H    7.840139  11.204542   9.305450   9.344835   6.997942
    44  H    9.714916  13.114482  10.897098  11.300703   8.905671
                   11         12         13         14         15
    11  C    0.000000
    12  C    1.398354   0.000000
    13  C    1.398340   2.393160   0.000000
    14  C    2.429253   1.387381   2.771053   0.000000
    15  C    2.429258   2.771056   1.387403   2.404381   0.000000
    16  C    2.825236   2.418420   2.418420   1.398400   1.398382
    17  H    2.154523   1.089750   3.385089   2.140878   3.860527
    18  H    2.154526   3.385102   1.089750   3.860524   2.140881
    19  H    3.412205   2.150194   3.859642   1.088693   3.392304
    20  H    3.412200   3.859646   2.150201   3.392318   1.088694
    21  H    4.657071   5.787654   5.074372   6.992726   6.416310
    22  N    4.241274   3.715614   3.715662   2.446121   2.446171
    23  C    5.101121   4.805004   4.305255   3.645783   2.957601
    24  C    6.300979   6.049372   5.392220   4.861904   4.011763
    25  C    5.129040   4.979438   4.319306   4.022720   3.177191
    26  C    7.311234   7.179729   6.293316   6.053973   4.969084
    27  C    6.326253   6.304972   5.396286   5.404782   4.317127
    28  C    7.330153   7.298186   6.302109   6.289999   5.103206
    29  H    6.612123   6.286492   5.762026   5.063069   4.388351
    30  H    4.461978   4.304047   3.833957   3.515879   2.934771
    31  H    8.261322   8.135546   7.209749   6.987959   5.880679
    32  H    6.654240   6.716426   5.770237   5.960658   4.879181
    33  H    8.290608   8.320128   7.223797   7.349057   6.082726
    34  C    5.101095   4.305321   4.804913   2.957744   3.645659
    35  C    6.301257   5.392616   6.049502   4.012188   4.861931
    36  C    5.128689   4.319107   4.979049   3.177132   4.022371
    37  C    7.311480   6.293745   7.179779   4.969544   6.053921
    38  C    6.325995   5.396241   6.304623   4.317227   5.404465
    39  C    7.330166   6.302346   7.298034   5.103529   6.289808
    40  H    6.612569   5.762545   6.286777   4.388837   5.063207
    41  H    4.461286   3.833402   4.303406   2.934413   3.515377
    42  H    8.261729   7.210338   8.135717   5.881252   6.987988
    43  H    6.653745   5.769984   6.715881   4.879125   5.960215
    44  H    8.290623   7.224053   8.319964   6.083058   7.348858
                   16         17         18         19         20
    16  C    0.000000
    17  H    3.399059   0.000000
    18  H    3.399047   4.292361   0.000000
    19  H    2.153598   2.462943   4.949182   0.000000
    20  H    2.153598   4.949185   2.462921   4.293297   0.000000
    21  H    7.281285   5.895631   4.586146   7.881110   6.956098
    22  N    1.416038   4.585117   4.585167   2.670662   2.670776
    23  C    2.454982   5.729213   4.975062   3.928843   2.713666
    24  C    3.638360   6.982923   5.942064   5.072872   3.504155
    25  C    2.960769   5.883773   4.884306   4.400907   2.934239
    26  C    4.800577   8.134469   6.698836   6.301101   4.290401
    27  C    4.308307   7.214954   5.772599   5.778230   3.828839
    28  C    5.079917   8.244709   6.629901   6.608513   4.433387
    29  H    3.915489   7.185687   6.341368   5.189469   3.937639
    30  H    2.717108   5.143833   4.460157   3.946954   3.003104
    31  H    5.727926   9.092983   7.568194   7.199391   5.140352
    32  H    4.980726   7.579337   6.059170   6.364830   4.448099
    33  H    6.142245   9.266578   7.460171   7.673340   5.354201
    34  C    2.454989   4.975201   5.729065   2.713943   3.928688
    35  C    3.638540   5.942583   6.982966   3.504733   5.072766
    36  C    2.960599   4.884199   5.883319   2.934438   4.400587
    37  C    4.800727   6.699448   8.134405   4.291113   6.300892
    38  C    4.308225   5.772687   7.214498   3.829258   5.777881
    39  C    5.079964   6.630318   8.244431   4.434026   6.608212
    40  H    3.915730   6.342005   7.185898   3.938185   5.189443
    41  H    2.716775   4.459668   5.143164   3.003015   3.946598
    42  H    5.728150   7.568997   9.093032   5.141156   7.199224
    43  H    4.980543   6.059035   7.578674   4.448385   6.364396
    44  H    6.142294   7.460628   9.266275   5.354855   7.673021
                   21         22         23         24         25
    21  H    0.000000
    22  N    8.644386   0.000000
    23  C    9.129725   1.418232   0.000000
    24  C   10.292356   2.445260   1.398638   0.000000
    25  C    8.679765   2.445474   1.398682   2.410809   0.000000
    26  C   10.967747   3.716251   2.417952   1.389417   2.778420
    27  C    9.466551   3.716384   2.417986   2.778474   1.389381
    28  C   10.594466   4.220786   2.802554   2.415443   2.415413
    29  H   10.789402   2.666113   2.153097   1.088722   3.396633
    30  H    7.875671   2.666461   2.153147   3.396628   1.088720
    31  H   11.919757   4.588275   3.400704   2.145094   3.867936
    32  H    9.345390   4.588504   3.400772   3.867991   2.145116
    33  H   11.300651   5.309641   3.891409   3.402693   3.402651
    34  C    9.690060   1.418231   2.455576   2.959209   3.639463
    35  C   10.844886   2.445220   2.959322   3.185957   4.008067
    36  C    9.762061   2.445506   3.639334   4.007753   4.859858
    37  C   11.928629   3.716221   4.306703   4.324615   5.389871
    38  C   10.950484   3.716418   4.800771   4.966828   6.048683
    39  C   11.984347   4.220795   5.079100   5.105831   6.279291
    40  H   10.991045   2.666007   2.714408   2.948621   3.495953
    41  H    9.007880   2.666539   3.917223   4.379800   5.066543
    42  H   12.838143   4.588245   4.978361   4.889349   5.942411
    43  H   11.175117   4.588534   5.728363   5.875899   6.984897
    44  H   12.929878   5.309649   6.141214   6.085485   7.337544
                   26         27         28         29         30
    26  C    0.000000
    27  C    2.401480   0.000000
    28  C    1.391780   1.391816   0.000000
    29  H    2.154922   3.867172   3.402631   0.000000
    30  H    3.867111   2.154856   3.402588   4.293917   0.000000
    31  H    1.089544   3.392171   2.155053   2.473251   4.956622
    32  H    3.392148   1.089547   2.155058   4.956687   2.473244
    33  H    2.157625   2.157633   1.088855   4.302587   4.302522
    34  C    4.306649   4.800867   5.079118   2.714211   3.917402
    35  C    4.324734   4.967158   5.106074   2.948445   4.380153
    36  C    5.389575   6.048603   6.279085   3.495540   5.066648
    37  C    5.400698   6.291480   6.303244   3.842624   5.756771
    38  C    6.291174   7.175689   7.288551   4.286072   6.290813
    39  C    6.303070   7.288720   7.307050   4.438680   6.591671
    40  H    3.842970   4.286572   4.439145   3.023833   3.921332
    41  H    5.756384   6.290600   6.591338   3.920944   5.190573
    42  H    5.776547   6.698895   6.631626   4.466830   6.339709
    43  H    7.205580   8.133473   8.238787   5.131758   7.191951
    44  H    7.224642   8.309521   8.267506   5.360191   7.655466
                   31         32         33         34         35
    31  H    0.000000
    32  H    4.297220   0.000000
    33  H    2.488511   2.488467   0.000000
    34  C    4.978249   5.728507   6.141234   0.000000
    35  C    4.889393   5.876284   6.085734   1.398652   0.000000
    36  C    5.942023   6.984883   7.337333   1.398656   2.410795
    37  C    5.776438   7.205975   7.224828   2.417961   1.389409
    38  C    6.698454   8.133559   8.309344   2.417980   2.778458
    39  C    6.631313   8.239053   8.267507   2.802565   2.415443
    40  H    4.467124   5.132291   5.360662   2.153086   1.088716
    41  H    6.339234   7.191795   7.655120   2.153134   3.396627
    42  H    6.063764   7.566613   7.461434   3.400725   2.145103
    43  H    7.566070   9.093727   9.259469   3.400754   3.867983
    44  H    7.461097   9.259751   9.191953   3.891419   3.402676
                   36         37         38         39         40
    36  C    0.000000
    37  C    2.778415   0.000000
    38  C    1.389401   2.401465   0.000000
    39  C    2.415423   1.391787   1.391801   0.000000
    40  H    3.396599   2.154927   3.867150   3.402636   0.000000
    41  H    1.088724   3.867109   2.154869   3.402592   4.293893
    42  H    3.867934   1.089546   3.392149   2.155045   2.473289
    43  H    2.145115   3.392154   1.089554   2.155069   4.956671
    44  H    3.402680   2.157607   2.157649   1.088854   4.302574
                   41         42         43         44
    41  H    0.000000
    42  H    4.956623   0.000000
    43  H    2.473219   4.297221   0.000000
    44  H    4.302550   2.488457   2.488530   0.000000
 Stoichiometry    C24H19N
 Framework group  C1[X(C24H19N)]
 Deg. of freedom   126
 Full point group                 C1      NOp   1
 Largest Abelian subgroup         C1      NOp   1
 Largest concise Abelian subgroup C1      NOp   1
                         Standard orientation:                         
 ---------------------------------------------------------------------
 Center     Atomic      Atomic             Coordinates (Angstroms)
 Number     Number       Type             X           Y           Z
 ---------------------------------------------------------------------
      1          6           0       -6.129184    1.201496    0.030856
      2          6           0       -6.830271    0.000001   -0.000182
      3          6           0       -4.738958    1.200713    0.032197
      4          6           0       -6.129235   -1.201473   -0.031153
      5          6           0       -4.021751   -0.000032   -0.000031
      6          6           0       -4.738962   -1.200719   -0.032361
      7          1           0       -7.919539    0.000045   -0.000190
      8          1           0       -4.198073    2.145454    0.081149
      9          1           0       -6.668779   -2.147537   -0.063412
     10          1           0       -4.198148   -2.145504   -0.081256
     11          6           0       -2.536892   -0.000014    0.000063
     12          6           0       -1.813363   -0.924286    0.760077
     13          6           0       -1.813258    0.924290   -0.759786
     14          6           0       -0.426027   -0.922473    0.771159
     15          6           0       -0.425899    0.922498   -0.770636
     16          6           0        0.288344    0.000018    0.000311
     17          1           0       -2.347573   -1.638662    1.386050
     18          1           0       -2.347350    1.638674   -1.385851
     19          1           0        0.115370   -1.638494    1.387158
     20          1           0        0.115571    1.638578   -1.386504
     21          1           0       -6.668762    2.147543    0.063006
     22          7           0        1.704382   -0.000003    0.000499
     23          6           0        2.414266    1.227770   -0.004035
     24          6           0        3.559402    1.382015   -0.792108
     25          6           0        1.979956    2.301413    0.780170
     26          6           0        4.257371    2.583383   -0.786193
     27          6           0        2.673527    3.505213    0.765830
     28          6           0        3.817854    3.653503   -0.012423
     29          1           0        3.900046    0.551242   -1.407814
     30          1           0        1.092486    2.185578    1.400082
     31          1           0        5.147916    2.686607   -1.405370
     32          1           0        2.321511    4.331764    1.382280
     33          1           0        4.363183    4.595952   -0.015664
     34          6           0        2.414241   -1.227791    0.004406
     35          6           0        3.559682   -1.382189    0.792032
     36          6           0        1.979686   -2.301249   -0.779869
     37          6           0        4.257673   -2.583532    0.785597
     38          6           0        2.673287   -3.505060   -0.766028
     39          6           0        3.817885   -3.653507    0.011769
     40          1           0        3.900521   -0.551523    1.407763
     41          1           0        1.092008   -2.185299   -1.399468
     42          1           0        5.148466   -2.686887    1.404399
     43          1           0        2.321010   -4.331477   -1.382521
     44          1           0        4.363223   -4.595951    0.014691
 ---------------------------------------------------------------------
 Rotational constants (GHZ):           0.3772696           0.1165367           0.0926339
 Leave Link  202 at Sun Jan 17 13:54:58 2021, MaxMem=  4026531840 cpu:               0.3 elap:               0.1
 (Enter /opt/ohpc/pub/libs/gaussian/g16-A.03/sandybridge/g16/l301.exe)
 Standard basis: TZVP (5D, 7F)
 Ernie: Thresh=  0.10000D-02 Tol=  0.10000D-05 Strict=F.
 There are   614 symmetry adapted cartesian basis functions of A   symmetry.
 There are   589 symmetry adapted basis functions of A   symmetry.
   589 basis functions,  1027 primitive gaussians,   614 cartesian basis functions
    85 alpha electrons       85 beta electrons
       nuclear repulsion energy      1905.4959532784 Hartrees.
 IExCor=33909 DFT=T Ex+Corr=LC-wHPBE ExCW=0 ScaHFX=  1.000000
 ScaDFX=  1.000000  1.000000  1.000000  1.000000 ScalE2=  1.000000  1.000000
 IRadAn=      5 IRanWt=     -1 IRanGd=            0 ICorTp=0 IEmpDi=  4
 HFx  wShort=  0.000000 wLong=  0.190100 cFull=  0.000000 cShort=  0.000000 cLong=  1.000000
 DFx  wShort=  0.000000 wLong=  0.190100 cFull=  0.000000 cShort=  1.000000 cLong=  0.000000
 NAtoms=   44 NActive=   44 NUniq=   44 SFac= 1.00D+00 NAtFMM=   60 NAOKFM=F Big=F
 Integral buffers will be    131072 words long.
 Raffenetti 2 integral format.
 Two-electron integral symmetry is turned on.
 Leave Link  301 at Sun Jan 17 13:54:58 2021, MaxMem=  4026531840 cpu:               0.3 elap:               0.1
 (Enter /opt/ohpc/pub/libs/gaussian/g16-A.03/sandybridge/g16/l302.exe)
 NPDir=0 NMtPBC=     1 NCelOv=     1 NCel=       1 NClECP=     1 NCelD=      1
         NCelK=      1 NCelE2=     1 NClLst=     1 CellRange=     0.0.
 One-electron integrals computed using PRISM.
 One-electron integral symmetry used in STVInt
 NBasis=   589 RedAO= T EigKep=  7.25D-06  NBF=   589
 NBsUse=   589 1.00D-06 EigRej= -1.00D+00 NBFU=   589
 Precomputing XC quadrature grid using
 IXCGrd= 4 IRadAn=           5 IRanWt=          -1 IRanGd=           0 AccXCQ= 0.00D+00.
 Generated NRdTot=       0 NPtTot=           0 NUsed=           0 NTot=          32
 NSgBfM=   586   586   586   586   586 MxSgAt=    44 MxSgA2=    44.
 Leave Link  302 at Sun Jan 17 13:54:59 2021, MaxMem=  4026531840 cpu:               9.1 elap:               1.2
 (Enter /opt/ohpc/pub/libs/gaussian/g16-A.03/sandybridge/g16/l303.exe)
 DipDrv:  MaxL=1.
 Leave Link  303 at Sun Jan 17 13:54:59 2021, MaxMem=  4026531840 cpu:               0.7 elap:               0.1
 (Enter /opt/ohpc/pub/libs/gaussian/g16-A.03/sandybridge/g16/l401.exe)
 ExpMin= 9.52D-02 ExpMax= 1.97D+04 ExpMxC= 6.73D+02 IAcc=3 IRadAn=         5 AccDes= 0.00D+00
 Harris functional with IExCor=33909 and IRadAn=       5 diagonalized for initial guess.
 HarFok:  IExCor=33909 AccDes= 0.00D+00 IRadAn=         5 IDoV= 1 UseB2=F ITyADJ=14
 ICtDFT=  3500011 ScaDFX=  1.000000  1.000000  1.000000  1.000000
 FoFCou: FMM=F IPFlag=           0 FMFlag=      100000 FMFlg1=           0
         NFxFlg=           0 DoJE=T BraDBF=F KetDBF=T FulRan=T
         wScrn=  0.000000 ICntrl=       500 IOpCl=  0 I1Cent=   200000004 NGrid=           0
         NMat0=    1 NMatS0=      1 NMatT0=    0 NMatD0=    1 NMtDS0=    0 NMtDT0=    0
 Petite list used in FoFCou.
 Harris En= -962.950214555537    
 JPrj=0 DoOrth=F DoCkMO=F.
 Leave Link  401 at Sun Jan 17 13:55:05 2021, MaxMem=  4026531840 cpu:              48.5 elap:               6.1
 (Enter /opt/ohpc/pub/libs/gaussian/g16-A.03/sandybridge/g16/l502.exe)
 Integral symmetry usage will be decided dynamically.
 Closed shell SCF:
 Using DIIS extrapolation, IDIIS=    10.
 NGot=  4026531840 LenX=  4025766914 LenY=  4025389304
 Requested convergence on RMS density matrix=1.00D-06 within  32 cycles.
 Requested convergence on MAX density matrix=1.00D-04.
 Requested convergence on             energy=1.00D-04.
 Virtual orbitals will be shifted by   0.500 hartree.
 No special actions if energy rises.
 Dynamic level shift is on during FON iterations.

 Cycle   1  Pass 1  IDiag  1:
 FoFJK:  IHMeth= 1 ICntrl=       0 DoSepK=T KAlg= 0 I1Cent=           0 FoldK=F
 IRaf=         1 NMat=       1 IRICut=       1 DoRegI=T DoRafI=F ISym2E= 0 IDoP0=0 IntGTp=1.
 FoFCou: FMM=F IPFlag=           0 FMFlag=      100000 FMFlg1=           0
         NFxFlg=           0 DoJE=T BraDBF=F KetDBF=F FulRan=T
         wScrn=  0.000000 ICntrl=       500 IOpCl=  0 I1Cent=           0 NGrid=           0
         NMat0=    1 NMatS0=      1 NMatT0=    0 NMatD0=    1 NMtDS0=    0 NMtDT0=    0
 Symmetry not used in FoFCou.
 E= -979.685575550424    
 DIIS: error= 3.33D-02 at cycle   1 NSaved=   1.
 NSaved= 1 IEnMin= 1 EnMin= -979.685575550424     IErMin= 1 ErrMin= 3.33D-02
 ErrMax= 3.33D-02  0.00D+00 EMaxC= 1.00D+00 BMatC= 4.09D-01 BMatP= 4.09D-01
 IDIUse=1 WtCom= 1.00D+00 WtEn= 0.00D+00
 Coeff-Com:  0.100D+01
 Coeff:      0.100D+01
 Gap=     0.299 Goal=   None    Shift=    0.500
 T= 1559. Gap= 0.750 NK=0 IS=   86 IE=  589 IFin=   85
          NO(<0.9)=   0  NV(>0.1)=   0     85.00e < EF      0.00e >EF  Err=0.0D+00
 GapD=    0.299 DampG=1.000 DampE=0.500 DampFc=0.5000 IDamp=-1.
 Damping current iteration by 5.00D-01
 RMSDP=2.37D-03 MaxDP=9.63D-02              OVMax= 7.86D-02

 Cycle   2  Pass 1  IDiag  1:
 E= -979.945934536728     Delta-E=       -0.260358986304 Rises=F Damp=T
 DIIS: error= 1.55D-02 at cycle   2 NSaved=   2.
 NSaved= 2 IEnMin= 2 EnMin= -979.945934536728     IErMin= 2 ErrMin= 1.55D-02
 ErrMax= 1.55D-02  0.00D+00 EMaxC= 1.00D+00 BMatC= 7.17D-02 BMatP= 4.09D-01
 IDIUse=1 WtCom= 1.00D+00 WtEn= 0.00D+00
 Coeff-Com: -0.578D+00 0.158D+01
 Coeff:     -0.578D+00 0.158D+01
 Gap=     0.278 Goal=   None    Shift=    0.500
 T= 1441. Gap= 0.747 NK=0 IS=   86 IE=  589 IFin=   85
          NO(<0.9)=   0  NV(>0.1)=   0     85.00e < EF      0.00e >EF  Err=0.0D+00
 GapD=    0.278 DampG=1.000 DampE=0.500 DampFc=0.5000 IDamp=-1.
 Damping current iteration by 5.00D-01
 RMSDP=1.39D-03 MaxDP=6.74D-02 DE=-2.60D-01 OVMax= 1.99D-02

 Cycle   3  Pass 1  IDiag  1:
 E= -980.036084118825     Delta-E=       -0.090149582097 Rises=F Damp=T
 DIIS: error= 7.20D-03 at cycle   3 NSaved=   3.
 NSaved= 3 IEnMin= 3 EnMin= -980.036084118825     IErMin= 3 ErrMin= 7.20D-03
 ErrMax= 7.20D-03  0.00D+00 EMaxC= 1.00D+00 BMatC= 1.40D-02 BMatP= 7.17D-02
 IDIUse=1 WtCom= 1.00D+00 WtEn= 0.00D+00
 Coeff-Com:  0.414D-01-0.861D+00 0.182D+01
 Coeff:      0.414D-01-0.861D+00 0.182D+01
 Gap=     0.263 Goal=   None    Shift=    0.500
 T= 1211. Gap= 0.760 NK=0 IS=   86 IE=  589 IFin=   85
          NO(<0.9)=   0  NV(>0.1)=   0     85.00e < EF      0.00e >EF  Err=0.0D+00
 GapD=    0.263 DampG=1.000 DampE=1.000 DampFc=1.0000 IDamp=-1.
 RMSDP=7.46D-04 MaxDP=3.91D-02 DE=-9.01D-02 OVMax= 1.17D-02

 Cycle   4  Pass 1  IDiag  1:
 E= -980.110924486117     Delta-E=       -0.074840367292 Rises=F Damp=F
 DIIS: error= 1.08D-03 at cycle   4 NSaved=   4.
 NSaved= 4 IEnMin= 4 EnMin= -980.110924486117     IErMin= 4 ErrMin= 1.08D-03
 ErrMax= 1.08D-03  0.00D+00 EMaxC= 1.00D+00 BMatC= 5.57D-04 BMatP= 1.40D-02
 IDIUse=1 WtCom= 1.00D+00 WtEn= 0.00D+00
 Coeff-Com:  0.793D-01-0.239D+00 0.229D+00 0.931D+00
 Coeff:      0.793D-01-0.239D+00 0.229D+00 0.931D+00
 Gap=     0.258 Goal=   None    Shift=    0.500
 T=  697. Gap= 0.757 NK=0 IS=   86 IE=  589 IFin=   85
          NO(<0.9)=   0  NV(>0.1)=   0     85.00e < EF      0.00e >EF  Err=0.0D+00
 GapD=    0.258 DampG=1.000 DampE=1.000 DampFc=1.0000 IDamp=-1.
 RMSDP=1.62D-04 MaxDP=6.89D-03 DE=-7.48D-02 OVMax= 5.85D-03

 Cycle   5  Pass 1  IDiag  1:
 E= -980.111544356631     Delta-E=       -0.000619870514 Rises=F Damp=F
 DIIS: error= 5.09D-04 at cycle   5 NSaved=   5.
 NSaved= 5 IEnMin= 5 EnMin= -980.111544356631     IErMin= 5 ErrMin= 5.09D-04
 ErrMax= 5.09D-04  0.00D+00 EMaxC= 1.00D+00 BMatC= 8.49D-05 BMatP= 5.57D-04
 IDIUse=1 WtCom= 1.00D+00 WtEn= 0.00D+00
 Coeff-Com:  0.162D-01 0.216D-02-0.719D-01-0.195D+00 0.125D+01
 Coeff:      0.162D-01 0.216D-02-0.719D-01-0.195D+00 0.125D+01
 Gap=     0.258 Goal=   None    Shift=    0.500
 RMSDP=1.21D-04 MaxDP=4.90D-03 DE=-6.20D-04 OVMax= 4.62D-03

 Cycle   6  Pass 1  IDiag  1:
 E= -980.111710891162     Delta-E=       -0.000166534530 Rises=F Damp=F
 DIIS: error= 4.68D-04 at cycle   6 NSaved=   6.
 NSaved= 6 IEnMin= 6 EnMin= -980.111710891162     IErMin= 6 ErrMin= 4.68D-04
 ErrMax= 4.68D-04  0.00D+00 EMaxC= 1.00D+00 BMatC= 1.86D-05 BMatP= 8.49D-05
 IDIUse=1 WtCom= 1.00D+00 WtEn= 0.00D+00
 Coeff-Com: -0.110D-01 0.448D-01-0.605D-01-0.241D+00 0.749D-01 0.119D+01
 Coeff:     -0.110D-01 0.448D-01-0.605D-01-0.241D+00 0.749D-01 0.119D+01
 Gap=     0.258 Goal=   None    Shift=    0.500
 RMSDP=7.38D-05 MaxDP=3.32D-03 DE=-1.67D-04 OVMax= 3.87D-03

 Cycle   7  Pass 1  IDiag  1:
 E= -980.111772028789     Delta-E=       -0.000061137627 Rises=F Damp=F
 DIIS: error= 3.23D-04 at cycle   7 NSaved=   7.
 NSaved= 7 IEnMin= 7 EnMin= -980.111772028789     IErMin= 7 ErrMin= 3.23D-04
 ErrMax= 3.23D-04  0.00D+00 EMaxC= 1.00D+00 BMatC= 6.10D-06 BMatP= 1.86D-05
 IDIUse=1 WtCom= 1.00D+00 WtEn= 0.00D+00
 Coeff-Com: -0.637D-02 0.546D-02 0.978D-02 0.360D-01-0.362D+00-0.470D+00
 Coeff-Com:  0.179D+01
 Coeff:     -0.637D-02 0.546D-02 0.978D-02 0.360D-01-0.362D+00-0.470D+00
 Coeff:      0.179D+01
 Gap=     0.258 Goal=   None    Shift=    0.500
 RMSDP=4.31D-05 MaxDP=1.86D-03 DE=-6.11D-05 OVMax= 3.05D-03

 Cycle   8  Pass 1  IDiag  1:
 E= -980.111800568129     Delta-E=       -0.000028539341 Rises=F Damp=F
 DIIS: error= 2.26D-04 at cycle   8 NSaved=   8.
 NSaved= 8 IEnMin= 8 EnMin= -980.111800568129     IErMin= 8 ErrMin= 2.26D-04
 ErrMax= 2.26D-04  0.00D+00 EMaxC= 1.00D+00 BMatC= 2.53D-06 BMatP= 6.10D-06
 IDIUse=1 WtCom= 1.00D+00 WtEn= 0.00D+00
 Coeff-Com:  0.238D-02-0.692D-02 0.598D-02 0.849D-01-0.485D-01-0.455D+00
 Coeff-Com: -0.681D+00 0.210D+01
 Coeff:      0.238D-02-0.692D-02 0.598D-02 0.849D-01-0.485D-01-0.455D+00
 Coeff:     -0.681D+00 0.210D+01
 Gap=     0.258 Goal=   None    Shift=    0.500
 RMSDP=2.04D-05 MaxDP=8.33D-04 DE=-2.85D-05 OVMax= 2.29D-03

 Cycle   9  Pass 1  IDiag  1:
 E= -980.111813899402     Delta-E=       -0.000013331272 Rises=F Damp=F
 DIIS: error= 1.56D-04 at cycle   9 NSaved=   9.
 NSaved= 9 IEnMin= 9 EnMin= -980.111813899402     IErMin= 9 ErrMin= 1.56D-04
 ErrMax= 1.56D-04  0.00D+00 EMaxC= 1.00D+00 BMatC= 1.15D-06 BMatP= 2.53D-06
 IDIUse=1 WtCom= 1.00D+00 WtEn= 0.00D+00
 Coeff-Com:  0.212D-02 0.238D-02-0.117D-01 0.384D-01 0.103D+00-0.125D+00
 Coeff-Com: -0.921D+00 0.353D+00 0.156D+01
 Coeff:      0.212D-02 0.238D-02-0.117D-01 0.384D-01 0.103D+00-0.125D+00
 Coeff:     -0.921D+00 0.353D+00 0.156D+01
 Gap=     0.258 Goal=   None    Shift=    0.500
 RMSDP=9.05D-06 MaxDP=3.50D-04 DE=-1.33D-05 OVMax= 1.60D-03

 Cycle  10  Pass 1  IDiag  1:
 E= -980.111819816126     Delta-E=       -0.000005916725 Rises=F Damp=F
 DIIS: error= 1.02D-04 at cycle  10 NSaved=  10.
 NSaved=10 IEnMin=10 EnMin= -980.111819816126     IErMin=10 ErrMin= 1.02D-04
 ErrMax= 1.02D-04  0.00D+00 EMaxC= 1.00D+00 BMatC= 5.19D-07 BMatP= 1.15D-06
 IDIUse=1 WtCom= 1.00D+00 WtEn= 0.00D+00
 Coeff-Com: -0.775D-03 0.903D-02-0.150D-01-0.460D-02 0.675D-01 0.754D-01
 Coeff-Com: -0.126D+00-0.714D+00-0.250D+00 0.196D+01
 Coeff:     -0.775D-03 0.903D-02-0.150D-01-0.460D-02 0.675D-01 0.754D-01
 Coeff:     -0.126D+00-0.714D+00-0.250D+00 0.196D+01
 Gap=     0.258 Goal=   None    Shift=    0.500
 RMSDP=4.88D-06 MaxDP=1.46D-04 DE=-5.92D-06 OVMax= 1.11D-03

 Cycle  11  Pass 1  IDiag  1:
 E= -980.111822414895     Delta-E=       -0.000002598768 Rises=F Damp=F
 DIIS: error= 6.86D-05 at cycle  11 NSaved=  11.
 NSaved=11 IEnMin=11 EnMin= -980.111822414895     IErMin=11 ErrMin= 6.86D-05
 ErrMax= 6.86D-05  0.00D+00 EMaxC= 1.00D+00 BMatC= 2.38D-07 BMatP= 5.19D-07
 IDIUse=1 WtCom= 1.00D+00 WtEn= 0.00D+00
 Coeff-Com: -0.107D-02 0.429D-02-0.464D-02-0.214D-02-0.129D-01 0.361D-01
 Coeff-Com:  0.195D+00-0.235D+00-0.753D+00-0.224D+00 0.200D+01
 Coeff:     -0.107D-02 0.429D-02-0.464D-02-0.214D-02-0.129D-01 0.361D-01
 Coeff:      0.195D+00-0.235D+00-0.753D+00-0.224D+00 0.200D+01
 Gap=     0.258 Goal=   None    Shift=    0.500
 RMSDP=3.10D-06 MaxDP=9.15D-05 DE=-2.60D-06 OVMax= 7.33D-04

 Cycle  12  Pass 1  IDiag  1:
 E= -980.111823508356     Delta-E=       -0.000001093461 Rises=F Damp=F
 DIIS: error= 4.76D-05 at cycle  12 NSaved=  12.
 NSaved=12 IEnMin=12 EnMin= -980.111823508356     IErMin=12 ErrMin= 4.76D-05
 ErrMax= 4.76D-05  0.00D+00 EMaxC= 1.00D+00 BMatC= 1.11D-07 BMatP= 2.38D-07
 IDIUse=1 WtCom= 1.00D+00 WtEn= 0.00D+00
 Coeff-Com: -0.460D-03 0.703D-03 0.322D-03 0.429D-02-0.298D-01-0.516D-02
 Coeff-Com:  0.129D+00 0.156D+00-0.474D+00-0.819D+00 0.538D+00 0.150D+01
 Coeff:     -0.460D-03 0.703D-03 0.322D-03 0.429D-02-0.298D-01-0.516D-02
 Coeff:      0.129D+00 0.156D+00-0.474D+00-0.819D+00 0.538D+00 0.150D+01
 Gap=     0.258 Goal=   None    Shift=    0.500
 RMSDP=1.84D-06 MaxDP=5.60D-05 DE=-1.09D-06 OVMax= 4.82D-04

 Cycle  13  Pass 1  IDiag  1:
 E= -980.111823966113     Delta-E=       -0.000000457757 Rises=F Damp=F
 DIIS: error= 3.25D-05 at cycle  13 NSaved=  13.
 NSaved=13 IEnMin=13 EnMin= -980.111823966113     IErMin=13 ErrMin= 3.25D-05
 ErrMax= 3.25D-05  0.00D+00 EMaxC= 1.00D+00 BMatC= 4.88D-08 BMatP= 1.11D-07
 IDIUse=1 WtCom= 1.00D+00 WtEn= 0.00D+00
 Coeff-Com:  0.222D-03-0.337D-03-0.986D-04 0.454D-02 0.328D-03-0.151D-01
 Coeff-Com: -0.850D-01 0.187D+00 0.152D+00-0.633D-01-0.977D+00-0.722D+00
 Coeff-Com:  0.252D+01
 Coeff:      0.222D-03-0.337D-03-0.986D-04 0.454D-02 0.328D-03-0.151D-01
 Coeff:     -0.850D-01 0.187D+00 0.152D+00-0.633D-01-0.977D+00-0.722D+00
 Coeff:      0.252D+01
 Gap=     0.258 Goal=   None    Shift=    0.500
 RMSDP=1.16D-06 MaxDP=3.47D-05 DE=-4.58D-07 OVMax= 3.11D-04

 Cycle  14  Pass 1  IDiag  1:
 E= -980.111824154761     Delta-E=       -0.000000188648 Rises=F Damp=F
 DIIS: error= 2.23D-05 at cycle  14 NSaved=  14.
 NSaved=14 IEnMin=14 EnMin= -980.111824154761     IErMin=14 ErrMin= 2.23D-05
 ErrMax= 2.23D-05  0.00D+00 EMaxC= 1.00D+00 BMatC= 2.30D-08 BMatP= 4.88D-08
 IDIUse=1 WtCom= 1.00D+00 WtEn= 0.00D+00
 Coeff-Com:  0.223D-03-0.203D-03-0.396D-03 0.271D-02 0.499D-02-0.849D-02
 Coeff-Com: -0.818D-01 0.112D+00 0.195D+00 0.888D-01-0.853D+00-0.797D+00
 Coeff-Com:  0.121D+01 0.112D+01
 Coeff:      0.223D-03-0.203D-03-0.396D-03 0.271D-02 0.499D-02-0.849D-02
 Coeff:     -0.818D-01 0.112D+00 0.195D+00 0.888D-01-0.853D+00-0.797D+00
 Coeff:      0.121D+01 0.112D+01
 Gap=     0.258 Goal=   None    Shift=    0.500
 RMSDP=7.11D-07 MaxDP=2.22D-05 DE=-1.89D-07 OVMax= 2.03D-04

 SCF Done:  E(RLC-wHPBE) =  -980.111824155     A.U. after   14 cycles
            NFock= 14  Conv=0.71D-06     -V/T= 2.0049
 KE= 9.753799106757D+02 PE=-6.086274048050D+03 EE= 2.225286359941D+03
 Leave Link  502 at Sun Jan 17 14:04:39 2021, MaxMem=  4026531840 cpu:            4579.0 elap:             574.0
 (Enter /opt/ohpc/pub/libs/gaussian/g16-A.03/sandybridge/g16/l508.exe)
 QCSCF skips out because SCF is already converged.
 Leave Link  508 at Sun Jan 17 14:04:39 2021, MaxMem=  4026531840 cpu:               0.1 elap:               0.0
 (Enter /opt/ohpc/pub/libs/gaussian/g16-A.03/sandybridge/g16/l601.exe)
 Copying SCF densities to generalized density rwf, IOpCl= 0 IROHF=0.

 **********************************************************************

            Population analysis using the SCF density.

 **********************************************************************

 Orbital symmetries:
       Occupied  (A) (A) (A) (A) (A) (A) (A) (A) (A) (A) (A) (A)
                 (A) (A) (A) (A) (A) (A) (A) (A) (A) (A) (A) (A)
                 (A) (A) (A) (A) (A) (A) (A) (A) (A) (A) (A) (A)
                 (A) (A) (A) (A) (A) (A) (A) (A) (A) (A) (A) (A)
                 (A) (A) (A) (A) (A) (A) (A) (A) (A) (A) (A) (A)
                 (A) (A) (A) (A) (A) (A) (A) (A) (A) (A) (A) (A)
                 (A) (A) (A) (A) (A) (A) (A) (A) (A) (A) (A) (A)
                 (A)
       Virtual   (A) (A) (A) (A) (A) (A) (A) (A) (A) (A) (A) (A)
                 (A) (A) (A) (A) (A) (A) (A) (A) (A) (A) (A) (A)
                 (A) (A) (A) (A) (A) (A) (A) (A) (A) (A) (A) (A)
                 (A) (A) (A) (A) (A) (A) (A) (A) (A) (A) (A) (A)
                 (A) (A) (A) (A) (A) (A) (A) (A) (A) (A) (A) (A)
                 (A) (A) (A) (A) (A) (A) (A) (A) (A) (A) (A) (A)
                 (A) (A) (A) (A) (A) (A) (A) (A) (A) (A) (A) (A)
                 (A) (A) (A) (A) (A) (A) (A) (A) (A) (A) (A) (A)
                 (A) (A) (A) (A) (A) (A) (A) (A) (A) (A) (A) (A)
                 (A) (A) (A) (A) (A) (A) (A) (A) (A) (A) (A) (A)
                 (A) (A) (A) (A) (A) (A) (A) (A) (A) (A) (A) (A)
                 (A) (A) (A) (A) (A) (A) (A) (A) (A) (A) (A) (A)
                 (A) (A) (A) (A) (A) (A) (A) (A) (A) (A) (A) (A)
                 (A) (A) (A) (A) (A) (A) (A) (A) (A) (A) (A) (A)
                 (A) (A) (A) (A) (A) (A) (A) (A) (A) (A) (A) (A)
                 (A) (A) (A) (A) (A) (A) (A) (A) (A) (A) (A) (A)
                 (A) (A) (A) (A) (A) (A) (A) (A) (A) (A) (A) (A)
                 (A) (A) (A) (A) (A) (A) (A) (A) (A) (A) (A) (A)
                 (A) (A) (A) (A) (A) (A) (A) (A) (A) (A) (A) (A)
                 (A) (A) (A) (A) (A) (A) (A) (A) (A) (A) (A) (A)
                 (A) (A) (A) (A) (A) (A) (A) (A) (A) (A) (A) (A)
                 (A) (A) (A) (A) (A) (A) (A) (A) (A) (A) (A) (A)
                 (A) (A) (A) (A) (A) (A) (A) (A) (A) (A) (A) (A)
                 (A) (A) (A) (A) (A) (A) (A) (A) (A) (A) (A) (A)
                 (A) (A) (A) (A) (A) (A) (A) (A) (A) (A) (A) (A)
                 (A) (A) (A) (A) (A) (A) (A) (A) (A) (A) (A) (A)
                 (A) (A) (A) (A) (A) (A) (A) (A) (A) (A) (A) (A)
                 (A) (A) (A) (A) (A) (A) (A) (A) (A) (A) (A) (A)
                 (A) (A) (A) (A) (A) (A) (A) (A) (A) (A) (A) (A)
                 (A) (A) (A) (A) (A) (A) (A) (A) (A) (A) (A) (A)
                 (A) (A) (A) (A) (A) (A) (A) (A) (A) (A) (A) (A)
                 (A) (A) (A) (A) (A) (A) (A) (A) (A) (A) (A) (A)
                 (A) (A) (A) (A) (A) (A) (A) (A) (A) (A) (A) (A)
                 (A) (A) (A) (A) (A) (A) (A) (A) (A) (A) (A) (A)
                 (A) (A) (A) (A) (A) (A) (A) (A) (A) (A) (A) (A)
                 (A) (A) (A) (A) (A) (A) (A) (A) (A) (A) (A) (A)
                 (A) (A) (A) (A) (A) (A) (A) (A) (A) (A) (A) (A)
                 (A) (A) (A) (A) (A) (A) (A) (A) (A) (A) (A) (A)
                 (A) (A) (A) (A) (A) (A) (A) (A) (A) (A) (A) (A)
                 (A) (A) (A) (A) (A) (A) (A) (A) (A) (A) (A) (A)
                 (A) (A) (A) (A) (A) (A) (A) (A) (A) (A) (A) (A)
                 (A) (A) (A) (A) (A) (A) (A) (A) (A) (A) (A) (A)
 The electronic state is 1-A.
 Alpha  occ. eigenvalues --  -14.12819 -10.03765 -10.03763 -10.03744 -10.00624
 Alpha  occ. eigenvalues --  -10.00336  -9.99727  -9.99727  -9.99723  -9.99723
 Alpha  occ. eigenvalues --   -9.99715  -9.99712  -9.99545  -9.99541  -9.99488
 Alpha  occ. eigenvalues --   -9.99487  -9.99456  -9.99456  -9.99448  -9.99448
 Alpha  occ. eigenvalues --   -9.99448  -9.99448  -9.99415  -9.99261  -9.99260
 Alpha  occ. eigenvalues --   -1.00172  -0.90684  -0.89680  -0.89075  -0.87657
 Alpha  occ. eigenvalues --   -0.82005  -0.80298  -0.79163  -0.79064  -0.78722
 Alpha  occ. eigenvalues --   -0.78395  -0.77706  -0.74642  -0.68436  -0.68033
 Alpha  occ. eigenvalues --   -0.66334  -0.65562  -0.65236  -0.64097  -0.63628
 Alpha  occ. eigenvalues --   -0.62004  -0.59337  -0.59191  -0.57715  -0.55026
 Alpha  occ. eigenvalues --   -0.53640  -0.52798  -0.52667  -0.51252  -0.50684
 Alpha  occ. eigenvalues --   -0.49776  -0.49530  -0.49318  -0.48638  -0.48391
 Alpha  occ. eigenvalues --   -0.47885  -0.47677  -0.47536  -0.47145  -0.44422
 Alpha  occ. eigenvalues --   -0.44115  -0.43992  -0.43743  -0.43236  -0.41859
 Alpha  occ. eigenvalues --   -0.41269  -0.40857  -0.40077  -0.39837  -0.39315
 Alpha  occ. eigenvalues --   -0.39107  -0.37366  -0.34268  -0.33025  -0.32998
 Alpha  occ. eigenvalues --   -0.32091  -0.31942  -0.31811  -0.30272  -0.24637
 Alpha virt. eigenvalues --    0.01205   0.02381   0.02774   0.04029   0.04742
 Alpha virt. eigenvalues --    0.04798   0.05338   0.08315   0.10405   0.11153
 Alpha virt. eigenvalues --    0.11317   0.12093   0.13031   0.13615   0.14090
 Alpha virt. eigenvalues --    0.14177   0.14624   0.15136   0.15512   0.16532
 Alpha virt. eigenvalues --    0.16624   0.16664   0.16962   0.17618   0.17716
 Alpha virt. eigenvalues --    0.18376   0.18484   0.18877   0.19249   0.20636
 Alpha virt. eigenvalues --    0.20662   0.21468   0.21947   0.23594   0.24564
 Alpha virt. eigenvalues --    0.24612   0.24767   0.25551   0.25574   0.26148
 Alpha virt. eigenvalues --    0.26410   0.26583   0.27260   0.27439   0.27916
 Alpha virt. eigenvalues --    0.28055   0.28388   0.28854   0.29059   0.29406
 Alpha virt. eigenvalues --    0.29416   0.29666   0.29903   0.30074   0.30508
 Alpha virt. eigenvalues --    0.30893   0.31097   0.31361   0.32253   0.32289
 Alpha virt. eigenvalues --    0.33066   0.33241   0.33458   0.33817   0.33849
 Alpha virt. eigenvalues --    0.34797   0.34896   0.35837   0.36296   0.36672
 Alpha virt. eigenvalues --    0.37123   0.37895   0.38174   0.38276   0.38374
 Alpha virt. eigenvalues --    0.39226   0.39623   0.39687   0.40545   0.40816
 Alpha virt. eigenvalues --    0.41967   0.41981   0.42341   0.42692   0.43315
 Alpha virt. eigenvalues --    0.43490   0.43917   0.43925   0.43992   0.44403
 Alpha virt. eigenvalues --    0.44724   0.44766   0.45492   0.45697   0.46314
 Alpha virt. eigenvalues --    0.46512   0.46787   0.47586   0.47993   0.48007
 Alpha virt. eigenvalues --    0.48204   0.48363   0.48609   0.48779   0.48979
 Alpha virt. eigenvalues --    0.49776   0.49912   0.50095   0.50625   0.51135
 Alpha virt. eigenvalues --    0.51327   0.52207   0.52505   0.52508   0.53725
 Alpha virt. eigenvalues --    0.53805   0.54331   0.54777   0.55195   0.55457
 Alpha virt. eigenvalues --    0.55532   0.55651   0.55984   0.56659   0.56698
 Alpha virt. eigenvalues --    0.56972   0.57580   0.58265   0.58731   0.59457
 Alpha virt. eigenvalues --    0.60405   0.61015   0.61126   0.61581   0.62846
 Alpha virt. eigenvalues --    0.63404   0.63537   0.65458   0.66477   0.66606
 Alpha virt. eigenvalues --    0.67260   0.68128   0.68412   0.69025   0.71183
 Alpha virt. eigenvalues --    0.71532   0.72055   0.72509   0.72954   0.73936
 Alpha virt. eigenvalues --    0.74623   0.74663   0.74722   0.75064   0.75414
 Alpha virt. eigenvalues --    0.75810   0.75840   0.77289   0.77697   0.78265
 Alpha virt. eigenvalues --    0.78505   0.81216   0.81443   0.81549   0.81910
 Alpha virt. eigenvalues --    0.82281   0.83432   0.85040   0.87042   0.87954
 Alpha virt. eigenvalues --    0.90099   0.90573   0.90686   0.91164   0.94678
 Alpha virt. eigenvalues --    0.96678   0.97174   0.99748   1.16664   1.19259
 Alpha virt. eigenvalues --    1.20182   1.23705   1.23785   1.25230   1.25310
 Alpha virt. eigenvalues --    1.26991   1.27207   1.27408   1.27887   1.28269
 Alpha virt. eigenvalues --    1.28380   1.29708   1.30031   1.30469   1.30775
 Alpha virt. eigenvalues --    1.30973   1.31391   1.31478   1.31761   1.32446
 Alpha virt. eigenvalues --    1.32483   1.32838   1.33865   1.33974   1.34353
 Alpha virt. eigenvalues --    1.34848   1.35112   1.35194   1.35440   1.35741
 Alpha virt. eigenvalues --    1.35941   1.37081   1.37320   1.37812   1.37818
 Alpha virt. eigenvalues --    1.38569   1.39377   1.39863   1.44949   1.45174
 Alpha virt. eigenvalues --    1.45756   1.45842   1.46259   1.46993   1.47219
 Alpha virt. eigenvalues --    1.47459   1.47498   1.47638   1.47992   1.48055
 Alpha virt. eigenvalues --    1.48215   1.48536   1.49353   1.49870   1.50303
 Alpha virt. eigenvalues --    1.50309   1.50609   1.50963   1.51200   1.51354
 Alpha virt. eigenvalues --    1.51394   1.51830   1.52512   1.52813   1.53145
 Alpha virt. eigenvalues --    1.53571   1.54707   1.54893   1.55092   1.55696
 Alpha virt. eigenvalues --    1.56512   1.57072   1.57474   1.57753   1.58088
 Alpha virt. eigenvalues --    1.58092   1.58443   1.58760   1.59344   1.59537
 Alpha virt. eigenvalues --    1.59953   1.60490   1.60599   1.61106   1.61524
 Alpha virt. eigenvalues --    1.61820   1.61924   1.63492   1.63925   1.64420
 Alpha virt. eigenvalues --    1.65547   1.67957   1.69899   1.70224   1.70437
 Alpha virt. eigenvalues --    1.70649   1.71159   1.73641   1.74636   1.77735
 Alpha virt. eigenvalues --    1.79372   1.79809   1.79833   1.80052   1.80243
 Alpha virt. eigenvalues --    1.80345   1.81200   1.81249   1.81487   1.82411
 Alpha virt. eigenvalues --    1.82597   1.82641   1.83887   1.84010   1.84546
 Alpha virt. eigenvalues --    1.85004   1.85258   1.85746   1.85773   1.87730
 Alpha virt. eigenvalues --    1.88750   1.90243   1.90570   1.91091   1.91303
 Alpha virt. eigenvalues --    1.91558   1.92037   1.92043   1.93191   1.93933
 Alpha virt. eigenvalues --    1.94074   1.94124   1.94803   1.94961   1.95106
 Alpha virt. eigenvalues --    1.95402   1.95644   1.95995   1.96372   1.96603
 Alpha virt. eigenvalues --    1.96611   1.97695   1.97845   1.99829   1.99873
 Alpha virt. eigenvalues --    2.00481   2.00550   2.01229   2.02939   2.03021
 Alpha virt. eigenvalues --    2.03663   2.03758   2.04852   2.05810   2.06630
 Alpha virt. eigenvalues --    2.07163   2.07762   2.10429   2.11572   2.12829
 Alpha virt. eigenvalues --    2.14585   2.14944   2.15559   2.18027   2.22252
 Alpha virt. eigenvalues --    2.22523   2.24991   2.26122   2.27181   2.28860
 Alpha virt. eigenvalues --    2.29342   2.30627   2.31500   2.32185   2.32943
 Alpha virt. eigenvalues --    2.33200   2.33948   2.34128   2.34322   2.34397
 Alpha virt. eigenvalues --    2.34989   2.35926   2.36776   2.36798   2.37528
 Alpha virt. eigenvalues --    2.37674   2.37959   2.38440   2.38444   2.39391
 Alpha virt. eigenvalues --    2.39544   2.39641   2.39821   2.40074   2.40888
 Alpha virt. eigenvalues --    2.41130   2.44043   2.48327   2.48721   2.49267
 Alpha virt. eigenvalues --    2.52155   2.52159   2.52837   2.52934   2.54234
 Alpha virt. eigenvalues --    2.54364   2.54649   2.55205   2.55744   2.56074
 Alpha virt. eigenvalues --    2.58328   2.58348   2.58626   2.61693   2.62959
 Alpha virt. eigenvalues --    2.65061   2.65268   2.66272   2.66707   2.67051
 Alpha virt. eigenvalues --    2.67351   2.67395   2.68010   2.68703   2.68993
 Alpha virt. eigenvalues --    2.69965   2.70343   2.70587   2.70651   2.72364
 Alpha virt. eigenvalues --    2.74408   2.76864   2.76926   2.78632   2.79304
 Alpha virt. eigenvalues --    2.80234   2.80911   2.81918   2.83068   2.84250
 Alpha virt. eigenvalues --    2.84699   2.86402   2.87312   2.87973   2.87976
 Alpha virt. eigenvalues --    2.92779   2.98930   2.99541   3.00451   3.00864
 Alpha virt. eigenvalues --    3.01757   3.03922   3.04568   3.04806   3.06020
 Alpha virt. eigenvalues --    3.06048   3.06130   3.07126   3.07921   3.09102
 Alpha virt. eigenvalues --    3.10473   3.11513   3.12879   3.13230   3.14647
 Alpha virt. eigenvalues --    3.15896   3.16514   3.17469   3.18364   3.20036
 Alpha virt. eigenvalues --    3.20780   3.20950   3.21241   3.22351   3.23306
 Alpha virt. eigenvalues --    3.24036   3.25869   3.26561   3.30548   3.30767
 Alpha virt. eigenvalues --    3.33641   3.35078   3.35774   3.38708   3.40107
 Alpha virt. eigenvalues --    3.42290   3.43010   3.43453   3.48399   3.54869
 Alpha virt. eigenvalues --    3.56075   3.57450   3.60128   3.61002   3.63383
 Alpha virt. eigenvalues --    3.78730   3.84425   3.93537   3.94356  21.10341
 Alpha virt. eigenvalues --   21.21111  21.22863  21.33651  21.62773  21.68557
 Alpha virt. eigenvalues --   21.68873  21.71736  21.73975  21.74787  21.80816
 Alpha virt. eigenvalues --   21.85940  21.91092  21.93710  21.95807  21.96086
 Alpha virt. eigenvalues --   21.98010  21.99593  22.03188  22.04154  22.08202
 Alpha virt. eigenvalues --   22.09955  22.15039  22.15853  32.05137
          Condensed to atoms (all electrons):
               1          2          3          4          5          6
     1  C    5.020078   0.452076   0.371917  -0.000441   0.006719  -0.113120
     2  C    0.452076   5.003804  -0.014658   0.452108  -0.083809  -0.014665
     3  C    0.371917  -0.014658   5.217824  -0.113123   0.404033  -0.041246
     4  C   -0.000441   0.452108  -0.113123   5.020074   0.006727   0.371891
     5  C    0.006719  -0.083809   0.404033   0.006727   5.412036   0.404046
     6  C   -0.113120  -0.014665  -0.041246   0.371891   0.404046   5.217831
     7  H   -0.062479   0.421389   0.019381  -0.062478  -0.004780   0.019380
     8  H   -0.038880   0.011789   0.403482  -0.002045  -0.055089   0.016162
     9  H    0.014569  -0.061262  -0.000782   0.415425   0.016046  -0.054973
    10  H   -0.002046   0.011790   0.016162  -0.038893  -0.055093   0.403494
    11  C    0.020775   0.006005  -0.083272   0.020773   0.127793  -0.083284
    12  C   -0.001380  -0.000133   0.031219   0.003852  -0.112904  -0.025013
    13  C    0.003846  -0.000131  -0.025001  -0.001384  -0.112901   0.031225
    14  C    0.000200  -0.000021  -0.000629  -0.000072   0.039866   0.000531
    15  C   -0.000073  -0.000021   0.000533   0.000199   0.039868  -0.000626
    16  C   -0.000078   0.000011   0.000745  -0.000078  -0.009821   0.000746
    17  H   -0.000134   0.000019  -0.000026   0.000978  -0.018934   0.003634
    18  H    0.000979   0.000018   0.003632  -0.000134  -0.018932  -0.000028
    19  H    0.000000  -0.000000  -0.000005  -0.000004  -0.000906  -0.000045
    20  H   -0.000004  -0.000000  -0.000045   0.000000  -0.000906  -0.000005
    21  H    0.415424  -0.061264  -0.054970   0.014569   0.016046  -0.000782
    22  N   -0.000000   0.000000   0.000003  -0.000000  -0.000201   0.000003
    23  C    0.000000   0.000000   0.000011  -0.000000  -0.000161   0.000001
    24  C   -0.000000   0.000000   0.000000   0.000000  -0.000001  -0.000000
    25  C    0.000001   0.000000  -0.000010  -0.000000   0.000035   0.000005
    26  C   -0.000000   0.000000   0.000000   0.000000  -0.000000  -0.000000
    27  C    0.000000  -0.000000  -0.000001  -0.000000   0.000007   0.000000
    28  C   -0.000000  -0.000000  -0.000000   0.000000   0.000000  -0.000000
    29  H    0.000000  -0.000000   0.000000  -0.000000   0.000000  -0.000000
    30  H    0.000000   0.000000   0.000009  -0.000000  -0.000082  -0.000002
    31  H    0.000000   0.000000   0.000000  -0.000000  -0.000000   0.000000
    32  H   -0.000000   0.000000  -0.000000  -0.000000  -0.000000   0.000000
    33  H   -0.000000  -0.000000  -0.000000   0.000000   0.000000   0.000000
    34  C   -0.000000   0.000000   0.000001   0.000000  -0.000161   0.000011
    35  C    0.000000   0.000000  -0.000000  -0.000000  -0.000001   0.000000
    36  C   -0.000000   0.000000   0.000005   0.000001   0.000035  -0.000010
    37  C    0.000000   0.000000  -0.000000  -0.000000  -0.000000   0.000000
    38  C   -0.000000  -0.000000   0.000000   0.000000   0.000007  -0.000001
    39  C    0.000000  -0.000000  -0.000000  -0.000000   0.000000  -0.000000
    40  H   -0.000000  -0.000000  -0.000000   0.000000   0.000000   0.000000
    41  H   -0.000000   0.000000  -0.000002   0.000000  -0.000082   0.000009
    42  H   -0.000000   0.000000   0.000000   0.000000  -0.000000   0.000000
    43  H   -0.000000   0.000000   0.000000  -0.000000  -0.000000  -0.000000
    44  H    0.000000  -0.000000   0.000000  -0.000000   0.000000  -0.000000
               7          8          9         10         11         12
     1  C   -0.062479  -0.038880   0.014569  -0.002046   0.020775  -0.001380
     2  C    0.421389   0.011789  -0.061262   0.011790   0.006005  -0.000133
     3  C    0.019381   0.403482  -0.000782   0.016162  -0.083272   0.031219
     4  C   -0.062478  -0.002045   0.415425  -0.038893   0.020773   0.003852
     5  C   -0.004780  -0.055089   0.016046  -0.055093   0.127793  -0.112904
     6  C    0.019380   0.016162  -0.054973   0.403494  -0.083284  -0.025013
     7  H    0.581698  -0.000221  -0.008561  -0.000221  -0.000172  -0.000006
     8  H   -0.000221   0.554479   0.000039  -0.000193  -0.017889  -0.000536
     9  H   -0.008561   0.000039   0.585409  -0.007136  -0.001547   0.000013
    10  H   -0.000221  -0.000193  -0.007136   0.554486  -0.017888   0.006162
    11  C   -0.000172  -0.017889  -0.001547  -0.017888   5.543119   0.350100
    12  C   -0.000006  -0.000536   0.000013   0.006162   0.350100   5.409703
    13  C   -0.000006   0.006163   0.000018  -0.000533   0.350156  -0.003450
    14  C    0.000000  -0.000215  -0.000011   0.000494  -0.001108   0.238472
    15  C    0.000000   0.000496  -0.000003  -0.000215  -0.001181  -0.154105
    16  C   -0.000000   0.000238   0.000001   0.000238  -0.124821   0.019242
    17  H   -0.000003  -0.000042   0.000013   0.000981  -0.075978   0.406277
    18  H   -0.000003   0.000979   0.000001  -0.000042  -0.075965   0.015990
    19  H    0.000000  -0.000002  -0.000000  -0.000017   0.012774  -0.039430
    20  H    0.000000  -0.000017   0.000000  -0.000002   0.012768   0.001136
    21  H   -0.008560  -0.007137  -0.000251   0.000039  -0.001547   0.000018
    22  N   -0.000000   0.000001   0.000000   0.000001   0.003332   0.019934
    23  C   -0.000000   0.000001  -0.000000   0.000000   0.001968  -0.005399
    24  C    0.000000   0.000000   0.000000  -0.000000   0.000156  -0.000027
    25  C    0.000000   0.000006  -0.000000   0.000000  -0.001845   0.002653
    26  C    0.000000  -0.000000  -0.000000   0.000000   0.000019  -0.000065
    27  C    0.000000  -0.000000   0.000000   0.000000  -0.000127  -0.000043
    28  C   -0.000000   0.000000   0.000000  -0.000000  -0.000005   0.000028
    29  H   -0.000000  -0.000000   0.000000  -0.000000  -0.000006   0.000017
    30  H   -0.000000   0.000001  -0.000000  -0.000000   0.000259   0.000771
    31  H   -0.000000   0.000000  -0.000000   0.000000  -0.000000   0.000000
    32  H    0.000000  -0.000000  -0.000000   0.000000  -0.000004  -0.000001
    33  H   -0.000000   0.000000   0.000000  -0.000000  -0.000000   0.000000
    34  C   -0.000000   0.000000  -0.000000   0.000001   0.001967  -0.003982
    35  C    0.000000  -0.000000  -0.000000   0.000000   0.000156   0.000718
    36  C    0.000000   0.000000   0.000000   0.000006  -0.001849  -0.004348
    37  C    0.000000   0.000000  -0.000000  -0.000000   0.000019   0.000049
    38  C    0.000000   0.000000   0.000000  -0.000000  -0.000127  -0.000306
    39  C   -0.000000  -0.000000   0.000000   0.000000  -0.000005  -0.000059
    40  H   -0.000000  -0.000000   0.000000  -0.000000  -0.000006   0.000013
    41  H   -0.000000  -0.000000  -0.000000   0.000001   0.000259  -0.001773
    42  H   -0.000000   0.000000  -0.000000   0.000000  -0.000000  -0.000001
    43  H    0.000000   0.000000  -0.000000  -0.000000  -0.000004   0.000030
    44  H   -0.000000  -0.000000   0.000000   0.000000  -0.000000  -0.000001
              13         14         15         16         17         18
     1  C    0.003846   0.000200  -0.000073  -0.000078  -0.000134   0.000979
     2  C   -0.000131  -0.000021  -0.000021   0.000011   0.000019   0.000018
     3  C   -0.025001  -0.000629   0.000533   0.000745  -0.000026   0.003632
     4  C   -0.001384  -0.000072   0.000199  -0.000078   0.000978  -0.000134
     5  C   -0.112901   0.039866   0.039868  -0.009821  -0.018934  -0.018932
     6  C    0.031225   0.000531  -0.000626   0.000746   0.003634  -0.000028
     7  H   -0.000006   0.000000   0.000000  -0.000000  -0.000003  -0.000003
     8  H    0.006163  -0.000215   0.000496   0.000238  -0.000042   0.000979
     9  H    0.000018  -0.000011  -0.000003   0.000001   0.000013   0.000001
    10  H   -0.000533   0.000494  -0.000215   0.000238   0.000981  -0.000042
    11  C    0.350156  -0.001108  -0.001181  -0.124821  -0.075978  -0.075965
    12  C   -0.003450   0.238472  -0.154105   0.019242   0.406277   0.015990
    13  C    5.409639  -0.154117   0.238514   0.019221   0.015991   0.406259
    14  C   -0.154117   5.386362  -0.066602   0.338452  -0.028892  -0.001475
    15  C    0.238514  -0.066602   5.386238   0.338595  -0.001476  -0.028874
    16  C    0.019221   0.338452   0.338595   5.468602   0.018522   0.018515
    17  H    0.015991  -0.028892  -0.001476   0.018522   0.560587  -0.000156
    18  H    0.406259  -0.001475  -0.028874   0.018515  -0.000156   0.560583
    19  H    0.001134   0.400842   0.009376  -0.044984  -0.006633   0.000021
    20  H   -0.039427   0.009375   0.400813  -0.044949   0.000021  -0.006630
    21  H    0.000013  -0.000003  -0.000011   0.000001   0.000001   0.000013
    22  N    0.019947  -0.014755  -0.014862   0.167100  -0.000490  -0.000490
    23  C   -0.003989  -0.005122   0.027891  -0.083586   0.000023  -0.000077
    24  C    0.000718  -0.011231   0.019042  -0.010092   0.000001  -0.000046
    25  C   -0.004360   0.018066  -0.067220   0.028804  -0.000026   0.000133
    26  C    0.000049  -0.000272   0.003303  -0.004953   0.000000  -0.000002
    27  C   -0.000306   0.001487  -0.009366   0.001501  -0.000001   0.000025
    28  C   -0.000059   0.000022  -0.000557   0.002038   0.000000  -0.000002
    29  H    0.000013  -0.000313   0.000424  -0.001451  -0.000000   0.000000
    30  H   -0.001772  -0.001669   0.004496   0.001593   0.000007  -0.000041
    31  H   -0.000001   0.000002  -0.000029   0.000011  -0.000000   0.000000
    32  H    0.000030  -0.000031   0.000024  -0.000179   0.000000   0.000000
    33  H   -0.000001   0.000001  -0.000015   0.000018  -0.000000   0.000000
    34  C   -0.005398   0.027910  -0.005173  -0.083568  -0.000078   0.000023
    35  C   -0.000027   0.019043  -0.011231  -0.010049  -0.000046   0.000001
    36  C    0.002656  -0.067246   0.018076   0.028796   0.000133  -0.000026
    37  C   -0.000065   0.003300  -0.000272  -0.004953  -0.000002   0.000000
    38  C   -0.000043  -0.009374   0.001488   0.001499   0.000025  -0.000001
    39  C    0.000028  -0.000556   0.000023   0.002042  -0.000002   0.000000
    40  H    0.000017   0.000423  -0.000314  -0.001445   0.000000  -0.000000
    41  H    0.000773   0.004495  -0.001668   0.001611  -0.000041   0.000008
    42  H    0.000000  -0.000029   0.000002   0.000011   0.000000  -0.000000
    43  H   -0.000001   0.000024  -0.000031  -0.000179   0.000000   0.000000
    44  H    0.000000  -0.000015   0.000001   0.000018   0.000000  -0.000000
              19         20         21         22         23         24
     1  C    0.000000  -0.000004   0.415424  -0.000000   0.000000  -0.000000
     2  C   -0.000000  -0.000000  -0.061264   0.000000   0.000000   0.000000
     3  C   -0.000005  -0.000045  -0.054970   0.000003   0.000011   0.000000
     4  C   -0.000004   0.000000   0.014569  -0.000000  -0.000000   0.000000
     5  C   -0.000906  -0.000906   0.016046  -0.000201  -0.000161  -0.000001
     6  C   -0.000045  -0.000005  -0.000782   0.000003   0.000001  -0.000000
     7  H    0.000000   0.000000  -0.008560  -0.000000  -0.000000   0.000000
     8  H   -0.000002  -0.000017  -0.007137   0.000001   0.000001   0.000000
     9  H   -0.000000   0.000000  -0.000251   0.000000  -0.000000   0.000000
    10  H   -0.000017  -0.000002   0.000039   0.000001   0.000000  -0.000000
    11  C    0.012774   0.012768  -0.001547   0.003332   0.001968   0.000156
    12  C   -0.039430   0.001136   0.000018   0.019934  -0.005399  -0.000027
    13  C    0.001134  -0.039427   0.000013   0.019947  -0.003989   0.000718
    14  C    0.400842   0.009375  -0.000003  -0.014755  -0.005122  -0.011231
    15  C    0.009376   0.400813  -0.000011  -0.014862   0.027891   0.019042
    16  C   -0.044984  -0.044949   0.000001   0.167100  -0.083586  -0.010092
    17  H   -0.006633   0.000021   0.000001  -0.000490   0.000023   0.000001
    18  H    0.000021  -0.006630   0.000013  -0.000490  -0.000077  -0.000046
    19  H    0.525169  -0.000308   0.000000  -0.006176  -0.000913  -0.000309
    20  H   -0.000308   0.525160  -0.000000  -0.006196   0.002690   0.000049
    21  H    0.000000  -0.000000   0.585410   0.000000  -0.000000  -0.000000
    22  N   -0.006176  -0.006196   0.000000   6.523390   0.162996  -0.009312
    23  C   -0.000913   0.002690  -0.000000   0.162996   5.405800   0.358789
    24  C   -0.000309   0.000049  -0.000000  -0.009312   0.358789   5.250648
    25  C    0.000368   0.001011   0.000000  -0.010745   0.361621  -0.050851
    26  C    0.000013   0.000363  -0.000000   0.013375   0.018902   0.363375
    27  C    0.000008  -0.001877   0.000000   0.013489   0.017479  -0.138061
    28  C   -0.000005   0.000521   0.000000   0.005751  -0.096668  -0.020212
    29  H   -0.000008   0.000036   0.000000  -0.007224  -0.035038   0.397482
    30  H    0.000010   0.001182  -0.000000  -0.007870  -0.033664   0.013074
    31  H   -0.000000   0.000003  -0.000000  -0.000587   0.017948  -0.052498
    32  H   -0.000000  -0.000050  -0.000000  -0.000580   0.017868  -0.002455
    33  H    0.000000   0.000003   0.000000  -0.000042  -0.008085   0.024829
    34  C    0.002675  -0.000918  -0.000000   0.163016  -0.084977   0.027032
    35  C    0.000049  -0.000309   0.000000  -0.009224   0.027042  -0.058239
    36  C    0.001010   0.000368  -0.000000  -0.010831  -0.005460   0.013429
    37  C    0.000363   0.000013  -0.000000   0.013359  -0.001148  -0.006691
    38  C   -0.001877   0.000008   0.000000   0.013501  -0.005167   0.003684
    39  C    0.000521  -0.000005   0.000000   0.005751   0.002397  -0.001006
    40  H    0.000036  -0.000008   0.000000  -0.007205   0.002676   0.001219
    41  H    0.001182   0.000010  -0.000000  -0.007889  -0.000825   0.000185
    42  H    0.000003  -0.000000  -0.000000  -0.000587  -0.000189   0.000055
    43  H   -0.000050  -0.000000  -0.000000  -0.000580   0.000012  -0.000024
    44  H    0.000003   0.000000   0.000000  -0.000041   0.000019  -0.000017
              25         26         27         28         29         30
     1  C    0.000001  -0.000000   0.000000  -0.000000   0.000000   0.000000
     2  C    0.000000   0.000000  -0.000000  -0.000000  -0.000000   0.000000
     3  C   -0.000010   0.000000  -0.000001  -0.000000   0.000000   0.000009
     4  C   -0.000000   0.000000  -0.000000   0.000000  -0.000000  -0.000000
     5  C    0.000035  -0.000000   0.000007   0.000000   0.000000  -0.000082
     6  C    0.000005  -0.000000   0.000000  -0.000000  -0.000000  -0.000002
     7  H    0.000000   0.000000   0.000000  -0.000000  -0.000000  -0.000000
     8  H    0.000006  -0.000000  -0.000000   0.000000  -0.000000   0.000001
     9  H   -0.000000  -0.000000   0.000000   0.000000   0.000000  -0.000000
    10  H    0.000000   0.000000   0.000000  -0.000000  -0.000000  -0.000000
    11  C   -0.001845   0.000019  -0.000127  -0.000005  -0.000006   0.000259
    12  C    0.002653  -0.000065  -0.000043   0.000028   0.000017   0.000771
    13  C   -0.004360   0.000049  -0.000306  -0.000059   0.000013  -0.001772
    14  C    0.018066  -0.000272   0.001487   0.000022  -0.000313  -0.001669
    15  C   -0.067220   0.003303  -0.009366  -0.000557   0.000424   0.004496
    16  C    0.028804  -0.004953   0.001501   0.002038  -0.001451   0.001593
    17  H   -0.000026   0.000000  -0.000001   0.000000  -0.000000   0.000007
    18  H    0.000133  -0.000002   0.000025  -0.000002   0.000000  -0.000041
    19  H    0.000368   0.000013   0.000008  -0.000005  -0.000008   0.000010
    20  H    0.001011   0.000363  -0.001877   0.000521   0.000036   0.001182
    21  H    0.000000  -0.000000   0.000000   0.000000   0.000000  -0.000000
    22  N   -0.010745   0.013375   0.013489   0.005751  -0.007224  -0.007870
    23  C    0.361621   0.018902   0.017479  -0.096668  -0.035038  -0.033664
    24  C   -0.050851   0.363375  -0.138061  -0.020212   0.397482   0.013074
    25  C    5.248478  -0.134812   0.361281  -0.021697   0.012710   0.396667
    26  C   -0.134812   5.080802   0.032437   0.431786  -0.042820  -0.001305
    27  C    0.361281   0.032437   5.087531   0.431876  -0.001296  -0.043841
    28  C   -0.021697   0.431786   0.431876   5.049561   0.010039   0.010033
    29  H    0.012710  -0.042820  -0.001296   0.010039   0.522213  -0.000269
    30  H    0.396667  -0.001305  -0.043841   0.010033  -0.000269   0.522680
    31  H   -0.002443   0.416356   0.016645  -0.067390  -0.007332   0.000013
    32  H   -0.052708   0.016639   0.416383  -0.067144   0.000014  -0.007337
    33  H    0.024887  -0.072140  -0.072151   0.432190  -0.000103  -0.000102
    34  C   -0.005422  -0.001154  -0.005168   0.002401   0.002688  -0.000820
    35  C    0.013423  -0.006697   0.003682  -0.001006   0.001219   0.000184
    36  C   -0.008809   0.000733  -0.000273   0.000078  -0.000718  -0.000228
    37  C    0.000733  -0.000560   0.000085  -0.000057  -0.001411  -0.000008
    38  C   -0.000273   0.000086  -0.000055   0.000020   0.000475   0.000015
    39  C    0.000078  -0.000057   0.000020  -0.000011   0.000418  -0.000005
    40  H   -0.000720  -0.001411   0.000475   0.000418   0.000930   0.000032
    41  H   -0.000228  -0.000008   0.000015  -0.000005   0.000032  -0.000009
    42  H   -0.000032   0.000025  -0.000001  -0.000001  -0.000044  -0.000000
    43  H    0.000001  -0.000001   0.000000   0.000000   0.000003  -0.000000
    44  H    0.000001  -0.000001  -0.000000  -0.000000   0.000003   0.000000
              31         32         33         34         35         36
     1  C    0.000000  -0.000000  -0.000000  -0.000000   0.000000  -0.000000
     2  C    0.000000   0.000000  -0.000000   0.000000   0.000000   0.000000
     3  C    0.000000  -0.000000  -0.000000   0.000001  -0.000000   0.000005
     4  C   -0.000000  -0.000000   0.000000   0.000000  -0.000000   0.000001
     5  C   -0.000000  -0.000000   0.000000  -0.000161  -0.000001   0.000035
     6  C    0.000000   0.000000   0.000000   0.000011   0.000000  -0.000010
     7  H   -0.000000   0.000000  -0.000000  -0.000000   0.000000   0.000000
     8  H    0.000000  -0.000000   0.000000   0.000000  -0.000000   0.000000
     9  H   -0.000000  -0.000000   0.000000  -0.000000  -0.000000   0.000000
    10  H    0.000000   0.000000  -0.000000   0.000001   0.000000   0.000006
    11  C   -0.000000  -0.000004  -0.000000   0.001967   0.000156  -0.001849
    12  C    0.000000  -0.000001   0.000000  -0.003982   0.000718  -0.004348
    13  C   -0.000001   0.000030  -0.000001  -0.005398  -0.000027   0.002656
    14  C    0.000002  -0.000031   0.000001   0.027910   0.019043  -0.067246
    15  C   -0.000029   0.000024  -0.000015  -0.005173  -0.011231   0.018076
    16  C    0.000011  -0.000179   0.000018  -0.083568  -0.010049   0.028796
    17  H   -0.000000   0.000000  -0.000000  -0.000078  -0.000046   0.000133
    18  H    0.000000   0.000000   0.000000   0.000023   0.000001  -0.000026
    19  H   -0.000000  -0.000000   0.000000   0.002675   0.000049   0.001010
    20  H    0.000003  -0.000050   0.000003  -0.000918  -0.000309   0.000368
    21  H   -0.000000  -0.000000   0.000000  -0.000000   0.000000  -0.000000
    22  N   -0.000587  -0.000580  -0.000042   0.163016  -0.009224  -0.010831
    23  C    0.017948   0.017868  -0.008085  -0.084977   0.027042  -0.005460
    24  C   -0.052498  -0.002455   0.024829   0.027032  -0.058239   0.013429
    25  C   -0.002443  -0.052708   0.024887  -0.005422   0.013423  -0.008809
    26  C    0.416356   0.016639  -0.072140  -0.001154  -0.006697   0.000733
    27  C    0.016645   0.416383  -0.072151  -0.005168   0.003682  -0.000273
    28  C   -0.067390  -0.067144   0.432190   0.002401  -0.001006   0.000078
    29  H   -0.007332   0.000014  -0.000103   0.002688   0.001219  -0.000718
    30  H    0.000013  -0.007337  -0.000102  -0.000820   0.000184  -0.000228
    31  H    0.583026  -0.000238  -0.008861  -0.000189   0.000055  -0.000032
    32  H   -0.000238   0.583163  -0.008856   0.000012  -0.000024   0.000001
    33  H   -0.008861  -0.008856   0.584166   0.000019  -0.000016   0.000001
    34  C   -0.000189   0.000012   0.000019   5.405737   0.358684   0.361708
    35  C    0.000055  -0.000024  -0.000016   0.358684   5.250745  -0.050858
    36  C   -0.000032   0.000001   0.000001   0.361708  -0.050858   5.248470
    37  C    0.000025  -0.000001  -0.000001   0.018891   0.363413  -0.134788
    38  C   -0.000001   0.000000  -0.000000   0.017506  -0.138104   0.361250
    39  C   -0.000001   0.000000  -0.000000  -0.096667  -0.020185  -0.021723
    40  H   -0.000044   0.000003   0.000003  -0.035061   0.397490   0.012710
    41  H   -0.000000  -0.000000   0.000000  -0.033640   0.013073   0.396644
    42  H   -0.000000   0.000000  -0.000000   0.017953  -0.052511  -0.002444
    43  H    0.000000  -0.000000  -0.000000   0.017863  -0.002454  -0.052697
    44  H   -0.000000  -0.000000  -0.000000  -0.008085   0.024831   0.024887
              37         38         39         40         41         42
     1  C    0.000000  -0.000000   0.000000  -0.000000  -0.000000  -0.000000
     2  C    0.000000  -0.000000  -0.000000  -0.000000   0.000000   0.000000
     3  C   -0.000000   0.000000  -0.000000  -0.000000  -0.000002   0.000000
     4  C   -0.000000   0.000000  -0.000000   0.000000   0.000000   0.000000
     5  C   -0.000000   0.000007   0.000000   0.000000  -0.000082  -0.000000
     6  C    0.000000  -0.000001  -0.000000   0.000000   0.000009   0.000000
     7  H    0.000000   0.000000  -0.000000  -0.000000  -0.000000  -0.000000
     8  H    0.000000   0.000000  -0.000000  -0.000000  -0.000000   0.000000
     9  H   -0.000000   0.000000   0.000000   0.000000  -0.000000  -0.000000
    10  H   -0.000000  -0.000000   0.000000  -0.000000   0.000001   0.000000
    11  C    0.000019  -0.000127  -0.000005  -0.000006   0.000259  -0.000000
    12  C    0.000049  -0.000306  -0.000059   0.000013  -0.001773  -0.000001
    13  C   -0.000065  -0.000043   0.000028   0.000017   0.000773   0.000000
    14  C    0.003300  -0.009374  -0.000556   0.000423   0.004495  -0.000029
    15  C   -0.000272   0.001488   0.000023  -0.000314  -0.001668   0.000002
    16  C   -0.004953   0.001499   0.002042  -0.001445   0.001611   0.000011
    17  H   -0.000002   0.000025  -0.000002   0.000000  -0.000041   0.000000
    18  H    0.000000  -0.000001   0.000000  -0.000000   0.000008  -0.000000
    19  H    0.000363  -0.001877   0.000521   0.000036   0.001182   0.000003
    20  H    0.000013   0.000008  -0.000005  -0.000008   0.000010  -0.000000
    21  H   -0.000000   0.000000   0.000000   0.000000  -0.000000  -0.000000
    22  N    0.013359   0.013501   0.005751  -0.007205  -0.007889  -0.000587
    23  C   -0.001148  -0.005167   0.002397   0.002676  -0.000825  -0.000189
    24  C   -0.006691   0.003684  -0.001006   0.001219   0.000185   0.000055
    25  C    0.000733  -0.000273   0.000078  -0.000720  -0.000228  -0.000032
    26  C   -0.000560   0.000086  -0.000057  -0.001411  -0.000008   0.000025
    27  C    0.000085  -0.000055   0.000020   0.000475   0.000015  -0.000001
    28  C   -0.000057   0.000020  -0.000011   0.000418  -0.000005  -0.000001
    29  H   -0.001411   0.000475   0.000418   0.000930   0.000032  -0.000044
    30  H   -0.000008   0.000015  -0.000005   0.000032  -0.000009  -0.000000
    31  H    0.000025  -0.000001  -0.000001  -0.000044  -0.000000  -0.000000
    32  H   -0.000001   0.000000   0.000000   0.000003  -0.000000   0.000000
    33  H   -0.000001  -0.000000  -0.000000   0.000003   0.000000  -0.000000
    34  C    0.018891   0.017506  -0.096667  -0.035061  -0.033640   0.017953
    35  C    0.363413  -0.138104  -0.020185   0.397490   0.013073  -0.052511
    36  C   -0.134788   0.361250  -0.021723   0.012710   0.396644  -0.002444
    37  C    5.080753   0.032436   0.431776  -0.042808  -0.001303   0.416368
    38  C    0.032436   5.087579   0.431902  -0.001297  -0.043838   0.016649
    39  C    0.431776   0.431902   5.049537   0.010041   0.010028  -0.067399
    40  H   -0.042808  -0.001297   0.010041   0.522212  -0.000269  -0.007334
    41  H   -0.001303  -0.043838   0.010028  -0.000269   0.522665   0.000013
    42  H    0.416368   0.016649  -0.067399  -0.007334   0.000013   0.583032
    43  H    0.016636   0.416370  -0.067134   0.000014  -0.007335  -0.000238
    44  H   -0.072148  -0.072149   0.432194  -0.000103  -0.000102  -0.008862
              43         44
     1  C   -0.000000   0.000000
     2  C    0.000000  -0.000000
     3  C    0.000000   0.000000
     4  C   -0.000000  -0.000000
     5  C   -0.000000   0.000000
     6  C   -0.000000  -0.000000
     7  H    0.000000  -0.000000
     8  H    0.000000  -0.000000
     9  H   -0.000000   0.000000
    10  H   -0.000000   0.000000
    11  C   -0.000004  -0.000000
    12  C    0.000030  -0.000001
    13  C   -0.000001   0.000000
    14  C    0.000024  -0.000015
    15  C   -0.000031   0.000001
    16  C   -0.000179   0.000018
    17  H    0.000000   0.000000
    18  H    0.000000  -0.000000
    19  H   -0.000050   0.000003
    20  H   -0.000000   0.000000
    21  H   -0.000000   0.000000
    22  N   -0.000580  -0.000041
    23  C    0.000012   0.000019
    24  C   -0.000024  -0.000017
    25  C    0.000001   0.000001
    26  C   -0.000001  -0.000001
    27  C    0.000000  -0.000000
    28  C    0.000000  -0.000000
    29  H    0.000003   0.000003
    30  H   -0.000000   0.000000
    31  H    0.000000  -0.000000
    32  H   -0.000000  -0.000000
    33  H   -0.000000  -0.000000
    34  C    0.017863  -0.008085
    35  C   -0.002454   0.024831
    36  C   -0.052697   0.024887
    37  C    0.016636  -0.072148
    38  C    0.416370  -0.072149
    39  C   -0.067134   0.432194
    40  H    0.000014  -0.000103
    41  H   -0.007335  -0.000102
    42  H   -0.000238  -0.008862
    43  H    0.583162  -0.008856
    44  H   -0.008856   0.584168
 Mulliken charges:
               1
     1  C   -0.087948
     2  C   -0.123047
     3  C   -0.135187
     4  C   -0.087945
     5  C    0.001499
     6  C   -0.135170
     7  H    0.105642
     8  H    0.128431
     9  H    0.102994
    10  H    0.128425
    11  C    0.036237
    12  C   -0.153432
    13  C   -0.153439
    14  C   -0.125605
    15  C   -0.125475
    16  C   -0.032987
    17  H    0.125746
    18  H    0.125745
    19  H    0.146116
    20  H    0.146124
    21  H    0.102994
    22  N   -0.009060
    23  C   -0.055666
    24  C   -0.112697
    25  C   -0.108761
    26  C   -0.112007
    27  C   -0.111860
    28  C   -0.101943
    29  H    0.149316
    30  H    0.147997
    31  H    0.105563
    32  H    0.105473
    33  H    0.104257
    34  C   -0.055638
    35  C   -0.112827
    36  C   -0.108656
    37  C   -0.112003
    38  C   -0.111886
    39  C   -0.101940
    40  H    0.149314
    41  H    0.148016
    42  H    0.105562
    43  H    0.105470
    44  H    0.104256
 Sum of Mulliken charges =  -0.00000
 Mulliken charges with hydrogens summed into heavy atoms:
               1
     1  C    0.015046
     2  C   -0.017405
     3  C   -0.006756
     4  C    0.015048
     5  C    0.001499
     6  C   -0.006745
    11  C    0.036237
    12  C   -0.027686
    13  C   -0.027694
    14  C    0.020510
    15  C    0.020650
    16  C   -0.032987
    22  N   -0.009060
    23  C   -0.055666
    24  C    0.036619
    25  C    0.039237
    26  C   -0.006444
    27  C   -0.006387
    28  C    0.002315
    34  C   -0.055638
    35  C    0.036487
    36  C    0.039360
    37  C   -0.006441
    38  C   -0.006415
    39  C    0.002316
 Electronic spatial extent (au):  <R**2>=          11114.7749
 Charge=              0.0000 electrons
 Dipole moment (field-independent basis, Debye):
    X=              0.2388    Y=              0.0002    Z=             -0.0003  Tot=              0.2388
 Quadrupole moment (field-independent basis, Debye-Ang):
   XX=           -134.4409   YY=           -133.2185   ZZ=           -148.4781
   XY=              0.0006   XZ=             -0.0009   YZ=              0.4534
 Traceless Quadrupole moment (field-independent basis, Debye-Ang):
   XX=              4.2716   YY=              5.4940   ZZ=             -9.7656
   XY=              0.0006   XZ=             -0.0009   YZ=              0.4534
 Octapole moment (field-independent basis, Debye-Ang**2):
  XXX=            -34.6426  YYY=              0.0078  ZZZ=              0.0028  XYY=              7.0898
  XXY=             -0.0049  XXZ=             -0.0097  XZZ=             19.2438  YZZ=              0.0024
  YYZ=             -0.0042  XYZ=             -2.3756
 Hexadecapole moment (field-independent basis, Debye-Ang**3):
 XXXX=         -10825.6436 YYYY=          -3332.1223 ZZZZ=           -509.3156 XXXY=             -0.0721
 XXXZ=              0.0146 YYYX=              0.0297 YYYZ=             84.7614 ZZZX=             -0.0134
 ZZZY=              0.2266 XXYY=          -2274.1295 XXZZ=          -2153.8229 YYZZ=           -681.2299
 XXYZ=            -71.6016 YYXZ=             -0.0166 ZZXY=              0.0202
 N-N= 1.905495953278D+03 E-N=-6.086274626504D+03  KE= 9.753799106757D+02
 No NMR shielding tensors so no spin-rotation constants.
 Leave Link  601 at Sun Jan 17 14:04:40 2021, MaxMem=  4026531840 cpu:               3.6 elap:               0.6
 (Enter /opt/ohpc/pub/libs/gaussian/g16-A.03/sandybridge/g16/l9999.exe)

 Test job not archived.
 1\1\GINC-CASCADEB025\SP\RLC-wHPBE\TZVP\C24H19N1\RDU230\17-Jan-2021\0\\
 #P LC-wHPBE/TZVP iop(3/107=0190100000, 3/108=0190100000) scf=(conver=6
 ,fermi,ndamp=35,noincfock,novaracc,vshift=500,xqc)\\H19 C24 N1\\0,1\C,
 0,6.129184,1.201496,-0.030856\C,0,6.830271,0.000001,0.000182\C,0,4.738
 958,1.200713,-0.032197\C,0,6.129235,-1.201473,0.031153\C,0,4.021751,-0
 .000032,0.000031\C,0,4.738962,-1.200719,0.032361\H,0,7.919539,0.000045
 ,0.00019\H,0,4.198073,2.145454,-0.081149\H,0,6.668779,-2.147537,0.0634
 12\H,0,4.198148,-2.145504,0.081256\C,0,2.536892,-0.000014,-0.000063\C,
 0,1.813363,-0.924286,-0.760077\C,0,1.813258,0.92429,0.759786\C,0,0.426
 027,-0.922473,-0.771159\C,0,0.425899,0.922498,0.770636\C,0,-0.288344,0
 .000018,-0.000311\H,0,2.347573,-1.638662,-1.38605\H,0,2.34735,1.638674
 ,1.385851\H,0,-0.11537,-1.638494,-1.387158\H,0,-0.115571,1.638578,1.38
 6504\H,0,6.668762,2.147543,-0.063006\N,0,-1.704382,-0.000003,-0.000499
 \C,0,-2.414266,1.22777,0.004035\C,0,-3.559402,1.382015,0.792108\C,0,-1
 .979956,2.301413,-0.78017\C,0,-4.257371,2.583383,0.786193\C,0,-2.67352
 7,3.505213,-0.76583\C,0,-3.817854,3.653503,0.012423\H,0,-3.900046,0.55
 1242,1.407814\H,0,-1.092486,2.185578,-1.400082\H,0,-5.147916,2.686607,
 1.40537\H,0,-2.321511,4.331764,-1.38228\H,0,-4.363183,4.595952,0.01566
 4\C,0,-2.414241,-1.227791,-0.004406\C,0,-3.559682,-1.382189,-0.792032\
 C,0,-1.979686,-2.301249,0.779869\C,0,-4.257673,-2.583532,-0.785597\C,0
 ,-2.673287,-3.50506,0.766028\C,0,-3.817885,-3.653507,-0.011769\H,0,-3.
 900521,-0.551523,-1.407763\H,0,-1.092008,-2.185299,1.399468\H,0,-5.148
 466,-2.686887,-1.404399\H,0,-2.32101,-4.331477,1.382521\H,0,-4.363223,
 -4.595951,-0.014691\\Version=EM64L-G16RevA.03\State=1-A\HF=-980.111824
 2\RMSD=7.106e-07\Dipole=-0.0939427,0.0000668,0.0001092\Quadrupole=3.17
 58387,4.084675,-7.2605136,-0.0004659,-0.0006849,-0.3370624\PG=C01 [X(C
 24H19N1)]\\@


 THE PROGRESS OF RIVERS TO THE SEA IS NOT AS RAPID
 AS THAT OF MAN TO ERROR.
                                              -- VOLTAIRE
 Job cpu time:       0 days  1 hours 17 minutes 24.6 seconds.
 Elapsed time:       0 days  0 hours  9 minutes 42.7 seconds.
 File lengths (MBytes):  RWF=    156 Int=      0 D2E=      0 Chk=     28 Scr=      8
 Normal termination of Gaussian 16 at Sun Jan 17 14:04:40 2021.
