 Entering Gaussian System, Link 0=g16
 Input=mol_bp_pa_half_tune_n3.gjf
 Output=mol_bp_pa_half_tune_n3.log
 Initial command:
 /opt/ohpc/pub/libs/gaussian/g16-A.03/sandybridge/g16/l1.exe "/mnt/gpfs2_4m/scratch/rdu230/ondemand/projects/init_structures/wtuning/mol_bp_pa_half/tuning_mol_bp_pa_half_ocycle0/Gau-398548.inp" -scrdir="/mnt/gpfs2_4m/scratch/rdu230/ondemand/projects/init_structures/wtuning/mol_bp_pa_half/tuning_mol_bp_pa_half_ocycle0/"
 Entering Link 1 = /opt/ohpc/pub/libs/gaussian/g16-A.03/sandybridge/g16/l1.exe PID=    398549.
  
 Copyright (c) 1988,1990,1992,1993,1995,1998,2003,2009,2016,
            Gaussian, Inc.  All Rights Reserved.
  
 This is part of the Gaussian(R) 16 program.  It is based on
 the Gaussian(R) 09 system (copyright 2009, Gaussian, Inc.),
 the Gaussian(R) 03 system (copyright 2003, Gaussian, Inc.),
 the Gaussian(R) 98 system (copyright 1998, Gaussian, Inc.),
 the Gaussian(R) 94 system (copyright 1995, Gaussian, Inc.),
 the Gaussian 92(TM) system (copyright 1992, Gaussian, Inc.),
 the Gaussian 90(TM) system (copyright 1990, Gaussian, Inc.),
 the Gaussian 88(TM) system (copyright 1988, Gaussian, Inc.),
 the Gaussian 86(TM) system (copyright 1986, Carnegie Mellon
 University), and the Gaussian 82(TM) system (copyright 1983,
 Carnegie Mellon University). Gaussian is a federally registered
 trademark of Gaussian, Inc.
  
 This software contains proprietary and confidential information,
 including trade secrets, belonging to Gaussian, Inc.
  
 This software is provided under written license and may be
 used, copied, transmitted, or stored only in accord with that
 written license.
  
 The following legend is applicable only to US Government
 contracts under FAR:
  
                    RESTRICTED RIGHTS LEGEND
  
 Use, reproduction and disclosure by the US Government is
 subject to restrictions as set forth in subparagraphs (a)
 and (c) of the Commercial Computer Software - Restricted
 Rights clause in FAR 52.227-19.
  
 Gaussian, Inc.
 340 Quinnipiac St., Bldg. 40, Wallingford CT 06492
  
  
 ---------------------------------------------------------------
 Warning -- This program may not be used in any manner that
 competes with the business of Gaussian, Inc. or will provide
 assistance to any competitor of Gaussian, Inc.  The licensee
 of this program is prohibited from giving any competitor of
 Gaussian, Inc. access to this program.  By using this program,
 the user acknowledges that Gaussian, Inc. is engaged in the
 business of creating and licensing software in the field of
 computational chemistry and represents and warrants to the
 licensee that it is not a competitor of Gaussian, Inc. and that
 it will not use this program in any manner prohibited above.
 ---------------------------------------------------------------
  

 Cite this work as:
 Gaussian 16, Revision A.03,
 M. J. Frisch, G. W. Trucks, H. B. Schlegel, G. E. Scuseria, 
 M. A. Robb, J. R. Cheeseman, G. Scalmani, V. Barone, 
 G. A. Petersson, H. Nakatsuji, X. Li, M. Caricato, A. V. Marenich, 
 J. Bloino, B. G. Janesko, R. Gomperts, B. Mennucci, H. P. Hratchian, 
 J. V. Ortiz, A. F. Izmaylov, J. L. Sonnenberg, D. Williams-Young, 
 F. Ding, F. Lipparini, F. Egidi, J. Goings, B. Peng, A. Petrone, 
 T. Henderson, D. Ranasinghe, V. G. Zakrzewski, J. Gao, N. Rega, 
 G. Zheng, W. Liang, M. Hada, M. Ehara, K. Toyota, R. Fukuda, 
 J. Hasegawa, M. Ishida, T. Nakajima, Y. Honda, O. Kitao, H. Nakai, 
 T. Vreven, K. Throssell, J. A. Montgomery, Jr., J. E. Peralta, 
 F. Ogliaro, M. J. Bearpark, J. J. Heyd, E. N. Brothers, K. N. Kudin, 
 V. N. Staroverov, T. A. Keith, R. Kobayashi, J. Normand, 
 K. Raghavachari, A. P. Rendell, J. C. Burant, S. S. Iyengar, 
 J. Tomasi, M. Cossi, J. M. Millam, M. Klene, C. Adamo, R. Cammi, 
 J. W. Ochterski, R. L. Martin, K. Morokuma, O. Farkas, 
 J. B. Foresman, and D. J. Fox, Gaussian, Inc., Wallingford CT, 2016.
 
 ******************************************
 Gaussian 16:  EM64L-G16RevA.03 25-Dec-2016
                17-Jan-2021 
 ******************************************
 %mem=30GB
 %nproc=8
 Will use up to    8 processors via shared memory.
 ----------------------------------------------------------------------
 #P LC-wHPBE/TZVP iop(3/107=0171100000, 3/108=0171100000) scf=(conver=6
 ,fermi,ndamp=35,noincfock,novaracc,vshift=500,xqc)
 ----------------------------------------------------------------------
 1/38=1,172=1/1;
 2/12=2,17=6,18=5,40=1/2;
 3/5=19,7=101,11=2,25=1,30=1,74=-71,107=171100000,108=171100000/1,2,3;
 4//1;
 5/5=100002,6=6,8=3,10=500,13=1,18=-1,22=13,38=1,93=35/2,8;
 6/7=2,8=2,9=2,10=2,28=1/1;
 99/5=1,9=1/99;
 Leave Link    1 at Sun Jan 17 13:00:28 2021, MaxMem=  4026531840 cpu:               1.8 elap:               0.3
 (Enter /opt/ohpc/pub/libs/gaussian/g16-A.03/sandybridge/g16/l101.exe)
 ----------
 H19 C24 N1
 ----------
 Symbolic Z-matrix:
 Charge =  0 Multiplicity = 1
 C                     6.12918   1.2015   -0.03086 
 C                     6.83027   0.        0.00018 
 C                     4.73896   1.20071  -0.0322 
 C                     6.12924  -1.20147   0.03115 
 C                     4.02175  -0.00003   0.00003 
 C                     4.73896  -1.20072   0.03236 
 H                     7.91954   0.00005   0.00019 
 H                     4.19807   2.14545  -0.08115 
 H                     6.66878  -2.14754   0.06341 
 H                     4.19815  -2.1455    0.08126 
 C                     2.53689  -0.00001  -0.00006 
 C                     1.81336  -0.92429  -0.76008 
 C                     1.81326   0.92429   0.75979 
 C                     0.42603  -0.92247  -0.77116 
 C                     0.4259    0.9225    0.77064 
 C                    -0.28834   0.00002  -0.00031 
 H                     2.34757  -1.63866  -1.38605 
 H                     2.34735   1.63867   1.38585 
 H                    -0.11537  -1.63849  -1.38716 
 H                    -0.11557   1.63858   1.3865 
 H                     6.66876   2.14754  -0.06301 
 N                    -1.70438  0.        -0.0005 
 C                    -2.41427   1.22777   0.00404 
 C                    -3.5594    1.38202   0.79211 
 C                    -1.97996   2.30141  -0.78017 
 C                    -4.25737   2.58338   0.78619 
 C                    -2.67353   3.50521  -0.76583 
 C                    -3.81785   3.6535    0.01242 
 H                    -3.90005   0.55124   1.40781 
 H                    -1.09249   2.18558  -1.40008 
 H                    -5.14792   2.68661   1.40537 
 H                    -2.32151   4.33176  -1.38228 
 H                    -4.36318   4.59595   0.01566 
 C                    -2.41424  -1.22779  -0.00441 
 C                    -3.55968  -1.38219  -0.79203 
 C                    -1.97969  -2.30125   0.77987 
 C                    -4.25767  -2.58353  -0.7856 
 C                    -2.67329  -3.50506   0.76603 
 C                    -3.81789  -3.65351  -0.01177 
 H                    -3.90052  -0.55152  -1.40776 
 H                    -1.09201  -2.1853    1.39947 
 H                    -5.14847  -2.68689  -1.4044 
 H                    -2.32101  -4.33148   1.38252 
 H                    -4.36322  -4.59595  -0.01469 
 
 ITRead=  0  0  0  0  0  0  0  0  0  0  0  0  0  0  0  0  0  0  0  0
 ITRead=  0  0  0  0  0  0  0  0  0  0  0  0  0  0  0  0  0  0  0  0
 ITRead=  0  0  0  0
 MicOpt= -1 -1 -1 -1 -1 -1 -1 -1 -1 -1 -1 -1 -1 -1 -1 -1 -1 -1 -1 -1
 MicOpt= -1 -1 -1 -1 -1 -1 -1 -1 -1 -1 -1 -1 -1 -1 -1 -1 -1 -1 -1 -1
 MicOpt= -1 -1 -1 -1
 NAtoms=     44 NQM=       44 NQMF=       0 NMMI=      0 NMMIF=      0
                NMic=       0 NMicF=      0.
                    Isotopes and Nuclear Properties:
 (Nuclear quadrupole moments (NQMom) in fm**2, nuclear magnetic moments (NMagM)
  in nuclear magnetons)

  Atom         1           2           3           4           5           6           7           8           9          10
 IAtWgt=          12          12          12          12          12          12           1           1           1           1
 AtmWgt=  12.0000000  12.0000000  12.0000000  12.0000000  12.0000000  12.0000000   1.0078250   1.0078250   1.0078250   1.0078250
 NucSpn=           0           0           0           0           0           0           1           1           1           1
 AtZEff=  -0.0000000  -0.0000000  -0.0000000  -0.0000000  -0.0000000  -0.0000000  -0.0000000  -0.0000000  -0.0000000  -0.0000000
 NQMom=    0.0000000   0.0000000   0.0000000   0.0000000   0.0000000   0.0000000   0.0000000   0.0000000   0.0000000   0.0000000
 NMagM=    0.0000000   0.0000000   0.0000000   0.0000000   0.0000000   0.0000000   2.7928460   2.7928460   2.7928460   2.7928460
 AtZNuc=   6.0000000   6.0000000   6.0000000   6.0000000   6.0000000   6.0000000   1.0000000   1.0000000   1.0000000   1.0000000

  Atom        11          12          13          14          15          16          17          18          19          20
 IAtWgt=          12          12          12          12          12          12           1           1           1           1
 AtmWgt=  12.0000000  12.0000000  12.0000000  12.0000000  12.0000000  12.0000000   1.0078250   1.0078250   1.0078250   1.0078250
 NucSpn=           0           0           0           0           0           0           1           1           1           1
 AtZEff=  -0.0000000  -0.0000000  -0.0000000  -0.0000000  -0.0000000  -0.0000000  -0.0000000  -0.0000000  -0.0000000  -0.0000000
 NQMom=    0.0000000   0.0000000   0.0000000   0.0000000   0.0000000   0.0000000   0.0000000   0.0000000   0.0000000   0.0000000
 NMagM=    0.0000000   0.0000000   0.0000000   0.0000000   0.0000000   0.0000000   2.7928460   2.7928460   2.7928460   2.7928460
 AtZNuc=   6.0000000   6.0000000   6.0000000   6.0000000   6.0000000   6.0000000   1.0000000   1.0000000   1.0000000   1.0000000

  Atom        21          22          23          24          25          26          27          28          29          30
 IAtWgt=           1          14          12          12          12          12          12          12           1           1
 AtmWgt=   1.0078250  14.0030740  12.0000000  12.0000000  12.0000000  12.0000000  12.0000000  12.0000000   1.0078250   1.0078250
 NucSpn=           1           2           0           0           0           0           0           0           1           1
 AtZEff=  -0.0000000  -0.0000000  -0.0000000  -0.0000000  -0.0000000  -0.0000000  -0.0000000  -0.0000000  -0.0000000  -0.0000000
 NQMom=    0.0000000   2.0440000   0.0000000   0.0000000   0.0000000   0.0000000   0.0000000   0.0000000   0.0000000   0.0000000
 NMagM=    2.7928460   0.4037610   0.0000000   0.0000000   0.0000000   0.0000000   0.0000000   0.0000000   2.7928460   2.7928460
 AtZNuc=   1.0000000   7.0000000   6.0000000   6.0000000   6.0000000   6.0000000   6.0000000   6.0000000   1.0000000   1.0000000

  Atom        31          32          33          34          35          36          37          38          39          40
 IAtWgt=           1           1           1          12          12          12          12          12          12           1
 AtmWgt=   1.0078250   1.0078250   1.0078250  12.0000000  12.0000000  12.0000000  12.0000000  12.0000000  12.0000000   1.0078250
 NucSpn=           1           1           1           0           0           0           0           0           0           1
 AtZEff=  -0.0000000  -0.0000000  -0.0000000  -0.0000000  -0.0000000  -0.0000000  -0.0000000  -0.0000000  -0.0000000  -0.0000000
 NQMom=    0.0000000   0.0000000   0.0000000   0.0000000   0.0000000   0.0000000   0.0000000   0.0000000   0.0000000   0.0000000
 NMagM=    2.7928460   2.7928460   2.7928460   0.0000000   0.0000000   0.0000000   0.0000000   0.0000000   0.0000000   2.7928460
 AtZNuc=   1.0000000   1.0000000   1.0000000   6.0000000   6.0000000   6.0000000   6.0000000   6.0000000   6.0000000   1.0000000

  Atom        41          42          43          44
 IAtWgt=           1           1           1           1
 AtmWgt=   1.0078250   1.0078250   1.0078250   1.0078250
 NucSpn=           1           1           1           1
 AtZEff=  -0.0000000  -0.0000000  -0.0000000  -0.0000000
 NQMom=    0.0000000   0.0000000   0.0000000   0.0000000
 NMagM=    2.7928460   2.7928460   2.7928460   2.7928460
 AtZNuc=   1.0000000   1.0000000   1.0000000   1.0000000
 Leave Link  101 at Sun Jan 17 13:00:28 2021, MaxMem=  4026531840 cpu:               0.6 elap:               0.1
 (Enter /opt/ohpc/pub/libs/gaussian/g16-A.03/sandybridge/g16/l202.exe)
                          Input orientation:                          
 ---------------------------------------------------------------------
 Center     Atomic      Atomic             Coordinates (Angstroms)
 Number     Number       Type             X           Y           Z
 ---------------------------------------------------------------------
      1          6           0        6.129184    1.201496   -0.030856
      2          6           0        6.830271    0.000001    0.000182
      3          6           0        4.738958    1.200713   -0.032197
      4          6           0        6.129235   -1.201473    0.031153
      5          6           0        4.021751   -0.000032    0.000031
      6          6           0        4.738962   -1.200719    0.032361
      7          1           0        7.919539    0.000045    0.000190
      8          1           0        4.198073    2.145454   -0.081149
      9          1           0        6.668779   -2.147537    0.063412
     10          1           0        4.198148   -2.145504    0.081256
     11          6           0        2.536892   -0.000014   -0.000063
     12          6           0        1.813363   -0.924286   -0.760077
     13          6           0        1.813258    0.924290    0.759786
     14          6           0        0.426027   -0.922473   -0.771159
     15          6           0        0.425899    0.922498    0.770636
     16          6           0       -0.288344    0.000018   -0.000311
     17          1           0        2.347573   -1.638662   -1.386050
     18          1           0        2.347350    1.638674    1.385851
     19          1           0       -0.115370   -1.638494   -1.387158
     20          1           0       -0.115571    1.638578    1.386504
     21          1           0        6.668762    2.147543   -0.063006
     22          7           0       -1.704382   -0.000003   -0.000499
     23          6           0       -2.414266    1.227770    0.004035
     24          6           0       -3.559402    1.382015    0.792108
     25          6           0       -1.979956    2.301413   -0.780170
     26          6           0       -4.257371    2.583383    0.786193
     27          6           0       -2.673527    3.505213   -0.765830
     28          6           0       -3.817854    3.653503    0.012423
     29          1           0       -3.900046    0.551242    1.407814
     30          1           0       -1.092486    2.185578   -1.400082
     31          1           0       -5.147916    2.686607    1.405370
     32          1           0       -2.321511    4.331764   -1.382280
     33          1           0       -4.363183    4.595952    0.015664
     34          6           0       -2.414241   -1.227791   -0.004406
     35          6           0       -3.559682   -1.382189   -0.792032
     36          6           0       -1.979686   -2.301249    0.779869
     37          6           0       -4.257673   -2.583532   -0.785597
     38          6           0       -2.673287   -3.505060    0.766028
     39          6           0       -3.817885   -3.653507   -0.011769
     40          1           0       -3.900521   -0.551523   -1.407763
     41          1           0       -1.092008   -2.185299    1.399468
     42          1           0       -5.148466   -2.686887   -1.404399
     43          1           0       -2.321010   -4.331477    1.382521
     44          1           0       -4.363223   -4.595951   -0.014691
 ---------------------------------------------------------------------
                    Distance matrix (angstroms):
                    1          2          3          4          5
     1  C    0.000000
     2  C    1.391430   0.000000
     3  C    1.390227   2.411711   0.000000
     4  C    2.403769   1.391384   2.776217   0.000000
     5  C    2.426087   2.808520   1.399004   2.426091   0.000000
     6  C    2.776212   2.411708   2.402300   1.390274   1.398959
     7  H    2.156344   1.089268   3.399816   2.156338   3.897788
     8  H    2.150064   3.396770   1.089719   3.865737   2.154249
     9  H    3.393534   2.154529   3.865764   1.089580   3.409186
    10  H    3.865731   3.396739   3.391536   2.150070   2.154243
    11  C    3.788025   4.293379   2.508361   3.788061   1.484859
    12  C    4.865904   5.157680   3.688433   4.396547   2.511770
    13  C    4.396496   5.157686   3.043578   4.865946   2.511780
    14  C    6.130685   6.516154   4.863677   5.766119   3.791420
    15  C    5.766081   6.516178   4.395955   6.130753   3.791444
    16  C    6.529100   7.118615   5.168796   6.529157   4.310095
    17  H    4.919718   4.970054   3.951416   4.062089   2.721985
    18  H    4.062075   4.970101   2.814686   4.919786   2.722035
    19  H    6.992822   7.269890   5.784593   6.418542   4.660968
    20  H    6.418482   7.269907   5.076504   6.992887   4.660985
    21  H    1.089579   2.154533   2.149786   3.393503   3.409211
    22  N    7.925230   8.534653   6.554339   7.925282   5.726133
    23  C    8.543562   9.325712   7.153367   8.882194   6.552086
    24  C    9.725151  10.511062   8.341171  10.056001   7.746697
    25  C    8.217630   9.139231   6.849439   8.870594   6.475017
    26  C   10.509886  11.411726   9.138680  11.080470   8.708384
    27  C    9.128802  10.158517   7.797042  10.013825   7.596054
    28  C   10.244890  11.257477   8.901528  11.068682   8.649155
    29  H   10.152736  10.836282   8.782245  10.273932   8.064777
    30  H    7.415910   8.337120   6.070157   8.103937   5.735209
    31  H   11.464785  12.355945  10.100731  12.007488   9.657940
    32  H    9.112583  10.219124   7.840690  10.199491   7.804628
    33  H   11.027886  12.100265   9.714881  11.987544   9.561926
    34  C    8.882131   9.325690   7.554248   8.543591   6.552053
    35  C   10.056289  10.511383   8.724457   9.725503   7.746990
    36  C    8.870190   9.138873   7.619932   8.217340   6.474642
    37  C   11.080743  11.412037   9.789152  10.510234   8.708648
    38  C   10.013500  10.158228   8.816056   9.128579   7.595756
    39  C   11.068677  11.257508   9.837857  10.244975   8.649157
    40  H   10.274431  10.836807   8.922058  10.153271   8.065260
    41  H    8.103198   8.336429   6.893106   7.415292   5.734488
    42  H   12.007978  12.356470  10.712494  11.465331   9.658390
    43  H   10.198882  10.218537   9.080182   9.112067   7.804057
    44  H   11.987546  12.100302  10.791261  11.027976   9.561929
                    6          7          8          9         10
     6  C    0.000000
     7  H    3.399844   0.000000
     8  H    3.391507   4.296360   0.000000
     9  H    2.149796   2.486062   4.955306   0.000000
    10  H    1.089720   4.296359   4.294030   2.470696   0.000000
    11  C    2.508357   5.382647   2.714614   4.657078   2.714684
    12  C    3.043600   6.222361   3.946022   5.074401   2.808276
    13  C    3.688435   6.222370   2.808159   5.787672   3.946104
    14  C    4.395961   7.589383   4.910868   6.416326   4.056022
    15  C    4.863704   7.589410   4.055916   6.992770   4.910982
    16  C    5.168814   8.207883   4.973667   7.281319   4.973784
    17  H    2.814680   5.971083   4.409836   4.586144   2.415472
    18  H    3.951442   5.971135   2.415386   5.895675   4.409923
    19  H    5.076536   8.316809   5.884702   6.956145   4.584729
    20  H    5.784618   8.316829   4.584589   7.881158   5.884821
    21  H    3.865758   2.485998   2.470756   4.296940   4.955300
    22  N    6.554348   9.623921   6.280801   8.644409   6.280901
    23  C    7.554272  10.406481   6.676258   9.690094   7.423541
    24  C    8.724138  11.588920   7.843713  10.844557   8.551508
    25  C    7.620301  10.193393   6.219405   9.762449   7.660685
    26  C    9.788856  12.472713   8.511087  11.928318   9.713656
    27  C    8.816343  11.184187   7.038226  10.950795   8.936894
    28  C    9.837834  12.292856   8.157086  11.984329   9.893913
    29  H    8.921530  11.915864   8.386779  10.990491   8.637878
    30  H    6.893815   9.378375   5.452633   9.008603   6.995959
    31  H   10.711994  13.414564   9.478929  12.837604  10.604315
    32  H    9.080741  11.205093   6.998419  11.175718   9.306067
    33  H   10.791233  13.114414   8.905584  12.929853  10.897152
    34  C    7.153349  10.406470   7.423434   9.129720   6.676318
    35  C    8.341466  11.589249   8.551747  10.292665   7.844056
    36  C    6.849100  10.193062   7.660237   8.679452   6.219160
    37  C    9.138964  12.473044   9.713866  10.968056   8.511417
    38  C    7.796774  11.183927   8.936532   9.466295   7.038034
    39  C    8.901559  12.292913   9.893854  10.594514   8.157175
    40  H    8.782715  11.916391   8.638334  10.789890   8.387276
    41  H    6.069480   9.377723   6.995184   7.875042   5.452065
    42  H   10.101198  13.415112  10.604730  11.920262   9.479423
    43  H    7.840139  11.204542   9.305450   9.344835   6.997942
    44  H    9.714916  13.114482  10.897098  11.300703   8.905671
                   11         12         13         14         15
    11  C    0.000000
    12  C    1.398354   0.000000
    13  C    1.398340   2.393160   0.000000
    14  C    2.429253   1.387381   2.771053   0.000000
    15  C    2.429258   2.771056   1.387403   2.404381   0.000000
    16  C    2.825236   2.418420   2.418420   1.398400   1.398382
    17  H    2.154523   1.089750   3.385089   2.140878   3.860527
    18  H    2.154526   3.385102   1.089750   3.860524   2.140881
    19  H    3.412205   2.150194   3.859642   1.088693   3.392304
    20  H    3.412200   3.859646   2.150201   3.392318   1.088694
    21  H    4.657071   5.787654   5.074372   6.992726   6.416310
    22  N    4.241274   3.715614   3.715662   2.446121   2.446171
    23  C    5.101121   4.805004   4.305255   3.645783   2.957601
    24  C    6.300979   6.049372   5.392220   4.861904   4.011763
    25  C    5.129040   4.979438   4.319306   4.022720   3.177191
    26  C    7.311234   7.179729   6.293316   6.053973   4.969084
    27  C    6.326253   6.304972   5.396286   5.404782   4.317127
    28  C    7.330153   7.298186   6.302109   6.289999   5.103206
    29  H    6.612123   6.286492   5.762026   5.063069   4.388351
    30  H    4.461978   4.304047   3.833957   3.515879   2.934771
    31  H    8.261322   8.135546   7.209749   6.987959   5.880679
    32  H    6.654240   6.716426   5.770237   5.960658   4.879181
    33  H    8.290608   8.320128   7.223797   7.349057   6.082726
    34  C    5.101095   4.305321   4.804913   2.957744   3.645659
    35  C    6.301257   5.392616   6.049502   4.012188   4.861931
    36  C    5.128689   4.319107   4.979049   3.177132   4.022371
    37  C    7.311480   6.293745   7.179779   4.969544   6.053921
    38  C    6.325995   5.396241   6.304623   4.317227   5.404465
    39  C    7.330166   6.302346   7.298034   5.103529   6.289808
    40  H    6.612569   5.762545   6.286777   4.388837   5.063207
    41  H    4.461286   3.833402   4.303406   2.934413   3.515377
    42  H    8.261729   7.210338   8.135717   5.881252   6.987988
    43  H    6.653745   5.769984   6.715881   4.879125   5.960215
    44  H    8.290623   7.224053   8.319964   6.083058   7.348858
                   16         17         18         19         20
    16  C    0.000000
    17  H    3.399059   0.000000
    18  H    3.399047   4.292361   0.000000
    19  H    2.153598   2.462943   4.949182   0.000000
    20  H    2.153598   4.949185   2.462921   4.293297   0.000000
    21  H    7.281285   5.895631   4.586146   7.881110   6.956098
    22  N    1.416038   4.585117   4.585167   2.670662   2.670776
    23  C    2.454982   5.729213   4.975062   3.928843   2.713666
    24  C    3.638360   6.982923   5.942064   5.072872   3.504155
    25  C    2.960769   5.883773   4.884306   4.400907   2.934239
    26  C    4.800577   8.134469   6.698836   6.301101   4.290401
    27  C    4.308307   7.214954   5.772599   5.778230   3.828839
    28  C    5.079917   8.244709   6.629901   6.608513   4.433387
    29  H    3.915489   7.185687   6.341368   5.189469   3.937639
    30  H    2.717108   5.143833   4.460157   3.946954   3.003104
    31  H    5.727926   9.092983   7.568194   7.199391   5.140352
    32  H    4.980726   7.579337   6.059170   6.364830   4.448099
    33  H    6.142245   9.266578   7.460171   7.673340   5.354201
    34  C    2.454989   4.975201   5.729065   2.713943   3.928688
    35  C    3.638540   5.942583   6.982966   3.504733   5.072766
    36  C    2.960599   4.884199   5.883319   2.934438   4.400587
    37  C    4.800727   6.699448   8.134405   4.291113   6.300892
    38  C    4.308225   5.772687   7.214498   3.829258   5.777881
    39  C    5.079964   6.630318   8.244431   4.434026   6.608212
    40  H    3.915730   6.342005   7.185898   3.938185   5.189443
    41  H    2.716775   4.459668   5.143164   3.003015   3.946598
    42  H    5.728150   7.568997   9.093032   5.141156   7.199224
    43  H    4.980543   6.059035   7.578674   4.448385   6.364396
    44  H    6.142294   7.460628   9.266275   5.354855   7.673021
                   21         22         23         24         25
    21  H    0.000000
    22  N    8.644386   0.000000
    23  C    9.129725   1.418232   0.000000
    24  C   10.292356   2.445260   1.398638   0.000000
    25  C    8.679765   2.445474   1.398682   2.410809   0.000000
    26  C   10.967747   3.716251   2.417952   1.389417   2.778420
    27  C    9.466551   3.716384   2.417986   2.778474   1.389381
    28  C   10.594466   4.220786   2.802554   2.415443   2.415413
    29  H   10.789402   2.666113   2.153097   1.088722   3.396633
    30  H    7.875671   2.666461   2.153147   3.396628   1.088720
    31  H   11.919757   4.588275   3.400704   2.145094   3.867936
    32  H    9.345390   4.588504   3.400772   3.867991   2.145116
    33  H   11.300651   5.309641   3.891409   3.402693   3.402651
    34  C    9.690060   1.418231   2.455576   2.959209   3.639463
    35  C   10.844886   2.445220   2.959322   3.185957   4.008067
    36  C    9.762061   2.445506   3.639334   4.007753   4.859858
    37  C   11.928629   3.716221   4.306703   4.324615   5.389871
    38  C   10.950484   3.716418   4.800771   4.966828   6.048683
    39  C   11.984347   4.220795   5.079100   5.105831   6.279291
    40  H   10.991045   2.666007   2.714408   2.948621   3.495953
    41  H    9.007880   2.666539   3.917223   4.379800   5.066543
    42  H   12.838143   4.588245   4.978361   4.889349   5.942411
    43  H   11.175117   4.588534   5.728363   5.875899   6.984897
    44  H   12.929878   5.309649   6.141214   6.085485   7.337544
                   26         27         28         29         30
    26  C    0.000000
    27  C    2.401480   0.000000
    28  C    1.391780   1.391816   0.000000
    29  H    2.154922   3.867172   3.402631   0.000000
    30  H    3.867111   2.154856   3.402588   4.293917   0.000000
    31  H    1.089544   3.392171   2.155053   2.473251   4.956622
    32  H    3.392148   1.089547   2.155058   4.956687   2.473244
    33  H    2.157625   2.157633   1.088855   4.302587   4.302522
    34  C    4.306649   4.800867   5.079118   2.714211   3.917402
    35  C    4.324734   4.967158   5.106074   2.948445   4.380153
    36  C    5.389575   6.048603   6.279085   3.495540   5.066648
    37  C    5.400698   6.291480   6.303244   3.842624   5.756771
    38  C    6.291174   7.175689   7.288551   4.286072   6.290813
    39  C    6.303070   7.288720   7.307050   4.438680   6.591671
    40  H    3.842970   4.286572   4.439145   3.023833   3.921332
    41  H    5.756384   6.290600   6.591338   3.920944   5.190573
    42  H    5.776547   6.698895   6.631626   4.466830   6.339709
    43  H    7.205580   8.133473   8.238787   5.131758   7.191951
    44  H    7.224642   8.309521   8.267506   5.360191   7.655466
                   31         32         33         34         35
    31  H    0.000000
    32  H    4.297220   0.000000
    33  H    2.488511   2.488467   0.000000
    34  C    4.978249   5.728507   6.141234   0.000000
    35  C    4.889393   5.876284   6.085734   1.398652   0.000000
    36  C    5.942023   6.984883   7.337333   1.398656   2.410795
    37  C    5.776438   7.205975   7.224828   2.417961   1.389409
    38  C    6.698454   8.133559   8.309344   2.417980   2.778458
    39  C    6.631313   8.239053   8.267507   2.802565   2.415443
    40  H    4.467124   5.132291   5.360662   2.153086   1.088716
    41  H    6.339234   7.191795   7.655120   2.153134   3.396627
    42  H    6.063764   7.566613   7.461434   3.400725   2.145103
    43  H    7.566070   9.093727   9.259469   3.400754   3.867983
    44  H    7.461097   9.259751   9.191953   3.891419   3.402676
                   36         37         38         39         40
    36  C    0.000000
    37  C    2.778415   0.000000
    38  C    1.389401   2.401465   0.000000
    39  C    2.415423   1.391787   1.391801   0.000000
    40  H    3.396599   2.154927   3.867150   3.402636   0.000000
    41  H    1.088724   3.867109   2.154869   3.402592   4.293893
    42  H    3.867934   1.089546   3.392149   2.155045   2.473289
    43  H    2.145115   3.392154   1.089554   2.155069   4.956671
    44  H    3.402680   2.157607   2.157649   1.088854   4.302574
                   41         42         43         44
    41  H    0.000000
    42  H    4.956623   0.000000
    43  H    2.473219   4.297221   0.000000
    44  H    4.302550   2.488457   2.488530   0.000000
 Stoichiometry    C24H19N
 Framework group  C1[X(C24H19N)]
 Deg. of freedom   126
 Full point group                 C1      NOp   1
 Largest Abelian subgroup         C1      NOp   1
 Largest concise Abelian subgroup C1      NOp   1
                         Standard orientation:                         
 ---------------------------------------------------------------------
 Center     Atomic      Atomic             Coordinates (Angstroms)
 Number     Number       Type             X           Y           Z
 ---------------------------------------------------------------------
      1          6           0       -6.129184    1.201496    0.030856
      2          6           0       -6.830271    0.000001   -0.000182
      3          6           0       -4.738958    1.200713    0.032197
      4          6           0       -6.129235   -1.201473   -0.031153
      5          6           0       -4.021751   -0.000032   -0.000031
      6          6           0       -4.738962   -1.200719   -0.032361
      7          1           0       -7.919539    0.000045   -0.000190
      8          1           0       -4.198073    2.145454    0.081149
      9          1           0       -6.668779   -2.147537   -0.063412
     10          1           0       -4.198148   -2.145504   -0.081256
     11          6           0       -2.536892   -0.000014    0.000063
     12          6           0       -1.813363   -0.924286    0.760077
     13          6           0       -1.813258    0.924290   -0.759786
     14          6           0       -0.426027   -0.922473    0.771159
     15          6           0       -0.425899    0.922498   -0.770636
     16          6           0        0.288344    0.000018    0.000311
     17          1           0       -2.347573   -1.638662    1.386050
     18          1           0       -2.347350    1.638674   -1.385851
     19          1           0        0.115370   -1.638494    1.387158
     20          1           0        0.115571    1.638578   -1.386504
     21          1           0       -6.668762    2.147543    0.063006
     22          7           0        1.704382   -0.000003    0.000499
     23          6           0        2.414266    1.227770   -0.004035
     24          6           0        3.559402    1.382015   -0.792108
     25          6           0        1.979956    2.301413    0.780170
     26          6           0        4.257371    2.583383   -0.786193
     27          6           0        2.673527    3.505213    0.765830
     28          6           0        3.817854    3.653503   -0.012423
     29          1           0        3.900046    0.551242   -1.407814
     30          1           0        1.092486    2.185578    1.400082
     31          1           0        5.147916    2.686607   -1.405370
     32          1           0        2.321511    4.331764    1.382280
     33          1           0        4.363183    4.595952   -0.015664
     34          6           0        2.414241   -1.227791    0.004406
     35          6           0        3.559682   -1.382189    0.792032
     36          6           0        1.979686   -2.301249   -0.779869
     37          6           0        4.257673   -2.583532    0.785597
     38          6           0        2.673287   -3.505060   -0.766028
     39          6           0        3.817885   -3.653507    0.011769
     40          1           0        3.900521   -0.551523    1.407763
     41          1           0        1.092008   -2.185299   -1.399468
     42          1           0        5.148466   -2.686887    1.404399
     43          1           0        2.321010   -4.331477   -1.382521
     44          1           0        4.363223   -4.595951    0.014691
 ---------------------------------------------------------------------
 Rotational constants (GHZ):           0.3772696           0.1165367           0.0926339
 Leave Link  202 at Sun Jan 17 13:00:28 2021, MaxMem=  4026531840 cpu:               0.3 elap:               0.1
 (Enter /opt/ohpc/pub/libs/gaussian/g16-A.03/sandybridge/g16/l301.exe)
 Standard basis: TZVP (5D, 7F)
 Ernie: Thresh=  0.10000D-02 Tol=  0.10000D-05 Strict=F.
 There are   614 symmetry adapted cartesian basis functions of A   symmetry.
 There are   589 symmetry adapted basis functions of A   symmetry.
   589 basis functions,  1027 primitive gaussians,   614 cartesian basis functions
    85 alpha electrons       85 beta electrons
       nuclear repulsion energy      1905.4959532784 Hartrees.
 IExCor=33909 DFT=T Ex+Corr=LC-wHPBE ExCW=0 ScaHFX=  1.000000
 ScaDFX=  1.000000  1.000000  1.000000  1.000000 ScalE2=  1.000000  1.000000
 IRadAn=      5 IRanWt=     -1 IRanGd=            0 ICorTp=0 IEmpDi=  4
 HFx  wShort=  0.000000 wLong=  0.171100 cFull=  0.000000 cShort=  0.000000 cLong=  1.000000
 DFx  wShort=  0.000000 wLong=  0.171100 cFull=  0.000000 cShort=  1.000000 cLong=  0.000000
 NAtoms=   44 NActive=   44 NUniq=   44 SFac= 1.00D+00 NAtFMM=   60 NAOKFM=F Big=F
 Integral buffers will be    131072 words long.
 Raffenetti 2 integral format.
 Two-electron integral symmetry is turned on.
 Leave Link  301 at Sun Jan 17 13:00:28 2021, MaxMem=  4026531840 cpu:               0.4 elap:               0.1
 (Enter /opt/ohpc/pub/libs/gaussian/g16-A.03/sandybridge/g16/l302.exe)
 NPDir=0 NMtPBC=     1 NCelOv=     1 NCel=       1 NClECP=     1 NCelD=      1
         NCelK=      1 NCelE2=     1 NClLst=     1 CellRange=     0.0.
 One-electron integrals computed using PRISM.
 One-electron integral symmetry used in STVInt
 NBasis=   589 RedAO= T EigKep=  7.25D-06  NBF=   589
 NBsUse=   589 1.00D-06 EigRej= -1.00D+00 NBFU=   589
 Precomputing XC quadrature grid using
 IXCGrd= 4 IRadAn=           5 IRanWt=          -1 IRanGd=           0 AccXCQ= 0.00D+00.
 Generated NRdTot=       0 NPtTot=           0 NUsed=           0 NTot=          32
 NSgBfM=   586   586   586   586   586 MxSgAt=    44 MxSgA2=    44.
 Leave Link  302 at Sun Jan 17 13:00:29 2021, MaxMem=  4026531840 cpu:               9.2 elap:               1.2
 (Enter /opt/ohpc/pub/libs/gaussian/g16-A.03/sandybridge/g16/l303.exe)
 DipDrv:  MaxL=1.
 Leave Link  303 at Sun Jan 17 13:00:29 2021, MaxMem=  4026531840 cpu:               0.8 elap:               0.2
 (Enter /opt/ohpc/pub/libs/gaussian/g16-A.03/sandybridge/g16/l401.exe)
 ExpMin= 9.52D-02 ExpMax= 1.97D+04 ExpMxC= 6.73D+02 IAcc=3 IRadAn=         5 AccDes= 0.00D+00
 Harris functional with IExCor=33909 and IRadAn=       5 diagonalized for initial guess.
 HarFok:  IExCor=33909 AccDes= 0.00D+00 IRadAn=         5 IDoV= 1 UseB2=F ITyADJ=14
 ICtDFT=  3500011 ScaDFX=  1.000000  1.000000  1.000000  1.000000
 FoFCou: FMM=F IPFlag=           0 FMFlag=      100000 FMFlg1=           0
         NFxFlg=           0 DoJE=T BraDBF=F KetDBF=T FulRan=T
         wScrn=  0.000000 ICntrl=       500 IOpCl=  0 I1Cent=   200000004 NGrid=           0
         NMat0=    1 NMatS0=      1 NMatT0=    0 NMatD0=    1 NMtDS0=    0 NMtDT0=    0
 Petite list used in FoFCou.
 Harris En= -964.576894403658    
 JPrj=0 DoOrth=F DoCkMO=F.
 Leave Link  401 at Sun Jan 17 13:00:35 2021, MaxMem=  4026531840 cpu:              48.2 elap:               6.1
 (Enter /opt/ohpc/pub/libs/gaussian/g16-A.03/sandybridge/g16/l502.exe)
 Integral symmetry usage will be decided dynamically.
 Closed shell SCF:
 Using DIIS extrapolation, IDIIS=    10.
 NGot=  4026531840 LenX=  4025766914 LenY=  4025389304
 Requested convergence on RMS density matrix=1.00D-06 within  32 cycles.
 Requested convergence on MAX density matrix=1.00D-04.
 Requested convergence on             energy=1.00D-04.
 Virtual orbitals will be shifted by   0.500 hartree.
 No special actions if energy rises.
 Dynamic level shift is on during FON iterations.

 Cycle   1  Pass 1  IDiag  1:
 FoFJK:  IHMeth= 1 ICntrl=       0 DoSepK=T KAlg= 0 I1Cent=           0 FoldK=F
 IRaf=         1 NMat=       1 IRICut=       1 DoRegI=T DoRafI=F ISym2E= 0 IDoP0=0 IntGTp=1.
 FoFCou: FMM=F IPFlag=           0 FMFlag=      100000 FMFlg1=           0
         NFxFlg=           0 DoJE=T BraDBF=F KetDBF=F FulRan=T
         wScrn=  0.000000 ICntrl=       500 IOpCl=  0 I1Cent=           0 NGrid=           0
         NMat0=    1 NMatS0=      1 NMatT0=    0 NMatD0=    1 NMtDS0=    0 NMtDT0=    0
 Symmetry not used in FoFCou.
 E= -979.646718334300    
 DIIS: error= 3.41D-02 at cycle   1 NSaved=   1.
 NSaved= 1 IEnMin= 1 EnMin= -979.646718334300     IErMin= 1 ErrMin= 3.41D-02
 ErrMax= 3.41D-02  0.00D+00 EMaxC= 1.00D+00 BMatC= 4.19D-01 BMatP= 4.19D-01
 IDIUse=1 WtCom= 1.00D+00 WtEn= 0.00D+00
 Coeff-Com:  0.100D+01
 Coeff:      0.100D+01
 Gap=     0.289 Goal=   None    Shift=    0.500
 T= 1572. Gap= 0.740 NK=0 IS=   86 IE=  589 IFin=   85
          NO(<0.9)=   0  NV(>0.1)=   0     85.00e < EF      0.00e >EF  Err=0.0D+00
 GapD=    0.289 DampG=1.000 DampE=0.500 DampFc=0.5000 IDamp=-1.
 Damping current iteration by 5.00D-01
 RMSDP=2.36D-03 MaxDP=9.12D-02              OVMax= 7.92D-02

 Cycle   2  Pass 1  IDiag  1:
 E= -979.916406370835     Delta-E=       -0.269688036535 Rises=F Damp=T
 DIIS: error= 1.57D-02 at cycle   2 NSaved=   2.
 NSaved= 2 IEnMin= 2 EnMin= -979.916406370835     IErMin= 2 ErrMin= 1.57D-02
 ErrMax= 1.57D-02  0.00D+00 EMaxC= 1.00D+00 BMatC= 7.18D-02 BMatP= 4.19D-01
 IDIUse=1 WtCom= 1.00D+00 WtEn= 0.00D+00
 Coeff-Com: -0.564D+00 0.156D+01
 Coeff:     -0.564D+00 0.156D+01
 Gap=     0.269 Goal=   None    Shift=    0.500
 T= 1454. Gap= 0.738 NK=0 IS=   86 IE=  589 IFin=   85
          NO(<0.9)=   0  NV(>0.1)=   0     85.00e < EF      0.00e >EF  Err=0.0D+00
 GapD=    0.269 DampG=1.000 DampE=0.500 DampFc=0.5000 IDamp=-1.
 Damping current iteration by 5.00D-01
 RMSDP=1.35D-03 MaxDP=6.32D-02 DE=-2.70D-01 OVMax= 2.08D-02

 Cycle   3  Pass 1  IDiag  1:
 E= -980.008782407210     Delta-E=       -0.092376036375 Rises=F Damp=T
 DIIS: error= 7.29D-03 at cycle   3 NSaved=   3.
 NSaved= 3 IEnMin= 3 EnMin= -980.008782407210     IErMin= 3 ErrMin= 7.29D-03
 ErrMax= 7.29D-03  0.00D+00 EMaxC= 1.00D+00 BMatC= 1.37D-02 BMatP= 7.18D-02
 IDIUse=1 WtCom= 1.00D+00 WtEn= 0.00D+00
 Coeff-Com:  0.454D-01-0.855D+00 0.181D+01
 Coeff:      0.454D-01-0.855D+00 0.181D+01
 Gap=     0.254 Goal=   None    Shift=    0.500
 T= 1223. Gap= 0.751 NK=0 IS=   86 IE=  589 IFin=   85
          NO(<0.9)=   0  NV(>0.1)=   0     85.00e < EF      0.00e >EF  Err=0.0D+00
 GapD=    0.254 DampG=1.000 DampE=1.000 DampFc=1.0000 IDamp=-1.
 RMSDP=7.18D-04 MaxDP=3.78D-02 DE=-9.24D-02 OVMax= 1.13D-02

 Cycle   4  Pass 1  IDiag  1:
 E= -980.085048570569     Delta-E=       -0.076266163359 Rises=F Damp=F
 DIIS: error= 1.21D-03 at cycle   4 NSaved=   4.
 NSaved= 4 IEnMin= 4 EnMin= -980.085048570569     IErMin= 4 ErrMin= 1.21D-03
 ErrMax= 1.21D-03  0.00D+00 EMaxC= 1.00D+00 BMatC= 6.18D-04 BMatP= 1.37D-02
 IDIUse=1 WtCom= 1.00D+00 WtEn= 0.00D+00
 Coeff-Com:  0.813D-01-0.248D+00 0.246D+00 0.920D+00
 Coeff:      0.813D-01-0.248D+00 0.246D+00 0.920D+00
 Gap=     0.248 Goal=   None    Shift=    0.500
 T=  709. Gap= 0.748 NK=0 IS=   86 IE=  589 IFin=   85
          NO(<0.9)=   0  NV(>0.1)=   0     85.00e < EF      0.00e >EF  Err=0.0D+00
 GapD=    0.248 DampG=1.000 DampE=1.000 DampFc=1.0000 IDamp=-1.
 RMSDP=1.81D-04 MaxDP=8.36D-03 DE=-7.63D-02 OVMax= 5.26D-03

 Cycle   5  Pass 1  IDiag  1:
 E= -980.085698393221     Delta-E=       -0.000649822652 Rises=F Damp=F
 DIIS: error= 4.29D-04 at cycle   5 NSaved=   5.
 NSaved= 5 IEnMin= 5 EnMin= -980.085698393221     IErMin= 5 ErrMin= 4.29D-04
 ErrMax= 4.29D-04  0.00D+00 EMaxC= 1.00D+00 BMatC= 8.87D-05 BMatP= 6.18D-04
 IDIUse=1 WtCom= 1.00D+00 WtEn= 0.00D+00
 Coeff-Com:  0.176D-01-0.515D-02-0.603D-01-0.174D+00 0.122D+01
 Coeff:      0.176D-01-0.515D-02-0.603D-01-0.174D+00 0.122D+01
 Gap=     0.249 Goal=   None    Shift=    0.500
 RMSDP=1.31D-04 MaxDP=5.73D-03 DE=-6.50D-04 OVMax= 4.10D-03

 Cycle   6  Pass 1  IDiag  1:
 E= -980.085855854018     Delta-E=       -0.000157460798 Rises=F Damp=F
 DIIS: error= 4.08D-04 at cycle   6 NSaved=   6.
 NSaved= 6 IEnMin= 6 EnMin= -980.085855854018     IErMin= 6 ErrMin= 4.08D-04
 ErrMax= 4.08D-04  0.00D+00 EMaxC= 1.00D+00 BMatC= 1.75D-05 BMatP= 8.87D-05
 IDIUse=1 WtCom= 1.00D+00 WtEn= 0.00D+00
 Coeff-Com: -0.974D-02 0.419D-01-0.591D-01-0.226D+00 0.983D-01 0.115D+01
 Coeff:     -0.974D-02 0.419D-01-0.591D-01-0.226D+00 0.983D-01 0.115D+01
 Gap=     0.249 Goal=   None    Shift=    0.500
 RMSDP=7.83D-05 MaxDP=3.75D-03 DE=-1.57D-04 OVMax= 3.46D-03

 Cycle   7  Pass 1  IDiag  1:
 E= -980.085909031648     Delta-E=       -0.000053177630 Rises=F Damp=F
 DIIS: error= 2.85D-04 at cycle   7 NSaved=   7.
 NSaved= 7 IEnMin= 7 EnMin= -980.085909031648     IErMin= 7 ErrMin= 2.85D-04
 ErrMax= 2.85D-04  0.00D+00 EMaxC= 1.00D+00 BMatC= 5.29D-06 BMatP= 1.75D-05
 IDIUse=1 WtCom= 1.00D+00 WtEn= 0.00D+00
 Coeff-Com: -0.609D-02 0.665D-02 0.586D-02 0.239D-01-0.316D+00-0.433D+00
 Coeff-Com:  0.172D+01
 Coeff:     -0.609D-02 0.665D-02 0.586D-02 0.239D-01-0.316D+00-0.433D+00
 Coeff:      0.172D+01
 Gap=     0.249 Goal=   None    Shift=    0.500
 RMSDP=4.42D-05 MaxDP=2.06D-03 DE=-5.32D-05 OVMax= 2.74D-03

 Cycle   8  Pass 1  IDiag  1:
 E= -980.085932972458     Delta-E=       -0.000023940810 Rises=F Damp=F
 DIIS: error= 2.01D-04 at cycle   8 NSaved=   8.
 NSaved= 8 IEnMin= 8 EnMin= -980.085932972458     IErMin= 8 ErrMin= 2.01D-04
 ErrMax= 2.01D-04  0.00D+00 EMaxC= 1.00D+00 BMatC= 2.19D-06 BMatP= 5.29D-06
 IDIUse=1 WtCom= 1.00D+00 WtEn= 0.00D+00
 Coeff-Com:  0.219D-02-0.821D-02 0.911D-02 0.751D-01-0.567D-01-0.419D+00
 Coeff-Com: -0.660D+00 0.206D+01
 Coeff:      0.219D-02-0.821D-02 0.911D-02 0.751D-01-0.567D-01-0.419D+00
 Coeff:     -0.660D+00 0.206D+01
 Gap=     0.249 Goal=   None    Shift=    0.500
 RMSDP=2.08D-05 MaxDP=9.35D-04 DE=-2.39D-05 OVMax= 2.08D-03

 Cycle   9  Pass 1  IDiag  1:
 E= -980.085944312572     Delta-E=       -0.000011340114 Rises=F Damp=F
 DIIS: error= 1.42D-04 at cycle   9 NSaved=   9.
 NSaved= 9 IEnMin= 9 EnMin= -980.085944312572     IErMin= 9 ErrMin= 1.42D-04
 ErrMax= 1.42D-04  0.00D+00 EMaxC= 1.00D+00 BMatC= 9.94D-07 BMatP= 2.19D-06
 IDIUse=1 WtCom= 1.00D+00 WtEn= 0.00D+00
 Coeff-Com:  0.221D-02-0.855D-04-0.701D-02 0.358D-01 0.882D-01-0.107D+00
 Coeff-Com: -0.927D+00 0.354D+00 0.156D+01
 Coeff:      0.221D-02-0.855D-04-0.701D-02 0.358D-01 0.882D-01-0.107D+00
 Coeff:     -0.927D+00 0.354D+00 0.156D+01
 Gap=     0.249 Goal=   None    Shift=    0.500
 RMSDP=9.02D-06 MaxDP=4.03D-04 DE=-1.13D-05 OVMax= 1.48D-03

 Cycle  10  Pass 1  IDiag  1:
 E= -980.085949490270     Delta-E=       -0.000005177698 Rises=F Damp=F
 DIIS: error= 9.58D-05 at cycle  10 NSaved=  10.
 NSaved=10 IEnMin=10 EnMin= -980.085949490270     IErMin=10 ErrMin= 9.58D-05
 ErrMax= 9.58D-05  0.00D+00 EMaxC= 1.00D+00 BMatC= 4.57D-07 BMatP= 9.94D-07
 IDIUse=1 WtCom= 1.00D+00 WtEn= 0.00D+00
 Coeff-Com: -0.553D-03 0.806D-02-0.139D-01-0.328D-02 0.692D-01 0.774D-01
 Coeff-Com: -0.158D+00-0.716D+00-0.214D+00 0.195D+01
 Coeff:     -0.553D-03 0.806D-02-0.139D-01-0.328D-02 0.692D-01 0.774D-01
 Coeff:     -0.158D+00-0.716D+00-0.214D+00 0.195D+01
 Gap=     0.249 Goal=   None    Shift=    0.500
 RMSDP=4.67D-06 MaxDP=1.31D-04 DE=-5.18D-06 OVMax= 1.05D-03

 Cycle  11  Pass 1  IDiag  1:
 E= -980.085951837205     Delta-E=       -0.000002346935 Rises=F Damp=F
 DIIS: error= 6.71D-05 at cycle  11 NSaved=  11.
 NSaved=11 IEnMin=11 EnMin= -980.085951837205     IErMin=11 ErrMin= 6.71D-05
 ErrMax= 6.71D-05  0.00D+00 EMaxC= 1.00D+00 BMatC= 2.16D-07 BMatP= 4.57D-07
 IDIUse=1 WtCom= 1.00D+00 WtEn= 0.00D+00
 Coeff-Com: -0.100D-02 0.467D-02-0.563D-02-0.160D-02-0.522D-02 0.346D-01
 Coeff-Com:  0.178D+00-0.247D+00-0.738D+00-0.212D+00 0.199D+01
 Coeff:     -0.100D-02 0.467D-02-0.563D-02-0.160D-02-0.522D-02 0.346D-01
 Coeff:      0.178D+00-0.247D+00-0.738D+00-0.212D+00 0.199D+01
 Gap=     0.249 Goal=   None    Shift=    0.500
 RMSDP=2.95D-06 MaxDP=8.41D-05 DE=-2.35D-06 OVMax= 7.06D-04

 Cycle  12  Pass 1  IDiag  1:
 E= -980.085952856287     Delta-E=       -0.000001019082 Rises=F Damp=F
 DIIS: error= 4.72D-05 at cycle  12 NSaved=  12.
 NSaved=12 IEnMin=12 EnMin= -980.085952856287     IErMin=12 ErrMin= 4.72D-05
 ErrMax= 4.72D-05  0.00D+00 EMaxC= 1.00D+00 BMatC= 1.03D-07 BMatP= 2.16D-07
 IDIUse=1 WtCom= 1.00D+00 WtEn= 0.00D+00
 Coeff-Com: -0.498D-03 0.109D-02-0.317D-03 0.408D-02-0.277D-01-0.707D-02
 Coeff-Com:  0.138D+00 0.162D+00-0.503D+00-0.873D+00 0.607D+00 0.150D+01
 Coeff:     -0.498D-03 0.109D-02-0.317D-03 0.408D-02-0.277D-01-0.707D-02
 Coeff:      0.138D+00 0.162D+00-0.503D+00-0.873D+00 0.607D+00 0.150D+01
 Gap=     0.249 Goal=   None    Shift=    0.500
 RMSDP=1.77D-06 MaxDP=5.26D-05 DE=-1.02D-06 OVMax= 4.73D-04

 Cycle  13  Pass 1  IDiag  1:
 E= -980.085953296829     Delta-E=       -0.000000440542 Rises=F Damp=F
 DIIS: error= 3.26D-05 at cycle  13 NSaved=  13.
 NSaved=13 IEnMin=13 EnMin= -980.085953296829     IErMin=13 ErrMin= 3.26D-05
 ErrMax= 3.26D-05  0.00D+00 EMaxC= 1.00D+00 BMatC= 4.69D-08 BMatP= 1.03D-07
 IDIUse=1 WtCom= 1.00D+00 WtEn= 0.00D+00
 Coeff-Com:  0.204D-03-0.472D-03 0.246D-03 0.433D-02-0.230D-02-0.138D-01
 Coeff-Com: -0.803D-01 0.199D+00 0.132D+00-0.638D-01-0.976D+00-0.782D+00
 Coeff-Com:  0.258D+01
 Coeff:      0.204D-03-0.472D-03 0.246D-03 0.433D-02-0.230D-02-0.138D-01
 Coeff:     -0.803D-01 0.199D+00 0.132D+00-0.638D-01-0.976D+00-0.782D+00
 Coeff:      0.258D+01
 Gap=     0.249 Goal=   None    Shift=    0.500
 RMSDP=1.14D-06 MaxDP=3.61D-05 DE=-4.41D-07 OVMax= 3.11D-04

 Cycle  14  Pass 1  IDiag  1:
 E= -980.085953483243     Delta-E=       -0.000000186414 Rises=F Damp=F
 DIIS: error= 2.25D-05 at cycle  14 NSaved=  14.
 NSaved=14 IEnMin=14 EnMin= -980.085953483243     IErMin=14 ErrMin= 2.25D-05
 ErrMax= 2.25D-05  0.00D+00 EMaxC= 1.00D+00 BMatC= 2.31D-08 BMatP= 4.69D-08
 IDIUse=1 WtCom= 1.00D+00 WtEn= 0.00D+00
 Coeff-Com:  0.222D-03-0.363D-03-0.580D-04 0.281D-02 0.264D-02-0.781D-02
 Coeff-Com: -0.824D-01 0.125D+00 0.190D+00 0.991D-01-0.891D+00-0.855D+00
 Coeff-Com:  0.131D+01 0.110D+01
 Coeff:      0.222D-03-0.363D-03-0.580D-04 0.281D-02 0.264D-02-0.781D-02
 Coeff:     -0.824D-01 0.125D+00 0.190D+00 0.991D-01-0.891D+00-0.855D+00
 Coeff:      0.131D+01 0.110D+01
 Gap=     0.249 Goal=   None    Shift=    0.500
 RMSDP=7.06D-07 MaxDP=2.06D-05 DE=-1.86D-07 OVMax= 2.05D-04

 SCF Done:  E(RLC-wHPBE) =  -980.085953483     A.U. after   14 cycles
            NFock= 14  Conv=0.71D-06     -V/T= 2.0048
 KE= 9.754407747950D+02 PE=-6.086315810051D+03 EE= 2.225293128494D+03
 Leave Link  502 at Sun Jan 17 13:10:07 2021, MaxMem=  4026531840 cpu:            4563.1 elap:             572.1
 (Enter /opt/ohpc/pub/libs/gaussian/g16-A.03/sandybridge/g16/l508.exe)
 QCSCF skips out because SCF is already converged.
 Leave Link  508 at Sun Jan 17 13:10:07 2021, MaxMem=  4026531840 cpu:               0.1 elap:               0.0
 (Enter /opt/ohpc/pub/libs/gaussian/g16-A.03/sandybridge/g16/l601.exe)
 Copying SCF densities to generalized density rwf, IOpCl= 0 IROHF=0.

 **********************************************************************

            Population analysis using the SCF density.

 **********************************************************************

 Orbital symmetries:
       Occupied  (A) (A) (A) (A) (A) (A) (A) (A) (A) (A) (A) (A)
                 (A) (A) (A) (A) (A) (A) (A) (A) (A) (A) (A) (A)
                 (A) (A) (A) (A) (A) (A) (A) (A) (A) (A) (A) (A)
                 (A) (A) (A) (A) (A) (A) (A) (A) (A) (A) (A) (A)
                 (A) (A) (A) (A) (A) (A) (A) (A) (A) (A) (A) (A)
                 (A) (A) (A) (A) (A) (A) (A) (A) (A) (A) (A) (A)
                 (A) (A) (A) (A) (A) (A) (A) (A) (A) (A) (A) (A)
                 (A)
       Virtual   (A) (A) (A) (A) (A) (A) (A) (A) (A) (A) (A) (A)
                 (A) (A) (A) (A) (A) (A) (A) (A) (A) (A) (A) (A)
                 (A) (A) (A) (A) (A) (A) (A) (A) (A) (A) (A) (A)
                 (A) (A) (A) (A) (A) (A) (A) (A) (A) (A) (A) (A)
                 (A) (A) (A) (A) (A) (A) (A) (A) (A) (A) (A) (A)
                 (A) (A) (A) (A) (A) (A) (A) (A) (A) (A) (A) (A)
                 (A) (A) (A) (A) (A) (A) (A) (A) (A) (A) (A) (A)
                 (A) (A) (A) (A) (A) (A) (A) (A) (A) (A) (A) (A)
                 (A) (A) (A) (A) (A) (A) (A) (A) (A) (A) (A) (A)
                 (A) (A) (A) (A) (A) (A) (A) (A) (A) (A) (A) (A)
                 (A) (A) (A) (A) (A) (A) (A) (A) (A) (A) (A) (A)
                 (A) (A) (A) (A) (A) (A) (A) (A) (A) (A) (A) (A)
                 (A) (A) (A) (A) (A) (A) (A) (A) (A) (A) (A) (A)
                 (A) (A) (A) (A) (A) (A) (A) (A) (A) (A) (A) (A)
                 (A) (A) (A) (A) (A) (A) (A) (A) (A) (A) (A) (A)
                 (A) (A) (A) (A) (A) (A) (A) (A) (A) (A) (A) (A)
                 (A) (A) (A) (A) (A) (A) (A) (A) (A) (A) (A) (A)
                 (A) (A) (A) (A) (A) (A) (A) (A) (A) (A) (A) (A)
                 (A) (A) (A) (A) (A) (A) (A) (A) (A) (A) (A) (A)
                 (A) (A) (A) (A) (A) (A) (A) (A) (A) (A) (A) (A)
                 (A) (A) (A) (A) (A) (A) (A) (A) (A) (A) (A) (A)
                 (A) (A) (A) (A) (A) (A) (A) (A) (A) (A) (A) (A)
                 (A) (A) (A) (A) (A) (A) (A) (A) (A) (A) (A) (A)
                 (A) (A) (A) (A) (A) (A) (A) (A) (A) (A) (A) (A)
                 (A) (A) (A) (A) (A) (A) (A) (A) (A) (A) (A) (A)
                 (A) (A) (A) (A) (A) (A) (A) (A) (A) (A) (A) (A)
                 (A) (A) (A) (A) (A) (A) (A) (A) (A) (A) (A) (A)
                 (A) (A) (A) (A) (A) (A) (A) (A) (A) (A) (A) (A)
                 (A) (A) (A) (A) (A) (A) (A) (A) (A) (A) (A) (A)
                 (A) (A) (A) (A) (A) (A) (A) (A) (A) (A) (A) (A)
                 (A) (A) (A) (A) (A) (A) (A) (A) (A) (A) (A) (A)
                 (A) (A) (A) (A) (A) (A) (A) (A) (A) (A) (A) (A)
                 (A) (A) (A) (A) (A) (A) (A) (A) (A) (A) (A) (A)
                 (A) (A) (A) (A) (A) (A) (A) (A) (A) (A) (A) (A)
                 (A) (A) (A) (A) (A) (A) (A) (A) (A) (A) (A) (A)
                 (A) (A) (A) (A) (A) (A) (A) (A) (A) (A) (A) (A)
                 (A) (A) (A) (A) (A) (A) (A) (A) (A) (A) (A) (A)
                 (A) (A) (A) (A) (A) (A) (A) (A) (A) (A) (A) (A)
                 (A) (A) (A) (A) (A) (A) (A) (A) (A) (A) (A) (A)
                 (A) (A) (A) (A) (A) (A) (A) (A) (A) (A) (A) (A)
                 (A) (A) (A) (A) (A) (A) (A) (A) (A) (A) (A) (A)
                 (A) (A) (A) (A) (A) (A) (A) (A) (A) (A) (A) (A)
 The electronic state is 1-A.
 Alpha  occ. eigenvalues --  -14.11835 -10.02685 -10.02683 -10.02663  -9.99548
 Alpha  occ. eigenvalues --   -9.99262  -9.98657  -9.98657  -9.98653  -9.98653
 Alpha  occ. eigenvalues --   -9.98642  -9.98640  -9.98472  -9.98469  -9.98425
 Alpha  occ. eigenvalues --   -9.98424  -9.98395  -9.98395  -9.98387  -9.98387
 Alpha  occ. eigenvalues --   -9.98376  -9.98376  -9.98342  -9.98193  -9.98193
 Alpha  occ. eigenvalues --   -0.99075  -0.89544  -0.88550  -0.87944  -0.86537
 Alpha  occ. eigenvalues --   -0.80905  -0.79212  -0.78076  -0.77973  -0.77639
 Alpha  occ. eigenvalues --   -0.77310  -0.76635  -0.73593  -0.67430  -0.67028
 Alpha  occ. eigenvalues --   -0.65329  -0.64565  -0.64245  -0.63110  -0.62649
 Alpha  occ. eigenvalues --   -0.61032  -0.58383  -0.58245  -0.56767  -0.54109
 Alpha  occ. eigenvalues --   -0.52744  -0.51895  -0.51767  -0.50368  -0.49808
 Alpha  occ. eigenvalues --   -0.48902  -0.48658  -0.48448  -0.47783  -0.47546
 Alpha  occ. eigenvalues --   -0.47027  -0.46826  -0.46691  -0.46295  -0.43515
 Alpha  occ. eigenvalues --   -0.43237  -0.43117  -0.42914  -0.42338  -0.41079
 Alpha  occ. eigenvalues --   -0.40493  -0.40067  -0.39309  -0.39074  -0.38560
 Alpha  occ. eigenvalues --   -0.38345  -0.36602  -0.33597  -0.32386  -0.32355
 Alpha  occ. eigenvalues --   -0.31454  -0.31312  -0.31183  -0.29688  -0.24133
 Alpha virt. eigenvalues --    0.00747   0.01879   0.02281   0.03507   0.04200
 Alpha virt. eigenvalues --    0.04253   0.04813   0.07744   0.09899   0.10651
 Alpha virt. eigenvalues --    0.10809   0.11587   0.12536   0.13119   0.13591
 Alpha virt. eigenvalues --    0.13699   0.14116   0.14645   0.15016   0.16036
 Alpha virt. eigenvalues --    0.16127   0.16174   0.16465   0.16959   0.17234
 Alpha virt. eigenvalues --    0.17756   0.17901   0.18373   0.18572   0.19944
 Alpha virt. eigenvalues --    0.20131   0.20771   0.21354   0.23034   0.23951
 Alpha virt. eigenvalues --    0.24041   0.24185   0.24978   0.24982   0.25557
 Alpha virt. eigenvalues --    0.25840   0.26003   0.26701   0.26848   0.27359
 Alpha virt. eigenvalues --    0.27499   0.27814   0.28275   0.28477   0.28806
 Alpha virt. eigenvalues --    0.28813   0.29089   0.29340   0.29485   0.29904
 Alpha virt. eigenvalues --    0.30290   0.30496   0.30732   0.31648   0.31690
 Alpha virt. eigenvalues --    0.32453   0.32602   0.32830   0.33210   0.33220
 Alpha virt. eigenvalues --    0.34157   0.34294   0.35210   0.35655   0.36036
 Alpha virt. eigenvalues --    0.36495   0.37226   0.37518   0.37632   0.37724
 Alpha virt. eigenvalues --    0.38584   0.38996   0.39034   0.39900   0.40182
 Alpha virt. eigenvalues --    0.41311   0.41325   0.41664   0.42020   0.42649
 Alpha virt. eigenvalues --    0.42827   0.43253   0.43290   0.43337   0.43775
 Alpha virt. eigenvalues --    0.44080   0.44085   0.44840   0.45039   0.45677
 Alpha virt. eigenvalues --    0.45899   0.46179   0.46974   0.47377   0.47381
 Alpha virt. eigenvalues --    0.47598   0.47720   0.47979   0.48156   0.48364
 Alpha virt. eigenvalues --    0.49169   0.49257   0.49415   0.50003   0.50513
 Alpha virt. eigenvalues --    0.50706   0.51569   0.51831   0.51863   0.53041
 Alpha virt. eigenvalues --    0.53129   0.53666   0.54137   0.54502   0.54767
 Alpha virt. eigenvalues --    0.54865   0.54965   0.55293   0.55991   0.56004
 Alpha virt. eigenvalues --    0.56247   0.56925   0.57533   0.58034   0.58747
 Alpha virt. eigenvalues --    0.59694   0.60367   0.60429   0.60865   0.62125
 Alpha virt. eigenvalues --    0.62709   0.62806   0.64773   0.65727   0.65867
 Alpha virt. eigenvalues --    0.66531   0.67426   0.67726   0.68262   0.70498
 Alpha virt. eigenvalues --    0.70811   0.71327   0.71771   0.72228   0.73169
 Alpha virt. eigenvalues --    0.73847   0.73925   0.74001   0.74234   0.74645
 Alpha virt. eigenvalues --    0.75001   0.75117   0.76568   0.76985   0.77526
 Alpha virt. eigenvalues --    0.77755   0.80518   0.80743   0.80859   0.81204
 Alpha virt. eigenvalues --    0.81587   0.82748   0.84357   0.86355   0.87273
 Alpha virt. eigenvalues --    0.89415   0.89881   0.89976   0.90461   0.94017
 Alpha virt. eigenvalues --    0.95971   0.96471   0.99065   1.15856   1.18439
 Alpha virt. eigenvalues --    1.19356   1.22839   1.22924   1.24372   1.24446
 Alpha virt. eigenvalues --    1.26118   1.26324   1.26555   1.27029   1.27394
 Alpha virt. eigenvalues --    1.27517   1.28828   1.29166   1.29607   1.29921
 Alpha virt. eigenvalues --    1.30104   1.30523   1.30606   1.30879   1.31591
 Alpha virt. eigenvalues --    1.31612   1.31993   1.32983   1.33126   1.33490
 Alpha virt. eigenvalues --    1.33991   1.34256   1.34350   1.34587   1.34915
 Alpha virt. eigenvalues --    1.35095   1.36235   1.36457   1.36953   1.36969
 Alpha virt. eigenvalues --    1.37686   1.38495   1.38995   1.44072   1.44296
 Alpha virt. eigenvalues --    1.44873   1.44956   1.45379   1.46107   1.46337
 Alpha virt. eigenvalues --    1.46571   1.46613   1.46749   1.47104   1.47175
 Alpha virt. eigenvalues --    1.47338   1.47666   1.48469   1.48988   1.49423
 Alpha virt. eigenvalues --    1.49425   1.49729   1.50087   1.50316   1.50467
 Alpha virt. eigenvalues --    1.50522   1.50960   1.51645   1.51937   1.52273
 Alpha virt. eigenvalues --    1.52704   1.53845   1.54023   1.54216   1.54827
 Alpha virt. eigenvalues --    1.55629   1.56195   1.56589   1.56858   1.57201
 Alpha virt. eigenvalues --    1.57206   1.57536   1.57871   1.58449   1.58670
 Alpha virt. eigenvalues --    1.59086   1.59620   1.59710   1.60217   1.60651
 Alpha virt. eigenvalues --    1.60954   1.61042   1.62631   1.63056   1.63557
 Alpha virt. eigenvalues --    1.64677   1.67096   1.69025   1.69380   1.69563
 Alpha virt. eigenvalues --    1.69767   1.70291   1.72758   1.73751   1.76860
 Alpha virt. eigenvalues --    1.78468   1.78912   1.78927   1.79142   1.79340
 Alpha virt. eigenvalues --    1.79437   1.80301   1.80342   1.80575   1.81502
 Alpha virt. eigenvalues --    1.81688   1.81735   1.82968   1.83096   1.83624
 Alpha virt. eigenvalues --    1.84082   1.84345   1.84832   1.84862   1.86814
 Alpha virt. eigenvalues --    1.87834   1.89329   1.89659   1.90183   1.90392
 Alpha virt. eigenvalues --    1.90644   1.91121   1.91128   1.92276   1.93018
 Alpha virt. eigenvalues --    1.93161   1.93211   1.93888   1.94047   1.94192
 Alpha virt. eigenvalues --    1.94480   1.94725   1.95083   1.95458   1.95684
 Alpha virt. eigenvalues --    1.95694   1.96775   1.96933   1.98907   1.98959
 Alpha virt. eigenvalues --    1.99553   1.99618   2.00308   2.02016   2.02089
 Alpha virt. eigenvalues --    2.02740   2.02839   2.03923   2.04876   2.05700
 Alpha virt. eigenvalues --    2.06238   2.06835   2.09511   2.10652   2.11900
 Alpha virt. eigenvalues --    2.13655   2.14019   2.14628   2.17080   2.21304
 Alpha virt. eigenvalues --    2.21571   2.24042   2.25162   2.26226   2.27916
 Alpha virt. eigenvalues --    2.28380   2.29673   2.30552   2.31223   2.32004
 Alpha virt. eigenvalues --    2.32246   2.33001   2.33183   2.33366   2.33444
 Alpha virt. eigenvalues --    2.34027   2.34975   2.35821   2.35842   2.36581
 Alpha virt. eigenvalues --    2.36722   2.37002   2.37490   2.37494   2.38442
 Alpha virt. eigenvalues --    2.38592   2.38687   2.38866   2.39118   2.39934
 Alpha virt. eigenvalues --    2.40169   2.43090   2.47377   2.47778   2.48309
 Alpha virt. eigenvalues --    2.51199   2.51204   2.51879   2.51980   2.53278
 Alpha virt. eigenvalues --    2.53418   2.53706   2.54264   2.54810   2.55137
 Alpha virt. eigenvalues --    2.57372   2.57395   2.57674   2.60762   2.62015
 Alpha virt. eigenvalues --    2.64113   2.64315   2.65321   2.65743   2.66089
 Alpha virt. eigenvalues --    2.66391   2.66445   2.67059   2.67758   2.68042
 Alpha virt. eigenvalues --    2.69033   2.69397   2.69644   2.69699   2.71458
 Alpha virt. eigenvalues --    2.73454   2.75905   2.75967   2.77658   2.78325
 Alpha virt. eigenvalues --    2.79271   2.79954   2.80966   2.82123   2.83303
 Alpha virt. eigenvalues --    2.83746   2.85459   2.86356   2.87024   2.87028
 Alpha virt. eigenvalues --    2.91824   2.97967   2.98578   2.99533   2.99960
 Alpha virt. eigenvalues --    3.00840   3.02989   3.03638   3.03873   3.05101
 Alpha virt. eigenvalues --    3.05114   3.05190   3.06186   3.06981   3.08174
 Alpha virt. eigenvalues --    3.09540   3.10578   3.11938   3.12296   3.13699
 Alpha virt. eigenvalues --    3.14952   3.15558   3.16523   3.17416   3.19070
 Alpha virt. eigenvalues --    3.19810   3.20009   3.20294   3.21391   3.22345
 Alpha virt. eigenvalues --    3.23075   3.24927   3.25605   3.29619   3.29811
 Alpha virt. eigenvalues --    3.32669   3.34099   3.34796   3.37734   3.39165
 Alpha virt. eigenvalues --    3.41366   3.42082   3.42525   3.47428   3.53909
 Alpha virt. eigenvalues --    3.55111   3.56479   3.59159   3.60007   3.62383
 Alpha virt. eigenvalues --    3.77736   3.83431   3.92535   3.93354  21.09280
 Alpha virt. eigenvalues --   21.20045  21.21797  21.32589  21.61712  21.67493
 Alpha virt. eigenvalues --   21.67807  21.70670  21.72909  21.73722  21.79749
 Alpha virt. eigenvalues --   21.84877  21.90030  21.92645  21.94742  21.95017
 Alpha virt. eigenvalues --   21.96946  21.98528  22.02123  22.03086  22.07138
 Alpha virt. eigenvalues --   22.08891  22.13975  22.14790  32.03989
          Condensed to atoms (all electrons):
               1          2          3          4          5          6
     1  C    5.032063   0.445025   0.361697   0.003208   0.012669  -0.116152
     2  C    0.445025   5.014637  -0.010992   0.445057  -0.088352  -0.011000
     3  C    0.361697  -0.010992   5.236950  -0.116156   0.393513  -0.042659
     4  C    0.003208   0.445057  -0.116156   5.032057   0.012676   0.361674
     5  C    0.012669  -0.088352   0.393513   0.012676   5.434734   0.393527
     6  C   -0.116152  -0.011000  -0.042659   0.361674   0.393527   5.236955
     7  H   -0.064059   0.421578   0.019962  -0.064058  -0.004819   0.019961
     8  H   -0.040396   0.012354   0.403981  -0.002103  -0.057201   0.016790
     9  H    0.015084  -0.062892  -0.000750   0.415538   0.016556  -0.056375
    10  H   -0.002104   0.012355   0.016790  -0.040409  -0.057205   0.403993
    11  C    0.020927   0.006255  -0.083609   0.020926   0.123505  -0.083621
    12  C   -0.001522  -0.000145   0.032433   0.003951  -0.112624  -0.026553
    13  C    0.003945  -0.000142  -0.026540  -0.001526  -0.112619   0.032439
    14  C    0.000224  -0.000023  -0.000711  -0.000063   0.039779   0.000511
    15  C   -0.000064  -0.000023   0.000513   0.000223   0.039781  -0.000708
    16  C   -0.000081   0.000011   0.000755  -0.000081  -0.009540   0.000756
    17  H   -0.000143   0.000014  -0.000041   0.000987  -0.019252   0.003925
    18  H    0.000988   0.000014   0.003923  -0.000143  -0.019250  -0.000043
    19  H    0.000000   0.000000  -0.000005  -0.000004  -0.000953  -0.000044
    20  H   -0.000004   0.000000  -0.000044   0.000000  -0.000953  -0.000005
    21  H    0.415536  -0.062894  -0.056373   0.015084   0.016556  -0.000750
    22  N   -0.000000   0.000000   0.000003  -0.000000  -0.000198   0.000003
    23  C    0.000000   0.000000   0.000011  -0.000000  -0.000163   0.000001
    24  C   -0.000000   0.000000   0.000000   0.000000  -0.000001  -0.000000
    25  C    0.000001   0.000000  -0.000010  -0.000000   0.000035   0.000006
    26  C   -0.000000   0.000000   0.000000   0.000000  -0.000000  -0.000000
    27  C    0.000000  -0.000000  -0.000001  -0.000000   0.000008   0.000000
    28  C   -0.000000  -0.000000  -0.000000   0.000000   0.000000  -0.000000
    29  H    0.000000  -0.000000   0.000000  -0.000000   0.000000  -0.000000
    30  H    0.000000   0.000000   0.000010  -0.000000  -0.000086  -0.000002
    31  H    0.000000   0.000000   0.000000  -0.000000  -0.000000   0.000000
    32  H   -0.000000   0.000000  -0.000000  -0.000000  -0.000000   0.000000
    33  H   -0.000000  -0.000000  -0.000000   0.000000   0.000000   0.000000
    34  C   -0.000000   0.000000   0.000001   0.000000  -0.000163   0.000011
    35  C    0.000000   0.000000  -0.000000  -0.000000  -0.000001   0.000000
    36  C   -0.000000   0.000000   0.000006   0.000001   0.000035  -0.000010
    37  C    0.000000   0.000000  -0.000000  -0.000000  -0.000000   0.000000
    38  C   -0.000000  -0.000000   0.000000   0.000000   0.000008  -0.000001
    39  C    0.000000  -0.000000  -0.000000  -0.000000   0.000000  -0.000000
    40  H   -0.000000  -0.000000  -0.000000   0.000000   0.000000   0.000000
    41  H   -0.000000   0.000000  -0.000002   0.000000  -0.000086   0.000010
    42  H   -0.000000   0.000000   0.000000   0.000000  -0.000000   0.000000
    43  H   -0.000000   0.000000   0.000000  -0.000000  -0.000000  -0.000000
    44  H    0.000000  -0.000000   0.000000  -0.000000   0.000000  -0.000000
               7          8          9         10         11         12
     1  C   -0.064059  -0.040396   0.015084  -0.002104   0.020927  -0.001522
     2  C    0.421578   0.012354  -0.062892   0.012355   0.006255  -0.000145
     3  C    0.019962   0.403981  -0.000750   0.016790  -0.083609   0.032433
     4  C   -0.064058  -0.002103   0.415538  -0.040409   0.020926   0.003951
     5  C   -0.004819  -0.057201   0.016556  -0.057205   0.123505  -0.112624
     6  C    0.019961   0.016790  -0.056375   0.403993  -0.083621  -0.026553
     7  H    0.585694  -0.000238  -0.008830  -0.000238  -0.000171  -0.000007
     8  H   -0.000238   0.558781   0.000043  -0.000204  -0.018396  -0.000583
     9  H   -0.008830   0.000043   0.589475  -0.007407  -0.001595   0.000015
    10  H   -0.000238  -0.000204  -0.007407   0.558788  -0.018395   0.006535
    11  C   -0.000171  -0.018396  -0.001595  -0.018395   5.572714   0.335714
    12  C   -0.000007  -0.000583   0.000015   0.006535   0.335714   5.433662
    13  C   -0.000007   0.006536   0.000019  -0.000580   0.335772  -0.005355
    14  C    0.000000  -0.000225  -0.000012   0.000465   0.005183   0.224255
    15  C    0.000000   0.000468  -0.000003  -0.000225   0.005106  -0.155169
    16  C   -0.000000   0.000237   0.000001   0.000237  -0.129910   0.024450
    17  H   -0.000003  -0.000047   0.000015   0.001134  -0.078848   0.407284
    18  H   -0.000003   0.001132   0.000001  -0.000047  -0.078834   0.016603
    19  H    0.000000  -0.000001  -0.000000  -0.000016   0.013369  -0.041038
    20  H    0.000000  -0.000016   0.000000  -0.000001   0.013362   0.001195
    21  H   -0.008829  -0.007408  -0.000270   0.000043  -0.001595   0.000019
    22  N   -0.000000   0.000001   0.000000   0.000001   0.003472   0.020013
    23  C   -0.000000   0.000001  -0.000000   0.000000   0.001976  -0.005398
    24  C    0.000000   0.000000   0.000000  -0.000000   0.000150   0.000002
    25  C    0.000000   0.000006  -0.000000   0.000000  -0.001833   0.002567
    26  C    0.000000  -0.000000  -0.000000   0.000000   0.000019  -0.000067
    27  C    0.000000  -0.000000   0.000000   0.000000  -0.000132  -0.000047
    28  C   -0.000000   0.000000   0.000000  -0.000000  -0.000005   0.000028
    29  H   -0.000000  -0.000000   0.000000  -0.000000  -0.000006   0.000018
    30  H   -0.000000   0.000001  -0.000000  -0.000000   0.000242   0.000849
    31  H   -0.000000   0.000000  -0.000000   0.000000  -0.000000   0.000000
    32  H    0.000000  -0.000000  -0.000000   0.000000  -0.000005  -0.000001
    33  H   -0.000000   0.000000   0.000000  -0.000000  -0.000000   0.000000
    34  C   -0.000000   0.000000  -0.000000   0.000001   0.001975  -0.003953
    35  C    0.000000  -0.000000  -0.000000   0.000000   0.000150   0.000736
    36  C    0.000000   0.000000   0.000000   0.000006  -0.001837  -0.004439
    37  C    0.000000   0.000000  -0.000000  -0.000000   0.000019   0.000046
    38  C    0.000000   0.000000   0.000000  -0.000000  -0.000132  -0.000331
    39  C   -0.000000  -0.000000   0.000000   0.000000  -0.000005  -0.000062
    40  H   -0.000000  -0.000000   0.000000  -0.000000  -0.000006   0.000014
    41  H   -0.000000  -0.000000  -0.000000   0.000001   0.000242  -0.001765
    42  H   -0.000000   0.000000  -0.000000   0.000000  -0.000000  -0.000001
    43  H    0.000000   0.000000  -0.000000  -0.000000  -0.000005   0.000032
    44  H   -0.000000  -0.000000   0.000000   0.000000  -0.000000  -0.000001
              13         14         15         16         17         18
     1  C    0.003945   0.000224  -0.000064  -0.000081  -0.000143   0.000988
     2  C   -0.000142  -0.000023  -0.000023   0.000011   0.000014   0.000014
     3  C   -0.026540  -0.000711   0.000513   0.000755  -0.000041   0.003923
     4  C   -0.001526  -0.000063   0.000223  -0.000081   0.000987  -0.000143
     5  C   -0.112619   0.039779   0.039781  -0.009540  -0.019252  -0.019250
     6  C    0.032439   0.000511  -0.000708   0.000756   0.003925  -0.000043
     7  H   -0.000007   0.000000   0.000000  -0.000000  -0.000003  -0.000003
     8  H    0.006536  -0.000225   0.000468   0.000237  -0.000047   0.001132
     9  H    0.000019  -0.000012  -0.000003   0.000001   0.000015   0.000001
    10  H   -0.000580   0.000465  -0.000225   0.000237   0.001134  -0.000047
    11  C    0.335772   0.005183   0.005106  -0.129910  -0.078848  -0.078834
    12  C   -0.005355   0.224255  -0.155169   0.024450   0.407284   0.016603
    13  C    5.433591  -0.155181   0.224302   0.024427   0.016604   0.407265
    14  C   -0.155181   5.402707  -0.066809   0.330952  -0.030522  -0.001493
    15  C    0.224302  -0.066809   5.402575   0.331107  -0.001494  -0.030504
    16  C    0.024427   0.330952   0.331107   5.485571   0.019173   0.019167
    17  H    0.016604  -0.030522  -0.001494   0.019173   0.565077  -0.000168
    18  H    0.407265  -0.001493  -0.030504   0.019167  -0.000168   0.565073
    19  H    0.001194   0.401611   0.009736  -0.047030  -0.006922   0.000024
    20  H   -0.041035   0.009736   0.401581  -0.046994   0.000024  -0.006919
    21  H    0.000014  -0.000003  -0.000012   0.000001   0.000001   0.000015
    22  N    0.020027  -0.015783  -0.015895   0.169159  -0.000507  -0.000507
    23  C   -0.003960  -0.004435   0.027684  -0.088184   0.000023  -0.000082
    24  C    0.000736  -0.011318   0.018943  -0.009706   0.000001  -0.000046
    25  C   -0.004451   0.017901  -0.065575   0.028677  -0.000027   0.000129
    26  C    0.000047  -0.000247   0.003211  -0.004853   0.000000  -0.000001
    27  C   -0.000332   0.001522  -0.009526   0.001571  -0.000001   0.000027
    28  C   -0.000062   0.000012  -0.000518   0.002050   0.000000  -0.000002
    29  H    0.000014  -0.000316   0.000423  -0.001504  -0.000000   0.000000
    30  H   -0.001764  -0.001682   0.004788   0.001747   0.000008  -0.000043
    31  H   -0.000001   0.000002  -0.000030   0.000012  -0.000000   0.000000
    32  H    0.000032  -0.000031   0.000020  -0.000186   0.000000   0.000000
    33  H   -0.000001   0.000001  -0.000016   0.000018  -0.000000   0.000000
    34  C   -0.005396   0.027702  -0.004486  -0.088165  -0.000082   0.000023
    35  C    0.000002   0.018944  -0.011318  -0.009662  -0.000046   0.000001
    36  C    0.002569  -0.065601   0.017911   0.028670   0.000130  -0.000027
    37  C   -0.000067   0.003208  -0.000247  -0.004853  -0.000001   0.000000
    38  C   -0.000047  -0.009534   0.001523   0.001569   0.000027  -0.000001
    39  C    0.000028  -0.000517   0.000012   0.002053  -0.000002   0.000000
    40  H    0.000018   0.000422  -0.000316  -0.001497   0.000000  -0.000000
    41  H    0.000850   0.004787  -0.001681   0.001765  -0.000043   0.000008
    42  H    0.000000  -0.000030   0.000002   0.000012   0.000000  -0.000000
    43  H   -0.000001   0.000019  -0.000031  -0.000186   0.000000   0.000000
    44  H    0.000000  -0.000016   0.000001   0.000018   0.000000  -0.000000
              19         20         21         22         23         24
     1  C    0.000000  -0.000004   0.415536  -0.000000   0.000000  -0.000000
     2  C    0.000000   0.000000  -0.062894   0.000000   0.000000   0.000000
     3  C   -0.000005  -0.000044  -0.056373   0.000003   0.000011   0.000000
     4  C   -0.000004   0.000000   0.015084  -0.000000  -0.000000   0.000000
     5  C   -0.000953  -0.000953   0.016556  -0.000198  -0.000163  -0.000001
     6  C   -0.000044  -0.000005  -0.000750   0.000003   0.000001  -0.000000
     7  H    0.000000   0.000000  -0.008829  -0.000000  -0.000000   0.000000
     8  H   -0.000001  -0.000016  -0.007408   0.000001   0.000001   0.000000
     9  H   -0.000000   0.000000  -0.000270   0.000000  -0.000000   0.000000
    10  H   -0.000016  -0.000001   0.000043   0.000001   0.000000  -0.000000
    11  C    0.013369   0.013362  -0.001595   0.003472   0.001976   0.000150
    12  C   -0.041038   0.001195   0.000019   0.020013  -0.005398   0.000002
    13  C    0.001194  -0.041035   0.000014   0.020027  -0.003960   0.000736
    14  C    0.401611   0.009736  -0.000003  -0.015783  -0.004435  -0.011318
    15  C    0.009736   0.401581  -0.000012  -0.015895   0.027684   0.018943
    16  C   -0.047030  -0.046994   0.000001   0.169159  -0.088184  -0.009706
    17  H   -0.006922   0.000024   0.000001  -0.000507   0.000023   0.000001
    18  H    0.000024  -0.006919   0.000015  -0.000507  -0.000082  -0.000046
    19  H    0.529408  -0.000326   0.000000  -0.006381  -0.000944  -0.000313
    20  H   -0.000326   0.529400  -0.000000  -0.006401   0.002823   0.000100
    21  H    0.000000  -0.000000   0.589475   0.000000  -0.000000  -0.000000
    22  N   -0.006381  -0.006401   0.000000   6.518970   0.164700  -0.010482
    23  C   -0.000944   0.002823  -0.000000   0.164700   5.423449   0.351686
    24  C   -0.000313   0.000100  -0.000000  -0.010482   0.351686   5.263035
    25  C    0.000368   0.001303   0.000000  -0.011870   0.354142  -0.049181
    26  C    0.000014   0.000397  -0.000000   0.013532   0.024638   0.353537
    27  C    0.000008  -0.001889   0.000000   0.013647   0.023210  -0.141925
    28  C   -0.000005   0.000526   0.000000   0.005859  -0.101304  -0.015709
    29  H   -0.000008   0.000037   0.000000  -0.007472  -0.036803   0.398135
    30  H    0.000010   0.001183  -0.000000  -0.008113  -0.035475   0.013561
    31  H   -0.000000   0.000003  -0.000000  -0.000601   0.018478  -0.054021
    32  H   -0.000000  -0.000053  -0.000000  -0.000595   0.018402  -0.002489
    33  H   -0.000000   0.000003   0.000000  -0.000041  -0.008197   0.025532
    34  C    0.002806  -0.000949  -0.000000   0.164719  -0.089529   0.027074
    35  C    0.000100  -0.000313   0.000000  -0.010389   0.027083  -0.056700
    36  C    0.001303   0.000369  -0.000000  -0.011960  -0.004912   0.013279
    37  C    0.000396   0.000014  -0.000000   0.013515  -0.001237  -0.006811
    38  C   -0.001889   0.000008   0.000000   0.013659  -0.005068   0.003594
    39  C    0.000527  -0.000005   0.000000   0.005859   0.002432  -0.000976
    40  H    0.000037  -0.000008   0.000000  -0.007453   0.002832   0.001443
    41  H    0.001184   0.000010  -0.000000  -0.008133  -0.000862   0.000183
    42  H    0.000003  -0.000000  -0.000000  -0.000601  -0.000198   0.000051
    43  H   -0.000053  -0.000000  -0.000000  -0.000595   0.000013  -0.000025
    44  H    0.000003  -0.000000   0.000000  -0.000041   0.000019  -0.000017
              25         26         27         28         29         30
     1  C    0.000001  -0.000000   0.000000  -0.000000   0.000000   0.000000
     2  C    0.000000   0.000000  -0.000000  -0.000000  -0.000000   0.000000
     3  C   -0.000010   0.000000  -0.000001  -0.000000   0.000000   0.000010
     4  C   -0.000000   0.000000  -0.000000   0.000000  -0.000000  -0.000000
     5  C    0.000035  -0.000000   0.000008   0.000000   0.000000  -0.000086
     6  C    0.000006  -0.000000   0.000000  -0.000000  -0.000000  -0.000002
     7  H    0.000000   0.000000   0.000000  -0.000000  -0.000000  -0.000000
     8  H    0.000006  -0.000000  -0.000000   0.000000  -0.000000   0.000001
     9  H   -0.000000  -0.000000   0.000000   0.000000   0.000000  -0.000000
    10  H    0.000000   0.000000   0.000000  -0.000000  -0.000000  -0.000000
    11  C   -0.001833   0.000019  -0.000132  -0.000005  -0.000006   0.000242
    12  C    0.002567  -0.000067  -0.000047   0.000028   0.000018   0.000849
    13  C   -0.004451   0.000047  -0.000332  -0.000062   0.000014  -0.001764
    14  C    0.017901  -0.000247   0.001522   0.000012  -0.000316  -0.001682
    15  C   -0.065575   0.003211  -0.009526  -0.000518   0.000423   0.004788
    16  C    0.028677  -0.004853   0.001571   0.002050  -0.001504   0.001747
    17  H   -0.000027   0.000000  -0.000001   0.000000  -0.000000   0.000008
    18  H    0.000129  -0.000001   0.000027  -0.000002   0.000000  -0.000043
    19  H    0.000368   0.000014   0.000008  -0.000005  -0.000008   0.000010
    20  H    0.001303   0.000397  -0.001889   0.000526   0.000037   0.001183
    21  H    0.000000  -0.000000   0.000000   0.000000   0.000000  -0.000000
    22  N   -0.011870   0.013532   0.013647   0.005859  -0.007472  -0.008113
    23  C    0.354142   0.024638   0.023210  -0.101304  -0.036803  -0.035475
    24  C   -0.049181   0.353537  -0.141925  -0.015709   0.398135   0.013561
    25  C    5.261206  -0.138662   0.351404  -0.017235   0.013194   0.397369
    26  C   -0.138662   5.093249   0.037465   0.423125  -0.044486  -0.001358
    27  C    0.351404   0.037465   5.099953   0.423254  -0.001351  -0.045545
    28  C   -0.017235   0.423125   0.423254   5.062009   0.010598   0.010593
    29  H    0.013194  -0.044486  -0.001351   0.010598   0.526320  -0.000285
    30  H    0.397369  -0.001358  -0.045545   0.010593  -0.000285   0.526806
    31  H   -0.002476   0.416665   0.017232  -0.069117  -0.007611   0.000016
    32  H   -0.054227   0.017226   0.416686  -0.068875   0.000016  -0.007616
    33  H    0.025586  -0.073892  -0.073901   0.432605  -0.000116  -0.000115
    34  C   -0.004872  -0.001242  -0.005069   0.002436   0.002844  -0.000857
    35  C    0.013273  -0.006817   0.003592  -0.000975   0.001444   0.000182
    36  C   -0.008889   0.000750  -0.000250   0.000069  -0.000672  -0.000231
    37  C    0.000750  -0.000593   0.000084  -0.000058  -0.001404  -0.000008
    38  C   -0.000249   0.000085  -0.000057   0.000020   0.000521   0.000017
    39  C    0.000069  -0.000058   0.000020  -0.000011   0.000415  -0.000005
    40  H   -0.000675  -0.001404   0.000520   0.000415   0.000928   0.000034
    41  H   -0.000231  -0.000008   0.000017  -0.000005   0.000034  -0.000009
    42  H   -0.000032   0.000026  -0.000001  -0.000002  -0.000045  -0.000000
    43  H    0.000001  -0.000001   0.000000   0.000000   0.000003  -0.000000
    44  H    0.000001  -0.000001  -0.000000  -0.000000   0.000003   0.000000
              31         32         33         34         35         36
     1  C    0.000000  -0.000000  -0.000000  -0.000000   0.000000  -0.000000
     2  C    0.000000   0.000000  -0.000000   0.000000   0.000000   0.000000
     3  C    0.000000  -0.000000  -0.000000   0.000001  -0.000000   0.000006
     4  C   -0.000000  -0.000000   0.000000   0.000000  -0.000000   0.000001
     5  C   -0.000000  -0.000000   0.000000  -0.000163  -0.000001   0.000035
     6  C    0.000000   0.000000   0.000000   0.000011   0.000000  -0.000010
     7  H   -0.000000   0.000000  -0.000000  -0.000000   0.000000   0.000000
     8  H    0.000000  -0.000000   0.000000   0.000000  -0.000000   0.000000
     9  H   -0.000000  -0.000000   0.000000  -0.000000  -0.000000   0.000000
    10  H    0.000000   0.000000  -0.000000   0.000001   0.000000   0.000006
    11  C   -0.000000  -0.000005  -0.000000   0.001975   0.000150  -0.001837
    12  C    0.000000  -0.000001   0.000000  -0.003953   0.000736  -0.004439
    13  C   -0.000001   0.000032  -0.000001  -0.005396   0.000002   0.002569
    14  C    0.000002  -0.000031   0.000001   0.027702   0.018944  -0.065601
    15  C   -0.000030   0.000020  -0.000016  -0.004486  -0.011318   0.017911
    16  C    0.000012  -0.000186   0.000018  -0.088165  -0.009662   0.028670
    17  H   -0.000000   0.000000  -0.000000  -0.000082  -0.000046   0.000130
    18  H    0.000000   0.000000   0.000000   0.000023   0.000001  -0.000027
    19  H   -0.000000  -0.000000  -0.000000   0.002806   0.000100   0.001303
    20  H    0.000003  -0.000053   0.000003  -0.000949  -0.000313   0.000369
    21  H   -0.000000  -0.000000   0.000000  -0.000000   0.000000  -0.000000
    22  N   -0.000601  -0.000595  -0.000041   0.164719  -0.010389  -0.011960
    23  C    0.018478   0.018402  -0.008197  -0.089529   0.027083  -0.004912
    24  C   -0.054021  -0.002489   0.025532   0.027074  -0.056700   0.013279
    25  C   -0.002476  -0.054227   0.025586  -0.004872   0.013273  -0.008889
    26  C    0.416665   0.017226  -0.073892  -0.001242  -0.006817   0.000750
    27  C    0.017232   0.416686  -0.073901  -0.005069   0.003592  -0.000250
    28  C   -0.069117  -0.068875   0.432605   0.002436  -0.000975   0.000069
    29  H   -0.007611   0.000016  -0.000116   0.002844   0.001444  -0.000672
    30  H    0.000016  -0.007616  -0.000115  -0.000857   0.000182  -0.000231
    31  H    0.587040  -0.000258  -0.009130  -0.000198   0.000051  -0.000032
    32  H   -0.000258   0.587176  -0.009125   0.000013  -0.000025   0.000001
    33  H   -0.009130  -0.009125   0.588149   0.000019  -0.000017   0.000001
    34  C   -0.000198   0.000013   0.000019   5.423385   0.351577   0.354234
    35  C    0.000051  -0.000025  -0.000017   0.351577   5.263129  -0.049189
    36  C   -0.000032   0.000001   0.000001   0.354234  -0.049189   5.261197
    37  C    0.000026  -0.000001  -0.000001   0.024624   0.353578  -0.138637
    38  C   -0.000001   0.000000  -0.000000   0.023238  -0.141969   0.351371
    39  C   -0.000002   0.000000  -0.000000  -0.101303  -0.015682  -0.017261
    40  H   -0.000045   0.000003   0.000003  -0.036827   0.398142   0.013193
    41  H   -0.000000  -0.000000   0.000000  -0.035451   0.013560   0.397346
    42  H   -0.000000   0.000000  -0.000000   0.018483  -0.054034  -0.002478
    43  H    0.000000  -0.000000  -0.000000   0.018396  -0.002488  -0.054216
    44  H   -0.000000  -0.000000   0.000000  -0.008198   0.025534   0.025586
              37         38         39         40         41         42
     1  C    0.000000  -0.000000   0.000000  -0.000000  -0.000000  -0.000000
     2  C    0.000000  -0.000000  -0.000000  -0.000000   0.000000   0.000000
     3  C   -0.000000   0.000000  -0.000000  -0.000000  -0.000002   0.000000
     4  C   -0.000000   0.000000  -0.000000   0.000000   0.000000   0.000000
     5  C   -0.000000   0.000008   0.000000   0.000000  -0.000086  -0.000000
     6  C    0.000000  -0.000001  -0.000000   0.000000   0.000010   0.000000
     7  H    0.000000   0.000000  -0.000000  -0.000000  -0.000000  -0.000000
     8  H    0.000000   0.000000  -0.000000  -0.000000  -0.000000   0.000000
     9  H   -0.000000   0.000000   0.000000   0.000000  -0.000000  -0.000000
    10  H   -0.000000  -0.000000   0.000000  -0.000000   0.000001   0.000000
    11  C    0.000019  -0.000132  -0.000005  -0.000006   0.000242  -0.000000
    12  C    0.000046  -0.000331  -0.000062   0.000014  -0.001765  -0.000001
    13  C   -0.000067  -0.000047   0.000028   0.000018   0.000850   0.000000
    14  C    0.003208  -0.009534  -0.000517   0.000422   0.004787  -0.000030
    15  C   -0.000247   0.001523   0.000012  -0.000316  -0.001681   0.000002
    16  C   -0.004853   0.001569   0.002053  -0.001497   0.001765   0.000012
    17  H   -0.000001   0.000027  -0.000002   0.000000  -0.000043   0.000000
    18  H    0.000000  -0.000001   0.000000  -0.000000   0.000008  -0.000000
    19  H    0.000396  -0.001889   0.000527   0.000037   0.001184   0.000003
    20  H    0.000014   0.000008  -0.000005  -0.000008   0.000010  -0.000000
    21  H   -0.000000   0.000000   0.000000   0.000000  -0.000000  -0.000000
    22  N    0.013515   0.013659   0.005859  -0.007453  -0.008133  -0.000601
    23  C   -0.001237  -0.005068   0.002432   0.002832  -0.000862  -0.000198
    24  C   -0.006811   0.003594  -0.000976   0.001443   0.000183   0.000051
    25  C    0.000750  -0.000249   0.000069  -0.000675  -0.000231  -0.000032
    26  C   -0.000593   0.000085  -0.000058  -0.001404  -0.000008   0.000026
    27  C    0.000084  -0.000057   0.000020   0.000520   0.000017  -0.000001
    28  C   -0.000058   0.000020  -0.000011   0.000415  -0.000005  -0.000002
    29  H   -0.001404   0.000521   0.000415   0.000928   0.000034  -0.000045
    30  H   -0.000008   0.000017  -0.000005   0.000034  -0.000009  -0.000000
    31  H    0.000026  -0.000001  -0.000002  -0.000045  -0.000000  -0.000000
    32  H   -0.000001   0.000000   0.000000   0.000003  -0.000000   0.000000
    33  H   -0.000001  -0.000000  -0.000000   0.000003   0.000000  -0.000000
    34  C    0.024624   0.023238  -0.101303  -0.036827  -0.035451   0.018483
    35  C    0.353578  -0.141969  -0.015682   0.398142   0.013560  -0.054034
    36  C   -0.138637   0.351371  -0.017261   0.013193   0.397346  -0.002478
    37  C    5.093196   0.037463   0.423118  -0.044474  -0.001356   0.416678
    38  C    0.037463   5.100003   0.423280  -0.001352  -0.045542   0.017236
    39  C    0.423118   0.423280   5.061983   0.010600   0.010588  -0.069126
    40  H   -0.044474  -0.001352   0.010600   0.526319  -0.000285  -0.007613
    41  H   -0.001356  -0.045542   0.010588  -0.000285   0.526791   0.000016
    42  H    0.416678   0.017236  -0.069126  -0.007613   0.000016   0.587046
    43  H    0.017223   0.416673  -0.068865   0.000016  -0.007613  -0.000258
    44  H   -0.073900  -0.073900   0.432609  -0.000116  -0.000115  -0.009131
              43         44
     1  C   -0.000000   0.000000
     2  C    0.000000  -0.000000
     3  C    0.000000   0.000000
     4  C   -0.000000  -0.000000
     5  C   -0.000000   0.000000
     6  C   -0.000000  -0.000000
     7  H    0.000000  -0.000000
     8  H    0.000000  -0.000000
     9  H   -0.000000   0.000000
    10  H   -0.000000   0.000000
    11  C   -0.000005  -0.000000
    12  C    0.000032  -0.000001
    13  C   -0.000001   0.000000
    14  C    0.000019  -0.000016
    15  C   -0.000031   0.000001
    16  C   -0.000186   0.000018
    17  H    0.000000   0.000000
    18  H    0.000000  -0.000000
    19  H   -0.000053   0.000003
    20  H   -0.000000  -0.000000
    21  H   -0.000000   0.000000
    22  N   -0.000595  -0.000041
    23  C    0.000013   0.000019
    24  C   -0.000025  -0.000017
    25  C    0.000001   0.000001
    26  C   -0.000001  -0.000001
    27  C    0.000000  -0.000000
    28  C    0.000000  -0.000000
    29  H    0.000003   0.000003
    30  H   -0.000000   0.000000
    31  H    0.000000  -0.000000
    32  H   -0.000000  -0.000000
    33  H   -0.000000   0.000000
    34  C    0.018396  -0.008198
    35  C   -0.002488   0.025534
    36  C   -0.054216   0.025586
    37  C    0.017223  -0.073900
    38  C    0.416673  -0.073900
    39  C   -0.068865   0.432609
    40  H    0.000016  -0.000116
    41  H   -0.007613  -0.000115
    42  H   -0.000258  -0.009131
    43  H    0.587175  -0.009125
    44  H   -0.009125   0.588151
 Mulliken charges:
               1
     1  C   -0.086843
     2  C   -0.120836
     3  C   -0.132654
     4  C   -0.086840
     5  C    0.000084
     6  C   -0.132638
     7  H    0.104066
     8  H    0.126488
     9  H    0.101389
    10  H    0.126482
    11  C    0.037860
    12  C   -0.151358
    13  C   -0.151365
    14  C   -0.125392
    15  C   -0.125259
    16  C   -0.031733
    17  H    0.123722
    18  H    0.123720
    19  H    0.143832
    20  H    0.143840
    21  H    0.101389
    22  N   -0.003120
    23  C   -0.056852
    24  C   -0.111324
    25  C   -0.107492
    26  C   -0.110296
    27  C   -0.110192
    28  C   -0.099718
    29  H    0.147132
    30  H    0.145779
    31  H    0.104000
    32  H    0.103913
    33  H    0.102636
    34  C   -0.056824
    35  C   -0.111456
    36  C   -0.107386
    37  C   -0.110292
    38  C   -0.110218
    39  C   -0.099715
    40  H    0.147131
    41  H    0.145797
    42  H    0.103999
    43  H    0.103910
    44  H    0.102634
 Sum of Mulliken charges =  -0.00000
 Mulliken charges with hydrogens summed into heavy atoms:
               1
     1  C    0.014546
     2  C   -0.016770
     3  C   -0.006166
     4  C    0.014549
     5  C    0.000084
     6  C   -0.006156
    11  C    0.037860
    12  C   -0.027636
    13  C   -0.027644
    14  C    0.018439
    15  C    0.018581
    16  C   -0.031733
    22  N   -0.003120
    23  C   -0.056852
    24  C    0.035808
    25  C    0.038287
    26  C   -0.006296
    27  C   -0.006279
    28  C    0.002918
    34  C   -0.056824
    35  C    0.035675
    36  C    0.038411
    37  C   -0.006293
    38  C   -0.006308
    39  C    0.002919
 Electronic spatial extent (au):  <R**2>=          11115.0855
 Charge=             -0.0000 electrons
 Dipole moment (field-independent basis, Debye):
    X=              0.2468    Y=              0.0002    Z=             -0.0003  Tot=              0.2468
 Quadrupole moment (field-independent basis, Debye-Ang):
   XX=           -134.6206   YY=           -133.3784   ZZ=           -148.5562
   XY=              0.0006   XZ=             -0.0009   YZ=              0.4552
 Traceless Quadrupole moment (field-independent basis, Debye-Ang):
   XX=              4.2311   YY=              5.4734   ZZ=             -9.7045
   XY=              0.0006   XZ=             -0.0009   YZ=              0.4552
 Octapole moment (field-independent basis, Debye-Ang**2):
  XXX=            -34.3329  YYY=              0.0078  ZZZ=              0.0029  XYY=              7.0659
  XXY=             -0.0049  XXZ=             -0.0096  XZZ=             19.1740  YZZ=              0.0023
  YYZ=             -0.0042  XYZ=             -2.3749
 Hexadecapole moment (field-independent basis, Debye-Ang**3):
 XXXX=         -10838.9831 YYYY=          -3336.1569 ZZZZ=           -509.9362 XXXY=             -0.0717
 XXXZ=              0.0145 YYYX=              0.0296 YYYZ=             84.4332 ZZZX=             -0.0134
 ZZZY=              0.2385 XXYY=          -2277.3697 XXZZ=          -2154.9005 YYZZ=           -681.8521
 XXYZ=            -71.2880 YYXZ=             -0.0166 ZZXY=              0.0201
 N-N= 1.905495953278D+03 E-N=-6.086316363538D+03  KE= 9.754407747950D+02
 No NMR shielding tensors so no spin-rotation constants.
 Leave Link  601 at Sun Jan 17 13:10:08 2021, MaxMem=  4026531840 cpu:               3.4 elap:               0.6
 (Enter /opt/ohpc/pub/libs/gaussian/g16-A.03/sandybridge/g16/l9999.exe)

 Test job not archived.
 1\1\GINC-CASCADEB025\SP\RLC-wHPBE\TZVP\C24H19N1\RDU230\17-Jan-2021\0\\
 #P LC-wHPBE/TZVP iop(3/107=0171100000, 3/108=0171100000) scf=(conver=6
 ,fermi,ndamp=35,noincfock,novaracc,vshift=500,xqc)\\H19 C24 N1\\0,1\C,
 0,6.129184,1.201496,-0.030856\C,0,6.830271,0.000001,0.000182\C,0,4.738
 958,1.200713,-0.032197\C,0,6.129235,-1.201473,0.031153\C,0,4.021751,-0
 .000032,0.000031\C,0,4.738962,-1.200719,0.032361\H,0,7.919539,0.000045
 ,0.00019\H,0,4.198073,2.145454,-0.081149\H,0,6.668779,-2.147537,0.0634
 12\H,0,4.198148,-2.145504,0.081256\C,0,2.536892,-0.000014,-0.000063\C,
 0,1.813363,-0.924286,-0.760077\C,0,1.813258,0.92429,0.759786\C,0,0.426
 027,-0.922473,-0.771159\C,0,0.425899,0.922498,0.770636\C,0,-0.288344,0
 .000018,-0.000311\H,0,2.347573,-1.638662,-1.38605\H,0,2.34735,1.638674
 ,1.385851\H,0,-0.11537,-1.638494,-1.387158\H,0,-0.115571,1.638578,1.38
 6504\H,0,6.668762,2.147543,-0.063006\N,0,-1.704382,-0.000003,-0.000499
 \C,0,-2.414266,1.22777,0.004035\C,0,-3.559402,1.382015,0.792108\C,0,-1
 .979956,2.301413,-0.78017\C,0,-4.257371,2.583383,0.786193\C,0,-2.67352
 7,3.505213,-0.76583\C,0,-3.817854,3.653503,0.012423\H,0,-3.900046,0.55
 1242,1.407814\H,0,-1.092486,2.185578,-1.400082\H,0,-5.147916,2.686607,
 1.40537\H,0,-2.321511,4.331764,-1.38228\H,0,-4.363183,4.595952,0.01566
 4\C,0,-2.414241,-1.227791,-0.004406\C,0,-3.559682,-1.382189,-0.792032\
 C,0,-1.979686,-2.301249,0.779869\C,0,-4.257673,-2.583532,-0.785597\C,0
 ,-2.673287,-3.50506,0.766028\C,0,-3.817885,-3.653507,-0.011769\H,0,-3.
 900521,-0.551523,-1.407763\H,0,-1.092008,-2.185299,1.399468\H,0,-5.148
 466,-2.686887,-1.404399\H,0,-2.32101,-4.331477,1.382521\H,0,-4.363223,
 -4.595951,-0.014691\\Version=EM64L-G16RevA.03\State=1-A\HF=-980.085953
 5\RMSD=7.058e-07\Dipole=-0.0970826,0.000067,0.0001068\Quadrupole=3.145
 7319,4.0693163,-7.2150482,-0.0004651,-0.0006766,-0.3383993\PG=C01 [X(C
 24H19N1)]\\@


 I WANT TO KNOW HOW GOD CREATED THE WORLD.  I AM NOT INTERESTED IN
 THIS OR THAT PHENOMENON, IN THE SPECTRUM OF THIS OR THAT ELEMENT.
 I WANT TO KNOW HIS THOUGHTS, THE REST ARE DETAILS.
     -- ALBERT EINSTEIN
 Job cpu time:       0 days  1 hours 17 minutes  8.5 seconds.
 Elapsed time:       0 days  0 hours  9 minutes 40.8 seconds.
 File lengths (MBytes):  RWF=    156 Int=      0 D2E=      0 Chk=     28 Scr=      8
 Normal termination of Gaussian 16 at Sun Jan 17 13:10:08 2021.
