 Entering Gaussian System, Link 0=g16
 Input=mol_bp_pa_half_tune_c5.gjf
 Output=mol_bp_pa_half_tune_c5.log
 Initial command:
 /opt/ohpc/pub/libs/gaussian/g16-A.03/sandybridge/g16/l1.exe "/mnt/gpfs2_4m/scratch/rdu230/ondemand/projects/init_structures/wtuning/mol_bp_pa_half/tuning_mol_bp_pa_half_ocycle0/Gau-410010.inp" -scrdir="/mnt/gpfs2_4m/scratch/rdu230/ondemand/projects/init_structures/wtuning/mol_bp_pa_half/tuning_mol_bp_pa_half_ocycle0/"
 Entering Link 1 = /opt/ohpc/pub/libs/gaussian/g16-A.03/sandybridge/g16/l1.exe PID=    410011.
  
 Copyright (c) 1988,1990,1992,1993,1995,1998,2003,2009,2016,
            Gaussian, Inc.  All Rights Reserved.
  
 This is part of the Gaussian(R) 16 program.  It is based on
 the Gaussian(R) 09 system (copyright 2009, Gaussian, Inc.),
 the Gaussian(R) 03 system (copyright 2003, Gaussian, Inc.),
 the Gaussian(R) 98 system (copyright 1998, Gaussian, Inc.),
 the Gaussian(R) 94 system (copyright 1995, Gaussian, Inc.),
 the Gaussian 92(TM) system (copyright 1992, Gaussian, Inc.),
 the Gaussian 90(TM) system (copyright 1990, Gaussian, Inc.),
 the Gaussian 88(TM) system (copyright 1988, Gaussian, Inc.),
 the Gaussian 86(TM) system (copyright 1986, Carnegie Mellon
 University), and the Gaussian 82(TM) system (copyright 1983,
 Carnegie Mellon University). Gaussian is a federally registered
 trademark of Gaussian, Inc.
  
 This software contains proprietary and confidential information,
 including trade secrets, belonging to Gaussian, Inc.
  
 This software is provided under written license and may be
 used, copied, transmitted, or stored only in accord with that
 written license.
  
 The following legend is applicable only to US Government
 contracts under FAR:
  
                    RESTRICTED RIGHTS LEGEND
  
 Use, reproduction and disclosure by the US Government is
 subject to restrictions as set forth in subparagraphs (a)
 and (c) of the Commercial Computer Software - Restricted
 Rights clause in FAR 52.227-19.
  
 Gaussian, Inc.
 340 Quinnipiac St., Bldg. 40, Wallingford CT 06492
  
  
 ---------------------------------------------------------------
 Warning -- This program may not be used in any manner that
 competes with the business of Gaussian, Inc. or will provide
 assistance to any competitor of Gaussian, Inc.  The licensee
 of this program is prohibited from giving any competitor of
 Gaussian, Inc. access to this program.  By using this program,
 the user acknowledges that Gaussian, Inc. is engaged in the
 business of creating and licensing software in the field of
 computational chemistry and represents and warrants to the
 licensee that it is not a competitor of Gaussian, Inc. and that
 it will not use this program in any manner prohibited above.
 ---------------------------------------------------------------
  

 Cite this work as:
 Gaussian 16, Revision A.03,
 M. J. Frisch, G. W. Trucks, H. B. Schlegel, G. E. Scuseria, 
 M. A. Robb, J. R. Cheeseman, G. Scalmani, V. Barone, 
 G. A. Petersson, H. Nakatsuji, X. Li, M. Caricato, A. V. Marenich, 
 J. Bloino, B. G. Janesko, R. Gomperts, B. Mennucci, H. P. Hratchian, 
 J. V. Ortiz, A. F. Izmaylov, J. L. Sonnenberg, D. Williams-Young, 
 F. Ding, F. Lipparini, F. Egidi, J. Goings, B. Peng, A. Petrone, 
 T. Henderson, D. Ranasinghe, V. G. Zakrzewski, J. Gao, N. Rega, 
 G. Zheng, W. Liang, M. Hada, M. Ehara, K. Toyota, R. Fukuda, 
 J. Hasegawa, M. Ishida, T. Nakajima, Y. Honda, O. Kitao, H. Nakai, 
 T. Vreven, K. Throssell, J. A. Montgomery, Jr., J. E. Peralta, 
 F. Ogliaro, M. J. Bearpark, J. J. Heyd, E. N. Brothers, K. N. Kudin, 
 V. N. Staroverov, T. A. Keith, R. Kobayashi, J. Normand, 
 K. Raghavachari, A. P. Rendell, J. C. Burant, S. S. Iyengar, 
 J. Tomasi, M. Cossi, J. M. Millam, M. Klene, C. Adamo, R. Cammi, 
 J. W. Ochterski, R. L. Martin, K. Morokuma, O. Farkas, 
 J. B. Foresman, and D. J. Fox, Gaussian, Inc., Wallingford CT, 2016.
 
 ******************************************
 Gaussian 16:  EM64L-G16RevA.03 25-Dec-2016
                17-Jan-2021 
 ******************************************
 %mem=30GB
 %nproc=8
 Will use up to    8 processors via shared memory.
 ----------------------------------------------------------------------
 #P LC-wHPBE/TZVP iop(3/107=0190100000, 3/108=0190100000) scf=(conver=6
 ,fermi,ndamp=35,noincfock,novaracc,vshift=500,xqc)
 ----------------------------------------------------------------------
 1/38=1,172=1/1;
 2/12=2,17=6,18=5,40=1/2;
 3/5=19,7=101,11=2,25=1,30=1,74=-71,107=190100000,108=190100000/1,2,3;
 4//1;
 5/5=100002,6=6,8=3,10=500,13=1,18=-1,22=13,38=1,93=35/2,8;
 6/7=2,8=2,9=2,10=2,28=1/1;
 99/5=1,9=1/99;
 Leave Link    1 at Sun Jan 17 14:04:40 2021, MaxMem=  4026531840 cpu:               1.5 elap:               0.2
 (Enter /opt/ohpc/pub/libs/gaussian/g16-A.03/sandybridge/g16/l101.exe)
 ----------
 H19 C24 N1
 ----------
 Symbolic Z-matrix:
 Charge =  1 Multiplicity = 2
 C                     6.12918   1.2015   -0.03086 
 C                     6.83027   0.        0.00018 
 C                     4.73896   1.20071  -0.0322 
 C                     6.12924  -1.20147   0.03115 
 C                     4.02175  -0.00003   0.00003 
 C                     4.73896  -1.20072   0.03236 
 H                     7.91954   0.00005   0.00019 
 H                     4.19807   2.14545  -0.08115 
 H                     6.66878  -2.14754   0.06341 
 H                     4.19815  -2.1455    0.08126 
 C                     2.53689  -0.00001  -0.00006 
 C                     1.81336  -0.92429  -0.76008 
 C                     1.81326   0.92429   0.75979 
 C                     0.42603  -0.92247  -0.77116 
 C                     0.4259    0.9225    0.77064 
 C                    -0.28834   0.00002  -0.00031 
 H                     2.34757  -1.63866  -1.38605 
 H                     2.34735   1.63867   1.38585 
 H                    -0.11537  -1.63849  -1.38716 
 H                    -0.11557   1.63858   1.3865 
 H                     6.66876   2.14754  -0.06301 
 N                    -1.70438  0.        -0.0005 
 C                    -2.41427   1.22777   0.00404 
 C                    -3.5594    1.38202   0.79211 
 C                    -1.97996   2.30141  -0.78017 
 C                    -4.25737   2.58338   0.78619 
 C                    -2.67353   3.50521  -0.76583 
 C                    -3.81785   3.6535    0.01242 
 H                    -3.90005   0.55124   1.40781 
 H                    -1.09249   2.18558  -1.40008 
 H                    -5.14792   2.68661   1.40537 
 H                    -2.32151   4.33176  -1.38228 
 H                    -4.36318   4.59595   0.01566 
 C                    -2.41424  -1.22779  -0.00441 
 C                    -3.55968  -1.38219  -0.79203 
 C                    -1.97969  -2.30125   0.77987 
 C                    -4.25767  -2.58353  -0.7856 
 C                    -2.67329  -3.50506   0.76603 
 C                    -3.81789  -3.65351  -0.01177 
 H                    -3.90052  -0.55152  -1.40776 
 H                    -1.09201  -2.1853    1.39947 
 H                    -5.14847  -2.68689  -1.4044 
 H                    -2.32101  -4.33148   1.38252 
 H                    -4.36322  -4.59595  -0.01469 
 
 ITRead=  0  0  0  0  0  0  0  0  0  0  0  0  0  0  0  0  0  0  0  0
 ITRead=  0  0  0  0  0  0  0  0  0  0  0  0  0  0  0  0  0  0  0  0
 ITRead=  0  0  0  0
 MicOpt= -1 -1 -1 -1 -1 -1 -1 -1 -1 -1 -1 -1 -1 -1 -1 -1 -1 -1 -1 -1
 MicOpt= -1 -1 -1 -1 -1 -1 -1 -1 -1 -1 -1 -1 -1 -1 -1 -1 -1 -1 -1 -1
 MicOpt= -1 -1 -1 -1
 NAtoms=     44 NQM=       44 NQMF=       0 NMMI=      0 NMMIF=      0
                NMic=       0 NMicF=      0.
                    Isotopes and Nuclear Properties:
 (Nuclear quadrupole moments (NQMom) in fm**2, nuclear magnetic moments (NMagM)
  in nuclear magnetons)

  Atom         1           2           3           4           5           6           7           8           9          10
 IAtWgt=          12          12          12          12          12          12           1           1           1           1
 AtmWgt=  12.0000000  12.0000000  12.0000000  12.0000000  12.0000000  12.0000000   1.0078250   1.0078250   1.0078250   1.0078250
 NucSpn=           0           0           0           0           0           0           1           1           1           1
 AtZEff=  -0.0000000  -0.0000000  -0.0000000  -0.0000000  -0.0000000  -0.0000000  -0.0000000  -0.0000000  -0.0000000  -0.0000000
 NQMom=    0.0000000   0.0000000   0.0000000   0.0000000   0.0000000   0.0000000   0.0000000   0.0000000   0.0000000   0.0000000
 NMagM=    0.0000000   0.0000000   0.0000000   0.0000000   0.0000000   0.0000000   2.7928460   2.7928460   2.7928460   2.7928460
 AtZNuc=   6.0000000   6.0000000   6.0000000   6.0000000   6.0000000   6.0000000   1.0000000   1.0000000   1.0000000   1.0000000

  Atom        11          12          13          14          15          16          17          18          19          20
 IAtWgt=          12          12          12          12          12          12           1           1           1           1
 AtmWgt=  12.0000000  12.0000000  12.0000000  12.0000000  12.0000000  12.0000000   1.0078250   1.0078250   1.0078250   1.0078250
 NucSpn=           0           0           0           0           0           0           1           1           1           1
 AtZEff=  -0.0000000  -0.0000000  -0.0000000  -0.0000000  -0.0000000  -0.0000000  -0.0000000  -0.0000000  -0.0000000  -0.0000000
 NQMom=    0.0000000   0.0000000   0.0000000   0.0000000   0.0000000   0.0000000   0.0000000   0.0000000   0.0000000   0.0000000
 NMagM=    0.0000000   0.0000000   0.0000000   0.0000000   0.0000000   0.0000000   2.7928460   2.7928460   2.7928460   2.7928460
 AtZNuc=   6.0000000   6.0000000   6.0000000   6.0000000   6.0000000   6.0000000   1.0000000   1.0000000   1.0000000   1.0000000

  Atom        21          22          23          24          25          26          27          28          29          30
 IAtWgt=           1          14          12          12          12          12          12          12           1           1
 AtmWgt=   1.0078250  14.0030740  12.0000000  12.0000000  12.0000000  12.0000000  12.0000000  12.0000000   1.0078250   1.0078250
 NucSpn=           1           2           0           0           0           0           0           0           1           1
 AtZEff=  -0.0000000  -0.0000000  -0.0000000  -0.0000000  -0.0000000  -0.0000000  -0.0000000  -0.0000000  -0.0000000  -0.0000000
 NQMom=    0.0000000   2.0440000   0.0000000   0.0000000   0.0000000   0.0000000   0.0000000   0.0000000   0.0000000   0.0000000
 NMagM=    2.7928460   0.4037610   0.0000000   0.0000000   0.0000000   0.0000000   0.0000000   0.0000000   2.7928460   2.7928460
 AtZNuc=   1.0000000   7.0000000   6.0000000   6.0000000   6.0000000   6.0000000   6.0000000   6.0000000   1.0000000   1.0000000

  Atom        31          32          33          34          35          36          37          38          39          40
 IAtWgt=           1           1           1          12          12          12          12          12          12           1
 AtmWgt=   1.0078250   1.0078250   1.0078250  12.0000000  12.0000000  12.0000000  12.0000000  12.0000000  12.0000000   1.0078250
 NucSpn=           1           1           1           0           0           0           0           0           0           1
 AtZEff=  -0.0000000  -0.0000000  -0.0000000  -0.0000000  -0.0000000  -0.0000000  -0.0000000  -0.0000000  -0.0000000  -0.0000000
 NQMom=    0.0000000   0.0000000   0.0000000   0.0000000   0.0000000   0.0000000   0.0000000   0.0000000   0.0000000   0.0000000
 NMagM=    2.7928460   2.7928460   2.7928460   0.0000000   0.0000000   0.0000000   0.0000000   0.0000000   0.0000000   2.7928460
 AtZNuc=   1.0000000   1.0000000   1.0000000   6.0000000   6.0000000   6.0000000   6.0000000   6.0000000   6.0000000   1.0000000

  Atom        41          42          43          44
 IAtWgt=           1           1           1           1
 AtmWgt=   1.0078250   1.0078250   1.0078250   1.0078250
 NucSpn=           1           1           1           1
 AtZEff=  -0.0000000  -0.0000000  -0.0000000  -0.0000000
 NQMom=    0.0000000   0.0000000   0.0000000   0.0000000
 NMagM=    2.7928460   2.7928460   2.7928460   2.7928460
 AtZNuc=   1.0000000   1.0000000   1.0000000   1.0000000
 Leave Link  101 at Sun Jan 17 14:04:41 2021, MaxMem=  4026531840 cpu:               0.6 elap:               0.1
 (Enter /opt/ohpc/pub/libs/gaussian/g16-A.03/sandybridge/g16/l202.exe)
                          Input orientation:                          
 ---------------------------------------------------------------------
 Center     Atomic      Atomic             Coordinates (Angstroms)
 Number     Number       Type             X           Y           Z
 ---------------------------------------------------------------------
      1          6           0        6.129184    1.201496   -0.030856
      2          6           0        6.830271    0.000001    0.000182
      3          6           0        4.738958    1.200713   -0.032197
      4          6           0        6.129235   -1.201473    0.031153
      5          6           0        4.021751   -0.000032    0.000031
      6          6           0        4.738962   -1.200719    0.032361
      7          1           0        7.919539    0.000045    0.000190
      8          1           0        4.198073    2.145454   -0.081149
      9          1           0        6.668779   -2.147537    0.063412
     10          1           0        4.198148   -2.145504    0.081256
     11          6           0        2.536892   -0.000014   -0.000063
     12          6           0        1.813363   -0.924286   -0.760077
     13          6           0        1.813258    0.924290    0.759786
     14          6           0        0.426027   -0.922473   -0.771159
     15          6           0        0.425899    0.922498    0.770636
     16          6           0       -0.288344    0.000018   -0.000311
     17          1           0        2.347573   -1.638662   -1.386050
     18          1           0        2.347350    1.638674    1.385851
     19          1           0       -0.115370   -1.638494   -1.387158
     20          1           0       -0.115571    1.638578    1.386504
     21          1           0        6.668762    2.147543   -0.063006
     22          7           0       -1.704382   -0.000003   -0.000499
     23          6           0       -2.414266    1.227770    0.004035
     24          6           0       -3.559402    1.382015    0.792108
     25          6           0       -1.979956    2.301413   -0.780170
     26          6           0       -4.257371    2.583383    0.786193
     27          6           0       -2.673527    3.505213   -0.765830
     28          6           0       -3.817854    3.653503    0.012423
     29          1           0       -3.900046    0.551242    1.407814
     30          1           0       -1.092486    2.185578   -1.400082
     31          1           0       -5.147916    2.686607    1.405370
     32          1           0       -2.321511    4.331764   -1.382280
     33          1           0       -4.363183    4.595952    0.015664
     34          6           0       -2.414241   -1.227791   -0.004406
     35          6           0       -3.559682   -1.382189   -0.792032
     36          6           0       -1.979686   -2.301249    0.779869
     37          6           0       -4.257673   -2.583532   -0.785597
     38          6           0       -2.673287   -3.505060    0.766028
     39          6           0       -3.817885   -3.653507   -0.011769
     40          1           0       -3.900521   -0.551523   -1.407763
     41          1           0       -1.092008   -2.185299    1.399468
     42          1           0       -5.148466   -2.686887   -1.404399
     43          1           0       -2.321010   -4.331477    1.382521
     44          1           0       -4.363223   -4.595951   -0.014691
 ---------------------------------------------------------------------
                    Distance matrix (angstroms):
                    1          2          3          4          5
     1  C    0.000000
     2  C    1.391430   0.000000
     3  C    1.390227   2.411711   0.000000
     4  C    2.403769   1.391384   2.776217   0.000000
     5  C    2.426087   2.808520   1.399004   2.426091   0.000000
     6  C    2.776212   2.411708   2.402300   1.390274   1.398959
     7  H    2.156344   1.089268   3.399816   2.156338   3.897788
     8  H    2.150064   3.396770   1.089719   3.865737   2.154249
     9  H    3.393534   2.154529   3.865764   1.089580   3.409186
    10  H    3.865731   3.396739   3.391536   2.150070   2.154243
    11  C    3.788025   4.293379   2.508361   3.788061   1.484859
    12  C    4.865904   5.157680   3.688433   4.396547   2.511770
    13  C    4.396496   5.157686   3.043578   4.865946   2.511780
    14  C    6.130685   6.516154   4.863677   5.766119   3.791420
    15  C    5.766081   6.516178   4.395955   6.130753   3.791444
    16  C    6.529100   7.118615   5.168796   6.529157   4.310095
    17  H    4.919718   4.970054   3.951416   4.062089   2.721985
    18  H    4.062075   4.970101   2.814686   4.919786   2.722035
    19  H    6.992822   7.269890   5.784593   6.418542   4.660968
    20  H    6.418482   7.269907   5.076504   6.992887   4.660985
    21  H    1.089579   2.154533   2.149786   3.393503   3.409211
    22  N    7.925230   8.534653   6.554339   7.925282   5.726133
    23  C    8.543562   9.325712   7.153367   8.882194   6.552086
    24  C    9.725151  10.511062   8.341171  10.056001   7.746697
    25  C    8.217630   9.139231   6.849439   8.870594   6.475017
    26  C   10.509886  11.411726   9.138680  11.080470   8.708384
    27  C    9.128802  10.158517   7.797042  10.013825   7.596054
    28  C   10.244890  11.257477   8.901528  11.068682   8.649155
    29  H   10.152736  10.836282   8.782245  10.273932   8.064777
    30  H    7.415910   8.337120   6.070157   8.103937   5.735209
    31  H   11.464785  12.355945  10.100731  12.007488   9.657940
    32  H    9.112583  10.219124   7.840690  10.199491   7.804628
    33  H   11.027886  12.100265   9.714881  11.987544   9.561926
    34  C    8.882131   9.325690   7.554248   8.543591   6.552053
    35  C   10.056289  10.511383   8.724457   9.725503   7.746990
    36  C    8.870190   9.138873   7.619932   8.217340   6.474642
    37  C   11.080743  11.412037   9.789152  10.510234   8.708648
    38  C   10.013500  10.158228   8.816056   9.128579   7.595756
    39  C   11.068677  11.257508   9.837857  10.244975   8.649157
    40  H   10.274431  10.836807   8.922058  10.153271   8.065260
    41  H    8.103198   8.336429   6.893106   7.415292   5.734488
    42  H   12.007978  12.356470  10.712494  11.465331   9.658390
    43  H   10.198882  10.218537   9.080182   9.112067   7.804057
    44  H   11.987546  12.100302  10.791261  11.027976   9.561929
                    6          7          8          9         10
     6  C    0.000000
     7  H    3.399844   0.000000
     8  H    3.391507   4.296360   0.000000
     9  H    2.149796   2.486062   4.955306   0.000000
    10  H    1.089720   4.296359   4.294030   2.470696   0.000000
    11  C    2.508357   5.382647   2.714614   4.657078   2.714684
    12  C    3.043600   6.222361   3.946022   5.074401   2.808276
    13  C    3.688435   6.222370   2.808159   5.787672   3.946104
    14  C    4.395961   7.589383   4.910868   6.416326   4.056022
    15  C    4.863704   7.589410   4.055916   6.992770   4.910982
    16  C    5.168814   8.207883   4.973667   7.281319   4.973784
    17  H    2.814680   5.971083   4.409836   4.586144   2.415472
    18  H    3.951442   5.971135   2.415386   5.895675   4.409923
    19  H    5.076536   8.316809   5.884702   6.956145   4.584729
    20  H    5.784618   8.316829   4.584589   7.881158   5.884821
    21  H    3.865758   2.485998   2.470756   4.296940   4.955300
    22  N    6.554348   9.623921   6.280801   8.644409   6.280901
    23  C    7.554272  10.406481   6.676258   9.690094   7.423541
    24  C    8.724138  11.588920   7.843713  10.844557   8.551508
    25  C    7.620301  10.193393   6.219405   9.762449   7.660685
    26  C    9.788856  12.472713   8.511087  11.928318   9.713656
    27  C    8.816343  11.184187   7.038226  10.950795   8.936894
    28  C    9.837834  12.292856   8.157086  11.984329   9.893913
    29  H    8.921530  11.915864   8.386779  10.990491   8.637878
    30  H    6.893815   9.378375   5.452633   9.008603   6.995959
    31  H   10.711994  13.414564   9.478929  12.837604  10.604315
    32  H    9.080741  11.205093   6.998419  11.175718   9.306067
    33  H   10.791233  13.114414   8.905584  12.929853  10.897152
    34  C    7.153349  10.406470   7.423434   9.129720   6.676318
    35  C    8.341466  11.589249   8.551747  10.292665   7.844056
    36  C    6.849100  10.193062   7.660237   8.679452   6.219160
    37  C    9.138964  12.473044   9.713866  10.968056   8.511417
    38  C    7.796774  11.183927   8.936532   9.466295   7.038034
    39  C    8.901559  12.292913   9.893854  10.594514   8.157175
    40  H    8.782715  11.916391   8.638334  10.789890   8.387276
    41  H    6.069480   9.377723   6.995184   7.875042   5.452065
    42  H   10.101198  13.415112  10.604730  11.920262   9.479423
    43  H    7.840139  11.204542   9.305450   9.344835   6.997942
    44  H    9.714916  13.114482  10.897098  11.300703   8.905671
                   11         12         13         14         15
    11  C    0.000000
    12  C    1.398354   0.000000
    13  C    1.398340   2.393160   0.000000
    14  C    2.429253   1.387381   2.771053   0.000000
    15  C    2.429258   2.771056   1.387403   2.404381   0.000000
    16  C    2.825236   2.418420   2.418420   1.398400   1.398382
    17  H    2.154523   1.089750   3.385089   2.140878   3.860527
    18  H    2.154526   3.385102   1.089750   3.860524   2.140881
    19  H    3.412205   2.150194   3.859642   1.088693   3.392304
    20  H    3.412200   3.859646   2.150201   3.392318   1.088694
    21  H    4.657071   5.787654   5.074372   6.992726   6.416310
    22  N    4.241274   3.715614   3.715662   2.446121   2.446171
    23  C    5.101121   4.805004   4.305255   3.645783   2.957601
    24  C    6.300979   6.049372   5.392220   4.861904   4.011763
    25  C    5.129040   4.979438   4.319306   4.022720   3.177191
    26  C    7.311234   7.179729   6.293316   6.053973   4.969084
    27  C    6.326253   6.304972   5.396286   5.404782   4.317127
    28  C    7.330153   7.298186   6.302109   6.289999   5.103206
    29  H    6.612123   6.286492   5.762026   5.063069   4.388351
    30  H    4.461978   4.304047   3.833957   3.515879   2.934771
    31  H    8.261322   8.135546   7.209749   6.987959   5.880679
    32  H    6.654240   6.716426   5.770237   5.960658   4.879181
    33  H    8.290608   8.320128   7.223797   7.349057   6.082726
    34  C    5.101095   4.305321   4.804913   2.957744   3.645659
    35  C    6.301257   5.392616   6.049502   4.012188   4.861931
    36  C    5.128689   4.319107   4.979049   3.177132   4.022371
    37  C    7.311480   6.293745   7.179779   4.969544   6.053921
    38  C    6.325995   5.396241   6.304623   4.317227   5.404465
    39  C    7.330166   6.302346   7.298034   5.103529   6.289808
    40  H    6.612569   5.762545   6.286777   4.388837   5.063207
    41  H    4.461286   3.833402   4.303406   2.934413   3.515377
    42  H    8.261729   7.210338   8.135717   5.881252   6.987988
    43  H    6.653745   5.769984   6.715881   4.879125   5.960215
    44  H    8.290623   7.224053   8.319964   6.083058   7.348858
                   16         17         18         19         20
    16  C    0.000000
    17  H    3.399059   0.000000
    18  H    3.399047   4.292361   0.000000
    19  H    2.153598   2.462943   4.949182   0.000000
    20  H    2.153598   4.949185   2.462921   4.293297   0.000000
    21  H    7.281285   5.895631   4.586146   7.881110   6.956098
    22  N    1.416038   4.585117   4.585167   2.670662   2.670776
    23  C    2.454982   5.729213   4.975062   3.928843   2.713666
    24  C    3.638360   6.982923   5.942064   5.072872   3.504155
    25  C    2.960769   5.883773   4.884306   4.400907   2.934239
    26  C    4.800577   8.134469   6.698836   6.301101   4.290401
    27  C    4.308307   7.214954   5.772599   5.778230   3.828839
    28  C    5.079917   8.244709   6.629901   6.608513   4.433387
    29  H    3.915489   7.185687   6.341368   5.189469   3.937639
    30  H    2.717108   5.143833   4.460157   3.946954   3.003104
    31  H    5.727926   9.092983   7.568194   7.199391   5.140352
    32  H    4.980726   7.579337   6.059170   6.364830   4.448099
    33  H    6.142245   9.266578   7.460171   7.673340   5.354201
    34  C    2.454989   4.975201   5.729065   2.713943   3.928688
    35  C    3.638540   5.942583   6.982966   3.504733   5.072766
    36  C    2.960599   4.884199   5.883319   2.934438   4.400587
    37  C    4.800727   6.699448   8.134405   4.291113   6.300892
    38  C    4.308225   5.772687   7.214498   3.829258   5.777881
    39  C    5.079964   6.630318   8.244431   4.434026   6.608212
    40  H    3.915730   6.342005   7.185898   3.938185   5.189443
    41  H    2.716775   4.459668   5.143164   3.003015   3.946598
    42  H    5.728150   7.568997   9.093032   5.141156   7.199224
    43  H    4.980543   6.059035   7.578674   4.448385   6.364396
    44  H    6.142294   7.460628   9.266275   5.354855   7.673021
                   21         22         23         24         25
    21  H    0.000000
    22  N    8.644386   0.000000
    23  C    9.129725   1.418232   0.000000
    24  C   10.292356   2.445260   1.398638   0.000000
    25  C    8.679765   2.445474   1.398682   2.410809   0.000000
    26  C   10.967747   3.716251   2.417952   1.389417   2.778420
    27  C    9.466551   3.716384   2.417986   2.778474   1.389381
    28  C   10.594466   4.220786   2.802554   2.415443   2.415413
    29  H   10.789402   2.666113   2.153097   1.088722   3.396633
    30  H    7.875671   2.666461   2.153147   3.396628   1.088720
    31  H   11.919757   4.588275   3.400704   2.145094   3.867936
    32  H    9.345390   4.588504   3.400772   3.867991   2.145116
    33  H   11.300651   5.309641   3.891409   3.402693   3.402651
    34  C    9.690060   1.418231   2.455576   2.959209   3.639463
    35  C   10.844886   2.445220   2.959322   3.185957   4.008067
    36  C    9.762061   2.445506   3.639334   4.007753   4.859858
    37  C   11.928629   3.716221   4.306703   4.324615   5.389871
    38  C   10.950484   3.716418   4.800771   4.966828   6.048683
    39  C   11.984347   4.220795   5.079100   5.105831   6.279291
    40  H   10.991045   2.666007   2.714408   2.948621   3.495953
    41  H    9.007880   2.666539   3.917223   4.379800   5.066543
    42  H   12.838143   4.588245   4.978361   4.889349   5.942411
    43  H   11.175117   4.588534   5.728363   5.875899   6.984897
    44  H   12.929878   5.309649   6.141214   6.085485   7.337544
                   26         27         28         29         30
    26  C    0.000000
    27  C    2.401480   0.000000
    28  C    1.391780   1.391816   0.000000
    29  H    2.154922   3.867172   3.402631   0.000000
    30  H    3.867111   2.154856   3.402588   4.293917   0.000000
    31  H    1.089544   3.392171   2.155053   2.473251   4.956622
    32  H    3.392148   1.089547   2.155058   4.956687   2.473244
    33  H    2.157625   2.157633   1.088855   4.302587   4.302522
    34  C    4.306649   4.800867   5.079118   2.714211   3.917402
    35  C    4.324734   4.967158   5.106074   2.948445   4.380153
    36  C    5.389575   6.048603   6.279085   3.495540   5.066648
    37  C    5.400698   6.291480   6.303244   3.842624   5.756771
    38  C    6.291174   7.175689   7.288551   4.286072   6.290813
    39  C    6.303070   7.288720   7.307050   4.438680   6.591671
    40  H    3.842970   4.286572   4.439145   3.023833   3.921332
    41  H    5.756384   6.290600   6.591338   3.920944   5.190573
    42  H    5.776547   6.698895   6.631626   4.466830   6.339709
    43  H    7.205580   8.133473   8.238787   5.131758   7.191951
    44  H    7.224642   8.309521   8.267506   5.360191   7.655466
                   31         32         33         34         35
    31  H    0.000000
    32  H    4.297220   0.000000
    33  H    2.488511   2.488467   0.000000
    34  C    4.978249   5.728507   6.141234   0.000000
    35  C    4.889393   5.876284   6.085734   1.398652   0.000000
    36  C    5.942023   6.984883   7.337333   1.398656   2.410795
    37  C    5.776438   7.205975   7.224828   2.417961   1.389409
    38  C    6.698454   8.133559   8.309344   2.417980   2.778458
    39  C    6.631313   8.239053   8.267507   2.802565   2.415443
    40  H    4.467124   5.132291   5.360662   2.153086   1.088716
    41  H    6.339234   7.191795   7.655120   2.153134   3.396627
    42  H    6.063764   7.566613   7.461434   3.400725   2.145103
    43  H    7.566070   9.093727   9.259469   3.400754   3.867983
    44  H    7.461097   9.259751   9.191953   3.891419   3.402676
                   36         37         38         39         40
    36  C    0.000000
    37  C    2.778415   0.000000
    38  C    1.389401   2.401465   0.000000
    39  C    2.415423   1.391787   1.391801   0.000000
    40  H    3.396599   2.154927   3.867150   3.402636   0.000000
    41  H    1.088724   3.867109   2.154869   3.402592   4.293893
    42  H    3.867934   1.089546   3.392149   2.155045   2.473289
    43  H    2.145115   3.392154   1.089554   2.155069   4.956671
    44  H    3.402680   2.157607   2.157649   1.088854   4.302574
                   41         42         43         44
    41  H    0.000000
    42  H    4.956623   0.000000
    43  H    2.473219   4.297221   0.000000
    44  H    4.302550   2.488457   2.488530   0.000000
 Stoichiometry    C24H19N(1+,2)
 Framework group  C1[X(C24H19N)]
 Deg. of freedom   126
 Full point group                 C1      NOp   1
 Largest Abelian subgroup         C1      NOp   1
 Largest concise Abelian subgroup C1      NOp   1
                         Standard orientation:                         
 ---------------------------------------------------------------------
 Center     Atomic      Atomic             Coordinates (Angstroms)
 Number     Number       Type             X           Y           Z
 ---------------------------------------------------------------------
      1          6           0       -6.129184    1.201496    0.030856
      2          6           0       -6.830271    0.000001   -0.000182
      3          6           0       -4.738958    1.200713    0.032197
      4          6           0       -6.129235   -1.201473   -0.031153
      5          6           0       -4.021751   -0.000032   -0.000031
      6          6           0       -4.738962   -1.200719   -0.032361
      7          1           0       -7.919539    0.000045   -0.000190
      8          1           0       -4.198073    2.145454    0.081149
      9          1           0       -6.668779   -2.147537   -0.063412
     10          1           0       -4.198148   -2.145504   -0.081256
     11          6           0       -2.536892   -0.000014    0.000063
     12          6           0       -1.813363   -0.924286    0.760077
     13          6           0       -1.813258    0.924290   -0.759786
     14          6           0       -0.426027   -0.922473    0.771159
     15          6           0       -0.425899    0.922498   -0.770636
     16          6           0        0.288344    0.000018    0.000311
     17          1           0       -2.347573   -1.638662    1.386050
     18          1           0       -2.347350    1.638674   -1.385851
     19          1           0        0.115370   -1.638494    1.387158
     20          1           0        0.115571    1.638578   -1.386504
     21          1           0       -6.668762    2.147543    0.063006
     22          7           0        1.704382   -0.000003    0.000499
     23          6           0        2.414266    1.227770   -0.004035
     24          6           0        3.559402    1.382015   -0.792108
     25          6           0        1.979956    2.301413    0.780170
     26          6           0        4.257371    2.583383   -0.786193
     27          6           0        2.673527    3.505213    0.765830
     28          6           0        3.817854    3.653503   -0.012423
     29          1           0        3.900046    0.551242   -1.407814
     30          1           0        1.092486    2.185578    1.400082
     31          1           0        5.147916    2.686607   -1.405370
     32          1           0        2.321511    4.331764    1.382280
     33          1           0        4.363183    4.595952   -0.015664
     34          6           0        2.414241   -1.227791    0.004406
     35          6           0        3.559682   -1.382189    0.792032
     36          6           0        1.979686   -2.301249   -0.779869
     37          6           0        4.257673   -2.583532    0.785597
     38          6           0        2.673287   -3.505060   -0.766028
     39          6           0        3.817885   -3.653507    0.011769
     40          1           0        3.900521   -0.551523    1.407763
     41          1           0        1.092008   -2.185299   -1.399468
     42          1           0        5.148466   -2.686887    1.404399
     43          1           0        2.321010   -4.331477   -1.382521
     44          1           0        4.363223   -4.595951    0.014691
 ---------------------------------------------------------------------
 Rotational constants (GHZ):           0.3772696           0.1165367           0.0926339
 Leave Link  202 at Sun Jan 17 14:04:41 2021, MaxMem=  4026531840 cpu:               0.3 elap:               0.1
 (Enter /opt/ohpc/pub/libs/gaussian/g16-A.03/sandybridge/g16/l301.exe)
 Standard basis: TZVP (5D, 7F)
 Ernie: Thresh=  0.10000D-02 Tol=  0.10000D-05 Strict=F.
 There are   614 symmetry adapted cartesian basis functions of A   symmetry.
 There are   589 symmetry adapted basis functions of A   symmetry.
   589 basis functions,  1027 primitive gaussians,   614 cartesian basis functions
    85 alpha electrons       84 beta electrons
       nuclear repulsion energy      1905.4959532784 Hartrees.
 IExCor=33909 DFT=T Ex+Corr=LC-wHPBE ExCW=0 ScaHFX=  1.000000
 ScaDFX=  1.000000  1.000000  1.000000  1.000000 ScalE2=  1.000000  1.000000
 IRadAn=      5 IRanWt=     -1 IRanGd=            0 ICorTp=0 IEmpDi=  4
 HFx  wShort=  0.000000 wLong=  0.190100 cFull=  0.000000 cShort=  0.000000 cLong=  1.000000
 DFx  wShort=  0.000000 wLong=  0.190100 cFull=  0.000000 cShort=  1.000000 cLong=  0.000000
 NAtoms=   44 NActive=   44 NUniq=   44 SFac= 1.00D+00 NAtFMM=   60 NAOKFM=F Big=F
 Integral buffers will be    131072 words long.
 Raffenetti 2 integral format.
 Two-electron integral symmetry is turned on.
 Leave Link  301 at Sun Jan 17 14:04:41 2021, MaxMem=  4026531840 cpu:               0.4 elap:               0.1
 (Enter /opt/ohpc/pub/libs/gaussian/g16-A.03/sandybridge/g16/l302.exe)
 NPDir=0 NMtPBC=     1 NCelOv=     1 NCel=       1 NClECP=     1 NCelD=      1
         NCelK=      1 NCelE2=     1 NClLst=     1 CellRange=     0.0.
 One-electron integrals computed using PRISM.
 One-electron integral symmetry used in STVInt
 NBasis=   589 RedAO= T EigKep=  7.25D-06  NBF=   589
 NBsUse=   589 1.00D-06 EigRej= -1.00D+00 NBFU=   589
 Precomputing XC quadrature grid using
 IXCGrd= 4 IRadAn=           5 IRanWt=          -1 IRanGd=           0 AccXCQ= 0.00D+00.
 Generated NRdTot=       0 NPtTot=           0 NUsed=           0 NTot=          32
 NSgBfM=   586   586   586   586   586 MxSgAt=    44 MxSgA2=    44.
 Leave Link  302 at Sun Jan 17 14:04:42 2021, MaxMem=  4026531840 cpu:               8.2 elap:               1.1
 (Enter /opt/ohpc/pub/libs/gaussian/g16-A.03/sandybridge/g16/l303.exe)
 DipDrv:  MaxL=1.
 Leave Link  303 at Sun Jan 17 14:04:42 2021, MaxMem=  4026531840 cpu:               0.9 elap:               0.2
 (Enter /opt/ohpc/pub/libs/gaussian/g16-A.03/sandybridge/g16/l401.exe)
 ExpMin= 9.52D-02 ExpMax= 1.97D+04 ExpMxC= 6.73D+02 IAcc=3 IRadAn=         5 AccDes= 0.00D+00
 Harris functional with IExCor=33909 and IRadAn=       5 diagonalized for initial guess.
 HarFok:  IExCor=33909 AccDes= 0.00D+00 IRadAn=         5 IDoV= 1 UseB2=F ITyADJ=14
 ICtDFT=  3500011 ScaDFX=  1.000000  1.000000  1.000000  1.000000
 FoFCou: FMM=F IPFlag=           0 FMFlag=      100000 FMFlg1=           0
         NFxFlg=           0 DoJE=T BraDBF=F KetDBF=T FulRan=T
         wScrn=  0.000000 ICntrl=       500 IOpCl=  0 I1Cent=   200000004 NGrid=           0
         NMat0=    1 NMatS0=      1 NMatT0=    0 NMatD0=    1 NMtDS0=    0 NMtDT0=    0
 Petite list used in FoFCou.
 Harris En= -962.770238522478    
 JPrj=0 DoOrth=F DoCkMO=F.
 Initial guess <Sx>= 0.0000 <Sy>= 0.0000 <Sz>= 0.5000 <S**2>= 0.7500 S= 0.5000
 Leave Link  401 at Sun Jan 17 14:04:48 2021, MaxMem=  4026531840 cpu:              49.2 elap:               6.2
 (Enter /opt/ohpc/pub/libs/gaussian/g16-A.03/sandybridge/g16/l502.exe)
 Integral symmetry usage will be decided dynamically.
 UHF open shell SCF:
 Using DIIS extrapolation, IDIIS=    10.
 NGot=  4026531840 LenX=  4025766914 LenY=  4025389304
 Requested convergence on RMS density matrix=1.00D-06 within  32 cycles.
 Requested convergence on MAX density matrix=1.00D-04.
 Requested convergence on             energy=1.00D-04.
 Virtual orbitals will be shifted by   0.500 hartree.
 No special actions if energy rises.
 Dynamic level shift is on during FON iterations.

 Cycle   1  Pass 1  IDiag  1:
 FoFJK:  IHMeth= 1 ICntrl=       0 DoSepK=T KAlg= 0 I1Cent=           0 FoldK=F
 IRaf=         1 NMat=       1 IRICut=       1 DoRegI=T DoRafI=F ISym2E= 0 IDoP0=0 IntGTp=1.
 FoFCou: FMM=F IPFlag=           0 FMFlag=      100000 FMFlg1=           0
         NFxFlg=           0 DoJE=T BraDBF=F KetDBF=F FulRan=T
         wScrn=  0.000000 ICntrl=       500 IOpCl=  0 I1Cent=           0 NGrid=           0
         NMat0=    1 NMatS0=      1 NMatT0=    0 NMatD0=    1 NMtDS0=    0 NMtDT0=    0
 Symmetry not used in FoFCou.
 E= -979.451433737452    
 DIIS: error= 2.98D-02 at cycle   1 NSaved=   1.
 NSaved= 1 IEnMin= 1 EnMin= -979.451433737452     IErMin= 1 ErrMin= 2.98D-02
 ErrMax= 2.98D-02  0.00D+00 EMaxC= 1.00D+00 BMatC= 1.64D+00 BMatP= 1.64D+00
 IDIUse=1 WtCom= 1.00D+00 WtEn= 0.00D+00
 Coeff-Com:  0.100D+01
 Coeff:      0.100D+01
 Gap=     0.398 Goal=   None    Shift=    0.500
 T= 1492. Gap= 0.683 NK=0 IS=   86 IE=  589 IFin=   85
          NO(<0.9)=   0  NV(>0.1)=   0     85.00e < EF      0.00e >EF  Err=0.0D+00
 Gap=     0.071 Goal=   None    Shift=    0.500
 T= 1492. Gap= 0.492 NK=0 IS=   85 IE=  589 IFin=   84
          NO(<0.9)=   0  NV(>0.1)=   0     84.00e < EF      0.00e >EF  Err=0.0D+00
 GapD=    0.071 DampG=0.500 DampE=0.500 DampFc=0.2500 IDamp=-1.
 Damping current iteration by 2.50D-01
 RMSDP=2.61D-03 MaxDP=8.46D-02              OVMax= 9.47D-02

 Cycle   2  Pass 1  IDiag  1:
 E= -979.602990759835     Delta-E=       -0.151557022383 Rises=F Damp=T
 DIIS: error= 2.16D-02 at cycle   2 NSaved=   2.
 NSaved= 2 IEnMin= 2 EnMin= -979.602990759835     IErMin= 2 ErrMin= 2.16D-02
 ErrMax= 2.16D-02  0.00D+00 EMaxC= 1.00D+00 BMatC= 7.61D-01 BMatP= 1.64D+00
 IDIUse=1 WtCom= 1.00D+00 WtEn= 0.00D+00
 Coeff-Com: -0.189D+01 0.289D+01
 Coeff:     -0.189D+01 0.289D+01
 Gap=     0.296 Goal=   None    Shift=    0.500
 T= 1434. Gap= 0.767 NK=0 IS=   86 IE=  589 IFin=   85
          NO(<0.9)=   0  NV(>0.1)=   0     85.00e < EF      0.00e >EF  Err=0.0D+00
 Gap=     0.192 Goal=   None    Shift=    0.500
 T= 1434. Gap= 0.654 NK=0 IS=   85 IE=  589 IFin=   84
          NO(<0.9)=   0  NV(>0.1)=   0     84.00e < EF      0.00e >EF  Err=0.0D+00
 GapD=    0.192 DampG=1.000 DampE=0.500 DampFc=0.5000 IDamp=-1.
 Damping current iteration by 5.00D-01
 RMSDP=1.91D-03 MaxDP=7.02D-02 DE=-1.52D-01 OVMax= 3.13D-02

 Cycle   3  Pass 1  IDiag  1:
 E= -979.758266524666     Delta-E=       -0.155275764831 Rises=F Damp=T
 DIIS: error= 9.97D-03 at cycle   3 NSaved=   3.
 NSaved= 3 IEnMin= 3 EnMin= -979.758266524666     IErMin= 3 ErrMin= 9.97D-03
 ErrMax= 9.97D-03  0.00D+00 EMaxC= 1.00D+00 BMatC= 1.46D-01 BMatP= 7.61D-01
 IDIUse=1 WtCom= 1.00D+00 WtEn= 0.00D+00
 Coeff-Com:  0.702D-01-0.879D+00 0.181D+01
 Coeff:      0.702D-01-0.879D+00 0.181D+01
 Gap=     0.277 Goal=   None    Shift=    0.500
 T= 1266. Gap= 0.776 NK=4 IS=   86 IE=   96 IFin=   85
          NO(<0.9)=   0  NV(>0.1)=   0     85.00e < EF      0.00e >EF  Err=0.0D+00
 Gap=     0.152 Goal=   None    Shift=    0.500
 T= 1266. Gap= 0.651 NK=4 IS=   85 IE=   94 IFin=   84
          NO(<0.9)=   0  NV(>0.1)=   0     84.00e < EF      0.00e >EF  Err=0.0D+00
 GapD=    0.152 DampG=1.000 DampE=1.000 DampFc=1.0000 IDamp=-1.
 RMSDP=9.48D-04 MaxDP=3.65D-02 DE=-1.55D-01 OVMax= 1.03D-02

 Cycle   4  Pass 1  IDiag  1:
 E= -979.864983630856     Delta-E=       -0.106717106190 Rises=F Damp=F
 DIIS: error= 1.29D-03 at cycle   4 NSaved=   4.
 NSaved= 4 IEnMin= 4 EnMin= -979.864983630856     IErMin= 4 ErrMin= 1.29D-03
 ErrMax= 1.29D-03  0.00D+00 EMaxC= 1.00D+00 BMatC= 3.53D-03 BMatP= 1.46D-01
 IDIUse=1 WtCom= 1.00D+00 WtEn= 0.00D+00
 Coeff-Com:  0.187D+00-0.300D+00 0.161D+00 0.951D+00
 Coeff:      0.187D+00-0.300D+00 0.161D+00 0.951D+00
 Gap=     0.276 Goal=   None    Shift=    0.500
 T=  891. Gap= 0.776 NK=4 IS=   86 IE=   96 IFin=   85
          NO(<0.9)=   0  NV(>0.1)=   0     85.00e < EF      0.00e >EF  Err=0.0D+00
 Gap=     0.155 Goal=   None    Shift=    0.500
 T=  891. Gap= 0.655 NK=4 IS=   85 IE=   94 IFin=   84
          NO(<0.9)=   0  NV(>0.1)=   0     84.00e < EF      0.00e >EF  Err=0.0D+00
 GapD=    0.155 DampG=1.000 DampE=1.000 DampFc=1.0000 IDamp=-1.
 RMSDP=1.41D-04 MaxDP=5.78D-03 DE=-1.07D-01 OVMax= 7.80D-03

 Cycle   5  Pass 1  IDiag  1:
 E= -979.866083200813     Delta-E=       -0.001099569957 Rises=F Damp=F
 DIIS: error= 8.42D-04 at cycle   5 NSaved=   5.
 NSaved= 5 IEnMin= 5 EnMin= -979.866083200813     IErMin= 5 ErrMin= 8.42D-04
 ErrMax= 8.42D-04  0.00D+00 EMaxC= 1.00D+00 BMatC= 6.54D-04 BMatP= 3.53D-03
 IDIUse=1 WtCom= 1.00D+00 WtEn= 0.00D+00
 Coeff-Com:  0.247D-01 0.290D-01-0.137D+00-0.309D+00 0.139D+01
 Coeff:      0.247D-01 0.290D-01-0.137D+00-0.309D+00 0.139D+01
 Gap=     0.278 Goal=   None    Shift=    0.500
 Gap=     0.157 Goal=   None    Shift=    0.500
 RMSDP=1.02D-04 MaxDP=3.82D-03 DE=-1.10D-03 OVMax= 5.98D-03

 Cycle   6  Pass 1  IDiag  1:
 E= -979.866479568499     Delta-E=       -0.000396367686 Rises=F Damp=F
 DIIS: error= 7.12D-04 at cycle   6 NSaved=   6.
 NSaved= 6 IEnMin= 6 EnMin= -979.866479568499     IErMin= 6 ErrMin= 7.12D-04
 ErrMax= 7.12D-04  0.00D+00 EMaxC= 1.00D+00 BMatC= 1.83D-04 BMatP= 6.54D-04
 IDIUse=1 WtCom= 1.00D+00 WtEn= 0.00D+00
 Coeff-Com: -0.489D-01 0.882D-01-0.655D-01-0.348D+00 0.489D-01 0.133D+01
 Coeff:     -0.489D-01 0.882D-01-0.655D-01-0.348D+00 0.489D-01 0.133D+01
 Gap=     0.279 Goal=   None    Shift=    0.500
 Gap=     0.158 Goal=   None    Shift=    0.500
 RMSDP=5.84D-05 MaxDP=2.08D-03 DE=-3.96D-04 OVMax= 4.84D-03

 Cycle   7  Pass 1  IDiag  1:
 E= -979.866667489724     Delta-E=       -0.000187921225 Rises=F Damp=F
 DIIS: error= 4.62D-04 at cycle   7 NSaved=   7.
 NSaved= 7 IEnMin= 7 EnMin= -979.866667489724     IErMin= 7 ErrMin= 4.62D-04
 ErrMax= 4.62D-04  0.00D+00 EMaxC= 1.00D+00 BMatC= 7.78D-05 BMatP= 1.83D-04
 IDIUse=1 WtCom= 1.00D+00 WtEn= 0.00D+00
 Coeff-Com: -0.153D-01 0.810D-02 0.221D-01 0.954D-01-0.484D+00-0.737D+00
 Coeff-Com:  0.211D+01
 Coeff:     -0.153D-01 0.810D-02 0.221D-01 0.954D-01-0.484D+00-0.737D+00
 Coeff:      0.211D+01
 Gap=     0.279 Goal=   None    Shift=    0.500
 Gap=     0.159 Goal=   None    Shift=    0.500
 RMSDP=3.71D-05 MaxDP=1.00D-03 DE=-1.88D-04 OVMax= 4.29D-03

 Cycle   8  Pass 1  IDiag  1:
 E= -979.866778392484     Delta-E=       -0.000110902760 Rises=F Damp=F
 DIIS: error= 3.12D-04 at cycle   8 NSaved=   8.
 NSaved= 8 IEnMin= 8 EnMin= -979.866778392484     IErMin= 8 ErrMin= 3.12D-04
 ErrMax= 3.12D-04  0.00D+00 EMaxC= 1.00D+00 BMatC= 3.82D-05 BMatP= 7.78D-05
 IDIUse=1 WtCom= 1.00D+00 WtEn= 0.00D+00
 Coeff-Com:  0.906D-02-0.153D-01 0.962D-02 0.126D+00-0.616D-01-0.738D+00
 Coeff-Com: -0.327D+00 0.200D+01
 Coeff:      0.906D-02-0.153D-01 0.962D-02 0.126D+00-0.616D-01-0.738D+00
 Coeff:     -0.327D+00 0.200D+01
 Gap=     0.279 Goal=   None    Shift=    0.500
 Gap=     0.160 Goal=   None    Shift=    0.500
 RMSDP=2.06D-05 MaxDP=6.18D-04 DE=-1.11D-04 OVMax= 3.39D-03

 Cycle   9  Pass 1  IDiag  1:
 E= -979.866839968339     Delta-E=       -0.000061575854 Rises=F Damp=F
 DIIS: error= 2.35D-04 at cycle   9 NSaved=   9.
 NSaved= 9 IEnMin= 9 EnMin= -979.866839968339     IErMin= 9 ErrMin= 2.35D-04
 ErrMax= 2.35D-04  0.00D+00 EMaxC= 1.00D+00 BMatC= 1.96D-05 BMatP= 3.82D-05
 IDIUse=1 WtCom= 1.00D+00 WtEn= 0.00D+00
 Coeff-Com:  0.732D-02-0.524D-02-0.719D-02 0.115D-01 0.216D+00-0.172D+00
 Coeff-Com: -0.101D+01 0.229D+00 0.173D+01
 Coeff:      0.732D-02-0.524D-02-0.719D-02 0.115D-01 0.216D+00-0.172D+00
 Coeff:     -0.101D+01 0.229D+00 0.173D+01
 Gap=     0.279 Goal=   None    Shift=    0.500
 Gap=     0.160 Goal=   None    Shift=    0.500
 RMSDP=1.29D-05 MaxDP=3.89D-04 DE=-6.16D-05 OVMax= 2.67D-03

 Cycle  10  Pass 1  IDiag  1:
 E= -979.866873279671     Delta-E=       -0.000033311333 Rises=F Damp=F
 DIIS: error= 1.63D-04 at cycle  10 NSaved=  10.
 NSaved=10 IEnMin=10 EnMin= -979.866873279671     IErMin=10 ErrMin= 1.63D-04
 ErrMax= 1.63D-04  0.00D+00 EMaxC= 1.00D+00 BMatC= 1.01D-05 BMatP= 1.96D-05
 IDIUse=1 WtCom= 1.00D+00 WtEn= 0.00D+00
 Coeff-Com: -0.516D-02 0.897D-02-0.526D-02-0.694D-01 0.118D+00 0.276D+00
 Coeff-Com: -0.394D-02-0.126D+01-0.487D+00 0.243D+01
 Coeff:     -0.516D-02 0.897D-02-0.526D-02-0.694D-01 0.118D+00 0.276D+00
 Coeff:     -0.394D-02-0.126D+01-0.487D+00 0.243D+01
 Gap=     0.279 Goal=   None    Shift=    0.500
 Gap=     0.161 Goal=   None    Shift=    0.500
 RMSDP=9.52D-06 MaxDP=2.58D-04 DE=-3.33D-05 OVMax= 2.13D-03

 Cycle  11  Pass 1  IDiag  1:
 E= -979.866891899727     Delta-E=       -0.000018620056 Rises=F Damp=F
 DIIS: error= 1.45D-04 at cycle  11 NSaved=  11.
 NSaved=11 IEnMin=11 EnMin= -979.866891899727     IErMin=11 ErrMin= 1.45D-04
 ErrMax= 1.45D-04  0.00D+00 EMaxC= 1.00D+00 BMatC= 5.21D-06 BMatP= 1.01D-05
 IDIUse=1 WtCom= 1.00D+00 WtEn= 0.00D+00
 Coeff-Com: -0.440D-02 0.364D-02 0.339D-02-0.314D-01-0.456D-01 0.164D+00
 Coeff-Com:  0.452D+00-0.748D+00-0.899D+00 0.334D+00 0.177D+01
 Coeff:     -0.440D-02 0.364D-02 0.339D-02-0.314D-01-0.456D-01 0.164D+00
 Coeff:      0.452D+00-0.748D+00-0.899D+00 0.334D+00 0.177D+01
 Gap=     0.279 Goal=   None    Shift=    0.500
 Gap=     0.161 Goal=   None    Shift=    0.500
 RMSDP=6.56D-06 MaxDP=2.00D-04 DE=-1.86D-05 OVMax= 1.54D-03

 Cycle  12  Pass 1  IDiag  1:
 E= -979.866901029500     Delta-E=       -0.000009129773 Rises=F Damp=F
 DIIS: error= 1.17D-04 at cycle  12 NSaved=  12.
 NSaved=12 IEnMin=12 EnMin= -979.866901029500     IErMin=12 ErrMin= 1.17D-04
 ErrMax= 1.17D-04  0.00D+00 EMaxC= 1.00D+00 BMatC= 2.70D-06 BMatP= 5.21D-06
 IDIUse=1 WtCom= 1.00D+00 WtEn= 0.00D+00
 Coeff-Com:  0.159D-02-0.540D-02 0.676D-02 0.255D-01-0.100D+00-0.733D-01
 Coeff-Com:  0.250D+00 0.334D+00-0.188D+00-0.139D+01-0.545D-01 0.219D+01
 Coeff:      0.159D-02-0.540D-02 0.676D-02 0.255D-01-0.100D+00-0.733D-01
 Coeff:      0.250D+00 0.334D+00-0.188D+00-0.139D+01-0.545D-01 0.219D+01
 Gap=     0.279 Goal=   None    Shift=    0.500
 Gap=     0.161 Goal=   None    Shift=    0.500
 RMSDP=5.16D-06 MaxDP=1.37D-04 DE=-9.13D-06 OVMax= 1.20D-03

 Cycle  13  Pass 1  IDiag  1:
 E= -979.866905648323     Delta-E=       -0.000004618823 Rises=F Damp=F
 DIIS: error= 9.65D-05 at cycle  13 NSaved=  13.
 NSaved=13 IEnMin=13 EnMin= -979.866905648323     IErMin=13 ErrMin= 9.65D-05
 ErrMax= 9.65D-05  0.00D+00 EMaxC= 1.00D+00 BMatC= 1.46D-06 BMatP= 2.70D-06
 IDIUse=1 WtCom= 1.00D+00 WtEn= 0.00D+00
 Coeff-Com:  0.258D-02-0.349D-02 0.460D-03 0.143D-01 0.870D-02-0.776D-01
 Coeff-Com: -0.177D+00 0.388D+00 0.463D+00-0.443D+00-0.140D+01-0.114D+00
 Coeff-Com:  0.234D+01
 Coeff:      0.258D-02-0.349D-02 0.460D-03 0.143D-01 0.870D-02-0.776D-01
 Coeff:     -0.177D+00 0.388D+00 0.463D+00-0.443D+00-0.140D+01-0.114D+00
 Coeff:      0.234D+01
 Gap=     0.279 Goal=   None    Shift=    0.500
 Gap=     0.161 Goal=   None    Shift=    0.500
 RMSDP=3.85D-06 MaxDP=1.30D-04 DE=-4.62D-06 OVMax= 9.40D-04

 Cycle  14  Pass 1  IDiag  1:
 E= -979.866907923032     Delta-E=       -0.000002274709 Rises=F Damp=F
 DIIS: error= 7.76D-05 at cycle  14 NSaved=  14.
 NSaved=14 IEnMin=14 EnMin= -979.866907923032     IErMin=14 ErrMin= 7.76D-05
 ErrMax= 7.76D-05  0.00D+00 EMaxC= 1.00D+00 BMatC= 7.41D-07 BMatP= 1.46D-06
 IDIUse=1 WtCom= 1.00D+00 WtEn= 0.00D+00
 Coeff-Com:  0.743D-03 0.768D-04-0.211D-02-0.439D-02 0.425D-01-0.725D-02
 Coeff-Com: -0.167D+00 0.871D-02 0.354D+00 0.338D+00-0.863D+00-0.700D+00
 Coeff-Com:  0.159D+00 0.184D+01
 Coeff:      0.743D-03 0.768D-04-0.211D-02-0.439D-02 0.425D-01-0.725D-02
 Coeff:     -0.167D+00 0.871D-02 0.354D+00 0.338D+00-0.863D+00-0.700D+00
 Coeff:      0.159D+00 0.184D+01
 Gap=     0.279 Goal=   None    Shift=    0.500
 Gap=     0.161 Goal=   None    Shift=    0.500
 RMSDP=2.62D-06 MaxDP=8.92D-05 DE=-2.27D-06 OVMax= 6.81D-04

 Cycle  15  Pass 1  IDiag  1:
 E= -979.866909002466     Delta-E=       -0.000001079434 Rises=F Damp=F
 DIIS: error= 6.34D-05 at cycle  15 NSaved=  15.
 NSaved=15 IEnMin=15 EnMin= -979.866909002466     IErMin=15 ErrMin= 6.34D-05
 ErrMax= 6.34D-05  0.00D+00 EMaxC= 1.00D+00 BMatC= 3.98D-07 BMatP= 7.41D-07
 IDIUse=1 WtCom= 1.00D+00 WtEn= 0.00D+00
 Coeff-Com: -0.105D-02 0.181D-02-0.103D-02-0.973D-02 0.104D-01 0.430D-01
 Coeff-Com:  0.484D-01-0.263D+00-0.649D-01 0.369D+00 0.378D+00-0.136D+00
 Coeff-Com: -0.165D+01 0.146D+00 0.213D+01
 Coeff:     -0.105D-02 0.181D-02-0.103D-02-0.973D-02 0.104D-01 0.430D-01
 Coeff:      0.484D-01-0.263D+00-0.649D-01 0.369D+00 0.378D+00-0.136D+00
 Coeff:     -0.165D+01 0.146D+00 0.213D+01
 Gap=     0.279 Goal=   None    Shift=    0.500
 Gap=     0.161 Goal=   None    Shift=    0.500
 RMSDP=1.97D-06 MaxDP=8.92D-05 DE=-1.08D-06 OVMax= 5.44D-04

 Cycle  16  Pass 1  IDiag  1:
 E= -979.866909601701     Delta-E=       -0.000000599235 Rises=F Damp=F
 DIIS: error= 5.20D-05 at cycle  16 NSaved=  16.
 NSaved=16 IEnMin=16 EnMin= -979.866909601701     IErMin=16 ErrMin= 5.20D-05
 ErrMax= 5.20D-05  0.00D+00 EMaxC= 1.00D+00 BMatC= 2.22D-07 BMatP= 3.98D-07
 IDIUse=1 WtCom= 1.00D+00 WtEn= 0.00D+00
 Coeff-Com: -0.501D-03 0.605D-03 0.893D-04 0.423D-03-0.135D-01 0.126D-01
 Coeff-Com:  0.695D-01-0.824D-01-0.778D-01-0.102D+00 0.410D+00 0.234D+00
 Coeff-Com: -0.701D+00-0.473D+00-0.291D+00 0.201D+01
 Coeff:     -0.501D-03 0.605D-03 0.893D-04 0.423D-03-0.135D-01 0.126D-01
 Coeff:      0.695D-01-0.824D-01-0.778D-01-0.102D+00 0.410D+00 0.234D+00
 Coeff:     -0.701D+00-0.473D+00-0.291D+00 0.201D+01
 Gap=     0.279 Goal=   None    Shift=    0.500
 Gap=     0.161 Goal=   None    Shift=    0.500
 RMSDP=1.41D-06 MaxDP=5.59D-05 DE=-5.99D-07 OVMax= 4.41D-04

 Cycle  17  Pass 1  IDiag  1:
 E= -979.866909962711     Delta-E=       -0.000000361010 Rises=F Damp=F
 DIIS: error= 4.45D-05 at cycle  17 NSaved=  17.
 NSaved=17 IEnMin=17 EnMin= -979.866909962711     IErMin=17 ErrMin= 4.45D-05
 ErrMax= 4.45D-05  0.00D+00 EMaxC= 1.00D+00 BMatC= 1.33D-07 BMatP= 2.22D-07
 IDIUse=1 WtCom= 1.00D+00 WtEn= 0.00D+00
 Coeff-Com:  0.469D-03-0.854D-03 0.556D-03 0.706D-02-0.125D-01-0.242D-01
 Coeff-Com: -0.120D-01 0.143D+00 0.624D-01-0.347D+00-0.116D+00 0.239D+00
 Coeff-Com:  0.798D+00-0.272D+00-0.176D+01-0.383D+00 0.267D+01
 Coeff:      0.469D-03-0.854D-03 0.556D-03 0.706D-02-0.125D-01-0.242D-01
 Coeff:     -0.120D-01 0.143D+00 0.624D-01-0.347D+00-0.116D+00 0.239D+00
 Coeff:      0.798D+00-0.272D+00-0.176D+01-0.383D+00 0.267D+01
 Gap=     0.279 Goal=   None    Shift=    0.500
 Gap=     0.161 Goal=   None    Shift=    0.500
 RMSDP=1.23D-06 MaxDP=5.89D-05 DE=-3.61D-07 OVMax= 3.91D-04

 Cycle  18  Pass 1  IDiag  1:
 E= -979.866910216443     Delta-E=       -0.000000253732 Rises=F Damp=F
 DIIS: error= 3.98D-05 at cycle  18 NSaved=  18.
 NSaved=18 IEnMin=18 EnMin= -979.866910216443     IErMin=18 ErrMin= 3.98D-05
 ErrMax= 3.98D-05  0.00D+00 EMaxC= 1.00D+00 BMatC= 9.41D-08 BMatP= 1.33D-07
 IDIUse=1 WtCom= 1.00D+00 WtEn= 0.00D+00
 Coeff-Com:  0.432D-03-0.501D-03-0.149D-03-0.142D-03 0.961D-02-0.633D-02
 Coeff-Com: -0.593D-01 0.527D-01 0.139D+00-0.255D-01-0.362D+00-0.233D-01
 Coeff-Com:  0.426D+00 0.488D+00-0.702D-01-0.251D+01 0.432D+00 0.251D+01
 Coeff:      0.432D-03-0.501D-03-0.149D-03-0.142D-03 0.961D-02-0.633D-02
 Coeff:     -0.593D-01 0.527D-01 0.139D+00-0.255D-01-0.362D+00-0.233D-01
 Coeff:      0.426D+00 0.488D+00-0.702D-01-0.251D+01 0.432D+00 0.251D+01
 Gap=     0.279 Goal=   None    Shift=    0.500
 Gap=     0.161 Goal=   None    Shift=    0.500
 RMSDP=1.10D-06 MaxDP=4.87D-05 DE=-2.54D-07 OVMax= 3.61D-04

 Cycle  19  Pass 1  IDiag  1:
 E= -979.866910404772     Delta-E=       -0.000000188329 Rises=F Damp=F
 DIIS: error= 3.52D-05 at cycle  19 NSaved=  19.
 NSaved=19 IEnMin=19 EnMin= -979.866910404772     IErMin=19 ErrMin= 3.52D-05
 ErrMax= 3.52D-05  0.00D+00 EMaxC= 1.00D+00 BMatC= 6.80D-08 BMatP= 9.41D-08
 IDIUse=1 WtCom= 1.00D+00 WtEn= 0.00D+00
 Coeff-Com:  0.766D-04 0.125D-03-0.499D-03-0.294D-02 0.112D-01 0.807D-02
 Coeff-Com: -0.295D-01-0.522D-01 0.104D+00 0.107D+00-0.205D+00-0.594D-01
 Coeff-Com: -0.152D+00 0.601D+00 0.610D+00-0.185D+01-0.173D+00-0.224D+00
 Coeff-Com:  0.231D+01
 Coeff:      0.766D-04 0.125D-03-0.499D-03-0.294D-02 0.112D-01 0.807D-02
 Coeff:     -0.295D-01-0.522D-01 0.104D+00 0.107D+00-0.205D+00-0.594D-01
 Coeff:     -0.152D+00 0.601D+00 0.610D+00-0.185D+01-0.173D+00-0.224D+00
 Coeff:      0.231D+01
 Gap=     0.279 Goal=   None    Shift=    0.500
 Gap=     0.161 Goal=   None    Shift=    0.500
 RMSDP=9.34D-07 MaxDP=4.01D-05 DE=-1.88D-07 OVMax= 3.25D-04

 SCF Done:  E(ULC-wHPBE) =  -979.866910405     A.U. after   19 cycles
            NFock= 19  Conv=0.93D-06     -V/T= 2.0049
 <Sx>= 0.0000 <Sy>= 0.0000 <Sz>= 0.5000 <S**2>= 0.7697 S= 0.5098
 <L.S>= 0.000000000000E+00
 KE= 9.751295370372D+02 PE=-6.064340101781D+03 EE= 2.203847701060D+03
 Annihilation of the first spin contaminant:
 S**2 before annihilation     0.7697,   after     0.7504
 Leave Link  502 at Sun Jan 17 14:21:23 2021, MaxMem=  4026531840 cpu:            7935.8 elap:             994.5
 (Enter /opt/ohpc/pub/libs/gaussian/g16-A.03/sandybridge/g16/l508.exe)
 QCSCF skips out because SCF is already converged.
 Leave Link  508 at Sun Jan 17 14:21:23 2021, MaxMem=  4026531840 cpu:               0.1 elap:               0.0
 (Enter /opt/ohpc/pub/libs/gaussian/g16-A.03/sandybridge/g16/l601.exe)
 Copying SCF densities to generalized density rwf, IOpCl= 1 IROHF=0.

 **********************************************************************

            Population analysis using the SCF density.

 **********************************************************************

 Orbital symmetries:
 Alpha Orbitals:
       Occupied  (A) (A) (A) (A) (A) (A) (A) (A) (A) (A) (A) (A)
                 (A) (A) (A) (A) (A) (A) (A) (A) (A) (A) (A) (A)
                 (A) (A) (A) (A) (A) (A) (A) (A) (A) (A) (A) (A)
                 (A) (A) (A) (A) (A) (A) (A) (A) (A) (A) (A) (A)
                 (A) (A) (A) (A) (A) (A) (A) (A) (A) (A) (A) (A)
                 (A) (A) (A) (A) (A) (A) (A) (A) (A) (A) (A) (A)
                 (A) (A) (A) (A) (A) (A) (A) (A) (A) (A) (A) (A)
                 (A)
       Virtual   (A) (A) (A) (A) (A) (A) (A) (A) (A) (A) (A) (A)
                 (A) (A) (A) (A) (A) (A) (A) (A) (A) (A) (A) (A)
                 (A) (A) (A) (A) (A) (A) (A) (A) (A) (A) (A) (A)
                 (A) (A) (A) (A) (A) (A) (A) (A) (A) (A) (A) (A)
                 (A) (A) (A) (A) (A) (A) (A) (A) (A) (A) (A) (A)
                 (A) (A) (A) (A) (A) (A) (A) (A) (A) (A) (A) (A)
                 (A) (A) (A) (A) (A) (A) (A) (A) (A) (A) (A) (A)
                 (A) (A) (A) (A) (A) (A) (A) (A) (A) (A) (A) (A)
                 (A) (A) (A) (A) (A) (A) (A) (A) (A) (A) (A) (A)
                 (A) (A) (A) (A) (A) (A) (A) (A) (A) (A) (A) (A)
                 (A) (A) (A) (A) (A) (A) (A) (A) (A) (A) (A) (A)
                 (A) (A) (A) (A) (A) (A) (A) (A) (A) (A) (A) (A)
                 (A) (A) (A) (A) (A) (A) (A) (A) (A) (A) (A) (A)
                 (A) (A) (A) (A) (A) (A) (A) (A) (A) (A) (A) (A)
                 (A) (A) (A) (A) (A) (A) (A) (A) (A) (A) (A) (A)
                 (A) (A) (A) (A) (A) (A) (A) (A) (A) (A) (A) (A)
                 (A) (A) (A) (A) (A) (A) (A) (A) (A) (A) (A) (A)
                 (A) (A) (A) (A) (A) (A) (A) (A) (A) (A) (A) (A)
                 (A) (A) (A) (A) (A) (A) (A) (A) (A) (A) (A) (A)
                 (A) (A) (A) (A) (A) (A) (A) (A) (A) (A) (A) (A)
                 (A) (A) (A) (A) (A) (A) (A) (A) (A) (A) (A) (A)
                 (A) (A) (A) (A) (A) (A) (A) (A) (A) (A) (A) (A)
                 (A) (A) (A) (A) (A) (A) (A) (A) (A) (A) (A) (A)
                 (A) (A) (A) (A) (A) (A) (A) (A) (A) (A) (A) (A)
                 (A) (A) (A) (A) (A) (A) (A) (A) (A) (A) (A) (A)
                 (A) (A) (A) (A) (A) (A) (A) (A) (A) (A) (A) (A)
                 (A) (A) (A) (A) (A) (A) (A) (A) (A) (A) (A) (A)
                 (A) (A) (A) (A) (A) (A) (A) (A) (A) (A) (A) (A)
                 (A) (A) (A) (A) (A) (A) (A) (A) (A) (A) (A) (A)
                 (A) (A) (A) (A) (A) (A) (A) (A) (A) (A) (A) (A)
                 (A) (A) (A) (A) (A) (A) (A) (A) (A) (A) (A) (A)
                 (A) (A) (A) (A) (A) (A) (A) (A) (A) (A) (A) (A)
                 (A) (A) (A) (A) (A) (A) (A) (A) (A) (A) (A) (A)
                 (A) (A) (A) (A) (A) (A) (A) (A) (A) (A) (A) (A)
                 (A) (A) (A) (A) (A) (A) (A) (A) (A) (A) (A) (A)
                 (A) (A) (A) (A) (A) (A) (A) (A) (A) (A) (A) (A)
                 (A) (A) (A) (A) (A) (A) (A) (A) (A) (A) (A) (A)
                 (A) (A) (A) (A) (A) (A) (A) (A) (A) (A) (A) (A)
                 (A) (A) (A) (A) (A) (A) (A) (A) (A) (A) (A) (A)
                 (A) (A) (A) (A) (A) (A) (A) (A) (A) (A) (A) (A)
                 (A) (A) (A) (A) (A) (A) (A) (A) (A) (A) (A) (A)
                 (A) (A) (A) (A) (A) (A) (A) (A) (A) (A) (A) (A)
 Beta  Orbitals:
       Occupied  (A) (A) (A) (A) (A) (A) (A) (A) (A) (A) (A) (A)
                 (A) (A) (A) (A) (A) (A) (A) (A) (A) (A) (A) (A)
                 (A) (A) (A) (A) (A) (A) (A) (A) (A) (A) (A) (A)
                 (A) (A) (A) (A) (A) (A) (A) (A) (A) (A) (A) (A)
                 (A) (A) (A) (A) (A) (A) (A) (A) (A) (A) (A) (A)
                 (A) (A) (A) (A) (A) (A) (A) (A) (A) (A) (A) (A)
                 (A) (A) (A) (A) (A) (A) (A) (A) (A) (A) (A) (A)
       Virtual   (A) (A) (A) (A) (A) (A) (A) (A) (A) (A) (A) (A)
                 (A) (A) (A) (A) (A) (A) (A) (A) (A) (A) (A) (A)
                 (A) (A) (A) (A) (A) (A) (A) (A) (A) (A) (A) (A)
                 (A) (A) (A) (A) (A) (A) (A) (A) (A) (A) (A) (A)
                 (A) (A) (A) (A) (A) (A) (A) (A) (A) (A) (A) (A)
                 (A) (A) (A) (A) (A) (A) (A) (A) (A) (A) (A) (A)
                 (A) (A) (A) (A) (A) (A) (A) (A) (A) (A) (A) (A)
                 (A) (A) (A) (A) (A) (A) (A) (A) (A) (A) (A) (A)
                 (A) (A) (A) (A) (A) (A) (A) (A) (A) (A) (A) (A)
                 (A) (A) (A) (A) (A) (A) (A) (A) (A) (A) (A) (A)
                 (A) (A) (A) (A) (A) (A) (A) (A) (A) (A) (A) (A)
                 (A) (A) (A) (A) (A) (A) (A) (A) (A) (A) (A) (A)
                 (A) (A) (A) (A) (A) (A) (A) (A) (A) (A) (A) (A)
                 (A) (A) (A) (A) (A) (A) (A) (A) (A) (A) (A) (A)
                 (A) (A) (A) (A) (A) (A) (A) (A) (A) (A) (A) (A)
                 (A) (A) (A) (A) (A) (A) (A) (A) (A) (A) (A) (A)
                 (A) (A) (A) (A) (A) (A) (A) (A) (A) (A) (A) (A)
                 (A) (A) (A) (A) (A) (A) (A) (A) (A) (A) (A) (A)
                 (A) (A) (A) (A) (A) (A) (A) (A) (A) (A) (A) (A)
                 (A) (A) (A) (A) (A) (A) (A) (A) (A) (A) (A) (A)
                 (A) (A) (A) (A) (A) (A) (A) (A) (A) (A) (A) (A)
                 (A) (A) (A) (A) (A) (A) (A) (A) (A) (A) (A) (A)
                 (A) (A) (A) (A) (A) (A) (A) (A) (A) (A) (A) (A)
                 (A) (A) (A) (A) (A) (A) (A) (A) (A) (A) (A) (A)
                 (A) (A) (A) (A) (A) (A) (A) (A) (A) (A) (A) (A)
                 (A) (A) (A) (A) (A) (A) (A) (A) (A) (A) (A) (A)
                 (A) (A) (A) (A) (A) (A) (A) (A) (A) (A) (A) (A)
                 (A) (A) (A) (A) (A) (A) (A) (A) (A) (A) (A) (A)
                 (A) (A) (A) (A) (A) (A) (A) (A) (A) (A) (A) (A)
                 (A) (A) (A) (A) (A) (A) (A) (A) (A) (A) (A) (A)
                 (A) (A) (A) (A) (A) (A) (A) (A) (A) (A) (A) (A)
                 (A) (A) (A) (A) (A) (A) (A) (A) (A) (A) (A) (A)
                 (A) (A) (A) (A) (A) (A) (A) (A) (A) (A) (A) (A)
                 (A) (A) (A) (A) (A) (A) (A) (A) (A) (A) (A) (A)
                 (A) (A) (A) (A) (A) (A) (A) (A) (A) (A) (A) (A)
                 (A) (A) (A) (A) (A) (A) (A) (A) (A) (A) (A) (A)
                 (A) (A) (A) (A) (A) (A) (A) (A) (A) (A) (A) (A)
                 (A) (A) (A) (A) (A) (A) (A) (A) (A) (A) (A) (A)
                 (A) (A) (A) (A) (A) (A) (A) (A) (A) (A) (A) (A)
                 (A) (A) (A) (A) (A) (A) (A) (A) (A) (A) (A) (A)
                 (A) (A) (A) (A) (A) (A) (A) (A) (A) (A) (A) (A)
                 (A) (A) (A) (A) (A) (A) (A) (A) (A) (A) (A) (A)
                 (A)
 The electronic state is 2-A.
 Alpha  occ. eigenvalues --  -14.33075 -10.18549 -10.18319 -10.18317 -10.14334
 Alpha  occ. eigenvalues --  -10.13976 -10.13974 -10.13773 -10.13773 -10.13727
 Alpha  occ. eigenvalues --  -10.13727 -10.12896 -10.12896 -10.12708 -10.12707
 Alpha  occ. eigenvalues --  -10.12635 -10.12635 -10.12625 -10.12625 -10.10941
 Alpha  occ. eigenvalues --  -10.09432 -10.09430 -10.08761 -10.08705 -10.08692
 Alpha  occ. eigenvalues --   -1.17477  -1.04133  -1.03670  -1.01950  -0.99289
 Alpha  occ. eigenvalues --   -0.95033  -0.94436  -0.92429  -0.92418  -0.92223
 Alpha  occ. eigenvalues --   -0.90513  -0.88182  -0.87325  -0.82175  -0.81936
 Alpha  occ. eigenvalues --   -0.79540  -0.78718  -0.78605  -0.76018  -0.74632
 Alpha  occ. eigenvalues --   -0.74054  -0.73113  -0.72974  -0.69029  -0.67816
 Alpha  occ. eigenvalues --   -0.67265  -0.67077  -0.64403  -0.64353  -0.64005
 Alpha  occ. eigenvalues --   -0.62277  -0.62138  -0.61554  -0.61226  -0.60894
 Alpha  occ. eigenvalues --   -0.60687  -0.60264  -0.59265  -0.58516  -0.57689
 Alpha  occ. eigenvalues --   -0.57678  -0.56645  -0.55555  -0.55060  -0.54746
 Alpha  occ. eigenvalues --   -0.54401  -0.53332  -0.52885  -0.52801  -0.51734
 Alpha  occ. eigenvalues --   -0.49628  -0.48976  -0.47156  -0.46806  -0.46488
 Alpha  occ. eigenvalues --   -0.45313  -0.45239  -0.42163  -0.41513  -0.39553
 Alpha virt. eigenvalues --   -0.11607  -0.10869  -0.10750  -0.08594  -0.08428
 Alpha virt. eigenvalues --   -0.07170  -0.05368  -0.03921  -0.01312   0.00261
 Alpha virt. eigenvalues --    0.00588   0.01909   0.02012   0.02745   0.02857
 Alpha virt. eigenvalues --    0.03351   0.04044   0.04814   0.04944   0.05309
 Alpha virt. eigenvalues --    0.05634   0.05662   0.06073   0.06526   0.06868
 Alpha virt. eigenvalues --    0.07823   0.08068   0.08318   0.08868   0.09977
 Alpha virt. eigenvalues --    0.10147   0.10502   0.10806   0.12255   0.12336
 Alpha virt. eigenvalues --    0.12688   0.13433   0.13502   0.13779   0.13878
 Alpha virt. eigenvalues --    0.14802   0.15260   0.16055   0.16093   0.16536
 Alpha virt. eigenvalues --    0.16928   0.16954   0.17418   0.17849   0.17860
 Alpha virt. eigenvalues --    0.18059   0.18233   0.18675   0.18918   0.19786
 Alpha virt. eigenvalues --    0.20005   0.20223   0.20724   0.21306   0.21460
 Alpha virt. eigenvalues --    0.21565   0.21873   0.21882   0.22303   0.22731
 Alpha virt. eigenvalues --    0.23199   0.23871   0.24036   0.24737   0.25439
 Alpha virt. eigenvalues --    0.25622   0.25627   0.26076   0.26230   0.27173
 Alpha virt. eigenvalues --    0.27988   0.28169   0.28825   0.29373   0.29423
 Alpha virt. eigenvalues --    0.29885   0.30240   0.30385   0.31207   0.31768
 Alpha virt. eigenvalues --    0.32146   0.32202   0.32557   0.32728   0.32878
 Alpha virt. eigenvalues --    0.33110   0.33568   0.34461   0.34649   0.34871
 Alpha virt. eigenvalues --    0.35223   0.36114   0.36335   0.36791   0.37050
 Alpha virt. eigenvalues --    0.37141   0.37244   0.37581   0.38211   0.38612
 Alpha virt. eigenvalues --    0.38739   0.39264   0.39746   0.39949   0.40049
 Alpha virt. eigenvalues --    0.40106   0.40669   0.41432   0.41716   0.42029
 Alpha virt. eigenvalues --    0.42132   0.42395   0.42964   0.43409   0.43626
 Alpha virt. eigenvalues --    0.44233   0.44331   0.44808   0.45358   0.45613
 Alpha virt. eigenvalues --    0.46192   0.46971   0.47041   0.47347   0.48310
 Alpha virt. eigenvalues --    0.48928   0.49160   0.49167   0.49408   0.50744
 Alpha virt. eigenvalues --    0.51337   0.51483   0.53529   0.54131   0.54609
 Alpha virt. eigenvalues --    0.55454   0.56021   0.57264   0.57403   0.58777
 Alpha virt. eigenvalues --    0.59683   0.59863   0.60984   0.61408   0.62080
 Alpha virt. eigenvalues --    0.62215   0.62437   0.62600   0.62957   0.63882
 Alpha virt. eigenvalues --    0.64498   0.65258   0.65598   0.65964   0.66249
 Alpha virt. eigenvalues --    0.67393   0.68259   0.69569   0.69610   0.70782
 Alpha virt. eigenvalues --    0.70880   0.71390   0.73076   0.75152   0.76777
 Alpha virt. eigenvalues --    0.76790   0.78331   0.78638   0.79005   0.83959
 Alpha virt. eigenvalues --    0.84739   0.85542   0.86978   1.04241   1.06343
 Alpha virt. eigenvalues --    1.06714   1.10928   1.11489   1.13031   1.13695
 Alpha virt. eigenvalues --    1.13795   1.14713   1.14973   1.16305   1.16458
 Alpha virt. eigenvalues --    1.16702   1.17292   1.17550   1.18456   1.18471
 Alpha virt. eigenvalues --    1.18987   1.19341   1.19938   1.19972   1.20309
 Alpha virt. eigenvalues --    1.20648   1.21326   1.21502   1.21856   1.21979
 Alpha virt. eigenvalues --    1.22888   1.23038   1.23552   1.24081   1.24349
 Alpha virt. eigenvalues --    1.24581   1.25079   1.25191   1.25639   1.26505
 Alpha virt. eigenvalues --    1.26521   1.27006   1.28842   1.32174   1.32550
 Alpha virt. eigenvalues --    1.33167   1.33599   1.34135   1.34430   1.34622
 Alpha virt. eigenvalues --    1.34810   1.34839   1.35492   1.35712   1.35991
 Alpha virt. eigenvalues --    1.36286   1.36855   1.37165   1.37455   1.37739
 Alpha virt. eigenvalues --    1.37962   1.38735   1.38834   1.39144   1.39264
 Alpha virt. eigenvalues --    1.40141   1.40463   1.40678   1.41135   1.41924
 Alpha virt. eigenvalues --    1.42023   1.42337   1.42471   1.42680   1.43037
 Alpha virt. eigenvalues --    1.43400   1.44777   1.45099   1.45123   1.45631
 Alpha virt. eigenvalues --    1.45843   1.45857   1.46508   1.47139   1.47490
 Alpha virt. eigenvalues --    1.47854   1.47862   1.48018   1.48727   1.48805
 Alpha virt. eigenvalues --    1.49261   1.49499   1.50813   1.51035   1.52570
 Alpha virt. eigenvalues --    1.53124   1.55390   1.56840   1.56986   1.58224
 Alpha virt. eigenvalues --    1.58489   1.59475   1.60837   1.61192   1.65020
 Alpha virt. eigenvalues --    1.65840   1.66033   1.66973   1.67155   1.68089
 Alpha virt. eigenvalues --    1.68251   1.68969   1.69359   1.69524   1.69980
 Alpha virt. eigenvalues --    1.70713   1.71608   1.71817   1.72099   1.72160
 Alpha virt. eigenvalues --    1.72416   1.72921   1.74071   1.74461   1.74713
 Alpha virt. eigenvalues --    1.76230   1.77643   1.78287   1.78682   1.79095
 Alpha virt. eigenvalues --    1.79385   1.81155   1.81370   1.81678   1.81753
 Alpha virt. eigenvalues --    1.82084   1.82173   1.82212   1.82624   1.83103
 Alpha virt. eigenvalues --    1.83188   1.83409   1.83557   1.84146   1.84295
 Alpha virt. eigenvalues --    1.84880   1.85515   1.87118   1.87724   1.88102
 Alpha virt. eigenvalues --    1.88265   1.88957   1.89169   1.89750   1.90148
 Alpha virt. eigenvalues --    1.91223   1.92606   1.93128   1.93713   1.94208
 Alpha virt. eigenvalues --    1.95045   1.95702   1.96937   1.98123   2.00790
 Alpha virt. eigenvalues --    2.01159   2.02465   2.03449   2.04332   2.08627
 Alpha virt. eigenvalues --    2.08636   2.11010   2.12077   2.12786   2.15531
 Alpha virt. eigenvalues --    2.16839   2.18962   2.19078   2.19731   2.20129
 Alpha virt. eigenvalues --    2.20239   2.20450   2.20909   2.21174   2.21557
 Alpha virt. eigenvalues --    2.21800   2.23187   2.23444   2.24096   2.24641
 Alpha virt. eigenvalues --    2.25334   2.25870   2.26000   2.26343   2.26705
 Alpha virt. eigenvalues --    2.26712   2.27132   2.27323   2.27648   2.28215
 Alpha virt. eigenvalues --    2.30002   2.30902   2.33349   2.34450   2.34919
 Alpha virt. eigenvalues --    2.39554   2.39729   2.40983   2.41403   2.41909
 Alpha virt. eigenvalues --    2.42322   2.42939   2.43202   2.44457   2.44927
 Alpha virt. eigenvalues --    2.45086   2.46738   2.46905   2.48805   2.49270
 Alpha virt. eigenvalues --    2.52484   2.52823   2.53535   2.53690   2.54331
 Alpha virt. eigenvalues --    2.54617   2.55551   2.55923   2.56384   2.56868
 Alpha virt. eigenvalues --    2.57626   2.57764   2.57834   2.60914   2.62319
 Alpha virt. eigenvalues --    2.63459   2.63545   2.63707   2.64750   2.65226
 Alpha virt. eigenvalues --    2.67098   2.67103   2.68994   2.71264   2.72531
 Alpha virt. eigenvalues --    2.73690   2.73934   2.74057   2.74633   2.75711
 Alpha virt. eigenvalues --    2.79602   2.83799   2.84320   2.87423   2.88756
 Alpha virt. eigenvalues --    2.91337   2.91653   2.92418   2.92749   2.93447
 Alpha virt. eigenvalues --    2.94199   2.94990   2.95386   2.96459   2.96906
 Alpha virt. eigenvalues --    2.97935   2.99455   2.99925   3.01341   3.01584
 Alpha virt. eigenvalues --    3.03467   3.04599   3.06099   3.06411   3.06553
 Alpha virt. eigenvalues --    3.07104   3.08651   3.09614   3.09657   3.10764
 Alpha virt. eigenvalues --    3.11476   3.13043   3.13167   3.17403   3.19420
 Alpha virt. eigenvalues --    3.21970   3.22638   3.23104   3.26636   3.27009
 Alpha virt. eigenvalues --    3.29588   3.30447   3.32811   3.33249   3.41875
 Alpha virt. eigenvalues --    3.43770   3.44889   3.46500   3.47270   3.48687
 Alpha virt. eigenvalues --    3.66646   3.72572   3.78883   3.79470  20.98977
 Alpha virt. eigenvalues --   21.07614  21.09382  21.21722  21.51269  21.55267
 Alpha virt. eigenvalues --   21.58124  21.58171  21.61253  21.61426  21.67089
 Alpha virt. eigenvalues --   21.73788  21.77398  21.81552  21.83255  21.83923
 Alpha virt. eigenvalues --   21.85102  21.87485  21.89291  21.90535  21.95244
 Alpha virt. eigenvalues --   21.99118  22.00851  22.01957  31.85052
  Beta  occ. eigenvalues --  -14.32244 -10.18568 -10.18371 -10.18369 -10.14143
  Beta  occ. eigenvalues --  -10.13835 -10.13833 -10.13633 -10.13632 -10.13590
  Beta  occ. eigenvalues --  -10.13590 -10.12764 -10.12762 -10.12748 -10.12748
  Beta  occ. eigenvalues --  -10.12693 -10.12693 -10.12676 -10.12676 -10.10959
  Beta  occ. eigenvalues --  -10.09395 -10.09393 -10.08742 -10.08720 -10.08688
  Beta  occ. eigenvalues --   -1.16410  -1.03900  -1.03474  -1.01676  -0.99179
  Beta  occ. eigenvalues --   -0.94810  -0.94241  -0.92282  -0.92265  -0.92078
  Beta  occ. eigenvalues --   -0.90181  -0.88144  -0.87054  -0.81917  -0.81693
  Beta  occ. eigenvalues --   -0.79289  -0.78557  -0.78488  -0.75856  -0.74574
  Beta  occ. eigenvalues --   -0.73970  -0.72940  -0.72819  -0.68911  -0.67683
  Beta  occ. eigenvalues --   -0.67001  -0.66373  -0.64279  -0.64246  -0.63914
  Beta  occ. eigenvalues --   -0.62199  -0.61996  -0.61420  -0.61092  -0.60784
  Beta  occ. eigenvalues --   -0.60616  -0.60129  -0.59225  -0.57883  -0.57331
  Beta  occ. eigenvalues --   -0.57241  -0.56530  -0.55471  -0.54651  -0.54420
  Beta  occ. eigenvalues --   -0.54161  -0.53120  -0.52787  -0.52702  -0.50690
  Beta  occ. eigenvalues --   -0.49585  -0.48831  -0.46130  -0.46082  -0.45808
  Beta  occ. eigenvalues --   -0.44825  -0.44759  -0.41430  -0.40410
  Beta virt. eigenvalues --   -0.24310  -0.10927  -0.10476  -0.10223  -0.08082
  Beta virt. eigenvalues --   -0.07998  -0.06241  -0.05271  -0.03425  -0.01216
  Beta virt. eigenvalues --    0.00329   0.00666   0.01967   0.02072   0.02815
  Beta virt. eigenvalues --    0.02898   0.03403   0.04141   0.04944   0.05041
  Beta virt. eigenvalues --    0.05524   0.05813   0.05825   0.06105   0.06602
  Beta virt. eigenvalues --    0.07091   0.07882   0.08108   0.08463   0.09155
  Beta virt. eigenvalues --    0.10088   0.10186   0.10624   0.10886   0.12359
  Beta virt. eigenvalues --    0.12514   0.12819   0.13557   0.13691   0.13892
  Beta virt. eigenvalues --    0.14005   0.14908   0.15339   0.16196   0.16243
  Beta virt. eigenvalues --    0.16677   0.17052   0.17101   0.17545   0.17908
  Beta virt. eigenvalues --    0.17938   0.18098   0.18307   0.18772   0.19009
  Beta virt. eigenvalues --    0.19832   0.20064   0.20312   0.20760   0.21382
  Beta virt. eigenvalues --    0.21568   0.21630   0.21914   0.22069   0.22398
  Beta virt. eigenvalues --    0.22845   0.23345   0.24072   0.24230   0.24811
  Beta virt. eigenvalues --    0.25558   0.25738   0.25789   0.26197   0.26397
  Beta virt. eigenvalues --    0.27335   0.28131   0.28401   0.28961   0.29482
  Beta virt. eigenvalues --    0.29507   0.30040   0.30405   0.30532   0.31350
  Beta virt. eigenvalues --    0.31878   0.32235   0.32343   0.32688   0.32829
  Beta virt. eigenvalues --    0.33011   0.33247   0.33721   0.34613   0.34752
  Beta virt. eigenvalues --    0.35018   0.35352   0.36199   0.36485   0.36808
  Beta virt. eigenvalues --    0.37148   0.37170   0.37338   0.37646   0.38304
  Beta virt. eigenvalues --    0.38656   0.38826   0.39361   0.39841   0.40080
  Beta virt. eigenvalues --    0.40130   0.40193   0.40810   0.41493   0.41798
  Beta virt. eigenvalues --    0.42111   0.42188   0.42506   0.43085   0.43553
  Beta virt. eigenvalues --    0.43702   0.44363   0.44403   0.44931   0.45457
  Beta virt. eigenvalues --    0.45718   0.46283   0.47029   0.47101   0.47437
  Beta virt. eigenvalues --    0.48391   0.49027   0.49253   0.49279   0.49529
  Beta virt. eigenvalues --    0.50871   0.51443   0.51604   0.53615   0.54221
  Beta virt. eigenvalues --    0.54746   0.55593   0.56120   0.57355   0.57497
  Beta virt. eigenvalues --    0.58894   0.59770   0.59976   0.61088   0.61521
  Beta virt. eigenvalues --    0.62171   0.62398   0.62511   0.62700   0.63095
  Beta virt. eigenvalues --    0.63939   0.64588   0.65388   0.65658   0.66082
  Beta virt. eigenvalues --    0.66298   0.67482   0.68421   0.69682   0.69694
  Beta virt. eigenvalues --    0.70865   0.70968   0.71495   0.73456   0.75579
  Beta virt. eigenvalues --    0.76868   0.77224   0.78441   0.78730   0.79121
  Beta virt. eigenvalues --    0.84083   0.84836   0.85659   0.87166   1.04348
  Beta virt. eigenvalues --    1.06429   1.06807   1.11063   1.11587   1.13179
  Beta virt. eigenvalues --    1.13855   1.13962   1.14802   1.15081   1.16472
  Beta virt. eigenvalues --    1.16581   1.16858   1.17471   1.17720   1.18611
  Beta virt. eigenvalues --    1.18666   1.19095   1.19439   1.20045   1.20097
  Beta virt. eigenvalues --    1.20382   1.20722   1.21475   1.21631   1.21995
  Beta virt. eigenvalues --    1.22072   1.22959   1.23174   1.23636   1.24335
  Beta virt. eigenvalues --    1.24447   1.24673   1.25113   1.25382   1.25832
  Beta virt. eigenvalues --    1.26554   1.26563   1.27151   1.28917   1.32469
  Beta virt. eigenvalues --    1.32762   1.33295   1.34074   1.34230   1.34714
  Beta virt. eigenvalues --    1.34821   1.34977   1.35052   1.35827   1.35828
  Beta virt. eigenvalues --    1.36047   1.36385   1.36953   1.37294   1.37681
  Beta virt. eigenvalues --    1.37977   1.38161   1.38822   1.38891   1.39126
  Beta virt. eigenvalues --    1.39394   1.40214   1.40572   1.40830   1.41277
  Beta virt. eigenvalues --    1.42096   1.42225   1.42453   1.42540   1.42921
  Beta virt. eigenvalues --    1.43192   1.43471   1.44857   1.45165   1.45195
  Beta virt. eigenvalues --    1.45795   1.45992   1.46042   1.46588   1.47302
  Beta virt. eigenvalues --    1.47751   1.48021   1.48065   1.48156   1.48893
  Beta virt. eigenvalues --    1.49013   1.49400   1.49587   1.51036   1.51181
  Beta virt. eigenvalues --    1.52733   1.53322   1.55537   1.57023   1.57159
  Beta virt. eigenvalues --    1.58359   1.58574   1.59554   1.60971   1.61276
  Beta virt. eigenvalues --    1.65211   1.66071   1.66295   1.67274   1.67492
  Beta virt. eigenvalues --    1.68267   1.68568   1.68945   1.69531   1.69621
  Beta virt. eigenvalues --    1.70140   1.70813   1.71780   1.71871   1.72254
  Beta virt. eigenvalues --    1.72287   1.72598   1.73021   1.74291   1.74558
  Beta virt. eigenvalues --    1.74869   1.76535   1.77796   1.78499   1.78899
  Beta virt. eigenvalues --    1.79307   1.79554   1.81315   1.81521   1.81808
  Beta virt. eigenvalues --    1.81821   1.82222   1.82288   1.82344   1.82768
  Beta virt. eigenvalues --    1.83186   1.83328   1.83530   1.83623   1.84257
  Beta virt. eigenvalues --    1.84538   1.84968   1.85614   1.87196   1.87868
  Beta virt. eigenvalues --    1.88261   1.88386   1.89170   1.89351   1.89888
  Beta virt. eigenvalues --    1.90418   1.91423   1.92790   1.93212   1.94005
  Beta virt. eigenvalues --    1.94336   1.95251   1.95790   1.97131   1.98342
  Beta virt. eigenvalues --    2.01009   2.01254   2.02687   2.03578   2.04695
  Beta virt. eigenvalues --    2.08935   2.08945   2.11684   2.12525   2.13385
  Beta virt. eigenvalues --    2.15992   2.16998   2.19122   2.19362   2.19905
  Beta virt. eigenvalues --    2.20428   2.20534   2.20677   2.21074   2.21410
  Beta virt. eigenvalues --    2.21731   2.22012   2.23441   2.23759   2.24329
  Beta virt. eigenvalues --    2.24909   2.25596   2.26036   2.26158   2.26546
  Beta virt. eigenvalues --    2.26890   2.26907   2.27286   2.27597   2.27792
  Beta virt. eigenvalues --    2.28360   2.30060   2.31141   2.33649   2.34641
  Beta virt. eigenvalues --    2.35440   2.39694   2.39929   2.41036   2.41426
  Beta virt. eigenvalues --    2.42135   2.42541   2.42995   2.43243   2.44567
  Beta virt. eigenvalues --    2.45095   2.45490   2.46809   2.47128   2.49032
  Beta virt. eigenvalues --    2.49715   2.52700   2.53075   2.53794   2.53969
  Beta virt. eigenvalues --    2.54475   2.54774   2.55750   2.56473   2.56488
  Beta virt. eigenvalues --    2.57146   2.57754   2.57954   2.58029   2.60958
  Beta virt. eigenvalues --    2.62463   2.63850   2.63968   2.64044   2.65074
  Beta virt. eigenvalues --    2.65560   2.67474   2.67837   2.69066   2.71377
  Beta virt. eigenvalues --    2.72649   2.73948   2.74043   2.74204   2.74749
  Beta virt. eigenvalues --    2.75784   2.79792   2.84320   2.84875   2.87594
  Beta virt. eigenvalues --    2.88933   2.91432   2.91714   2.92464   2.92881
  Beta virt. eigenvalues --    2.93487   2.94310   2.95076   2.95461   2.96807
  Beta virt. eigenvalues --    2.96920   2.98112   2.99669   3.00059   3.01447
  Beta virt. eigenvalues --    3.01674   3.03693   3.04731   3.06194   3.06499
  Beta virt. eigenvalues --    3.06681   3.07245   3.08825   3.09753   3.09862
  Beta virt. eigenvalues --    3.10831   3.11580   3.13149   3.13291   3.17554
  Beta virt. eigenvalues --    3.19615   3.22059   3.22727   3.23163   3.26693
  Beta virt. eigenvalues --    3.27494   3.29859   3.30635   3.33259   3.34024
  Beta virt. eigenvalues --    3.41978   3.43871   3.44965   3.46806   3.47373
  Beta virt. eigenvalues --    3.48982   3.66883   3.72706   3.79146   3.79751
  Beta virt. eigenvalues --   20.99033  21.07689  21.09459  21.21781  21.51360
[...]
    41  H(1)              -0.00119      -5.33104      -1.90225      -1.77824
    42  H(1)               0.00079       3.52374       1.25736       1.17539
    43  H(1)               0.00086       3.82917       1.36634       1.27727
    44  H(1)              -0.00169      -7.56410      -2.69906      -2.52311
 --------------------------------------------------------
       Center         ----  Spin Dipole Couplings  ----
                      3XX-RR        3YY-RR        3ZZ-RR
 --------------------------------------------------------
     1   Atom        0.007142      0.004771     -0.011913
     2   Atom       -0.015034     -0.017141      0.032176
     3   Atom       -0.010989     -0.013395      0.024384
     4   Atom        0.007142      0.004771     -0.011913
     5   Atom        0.006053      0.004436     -0.010489
     6   Atom       -0.010991     -0.013398      0.024390
     7   Atom        0.002555     -0.002246     -0.000309
     8   Atom       -0.000204      0.001664     -0.001460
     9   Atom        0.000774     -0.000045     -0.000729
    10   Atom       -0.000204      0.001664     -0.001460
    11   Atom       -0.075943     -0.003441      0.079384
    12   Atom        0.021742     -0.003041     -0.018701
    13   Atom        0.021734     -0.003034     -0.018700
    14   Atom       -0.055734      0.057297     -0.001563
    15   Atom       -0.055733      0.057309     -0.001576
    16   Atom        0.001540     -0.023488      0.021947
    17   Atom        0.001601     -0.000750     -0.000851
    18   Atom        0.001600     -0.000750     -0.000850
    19   Atom       -0.003210      0.002695      0.000515
    20   Atom       -0.003210      0.002694      0.000515
    21   Atom        0.000774     -0.000045     -0.000729
    22   Atom       -0.510918     -0.511247      1.022165
    23   Atom       -0.010274      0.006016      0.004258
    24   Atom        0.042782     -0.041429     -0.001353
    25   Atom        0.015091     -0.011237     -0.003854
    26   Atom        0.003589      0.015276     -0.018866
    27   Atom        0.000495      0.018816     -0.019311
    28   Atom       -0.013648     -0.045679      0.059327
    29   Atom        0.000237     -0.000471      0.000234
    30   Atom        0.001874     -0.002253      0.000379
    31   Atom       -0.000680      0.001618     -0.000938
    32   Atom        0.000196      0.000797     -0.000993
    33   Atom       -0.001811      0.005719     -0.003907
    34   Atom       -0.010241      0.005991      0.004250
    35   Atom        0.042706     -0.041414     -0.001291
    36   Atom        0.015063     -0.011218     -0.003845
    37   Atom        0.003606      0.015274     -0.018879
    38   Atom        0.000517      0.018812     -0.019329
    39   Atom       -0.013707     -0.045665      0.059372
    40   Atom        0.000240     -0.000473      0.000232
    41   Atom        0.001878     -0.002255      0.000377
    42   Atom       -0.000679      0.001618     -0.000939
    43   Atom        0.000197      0.000797     -0.000993
    44   Atom       -0.001813      0.005719     -0.003906
 --------------------------------------------------------
                        XY            XZ            YZ
 --------------------------------------------------------
     1   Atom       -0.000072      0.001295      0.000102
     2   Atom        0.000000     -0.000001     -0.000872
     3   Atom       -0.002657      0.008746     -0.007125
     4   Atom        0.000072     -0.001293      0.000103
     5   Atom       -0.000000      0.000000      0.005722
     6   Atom        0.002657     -0.008751     -0.007126
     7   Atom       -0.000000      0.000000     -0.000085
     8   Atom        0.000069     -0.000086     -0.000634
     9   Atom       -0.000104     -0.000060      0.000078
    10   Atom       -0.000069      0.000086     -0.000634
    11   Atom       -0.000012     -0.000018      0.112396
    12   Atom        0.001835      0.002976     -0.028020
    13   Atom       -0.001833     -0.002972     -0.028007
    14   Atom        0.015940      0.006982      0.078481
    15   Atom       -0.015959     -0.006993      0.078473
    16   Atom        0.000018      0.000035      0.005554
    17   Atom       -0.000428      0.000559     -0.001854
    18   Atom        0.000428     -0.000559     -0.001854
    19   Atom       -0.001261      0.001864     -0.005793
    20   Atom        0.001263     -0.001866     -0.005793
    21   Atom        0.000104      0.000060      0.000078
    22   Atom        0.000001      0.000093      0.013403
    23   Atom        0.017189     -0.011633      0.009630
    24   Atom       -0.037171      0.069482     -0.030694
    25   Atom       -0.057226      0.062513     -0.044587
    26   Atom        0.013686     -0.025503      0.017673
    27   Atom        0.012452     -0.029002      0.013765
    28   Atom       -0.027816      0.082217     -0.047635
    29   Atom       -0.002663     -0.003660      0.004092
    30   Atom       -0.001217     -0.005430      0.001089
    31   Atom        0.001016     -0.000937      0.001075
    32   Atom        0.001640     -0.001377      0.000238
    33   Atom        0.006565      0.003258     -0.001909
    34   Atom       -0.017203      0.011605      0.009688
    35   Atom        0.037174     -0.069503     -0.030727
    36   Atom        0.057239     -0.062510     -0.044609
    37   Atom       -0.013687      0.025500      0.017687
    38   Atom       -0.012451      0.028992      0.013775
    39   Atom        0.027816     -0.082192     -0.047669
    40   Atom        0.002664      0.003661      0.004090
    41   Atom        0.001215      0.005431      0.001086
    42   Atom       -0.001016      0.000936      0.001076
    43   Atom       -0.001641      0.001376      0.000240
    44   Atom       -0.006565     -0.003259     -0.001906
 --------------------------------------------------------


 ---------------------------------------------------------------------------------
              Anisotropic Spin Dipole Couplings in Principal Axis System
 ---------------------------------------------------------------------------------

       Atom             a.u.   MegaHertz   Gauss  10(-4) cm-1        Axes

              Baa    -0.0120    -1.610    -0.575    -0.537 -0.0675 -0.0064  0.9977
     1 C(13)  Bbb     0.0048     0.640     0.228     0.214  0.0259  0.9996  0.0081
              Bcc     0.0072     0.970     0.346     0.324  0.9974 -0.0264  0.0673
 
              Baa    -0.0172    -2.302    -0.822    -0.768 -0.0000  0.9998  0.0177
     2 C(13)  Bbb    -0.0150    -2.017    -0.720    -0.673  1.0000  0.0000  0.0000
              Bcc     0.0322     4.320     1.541     1.441 -0.0000 -0.0177  0.9998
 
              Baa    -0.0152    -2.039    -0.727    -0.680  0.4292  0.9007  0.0673
     3 C(13)  Bbb    -0.0126    -1.693    -0.604    -0.565  0.8740 -0.3953 -0.2827
              Bcc     0.0278     3.732     1.332     1.245  0.2280 -0.1802  0.9568
 
              Baa    -0.0120    -1.610    -0.575    -0.537  0.0674 -0.0064  0.9977
     4 C(13)  Bbb     0.0048     0.640     0.228     0.214 -0.0258  0.9996  0.0082
              Bcc     0.0072     0.970     0.346     0.324  0.9974  0.0263 -0.0672
 
              Baa    -0.0124    -1.668    -0.595    -0.556 -0.0000 -0.3213  0.9470
     5 C(13)  Bbb     0.0061     0.812     0.290     0.271  1.0000  0.0000  0.0000
              Bcc     0.0064     0.856     0.305     0.285 -0.0000  0.9470  0.3213
 
              Baa    -0.0152    -2.039    -0.728    -0.680 -0.4291  0.9007  0.0673
     6 C(13)  Bbb    -0.0126    -1.694    -0.604    -0.565  0.8740  0.3953  0.2827
              Bcc     0.0278     3.733     1.332     1.245 -0.2281 -0.1801  0.9568
 
              Baa    -0.0022    -1.200    -0.428    -0.400  0.0000  0.9990  0.0438
     7 H(1)   Bbb    -0.0003    -0.163    -0.058    -0.054 -0.0000 -0.0438  0.9990
              Bcc     0.0026     1.363     0.487     0.455  1.0000 -0.0000  0.0000
 
              Baa    -0.0016    -0.847    -0.302    -0.283  0.0517  0.1900  0.9804
     8 H(1)   Bbb    -0.0002    -0.109    -0.039    -0.036  0.9978 -0.0513 -0.0427
              Bcc     0.0018     0.956     0.341     0.319  0.0421  0.9804 -0.1922
 
              Baa    -0.0007    -0.395    -0.141    -0.132  0.0322 -0.1069  0.9937
     9 H(1)   Bbb    -0.0001    -0.027    -0.010    -0.009  0.1318  0.9860  0.1018
              Bcc     0.0008     0.422     0.150     0.141  0.9908 -0.1277 -0.0459
 
              Baa    -0.0016    -0.847    -0.302    -0.282 -0.0517  0.1900  0.9804
    10 H(1)   Bbb    -0.0002    -0.109    -0.039    -0.036  0.9978  0.0514  0.0427
              Bcc     0.0018     0.956     0.341     0.319 -0.0422  0.9804 -0.1922
 
              Baa    -0.0818   -10.978    -3.917    -3.662 -0.0000  0.8203 -0.5720
    11 C(13)  Bbb    -0.0759   -10.191    -3.636    -3.399  1.0000  0.0001  0.0001
              Bcc     0.1578    21.169     7.554     7.061 -0.0001  0.5720  0.8203
 
              Baa    -0.0402    -5.389    -1.923    -1.798 -0.0561  0.6033  0.7955
    12 C(13)  Bbb     0.0182     2.441     0.871     0.814  0.0895  0.7966 -0.5978
              Bcc     0.0220     2.948     1.052     0.983  0.9944 -0.0376  0.0987
 
              Baa    -0.0401    -5.387    -1.922    -1.797  0.0561  0.6032  0.7956
    13 C(13)  Bbb     0.0182     2.440     0.871     0.814 -0.0892  0.7967 -0.5978
              Bcc     0.0220     2.947     1.051     0.983  0.9944  0.0374 -0.0985
 
              Baa    -0.0601    -8.067    -2.878    -2.691  0.7775 -0.4190  0.4689
    14 C(13)  Bbb    -0.0533    -7.152    -2.552    -2.386 -0.6207 -0.3923  0.6788
              Bcc     0.1134    15.218     5.430     5.076  0.1005  0.8189  0.5651
 
              Baa    -0.0601    -8.067    -2.878    -2.691  0.7778  0.4189 -0.4686
    15 C(13)  Bbb    -0.0533    -7.152    -2.552    -2.386  0.6204 -0.3923  0.6791
              Bcc     0.1134    15.219     5.430     5.076 -0.1006  0.8189  0.5650
 
              Baa    -0.0242    -3.242    -1.157    -1.081 -0.0005  0.9928 -0.1196
    16 C(13)  Bbb     0.0015     0.207     0.074     0.069  1.0000  0.0003 -0.0018
              Bcc     0.0226     3.035     1.083     1.012  0.0017  0.1196  0.9928
 
              Baa    -0.0027    -1.418    -0.506    -0.473 -0.0248  0.6939  0.7196
    17 H(1)   Bbb     0.0006     0.309     0.110     0.103  0.5624  0.6048 -0.5638
              Bcc     0.0021     1.108     0.396     0.370  0.8265 -0.3907  0.4053
 
              Baa    -0.0027    -1.418    -0.506    -0.473  0.0247  0.6940  0.7196
    18 H(1)   Bbb     0.0006     0.310     0.111     0.103 -0.5626  0.6046 -0.5638
              Bcc     0.0021     1.108     0.395     0.370  0.8263  0.3909 -0.4054
 
              Baa    -0.0047    -2.487    -0.887    -0.830 -0.5062  0.4784  0.7176
    19 H(1)   Bbb    -0.0033    -1.739    -0.620    -0.580  0.8410  0.4581  0.2878
              Bcc     0.0079     4.226     1.508     1.410 -0.1911  0.7492 -0.6342
 
              Baa    -0.0047    -2.487    -0.888    -0.830  0.5063  0.4782  0.7176
    20 H(1)   Bbb    -0.0033    -1.739    -0.621    -0.580  0.8409 -0.4584 -0.2878
              Bcc     0.0079     4.226     1.508     1.410  0.1913  0.7491 -0.6342
 
              Baa    -0.0007    -0.395    -0.141    -0.132 -0.0323 -0.1069  0.9937
    21 H(1)   Bbb    -0.0001    -0.027    -0.010    -0.009 -0.1319  0.9860  0.1018
              Bcc     0.0008     0.422     0.150     0.141  0.9907  0.1278  0.0460
 
              Baa    -0.5114   -19.722    -7.037    -6.579 -0.0013  1.0000 -0.0087
    22 N(14)  Bbb    -0.5109   -19.705    -7.031    -6.573  1.0000  0.0013 -0.0001
              Bcc     1.0223    39.427    14.069    13.151  0.0001  0.0087  1.0000
 
              Baa    -0.0281    -3.771    -1.346    -1.258  0.7568 -0.5001  0.4209
    23 C(13)  Bbb     0.0107     1.437     0.513     0.479 -0.4907 -0.0092  0.8713
              Bcc     0.0174     2.334     0.833     0.779  0.4319  0.8659  0.2523
 
              Baa    -0.0581    -7.791    -2.780    -2.599 -0.0243  0.8664  0.4988
    24 C(13)  Bbb    -0.0510    -6.838    -2.440    -2.281 -0.6430 -0.3956  0.6558
              Bcc     0.1090    14.629     5.220     4.880  0.7655 -0.3048  0.5667
 
              Baa    -0.0593    -7.961    -2.841    -2.656  0.7512  0.4280 -0.5025
    25 C(13)  Bbb    -0.0523    -7.016    -2.503    -2.340  0.0185  0.7473  0.6642
              Bcc     0.1116    14.977     5.344     4.996  0.6598 -0.5082  0.5535
 
              Baa    -0.0439    -5.891    -2.102    -1.965  0.5196 -0.3526  0.7783
    26 C(13)  Bbb     0.0195     2.622     0.936     0.875  0.6971 -0.3517 -0.6248
              Bcc     0.0244     3.269     1.166     1.090  0.4940  0.8672  0.0631
 
              Baa    -0.0454    -6.087    -2.172    -2.030  0.5662 -0.2764  0.7765
    27 C(13)  Bbb     0.0202     2.709     0.967     0.904  0.6436 -0.4404 -0.6260
              Bcc     0.0252     3.378     1.205     1.127  0.5150  0.8542 -0.0714
 
              Baa    -0.0683    -9.166    -3.271    -3.057  0.6904 -0.4084 -0.5971
    28 C(13)  Bbb    -0.0618    -8.288    -2.957    -2.764  0.5063  0.8623 -0.0045
              Bcc     0.1301    17.454     6.228     5.822  0.5168 -0.2992  0.8021
 
              Baa    -0.0043    -2.319    -0.828    -0.774  0.2292 -0.6278  0.7439
    29 H(1)   Bbb    -0.0026    -1.411    -0.504    -0.471  0.7995  0.5573  0.2241
              Bcc     0.0070     3.731     1.331     1.244 -0.5552  0.5433  0.6297
 
              Baa    -0.0044    -2.324    -0.829    -0.775  0.6558 -0.0113  0.7548
    30 H(1)   Bbb    -0.0025    -1.357    -0.484    -0.453  0.1399  0.9844 -0.1068
              Bcc     0.0069     3.681     1.313     1.228  0.7419 -0.1756 -0.6472
 
              Baa    -0.0023    -1.233    -0.440    -0.411  0.6214 -0.3522  0.6999
    31 H(1)   Bbb     0.0001     0.072     0.026     0.024  0.7420 -0.0223 -0.6700
              Bcc     0.0022     1.161     0.414     0.387  0.2516  0.9357  0.2474
 
              Baa    -0.0023    -1.252    -0.447    -0.418  0.6165 -0.3742  0.6928
    32 H(1)   Bbb     0.0000     0.008     0.003     0.003 -0.3930  0.6162  0.6825
              Bcc     0.0023     1.244     0.444     0.415  0.6823  0.6931 -0.2328
 
              Baa    -0.0086    -4.605    -1.643    -1.536  0.6756 -0.3921 -0.6243
    33 H(1)   Bbb    -0.0009    -0.475    -0.169    -0.158  0.5409 -0.3117  0.7812
              Bcc     0.0095     5.080     1.813     1.695  0.5009  0.8655 -0.0015
 
              Baa    -0.0281    -3.772    -1.346    -1.258  0.7560  0.5011 -0.4212
    34 C(13)  Bbb     0.0107     1.434     0.512     0.478  0.4935 -0.0136  0.8697
              Bcc     0.0174     2.338     0.834     0.780 -0.4301  0.8653  0.2575
 
              Baa    -0.0581    -7.791    -2.780    -2.599  0.0247  0.8662  0.4991
    35 C(13)  Bbb    -0.0510    -6.839    -2.440    -2.281  0.6433 -0.3959  0.6553
              Bcc     0.1090    14.630     5.220     4.880  0.7652  0.3049 -0.5670
 
              Baa    -0.0593    -7.962    -2.841    -2.656  0.7513 -0.4284  0.5020
    36 C(13)  Bbb    -0.0523    -7.017    -2.504    -2.340 -0.0181  0.7470  0.6645
              Bcc     0.1116    14.979     5.345     4.996  0.6597  0.5084 -0.5535
 
              Baa    -0.0439    -5.892    -2.102    -1.965 -0.5193 -0.3527  0.7784
    37 C(13)  Bbb     0.0195     2.623     0.936     0.875  0.6974  0.3514  0.6246
              Bcc     0.0244     3.269     1.167     1.090 -0.4938  0.8672  0.0635
 
              Baa    -0.0454    -6.087    -2.172    -2.030 -0.5659 -0.2765  0.7767
    38 C(13)  Bbb     0.0202     2.709     0.967     0.904  0.6438  0.4402  0.6258
              Bcc     0.0252     3.378     1.205     1.127 -0.5150  0.8542 -0.0711
 
              Baa    -0.0683    -9.167    -3.271    -3.058  0.6906  0.4084  0.5970
    39 C(13)  Bbb    -0.0618    -8.288    -2.957    -2.765 -0.5063  0.8623 -0.0042
              Bcc     0.1301    17.455     6.228     5.822 -0.5165 -0.2994  0.8022
 
              Baa    -0.0043    -2.320    -0.828    -0.774 -0.2289 -0.6279  0.7438
    40 H(1)   Bbb    -0.0026    -1.411    -0.504    -0.471  0.7993 -0.5574 -0.2245
              Bcc     0.0070     3.731     1.331     1.244  0.5556  0.5432  0.6295
 
              Baa    -0.0044    -2.324    -0.829    -0.775 -0.6556 -0.0113  0.7550
    41 H(1)   Bbb    -0.0025    -1.358    -0.484    -0.453 -0.1396  0.9845 -0.1065
              Bcc     0.0069     3.682     1.314     1.228  0.7421  0.1752  0.6470
 
              Baa    -0.0023    -1.233    -0.440    -0.411 -0.6211 -0.3523  0.7001
    42 H(1)   Bbb     0.0001     0.072     0.026     0.024  0.7423  0.0223  0.6697
              Bcc     0.0022     1.161     0.414     0.387 -0.2516  0.9356  0.2477
 
              Baa    -0.0023    -1.252    -0.447    -0.418 -0.6163 -0.3744  0.6928
    43 H(1)   Bbb     0.0000     0.008     0.003     0.003  0.3931  0.6160  0.6826
              Bcc     0.0023     1.244     0.444     0.415 -0.6824  0.6931 -0.2324
 
              Baa    -0.0086    -4.606    -1.643    -1.536  0.6758  0.3920  0.6241
    44 H(1)   Bbb    -0.0009    -0.475    -0.169    -0.158 -0.5407 -0.3118  0.7813
              Bcc     0.0095     5.081     1.813     1.695 -0.5009  0.8655 -0.0012
 

 ---------------------------------------------------------------------------------

 No NMR shielding tensors so no spin-rotation constants.
 Leave Link  601 at Sun Jan 17 14:21:24 2021, MaxMem=  4026531840 cpu:               5.8 elap:               0.8
 (Enter /opt/ohpc/pub/libs/gaussian/g16-A.03/sandybridge/g16/l9999.exe)

 Test job not archived.
 1\1\GINC-CASCADEB025\SP\ULC-wHPBE\TZVP\C24H19N1(1+,2)\RDU230\17-Jan-20
 21\0\\#P LC-wHPBE/TZVP iop(3/107=0190100000, 3/108=0190100000) scf=(co
 nver=6,fermi,ndamp=35,noincfock,novaracc,vshift=500,xqc)\\H19 C24 N1\\
 1,2\C,0,6.129184,1.201496,-0.030856\C,0,6.830271,0.000001,0.000182\C,0
 ,4.738958,1.200713,-0.032197\C,0,6.129235,-1.201473,0.031153\C,0,4.021
 751,-0.000032,0.000031\C,0,4.738962,-1.200719,0.032361\H,0,7.919539,0.
 000045,0.00019\H,0,4.198073,2.145454,-0.081149\H,0,6.668779,-2.147537,
 0.063412\H,0,4.198148,-2.145504,0.081256\C,0,2.536892,-0.000014,-0.000
 063\C,0,1.813363,-0.924286,-0.760077\C,0,1.813258,0.92429,0.759786\C,0
 ,0.426027,-0.922473,-0.771159\C,0,0.425899,0.922498,0.770636\C,0,-0.28
 8344,0.000018,-0.000311\H,0,2.347573,-1.638662,-1.38605\H,0,2.34735,1.
 638674,1.385851\H,0,-0.11537,-1.638494,-1.387158\H,0,-0.115571,1.63857
 8,1.386504\H,0,6.668762,2.147543,-0.063006\N,0,-1.704382,-0.000003,-0.
 000499\C,0,-2.414266,1.22777,0.004035\C,0,-3.559402,1.382015,0.792108\
 C,0,-1.979956,2.301413,-0.78017\C,0,-4.257371,2.583383,0.786193\C,0,-2
 .673527,3.505213,-0.76583\C,0,-3.817854,3.653503,0.012423\H,0,-3.90004
 6,0.551242,1.407814\H,0,-1.092486,2.185578,-1.400082\H,0,-5.147916,2.6
 86607,1.40537\H,0,-2.321511,4.331764,-1.38228\H,0,-4.363183,4.595952,0
 .015664\C,0,-2.414241,-1.227791,-0.004406\C,0,-3.559682,-1.382189,-0.7
 92032\C,0,-1.979686,-2.301249,0.779869\C,0,-4.257673,-2.583532,-0.7855
 97\C,0,-2.673287,-3.50506,0.766028\C,0,-3.817885,-3.653507,-0.011769\H
 ,0,-3.900521,-0.551523,-1.407763\H,0,-1.092008,-2.185299,1.399468\H,0,
 -5.148466,-2.686887,-1.404399\H,0,-2.32101,-4.331477,1.382521\H,0,-4.3
 63223,-4.595951,-0.014691\\Version=EM64L-G16RevA.03\State=2-A\HF=-979.
 8669104\S2=0.769675\S2-1=0.\S2A=0.750359\RMSD=9.344e-07\Dipole=-1.7653
 502,0.0000029,0.0001014\Quadrupole=27.5793854,1.6943282,-29.2737135,-0
 .0001125,-0.0011595,-0.2999715\PG=C01 [X(C24H19N1)]\\@


 KNOWLEDGE IS OF TWO KINDS:  WE KNOW A SUBJECT OURSELVES OR WE KNOW 
 WHERE WE CAN FIND INFORMATION UPON IT.

                                    -- SAMUEL JOHNSON
 Job cpu time:       0 days  2 hours 13 minutes 24.0 seconds.
 Elapsed time:       0 days  0 hours 16 minutes 43.5 seconds.
 File lengths (MBytes):  RWF=    220 Int=      0 D2E=      0 Chk=     32 Scr=      8
 Normal termination of Gaussian 16 at Sun Jan 17 14:21:24 2021.
