 Entering Gaussian System, Link 0=g16
 Input=mol_bp_pa_half_tune_c9.gjf
 Output=mol_bp_pa_half_tune_c9.log
 Initial command:
 /opt/ohpc/pub/libs/gaussian/g16-A.03/sandybridge/g16/l1.exe "/mnt/gpfs2_4m/scratch/rdu230/ondemand/projects/init_structures/wtuning/mol_bp_pa_half/tuning_mol_bp_pa_half_ocycle0/Gau-429338.inp" -scrdir="/mnt/gpfs2_4m/scratch/rdu230/ondemand/projects/init_structures/wtuning/mol_bp_pa_half/tuning_mol_bp_pa_half_ocycle0/"
 Entering Link 1 = /opt/ohpc/pub/libs/gaussian/g16-A.03/sandybridge/g16/l1.exe PID=    429339.
  
 Copyright (c) 1988,1990,1992,1993,1995,1998,2003,2009,2016,
            Gaussian, Inc.  All Rights Reserved.
  
 This is part of the Gaussian(R) 16 program.  It is based on
 the Gaussian(R) 09 system (copyright 2009, Gaussian, Inc.),
 the Gaussian(R) 03 system (copyright 2003, Gaussian, Inc.),
 the Gaussian(R) 98 system (copyright 1998, Gaussian, Inc.),
 the Gaussian(R) 94 system (copyright 1995, Gaussian, Inc.),
 the Gaussian 92(TM) system (copyright 1992, Gaussian, Inc.),
 the Gaussian 90(TM) system (copyright 1990, Gaussian, Inc.),
 the Gaussian 88(TM) system (copyright 1988, Gaussian, Inc.),
 the Gaussian 86(TM) system (copyright 1986, Carnegie Mellon
 University), and the Gaussian 82(TM) system (copyright 1983,
 Carnegie Mellon University). Gaussian is a federally registered
 trademark of Gaussian, Inc.
  
 This software contains proprietary and confidential information,
 including trade secrets, belonging to Gaussian, Inc.
  
 This software is provided under written license and may be
 used, copied, transmitted, or stored only in accord with that
 written license.
  
 The following legend is applicable only to US Government
 contracts under FAR:
  
                    RESTRICTED RIGHTS LEGEND
  
 Use, reproduction and disclosure by the US Government is
 subject to restrictions as set forth in subparagraphs (a)
 and (c) of the Commercial Computer Software - Restricted
 Rights clause in FAR 52.227-19.
  
 Gaussian, Inc.
 340 Quinnipiac St., Bldg. 40, Wallingford CT 06492
  
  
 ---------------------------------------------------------------
 Warning -- This program may not be used in any manner that
 competes with the business of Gaussian, Inc. or will provide
 assistance to any competitor of Gaussian, Inc.  The licensee
 of this program is prohibited from giving any competitor of
 Gaussian, Inc. access to this program.  By using this program,
 the user acknowledges that Gaussian, Inc. is engaged in the
 business of creating and licensing software in the field of
 computational chemistry and represents and warrants to the
 licensee that it is not a competitor of Gaussian, Inc. and that
 it will not use this program in any manner prohibited above.
 ---------------------------------------------------------------
  

 Cite this work as:
 Gaussian 16, Revision A.03,
 M. J. Frisch, G. W. Trucks, H. B. Schlegel, G. E. Scuseria, 
 M. A. Robb, J. R. Cheeseman, G. Scalmani, V. Barone, 
 G. A. Petersson, H. Nakatsuji, X. Li, M. Caricato, A. V. Marenich, 
 J. Bloino, B. G. Janesko, R. Gomperts, B. Mennucci, H. P. Hratchian, 
 J. V. Ortiz, A. F. Izmaylov, J. L. Sonnenberg, D. Williams-Young, 
 F. Ding, F. Lipparini, F. Egidi, J. Goings, B. Peng, A. Petrone, 
 T. Henderson, D. Ranasinghe, V. G. Zakrzewski, J. Gao, N. Rega, 
 G. Zheng, W. Liang, M. Hada, M. Ehara, K. Toyota, R. Fukuda, 
 J. Hasegawa, M. Ishida, T. Nakajima, Y. Honda, O. Kitao, H. Nakai, 
 T. Vreven, K. Throssell, J. A. Montgomery, Jr., J. E. Peralta, 
 F. Ogliaro, M. J. Bearpark, J. J. Heyd, E. N. Brothers, K. N. Kudin, 
 V. N. Staroverov, T. A. Keith, R. Kobayashi, J. Normand, 
 K. Raghavachari, A. P. Rendell, J. C. Burant, S. S. Iyengar, 
 J. Tomasi, M. Cossi, J. M. Millam, M. Klene, C. Adamo, R. Cammi, 
 J. W. Ochterski, R. L. Martin, K. Morokuma, O. Farkas, 
 J. B. Foresman, and D. J. Fox, Gaussian, Inc., Wallingford CT, 2016.
 
 ******************************************
 Gaussian 16:  EM64L-G16RevA.03 25-Dec-2016
                17-Jan-2021 
 ******************************************
 %mem=30GB
 %nproc=8
 Will use up to    8 processors via shared memory.
 ----------------------------------------------------------------------
 #P LC-wHPBE/TZVP iop(3/107=0183500000, 3/108=0183500000) scf=(conver=6
 ,fermi,ndamp=35,noincfock,novaracc,vshift=500,xqc)
 ----------------------------------------------------------------------
 1/38=1,172=1/1;
 2/12=2,17=6,18=5,40=1/2;
 3/5=19,7=101,11=2,25=1,30=1,74=-71,107=183500000,108=183500000/1,2,3;
 4//1;
 5/5=100002,6=6,8=3,10=500,13=1,18=-1,22=13,38=1,93=35/2,8;
 6/7=2,8=2,9=2,10=2,28=1/1;
 99/5=1,9=1/99;
 Leave Link    1 at Sun Jan 17 15:52:46 2021, MaxMem=  4026531840 cpu:               1.3 elap:               0.2
 (Enter /opt/ohpc/pub/libs/gaussian/g16-A.03/sandybridge/g16/l101.exe)
 ----------
 H19 C24 N1
 ----------
 Symbolic Z-matrix:
 Charge =  1 Multiplicity = 2
 C                     6.12918   1.2015   -0.03086 
 C                     6.83027   0.        0.00018 
 C                     4.73896   1.20071  -0.0322 
 C                     6.12924  -1.20147   0.03115 
 C                     4.02175  -0.00003   0.00003 
 C                     4.73896  -1.20072   0.03236 
 H                     7.91954   0.00005   0.00019 
 H                     4.19807   2.14545  -0.08115 
 H                     6.66878  -2.14754   0.06341 
 H                     4.19815  -2.1455    0.08126 
 C                     2.53689  -0.00001  -0.00006 
 C                     1.81336  -0.92429  -0.76008 
 C                     1.81326   0.92429   0.75979 
 C                     0.42603  -0.92247  -0.77116 
 C                     0.4259    0.9225    0.77064 
 C                    -0.28834   0.00002  -0.00031 
 H                     2.34757  -1.63866  -1.38605 
 H                     2.34735   1.63867   1.38585 
 H                    -0.11537  -1.63849  -1.38716 
 H                    -0.11557   1.63858   1.3865 
 H                     6.66876   2.14754  -0.06301 
 N                    -1.70438  0.        -0.0005 
 C                    -2.41427   1.22777   0.00404 
 C                    -3.5594    1.38202   0.79211 
 C                    -1.97996   2.30141  -0.78017 
 C                    -4.25737   2.58338   0.78619 
 C                    -2.67353   3.50521  -0.76583 
 C                    -3.81785   3.6535    0.01242 
 H                    -3.90005   0.55124   1.40781 
 H                    -1.09249   2.18558  -1.40008 
 H                    -5.14792   2.68661   1.40537 
 H                    -2.32151   4.33176  -1.38228 
 H                    -4.36318   4.59595   0.01566 
 C                    -2.41424  -1.22779  -0.00441 
 C                    -3.55968  -1.38219  -0.79203 
 C                    -1.97969  -2.30125   0.77987 
 C                    -4.25767  -2.58353  -0.7856 
 C                    -2.67329  -3.50506   0.76603 
 C                    -3.81789  -3.65351  -0.01177 
 H                    -3.90052  -0.55152  -1.40776 
 H                    -1.09201  -2.1853    1.39947 
 H                    -5.14847  -2.68689  -1.4044 
 H                    -2.32101  -4.33148   1.38252 
 H                    -4.36322  -4.59595  -0.01469 
 
 ITRead=  0  0  0  0  0  0  0  0  0  0  0  0  0  0  0  0  0  0  0  0
 ITRead=  0  0  0  0  0  0  0  0  0  0  0  0  0  0  0  0  0  0  0  0
 ITRead=  0  0  0  0
 MicOpt= -1 -1 -1 -1 -1 -1 -1 -1 -1 -1 -1 -1 -1 -1 -1 -1 -1 -1 -1 -1
 MicOpt= -1 -1 -1 -1 -1 -1 -1 -1 -1 -1 -1 -1 -1 -1 -1 -1 -1 -1 -1 -1
 MicOpt= -1 -1 -1 -1
 NAtoms=     44 NQM=       44 NQMF=       0 NMMI=      0 NMMIF=      0
                NMic=       0 NMicF=      0.
                    Isotopes and Nuclear Properties:
 (Nuclear quadrupole moments (NQMom) in fm**2, nuclear magnetic moments (NMagM)
  in nuclear magnetons)

  Atom         1           2           3           4           5           6           7           8           9          10
 IAtWgt=          12          12          12          12          12          12           1           1           1           1
 AtmWgt=  12.0000000  12.0000000  12.0000000  12.0000000  12.0000000  12.0000000   1.0078250   1.0078250   1.0078250   1.0078250
 NucSpn=           0           0           0           0           0           0           1           1           1           1
 AtZEff=  -0.0000000  -0.0000000  -0.0000000  -0.0000000  -0.0000000  -0.0000000  -0.0000000  -0.0000000  -0.0000000  -0.0000000
 NQMom=    0.0000000   0.0000000   0.0000000   0.0000000   0.0000000   0.0000000   0.0000000   0.0000000   0.0000000   0.0000000
 NMagM=    0.0000000   0.0000000   0.0000000   0.0000000   0.0000000   0.0000000   2.7928460   2.7928460   2.7928460   2.7928460
 AtZNuc=   6.0000000   6.0000000   6.0000000   6.0000000   6.0000000   6.0000000   1.0000000   1.0000000   1.0000000   1.0000000

  Atom        11          12          13          14          15          16          17          18          19          20
 IAtWgt=          12          12          12          12          12          12           1           1           1           1
 AtmWgt=  12.0000000  12.0000000  12.0000000  12.0000000  12.0000000  12.0000000   1.0078250   1.0078250   1.0078250   1.0078250
 NucSpn=           0           0           0           0           0           0           1           1           1           1
 AtZEff=  -0.0000000  -0.0000000  -0.0000000  -0.0000000  -0.0000000  -0.0000000  -0.0000000  -0.0000000  -0.0000000  -0.0000000
 NQMom=    0.0000000   0.0000000   0.0000000   0.0000000   0.0000000   0.0000000   0.0000000   0.0000000   0.0000000   0.0000000
 NMagM=    0.0000000   0.0000000   0.0000000   0.0000000   0.0000000   0.0000000   2.7928460   2.7928460   2.7928460   2.7928460
 AtZNuc=   6.0000000   6.0000000   6.0000000   6.0000000   6.0000000   6.0000000   1.0000000   1.0000000   1.0000000   1.0000000

  Atom        21          22          23          24          25          26          27          28          29          30
 IAtWgt=           1          14          12          12          12          12          12          12           1           1
 AtmWgt=   1.0078250  14.0030740  12.0000000  12.0000000  12.0000000  12.0000000  12.0000000  12.0000000   1.0078250   1.0078250
 NucSpn=           1           2           0           0           0           0           0           0           1           1
 AtZEff=  -0.0000000  -0.0000000  -0.0000000  -0.0000000  -0.0000000  -0.0000000  -0.0000000  -0.0000000  -0.0000000  -0.0000000
 NQMom=    0.0000000   2.0440000   0.0000000   0.0000000   0.0000000   0.0000000   0.0000000   0.0000000   0.0000000   0.0000000
 NMagM=    2.7928460   0.4037610   0.0000000   0.0000000   0.0000000   0.0000000   0.0000000   0.0000000   2.7928460   2.7928460
 AtZNuc=   1.0000000   7.0000000   6.0000000   6.0000000   6.0000000   6.0000000   6.0000000   6.0000000   1.0000000   1.0000000

  Atom        31          32          33          34          35          36          37          38          39          40
 IAtWgt=           1           1           1          12          12          12          12          12          12           1
 AtmWgt=   1.0078250   1.0078250   1.0078250  12.0000000  12.0000000  12.0000000  12.0000000  12.0000000  12.0000000   1.0078250
 NucSpn=           1           1           1           0           0           0           0           0           0           1
 AtZEff=  -0.0000000  -0.0000000  -0.0000000  -0.0000000  -0.0000000  -0.0000000  -0.0000000  -0.0000000  -0.0000000  -0.0000000
 NQMom=    0.0000000   0.0000000   0.0000000   0.0000000   0.0000000   0.0000000   0.0000000   0.0000000   0.0000000   0.0000000
 NMagM=    2.7928460   2.7928460   2.7928460   0.0000000   0.0000000   0.0000000   0.0000000   0.0000000   0.0000000   2.7928460
 AtZNuc=   1.0000000   1.0000000   1.0000000   6.0000000   6.0000000   6.0000000   6.0000000   6.0000000   6.0000000   1.0000000

  Atom        41          42          43          44
 IAtWgt=           1           1           1           1
 AtmWgt=   1.0078250   1.0078250   1.0078250   1.0078250
 NucSpn=           1           1           1           1
 AtZEff=  -0.0000000  -0.0000000  -0.0000000  -0.0000000
 NQMom=    0.0000000   0.0000000   0.0000000   0.0000000
 NMagM=    2.7928460   2.7928460   2.7928460   2.7928460
 AtZNuc=   1.0000000   1.0000000   1.0000000   1.0000000
 Leave Link  101 at Sun Jan 17 15:52:47 2021, MaxMem=  4026531840 cpu:               0.6 elap:               0.1
 (Enter /opt/ohpc/pub/libs/gaussian/g16-A.03/sandybridge/g16/l202.exe)
                          Input orientation:                          
 ---------------------------------------------------------------------
 Center     Atomic      Atomic             Coordinates (Angstroms)
 Number     Number       Type             X           Y           Z
 ---------------------------------------------------------------------
      1          6           0        6.129184    1.201496   -0.030856
      2          6           0        6.830271    0.000001    0.000182
      3          6           0        4.738958    1.200713   -0.032197
      4          6           0        6.129235   -1.201473    0.031153
      5          6           0        4.021751   -0.000032    0.000031
      6          6           0        4.738962   -1.200719    0.032361
      7          1           0        7.919539    0.000045    0.000190
      8          1           0        4.198073    2.145454   -0.081149
      9          1           0        6.668779   -2.147537    0.063412
     10          1           0        4.198148   -2.145504    0.081256
     11          6           0        2.536892   -0.000014   -0.000063
     12          6           0        1.813363   -0.924286   -0.760077
     13          6           0        1.813258    0.924290    0.759786
     14          6           0        0.426027   -0.922473   -0.771159
     15          6           0        0.425899    0.922498    0.770636
     16          6           0       -0.288344    0.000018   -0.000311
     17          1           0        2.347573   -1.638662   -1.386050
     18          1           0        2.347350    1.638674    1.385851
     19          1           0       -0.115370   -1.638494   -1.387158
     20          1           0       -0.115571    1.638578    1.386504
     21          1           0        6.668762    2.147543   -0.063006
     22          7           0       -1.704382   -0.000003   -0.000499
     23          6           0       -2.414266    1.227770    0.004035
     24          6           0       -3.559402    1.382015    0.792108
     25          6           0       -1.979956    2.301413   -0.780170
     26          6           0       -4.257371    2.583383    0.786193
     27          6           0       -2.673527    3.505213   -0.765830
     28          6           0       -3.817854    3.653503    0.012423
     29          1           0       -3.900046    0.551242    1.407814
     30          1           0       -1.092486    2.185578   -1.400082
     31          1           0       -5.147916    2.686607    1.405370
     32          1           0       -2.321511    4.331764   -1.382280
     33          1           0       -4.363183    4.595952    0.015664
     34          6           0       -2.414241   -1.227791   -0.004406
     35          6           0       -3.559682   -1.382189   -0.792032
     36          6           0       -1.979686   -2.301249    0.779869
     37          6           0       -4.257673   -2.583532   -0.785597
     38          6           0       -2.673287   -3.505060    0.766028
     39          6           0       -3.817885   -3.653507   -0.011769
     40          1           0       -3.900521   -0.551523   -1.407763
     41          1           0       -1.092008   -2.185299    1.399468
     42          1           0       -5.148466   -2.686887   -1.404399
     43          1           0       -2.321010   -4.331477    1.382521
     44          1           0       -4.363223   -4.595951   -0.014691
 ---------------------------------------------------------------------
                    Distance matrix (angstroms):
                    1          2          3          4          5
     1  C    0.000000
     2  C    1.391430   0.000000
     3  C    1.390227   2.411711   0.000000
     4  C    2.403769   1.391384   2.776217   0.000000
     5  C    2.426087   2.808520   1.399004   2.426091   0.000000
     6  C    2.776212   2.411708   2.402300   1.390274   1.398959
     7  H    2.156344   1.089268   3.399816   2.156338   3.897788
     8  H    2.150064   3.396770   1.089719   3.865737   2.154249
     9  H    3.393534   2.154529   3.865764   1.089580   3.409186
    10  H    3.865731   3.396739   3.391536   2.150070   2.154243
    11  C    3.788025   4.293379   2.508361   3.788061   1.484859
    12  C    4.865904   5.157680   3.688433   4.396547   2.511770
    13  C    4.396496   5.157686   3.043578   4.865946   2.511780
    14  C    6.130685   6.516154   4.863677   5.766119   3.791420
    15  C    5.766081   6.516178   4.395955   6.130753   3.791444
    16  C    6.529100   7.118615   5.168796   6.529157   4.310095
    17  H    4.919718   4.970054   3.951416   4.062089   2.721985
    18  H    4.062075   4.970101   2.814686   4.919786   2.722035
    19  H    6.992822   7.269890   5.784593   6.418542   4.660968
    20  H    6.418482   7.269907   5.076504   6.992887   4.660985
    21  H    1.089579   2.154533   2.149786   3.393503   3.409211
    22  N    7.925230   8.534653   6.554339   7.925282   5.726133
    23  C    8.543562   9.325712   7.153367   8.882194   6.552086
    24  C    9.725151  10.511062   8.341171  10.056001   7.746697
    25  C    8.217630   9.139231   6.849439   8.870594   6.475017
    26  C   10.509886  11.411726   9.138680  11.080470   8.708384
    27  C    9.128802  10.158517   7.797042  10.013825   7.596054
    28  C   10.244890  11.257477   8.901528  11.068682   8.649155
    29  H   10.152736  10.836282   8.782245  10.273932   8.064777
    30  H    7.415910   8.337120   6.070157   8.103937   5.735209
    31  H   11.464785  12.355945  10.100731  12.007488   9.657940
    32  H    9.112583  10.219124   7.840690  10.199491   7.804628
    33  H   11.027886  12.100265   9.714881  11.987544   9.561926
    34  C    8.882131   9.325690   7.554248   8.543591   6.552053
    35  C   10.056289  10.511383   8.724457   9.725503   7.746990
    36  C    8.870190   9.138873   7.619932   8.217340   6.474642
    37  C   11.080743  11.412037   9.789152  10.510234   8.708648
    38  C   10.013500  10.158228   8.816056   9.128579   7.595756
    39  C   11.068677  11.257508   9.837857  10.244975   8.649157
    40  H   10.274431  10.836807   8.922058  10.153271   8.065260
    41  H    8.103198   8.336429   6.893106   7.415292   5.734488
    42  H   12.007978  12.356470  10.712494  11.465331   9.658390
    43  H   10.198882  10.218537   9.080182   9.112067   7.804057
    44  H   11.987546  12.100302  10.791261  11.027976   9.561929
                    6          7          8          9         10
     6  C    0.000000
     7  H    3.399844   0.000000
     8  H    3.391507   4.296360   0.000000
     9  H    2.149796   2.486062   4.955306   0.000000
    10  H    1.089720   4.296359   4.294030   2.470696   0.000000
    11  C    2.508357   5.382647   2.714614   4.657078   2.714684
    12  C    3.043600   6.222361   3.946022   5.074401   2.808276
    13  C    3.688435   6.222370   2.808159   5.787672   3.946104
    14  C    4.395961   7.589383   4.910868   6.416326   4.056022
    15  C    4.863704   7.589410   4.055916   6.992770   4.910982
    16  C    5.168814   8.207883   4.973667   7.281319   4.973784
    17  H    2.814680   5.971083   4.409836   4.586144   2.415472
    18  H    3.951442   5.971135   2.415386   5.895675   4.409923
    19  H    5.076536   8.316809   5.884702   6.956145   4.584729
    20  H    5.784618   8.316829   4.584589   7.881158   5.884821
    21  H    3.865758   2.485998   2.470756   4.296940   4.955300
    22  N    6.554348   9.623921   6.280801   8.644409   6.280901
    23  C    7.554272  10.406481   6.676258   9.690094   7.423541
    24  C    8.724138  11.588920   7.843713  10.844557   8.551508
    25  C    7.620301  10.193393   6.219405   9.762449   7.660685
    26  C    9.788856  12.472713   8.511087  11.928318   9.713656
    27  C    8.816343  11.184187   7.038226  10.950795   8.936894
    28  C    9.837834  12.292856   8.157086  11.984329   9.893913
    29  H    8.921530  11.915864   8.386779  10.990491   8.637878
    30  H    6.893815   9.378375   5.452633   9.008603   6.995959
    31  H   10.711994  13.414564   9.478929  12.837604  10.604315
    32  H    9.080741  11.205093   6.998419  11.175718   9.306067
    33  H   10.791233  13.114414   8.905584  12.929853  10.897152
    34  C    7.153349  10.406470   7.423434   9.129720   6.676318
    35  C    8.341466  11.589249   8.551747  10.292665   7.844056
    36  C    6.849100  10.193062   7.660237   8.679452   6.219160
    37  C    9.138964  12.473044   9.713866  10.968056   8.511417
    38  C    7.796774  11.183927   8.936532   9.466295   7.038034
    39  C    8.901559  12.292913   9.893854  10.594514   8.157175
    40  H    8.782715  11.916391   8.638334  10.789890   8.387276
    41  H    6.069480   9.377723   6.995184   7.875042   5.452065
    42  H   10.101198  13.415112  10.604730  11.920262   9.479423
    43  H    7.840139  11.204542   9.305450   9.344835   6.997942
    44  H    9.714916  13.114482  10.897098  11.300703   8.905671
                   11         12         13         14         15
    11  C    0.000000
    12  C    1.398354   0.000000
    13  C    1.398340   2.393160   0.000000
    14  C    2.429253   1.387381   2.771053   0.000000
    15  C    2.429258   2.771056   1.387403   2.404381   0.000000
    16  C    2.825236   2.418420   2.418420   1.398400   1.398382
    17  H    2.154523   1.089750   3.385089   2.140878   3.860527
    18  H    2.154526   3.385102   1.089750   3.860524   2.140881
    19  H    3.412205   2.150194   3.859642   1.088693   3.392304
    20  H    3.412200   3.859646   2.150201   3.392318   1.088694
    21  H    4.657071   5.787654   5.074372   6.992726   6.416310
    22  N    4.241274   3.715614   3.715662   2.446121   2.446171
    23  C    5.101121   4.805004   4.305255   3.645783   2.957601
    24  C    6.300979   6.049372   5.392220   4.861904   4.011763
    25  C    5.129040   4.979438   4.319306   4.022720   3.177191
    26  C    7.311234   7.179729   6.293316   6.053973   4.969084
    27  C    6.326253   6.304972   5.396286   5.404782   4.317127
    28  C    7.330153   7.298186   6.302109   6.289999   5.103206
    29  H    6.612123   6.286492   5.762026   5.063069   4.388351
    30  H    4.461978   4.304047   3.833957   3.515879   2.934771
    31  H    8.261322   8.135546   7.209749   6.987959   5.880679
    32  H    6.654240   6.716426   5.770237   5.960658   4.879181
    33  H    8.290608   8.320128   7.223797   7.349057   6.082726
    34  C    5.101095   4.305321   4.804913   2.957744   3.645659
    35  C    6.301257   5.392616   6.049502   4.012188   4.861931
    36  C    5.128689   4.319107   4.979049   3.177132   4.022371
    37  C    7.311480   6.293745   7.179779   4.969544   6.053921
    38  C    6.325995   5.396241   6.304623   4.317227   5.404465
    39  C    7.330166   6.302346   7.298034   5.103529   6.289808
    40  H    6.612569   5.762545   6.286777   4.388837   5.063207
    41  H    4.461286   3.833402   4.303406   2.934413   3.515377
    42  H    8.261729   7.210338   8.135717   5.881252   6.987988
    43  H    6.653745   5.769984   6.715881   4.879125   5.960215
    44  H    8.290623   7.224053   8.319964   6.083058   7.348858
                   16         17         18         19         20
    16  C    0.000000
    17  H    3.399059   0.000000
    18  H    3.399047   4.292361   0.000000
    19  H    2.153598   2.462943   4.949182   0.000000
    20  H    2.153598   4.949185   2.462921   4.293297   0.000000
    21  H    7.281285   5.895631   4.586146   7.881110   6.956098
    22  N    1.416038   4.585117   4.585167   2.670662   2.670776
    23  C    2.454982   5.729213   4.975062   3.928843   2.713666
    24  C    3.638360   6.982923   5.942064   5.072872   3.504155
    25  C    2.960769   5.883773   4.884306   4.400907   2.934239
    26  C    4.800577   8.134469   6.698836   6.301101   4.290401
    27  C    4.308307   7.214954   5.772599   5.778230   3.828839
    28  C    5.079917   8.244709   6.629901   6.608513   4.433387
    29  H    3.915489   7.185687   6.341368   5.189469   3.937639
    30  H    2.717108   5.143833   4.460157   3.946954   3.003104
    31  H    5.727926   9.092983   7.568194   7.199391   5.140352
    32  H    4.980726   7.579337   6.059170   6.364830   4.448099
    33  H    6.142245   9.266578   7.460171   7.673340   5.354201
    34  C    2.454989   4.975201   5.729065   2.713943   3.928688
    35  C    3.638540   5.942583   6.982966   3.504733   5.072766
    36  C    2.960599   4.884199   5.883319   2.934438   4.400587
    37  C    4.800727   6.699448   8.134405   4.291113   6.300892
    38  C    4.308225   5.772687   7.214498   3.829258   5.777881
    39  C    5.079964   6.630318   8.244431   4.434026   6.608212
    40  H    3.915730   6.342005   7.185898   3.938185   5.189443
    41  H    2.716775   4.459668   5.143164   3.003015   3.946598
    42  H    5.728150   7.568997   9.093032   5.141156   7.199224
    43  H    4.980543   6.059035   7.578674   4.448385   6.364396
    44  H    6.142294   7.460628   9.266275   5.354855   7.673021
                   21         22         23         24         25
    21  H    0.000000
    22  N    8.644386   0.000000
    23  C    9.129725   1.418232   0.000000
    24  C   10.292356   2.445260   1.398638   0.000000
    25  C    8.679765   2.445474   1.398682   2.410809   0.000000
    26  C   10.967747   3.716251   2.417952   1.389417   2.778420
    27  C    9.466551   3.716384   2.417986   2.778474   1.389381
    28  C   10.594466   4.220786   2.802554   2.415443   2.415413
    29  H   10.789402   2.666113   2.153097   1.088722   3.396633
    30  H    7.875671   2.666461   2.153147   3.396628   1.088720
    31  H   11.919757   4.588275   3.400704   2.145094   3.867936
    32  H    9.345390   4.588504   3.400772   3.867991   2.145116
    33  H   11.300651   5.309641   3.891409   3.402693   3.402651
    34  C    9.690060   1.418231   2.455576   2.959209   3.639463
    35  C   10.844886   2.445220   2.959322   3.185957   4.008067
    36  C    9.762061   2.445506   3.639334   4.007753   4.859858
    37  C   11.928629   3.716221   4.306703   4.324615   5.389871
    38  C   10.950484   3.716418   4.800771   4.966828   6.048683
    39  C   11.984347   4.220795   5.079100   5.105831   6.279291
    40  H   10.991045   2.666007   2.714408   2.948621   3.495953
    41  H    9.007880   2.666539   3.917223   4.379800   5.066543
    42  H   12.838143   4.588245   4.978361   4.889349   5.942411
    43  H   11.175117   4.588534   5.728363   5.875899   6.984897
    44  H   12.929878   5.309649   6.141214   6.085485   7.337544
                   26         27         28         29         30
    26  C    0.000000
    27  C    2.401480   0.000000
    28  C    1.391780   1.391816   0.000000
    29  H    2.154922   3.867172   3.402631   0.000000
    30  H    3.867111   2.154856   3.402588   4.293917   0.000000
    31  H    1.089544   3.392171   2.155053   2.473251   4.956622
    32  H    3.392148   1.089547   2.155058   4.956687   2.473244
    33  H    2.157625   2.157633   1.088855   4.302587   4.302522
    34  C    4.306649   4.800867   5.079118   2.714211   3.917402
    35  C    4.324734   4.967158   5.106074   2.948445   4.380153
    36  C    5.389575   6.048603   6.279085   3.495540   5.066648
    37  C    5.400698   6.291480   6.303244   3.842624   5.756771
    38  C    6.291174   7.175689   7.288551   4.286072   6.290813
    39  C    6.303070   7.288720   7.307050   4.438680   6.591671
    40  H    3.842970   4.286572   4.439145   3.023833   3.921332
    41  H    5.756384   6.290600   6.591338   3.920944   5.190573
    42  H    5.776547   6.698895   6.631626   4.466830   6.339709
    43  H    7.205580   8.133473   8.238787   5.131758   7.191951
    44  H    7.224642   8.309521   8.267506   5.360191   7.655466
                   31         32         33         34         35
    31  H    0.000000
    32  H    4.297220   0.000000
    33  H    2.488511   2.488467   0.000000
    34  C    4.978249   5.728507   6.141234   0.000000
    35  C    4.889393   5.876284   6.085734   1.398652   0.000000
    36  C    5.942023   6.984883   7.337333   1.398656   2.410795
    37  C    5.776438   7.205975   7.224828   2.417961   1.389409
    38  C    6.698454   8.133559   8.309344   2.417980   2.778458
    39  C    6.631313   8.239053   8.267507   2.802565   2.415443
    40  H    4.467124   5.132291   5.360662   2.153086   1.088716
    41  H    6.339234   7.191795   7.655120   2.153134   3.396627
    42  H    6.063764   7.566613   7.461434   3.400725   2.145103
    43  H    7.566070   9.093727   9.259469   3.400754   3.867983
    44  H    7.461097   9.259751   9.191953   3.891419   3.402676
                   36         37         38         39         40
    36  C    0.000000
    37  C    2.778415   0.000000
    38  C    1.389401   2.401465   0.000000
    39  C    2.415423   1.391787   1.391801   0.000000
    40  H    3.396599   2.154927   3.867150   3.402636   0.000000
    41  H    1.088724   3.867109   2.154869   3.402592   4.293893
    42  H    3.867934   1.089546   3.392149   2.155045   2.473289
    43  H    2.145115   3.392154   1.089554   2.155069   4.956671
    44  H    3.402680   2.157607   2.157649   1.088854   4.302574
                   41         42         43         44
    41  H    0.000000
    42  H    4.956623   0.000000
    43  H    2.473219   4.297221   0.000000
    44  H    4.302550   2.488457   2.488530   0.000000
 Stoichiometry    C24H19N(1+,2)
 Framework group  C1[X(C24H19N)]
 Deg. of freedom   126
 Full point group                 C1      NOp   1
 Largest Abelian subgroup         C1      NOp   1
 Largest concise Abelian subgroup C1      NOp   1
                         Standard orientation:                         
 ---------------------------------------------------------------------
 Center     Atomic      Atomic             Coordinates (Angstroms)
 Number     Number       Type             X           Y           Z
 ---------------------------------------------------------------------
      1          6           0       -6.129184    1.201496    0.030856
      2          6           0       -6.830271    0.000001   -0.000182
      3          6           0       -4.738958    1.200713    0.032197
      4          6           0       -6.129235   -1.201473   -0.031153
      5          6           0       -4.021751   -0.000032   -0.000031
      6          6           0       -4.738962   -1.200719   -0.032361
      7          1           0       -7.919539    0.000045   -0.000190
      8          1           0       -4.198073    2.145454    0.081149
      9          1           0       -6.668779   -2.147537   -0.063412
     10          1           0       -4.198148   -2.145504   -0.081256
     11          6           0       -2.536892   -0.000014    0.000063
     12          6           0       -1.813363   -0.924286    0.760077
     13          6           0       -1.813258    0.924290   -0.759786
     14          6           0       -0.426027   -0.922473    0.771159
     15          6           0       -0.425899    0.922498   -0.770636
     16          6           0        0.288344    0.000018    0.000311
     17          1           0       -2.347573   -1.638662    1.386050
     18          1           0       -2.347350    1.638674   -1.385851
     19          1           0        0.115370   -1.638494    1.387158
     20          1           0        0.115571    1.638578   -1.386504
     21          1           0       -6.668762    2.147543    0.063006
     22          7           0        1.704382   -0.000003    0.000499
     23          6           0        2.414266    1.227770   -0.004035
     24          6           0        3.559402    1.382015   -0.792108
     25          6           0        1.979956    2.301413    0.780170
     26          6           0        4.257371    2.583383   -0.786193
     27          6           0        2.673527    3.505213    0.765830
     28          6           0        3.817854    3.653503   -0.012423
     29          1           0        3.900046    0.551242   -1.407814
     30          1           0        1.092486    2.185578    1.400082
     31          1           0        5.147916    2.686607   -1.405370
     32          1           0        2.321511    4.331764    1.382280
     33          1           0        4.363183    4.595952   -0.015664
     34          6           0        2.414241   -1.227791    0.004406
     35          6           0        3.559682   -1.382189    0.792032
     36          6           0        1.979686   -2.301249   -0.779869
     37          6           0        4.257673   -2.583532    0.785597
     38          6           0        2.673287   -3.505060   -0.766028
     39          6           0        3.817885   -3.653507    0.011769
     40          1           0        3.900521   -0.551523    1.407763
     41          1           0        1.092008   -2.185299   -1.399468
     42          1           0        5.148466   -2.686887    1.404399
     43          1           0        2.321010   -4.331477   -1.382521
     44          1           0        4.363223   -4.595951    0.014691
 ---------------------------------------------------------------------
 Rotational constants (GHZ):           0.3772696           0.1165367           0.0926339
 Leave Link  202 at Sun Jan 17 15:52:47 2021, MaxMem=  4026531840 cpu:               0.2 elap:               0.0
 (Enter /opt/ohpc/pub/libs/gaussian/g16-A.03/sandybridge/g16/l301.exe)
 Standard basis: TZVP (5D, 7F)
 Ernie: Thresh=  0.10000D-02 Tol=  0.10000D-05 Strict=F.
 There are   614 symmetry adapted cartesian basis functions of A   symmetry.
 There are   589 symmetry adapted basis functions of A   symmetry.
   589 basis functions,  1027 primitive gaussians,   614 cartesian basis functions
    85 alpha electrons       84 beta electrons
       nuclear repulsion energy      1905.4959532784 Hartrees.
 IExCor=33909 DFT=T Ex+Corr=LC-wHPBE ExCW=0 ScaHFX=  1.000000
 ScaDFX=  1.000000  1.000000  1.000000  1.000000 ScalE2=  1.000000  1.000000
 IRadAn=      5 IRanWt=     -1 IRanGd=            0 ICorTp=0 IEmpDi=  4
 HFx  wShort=  0.000000 wLong=  0.183500 cFull=  0.000000 cShort=  0.000000 cLong=  1.000000
 DFx  wShort=  0.000000 wLong=  0.183500 cFull=  0.000000 cShort=  1.000000 cLong=  0.000000
 NAtoms=   44 NActive=   44 NUniq=   44 SFac= 1.00D+00 NAtFMM=   60 NAOKFM=F Big=F
 Integral buffers will be    131072 words long.
 Raffenetti 2 integral format.
 Two-electron integral symmetry is turned on.
 Leave Link  301 at Sun Jan 17 15:52:47 2021, MaxMem=  4026531840 cpu:               0.4 elap:               0.1
 (Enter /opt/ohpc/pub/libs/gaussian/g16-A.03/sandybridge/g16/l302.exe)
 NPDir=0 NMtPBC=     1 NCelOv=     1 NCel=       1 NClECP=     1 NCelD=      1
         NCelK=      1 NCelE2=     1 NClLst=     1 CellRange=     0.0.
 One-electron integrals computed using PRISM.
 One-electron integral symmetry used in STVInt
 NBasis=   589 RedAO= T EigKep=  7.25D-06  NBF=   589
 NBsUse=   589 1.00D-06 EigRej= -1.00D+00 NBFU=   589
 Precomputing XC quadrature grid using
 IXCGrd= 4 IRadAn=           5 IRanWt=          -1 IRanGd=           0 AccXCQ= 0.00D+00.
 Generated NRdTot=       0 NPtTot=           0 NUsed=           0 NTot=          32
 NSgBfM=   586   586   586   586   586 MxSgAt=    44 MxSgA2=    44.
 Leave Link  302 at Sun Jan 17 15:52:48 2021, MaxMem=  4026531840 cpu:               8.1 elap:               1.1
 (Enter /opt/ohpc/pub/libs/gaussian/g16-A.03/sandybridge/g16/l303.exe)
 DipDrv:  MaxL=1.
 Leave Link  303 at Sun Jan 17 15:52:48 2021, MaxMem=  4026531840 cpu:               1.0 elap:               0.2
 (Enter /opt/ohpc/pub/libs/gaussian/g16-A.03/sandybridge/g16/l401.exe)
 ExpMin= 9.52D-02 ExpMax= 1.97D+04 ExpMxC= 6.73D+02 IAcc=3 IRadAn=         5 AccDes= 0.00D+00
 Harris functional with IExCor=33909 and IRadAn=       5 diagonalized for initial guess.
 HarFok:  IExCor=33909 AccDes= 0.00D+00 IRadAn=         5 IDoV= 1 UseB2=F ITyADJ=14
 ICtDFT=  3500011 ScaDFX=  1.000000  1.000000  1.000000  1.000000
 FoFCou: FMM=F IPFlag=           0 FMFlag=      100000 FMFlg1=           0
         NFxFlg=           0 DoJE=T BraDBF=F KetDBF=T FulRan=T
         wScrn=  0.000000 ICntrl=       500 IOpCl=  0 I1Cent=   200000004 NGrid=           0
         NMat0=    1 NMatS0=      1 NMatT0=    0 NMatD0=    1 NMtDS0=    0 NMtDT0=    0
 Petite list used in FoFCou.
 Harris En= -963.328754546568    
 JPrj=0 DoOrth=F DoCkMO=F.
 Initial guess <Sx>= 0.0000 <Sy>= 0.0000 <Sz>= 0.5000 <S**2>= 0.7500 S= 0.5000
 Leave Link  401 at Sun Jan 17 15:52:54 2021, MaxMem=  4026531840 cpu:              49.0 elap:               6.2
 (Enter /opt/ohpc/pub/libs/gaussian/g16-A.03/sandybridge/g16/l502.exe)
 Integral symmetry usage will be decided dynamically.
 UHF open shell SCF:
 Using DIIS extrapolation, IDIIS=    10.
 NGot=  4026531840 LenX=  4025766914 LenY=  4025389304
 Requested convergence on RMS density matrix=1.00D-06 within  32 cycles.
 Requested convergence on MAX density matrix=1.00D-04.
 Requested convergence on             energy=1.00D-04.
 Virtual orbitals will be shifted by   0.500 hartree.
 No special actions if energy rises.
 Dynamic level shift is on during FON iterations.

 Cycle   1  Pass 1  IDiag  1:
 FoFJK:  IHMeth= 1 ICntrl=       0 DoSepK=T KAlg= 0 I1Cent=           0 FoldK=F
 IRaf=         1 NMat=       1 IRICut=       1 DoRegI=T DoRafI=F ISym2E= 0 IDoP0=0 IntGTp=1.
 FoFCou: FMM=F IPFlag=           0 FMFlag=      100000 FMFlg1=           0
         NFxFlg=           0 DoJE=T BraDBF=F KetDBF=F FulRan=T
         wScrn=  0.000000 ICntrl=       500 IOpCl=  0 I1Cent=           0 NGrid=           0
         NMat0=    1 NMatS0=      1 NMatT0=    0 NMatD0=    1 NMtDS0=    0 NMtDT0=    0
 Symmetry not used in FoFCou.
 E= -979.439280368925    
 DIIS: error= 3.00D-02 at cycle   1 NSaved=   1.
 NSaved= 1 IEnMin= 1 EnMin= -979.439280368925     IErMin= 1 ErrMin= 3.00D-02
 ErrMax= 3.00D-02  0.00D+00 EMaxC= 1.00D+00 BMatC= 1.65D+00 BMatP= 1.65D+00
 IDIUse=1 WtCom= 1.00D+00 WtEn= 0.00D+00
 Coeff-Com:  0.100D+01
 Coeff:      0.100D+01
 Gap=     0.395 Goal=   None    Shift=    0.500
 T= 1496. Gap= 0.679 NK=0 IS=   86 IE=  589 IFin=   85
          NO(<0.9)=   0  NV(>0.1)=   0     85.00e < EF      0.00e >EF  Err=0.0D+00
 Gap=     0.068 Goal=   None    Shift=    0.500
 T= 1496. Gap= 0.489 NK=0 IS=   85 IE=  589 IFin=   84
          NO(<0.9)=   0  NV(>0.1)=   0     84.00e < EF      0.00e >EF  Err=0.0D+00
 GapD=    0.068 DampG=0.500 DampE=0.500 DampFc=0.2500 IDamp=-1.
 Damping current iteration by 2.50D-01
 RMSDP=2.61D-03 MaxDP=8.35D-02              OVMax= 9.41D-02

 Cycle   2  Pass 1  IDiag  1:
 E= -979.592583816248     Delta-E=       -0.153303447323 Rises=F Damp=T
 DIIS: error= 2.18D-02 at cycle   2 NSaved=   2.
 NSaved= 2 IEnMin= 2 EnMin= -979.592583816248     IErMin= 2 ErrMin= 2.18D-02
 ErrMax= 2.18D-02  0.00D+00 EMaxC= 1.00D+00 BMatC= 7.64D-01 BMatP= 1.65D+00
 IDIUse=1 WtCom= 1.00D+00 WtEn= 0.00D+00
 Coeff-Com: -0.188D+01 0.288D+01
 Coeff:     -0.188D+01 0.288D+01
 Gap=     0.293 Goal=   None    Shift=    0.500
 T= 1438. Gap= 0.764 NK=0 IS=   86 IE=  589 IFin=   85
          NO(<0.9)=   0  NV(>0.1)=   0     85.00e < EF      0.00e >EF  Err=0.0D+00
 Gap=     0.189 Goal=   None    Shift=    0.500
 T= 1438. Gap= 0.652 NK=0 IS=   85 IE=  589 IFin=   84
          NO(<0.9)=   0  NV(>0.1)=   0     84.00e < EF      0.00e >EF  Err=0.0D+00
 GapD=    0.189 DampG=1.000 DampE=0.500 DampFc=0.5000 IDamp=-1.
 Damping current iteration by 5.00D-01
 RMSDP=1.89D-03 MaxDP=6.89D-02 DE=-1.53D-01 OVMax= 3.14D-02

 Cycle   3  Pass 1  IDiag  1:
 E= -979.749246552590     Delta-E=       -0.156662736342 Rises=F Damp=T
 DIIS: error= 1.00D-02 at cycle   3 NSaved=   3.
 NSaved= 3 IEnMin= 3 EnMin= -979.749246552590     IErMin= 3 ErrMin= 1.00D-02
 ErrMax= 1.00D-02  0.00D+00 EMaxC= 1.00D+00 BMatC= 1.46D-01 BMatP= 7.64D-01
 IDIUse=1 WtCom= 1.00D+00 WtEn= 0.00D+00
 Coeff-Com:  0.697D-01-0.874D+00 0.180D+01
 Coeff:      0.697D-01-0.874D+00 0.180D+01
 Gap=     0.274 Goal=   None    Shift=    0.500
 T= 1270. Gap= 0.773 NK=4 IS=   86 IE=   96 IFin=   85
          NO(<0.9)=   0  NV(>0.1)=   0     85.00e < EF      0.00e >EF  Err=0.0D+00
 Gap=     0.149 Goal=   None    Shift=    0.500
 T= 1270. Gap= 0.648 NK=4 IS=   85 IE=   94 IFin=   84
          NO(<0.9)=   0  NV(>0.1)=   0     84.00e < EF      0.00e >EF  Err=0.0D+00
 GapD=    0.149 DampG=1.000 DampE=0.500 DampFc=0.5000 IDamp=-1.
 Damping current iteration by 5.00D-01
 RMSDP=9.33D-04 MaxDP=3.54D-02 DE=-1.57D-01 OVMax= 1.02D-02

 Cycle   4  Pass 1  IDiag  1:
 E= -979.807664562875     Delta-E=       -0.058418010285 Rises=F Damp=T
 DIIS: error= 4.77D-03 at cycle   4 NSaved=   4.
 NSaved= 4 IEnMin= 4 EnMin= -979.807664562875     IErMin= 4 ErrMin= 4.77D-03
 ErrMax= 4.77D-03  0.00D+00 EMaxC= 1.00D+00 BMatC= 3.03D-02 BMatP= 1.46D-01
 IDIUse=1 WtCom= 1.00D+00 WtEn= 0.00D+00
 Coeff-Com:  0.194D+00-0.299D+00-0.824D+00 0.193D+01
 Coeff:      0.194D+00-0.299D+00-0.824D+00 0.193D+01
 Gap=     0.273 Goal=   None    Shift=    0.500
 T=  956. Gap= 0.773 NK=4 IS=   86 IE=   96 IFin=   85
          NO(<0.9)=   0  NV(>0.1)=   0     85.00e < EF      0.00e >EF  Err=0.0D+00
 Gap=     0.153 Goal=   None    Shift=    0.500
 T=  956. Gap= 0.653 NK=4 IS=   85 IE=   94 IFin=   84
          NO(<0.9)=   0  NV(>0.1)=   0     84.00e < EF      0.00e >EF  Err=0.0D+00
 GapD=    0.153 DampG=1.000 DampE=1.000 DampFc=1.0000 IDamp=-1.
 RMSDP=4.62D-04 MaxDP=2.33D-02 DE=-5.84D-02 OVMax= 7.73D-03

 Cycle   5  Pass 1  IDiag  1:
 E= -979.857643390624     Delta-E=       -0.049978827750 Rises=F Damp=F
 DIIS: error= 8.03D-04 at cycle   5 NSaved=   5.
 NSaved= 5 IEnMin= 5 EnMin= -979.857643390624     IErMin= 5 ErrMin= 8.03D-04
 ErrMax= 8.03D-04  0.00D+00 EMaxC= 1.00D+00 BMatC= 6.59D-04 BMatP= 3.03D-02
 IDIUse=1 WtCom= 1.00D+00 WtEn= 0.00D+00
 Coeff-Com:  0.358D-01 0.100D-01 0.951D-01-0.438D+00 0.130D+01
 Coeff:      0.358D-01 0.100D-01 0.951D-01-0.438D+00 0.130D+01
 Gap=     0.275 Goal=   None    Shift=    0.500
 Gap=     0.155 Goal=   None    Shift=    0.500
 RMSDP=1.02D-04 MaxDP=3.69D-03 DE=-5.00D-02 OVMax= 5.77D-03

 Cycle   6  Pass 1  IDiag  1:
 E= -979.858024948038     Delta-E=       -0.000381557414 Rises=F Damp=F
 DIIS: error= 6.90D-04 at cycle   6 NSaved=   6.
 NSaved= 6 IEnMin= 6 EnMin= -979.858024948038     IErMin= 6 ErrMin= 6.90D-04
 ErrMax= 6.90D-04  0.00D+00 EMaxC= 1.00D+00 BMatC= 1.76D-04 BMatP= 6.59D-04
 IDIUse=1 WtCom= 1.00D+00 WtEn= 0.00D+00
 Coeff-Com: -0.512D-01 0.882D-01 0.258D+00-0.633D+00-0.831D-01 0.142D+01
 Coeff:     -0.512D-01 0.882D-01 0.258D+00-0.633D+00-0.831D-01 0.142D+01
 Gap=     0.275 Goal=   None    Shift=    0.500
 Gap=     0.156 Goal=   None    Shift=    0.500
 RMSDP=6.02D-05 MaxDP=2.22D-03 DE=-3.82D-04 OVMax= 4.85D-03

 Cycle   7  Pass 1  IDiag  1:
 E= -979.858207229254     Delta-E=       -0.000182281216 Rises=F Damp=F
 DIIS: error= 4.47D-04 at cycle   7 NSaved=   7.
 NSaved= 7 IEnMin= 7 EnMin= -979.858207229254     IErMin= 7 ErrMin= 4.47D-04
 ErrMax= 4.47D-04  0.00D+00 EMaxC= 1.00D+00 BMatC= 7.51D-05 BMatP= 1.76D-04
 IDIUse=1 WtCom= 1.00D+00 WtEn= 0.00D+00
 Coeff-Com: -0.181D-01 0.144D-01-0.364D-01 0.103D+00-0.434D+00-0.556D+00
 Coeff-Com:  0.193D+01
 Coeff:     -0.181D-01 0.144D-01-0.364D-01 0.103D+00-0.434D+00-0.556D+00
 Coeff:      0.193D+01
 Gap=     0.276 Goal=   None    Shift=    0.500
 Gap=     0.157 Goal=   None    Shift=    0.500
 RMSDP=3.65D-05 MaxDP=9.82D-04 DE=-1.82D-04 OVMax= 4.19D-03

 Cycle   8  Pass 1  IDiag  1:
 E= -979.858310759669     Delta-E=       -0.000103530415 Rises=F Damp=F
 DIIS: error= 3.06D-04 at cycle   8 NSaved=   8.
 NSaved= 8 IEnMin= 8 EnMin= -979.858310759669     IErMin= 8 ErrMin= 3.06D-04
 ErrMax= 3.06D-04  0.00D+00 EMaxC= 1.00D+00 BMatC= 3.69D-05 BMatP= 7.51D-05
 IDIUse=1 WtCom= 1.00D+00 WtEn= 0.00D+00
 Coeff-Com:  0.115D-01-0.175D-01-0.104D+00 0.222D+00 0.134D-01-0.754D+00
 Coeff-Com: -0.491D+00 0.212D+01
 Coeff:      0.115D-01-0.175D-01-0.104D+00 0.222D+00 0.134D-01-0.754D+00
 Coeff:     -0.491D+00 0.212D+01
 Gap=     0.276 Goal=   None    Shift=    0.500
 Gap=     0.157 Goal=   None    Shift=    0.500
 RMSDP=2.07D-05 MaxDP=6.55D-04 DE=-1.04D-04 OVMax= 3.40D-03

 Cycle   9  Pass 1  IDiag  1:
 E= -979.858370206114     Delta-E=       -0.000059446445 Rises=F Damp=F
 DIIS: error= 2.34D-04 at cycle   9 NSaved=   9.
 NSaved= 9 IEnMin= 9 EnMin= -979.858370206114     IErMin= 9 ErrMin= 2.34D-04
 ErrMax= 2.34D-04  0.00D+00 EMaxC= 1.00D+00 BMatC= 1.92D-05 BMatP= 3.69D-05
 IDIUse=1 WtCom= 1.00D+00 WtEn= 0.00D+00
 Coeff-Com:  0.931D-02-0.857D-02-0.324D-01 0.540D-01 0.222D+00-0.284D+00
 Coeff-Com: -0.103D+01 0.517D+00 0.155D+01
 Coeff:      0.931D-02-0.857D-02-0.324D-01 0.540D-01 0.222D+00-0.284D+00
 Coeff:     -0.103D+01 0.517D+00 0.155D+01
 Gap=     0.276 Goal=   None    Shift=    0.500
 Gap=     0.158 Goal=   None    Shift=    0.500
 RMSDP=1.27D-05 MaxDP=3.91D-04 DE=-5.94D-05 OVMax= 2.68D-03

 Cycle  10  Pass 1  IDiag  1:
 E= -979.858402145330     Delta-E=       -0.000031939216 Rises=F Damp=F
 DIIS: error= 1.60D-04 at cycle  10 NSaved=  10.
 NSaved=10 IEnMin=10 EnMin= -979.858402145330     IErMin=10 ErrMin= 1.60D-04
 ErrMax= 1.60D-04  0.00D+00 EMaxC= 1.00D+00 BMatC= 9.78D-06 BMatP= 1.92D-05
 IDIUse=1 WtCom= 1.00D+00 WtEn= 0.00D+00
 Coeff-Com: -0.681D-02 0.110D-01 0.553D-01-0.120D+00 0.806D-01 0.284D+00
 Coeff-Com:  0.281D-01-0.113D+01-0.847D+00 0.265D+01
 Coeff:     -0.681D-02 0.110D-01 0.553D-01-0.120D+00 0.806D-01 0.284D+00
 Coeff:      0.281D-01-0.113D+01-0.847D+00 0.265D+01
 Gap=     0.276 Goal=   None    Shift=    0.500
 Gap=     0.158 Goal=   None    Shift=    0.500
 RMSDP=9.57D-06 MaxDP=2.53D-04 DE=-3.19D-05 OVMax= 2.20D-03

 Cycle  11  Pass 1  IDiag  1:
 E= -979.858420417136     Delta-E=       -0.000018271807 Rises=F Damp=F
 DIIS: error= 1.37D-04 at cycle  11 NSaved=  11.
 NSaved=11 IEnMin=11 EnMin= -979.858420417136     IErMin=11 ErrMin= 1.37D-04
 ErrMax= 1.37D-04  0.00D+00 EMaxC= 1.00D+00 BMatC= 5.16D-06 BMatP= 9.78D-06
 IDIUse=1 WtCom= 1.00D+00 WtEn= 0.00D+00
 Coeff-Com: -0.632D-02 0.706D-02 0.425D-01-0.821D-01-0.421D-01 0.243D+00
 Coeff-Com:  0.400D+00-0.808D+00-0.112D+01 0.828D+00 0.154D+01
 Coeff:     -0.632D-02 0.706D-02 0.425D-01-0.821D-01-0.421D-01 0.243D+00
 Coeff:      0.400D+00-0.808D+00-0.112D+01 0.828D+00 0.154D+01
 Gap=     0.276 Goal=   None    Shift=    0.500
 Gap=     0.158 Goal=   None    Shift=    0.500
 RMSDP=6.44D-06 MaxDP=2.01D-04 DE=-1.83D-05 OVMax= 1.60D-03

 Cycle  12  Pass 1  IDiag  1:
 E= -979.858429326320     Delta-E=       -0.000008909184 Rises=F Damp=F
 DIIS: error= 1.12D-04 at cycle  12 NSaved=  12.
 NSaved=12 IEnMin=12 EnMin= -979.858429326320     IErMin=12 ErrMin= 1.12D-04
 ErrMax= 1.12D-04  0.00D+00 EMaxC= 1.00D+00 BMatC= 2.64D-06 BMatP= 5.16D-06
 IDIUse=1 WtCom= 1.00D+00 WtEn= 0.00D+00
 Coeff-Com:  0.148D-02-0.449D-02-0.789D-02 0.259D-01-0.738D-01-0.301D-01
 Coeff-Com:  0.181D+00 0.264D+00-0.137D+00-0.112D+01-0.478D+00 0.238D+01
 Coeff:      0.148D-02-0.449D-02-0.789D-02 0.259D-01-0.738D-01-0.301D-01
 Coeff:      0.181D+00 0.264D+00-0.137D+00-0.112D+01-0.478D+00 0.238D+01
 Gap=     0.276 Goal=   None    Shift=    0.500
 Gap=     0.158 Goal=   None    Shift=    0.500
 RMSDP=5.08D-06 MaxDP=1.50D-04 DE=-8.91D-06 OVMax= 1.25D-03

 Cycle  13  Pass 1  IDiag  1:
 E= -979.858433853231     Delta-E=       -0.000004526910 Rises=F Damp=F
 DIIS: error= 9.36D-05 at cycle  13 NSaved=  13.
 NSaved=13 IEnMin=13 EnMin= -979.858433853231     IErMin=13 ErrMin= 9.36D-05
 ErrMax= 9.36D-05  0.00D+00 EMaxC= 1.00D+00 BMatC= 1.48D-06 BMatP= 2.64D-06
 IDIUse=1 WtCom= 1.00D+00 WtEn= 0.00D+00
 Coeff-Com:  0.326D-02-0.442D-02-0.160D-01 0.332D-01 0.118D-01-0.103D+00
 Coeff-Com: -0.174D+00 0.411D+00 0.553D+00-0.548D+00-0.151D+01 0.631D-01
 Coeff-Com:  0.228D+01
 Coeff:      0.326D-02-0.442D-02-0.160D-01 0.332D-01 0.118D-01-0.103D+00
 Coeff:     -0.174D+00 0.411D+00 0.553D+00-0.548D+00-0.151D+01 0.631D-01
 Coeff:      0.228D+01
 Gap=     0.276 Goal=   None    Shift=    0.500
 Gap=     0.158 Goal=   None    Shift=    0.500
 RMSDP=3.79D-06 MaxDP=1.30D-04 DE=-4.53D-06 OVMax= 9.91D-04

 Cycle  14  Pass 1  IDiag  1:
 E= -979.858436142913     Delta-E=       -0.000002289682 Rises=F Damp=F
 DIIS: error= 7.52D-05 at cycle  14 NSaved=  14.
 NSaved=14 IEnMin=14 EnMin= -979.858436142913     IErMin=14 ErrMin= 7.52D-05
 ErrMax= 7.52D-05  0.00D+00 EMaxC= 1.00D+00 BMatC= 7.62D-07 BMatP= 1.48D-06
 IDIUse=1 WtCom= 1.00D+00 WtEn= 0.00D+00
 Coeff-Com:  0.935D-03-0.457D-03-0.227D-02 0.154D-02 0.342D-01-0.304D-01
 Coeff-Com: -0.146D+00 0.540D-01 0.347D+00 0.224D+00-0.804D+00-0.631D+00
 Coeff-Com:  0.992D-01 0.185D+01
 Coeff:      0.935D-03-0.457D-03-0.227D-02 0.154D-02 0.342D-01-0.304D-01
 Coeff:     -0.146D+00 0.540D-01 0.347D+00 0.224D+00-0.804D+00-0.631D+00
 Coeff:      0.992D-01 0.185D+01
 Gap=     0.276 Goal=   None    Shift=    0.500
 Gap=     0.158 Goal=   None    Shift=    0.500
 RMSDP=2.63D-06 MaxDP=9.98D-05 DE=-2.29D-06 OVMax= 7.41D-04

 Cycle  15  Pass 1  IDiag  1:
 E= -979.858437270814     Delta-E=       -0.000001127902 Rises=F Damp=F
 DIIS: error= 6.67D-05 at cycle  15 NSaved=  15.
 NSaved=15 IEnMin=15 EnMin= -979.858437270814     IErMin=15 ErrMin= 6.67D-05
 ErrMax= 6.67D-05  0.00D+00 EMaxC= 1.00D+00 BMatC= 4.20D-07 BMatP= 7.62D-07
 IDIUse=1 WtCom= 1.00D+00 WtEn= 0.00D+00
 Coeff-Com: -0.157D-02 0.241D-02 0.950D-02-0.208D-01 0.643D-02 0.547D-01
 Coeff-Com:  0.545D-01-0.266D+00-0.149D+00 0.426D+00 0.473D+00-0.169D+00
 Coeff-Com: -0.177D+01 0.197D+00 0.215D+01
 Coeff:     -0.157D-02 0.241D-02 0.950D-02-0.208D-01 0.643D-02 0.547D-01
 Coeff:      0.545D-01-0.266D+00-0.149D+00 0.426D+00 0.473D+00-0.169D+00
 Coeff:     -0.177D+01 0.197D+00 0.215D+01
 Gap=     0.276 Goal=   None    Shift=    0.500
 Gap=     0.158 Goal=   None    Shift=    0.500
 RMSDP=2.02D-06 MaxDP=9.27D-05 DE=-1.13D-06 OVMax= 6.05D-04

 Cycle  16  Pass 1  IDiag  1:
 E= -979.858437919139     Delta-E=       -0.000000648325 Rises=F Damp=F
 DIIS: error= 5.94D-05 at cycle  16 NSaved=  16.
 NSaved=16 IEnMin=16 EnMin= -979.858437919139     IErMin=16 ErrMin= 5.94D-05
 ErrMax= 5.94D-05  0.00D+00 EMaxC= 1.00D+00 BMatC= 2.42D-07 BMatP= 4.20D-07
 IDIUse=1 WtCom= 1.00D+00 WtEn= 0.00D+00
 Coeff-Com: -0.923D-03 0.134D-02 0.308D-02-0.681D-02-0.104D-01 0.323D-01
 Coeff-Com:  0.707D-01-0.129D+00-0.125D+00 0.106D-01 0.440D+00 0.244D+00
 Coeff-Com: -0.922D+00-0.420D+00-0.129D+00 0.194D+01
 Coeff:     -0.923D-03 0.134D-02 0.308D-02-0.681D-02-0.104D-01 0.323D-01
 Coeff:      0.707D-01-0.129D+00-0.125D+00 0.106D-01 0.440D+00 0.244D+00
 Coeff:     -0.922D+00-0.420D+00-0.129D+00 0.194D+01
 Gap=     0.276 Goal=   None    Shift=    0.500
 Gap=     0.158 Goal=   None    Shift=    0.500
 RMSDP=1.48D-06 MaxDP=5.99D-05 DE=-6.48D-07 OVMax= 5.00D-04

 Cycle  17  Pass 1  IDiag  1:
 E= -979.858438321480     Delta-E=       -0.000000402341 Rises=F Damp=F
 DIIS: error= 5.11D-05 at cycle  17 NSaved=  17.
 NSaved=17 IEnMin=17 EnMin= -979.858438321480     IErMin=17 ErrMin= 5.11D-05
 ErrMax= 5.11D-05  0.00D+00 EMaxC= 1.00D+00 BMatC= 1.49D-07 BMatP= 2.42D-07
 IDIUse=1 WtCom= 1.00D+00 WtEn= 0.00D+00
 Coeff-Com:  0.613D-03-0.791D-03-0.565D-02 0.114D-01-0.854D-02-0.223D-01
 Coeff-Com: -0.180D-01 0.130D+00 0.965D-01-0.331D+00-0.206D+00 0.326D+00
 Coeff-Com:  0.771D+00-0.250D+00-0.183D+01-0.471D+00 0.281D+01
 Coeff:      0.613D-03-0.791D-03-0.565D-02 0.114D-01-0.854D-02-0.223D-01
 Coeff:     -0.180D-01 0.130D+00 0.965D-01-0.331D+00-0.206D+00 0.326D+00
 Coeff:      0.771D+00-0.250D+00-0.183D+01-0.471D+00 0.281D+01
 Gap=     0.276 Goal=   None    Shift=    0.500
 Gap=     0.158 Goal=   None    Shift=    0.500
 RMSDP=1.34D-06 MaxDP=6.78D-05 DE=-4.02D-07 OVMax= 4.52D-04

 Cycle  18  Pass 1  IDiag  1:
 E= -979.858438612513     Delta-E=       -0.000000291033 Rises=F Damp=F
 DIIS: error= 4.56D-05 at cycle  18 NSaved=  18.
 NSaved=18 IEnMin=18 EnMin= -979.858438612513     IErMin=18 ErrMin= 4.56D-05
 ErrMax= 4.56D-05  0.00D+00 EMaxC= 1.00D+00 BMatC= 1.09D-07 BMatP= 1.49D-07
 IDIUse=1 WtCom= 1.00D+00 WtEn= 0.00D+00
 Coeff-Com:  0.634D-03-0.833D-03-0.240D-02 0.482D-02 0.619D-02-0.169D-01
 Coeff-Com: -0.584D-01 0.835D-01 0.162D+00-0.101D+00-0.402D+00 0.635D-01
 Coeff-Com:  0.462D+00 0.556D+00-0.266D+00-0.260D+01 0.676D+00 0.243D+01
 Coeff:      0.634D-03-0.833D-03-0.240D-02 0.482D-02 0.619D-02-0.169D-01
 Coeff:     -0.584D-01 0.835D-01 0.162D+00-0.101D+00-0.402D+00 0.635D-01
 Coeff:      0.462D+00 0.556D+00-0.266D+00-0.260D+01 0.676D+00 0.243D+01
 Gap=     0.276 Goal=   None    Shift=    0.500
 Gap=     0.158 Goal=   None    Shift=    0.500
 RMSDP=1.18D-06 MaxDP=5.38D-05 DE=-2.91D-07 OVMax= 4.16D-04

 Cycle  19  Pass 1  IDiag  1:
 E= -979.858438828758     Delta-E=       -0.000000216245 Rises=F Damp=F
 DIIS: error= 4.01D-05 at cycle  19 NSaved=  19.
 NSaved=19 IEnMin=19 EnMin= -979.858438828758     IErMin=19 ErrMin= 4.01D-05
 ErrMax= 4.01D-05  0.00D+00 EMaxC= 1.00D+00 BMatC= 8.10D-08 BMatP= 1.09D-07
 IDIUse=1 WtCom= 1.00D+00 WtEn= 0.00D+00
 Coeff-Com:  0.707D-04-0.393D-05 0.762D-03-0.197D-02 0.748D-02 0.188D-02
 Coeff-Com: -0.266D-01-0.264D-01 0.925D-01 0.703D-01-0.206D+00-0.500D-02
 Coeff-Com: -0.194D+00 0.710D+00 0.540D+00-0.203D+01-0.213D-01-0.184D+00
 Coeff-Com:  0.227D+01
 Coeff:      0.707D-04-0.393D-05 0.762D-03-0.197D-02 0.748D-02 0.188D-02
 Coeff:     -0.266D-01-0.264D-01 0.925D-01 0.703D-01-0.206D+00-0.500D-02
 Coeff:     -0.194D+00 0.710D+00 0.540D+00-0.203D+01-0.213D-01-0.184D+00
 Coeff:      0.227D+01
 Gap=     0.276 Goal=   None    Shift=    0.500
 Gap=     0.158 Goal=   None    Shift=    0.500
 RMSDP=1.00D-06 MaxDP=4.41D-05 DE=-2.16D-07 OVMax= 3.73D-04

 Cycle  20  Pass 1  IDiag  1:
 E= -979.858438983795     Delta-E=       -0.000000155038 Rises=F Damp=F
 DIIS: error= 3.45D-05 at cycle  20 NSaved=  20.
 NSaved=20 IEnMin=20 EnMin= -979.858438983795     IErMin=20 ErrMin= 3.45D-05
 ErrMax= 3.45D-05  0.00D+00 EMaxC= 1.00D+00 BMatC= 6.09D-08 BMatP= 8.10D-08
 IDIUse=1 WtCom= 1.00D+00 WtEn= 0.00D+00
 Coeff-Com: -0.276D-03 0.550D-03 0.528D-03-0.191D-02-0.199D-02 0.978D-02
 Coeff-Com:  0.221D-01-0.647D-01 0.311D-02 0.266D-01 0.577D-01 0.102D+00
 Coeff-Com: -0.399D+00 0.271D+00 0.633D-01-0.285D-01 0.667D+00-0.259D+01
 Coeff-Com:  0.323D+00 0.254D+01
 Coeff:     -0.276D-03 0.550D-03 0.528D-03-0.191D-02-0.199D-02 0.978D-02
 Coeff:      0.221D-01-0.647D-01 0.311D-02 0.266D-01 0.577D-01 0.102D+00
 Coeff:     -0.399D+00 0.271D+00 0.633D-01-0.285D-01 0.667D+00-0.259D+01
 Coeff:      0.323D+00 0.254D+01
 Gap=     0.276 Goal=   None    Shift=    0.500
 Gap=     0.158 Goal=   None    Shift=    0.500
 RMSDP=9.17D-07 MaxDP=4.15D-05 DE=-1.55D-07 OVMax= 3.43D-04

 SCF Done:  E(ULC-wHPBE) =  -979.858438984     A.U. after   20 cycles
            NFock= 20  Conv=0.92D-06     -V/T= 2.0048
 <Sx>= 0.0000 <Sy>= 0.0000 <Sz>= 0.5000 <S**2>= 0.7685 S= 0.5092
 <L.S>= 0.000000000000E+00
 KE= 9.751510264017D+02 PE=-6.064366724074D+03 EE= 2.203861305410D+03
 Annihilation of the first spin contaminant:
 S**2 before annihilation     0.7685,   after     0.7503
 Leave Link  502 at Sun Jan 17 16:10:18 2021, MaxMem=  4026531840 cpu:            8327.5 elap:            1043.7
 (Enter /opt/ohpc/pub/libs/gaussian/g16-A.03/sandybridge/g16/l508.exe)
 QCSCF skips out because SCF is already converged.
 Leave Link  508 at Sun Jan 17 16:10:18 2021, MaxMem=  4026531840 cpu:               0.0 elap:               0.0
 (Enter /opt/ohpc/pub/libs/gaussian/g16-A.03/sandybridge/g16/l601.exe)
 Copying SCF densities to generalized density rwf, IOpCl= 1 IROHF=0.

 **********************************************************************

            Population analysis using the SCF density.

 **********************************************************************

 Orbital symmetries:
 Alpha Orbitals:
       Occupied  (A) (A) (A) (A) (A) (A) (A) (A) (A) (A) (A) (A)
                 (A) (A) (A) (A) (A) (A) (A) (A) (A) (A) (A) (A)
                 (A) (A) (A) (A) (A) (A) (A) (A) (A) (A) (A) (A)
                 (A) (A) (A) (A) (A) (A) (A) (A) (A) (A) (A) (A)
                 (A) (A) (A) (A) (A) (A) (A) (A) (A) (A) (A) (A)
                 (A) (A) (A) (A) (A) (A) (A) (A) (A) (A) (A) (A)
                 (A) (A) (A) (A) (A) (A) (A) (A) (A) (A) (A) (A)
                 (A)
       Virtual   (A) (A) (A) (A) (A) (A) (A) (A) (A) (A) (A) (A)
                 (A) (A) (A) (A) (A) (A) (A) (A) (A) (A) (A) (A)
                 (A) (A) (A) (A) (A) (A) (A) (A) (A) (A) (A) (A)
                 (A) (A) (A) (A) (A) (A) (A) (A) (A) (A) (A) (A)
                 (A) (A) (A) (A) (A) (A) (A) (A) (A) (A) (A) (A)
                 (A) (A) (A) (A) (A) (A) (A) (A) (A) (A) (A) (A)
                 (A) (A) (A) (A) (A) (A) (A) (A) (A) (A) (A) (A)
                 (A) (A) (A) (A) (A) (A) (A) (A) (A) (A) (A) (A)
                 (A) (A) (A) (A) (A) (A) (A) (A) (A) (A) (A) (A)
                 (A) (A) (A) (A) (A) (A) (A) (A) (A) (A) (A) (A)
                 (A) (A) (A) (A) (A) (A) (A) (A) (A) (A) (A) (A)
                 (A) (A) (A) (A) (A) (A) (A) (A) (A) (A) (A) (A)
                 (A) (A) (A) (A) (A) (A) (A) (A) (A) (A) (A) (A)
                 (A) (A) (A) (A) (A) (A) (A) (A) (A) (A) (A) (A)
                 (A) (A) (A) (A) (A) (A) (A) (A) (A) (A) (A) (A)
                 (A) (A) (A) (A) (A) (A) (A) (A) (A) (A) (A) (A)
                 (A) (A) (A) (A) (A) (A) (A) (A) (A) (A) (A) (A)
                 (A) (A) (A) (A) (A) (A) (A) (A) (A) (A) (A) (A)
                 (A) (A) (A) (A) (A) (A) (A) (A) (A) (A) (A) (A)
                 (A) (A) (A) (A) (A) (A) (A) (A) (A) (A) (A) (A)
                 (A) (A) (A) (A) (A) (A) (A) (A) (A) (A) (A) (A)
                 (A) (A) (A) (A) (A) (A) (A) (A) (A) (A) (A) (A)
                 (A) (A) (A) (A) (A) (A) (A) (A) (A) (A) (A) (A)
                 (A) (A) (A) (A) (A) (A) (A) (A) (A) (A) (A) (A)
                 (A) (A) (A) (A) (A) (A) (A) (A) (A) (A) (A) (A)
                 (A) (A) (A) (A) (A) (A) (A) (A) (A) (A) (A) (A)
                 (A) (A) (A) (A) (A) (A) (A) (A) (A) (A) (A) (A)
                 (A) (A) (A) (A) (A) (A) (A) (A) (A) (A) (A) (A)
                 (A) (A) (A) (A) (A) (A) (A) (A) (A) (A) (A) (A)
                 (A) (A) (A) (A) (A) (A) (A) (A) (A) (A) (A) (A)
                 (A) (A) (A) (A) (A) (A) (A) (A) (A) (A) (A) (A)
                 (A) (A) (A) (A) (A) (A) (A) (A) (A) (A) (A) (A)
                 (A) (A) (A) (A) (A) (A) (A) (A) (A) (A) (A) (A)
                 (A) (A) (A) (A) (A) (A) (A) (A) (A) (A) (A) (A)
                 (A) (A) (A) (A) (A) (A) (A) (A) (A) (A) (A) (A)
                 (A) (A) (A) (A) (A) (A) (A) (A) (A) (A) (A) (A)
                 (A) (A) (A) (A) (A) (A) (A) (A) (A) (A) (A) (A)
                 (A) (A) (A) (A) (A) (A) (A) (A) (A) (A) (A) (A)
                 (A) (A) (A) (A) (A) (A) (A) (A) (A) (A) (A) (A)
                 (A) (A) (A) (A) (A) (A) (A) (A) (A) (A) (A) (A)
                 (A) (A) (A) (A) (A) (A) (A) (A) (A) (A) (A) (A)
                 (A) (A) (A) (A) (A) (A) (A) (A) (A) (A) (A) (A)
 Beta  Orbitals:
       Occupied  (A) (A) (A) (A) (A) (A) (A) (A) (A) (A) (A) (A)
                 (A) (A) (A) (A) (A) (A) (A) (A) (A) (A) (A) (A)
                 (A) (A) (A) (A) (A) (A) (A) (A) (A) (A) (A) (A)
                 (A) (A) (A) (A) (A) (A) (A) (A) (A) (A) (A) (A)
                 (A) (A) (A) (A) (A) (A) (A) (A) (A) (A) (A) (A)
                 (A) (A) (A) (A) (A) (A) (A) (A) (A) (A) (A) (A)
                 (A) (A) (A) (A) (A) (A) (A) (A) (A) (A) (A) (A)
       Virtual   (A) (A) (A) (A) (A) (A) (A) (A) (A) (A) (A) (A)
                 (A) (A) (A) (A) (A) (A) (A) (A) (A) (A) (A) (A)
                 (A) (A) (A) (A) (A) (A) (A) (A) (A) (A) (A) (A)
                 (A) (A) (A) (A) (A) (A) (A) (A) (A) (A) (A) (A)
                 (A) (A) (A) (A) (A) (A) (A) (A) (A) (A) (A) (A)
                 (A) (A) (A) (A) (A) (A) (A) (A) (A) (A) (A) (A)
                 (A) (A) (A) (A) (A) (A) (A) (A) (A) (A) (A) (A)
                 (A) (A) (A) (A) (A) (A) (A) (A) (A) (A) (A) (A)
                 (A) (A) (A) (A) (A) (A) (A) (A) (A) (A) (A) (A)
                 (A) (A) (A) (A) (A) (A) (A) (A) (A) (A) (A) (A)
                 (A) (A) (A) (A) (A) (A) (A) (A) (A) (A) (A) (A)
                 (A) (A) (A) (A) (A) (A) (A) (A) (A) (A) (A) (A)
                 (A) (A) (A) (A) (A) (A) (A) (A) (A) (A) (A) (A)
                 (A) (A) (A) (A) (A) (A) (A) (A) (A) (A) (A) (A)
                 (A) (A) (A) (A) (A) (A) (A) (A) (A) (A) (A) (A)
                 (A) (A) (A) (A) (A) (A) (A) (A) (A) (A) (A) (A)
                 (A) (A) (A) (A) (A) (A) (A) (A) (A) (A) (A) (A)
                 (A) (A) (A) (A) (A) (A) (A) (A) (A) (A) (A) (A)
                 (A) (A) (A) (A) (A) (A) (A) (A) (A) (A) (A) (A)
                 (A) (A) (A) (A) (A) (A) (A) (A) (A) (A) (A) (A)
                 (A) (A) (A) (A) (A) (A) (A) (A) (A) (A) (A) (A)
                 (A) (A) (A) (A) (A) (A) (A) (A) (A) (A) (A) (A)
                 (A) (A) (A) (A) (A) (A) (A) (A) (A) (A) (A) (A)
                 (A) (A) (A) (A) (A) (A) (A) (A) (A) (A) (A) (A)
                 (A) (A) (A) (A) (A) (A) (A) (A) (A) (A) (A) (A)
                 (A) (A) (A) (A) (A) (A) (A) (A) (A) (A) (A) (A)
                 (A) (A) (A) (A) (A) (A) (A) (A) (A) (A) (A) (A)
                 (A) (A) (A) (A) (A) (A) (A) (A) (A) (A) (A) (A)
                 (A) (A) (A) (A) (A) (A) (A) (A) (A) (A) (A) (A)
                 (A) (A) (A) (A) (A) (A) (A) (A) (A) (A) (A) (A)
                 (A) (A) (A) (A) (A) (A) (A) (A) (A) (A) (A) (A)
                 (A) (A) (A) (A) (A) (A) (A) (A) (A) (A) (A) (A)
                 (A) (A) (A) (A) (A) (A) (A) (A) (A) (A) (A) (A)
                 (A) (A) (A) (A) (A) (A) (A) (A) (A) (A) (A) (A)
                 (A) (A) (A) (A) (A) (A) (A) (A) (A) (A) (A) (A)
                 (A) (A) (A) (A) (A) (A) (A) (A) (A) (A) (A) (A)
                 (A) (A) (A) (A) (A) (A) (A) (A) (A) (A) (A) (A)
                 (A) (A) (A) (A) (A) (A) (A) (A) (A) (A) (A) (A)
                 (A) (A) (A) (A) (A) (A) (A) (A) (A) (A) (A) (A)
                 (A) (A) (A) (A) (A) (A) (A) (A) (A) (A) (A) (A)
                 (A) (A) (A) (A) (A) (A) (A) (A) (A) (A) (A) (A)
                 (A) (A) (A) (A) (A) (A) (A) (A) (A) (A) (A) (A)
                 (A)
 The electronic state is 2-A.
 Alpha  occ. eigenvalues --  -14.32642 -10.18166 -10.17928 -10.17926 -10.13958
 Alpha  occ. eigenvalues --  -10.13590 -10.13589 -10.13380 -10.13380 -10.13333
 Alpha  occ. eigenvalues --  -10.13333 -10.12510 -10.12510 -10.12341 -10.12339
 Alpha  occ. eigenvalues --  -10.12254 -10.12254 -10.12245 -10.12244 -10.10590
 Alpha  occ. eigenvalues --  -10.09081 -10.09079 -10.08414 -10.08357 -10.08344
 Alpha  occ. eigenvalues --   -1.17045  -1.03731  -1.03259  -1.01546  -0.98910
 Alpha  occ. eigenvalues --   -0.94648  -0.94042  -0.92045  -0.92028  -0.91832
 Alpha  occ. eigenvalues --   -0.90132  -0.87824  -0.86962  -0.81810  -0.81578
 Alpha  occ. eigenvalues --   -0.79183  -0.78362  -0.78251  -0.75673  -0.74305
 Alpha  occ. eigenvalues --   -0.73723  -0.72774  -0.72631  -0.68700  -0.67494
 Alpha  occ. eigenvalues --   -0.66933  -0.66742  -0.64093  -0.64044  -0.63693
 Alpha  occ. eigenvalues --   -0.61966  -0.61827  -0.61257  -0.60916  -0.60596
 Alpha  occ. eigenvalues --   -0.60381  -0.59970  -0.58980  -0.58200  -0.57383
 Alpha  occ. eigenvalues --   -0.57353  -0.56368  -0.55281  -0.54759  -0.54469
 Alpha  occ. eigenvalues --   -0.54119  -0.53048  -0.52610  -0.52530  -0.51451
 Alpha  occ. eigenvalues --   -0.49384  -0.48733  -0.46928  -0.46574  -0.46258
 Alpha  occ. eigenvalues --   -0.45091  -0.45013  -0.41952  -0.41321  -0.39365
 Alpha virt. eigenvalues --   -0.11760  -0.11022  -0.10912  -0.08771  -0.08599
 Alpha virt. eigenvalues --   -0.07341  -0.05564  -0.04120  -0.01472   0.00096
 Alpha virt. eigenvalues --    0.00420   0.01745   0.01849   0.02580   0.02695
 Alpha virt. eigenvalues --    0.03178   0.03868   0.04615   0.04774   0.05075
 Alpha virt. eigenvalues --    0.05433   0.05483   0.05905   0.06357   0.06649
 Alpha virt. eigenvalues --    0.07660   0.07889   0.08131   0.08683   0.09754
 Alpha virt. eigenvalues --    0.09972   0.10308   0.10566   0.12068   0.12154
 Alpha virt. eigenvalues --    0.12493   0.13247   0.13319   0.13588   0.13692
 Alpha virt. eigenvalues --    0.14607   0.15076   0.15870   0.15914   0.16347
 Alpha virt. eigenvalues --    0.16733   0.16765   0.17221   0.17652   0.17664
 Alpha virt. eigenvalues --    0.17875   0.18033   0.18476   0.18724   0.19588
 Alpha virt. eigenvalues --    0.19801   0.20031   0.20513   0.21107   0.21258
 Alpha virt. eigenvalues --    0.21359   0.21674   0.21678   0.22089   0.22530
 Alpha virt. eigenvalues --    0.22996   0.23664   0.23841   0.24516   0.25231
 Alpha virt. eigenvalues --    0.25410   0.25419   0.25867   0.26014   0.26953
 Alpha virt. eigenvalues --    0.27773   0.27950   0.28607   0.29156   0.29211
 Alpha virt. eigenvalues --    0.29663   0.30018   0.30174   0.30991   0.31545
 Alpha virt. eigenvalues --    0.31936   0.31986   0.32350   0.32520   0.32663
 Alpha virt. eigenvalues --    0.32894   0.33360   0.34256   0.34426   0.34655
 Alpha virt. eigenvalues --    0.35003   0.35911   0.36121   0.36594   0.36842
 Alpha virt. eigenvalues --    0.36952   0.37029   0.37386   0.38005   0.38402
 Alpha virt. eigenvalues --    0.38518   0.39053   0.39537   0.39738   0.39841
 Alpha virt. eigenvalues --    0.39894   0.40462   0.41213   0.41509   0.41804
 Alpha virt. eigenvalues --    0.41914   0.42191   0.42752   0.43194   0.43406
 Alpha virt. eigenvalues --    0.44010   0.44113   0.44587   0.45133   0.45390
 Alpha virt. eigenvalues --    0.45958   0.46730   0.46798   0.47111   0.48077
 Alpha virt. eigenvalues --    0.48713   0.48926   0.48940   0.49172   0.50502
 Alpha virt. eigenvalues --    0.51097   0.51251   0.53299   0.53888   0.54367
 Alpha virt. eigenvalues --    0.55221   0.55786   0.57029   0.57141   0.58546
 Alpha virt. eigenvalues --    0.59451   0.59626   0.60733   0.61163   0.61830
 Alpha virt. eigenvalues --    0.61945   0.62206   0.62371   0.62714   0.63624
 Alpha virt. eigenvalues --    0.64256   0.65010   0.65361   0.65709   0.65967
 Alpha virt. eigenvalues --    0.67151   0.68031   0.69350   0.69368   0.70557
 Alpha virt. eigenvalues --    0.70645   0.71171   0.72859   0.74931   0.76549
 Alpha virt. eigenvalues --    0.76566   0.78105   0.78421   0.78779   0.83738
 Alpha virt. eigenvalues --    0.84524   0.85315   0.86760   1.03970   1.06069
 Alpha virt. eigenvalues --    1.06447   1.10643   1.11207   1.12742   1.13405
 Alpha virt. eigenvalues --    1.13504   1.14415   1.14694   1.16009   1.16157
 Alpha virt. eigenvalues --    1.16412   1.17000   1.17254   1.18162   1.18180
 Alpha virt. eigenvalues --    1.18677   1.19048   1.19658   1.19672   1.20010
 Alpha virt. eigenvalues --    1.20358   1.21037   1.21222   1.21571   1.21684
 Alpha virt. eigenvalues --    1.22598   1.22761   1.23250   1.23794   1.24051
 Alpha virt. eigenvalues --    1.24279   1.24799   1.24902   1.25337   1.26202
 Alpha virt. eigenvalues --    1.26219   1.26696   1.28533   1.31877   1.32263
 Alpha virt. eigenvalues --    1.32869   1.33314   1.33841   1.34141   1.34327
 Alpha virt. eigenvalues --    1.34517   1.34528   1.35202   1.35424   1.35676
 Alpha virt. eigenvalues --    1.35995   1.36560   1.36871   1.37168   1.37450
 Alpha virt. eigenvalues --    1.37665   1.38435   1.38537   1.38825   1.38941
 Alpha virt. eigenvalues --    1.39848   1.40161   1.40377   1.40829   1.41635
 Alpha virt. eigenvalues --    1.41725   1.42041   1.42178   1.42392   1.42731
 Alpha virt. eigenvalues --    1.43106   1.44479   1.44797   1.44827   1.45334
 Alpha virt. eigenvalues --    1.45549   1.45557   1.46194   1.46838   1.47200
 Alpha virt. eigenvalues --    1.47566   1.47568   1.47722   1.48432   1.48510
 Alpha virt. eigenvalues --    1.48967   1.49190   1.50522   1.50735   1.52268
 Alpha virt. eigenvalues --    1.52826   1.55101   1.56555   1.56702   1.57933
 Alpha virt. eigenvalues --    1.58181   1.59181   1.60554   1.60893   1.64723
 Alpha virt. eigenvalues --    1.65548   1.65740   1.66676   1.66854   1.67788
 Alpha virt. eigenvalues --    1.67950   1.68666   1.69060   1.69223   1.69680
 Alpha virt. eigenvalues --    1.70394   1.71302   1.71497   1.71789   1.71836
 Alpha virt. eigenvalues --    1.72116   1.72617   1.73756   1.74142   1.74399
 Alpha virt. eigenvalues --    1.75914   1.77337   1.77986   1.78380   1.78793
 Alpha virt. eigenvalues --    1.79081   1.80840   1.81065   1.81372   1.81424
 Alpha virt. eigenvalues --    1.81772   1.81866   1.81908   1.82320   1.82795
 Alpha virt. eigenvalues --    1.82865   1.83108   1.83239   1.83825   1.83990
 Alpha virt. eigenvalues --    1.84555   1.85189   1.86789   1.87410   1.87792
 Alpha virt. eigenvalues --    1.87951   1.88642   1.88854   1.89437   1.89842
 Alpha virt. eigenvalues --    1.90906   1.92299   1.92793   1.93403   1.93893
 Alpha virt. eigenvalues --    1.94720   1.95371   1.96636   1.97823   2.00485
 Alpha virt. eigenvalues --    2.00845   2.02152   2.03122   2.04014   2.08319
 Alpha virt. eigenvalues --    2.08319   2.10702   2.11763   2.12482   2.15217
 Alpha virt. eigenvalues --    2.16510   2.18643   2.18760   2.19415   2.19809
 Alpha virt. eigenvalues --    2.19926   2.20130   2.20571   2.20856   2.21231
 Alpha virt. eigenvalues --    2.21477   2.22870   2.23124   2.23780   2.24312
 Alpha virt. eigenvalues --    2.25024   2.25544   2.25673   2.26026   2.26376
 Alpha virt. eigenvalues --    2.26384   2.26791   2.27000   2.27309   2.27876
 Alpha virt. eigenvalues --    2.29652   2.30582   2.33049   2.34140   2.34617
 Alpha virt. eigenvalues --    2.39232   2.39413   2.40669   2.41079   2.41594
 Alpha virt. eigenvalues --    2.42009   2.42595   2.42873   2.44129   2.44608
 Alpha virt. eigenvalues --    2.44769   2.46405   2.46575   2.48486   2.48964
 Alpha virt. eigenvalues --    2.52166   2.52503   2.53215   2.53369   2.54001
 Alpha virt. eigenvalues --    2.54302   2.55236   2.55611   2.56066   2.56534
 Alpha virt. eigenvalues --    2.57290   2.57450   2.57494   2.60569   2.61994
 Alpha virt. eigenvalues --    2.63145   2.63233   2.63382   2.64429   2.64911
 Alpha virt. eigenvalues --    2.66790   2.66798   2.68660   2.70950   2.72211
 Alpha virt. eigenvalues --    2.73373   2.73620   2.73729   2.74310   2.75385
 Alpha virt. eigenvalues --    2.79286   2.83499   2.84021   2.87122   2.88452
 Alpha virt. eigenvalues --    2.91014   2.91341   2.92107   2.92440   2.93134
 Alpha virt. eigenvalues --    2.93889   2.94676   2.95051   2.96148   2.96567
 Alpha virt. eigenvalues --    2.97614   2.99146   2.99606   3.01009   3.01269
 Alpha virt. eigenvalues --    3.03150   3.04289   3.05768   3.06083   3.06227
 Alpha virt. eigenvalues --    3.06783   3.08337   3.09293   3.09345   3.10422
 Alpha virt. eigenvalues --    3.11153   3.12714   3.12844   3.17089   3.19085
 Alpha virt. eigenvalues --    3.21648   3.22316   3.22762   3.26294   3.26692
 Alpha virt. eigenvalues --    3.29276   3.30142   3.32510   3.32914   3.41558
 Alpha virt. eigenvalues --    3.43452   3.44554   3.46178   3.46931   3.48368
 Alpha virt. eigenvalues --    3.66309   3.72226   3.78558   3.79153  20.98597
 Alpha virt. eigenvalues --   21.07259  21.09027  21.21345  21.50892  21.54910
 Alpha virt. eigenvalues --   21.57769  21.57794  21.60879  21.61068  21.66733
 Alpha virt. eigenvalues --   21.73415  21.77039  21.81193  21.82891  21.83557
 Alpha virt. eigenvalues --   21.84726  21.87106  21.88933  21.90172  21.94883
 Alpha virt. eigenvalues --   21.98734  22.00499  22.01591  31.84743
  Beta  occ. eigenvalues --  -14.31820 -10.18182 -10.17977 -10.17975 -10.13768
  Beta  occ. eigenvalues --  -10.13452 -10.13450 -10.13242 -10.13242 -10.13199
  Beta  occ. eigenvalues --  -10.13198 -10.12394 -10.12392 -10.12365 -10.12364
  Beta  occ. eigenvalues --  -10.12310 -10.12310 -10.12294 -10.12294 -10.10608
  Beta  occ. eigenvalues --  -10.09044 -10.09042 -10.08393 -10.08371 -10.08340
  Beta  occ. eigenvalues --   -1.15988  -1.03498  -1.03064  -1.01275  -0.98800
  Beta  occ. eigenvalues --   -0.94425  -0.93847  -0.91899  -0.91876  -0.91687
  Beta  occ. eigenvalues --   -0.89807  -0.87786  -0.86693  -0.81555  -0.81337
  Beta  occ. eigenvalues --   -0.78934  -0.78201  -0.78133  -0.75512  -0.74247
  Beta  occ. eigenvalues --   -0.73640  -0.72601  -0.72477  -0.68584  -0.67361
  Beta  occ. eigenvalues --   -0.66677  -0.66049  -0.63968  -0.63938  -0.63602
  Beta  occ. eigenvalues --   -0.61888  -0.61687  -0.61124  -0.60784  -0.60486
  Beta  occ. eigenvalues --   -0.60311  -0.59839  -0.58940  -0.57570  -0.57033
  Beta  occ. eigenvalues --   -0.56926  -0.56253  -0.55199  -0.54374  -0.54142
  Beta  occ. eigenvalues --   -0.53883  -0.52841  -0.52513  -0.52430  -0.50441
  Beta  occ. eigenvalues --   -0.49340  -0.48590  -0.45905  -0.45882  -0.45597
  Beta  occ. eigenvalues --   -0.44609  -0.44553  -0.41238  -0.40236
  Beta virt. eigenvalues --   -0.24394  -0.11083  -0.10640  -0.10383  -0.08270
  Beta virt. eigenvalues --   -0.08178  -0.06436  -0.05467  -0.03635  -0.01376
  Beta virt. eigenvalues --    0.00164   0.00498   0.01803   0.01908   0.02650
  Beta virt. eigenvalues --    0.02736   0.03231   0.03971   0.04752   0.04872
  Beta virt. eigenvalues --    0.05311   0.05614   0.05614   0.05941   0.06433
  Beta virt. eigenvalues --    0.06877   0.07720   0.07930   0.08269   0.08970
  Beta virt. eigenvalues --    0.09864   0.10011   0.10430   0.10646   0.12172
  Beta virt. eigenvalues --    0.12329   0.12626   0.13372   0.13506   0.13701
  Beta virt. eigenvalues --    0.13819   0.14714   0.15156   0.16011   0.16063
  Beta virt. eigenvalues --    0.16487   0.16863   0.16904   0.17347   0.17712
  Beta virt. eigenvalues --    0.17744   0.17915   0.18107   0.18573   0.18815
  Beta virt. eigenvalues --    0.19636   0.19860   0.20120   0.20549   0.21182
  Beta virt. eigenvalues --    0.21365   0.21424   0.21720   0.21860   0.22183
  Beta virt. eigenvalues --    0.22641   0.23143   0.23864   0.24033   0.24590
  Beta virt. eigenvalues --    0.25352   0.25526   0.25580   0.25989   0.26179
  Beta virt. eigenvalues --    0.27116   0.27915   0.28181   0.28743   0.29266
  Beta virt. eigenvalues --    0.29296   0.29820   0.30183   0.30322   0.31134
  Beta virt. eigenvalues --    0.31655   0.32025   0.32127   0.32481   0.32623
  Beta virt. eigenvalues --    0.32795   0.33029   0.33512   0.34407   0.34529
  Beta virt. eigenvalues --    0.34803   0.35133   0.35997   0.36271   0.36612
  Beta virt. eigenvalues --    0.36939   0.36982   0.37123   0.37452   0.38098
  Beta virt. eigenvalues --    0.38447   0.38606   0.39150   0.39632   0.39871
  Beta virt. eigenvalues --    0.39923   0.39982   0.40603   0.41274   0.41592
  Beta virt. eigenvalues --    0.41886   0.41970   0.42302   0.42870   0.43339
  Beta virt. eigenvalues --    0.43482   0.44141   0.44185   0.44710   0.45234
  Beta virt. eigenvalues --    0.45491   0.46048   0.46786   0.46862   0.47201
  Beta virt. eigenvalues --    0.48159   0.48810   0.49023   0.49053   0.49294
  Beta virt. eigenvalues --    0.50631   0.51203   0.51372   0.53385   0.53978
  Beta virt. eigenvalues --    0.54505   0.55361   0.55887   0.57121   0.57234
  Beta virt. eigenvalues --    0.58664   0.59539   0.59739   0.60837   0.61276
  Beta virt. eigenvalues --    0.61920   0.62128   0.62280   0.62471   0.62852
  Beta virt. eigenvalues --    0.63681   0.64346   0.65139   0.65422   0.65825
  Beta virt. eigenvalues --    0.66020   0.67240   0.68193   0.69441   0.69475
  Beta virt. eigenvalues --    0.70641   0.70734   0.71276   0.73234   0.75355
  Beta virt. eigenvalues --    0.76641   0.77000   0.78213   0.78514   0.78896
  Beta virt. eigenvalues --    0.83862   0.84620   0.85430   0.86948   1.04077
  Beta virt. eigenvalues --    1.06156   1.06541   1.10778   1.11304   1.12890
  Beta virt. eigenvalues --    1.13564   1.13670   1.14503   1.14801   1.16175
  Beta virt. eigenvalues --    1.16280   1.16569   1.17180   1.17424   1.18319
  Beta virt. eigenvalues --    1.18368   1.18787   1.19148   1.19767   1.19799
  Beta virt. eigenvalues --    1.20082   1.20432   1.21185   1.21351   1.21710
  Beta virt. eigenvalues --    1.21778   1.22670   1.22896   1.23333   1.24045
  Beta virt. eigenvalues --    1.24148   1.24372   1.24834   1.25093   1.25531
  Beta virt. eigenvalues --    1.26252   1.26260   1.26844   1.28611   1.32171
  Beta virt. eigenvalues --    1.32474   1.33000   1.33783   1.33940   1.34425
  Beta virt. eigenvalues --    1.34528   1.34667   1.34760   1.35535   1.35542
  Beta virt. eigenvalues --    1.35733   1.36095   1.36661   1.37002   1.37392
  Beta virt. eigenvalues --    1.37688   1.37864   1.38530   1.38593   1.38808
  Beta virt. eigenvalues --    1.39074   1.39921   1.40271   1.40529   1.40971
  Beta virt. eigenvalues --    1.41807   1.41928   1.42159   1.42248   1.42633
  Beta virt. eigenvalues --    1.42885   1.43177   1.44560   1.44865   1.44897
  Beta virt. eigenvalues --    1.45500   1.45692   1.45746   1.46275   1.47001
  Beta virt. eigenvalues --    1.47461   1.47727   1.47780   1.47861   1.48598
  Beta virt. eigenvalues --    1.48720   1.49106   1.49277   1.50744   1.50883
  Beta virt. eigenvalues --    1.52433   1.53026   1.55248   1.56738   1.56876
  Beta virt. eigenvalues --    1.58070   1.58266   1.59260   1.60689   1.60979
  Beta virt. eigenvalues --    1.64915   1.65777   1.66000   1.66977   1.67191
  Beta virt. eigenvalues --    1.67966   1.68264   1.68645   1.69234   1.69325
  Beta virt. eigenvalues --    1.69841   1.70494   1.71472   1.71550   1.71933
  Beta virt. eigenvalues --    1.71978   1.72297   1.72717   1.73976   1.74231
  Beta virt. eigenvalues --    1.74562   1.76220   1.77492   1.78198   1.78597
  Beta virt. eigenvalues --    1.79005   1.79250   1.80999   1.81217   1.81493
  Beta virt. eigenvalues --    1.81502   1.81911   1.81982   1.82041   1.82464
  Beta virt. eigenvalues --    1.82879   1.83008   1.83230   1.83306   1.83937
  Beta virt. eigenvalues --    1.84233   1.84644   1.85290   1.86870   1.87555
  Beta virt. eigenvalues --    1.87952   1.88074   1.88855   1.89036   1.89577
  Beta virt. eigenvalues --    1.90112   1.91106   1.92482   1.92879   1.93693
  Beta virt. eigenvalues --    1.94021   1.94926   1.95462   1.96829   1.98041
  Beta virt. eigenvalues --    2.00705   2.00941   2.02374   2.03250   2.04378
  Beta virt. eigenvalues --    2.08618   2.08635   2.11369   2.12208   2.13076
  Beta virt. eigenvalues --    2.15676   2.16670   2.18803   2.19042   2.19590
  Beta virt. eigenvalues --    2.20113   2.20216   2.20350   2.20743   2.21092
  Beta virt. eigenvalues --    2.21406   2.21689   2.23125   2.23438   2.24014
  Beta virt. eigenvalues --    2.24579   2.25285   2.25711   2.25831   2.26230
  Beta virt. eigenvalues --    2.26563   2.26580   2.26944   2.27278   2.27453
  Beta virt. eigenvalues --    2.28023   2.29711   2.30821   2.33349   2.34333
  Beta virt. eigenvalues --    2.35133   2.39374   2.39613   2.40723   2.41105
  Beta virt. eigenvalues --    2.41819   2.42226   2.42653   2.42916   2.44239
  Beta virt. eigenvalues --    2.44775   2.45172   2.46476   2.46798   2.48715
  Beta virt. eigenvalues --    2.49407   2.52383   2.52757   2.53475   2.53650
  Beta virt. eigenvalues --    2.54145   2.54458   2.55434   2.56148   2.56170
  Beta virt. eigenvalues --    2.56824   2.57410   2.57639   2.57700   2.60614
  Beta virt. eigenvalues --    2.62137   2.63520   2.63652   2.63727   2.64754
  Beta virt. eigenvalues --    2.65245   2.67162   2.67532   2.68731   2.71064
[...]
    40  H(1)              -0.00118      -5.28609      -1.88621      -1.76325
    41  H(1)              -0.00117      -5.22520      -1.86448      -1.74294
    42  H(1)               0.00077       3.43563       1.22592       1.14600
    43  H(1)               0.00084       3.74566       1.33654       1.24942
    44  H(1)              -0.00167      -7.47125      -2.66593      -2.49214
 --------------------------------------------------------
       Center         ----  Spin Dipole Couplings  ----
                      3XX-RR        3YY-RR        3ZZ-RR
 --------------------------------------------------------
     1   Atom        0.007051      0.004679     -0.011730
     2   Atom       -0.015224     -0.017332      0.032556
     3   Atom       -0.011015     -0.013421      0.024436
     4   Atom        0.007051      0.004679     -0.011731
     5   Atom        0.005707      0.004072     -0.009779
     6   Atom       -0.011017     -0.013425      0.024442
     7   Atom        0.002586     -0.002270     -0.000316
     8   Atom       -0.000206      0.001676     -0.001470
     9   Atom        0.000763     -0.000029     -0.000735
    10   Atom       -0.000206      0.001676     -0.001470
    11   Atom       -0.075409     -0.003642      0.079051
    12   Atom        0.020793     -0.002689     -0.018104
    13   Atom        0.020786     -0.002683     -0.018103
    14   Atom       -0.054906      0.056885     -0.001979
    15   Atom       -0.054905      0.056897     -0.001992
    16   Atom        0.000473     -0.023368      0.022895
    17   Atom        0.001535     -0.000710     -0.000825
    18   Atom        0.001534     -0.000709     -0.000825
    19   Atom       -0.003145      0.002655      0.000490
    20   Atom       -0.003145      0.002655      0.000490
    21   Atom        0.000763     -0.000029     -0.000735
    22   Atom       -0.506022     -0.506366      1.012388
    23   Atom       -0.010407      0.005327      0.005079
    24   Atom        0.042583     -0.040870     -0.001713
    25   Atom        0.015075     -0.010854     -0.004221
    26   Atom        0.003567      0.014758     -0.018324
    27   Atom        0.000507      0.018271     -0.018778
    28   Atom       -0.013627     -0.045293      0.058920
    29   Atom        0.000252     -0.000465      0.000213
    30   Atom        0.001835     -0.002191      0.000356
    31   Atom       -0.000626      0.001538     -0.000912
    32   Atom        0.000160      0.000809     -0.000968
    33   Atom       -0.001798      0.005677     -0.003879
    34   Atom       -0.010375      0.005303      0.005073
    35   Atom        0.042508     -0.040856     -0.001652
    36   Atom        0.015048     -0.010835     -0.004212
    37   Atom        0.003582      0.014755     -0.018338
    38   Atom        0.000527      0.018267     -0.018795
    39   Atom       -0.013686     -0.045279      0.058965
    40   Atom        0.000256     -0.000467      0.000211
    41   Atom        0.001839     -0.002194      0.000355
    42   Atom       -0.000625      0.001538     -0.000913
    43   Atom        0.000160      0.000808     -0.000969
    44   Atom       -0.001800      0.005678     -0.003878
 --------------------------------------------------------
                        XY            XZ            YZ
 --------------------------------------------------------
     1   Atom       -0.000076      0.001324      0.000079
     2   Atom        0.000000     -0.000001     -0.000887
     3   Atom       -0.002658      0.008808     -0.007145
     4   Atom        0.000076     -0.001322      0.000079
     5   Atom       -0.000000      0.000000      0.005860
     6   Atom        0.002658     -0.008812     -0.007146
     7   Atom       -0.000000      0.000000     -0.000087
     8   Atom        0.000073     -0.000093     -0.000637
     9   Atom       -0.000093     -0.000060      0.000081
    10   Atom       -0.000073      0.000093     -0.000637
    11   Atom       -0.000012     -0.000018      0.111504
    12   Atom        0.001783      0.002905     -0.026680
    13   Atom       -0.001781     -0.002901     -0.026667
    14   Atom        0.015793      0.006889      0.077288
    15   Atom       -0.015811     -0.006900      0.077281
    16   Atom        0.000018      0.000034      0.007148
    17   Atom       -0.000370      0.000509     -0.001880
    18   Atom        0.000370     -0.000508     -0.001880
    19   Atom       -0.001229      0.001823     -0.005764
    20   Atom        0.001231     -0.001825     -0.005764
    21   Atom        0.000093      0.000060      0.000081
    22   Atom        0.000001      0.000092      0.013349
    23   Atom        0.016736     -0.010422      0.008953
    24   Atom       -0.036718      0.068498     -0.030200
    25   Atom       -0.056701      0.061617     -0.044007
    26   Atom        0.013225     -0.024555      0.017071
    27   Atom        0.012014     -0.028013      0.013255
    28   Atom       -0.027507      0.081406     -0.047174
    29   Atom       -0.002605     -0.003652      0.004044
    30   Atom       -0.001189     -0.005387      0.001105
    31   Atom        0.001004     -0.000975      0.001041
    32   Atom        0.001579     -0.001365      0.000288
    33   Atom        0.006517      0.003222     -0.001887
    34   Atom       -0.016750      0.010395      0.009010
    35   Atom        0.036722     -0.068518     -0.030233
    36   Atom        0.056714     -0.061614     -0.044028
    37   Atom       -0.013226      0.024552      0.017085
    38   Atom       -0.012013      0.028003      0.013264
    39   Atom        0.027507     -0.081381     -0.047207
    40   Atom        0.002606      0.003653      0.004043
    41   Atom        0.001186      0.005388      0.001103
    42   Atom       -0.001004      0.000974      0.001042
    43   Atom       -0.001579      0.001365      0.000289
    44   Atom       -0.006517     -0.003223     -0.001884
 --------------------------------------------------------


 ---------------------------------------------------------------------------------
              Anisotropic Spin Dipole Couplings in Principal Axis System
 ---------------------------------------------------------------------------------

       Atom             a.u.   MegaHertz   Gauss  10(-4) cm-1        Axes

              Baa    -0.0118    -1.587    -0.566    -0.529 -0.0700 -0.0051  0.9975
     1 C(13)  Bbb     0.0047     0.628     0.224     0.209  0.0280  0.9996  0.0070
              Bcc     0.0071     0.959     0.342     0.320  0.9972 -0.0284  0.0698
 
              Baa    -0.0173    -2.328    -0.831    -0.777 -0.0000  0.9998  0.0178
     2 C(13)  Bbb    -0.0152    -2.043    -0.729    -0.681  1.0000  0.0000  0.0000
              Bcc     0.0326     4.371     1.560     1.458 -0.0000 -0.0178  0.9998
 
              Baa    -0.0152    -2.042    -0.729    -0.681  0.4292  0.9007  0.0670
     3 C(13)  Bbb    -0.0127    -1.700    -0.607    -0.567  0.8737 -0.3952 -0.2835
              Bcc     0.0279     3.742     1.335     1.248  0.2289 -0.1802  0.9566
 
              Baa    -0.0118    -1.587    -0.566    -0.529  0.0699 -0.0051  0.9975
     4 C(13)  Bbb     0.0047     0.628     0.224     0.209 -0.0279  0.9996  0.0071
              Bcc     0.0071     0.959     0.342     0.320  0.9972  0.0283 -0.0697
 
              Baa    -0.0119    -1.600    -0.571    -0.534 -0.0000 -0.3440  0.9390
     5 C(13)  Bbb     0.0057     0.766     0.273     0.255  1.0000  0.0001  0.0000
              Bcc     0.0062     0.834     0.298     0.278 -0.0001  0.9390  0.3440
 
              Baa    -0.0152    -2.043    -0.729    -0.681 -0.4291  0.9008  0.0669
     6 C(13)  Bbb    -0.0127    -1.701    -0.607    -0.567  0.8737  0.3952  0.2835
              Bcc     0.0279     3.744     1.336     1.249 -0.2289 -0.1802  0.9566
 
              Baa    -0.0023    -1.213    -0.433    -0.405  0.0000  0.9990  0.0441
     7 H(1)   Bbb    -0.0003    -0.166    -0.059    -0.056 -0.0000 -0.0441  0.9990
              Bcc     0.0026     1.380     0.492     0.460  1.0000 -0.0000  0.0000
 
              Baa    -0.0016    -0.853    -0.304    -0.285  0.0558  0.1894  0.9803
     8 H(1)   Bbb    -0.0002    -0.110    -0.039    -0.037  0.9975 -0.0541 -0.0463
              Bcc     0.0018     0.962     0.343     0.321  0.0443  0.9804 -0.1919
 
              Baa    -0.0007    -0.398    -0.142    -0.133  0.0328 -0.1074  0.9937
     9 H(1)   Bbb    -0.0000    -0.017    -0.006    -0.006  0.1226  0.9871  0.1026
              Bcc     0.0008     0.415     0.148     0.138  0.9919 -0.1185 -0.0456
 
              Baa    -0.0016    -0.853    -0.304    -0.284 -0.0558  0.1894  0.9803
    10 H(1)   Bbb    -0.0002    -0.110    -0.039    -0.037  0.9975  0.0542  0.0463
              Bcc     0.0018     0.963     0.343     0.321 -0.0444  0.9804 -0.1919
 
              Baa    -0.0812   -10.899    -3.889    -3.635 -0.0000  0.8209 -0.5711
    11 C(13)  Bbb    -0.0754   -10.119    -3.611    -3.375  1.0000  0.0001  0.0001
              Bcc     0.1566    21.018     7.500     7.011 -0.0001  0.5711  0.8209
 
              Baa    -0.0384    -5.148    -1.837    -1.717 -0.0573  0.5998  0.7981
    12 C(13)  Bbb     0.0173     2.328     0.831     0.776  0.0875  0.7994 -0.5944
              Bcc     0.0210     2.820     1.006     0.941  0.9945 -0.0358  0.0982
 
              Baa    -0.0383    -5.146    -1.836    -1.716  0.0572  0.5997  0.7982
    13 C(13)  Bbb     0.0173     2.327     0.830     0.776 -0.0871  0.7994 -0.5944
              Bcc     0.0210     2.819     1.006     0.940  0.9946  0.0355 -0.0980
 
              Baa    -0.0593    -7.955    -2.838    -2.653  0.7723 -0.4213  0.4754
    14 C(13)  Bbb    -0.0526    -7.057    -2.518    -2.354 -0.6272 -0.3868  0.6761
              Bcc     0.1119    15.012     5.357     5.007  0.1009  0.8203  0.5630
 
              Baa    -0.0593    -7.955    -2.839    -2.653  0.7726  0.4212 -0.4751
    15 C(13)  Bbb    -0.0526    -7.057    -2.518    -2.354  0.6268 -0.3869  0.6763
              Bcc     0.1119    15.012     5.357     5.008 -0.1011  0.8203  0.5629
 
              Baa    -0.0244    -3.281    -1.171    -1.094 -0.0005  0.9888 -0.1493
    16 C(13)  Bbb     0.0005     0.064     0.023     0.021  1.0000  0.0002 -0.0016
              Bcc     0.0240     3.217     1.148     1.073  0.0016  0.1493  0.9888
 
              Baa    -0.0027    -1.414    -0.505    -0.472 -0.0263  0.6928  0.7207
    17 H(1)   Bbb     0.0007     0.358     0.128     0.119  0.5810  0.5972 -0.5529
              Bcc     0.0020     1.056     0.377     0.352  0.8135 -0.4042  0.4183
 
              Baa    -0.0027    -1.414    -0.505    -0.472  0.0262  0.6928  0.7206
    18 H(1)   Bbb     0.0007     0.358     0.128     0.120 -0.5813  0.5970 -0.5528
              Bcc     0.0020     1.056     0.377     0.352  0.8132  0.4044 -0.4184
 
              Baa    -0.0046    -2.472    -0.882    -0.825 -0.4820  0.4920  0.7250
    19 H(1)   Bbb    -0.0032    -1.713    -0.611    -0.571  0.8555  0.4428  0.2682
              Bcc     0.0078     4.185     1.493     1.396 -0.1891  0.7495 -0.6344
 
              Baa    -0.0046    -2.473    -0.882    -0.825  0.4820  0.4919  0.7250
    20 H(1)   Bbb    -0.0032    -1.713    -0.611    -0.571  0.8555 -0.4430 -0.2681
              Bcc     0.0078     4.185     1.493     1.396  0.1893  0.7495 -0.6344
 
              Baa    -0.0007    -0.398    -0.142    -0.133 -0.0329 -0.1074  0.9937
    21 H(1)   Bbb    -0.0000    -0.017    -0.006    -0.006 -0.1227  0.9871  0.1026
              Bcc     0.0008     0.415     0.148     0.138  0.9919  0.1186  0.0457
 
              Baa    -0.5065   -19.534    -6.970    -6.516 -0.0013  1.0000 -0.0088
    22 N(14)  Bbb    -0.5060   -19.516    -6.964    -6.510  1.0000  0.0013 -0.0001
              Bcc     1.0125    39.050    13.934    13.026  0.0001  0.0088  1.0000
 
              Baa    -0.0268    -3.602    -1.285    -1.201  0.7665 -0.5081  0.3928
    23 C(13)  Bbb     0.0103     1.381     0.493     0.461 -0.4834 -0.0537  0.8738
              Bcc     0.0165     2.220     0.792     0.741  0.4229  0.8596  0.2868
 
              Baa    -0.0573    -7.689    -2.743    -2.565 -0.0279  0.8635  0.5035
    24 C(13)  Bbb    -0.0503    -6.750    -2.409    -2.252 -0.6410 -0.4019  0.6538
              Bcc     0.1076    14.439     5.152     4.816  0.7670 -0.3046  0.5648
 
              Baa    -0.0586    -7.863    -2.806    -2.623  0.7504  0.4228 -0.5081
    25 C(13)  Bbb    -0.0517    -6.932    -2.474    -2.312  0.0258  0.7494  0.6617
              Bcc     0.1103    14.796     5.279     4.935  0.6605 -0.5096  0.5514
 
              Baa    -0.0424    -5.686    -2.029    -1.897  0.5180 -0.3527  0.7792
    26 C(13)  Bbb     0.0188     2.524     0.901     0.842  0.6960 -0.3557 -0.6237
              Bcc     0.0236     3.162     1.128     1.055  0.4972  0.8655  0.0613
 
              Baa    -0.0438    -5.884    -2.100    -1.963  0.5655 -0.2753  0.7774
    27 C(13)  Bbb     0.0195     2.612     0.932     0.871  0.6462 -0.4378 -0.6251
              Bcc     0.0244     3.272     1.168     1.091  0.5125  0.8559 -0.0698
 
              Baa    -0.0677    -9.079    -3.240    -3.028  0.6906 -0.4088 -0.5965
    28 C(13)  Bbb    -0.0612    -8.212    -2.930    -2.739  0.5065  0.8622 -0.0046
              Bcc     0.1289    17.291     6.170     5.768  0.5163 -0.2989  0.8026
 
              Baa    -0.0043    -2.308    -0.824    -0.770  0.2449 -0.6176  0.7474
    29 H(1)   Bbb    -0.0026    -1.383    -0.493    -0.461  0.7938  0.5704  0.2112
              Bcc     0.0069     3.691     1.317     1.231 -0.5567  0.5415  0.6299
 
              Baa    -0.0043    -2.317    -0.827    -0.773  0.6540 -0.0271  0.7560
    30 H(1)   Bbb    -0.0025    -1.324    -0.473    -0.442  0.1514  0.9838 -0.0957
              Bcc     0.0068     3.641     1.299     1.215  0.7412 -0.1771 -0.6475
 
              Baa    -0.0023    -1.226    -0.438    -0.409  0.6201 -0.3526  0.7008
    31 H(1)   Bbb     0.0002     0.114     0.041     0.038  0.7401 -0.0332 -0.6717
              Bcc     0.0021     1.112     0.397     0.371  0.2601  0.9352  0.2403
 
              Baa    -0.0023    -1.246    -0.444    -0.415  0.6159 -0.3730  0.6940
    32 H(1)   Bbb     0.0001     0.048     0.017     0.016 -0.4019  0.6089  0.6839
              Bcc     0.0022     1.197     0.427     0.399  0.6776  0.7001 -0.2251
 
              Baa    -0.0086    -4.564    -1.629    -1.522  0.6758 -0.3922 -0.6240
    33 H(1)   Bbb    -0.0009    -0.479    -0.171    -0.160  0.5407 -0.3116  0.7814
              Bcc     0.0095     5.043     1.800     1.682  0.5009  0.8655 -0.0015
 
              Baa    -0.0268    -3.603    -1.286    -1.202  0.7657  0.5091 -0.3931
    34 C(13)  Bbb     0.0103     1.378     0.492     0.460  0.4862 -0.0582  0.8719
              Bcc     0.0166     2.225     0.794     0.742 -0.4210  0.8587  0.2921
 
              Baa    -0.0573    -7.689    -2.744    -2.565  0.0282  0.8634  0.5038
    35 C(13)  Bbb    -0.0503    -6.751    -2.409    -2.252  0.6414 -0.4022  0.6533
              Bcc     0.1076    14.440     5.153     4.817  0.7667  0.3047 -0.5651
 
              Baa    -0.0586    -7.864    -2.806    -2.623  0.7505 -0.4232  0.5076
    36 C(13)  Bbb    -0.0517    -6.933    -2.474    -2.313 -0.0254  0.7491  0.6620
              Bcc     0.1103    14.797     5.280     4.936  0.6604  0.5097 -0.5514
 
              Baa    -0.0424    -5.688    -2.030    -1.897 -0.5178 -0.3529  0.7793
    37 C(13)  Bbb     0.0188     2.525     0.901     0.842  0.6964  0.3554  0.6235
              Bcc     0.0236     3.163     1.128     1.055 -0.4970  0.8656  0.0617
 
              Baa    -0.0438    -5.884    -2.100    -1.963 -0.5653 -0.2754  0.7776
    38 C(13)  Bbb     0.0195     2.612     0.932     0.871  0.6464  0.4377  0.6249
              Bcc     0.0244     3.272     1.168     1.091 -0.5125  0.8559 -0.0694
 
              Baa    -0.0677    -9.080    -3.240    -3.029  0.6908  0.4088  0.5964
    39 C(13)  Bbb    -0.0612    -8.213    -2.931    -2.739 -0.5065  0.8622 -0.0043
              Bcc     0.1289    17.292     6.170     5.768 -0.5160 -0.2991  0.8027
 
              Baa    -0.0043    -2.308    -0.824    -0.770 -0.2447 -0.6177  0.7474
    40 H(1)   Bbb    -0.0026    -1.383    -0.493    -0.461  0.7936 -0.5704 -0.2117
              Bcc     0.0069     3.691     1.317     1.231  0.5571  0.5413  0.6298
 
              Baa    -0.0043    -2.317    -0.827    -0.773 -0.6538 -0.0271  0.7562
    41 H(1)   Bbb    -0.0025    -1.325    -0.473    -0.442 -0.1512  0.9839 -0.0954
              Bcc     0.0068     3.642     1.300     1.215  0.7414  0.1767  0.6474
 
              Baa    -0.0023    -1.226    -0.438    -0.409 -0.6198 -0.3527  0.7010
    42 H(1)   Bbb     0.0002     0.114     0.041     0.038  0.7404  0.0332  0.6713
              Bcc     0.0021     1.113     0.397     0.371 -0.2600  0.9351  0.2406
 
              Baa    -0.0023    -1.246    -0.445    -0.416 -0.6157 -0.3732  0.6940
    43 H(1)   Bbb     0.0001     0.048     0.017     0.016  0.4020  0.6087  0.6840
              Bcc     0.0022     1.197     0.427     0.399 -0.6777  0.7001 -0.2248
 
              Baa    -0.0086    -4.565    -1.629    -1.523  0.6760  0.3922  0.6239
    44 H(1)   Bbb    -0.0009    -0.479    -0.171    -0.160 -0.5404 -0.3117  0.7815
              Bcc     0.0095     5.044     1.800     1.682 -0.5009  0.8655 -0.0012
 

 ---------------------------------------------------------------------------------

 No NMR shielding tensors so no spin-rotation constants.
 Leave Link  601 at Sun Jan 17 16:10:19 2021, MaxMem=  4026531840 cpu:               6.6 elap:               1.0
 (Enter /opt/ohpc/pub/libs/gaussian/g16-A.03/sandybridge/g16/l9999.exe)

 Test job not archived.
 1\1\GINC-CASCADEB025\SP\ULC-wHPBE\TZVP\C24H19N1(1+,2)\RDU230\17-Jan-20
 21\0\\#P LC-wHPBE/TZVP iop(3/107=0183500000, 3/108=0183500000) scf=(co
 nver=6,fermi,ndamp=35,noincfock,novaracc,vshift=500,xqc)\\H19 C24 N1\\
 1,2\C,0,6.129184,1.201496,-0.030856\C,0,6.830271,0.000001,0.000182\C,0
 ,4.738958,1.200713,-0.032197\C,0,6.129235,-1.201473,0.031153\C,0,4.021
 751,-0.000032,0.000031\C,0,4.738962,-1.200719,0.032361\H,0,7.919539,0.
 000045,0.00019\H,0,4.198073,2.145454,-0.081149\H,0,6.668779,-2.147537,
 0.063412\H,0,4.198148,-2.145504,0.081256\C,0,2.536892,-0.000014,-0.000
 063\C,0,1.813363,-0.924286,-0.760077\C,0,1.813258,0.92429,0.759786\C,0
 ,0.426027,-0.922473,-0.771159\C,0,0.425899,0.922498,0.770636\C,0,-0.28
 8344,0.000018,-0.000311\H,0,2.347573,-1.638662,-1.38605\H,0,2.34735,1.
 638674,1.385851\H,0,-0.11537,-1.638494,-1.387158\H,0,-0.115571,1.63857
 8,1.386504\H,0,6.668762,2.147543,-0.063006\N,0,-1.704382,-0.000003,-0.
 000499\C,0,-2.414266,1.22777,0.004035\C,0,-3.559402,1.382015,0.792108\
 C,0,-1.979956,2.301413,-0.78017\C,0,-4.257371,2.583383,0.786193\C,0,-2
 .673527,3.505213,-0.76583\C,0,-3.817854,3.653503,0.012423\H,0,-3.90004
 6,0.551242,1.407814\H,0,-1.092486,2.185578,-1.400082\H,0,-5.147916,2.6
 86607,1.40537\H,0,-2.321511,4.331764,-1.38228\H,0,-4.363183,4.595952,0
 .015664\C,0,-2.414241,-1.227791,-0.004406\C,0,-3.559682,-1.382189,-0.7
 92032\C,0,-1.979686,-2.301249,0.779869\C,0,-4.257673,-2.583532,-0.7855
 97\C,0,-2.673287,-3.50506,0.766028\C,0,-3.817885,-3.653507,-0.011769\H
 ,0,-3.900521,-0.551523,-1.407763\H,0,-1.092008,-2.185299,1.399468\H,0,
 -5.148466,-2.686887,-1.404399\H,0,-2.32101,-4.331477,1.382521\H,0,-4.3
 63223,-4.595951,-0.014691\\Version=EM64L-G16RevA.03\State=2-A\HF=-979.
 858439\S2=0.7685\S2-1=0.\S2A=0.750317\RMSD=9.173e-07\Dipole=-1.7480465
 ,0.0000034,0.0001021\Quadrupole=27.6586401,1.6428116,-29.3014517,-0.00
 01148,-0.001157,-0.2993079\PG=C01 [X(C24H19N1)]\\@


 THERE'S SMALL CHOICE IN A BOWL OF ROTTEN APPLES.
                     SHAKESPEARE
 Job cpu time:       0 days  2 hours 19 minutes 55.5 seconds.
 Elapsed time:       0 days  0 hours 17 minutes 32.8 seconds.
 File lengths (MBytes):  RWF=    220 Int=      0 D2E=      0 Chk=     32 Scr=      8
 Normal termination of Gaussian 16 at Sun Jan 17 16:10:19 2021.
