 Entering Gaussian System, Link 0=g16
 Input=mol_bp_pa_half_tune_n6.gjf
 Output=mol_bp_pa_half_tune_n6.log
 Initial command:
 /opt/ohpc/pub/libs/gaussian/g16-A.03/sandybridge/g16/l1.exe "/mnt/gpfs2_4m/scratch/rdu230/ondemand/projects/init_structures/wtuning/mol_bp_pa_half/tuning_mol_bp_pa_half_ocycle0/Gau-413018.inp" -scrdir="/mnt/gpfs2_4m/scratch/rdu230/ondemand/projects/init_structures/wtuning/mol_bp_pa_half/tuning_mol_bp_pa_half_ocycle0/"
 Entering Link 1 = /opt/ohpc/pub/libs/gaussian/g16-A.03/sandybridge/g16/l1.exe PID=    413019.
  
 Copyright (c) 1988,1990,1992,1993,1995,1998,2003,2009,2016,
            Gaussian, Inc.  All Rights Reserved.
  
 This is part of the Gaussian(R) 16 program.  It is based on
 the Gaussian(R) 09 system (copyright 2009, Gaussian, Inc.),
 the Gaussian(R) 03 system (copyright 2003, Gaussian, Inc.),
 the Gaussian(R) 98 system (copyright 1998, Gaussian, Inc.),
 the Gaussian(R) 94 system (copyright 1995, Gaussian, Inc.),
 the Gaussian 92(TM) system (copyright 1992, Gaussian, Inc.),
 the Gaussian 90(TM) system (copyright 1990, Gaussian, Inc.),
 the Gaussian 88(TM) system (copyright 1988, Gaussian, Inc.),
 the Gaussian 86(TM) system (copyright 1986, Carnegie Mellon
 University), and the Gaussian 82(TM) system (copyright 1983,
 Carnegie Mellon University). Gaussian is a federally registered
 trademark of Gaussian, Inc.
  
 This software contains proprietary and confidential information,
 including trade secrets, belonging to Gaussian, Inc.
  
 This software is provided under written license and may be
 used, copied, transmitted, or stored only in accord with that
 written license.
  
 The following legend is applicable only to US Government
 contracts under FAR:
  
                    RESTRICTED RIGHTS LEGEND
  
 Use, reproduction and disclosure by the US Government is
 subject to restrictions as set forth in subparagraphs (a)
 and (c) of the Commercial Computer Software - Restricted
 Rights clause in FAR 52.227-19.
  
 Gaussian, Inc.
 340 Quinnipiac St., Bldg. 40, Wallingford CT 06492
  
  
 ---------------------------------------------------------------
 Warning -- This program may not be used in any manner that
 competes with the business of Gaussian, Inc. or will provide
 assistance to any competitor of Gaussian, Inc.  The licensee
 of this program is prohibited from giving any competitor of
 Gaussian, Inc. access to this program.  By using this program,
 the user acknowledges that Gaussian, Inc. is engaged in the
 business of creating and licensing software in the field of
 computational chemistry and represents and warrants to the
 licensee that it is not a competitor of Gaussian, Inc. and that
 it will not use this program in any manner prohibited above.
 ---------------------------------------------------------------
  

 Cite this work as:
 Gaussian 16, Revision A.03,
 M. J. Frisch, G. W. Trucks, H. B. Schlegel, G. E. Scuseria, 
 M. A. Robb, J. R. Cheeseman, G. Scalmani, V. Barone, 
 G. A. Petersson, H. Nakatsuji, X. Li, M. Caricato, A. V. Marenich, 
 J. Bloino, B. G. Janesko, R. Gomperts, B. Mennucci, H. P. Hratchian, 
 J. V. Ortiz, A. F. Izmaylov, J. L. Sonnenberg, D. Williams-Young, 
 F. Ding, F. Lipparini, F. Egidi, J. Goings, B. Peng, A. Petrone, 
 T. Henderson, D. Ranasinghe, V. G. Zakrzewski, J. Gao, N. Rega, 
 G. Zheng, W. Liang, M. Hada, M. Ehara, K. Toyota, R. Fukuda, 
 J. Hasegawa, M. Ishida, T. Nakajima, Y. Honda, O. Kitao, H. Nakai, 
 T. Vreven, K. Throssell, J. A. Montgomery, Jr., J. E. Peralta, 
 F. Ogliaro, M. J. Bearpark, J. J. Heyd, E. N. Brothers, K. N. Kudin, 
 V. N. Staroverov, T. A. Keith, R. Kobayashi, J. Normand, 
 K. Raghavachari, A. P. Rendell, J. C. Burant, S. S. Iyengar, 
 J. Tomasi, M. Cossi, J. M. Millam, M. Klene, C. Adamo, R. Cammi, 
 J. W. Ochterski, R. L. Martin, K. Morokuma, O. Farkas, 
 J. B. Foresman, and D. J. Fox, Gaussian, Inc., Wallingford CT, 2016.
 
 ******************************************
 Gaussian 16:  EM64L-G16RevA.03 25-Dec-2016
                17-Jan-2021 
 ******************************************
 %mem=30GB
 %nproc=8
 Will use up to    8 processors via shared memory.
 ----------------------------------------------------------------------
 #P LC-wHPBE/TZVP iop(3/107=0182000000, 3/108=0182000000) scf=(conver=6
 ,fermi,ndamp=35,noincfock,novaracc,vshift=500,xqc)
 ----------------------------------------------------------------------
 1/38=1,172=1/1;
 2/12=2,17=6,18=5,40=1/2;
 3/5=19,7=101,11=2,25=1,30=1,74=-71,107=182000000,108=182000000/1,2,3;
 4//1;
 5/5=100002,6=6,8=3,10=500,13=1,18=-1,22=13,38=1,93=35/2,8;
 6/7=2,8=2,9=2,10=2,28=1/1;
 99/5=1,9=1/99;
 Leave Link    1 at Sun Jan 17 14:21:24 2021, MaxMem=  4026531840 cpu:               1.6 elap:               0.3
 (Enter /opt/ohpc/pub/libs/gaussian/g16-A.03/sandybridge/g16/l101.exe)
 ----------
 H19 C24 N1
 ----------
 Symbolic Z-matrix:
 Charge =  0 Multiplicity = 1
 C                     6.12918   1.2015   -0.03086 
 C                     6.83027   0.        0.00018 
 C                     4.73896   1.20071  -0.0322 
 C                     6.12924  -1.20147   0.03115 
 C                     4.02175  -0.00003   0.00003 
 C                     4.73896  -1.20072   0.03236 
 H                     7.91954   0.00005   0.00019 
 H                     4.19807   2.14545  -0.08115 
 H                     6.66878  -2.14754   0.06341 
 H                     4.19815  -2.1455    0.08126 
 C                     2.53689  -0.00001  -0.00006 
 C                     1.81336  -0.92429  -0.76008 
 C                     1.81326   0.92429   0.75979 
 C                     0.42603  -0.92247  -0.77116 
 C                     0.4259    0.9225    0.77064 
 C                    -0.28834   0.00002  -0.00031 
 H                     2.34757  -1.63866  -1.38605 
 H                     2.34735   1.63867   1.38585 
 H                    -0.11537  -1.63849  -1.38716 
 H                    -0.11557   1.63858   1.3865 
 H                     6.66876   2.14754  -0.06301 
 N                    -1.70438  0.        -0.0005 
 C                    -2.41427   1.22777   0.00404 
 C                    -3.5594    1.38202   0.79211 
 C                    -1.97996   2.30141  -0.78017 
 C                    -4.25737   2.58338   0.78619 
 C                    -2.67353   3.50521  -0.76583 
 C                    -3.81785   3.6535    0.01242 
 H                    -3.90005   0.55124   1.40781 
 H                    -1.09249   2.18558  -1.40008 
 H                    -5.14792   2.68661   1.40537 
 H                    -2.32151   4.33176  -1.38228 
 H                    -4.36318   4.59595   0.01566 
 C                    -2.41424  -1.22779  -0.00441 
 C                    -3.55968  -1.38219  -0.79203 
 C                    -1.97969  -2.30125   0.77987 
 C                    -4.25767  -2.58353  -0.7856 
 C                    -2.67329  -3.50506   0.76603 
 C                    -3.81789  -3.65351  -0.01177 
 H                    -3.90052  -0.55152  -1.40776 
 H                    -1.09201  -2.1853    1.39947 
 H                    -5.14847  -2.68689  -1.4044 
 H                    -2.32101  -4.33148   1.38252 
 H                    -4.36322  -4.59595  -0.01469 
 
 ITRead=  0  0  0  0  0  0  0  0  0  0  0  0  0  0  0  0  0  0  0  0
 ITRead=  0  0  0  0  0  0  0  0  0  0  0  0  0  0  0  0  0  0  0  0
 ITRead=  0  0  0  0
 MicOpt= -1 -1 -1 -1 -1 -1 -1 -1 -1 -1 -1 -1 -1 -1 -1 -1 -1 -1 -1 -1
 MicOpt= -1 -1 -1 -1 -1 -1 -1 -1 -1 -1 -1 -1 -1 -1 -1 -1 -1 -1 -1 -1
 MicOpt= -1 -1 -1 -1
 NAtoms=     44 NQM=       44 NQMF=       0 NMMI=      0 NMMIF=      0
                NMic=       0 NMicF=      0.
                    Isotopes and Nuclear Properties:
 (Nuclear quadrupole moments (NQMom) in fm**2, nuclear magnetic moments (NMagM)
  in nuclear magnetons)

  Atom         1           2           3           4           5           6           7           8           9          10
 IAtWgt=          12          12          12          12          12          12           1           1           1           1
 AtmWgt=  12.0000000  12.0000000  12.0000000  12.0000000  12.0000000  12.0000000   1.0078250   1.0078250   1.0078250   1.0078250
 NucSpn=           0           0           0           0           0           0           1           1           1           1
 AtZEff=  -0.0000000  -0.0000000  -0.0000000  -0.0000000  -0.0000000  -0.0000000  -0.0000000  -0.0000000  -0.0000000  -0.0000000
 NQMom=    0.0000000   0.0000000   0.0000000   0.0000000   0.0000000   0.0000000   0.0000000   0.0000000   0.0000000   0.0000000
 NMagM=    0.0000000   0.0000000   0.0000000   0.0000000   0.0000000   0.0000000   2.7928460   2.7928460   2.7928460   2.7928460
 AtZNuc=   6.0000000   6.0000000   6.0000000   6.0000000   6.0000000   6.0000000   1.0000000   1.0000000   1.0000000   1.0000000

  Atom        11          12          13          14          15          16          17          18          19          20
 IAtWgt=          12          12          12          12          12          12           1           1           1           1
 AtmWgt=  12.0000000  12.0000000  12.0000000  12.0000000  12.0000000  12.0000000   1.0078250   1.0078250   1.0078250   1.0078250
 NucSpn=           0           0           0           0           0           0           1           1           1           1
 AtZEff=  -0.0000000  -0.0000000  -0.0000000  -0.0000000  -0.0000000  -0.0000000  -0.0000000  -0.0000000  -0.0000000  -0.0000000
 NQMom=    0.0000000   0.0000000   0.0000000   0.0000000   0.0000000   0.0000000   0.0000000   0.0000000   0.0000000   0.0000000
 NMagM=    0.0000000   0.0000000   0.0000000   0.0000000   0.0000000   0.0000000   2.7928460   2.7928460   2.7928460   2.7928460
 AtZNuc=   6.0000000   6.0000000   6.0000000   6.0000000   6.0000000   6.0000000   1.0000000   1.0000000   1.0000000   1.0000000

  Atom        21          22          23          24          25          26          27          28          29          30
 IAtWgt=           1          14          12          12          12          12          12          12           1           1
 AtmWgt=   1.0078250  14.0030740  12.0000000  12.0000000  12.0000000  12.0000000  12.0000000  12.0000000   1.0078250   1.0078250
 NucSpn=           1           2           0           0           0           0           0           0           1           1
 AtZEff=  -0.0000000  -0.0000000  -0.0000000  -0.0000000  -0.0000000  -0.0000000  -0.0000000  -0.0000000  -0.0000000  -0.0000000
 NQMom=    0.0000000   2.0440000   0.0000000   0.0000000   0.0000000   0.0000000   0.0000000   0.0000000   0.0000000   0.0000000
 NMagM=    2.7928460   0.4037610   0.0000000   0.0000000   0.0000000   0.0000000   0.0000000   0.0000000   2.7928460   2.7928460
 AtZNuc=   1.0000000   7.0000000   6.0000000   6.0000000   6.0000000   6.0000000   6.0000000   6.0000000   1.0000000   1.0000000

  Atom        31          32          33          34          35          36          37          38          39          40
 IAtWgt=           1           1           1          12          12          12          12          12          12           1
 AtmWgt=   1.0078250   1.0078250   1.0078250  12.0000000  12.0000000  12.0000000  12.0000000  12.0000000  12.0000000   1.0078250
 NucSpn=           1           1           1           0           0           0           0           0           0           1
 AtZEff=  -0.0000000  -0.0000000  -0.0000000  -0.0000000  -0.0000000  -0.0000000  -0.0000000  -0.0000000  -0.0000000  -0.0000000
 NQMom=    0.0000000   0.0000000   0.0000000   0.0000000   0.0000000   0.0000000   0.0000000   0.0000000   0.0000000   0.0000000
 NMagM=    2.7928460   2.7928460   2.7928460   0.0000000   0.0000000   0.0000000   0.0000000   0.0000000   0.0000000   2.7928460
 AtZNuc=   1.0000000   1.0000000   1.0000000   6.0000000   6.0000000   6.0000000   6.0000000   6.0000000   6.0000000   1.0000000

  Atom        41          42          43          44
 IAtWgt=           1           1           1           1
 AtmWgt=   1.0078250   1.0078250   1.0078250   1.0078250
 NucSpn=           1           1           1           1
 AtZEff=  -0.0000000  -0.0000000  -0.0000000  -0.0000000
 NQMom=    0.0000000   0.0000000   0.0000000   0.0000000
 NMagM=    2.7928460   2.7928460   2.7928460   2.7928460
 AtZNuc=   1.0000000   1.0000000   1.0000000   1.0000000
 Leave Link  101 at Sun Jan 17 14:21:24 2021, MaxMem=  4026531840 cpu:               0.8 elap:               0.1
 (Enter /opt/ohpc/pub/libs/gaussian/g16-A.03/sandybridge/g16/l202.exe)
                          Input orientation:                          
 ---------------------------------------------------------------------
 Center     Atomic      Atomic             Coordinates (Angstroms)
 Number     Number       Type             X           Y           Z
 ---------------------------------------------------------------------
      1          6           0        6.129184    1.201496   -0.030856
      2          6           0        6.830271    0.000001    0.000182
      3          6           0        4.738958    1.200713   -0.032197
      4          6           0        6.129235   -1.201473    0.031153
      5          6           0        4.021751   -0.000032    0.000031
      6          6           0        4.738962   -1.200719    0.032361
      7          1           0        7.919539    0.000045    0.000190
      8          1           0        4.198073    2.145454   -0.081149
      9          1           0        6.668779   -2.147537    0.063412
     10          1           0        4.198148   -2.145504    0.081256
     11          6           0        2.536892   -0.000014   -0.000063
     12          6           0        1.813363   -0.924286   -0.760077
     13          6           0        1.813258    0.924290    0.759786
     14          6           0        0.426027   -0.922473   -0.771159
     15          6           0        0.425899    0.922498    0.770636
     16          6           0       -0.288344    0.000018   -0.000311
     17          1           0        2.347573   -1.638662   -1.386050
     18          1           0        2.347350    1.638674    1.385851
     19          1           0       -0.115370   -1.638494   -1.387158
     20          1           0       -0.115571    1.638578    1.386504
     21          1           0        6.668762    2.147543   -0.063006
     22          7           0       -1.704382   -0.000003   -0.000499
     23          6           0       -2.414266    1.227770    0.004035
     24          6           0       -3.559402    1.382015    0.792108
     25          6           0       -1.979956    2.301413   -0.780170
     26          6           0       -4.257371    2.583383    0.786193
     27          6           0       -2.673527    3.505213   -0.765830
     28          6           0       -3.817854    3.653503    0.012423
     29          1           0       -3.900046    0.551242    1.407814
     30          1           0       -1.092486    2.185578   -1.400082
     31          1           0       -5.147916    2.686607    1.405370
     32          1           0       -2.321511    4.331764   -1.382280
     33          1           0       -4.363183    4.595952    0.015664
     34          6           0       -2.414241   -1.227791   -0.004406
     35          6           0       -3.559682   -1.382189   -0.792032
     36          6           0       -1.979686   -2.301249    0.779869
     37          6           0       -4.257673   -2.583532   -0.785597
     38          6           0       -2.673287   -3.505060    0.766028
     39          6           0       -3.817885   -3.653507   -0.011769
     40          1           0       -3.900521   -0.551523   -1.407763
     41          1           0       -1.092008   -2.185299    1.399468
     42          1           0       -5.148466   -2.686887   -1.404399
     43          1           0       -2.321010   -4.331477    1.382521
     44          1           0       -4.363223   -4.595951   -0.014691
 ---------------------------------------------------------------------
                    Distance matrix (angstroms):
                    1          2          3          4          5
     1  C    0.000000
     2  C    1.391430   0.000000
     3  C    1.390227   2.411711   0.000000
     4  C    2.403769   1.391384   2.776217   0.000000
     5  C    2.426087   2.808520   1.399004   2.426091   0.000000
     6  C    2.776212   2.411708   2.402300   1.390274   1.398959
     7  H    2.156344   1.089268   3.399816   2.156338   3.897788
     8  H    2.150064   3.396770   1.089719   3.865737   2.154249
     9  H    3.393534   2.154529   3.865764   1.089580   3.409186
    10  H    3.865731   3.396739   3.391536   2.150070   2.154243
    11  C    3.788025   4.293379   2.508361   3.788061   1.484859
    12  C    4.865904   5.157680   3.688433   4.396547   2.511770
    13  C    4.396496   5.157686   3.043578   4.865946   2.511780
    14  C    6.130685   6.516154   4.863677   5.766119   3.791420
    15  C    5.766081   6.516178   4.395955   6.130753   3.791444
    16  C    6.529100   7.118615   5.168796   6.529157   4.310095
    17  H    4.919718   4.970054   3.951416   4.062089   2.721985
    18  H    4.062075   4.970101   2.814686   4.919786   2.722035
    19  H    6.992822   7.269890   5.784593   6.418542   4.660968
    20  H    6.418482   7.269907   5.076504   6.992887   4.660985
    21  H    1.089579   2.154533   2.149786   3.393503   3.409211
    22  N    7.925230   8.534653   6.554339   7.925282   5.726133
    23  C    8.543562   9.325712   7.153367   8.882194   6.552086
    24  C    9.725151  10.511062   8.341171  10.056001   7.746697
    25  C    8.217630   9.139231   6.849439   8.870594   6.475017
    26  C   10.509886  11.411726   9.138680  11.080470   8.708384
    27  C    9.128802  10.158517   7.797042  10.013825   7.596054
    28  C   10.244890  11.257477   8.901528  11.068682   8.649155
    29  H   10.152736  10.836282   8.782245  10.273932   8.064777
    30  H    7.415910   8.337120   6.070157   8.103937   5.735209
    31  H   11.464785  12.355945  10.100731  12.007488   9.657940
    32  H    9.112583  10.219124   7.840690  10.199491   7.804628
    33  H   11.027886  12.100265   9.714881  11.987544   9.561926
    34  C    8.882131   9.325690   7.554248   8.543591   6.552053
    35  C   10.056289  10.511383   8.724457   9.725503   7.746990
    36  C    8.870190   9.138873   7.619932   8.217340   6.474642
    37  C   11.080743  11.412037   9.789152  10.510234   8.708648
    38  C   10.013500  10.158228   8.816056   9.128579   7.595756
    39  C   11.068677  11.257508   9.837857  10.244975   8.649157
    40  H   10.274431  10.836807   8.922058  10.153271   8.065260
    41  H    8.103198   8.336429   6.893106   7.415292   5.734488
    42  H   12.007978  12.356470  10.712494  11.465331   9.658390
    43  H   10.198882  10.218537   9.080182   9.112067   7.804057
    44  H   11.987546  12.100302  10.791261  11.027976   9.561929
                    6          7          8          9         10
     6  C    0.000000
     7  H    3.399844   0.000000
     8  H    3.391507   4.296360   0.000000
     9  H    2.149796   2.486062   4.955306   0.000000
    10  H    1.089720   4.296359   4.294030   2.470696   0.000000
    11  C    2.508357   5.382647   2.714614   4.657078   2.714684
    12  C    3.043600   6.222361   3.946022   5.074401   2.808276
    13  C    3.688435   6.222370   2.808159   5.787672   3.946104
    14  C    4.395961   7.589383   4.910868   6.416326   4.056022
    15  C    4.863704   7.589410   4.055916   6.992770   4.910982
    16  C    5.168814   8.207883   4.973667   7.281319   4.973784
    17  H    2.814680   5.971083   4.409836   4.586144   2.415472
    18  H    3.951442   5.971135   2.415386   5.895675   4.409923
    19  H    5.076536   8.316809   5.884702   6.956145   4.584729
    20  H    5.784618   8.316829   4.584589   7.881158   5.884821
    21  H    3.865758   2.485998   2.470756   4.296940   4.955300
    22  N    6.554348   9.623921   6.280801   8.644409   6.280901
    23  C    7.554272  10.406481   6.676258   9.690094   7.423541
    24  C    8.724138  11.588920   7.843713  10.844557   8.551508
    25  C    7.620301  10.193393   6.219405   9.762449   7.660685
    26  C    9.788856  12.472713   8.511087  11.928318   9.713656
    27  C    8.816343  11.184187   7.038226  10.950795   8.936894
    28  C    9.837834  12.292856   8.157086  11.984329   9.893913
    29  H    8.921530  11.915864   8.386779  10.990491   8.637878
    30  H    6.893815   9.378375   5.452633   9.008603   6.995959
    31  H   10.711994  13.414564   9.478929  12.837604  10.604315
    32  H    9.080741  11.205093   6.998419  11.175718   9.306067
    33  H   10.791233  13.114414   8.905584  12.929853  10.897152
    34  C    7.153349  10.406470   7.423434   9.129720   6.676318
    35  C    8.341466  11.589249   8.551747  10.292665   7.844056
    36  C    6.849100  10.193062   7.660237   8.679452   6.219160
    37  C    9.138964  12.473044   9.713866  10.968056   8.511417
    38  C    7.796774  11.183927   8.936532   9.466295   7.038034
    39  C    8.901559  12.292913   9.893854  10.594514   8.157175
    40  H    8.782715  11.916391   8.638334  10.789890   8.387276
    41  H    6.069480   9.377723   6.995184   7.875042   5.452065
    42  H   10.101198  13.415112  10.604730  11.920262   9.479423
    43  H    7.840139  11.204542   9.305450   9.344835   6.997942
    44  H    9.714916  13.114482  10.897098  11.300703   8.905671
                   11         12         13         14         15
    11  C    0.000000
    12  C    1.398354   0.000000
    13  C    1.398340   2.393160   0.000000
    14  C    2.429253   1.387381   2.771053   0.000000
    15  C    2.429258   2.771056   1.387403   2.404381   0.000000
    16  C    2.825236   2.418420   2.418420   1.398400   1.398382
    17  H    2.154523   1.089750   3.385089   2.140878   3.860527
    18  H    2.154526   3.385102   1.089750   3.860524   2.140881
    19  H    3.412205   2.150194   3.859642   1.088693   3.392304
    20  H    3.412200   3.859646   2.150201   3.392318   1.088694
    21  H    4.657071   5.787654   5.074372   6.992726   6.416310
    22  N    4.241274   3.715614   3.715662   2.446121   2.446171
    23  C    5.101121   4.805004   4.305255   3.645783   2.957601
    24  C    6.300979   6.049372   5.392220   4.861904   4.011763
    25  C    5.129040   4.979438   4.319306   4.022720   3.177191
    26  C    7.311234   7.179729   6.293316   6.053973   4.969084
    27  C    6.326253   6.304972   5.396286   5.404782   4.317127
    28  C    7.330153   7.298186   6.302109   6.289999   5.103206
    29  H    6.612123   6.286492   5.762026   5.063069   4.388351
    30  H    4.461978   4.304047   3.833957   3.515879   2.934771
    31  H    8.261322   8.135546   7.209749   6.987959   5.880679
    32  H    6.654240   6.716426   5.770237   5.960658   4.879181
    33  H    8.290608   8.320128   7.223797   7.349057   6.082726
    34  C    5.101095   4.305321   4.804913   2.957744   3.645659
    35  C    6.301257   5.392616   6.049502   4.012188   4.861931
    36  C    5.128689   4.319107   4.979049   3.177132   4.022371
    37  C    7.311480   6.293745   7.179779   4.969544   6.053921
    38  C    6.325995   5.396241   6.304623   4.317227   5.404465
    39  C    7.330166   6.302346   7.298034   5.103529   6.289808
    40  H    6.612569   5.762545   6.286777   4.388837   5.063207
    41  H    4.461286   3.833402   4.303406   2.934413   3.515377
    42  H    8.261729   7.210338   8.135717   5.881252   6.987988
    43  H    6.653745   5.769984   6.715881   4.879125   5.960215
    44  H    8.290623   7.224053   8.319964   6.083058   7.348858
                   16         17         18         19         20
    16  C    0.000000
    17  H    3.399059   0.000000
    18  H    3.399047   4.292361   0.000000
    19  H    2.153598   2.462943   4.949182   0.000000
    20  H    2.153598   4.949185   2.462921   4.293297   0.000000
    21  H    7.281285   5.895631   4.586146   7.881110   6.956098
    22  N    1.416038   4.585117   4.585167   2.670662   2.670776
    23  C    2.454982   5.729213   4.975062   3.928843   2.713666
    24  C    3.638360   6.982923   5.942064   5.072872   3.504155
    25  C    2.960769   5.883773   4.884306   4.400907   2.934239
    26  C    4.800577   8.134469   6.698836   6.301101   4.290401
    27  C    4.308307   7.214954   5.772599   5.778230   3.828839
    28  C    5.079917   8.244709   6.629901   6.608513   4.433387
    29  H    3.915489   7.185687   6.341368   5.189469   3.937639
    30  H    2.717108   5.143833   4.460157   3.946954   3.003104
    31  H    5.727926   9.092983   7.568194   7.199391   5.140352
    32  H    4.980726   7.579337   6.059170   6.364830   4.448099
    33  H    6.142245   9.266578   7.460171   7.673340   5.354201
    34  C    2.454989   4.975201   5.729065   2.713943   3.928688
    35  C    3.638540   5.942583   6.982966   3.504733   5.072766
    36  C    2.960599   4.884199   5.883319   2.934438   4.400587
    37  C    4.800727   6.699448   8.134405   4.291113   6.300892
    38  C    4.308225   5.772687   7.214498   3.829258   5.777881
    39  C    5.079964   6.630318   8.244431   4.434026   6.608212
    40  H    3.915730   6.342005   7.185898   3.938185   5.189443
    41  H    2.716775   4.459668   5.143164   3.003015   3.946598
    42  H    5.728150   7.568997   9.093032   5.141156   7.199224
    43  H    4.980543   6.059035   7.578674   4.448385   6.364396
    44  H    6.142294   7.460628   9.266275   5.354855   7.673021
                   21         22         23         24         25
    21  H    0.000000
    22  N    8.644386   0.000000
    23  C    9.129725   1.418232   0.000000
    24  C   10.292356   2.445260   1.398638   0.000000
    25  C    8.679765   2.445474   1.398682   2.410809   0.000000
    26  C   10.967747   3.716251   2.417952   1.389417   2.778420
    27  C    9.466551   3.716384   2.417986   2.778474   1.389381
    28  C   10.594466   4.220786   2.802554   2.415443   2.415413
    29  H   10.789402   2.666113   2.153097   1.088722   3.396633
    30  H    7.875671   2.666461   2.153147   3.396628   1.088720
    31  H   11.919757   4.588275   3.400704   2.145094   3.867936
    32  H    9.345390   4.588504   3.400772   3.867991   2.145116
    33  H   11.300651   5.309641   3.891409   3.402693   3.402651
    34  C    9.690060   1.418231   2.455576   2.959209   3.639463
    35  C   10.844886   2.445220   2.959322   3.185957   4.008067
    36  C    9.762061   2.445506   3.639334   4.007753   4.859858
    37  C   11.928629   3.716221   4.306703   4.324615   5.389871
    38  C   10.950484   3.716418   4.800771   4.966828   6.048683
    39  C   11.984347   4.220795   5.079100   5.105831   6.279291
    40  H   10.991045   2.666007   2.714408   2.948621   3.495953
    41  H    9.007880   2.666539   3.917223   4.379800   5.066543
    42  H   12.838143   4.588245   4.978361   4.889349   5.942411
    43  H   11.175117   4.588534   5.728363   5.875899   6.984897
    44  H   12.929878   5.309649   6.141214   6.085485   7.337544
                   26         27         28         29         30
    26  C    0.000000
    27  C    2.401480   0.000000
    28  C    1.391780   1.391816   0.000000
    29  H    2.154922   3.867172   3.402631   0.000000
    30  H    3.867111   2.154856   3.402588   4.293917   0.000000
    31  H    1.089544   3.392171   2.155053   2.473251   4.956622
    32  H    3.392148   1.089547   2.155058   4.956687   2.473244
    33  H    2.157625   2.157633   1.088855   4.302587   4.302522
    34  C    4.306649   4.800867   5.079118   2.714211   3.917402
    35  C    4.324734   4.967158   5.106074   2.948445   4.380153
    36  C    5.389575   6.048603   6.279085   3.495540   5.066648
    37  C    5.400698   6.291480   6.303244   3.842624   5.756771
    38  C    6.291174   7.175689   7.288551   4.286072   6.290813
    39  C    6.303070   7.288720   7.307050   4.438680   6.591671
    40  H    3.842970   4.286572   4.439145   3.023833   3.921332
    41  H    5.756384   6.290600   6.591338   3.920944   5.190573
    42  H    5.776547   6.698895   6.631626   4.466830   6.339709
    43  H    7.205580   8.133473   8.238787   5.131758   7.191951
    44  H    7.224642   8.309521   8.267506   5.360191   7.655466
                   31         32         33         34         35
    31  H    0.000000
    32  H    4.297220   0.000000
    33  H    2.488511   2.488467   0.000000
    34  C    4.978249   5.728507   6.141234   0.000000
    35  C    4.889393   5.876284   6.085734   1.398652   0.000000
    36  C    5.942023   6.984883   7.337333   1.398656   2.410795
    37  C    5.776438   7.205975   7.224828   2.417961   1.389409
    38  C    6.698454   8.133559   8.309344   2.417980   2.778458
    39  C    6.631313   8.239053   8.267507   2.802565   2.415443
    40  H    4.467124   5.132291   5.360662   2.153086   1.088716
    41  H    6.339234   7.191795   7.655120   2.153134   3.396627
    42  H    6.063764   7.566613   7.461434   3.400725   2.145103
    43  H    7.566070   9.093727   9.259469   3.400754   3.867983
    44  H    7.461097   9.259751   9.191953   3.891419   3.402676
                   36         37         38         39         40
    36  C    0.000000
    37  C    2.778415   0.000000
    38  C    1.389401   2.401465   0.000000
    39  C    2.415423   1.391787   1.391801   0.000000
    40  H    3.396599   2.154927   3.867150   3.402636   0.000000
    41  H    1.088724   3.867109   2.154869   3.402592   4.293893
    42  H    3.867934   1.089546   3.392149   2.155045   2.473289
    43  H    2.145115   3.392154   1.089554   2.155069   4.956671
    44  H    3.402680   2.157607   2.157649   1.088854   4.302574
                   41         42         43         44
    41  H    0.000000
    42  H    4.956623   0.000000
    43  H    2.473219   4.297221   0.000000
    44  H    4.302550   2.488457   2.488530   0.000000
 Stoichiometry    C24H19N
 Framework group  C1[X(C24H19N)]
 Deg. of freedom   126
 Full point group                 C1      NOp   1
 Largest Abelian subgroup         C1      NOp   1
 Largest concise Abelian subgroup C1      NOp   1
                         Standard orientation:                         
 ---------------------------------------------------------------------
 Center     Atomic      Atomic             Coordinates (Angstroms)
 Number     Number       Type             X           Y           Z
 ---------------------------------------------------------------------
      1          6           0       -6.129184    1.201496    0.030856
      2          6           0       -6.830271    0.000001   -0.000182
      3          6           0       -4.738958    1.200713    0.032197
      4          6           0       -6.129235   -1.201473   -0.031153
      5          6           0       -4.021751   -0.000032   -0.000031
      6          6           0       -4.738962   -1.200719   -0.032361
      7          1           0       -7.919539    0.000045   -0.000190
      8          1           0       -4.198073    2.145454    0.081149
      9          1           0       -6.668779   -2.147537   -0.063412
     10          1           0       -4.198148   -2.145504   -0.081256
     11          6           0       -2.536892   -0.000014    0.000063
     12          6           0       -1.813363   -0.924286    0.760077
     13          6           0       -1.813258    0.924290   -0.759786
     14          6           0       -0.426027   -0.922473    0.771159
     15          6           0       -0.425899    0.922498   -0.770636
     16          6           0        0.288344    0.000018    0.000311
     17          1           0       -2.347573   -1.638662    1.386050
     18          1           0       -2.347350    1.638674   -1.385851
     19          1           0        0.115370   -1.638494    1.387158
     20          1           0        0.115571    1.638578   -1.386504
     21          1           0       -6.668762    2.147543    0.063006
     22          7           0        1.704382   -0.000003    0.000499
     23          6           0        2.414266    1.227770   -0.004035
     24          6           0        3.559402    1.382015   -0.792108
     25          6           0        1.979956    2.301413    0.780170
     26          6           0        4.257371    2.583383   -0.786193
     27          6           0        2.673527    3.505213    0.765830
     28          6           0        3.817854    3.653503   -0.012423
     29          1           0        3.900046    0.551242   -1.407814
     30          1           0        1.092486    2.185578    1.400082
     31          1           0        5.147916    2.686607   -1.405370
     32          1           0        2.321511    4.331764    1.382280
     33          1           0        4.363183    4.595952   -0.015664
     34          6           0        2.414241   -1.227791    0.004406
     35          6           0        3.559682   -1.382189    0.792032
     36          6           0        1.979686   -2.301249   -0.779869
     37          6           0        4.257673   -2.583532    0.785597
     38          6           0        2.673287   -3.505060   -0.766028
     39          6           0        3.817885   -3.653507    0.011769
     40          1           0        3.900521   -0.551523    1.407763
     41          1           0        1.092008   -2.185299   -1.399468
     42          1           0        5.148466   -2.686887    1.404399
     43          1           0        2.321010   -4.331477   -1.382521
     44          1           0        4.363223   -4.595951    0.014691
 ---------------------------------------------------------------------
 Rotational constants (GHZ):           0.3772696           0.1165367           0.0926339
 Leave Link  202 at Sun Jan 17 14:21:24 2021, MaxMem=  4026531840 cpu:               0.3 elap:               0.1
 (Enter /opt/ohpc/pub/libs/gaussian/g16-A.03/sandybridge/g16/l301.exe)
 Standard basis: TZVP (5D, 7F)
 Ernie: Thresh=  0.10000D-02 Tol=  0.10000D-05 Strict=F.
 There are   614 symmetry adapted cartesian basis functions of A   symmetry.
 There are   589 symmetry adapted basis functions of A   symmetry.
   589 basis functions,  1027 primitive gaussians,   614 cartesian basis functions
    85 alpha electrons       85 beta electrons
       nuclear repulsion energy      1905.4959532784 Hartrees.
 IExCor=33909 DFT=T Ex+Corr=LC-wHPBE ExCW=0 ScaHFX=  1.000000
 ScaDFX=  1.000000  1.000000  1.000000  1.000000 ScalE2=  1.000000  1.000000
 IRadAn=      5 IRanWt=     -1 IRanGd=            0 ICorTp=0 IEmpDi=  4
 HFx  wShort=  0.000000 wLong=  0.182000 cFull=  0.000000 cShort=  0.000000 cLong=  1.000000
 DFx  wShort=  0.000000 wLong=  0.182000 cFull=  0.000000 cShort=  1.000000 cLong=  0.000000
 NAtoms=   44 NActive=   44 NUniq=   44 SFac= 1.00D+00 NAtFMM=   60 NAOKFM=F Big=F
 Integral buffers will be    131072 words long.
 Raffenetti 2 integral format.
 Two-electron integral symmetry is turned on.
 Leave Link  301 at Sun Jan 17 14:21:24 2021, MaxMem=  4026531840 cpu:               0.4 elap:               0.1
 (Enter /opt/ohpc/pub/libs/gaussian/g16-A.03/sandybridge/g16/l302.exe)
 NPDir=0 NMtPBC=     1 NCelOv=     1 NCel=       1 NClECP=     1 NCelD=      1
         NCelK=      1 NCelE2=     1 NClLst=     1 CellRange=     0.0.
 One-electron integrals computed using PRISM.
 One-electron integral symmetry used in STVInt
 NBasis=   589 RedAO= T EigKep=  7.25D-06  NBF=   589
 NBsUse=   589 1.00D-06 EigRej= -1.00D+00 NBFU=   589
 Precomputing XC quadrature grid using
 IXCGrd= 4 IRadAn=           5 IRanWt=          -1 IRanGd=           0 AccXCQ= 0.00D+00.
 Generated NRdTot=       0 NPtTot=           0 NUsed=           0 NTot=          32
 NSgBfM=   586   586   586   586   586 MxSgAt=    44 MxSgA2=    44.
 Leave Link  302 at Sun Jan 17 14:21:25 2021, MaxMem=  4026531840 cpu:               8.3 elap:               1.1
 (Enter /opt/ohpc/pub/libs/gaussian/g16-A.03/sandybridge/g16/l303.exe)
 DipDrv:  MaxL=1.
 Leave Link  303 at Sun Jan 17 14:21:26 2021, MaxMem=  4026531840 cpu:               0.8 elap:               0.2
 (Enter /opt/ohpc/pub/libs/gaussian/g16-A.03/sandybridge/g16/l401.exe)
 ExpMin= 9.52D-02 ExpMax= 1.97D+04 ExpMxC= 6.73D+02 IAcc=3 IRadAn=         5 AccDes= 0.00D+00
 Harris functional with IExCor=33909 and IRadAn=       5 diagonalized for initial guess.
 HarFok:  IExCor=33909 AccDes= 0.00D+00 IRadAn=         5 IDoV= 1 UseB2=F ITyADJ=14
 ICtDFT=  3500011 ScaDFX=  1.000000  1.000000  1.000000  1.000000
 FoFCou: FMM=F IPFlag=           0 FMFlag=      100000 FMFlg1=           0
         NFxFlg=           0 DoJE=T BraDBF=F KetDBF=T FulRan=T
         wScrn=  0.000000 ICntrl=       500 IOpCl=  0 I1Cent=   200000004 NGrid=           0
         NMat0=    1 NMatS0=      1 NMatT0=    0 NMatD0=    1 NMtDS0=    0 NMtDT0=    0
 Petite list used in FoFCou.
 Harris En= -963.640164229957    
 JPrj=0 DoOrth=F DoCkMO=F.
 Leave Link  401 at Sun Jan 17 14:21:32 2021, MaxMem=  4026531840 cpu:              48.6 elap:               6.1
 (Enter /opt/ohpc/pub/libs/gaussian/g16-A.03/sandybridge/g16/l502.exe)
 Integral symmetry usage will be decided dynamically.
 Closed shell SCF:
 Using DIIS extrapolation, IDIIS=    10.
 NGot=  4026531840 LenX=  4025766914 LenY=  4025389304
 Requested convergence on RMS density matrix=1.00D-06 within  32 cycles.
 Requested convergence on MAX density matrix=1.00D-04.
 Requested convergence on             energy=1.00D-04.
 Virtual orbitals will be shifted by   0.500 hartree.
 No special actions if energy rises.
 Dynamic level shift is on during FON iterations.

 Cycle   1  Pass 1  IDiag  1:
 FoFJK:  IHMeth= 1 ICntrl=       0 DoSepK=T KAlg= 0 I1Cent=           0 FoldK=F
 IRaf=         1 NMat=       1 IRICut=       1 DoRegI=T DoRafI=F ISym2E= 0 IDoP0=0 IntGTp=1.
 FoFCou: FMM=F IPFlag=           0 FMFlag=      100000 FMFlg1=           0
         NFxFlg=           0 DoJE=T BraDBF=F KetDBF=F FulRan=T
         wScrn=  0.000000 ICntrl=       500 IOpCl=  0 I1Cent=           0 NGrid=           0
         NMat0=    1 NMatS0=      1 NMatT0=    0 NMatD0=    1 NMtDS0=    0 NMtDT0=    0
 Symmetry not used in FoFCou.
 E= -979.668966770614    
 DIIS: error= 3.37D-02 at cycle   1 NSaved=   1.
 NSaved= 1 IEnMin= 1 EnMin= -979.668966770614     IErMin= 1 ErrMin= 3.37D-02
 ErrMax= 3.37D-02  0.00D+00 EMaxC= 1.00D+00 BMatC= 4.13D-01 BMatP= 4.13D-01
 IDIUse=1 WtCom= 1.00D+00 WtEn= 0.00D+00
 Coeff-Com:  0.100D+01
 Coeff:      0.100D+01
 Gap=     0.295 Goal=   None    Shift=    0.500
 T= 1565. Gap= 0.746 NK=0 IS=   86 IE=  589 IFin=   85
          NO(<0.9)=   0  NV(>0.1)=   0     85.00e < EF      0.00e >EF  Err=0.0D+00
 GapD=    0.295 DampG=1.000 DampE=0.500 DampFc=0.5000 IDamp=-1.
 Damping current iteration by 5.00D-01
 RMSDP=2.37D-03 MaxDP=9.41D-02              OVMax= 7.88D-02

 Cycle   2  Pass 1  IDiag  1:
 E= -979.933340951542     Delta-E=       -0.264374180927 Rises=F Damp=T
 DIIS: error= 1.56D-02 at cycle   2 NSaved=   2.
 NSaved= 2 IEnMin= 2 EnMin= -979.933340951542     IErMin= 2 ErrMin= 1.56D-02
 ErrMax= 1.56D-02  0.00D+00 EMaxC= 1.00D+00 BMatC= 7.18D-02 BMatP= 4.13D-01
 IDIUse=1 WtCom= 1.00D+00 WtEn= 0.00D+00
 Coeff-Com: -0.572D+00 0.157D+01
 Coeff:     -0.572D+00 0.157D+01
 Gap=     0.274 Goal=   None    Shift=    0.500
 T= 1447. Gap= 0.743 NK=0 IS=   86 IE=  589 IFin=   85
          NO(<0.9)=   0  NV(>0.1)=   0     85.00e < EF      0.00e >EF  Err=0.0D+00
 GapD=    0.274 DampG=1.000 DampE=0.500 DampFc=0.5000 IDamp=-1.
 Damping current iteration by 5.00D-01
 RMSDP=1.37D-03 MaxDP=6.56D-02 DE=-2.64D-01 OVMax= 2.03D-02

 Cycle   3  Pass 1  IDiag  1:
 E= -980.024476709097     Delta-E=       -0.091135757555 Rises=F Damp=T
 DIIS: error= 7.25D-03 at cycle   3 NSaved=   3.
 NSaved= 3 IEnMin= 3 EnMin= -980.024476709097     IErMin= 3 ErrMin= 7.25D-03
 ErrMax= 7.25D-03  0.00D+00 EMaxC= 1.00D+00 BMatC= 1.39D-02 BMatP= 7.18D-02
 IDIUse=1 WtCom= 1.00D+00 WtEn= 0.00D+00
 Coeff-Com:  0.431D-01-0.858D+00 0.182D+01
 Coeff:      0.431D-01-0.858D+00 0.182D+01
 Gap=     0.259 Goal=   None    Shift=    0.500
 T= 1217. Gap= 0.757 NK=0 IS=   86 IE=  589 IFin=   85
          NO(<0.9)=   0  NV(>0.1)=   0     85.00e < EF      0.00e >EF  Err=0.0D+00
 GapD=    0.259 DampG=1.000 DampE=1.000 DampFc=1.0000 IDamp=-1.
 RMSDP=7.33D-04 MaxDP=3.86D-02 DE=-9.11D-02 OVMax= 1.15D-02

 Cycle   4  Pass 1  IDiag  1:
 E= -980.099960375252     Delta-E=       -0.075483666156 Rises=F Damp=F
 DIIS: error= 1.13D-03 at cycle   4 NSaved=   4.
 NSaved= 4 IEnMin= 4 EnMin= -980.099960375252     IErMin= 4 ErrMin= 1.13D-03
 ErrMax= 1.13D-03  0.00D+00 EMaxC= 1.00D+00 BMatC= 5.82D-04 BMatP= 1.39D-02
 IDIUse=1 WtCom= 1.00D+00 WtEn= 0.00D+00
 Coeff-Com:  0.802D-01-0.243D+00 0.236D+00 0.926D+00
 Coeff:      0.802D-01-0.243D+00 0.236D+00 0.926D+00
 Gap=     0.254 Goal=   None    Shift=    0.500
 T=  702. Gap= 0.754 NK=0 IS=   86 IE=  589 IFin=   85
          NO(<0.9)=   0  NV(>0.1)=   0     85.00e < EF      0.00e >EF  Err=0.0D+00
 GapD=    0.254 DampG=1.000 DampE=1.000 DampFc=1.0000 IDamp=-1.
 RMSDP=1.70D-04 MaxDP=7.52D-03 DE=-7.55D-02 OVMax= 5.60D-03

 Cycle   5  Pass 1  IDiag  1:
 E= -980.100591961196     Delta-E=       -0.000631585944 Rises=F Damp=F
 DIIS: error= 4.76D-04 at cycle   5 NSaved=   5.
 NSaved= 5 IEnMin= 5 EnMin= -980.100591961196     IErMin= 5 ErrMin= 4.76D-04
 ErrMax= 4.76D-04  0.00D+00 EMaxC= 1.00D+00 BMatC= 8.63D-05 BMatP= 5.82D-04
 IDIUse=1 WtCom= 1.00D+00 WtEn= 0.00D+00
 Coeff-Com:  0.168D-01-0.960D-03-0.670D-01-0.186D+00 0.124D+01
 Coeff:      0.168D-01-0.960D-03-0.670D-01-0.186D+00 0.124D+01
 Gap=     0.254 Goal=   None    Shift=    0.500
 RMSDP=1.25D-04 MaxDP=5.27D-03 DE=-6.32D-04 OVMax= 4.40D-03

 Cycle   6  Pass 1  IDiag  1:
 E= -980.100754408770     Delta-E=       -0.000162447574 Rises=F Damp=F
 DIIS: error= 4.43D-04 at cycle   6 NSaved=   6.
 NSaved= 6 IEnMin= 6 EnMin= -980.100754408770     IErMin= 6 ErrMin= 4.43D-04
 ErrMax= 4.43D-04  0.00D+00 EMaxC= 1.00D+00 BMatC= 1.81D-05 BMatP= 8.63D-05
 IDIUse=1 WtCom= 1.00D+00 WtEn= 0.00D+00
 Coeff-Com: -0.105D-01 0.436D-01-0.599D-01-0.234D+00 0.850D-01 0.118D+01
 Coeff:     -0.105D-01 0.436D-01-0.599D-01-0.234D+00 0.850D-01 0.118D+01
 Gap=     0.254 Goal=   None    Shift=    0.500
 RMSDP=7.59D-05 MaxDP=3.51D-03 DE=-1.62D-04 OVMax= 3.70D-03

 Cycle   7  Pass 1  IDiag  1:
 E= -980.100812093107     Delta-E=       -0.000057684337 Rises=F Damp=F
 DIIS: error= 3.07D-04 at cycle   7 NSaved=   7.
 NSaved= 7 IEnMin= 7 EnMin= -980.100812093107     IErMin= 7 ErrMin= 3.07D-04
 ErrMax= 3.07D-04  0.00D+00 EMaxC= 1.00D+00 BMatC= 5.76D-06 BMatP= 1.81D-05
 IDIUse=1 WtCom= 1.00D+00 WtEn= 0.00D+00
 Coeff-Com: -0.625D-02 0.593D-02 0.819D-02 0.307D-01-0.342D+00-0.456D+00
 Coeff-Com:  0.176D+01
 Coeff:     -0.625D-02 0.593D-02 0.819D-02 0.307D-01-0.342D+00-0.456D+00
 Coeff:      0.176D+01
 Gap=     0.254 Goal=   None    Shift=    0.500
 RMSDP=4.36D-05 MaxDP=1.95D-03 DE=-5.77D-05 OVMax= 2.92D-03

 Cycle   8  Pass 1  IDiag  1:
 E= -980.100838663175     Delta-E=       -0.000026570068 Rises=F Damp=F
 DIIS: error= 2.16D-04 at cycle   8 NSaved=   8.
 NSaved= 8 IEnMin= 8 EnMin= -980.100838663175     IErMin= 8 ErrMin= 2.16D-04
 ErrMax= 2.16D-04  0.00D+00 EMaxC= 1.00D+00 BMatC= 2.39D-06 BMatP= 5.76D-06
 IDIUse=1 WtCom= 1.00D+00 WtEn= 0.00D+00
 Coeff-Com:  0.231D-02-0.757D-02 0.747D-02 0.808D-01-0.521D-01-0.441D+00
 Coeff-Com: -0.674D+00 0.208D+01
 Coeff:      0.231D-02-0.757D-02 0.747D-02 0.808D-01-0.521D-01-0.441D+00
 Coeff:     -0.674D+00 0.208D+01
 Gap=     0.254 Goal=   None    Shift=    0.500
 RMSDP=2.06D-05 MaxDP=8.79D-04 DE=-2.66D-05 OVMax= 2.20D-03

 Cycle   9  Pass 1  IDiag  1:
 E= -980.100851160916     Delta-E=       -0.000012497740 Rises=F Damp=F
 DIIS: error= 1.50D-04 at cycle   9 NSaved=   9.
 NSaved= 9 IEnMin= 9 EnMin= -980.100851160916     IErMin= 9 ErrMin= 1.50D-04
 ErrMax= 1.50D-04  0.00D+00 EMaxC= 1.00D+00 BMatC= 1.08D-06 BMatP= 2.39D-06
 IDIUse=1 WtCom= 1.00D+00 WtEn= 0.00D+00
 Coeff-Com:  0.217D-02 0.131D-02-0.967D-02 0.375D-01 0.968D-01-0.118D+00
 Coeff-Com: -0.926D+00 0.356D+00 0.156D+01
 Coeff:      0.217D-02 0.131D-02-0.967D-02 0.375D-01 0.968D-01-0.118D+00
 Coeff:     -0.926D+00 0.356D+00 0.156D+01
 Gap=     0.254 Goal=   None    Shift=    0.500
 RMSDP=9.03D-06 MaxDP=3.72D-04 DE=-1.25D-05 OVMax= 1.55D-03

 Cycle  10  Pass 1  IDiag  1:
 E= -980.100856775612     Delta-E=       -0.000005614696 Rises=F Damp=F
 DIIS: error= 9.91D-05 at cycle  10 NSaved=  10.
 NSaved=10 IEnMin=10 EnMin= -980.100856775612     IErMin=10 ErrMin= 9.91D-05
 ErrMax= 9.91D-05  0.00D+00 EMaxC= 1.00D+00 BMatC= 4.94D-07 BMatP= 1.08D-06
 IDIUse=1 WtCom= 1.00D+00 WtEn= 0.00D+00
 Coeff-Com: -0.681D-03 0.866D-02-0.146D-01-0.393D-02 0.684D-01 0.761D-01
 Coeff-Com: -0.141D+00-0.713D+00-0.234D+00 0.195D+01
 Coeff:     -0.681D-03 0.866D-02-0.146D-01-0.393D-02 0.684D-01 0.761D-01
 Coeff:     -0.141D+00-0.713D+00-0.234D+00 0.195D+01
 Gap=     0.254 Goal=   None    Shift=    0.500
 RMSDP=4.79D-06 MaxDP=1.40D-04 DE=-5.61D-06 OVMax= 1.09D-03

 Cycle  11  Pass 1  IDiag  1:
 E= -980.100859274234     Delta-E=       -0.000002498621 Rises=F Damp=F
 DIIS: error= 6.81D-05 at cycle  11 NSaved=  11.
 NSaved=11 IEnMin=11 EnMin= -980.100859274234     IErMin=11 ErrMin= 6.81D-05
 ErrMax= 6.81D-05  0.00D+00 EMaxC= 1.00D+00 BMatC= 2.30D-07 BMatP= 4.94D-07
 IDIUse=1 WtCom= 1.00D+00 WtEn= 0.00D+00
 Coeff-Com: -0.104D-02 0.447D-02-0.508D-02-0.190D-02-0.971D-02 0.353D-01
 Coeff-Com:  0.189D+00-0.239D+00-0.747D+00-0.222D+00 0.200D+01
 Coeff:     -0.104D-02 0.447D-02-0.508D-02-0.190D-02-0.971D-02 0.353D-01
 Coeff:      0.189D+00-0.239D+00-0.747D+00-0.222D+00 0.200D+01
 Gap=     0.254 Goal=   None    Shift=    0.500
 RMSDP=3.04D-06 MaxDP=8.86D-05 DE=-2.50D-06 OVMax= 7.23D-04

 Cycle  12  Pass 1  IDiag  1:
 E= -980.100860339552     Delta-E=       -0.000001065319 Rises=F Damp=F
 DIIS: error= 4.75D-05 at cycle  12 NSaved=  12.
 NSaved=12 IEnMin=12 EnMin= -980.100860339552     IErMin=12 ErrMin= 4.75D-05
 ErrMax= 4.75D-05  0.00D+00 EMaxC= 1.00D+00 BMatC= 1.08D-07 BMatP= 2.30D-07
 IDIUse=1 WtCom= 1.00D+00 WtEn= 0.00D+00
 Coeff-Com: -0.477D-03 0.863D-03 0.637D-04 0.418D-02-0.290D-01-0.594D-02
 Coeff-Com:  0.134D+00 0.157D+00-0.487D+00-0.841D+00 0.571D+00 0.150D+01
 Coeff:     -0.477D-03 0.863D-03 0.637D-04 0.418D-02-0.290D-01-0.594D-02
 Coeff:      0.134D+00 0.157D+00-0.487D+00-0.841D+00 0.571D+00 0.150D+01
 Gap=     0.254 Goal=   None    Shift=    0.500
 RMSDP=1.81D-06 MaxDP=5.46D-05 DE=-1.07D-06 OVMax= 4.79D-04

 Cycle  13  Pass 1  IDiag  1:
 E= -980.100860791309     Delta-E=       -0.000000451757 Rises=F Damp=F
 DIIS: error= 3.26D-05 at cycle  13 NSaved=  13.
 NSaved=13 IEnMin=13 EnMin= -980.100860791309     IErMin=13 ErrMin= 3.26D-05
 ErrMax= 3.26D-05  0.00D+00 EMaxC= 1.00D+00 BMatC= 4.82D-08 BMatP= 1.08D-07
 IDIUse=1 WtCom= 1.00D+00 WtEn= 0.00D+00
 Coeff-Com:  0.215D-03-0.400D-03 0.568D-04 0.446D-02-0.788D-03-0.145D-01
 Coeff-Com: -0.831D-01 0.192D+00 0.143D+00-0.626D-01-0.975D+00-0.749D+00
 Coeff-Com:  0.255D+01
 Coeff:      0.215D-03-0.400D-03 0.568D-04 0.446D-02-0.788D-03-0.145D-01
 Coeff:     -0.831D-01 0.192D+00 0.143D+00-0.626D-01-0.975D+00-0.749D+00
 Coeff:      0.255D+01
 Gap=     0.254 Goal=   None    Shift=    0.500
 RMSDP=1.16D-06 MaxDP=3.46D-05 DE=-4.52D-07 OVMax= 3.11D-04

 Cycle  14  Pass 1  IDiag  1:
 E= -980.100860979509     Delta-E=       -0.000000188200 Rises=F Damp=F
 DIIS: error= 2.24D-05 at cycle  14 NSaved=  14.
 NSaved=14 IEnMin=14 EnMin= -980.100860979509     IErMin=14 ErrMin= 2.24D-05
 ErrMax= 2.24D-05  0.00D+00 EMaxC= 1.00D+00 BMatC= 2.31D-08 BMatP= 4.82D-08
 IDIUse=1 WtCom= 1.00D+00 WtEn= 0.00D+00
 Coeff-Com:  0.224D-03-0.275D-03-0.250D-03 0.276D-02 0.404D-02-0.823D-02
 Coeff-Com: -0.824D-01 0.118D+00 0.193D+00 0.938D-01-0.871D+00-0.824D+00
 Coeff-Com:  0.126D+01 0.111D+01
 Coeff:      0.224D-03-0.275D-03-0.250D-03 0.276D-02 0.404D-02-0.823D-02
 Coeff:     -0.824D-01 0.118D+00 0.193D+00 0.938D-01-0.871D+00-0.824D+00
 Coeff:      0.126D+01 0.111D+01
 Gap=     0.254 Goal=   None    Shift=    0.500
 RMSDP=7.09D-07 MaxDP=2.15D-05 DE=-1.88D-07 OVMax= 2.04D-04

 SCF Done:  E(RLC-wHPBE) =  -980.100860980     A.U. after   14 cycles
            NFock= 14  Conv=0.71D-06     -V/T= 2.0048
 KE= 9.754061350191D+02 PE=-6.086292294913D+03 EE= 2.225289345636D+03
 Leave Link  502 at Sun Jan 17 14:31:05 2021, MaxMem=  4026531840 cpu:            4574.6 elap:             573.4
 (Enter /opt/ohpc/pub/libs/gaussian/g16-A.03/sandybridge/g16/l508.exe)
 QCSCF skips out because SCF is already converged.
 Leave Link  508 at Sun Jan 17 14:31:05 2021, MaxMem=  4026531840 cpu:               0.1 elap:               0.0
 (Enter /opt/ohpc/pub/libs/gaussian/g16-A.03/sandybridge/g16/l601.exe)
 Copying SCF densities to generalized density rwf, IOpCl= 0 IROHF=0.

 **********************************************************************

            Population analysis using the SCF density.

 **********************************************************************

 Orbital symmetries:
       Occupied  (A) (A) (A) (A) (A) (A) (A) (A) (A) (A) (A) (A)
                 (A) (A) (A) (A) (A) (A) (A) (A) (A) (A) (A) (A)
                 (A) (A) (A) (A) (A) (A) (A) (A) (A) (A) (A) (A)
                 (A) (A) (A) (A) (A) (A) (A) (A) (A) (A) (A) (A)
                 (A) (A) (A) (A) (A) (A) (A) (A) (A) (A) (A) (A)
                 (A) (A) (A) (A) (A) (A) (A) (A) (A) (A) (A) (A)
                 (A) (A) (A) (A) (A) (A) (A) (A) (A) (A) (A) (A)
                 (A)
       Virtual   (A) (A) (A) (A) (A) (A) (A) (A) (A) (A) (A) (A)
                 (A) (A) (A) (A) (A) (A) (A) (A) (A) (A) (A) (A)
                 (A) (A) (A) (A) (A) (A) (A) (A) (A) (A) (A) (A)
                 (A) (A) (A) (A) (A) (A) (A) (A) (A) (A) (A) (A)
                 (A) (A) (A) (A) (A) (A) (A) (A) (A) (A) (A) (A)
                 (A) (A) (A) (A) (A) (A) (A) (A) (A) (A) (A) (A)
                 (A) (A) (A) (A) (A) (A) (A) (A) (A) (A) (A) (A)
                 (A) (A) (A) (A) (A) (A) (A) (A) (A) (A) (A) (A)
                 (A) (A) (A) (A) (A) (A) (A) (A) (A) (A) (A) (A)
                 (A) (A) (A) (A) (A) (A) (A) (A) (A) (A) (A) (A)
                 (A) (A) (A) (A) (A) (A) (A) (A) (A) (A) (A) (A)
                 (A) (A) (A) (A) (A) (A) (A) (A) (A) (A) (A) (A)
                 (A) (A) (A) (A) (A) (A) (A) (A) (A) (A) (A) (A)
                 (A) (A) (A) (A) (A) (A) (A) (A) (A) (A) (A) (A)
                 (A) (A) (A) (A) (A) (A) (A) (A) (A) (A) (A) (A)
                 (A) (A) (A) (A) (A) (A) (A) (A) (A) (A) (A) (A)
                 (A) (A) (A) (A) (A) (A) (A) (A) (A) (A) (A) (A)
                 (A) (A) (A) (A) (A) (A) (A) (A) (A) (A) (A) (A)
                 (A) (A) (A) (A) (A) (A) (A) (A) (A) (A) (A) (A)
                 (A) (A) (A) (A) (A) (A) (A) (A) (A) (A) (A) (A)
                 (A) (A) (A) (A) (A) (A) (A) (A) (A) (A) (A) (A)
                 (A) (A) (A) (A) (A) (A) (A) (A) (A) (A) (A) (A)
                 (A) (A) (A) (A) (A) (A) (A) (A) (A) (A) (A) (A)
                 (A) (A) (A) (A) (A) (A) (A) (A) (A) (A) (A) (A)
                 (A) (A) (A) (A) (A) (A) (A) (A) (A) (A) (A) (A)
                 (A) (A) (A) (A) (A) (A) (A) (A) (A) (A) (A) (A)
                 (A) (A) (A) (A) (A) (A) (A) (A) (A) (A) (A) (A)
                 (A) (A) (A) (A) (A) (A) (A) (A) (A) (A) (A) (A)
                 (A) (A) (A) (A) (A) (A) (A) (A) (A) (A) (A) (A)
                 (A) (A) (A) (A) (A) (A) (A) (A) (A) (A) (A) (A)
                 (A) (A) (A) (A) (A) (A) (A) (A) (A) (A) (A) (A)
                 (A) (A) (A) (A) (A) (A) (A) (A) (A) (A) (A) (A)
                 (A) (A) (A) (A) (A) (A) (A) (A) (A) (A) (A) (A)
                 (A) (A) (A) (A) (A) (A) (A) (A) (A) (A) (A) (A)
                 (A) (A) (A) (A) (A) (A) (A) (A) (A) (A) (A) (A)
                 (A) (A) (A) (A) (A) (A) (A) (A) (A) (A) (A) (A)
                 (A) (A) (A) (A) (A) (A) (A) (A) (A) (A) (A) (A)
                 (A) (A) (A) (A) (A) (A) (A) (A) (A) (A) (A) (A)
                 (A) (A) (A) (A) (A) (A) (A) (A) (A) (A) (A) (A)
                 (A) (A) (A) (A) (A) (A) (A) (A) (A) (A) (A) (A)
                 (A) (A) (A) (A) (A) (A) (A) (A) (A) (A) (A) (A)
                 (A) (A) (A) (A) (A) (A) (A) (A) (A) (A) (A) (A)
 The electronic state is 1-A.
 Alpha  occ. eigenvalues --  -14.12399 -10.03304 -10.03303 -10.03283 -10.00165
 Alpha  occ. eigenvalues --   -9.99878  -9.99271  -9.99271  -9.99267  -9.99267
 Alpha  occ. eigenvalues --   -9.99258  -9.99255  -9.99088  -9.99084  -9.99035
 Alpha  occ. eigenvalues --   -9.99034  -9.99004  -9.99003  -9.98996  -9.98996
 Alpha  occ. eigenvalues --   -9.98991  -9.98991  -9.98958  -9.98806  -9.98805
 Alpha  occ. eigenvalues --   -0.99704  -0.90198  -0.89198  -0.88592  -0.87180
 Alpha  occ. eigenvalues --   -0.81537  -0.79836  -0.78701  -0.78600  -0.78261
 Alpha  occ. eigenvalues --   -0.77934  -0.77250  -0.74197  -0.68010  -0.67607
 Alpha  occ. eigenvalues --   -0.65908  -0.65139  -0.64816  -0.63679  -0.63213
 Alpha  occ. eigenvalues --   -0.61593  -0.58934  -0.58791  -0.57315  -0.54639
 Alpha  occ. eigenvalues --   -0.53262  -0.52417  -0.52287  -0.50880  -0.50315
 Alpha  occ. eigenvalues --   -0.49408  -0.49163  -0.48952  -0.48278  -0.48035
 Alpha  occ. eigenvalues --   -0.47524  -0.47318  -0.47180  -0.46787  -0.44041
 Alpha  occ. eigenvalues --   -0.43745  -0.43622  -0.43397  -0.42859  -0.41531
 Alpha  occ. eigenvalues --   -0.40943  -0.40525  -0.39755  -0.39517  -0.38998
 Alpha  occ. eigenvalues --   -0.38787  -0.37046  -0.33989  -0.32760  -0.32731
 Alpha  occ. eigenvalues --   -0.31827  -0.31680  -0.31550  -0.30030  -0.24427
 Alpha virt. eigenvalues --    0.01017   0.02175   0.02571   0.03814   0.04519
 Alpha virt. eigenvalues --    0.04573   0.05122   0.08080   0.10197   0.10946
 Alpha virt. eigenvalues --    0.11108   0.11884   0.12827   0.13411   0.13885
 Alpha virt. eigenvalues --    0.13981   0.14415   0.14934   0.15308   0.16328
 Alpha virt. eigenvalues --    0.16420   0.16463   0.16758   0.17345   0.17519
 Alpha virt. eigenvalues --    0.18180   0.18182   0.18667   0.18968   0.20347
 Alpha virt. eigenvalues --    0.20443   0.21177   0.21701   0.23363   0.24310
 Alpha virt. eigenvalues --    0.24376   0.24526   0.25314   0.25329   0.25904
 Alpha virt. eigenvalues --    0.26175   0.26343   0.27030   0.27194   0.27687
 Alpha virt. eigenvalues --    0.27826   0.28151   0.28614   0.28818   0.29160
 Alpha virt. eigenvalues --    0.29163   0.29428   0.29671   0.29830   0.30258
 Alpha virt. eigenvalues --    0.30643   0.30848   0.31100   0.32002   0.32041
 Alpha virt. eigenvalues --    0.32812   0.32976   0.33197   0.33566   0.33588
 Alpha virt. eigenvalues --    0.34531   0.34646   0.35577   0.36030   0.36408
 Alpha virt. eigenvalues --    0.36862   0.37617   0.37901   0.38009   0.38103
 Alpha virt. eigenvalues --    0.38959   0.39362   0.39415   0.40277   0.40553
 Alpha virt. eigenvalues --    0.41694   0.41708   0.42058   0.42413   0.43037
 Alpha virt. eigenvalues --    0.43214   0.43641   0.43659   0.43717   0.44142
 Alpha virt. eigenvalues --    0.44454   0.44482   0.45220   0.45422   0.46049
 Alpha virt. eigenvalues --    0.46257   0.46533   0.47331   0.47736   0.47746
 Alpha virt. eigenvalues --    0.47951   0.48095   0.48347   0.48519   0.48723
 Alpha virt. eigenvalues --    0.49524   0.49639   0.49811   0.50365   0.50876
 Alpha virt. eigenvalues --    0.51067   0.51941   0.52224   0.52239   0.53440
 Alpha virt. eigenvalues --    0.53522   0.54052   0.54510   0.54906   0.55169
 Alpha virt. eigenvalues --    0.55253   0.55364   0.55696   0.56381   0.56408
 Alpha virt. eigenvalues --    0.56669   0.57307   0.57959   0.58440   0.59160
 Alpha virt. eigenvalues --    0.60108   0.60745   0.60835   0.61282   0.62545
 Alpha virt. eigenvalues --    0.63114   0.63231   0.65172   0.66164   0.66295
 Alpha virt. eigenvalues --    0.66955   0.67835   0.68126   0.68705   0.70897
 Alpha virt. eigenvalues --    0.71231   0.71750   0.72200   0.72650   0.73615
 Alpha virt. eigenvalues --    0.74297   0.74353   0.74420   0.74714   0.75091
 Alpha virt. eigenvalues --    0.75470   0.75536   0.76987   0.77400   0.77955
 Alpha virt. eigenvalues --    0.78189   0.80924   0.81151   0.81261   0.81615
 Alpha virt. eigenvalues --    0.81991   0.83146   0.84755   0.86755   0.87670
 Alpha virt. eigenvalues --    0.89813   0.90285   0.90388   0.90870   0.94401
 Alpha virt. eigenvalues --    0.96381   0.96879   0.99463   1.16324   1.18914
 Alpha virt. eigenvalues --    1.19834   1.23339   1.23421   1.24868   1.24945
 Alpha virt. eigenvalues --    1.26623   1.26834   1.27048   1.27525   1.27900
 Alpha virt. eigenvalues --    1.28015   1.29336   1.29666   1.30106   1.30415
 Alpha virt. eigenvalues --    1.30606   1.31024   1.31110   1.31389   1.32085
 Alpha virt. eigenvalues --    1.32115   1.32482   1.33492   1.33616   1.33989
 Alpha virt. eigenvalues --    1.34486   1.34751   1.34838   1.35079   1.35392
 Alpha virt. eigenvalues --    1.35584   1.36724   1.36956   1.37449   1.37460
 Alpha virt. eigenvalues --    1.38196   1.39004   1.39496   1.44578   1.44803
 Alpha virt. eigenvalues --    1.45383   1.45468   1.45887   1.46618   1.46846
 Alpha virt. eigenvalues --    1.47083   1.47124   1.47262   1.47617   1.47683
 Alpha virt. eigenvalues --    1.47844   1.48168   1.48979   1.49497   1.49931
 Alpha virt. eigenvalues --    1.49936   1.50237   1.50592   1.50826   1.50979
 Alpha virt. eigenvalues --    1.51026   1.51463   1.52146   1.52442   1.52777
 Alpha virt. eigenvalues --    1.53205   1.54343   1.54525   1.54722   1.55329
 Alpha virt. eigenvalues --    1.56139   1.56702   1.57100   1.57374   1.57713
 Alpha virt. eigenvalues --    1.57717   1.58059   1.58384   1.58966   1.59170
 Alpha virt. eigenvalues --    1.59587   1.60122   1.60223   1.60730   1.61155
 Alpha virt. eigenvalues --    1.61454   1.61552   1.63129   1.63558   1.64056
 Alpha virt. eigenvalues --    1.65180   1.67594   1.69529   1.69867   1.70068
 Alpha virt. eigenvalues --    1.70277   1.70792   1.73267   1.74262   1.77365
 Alpha virt. eigenvalues --    1.78989   1.79429   1.79449   1.79667   1.79861
 Alpha virt. eigenvalues --    1.79961   1.80820   1.80865   1.81101   1.82026
 Alpha virt. eigenvalues --    1.82212   1.82258   1.83498   1.83623   1.84156
 Alpha virt. eigenvalues --    1.84614   1.84872   1.85359   1.85387   1.87343
 Alpha virt. eigenvalues --    1.88363   1.89856   1.90184   1.90707   1.90918
 Alpha virt. eigenvalues --    1.91171   1.91649   1.91656   1.92804   1.93545
 Alpha virt. eigenvalues --    1.93688   1.93738   1.94416   1.94574   1.94719
 Alpha virt. eigenvalues --    1.95012   1.95255   1.95609   1.95985   1.96214
 Alpha virt. eigenvalues --    1.96223   1.97306   1.97459   1.99438   1.99487
 Alpha virt. eigenvalues --    2.00088   2.00155   2.00839   2.02548   2.02626
 Alpha virt. eigenvalues --    2.03272   2.03369   2.04459   2.05415   2.06236
 Alpha virt. eigenvalues --    2.06771   2.07370   2.10041   2.11183   2.12436
 Alpha virt. eigenvalues --    2.14192   2.14553   2.15165   2.17626   2.21850
 Alpha virt. eigenvalues --    2.22119   2.24588   2.25715   2.26776   2.28460
 Alpha virt. eigenvalues --    2.28934   2.30222   2.31098   2.31777   2.32545
 Alpha virt. eigenvalues --    2.32795   2.33547   2.33727   2.33917   2.33993
 Alpha virt. eigenvalues --    2.34581   2.35523   2.36371   2.36392   2.37126
 Alpha virt. eigenvalues --    2.37270   2.37553   2.38037   2.38041   2.38989
 Alpha virt. eigenvalues --    2.39140   2.39236   2.39416   2.39668   2.40483
 Alpha virt. eigenvalues --    2.40723   2.43639   2.47925   2.48322   2.48861
 Alpha virt. eigenvalues --    2.51751   2.51752   2.52431   2.52530   2.53829
 Alpha virt. eigenvalues --    2.53963   2.54249   2.54807   2.55348   2.55677
 Alpha virt. eigenvalues --    2.57923   2.57944   2.58222   2.61298   2.62559
 Alpha virt. eigenvalues --    2.64659   2.64864   2.65869   2.66298   2.66643
 Alpha virt. eigenvalues --    2.66943   2.66992   2.67607   2.68302   2.68590
 Alpha virt. eigenvalues --    2.69570   2.69942   2.70187   2.70248   2.71981
 Alpha virt. eigenvalues --    2.74004   2.76458   2.76519   2.78219   2.78888
 Alpha virt. eigenvalues --    2.79825   2.80505   2.81515   2.82667   2.83849
 Alpha virt. eigenvalues --    2.84295   2.86002   2.86907   2.87572   2.87573
 Alpha virt. eigenvalues --    2.92375   2.98522   2.99133   3.00062   3.00482
 Alpha virt. eigenvalues --    3.01369   3.03527   3.04174   3.04411   3.05631
 Alpha virt. eigenvalues --    3.05653   3.05732   3.06728   3.07523   3.08709
 Alpha virt. eigenvalues --    3.10078   3.11117   3.12480   3.12835   3.14245
 Alpha virt. eigenvalues --    3.15496   3.16109   3.17068   3.17962   3.19627
 Alpha virt. eigenvalues --    3.20368   3.20551   3.20840   3.21944   3.22899
 Alpha virt. eigenvalues --    3.23629   3.25470   3.26156   3.30155   3.30362
 Alpha virt. eigenvalues --    3.33229   3.34663   3.35359   3.38295   3.39708
 Alpha virt. eigenvalues --    3.41899   3.42617   3.43060   3.47988   3.54462
 Alpha virt. eigenvalues --    3.55666   3.57038   3.59717   3.60580   3.62959
 Alpha virt. eigenvalues --    3.78308   3.84003   3.93112   3.93931  21.09889
 Alpha virt. eigenvalues --   21.20657  21.22409  21.33198  21.62321  21.68104
 Alpha virt. eigenvalues --   21.68419  21.71282  21.73521  21.74333  21.80362
 Alpha virt. eigenvalues --   21.85487  21.90640  21.93256  21.95353  21.95631
 Alpha virt. eigenvalues --   21.97557  21.99139  22.02734  22.03699  22.07748
 Alpha virt. eigenvalues --   22.09502  22.14586  22.15400  32.04648
          Condensed to atoms (all electrons):
               1          2          3          4          5          6
     1  C    5.025264   0.448917   0.367464   0.001235   0.009365  -0.114502
     2  C    0.448917   5.008546  -0.012980   0.448949  -0.085834  -0.012987
     3  C    0.367464  -0.012980   5.225977  -0.114505   0.399417  -0.041703
     4  C    0.001235   0.448949  -0.114505   5.025259   0.009373   0.367440
     5  C    0.009365  -0.085834   0.399417   0.009373   5.421888   0.399430
     6  C   -0.114502  -0.012987  -0.041703   0.367440   0.399430   5.225983
     7  H   -0.063200   0.421527   0.019644  -0.063199  -0.004805   0.019643
     8  H   -0.039558   0.012040   0.403745  -0.002075  -0.056027   0.016438
     9  H    0.014802  -0.062004  -0.000776   0.415530   0.016278  -0.055617
    10  H   -0.002076   0.012040   0.016438  -0.039571  -0.056032   0.403757
    11  C    0.020843   0.006113  -0.083437   0.020841   0.126032  -0.083449
    12  C   -0.001438  -0.000138   0.031727   0.003892  -0.112822  -0.025654
    13  C    0.003886  -0.000135  -0.025642  -0.001442  -0.112818   0.031733
    14  C    0.000210  -0.000022  -0.000662  -0.000068   0.039834   0.000522
    15  C   -0.000069  -0.000022   0.000523   0.000209   0.039836  -0.000659
    16  C   -0.000079   0.000011   0.000750  -0.000079  -0.009703   0.000750
    17  H   -0.000138   0.000017  -0.000032   0.000982  -0.019081   0.003759
    18  H    0.000983   0.000016   0.003757  -0.000137  -0.019080  -0.000034
    19  H    0.000000  -0.000000  -0.000005  -0.000004  -0.000926  -0.000045
    20  H   -0.000004  -0.000000  -0.000045   0.000000  -0.000926  -0.000005
    21  H    0.415528  -0.062006  -0.055615   0.014803   0.016278  -0.000775
    22  N   -0.000000   0.000000   0.000003  -0.000000  -0.000200   0.000003
    23  C    0.000000   0.000000   0.000011  -0.000000  -0.000162   0.000001
    24  C   -0.000000   0.000000   0.000000   0.000000  -0.000001  -0.000000
    25  C    0.000001   0.000000  -0.000010  -0.000000   0.000035   0.000005
    26  C   -0.000000   0.000000   0.000000   0.000000  -0.000000  -0.000000
    27  C    0.000000  -0.000000  -0.000001  -0.000000   0.000007   0.000000
    28  C   -0.000000  -0.000000  -0.000000   0.000000   0.000000  -0.000000
    29  H    0.000000  -0.000000   0.000000  -0.000000   0.000000  -0.000000
    30  H    0.000000   0.000000   0.000009  -0.000000  -0.000084  -0.000002
    31  H    0.000000   0.000000   0.000000  -0.000000  -0.000000   0.000000
    32  H   -0.000000   0.000000  -0.000000  -0.000000  -0.000000   0.000000
    33  H   -0.000000  -0.000000  -0.000000   0.000000   0.000000   0.000000
    34  C   -0.000000   0.000000   0.000001   0.000000  -0.000162   0.000011
    35  C    0.000000   0.000000  -0.000000  -0.000000  -0.000001   0.000000
    36  C   -0.000000   0.000000   0.000005   0.000001   0.000035  -0.000010
    37  C    0.000000   0.000000  -0.000000  -0.000000  -0.000000   0.000000
    38  C   -0.000000  -0.000000   0.000000   0.000000   0.000007  -0.000001
    39  C    0.000000  -0.000000  -0.000000  -0.000000   0.000000  -0.000000
    40  H   -0.000000  -0.000000  -0.000000   0.000000   0.000000   0.000000
    41  H   -0.000000   0.000000  -0.000002   0.000000  -0.000084   0.000009
    42  H   -0.000000   0.000000   0.000000   0.000000  -0.000000   0.000000
    43  H   -0.000000   0.000000   0.000000  -0.000000  -0.000000  -0.000000
    44  H    0.000000  -0.000000   0.000000  -0.000000   0.000000  -0.000000
               7          8          9         10         11         12
     1  C   -0.063200  -0.039558   0.014802  -0.002076   0.020843  -0.001438
     2  C    0.421527   0.012040  -0.062004   0.012040   0.006113  -0.000138
     3  C    0.019644   0.403745  -0.000776   0.016438  -0.083437   0.031727
     4  C   -0.063199  -0.002075   0.415530  -0.039571   0.020841   0.003892
     5  C   -0.004805  -0.056027   0.016278  -0.056032   0.126032  -0.112822
     6  C    0.019643   0.016438  -0.055617   0.403757  -0.083449  -0.025654
     7  H    0.583485  -0.000228  -0.008683  -0.000228  -0.000172  -0.000007
     8  H   -0.000228   0.556381   0.000040  -0.000197  -0.018117  -0.000555
     9  H   -0.008683   0.000040   0.587227  -0.007258  -0.001568   0.000013
    10  H   -0.000228  -0.000197  -0.007258   0.556389  -0.018116   0.006323
    11  C   -0.000172  -0.018117  -0.001568  -0.018116   5.555812   0.343912
    12  C   -0.000007  -0.000555   0.000013   0.006323   0.343912   5.419785
    13  C   -0.000007   0.006324   0.000018  -0.000553   0.343969  -0.004138
    14  C    0.000000  -0.000219  -0.000012   0.000482   0.001630   0.232451
    15  C    0.000000   0.000484  -0.000003  -0.000220   0.001555  -0.154614
    16  C   -0.000000   0.000237   0.000001   0.000238  -0.127050   0.021533
    17  H   -0.000003  -0.000044   0.000014   0.001050  -0.077244   0.406758
    18  H   -0.000003   0.001047   0.000001  -0.000044  -0.077231   0.016260
    19  H    0.000000  -0.000002  -0.000000  -0.000016   0.013038  -0.040145
    20  H    0.000000  -0.000016   0.000000  -0.000002   0.013032   0.001157
    21  H   -0.008682  -0.007259  -0.000259   0.000040  -0.001568   0.000018
    22  N   -0.000000   0.000001   0.000000   0.000001   0.003391   0.019966
    23  C   -0.000000   0.000001  -0.000000   0.000000   0.001971  -0.005398
    24  C    0.000000   0.000000   0.000000  -0.000000   0.000153  -0.000015
    25  C    0.000000   0.000006  -0.000000   0.000000  -0.001839   0.002617
    26  C    0.000000  -0.000000  -0.000000   0.000000   0.000019  -0.000066
    27  C    0.000000  -0.000000   0.000000   0.000000  -0.000129  -0.000045
    28  C   -0.000000   0.000000   0.000000  -0.000000  -0.000005   0.000028
    29  H   -0.000000  -0.000000   0.000000  -0.000000  -0.000006   0.000017
    30  H   -0.000000   0.000001  -0.000000  -0.000000   0.000252   0.000804
    31  H   -0.000000   0.000000  -0.000000   0.000000  -0.000000   0.000000
    32  H    0.000000  -0.000000  -0.000000   0.000000  -0.000004  -0.000001
    33  H   -0.000000   0.000000   0.000000  -0.000000  -0.000000   0.000000
    34  C   -0.000000   0.000000  -0.000000   0.000001   0.001970  -0.003968
    35  C    0.000000  -0.000000  -0.000000   0.000000   0.000153   0.000725
    36  C    0.000000   0.000000   0.000000   0.000006  -0.001843  -0.004386
    37  C    0.000000   0.000000  -0.000000  -0.000000   0.000019   0.000048
    38  C    0.000000   0.000000   0.000000  -0.000000  -0.000129  -0.000317
    39  C   -0.000000  -0.000000   0.000000   0.000000  -0.000005  -0.000060
    40  H   -0.000000  -0.000000   0.000000  -0.000000  -0.000006   0.000013
    41  H   -0.000000  -0.000000  -0.000000   0.000001   0.000252  -0.001770
    42  H   -0.000000   0.000000  -0.000000   0.000000  -0.000000  -0.000001
    43  H    0.000000   0.000000  -0.000000  -0.000000  -0.000004   0.000031
    44  H   -0.000000  -0.000000   0.000000   0.000000  -0.000000  -0.000001
              13         14         15         16         17         18
     1  C    0.003886   0.000210  -0.000069  -0.000079  -0.000138   0.000983
     2  C   -0.000135  -0.000022  -0.000022   0.000011   0.000017   0.000016
     3  C   -0.025642  -0.000662   0.000523   0.000750  -0.000032   0.003757
     4  C   -0.001442  -0.000068   0.000209  -0.000079   0.000982  -0.000137
     5  C   -0.112818   0.039834   0.039836  -0.009703  -0.019081  -0.019080
     6  C    0.031733   0.000522  -0.000659   0.000750   0.003759  -0.000034
     7  H   -0.000007   0.000000   0.000000  -0.000000  -0.000003  -0.000003
     8  H    0.006324  -0.000219   0.000484   0.000237  -0.000044   0.001047
     9  H    0.000018  -0.000012  -0.000003   0.000001   0.000014   0.000001
    10  H   -0.000553   0.000482  -0.000220   0.000238   0.001050  -0.000044
    11  C    0.343969   0.001630   0.001555  -0.127050  -0.077244  -0.077231
    12  C   -0.004138   0.232451  -0.154614   0.021533   0.406758   0.016260
    13  C    5.419717  -0.154626   0.232495   0.021511   0.016262   0.406740
    14  C   -0.154626   5.393210  -0.066597   0.335191  -0.029618  -0.001488
    15  C    0.232495  -0.066597   5.393083   0.335339  -0.001489  -0.029600
    16  C    0.021511   0.335191   0.335339   5.475801   0.018811   0.018805
    17  H    0.016262  -0.029618  -0.001489   0.018811   0.562574  -0.000161
    18  H    0.406740  -0.001488  -0.029600   0.018805  -0.000161   0.562570
    19  H    0.001155   0.401214   0.009538  -0.045893  -0.006762   0.000022
    20  H   -0.040141   0.009537   0.401184  -0.045858   0.000022  -0.006759
    21  H    0.000013  -0.000003  -0.000012   0.000001   0.000001   0.000014
    22  N    0.019980  -0.015210  -0.015319   0.168041  -0.000497  -0.000497
    23  C   -0.003975  -0.004832   0.027798  -0.085534   0.000023  -0.000079
    24  C    0.000725  -0.011264   0.018996  -0.009932   0.000001  -0.000046
    25  C   -0.004398   0.017989  -0.066497   0.028748  -0.000026   0.000131
    26  C    0.000048  -0.000261   0.003264  -0.004911   0.000000  -0.000002
    27  C   -0.000317   0.001502  -0.009432   0.001529  -0.000001   0.000026
    28  C   -0.000060   0.000018  -0.000540   0.002043   0.000000  -0.000002
    29  H    0.000013  -0.000314   0.000423  -0.001473  -0.000000   0.000000
    30  H   -0.001770  -0.001675   0.004624   0.001659   0.000008  -0.000042
    31  H   -0.000001   0.000002  -0.000029   0.000011  -0.000000   0.000000
    32  H    0.000031  -0.000031   0.000022  -0.000182   0.000000   0.000000
    33  H   -0.000001   0.000001  -0.000016   0.000018  -0.000000   0.000000
    34  C   -0.005397   0.027817  -0.004883  -0.085516  -0.000079   0.000023
    35  C   -0.000015   0.018997  -0.011264  -0.009888  -0.000046   0.000001
    36  C    0.002620  -0.066523   0.017999   0.028741   0.000132  -0.000026
    37  C   -0.000066   0.003261  -0.000261  -0.004910  -0.000002   0.000000
    38  C   -0.000045  -0.009439   0.001502   0.001528   0.000026  -0.000001
    39  C    0.000028  -0.000540   0.000018   0.002047  -0.000002   0.000000
    40  H    0.000017   0.000422  -0.000315  -0.001467   0.000000  -0.000000
    41  H    0.000805   0.004623  -0.001673   0.001677  -0.000042   0.000008
    42  H    0.000000  -0.000029   0.000002   0.000011   0.000000  -0.000000
    43  H   -0.000001   0.000022  -0.000031  -0.000182   0.000000   0.000000
    44  H    0.000000  -0.000015   0.000001   0.000018   0.000000  -0.000000
              19         20         21         22         23         24
     1  C    0.000000  -0.000004   0.415528  -0.000000   0.000000  -0.000000
     2  C   -0.000000  -0.000000  -0.062006   0.000000   0.000000   0.000000
     3  C   -0.000005  -0.000045  -0.055615   0.000003   0.000011   0.000000
     4  C   -0.000004   0.000000   0.014803  -0.000000  -0.000000   0.000000
     5  C   -0.000926  -0.000926   0.016278  -0.000200  -0.000162  -0.000001
     6  C   -0.000045  -0.000005  -0.000775   0.000003   0.000001  -0.000000
     7  H    0.000000   0.000000  -0.008682  -0.000000  -0.000000   0.000000
     8  H   -0.000002  -0.000016  -0.007259   0.000001   0.000001   0.000000
     9  H   -0.000000   0.000000  -0.000259   0.000000  -0.000000   0.000000
    10  H   -0.000016  -0.000002   0.000040   0.000001   0.000000  -0.000000
    11  C    0.013038   0.013032  -0.001568   0.003391   0.001971   0.000153
    12  C   -0.040145   0.001157   0.000018   0.019966  -0.005398  -0.000015
    13  C    0.001155  -0.040141   0.000013   0.019980  -0.003975   0.000725
    14  C    0.401214   0.009537  -0.000003  -0.015210  -0.004832  -0.011264
    15  C    0.009538   0.401184  -0.000012  -0.015319   0.027798   0.018996
    16  C   -0.045893  -0.045858   0.000001   0.168041  -0.085534  -0.009932
    17  H   -0.006762   0.000022   0.000001  -0.000497   0.000023   0.000001
    18  H    0.000022  -0.006759   0.000014  -0.000497  -0.000079  -0.000046
    19  H    0.527042  -0.000315   0.000000  -0.006267  -0.000926  -0.000311
    20  H   -0.000315   0.527034  -0.000000  -0.006287   0.002747   0.000071
    21  H    0.000000  -0.000000   0.587228   0.000000  -0.000000  -0.000000
    22  N   -0.006267  -0.006287   0.000000   6.521400   0.163779  -0.009825
    23  C   -0.000926   0.002747  -0.000000   0.163779   5.413362   0.355614
    24  C   -0.000311   0.000071  -0.000000  -0.009825   0.355614   5.256004
    25  C    0.000367   0.001139   0.000000  -0.011240   0.358291  -0.050020
    26  C    0.000014   0.000378  -0.000000   0.013441   0.021485   0.359027
    27  C    0.000008  -0.001882   0.000000   0.013555   0.020059  -0.139791
    28  C   -0.000005   0.000523   0.000000   0.005797  -0.098730  -0.018171
    29  H   -0.000008   0.000036   0.000000  -0.007333  -0.035824   0.397805
    30  H    0.000010   0.001183  -0.000000  -0.007977  -0.034470   0.013290
    31  H   -0.000000   0.000003  -0.000000  -0.000593   0.018188  -0.053195
    32  H   -0.000000  -0.000051  -0.000000  -0.000587   0.018110  -0.002477
    33  H   -0.000000   0.000003   0.000000  -0.000041  -0.008143   0.025146
    34  C    0.002732  -0.000931  -0.000000   0.163798  -0.086907   0.027050
    35  C    0.000071  -0.000310   0.000000  -0.009735   0.027060  -0.057566
    36  C    0.001139   0.000368  -0.000000  -0.011327  -0.005232   0.013361
    37  C    0.000377   0.000014  -0.000000   0.013425  -0.001186  -0.006740
    38  C   -0.001883   0.000008   0.000000   0.013567  -0.005125   0.003646
    39  C    0.000524  -0.000005   0.000000   0.005797   0.002412  -0.000993
    40  H    0.000036  -0.000008   0.000000  -0.007315   0.002743   0.001318
    41  H    0.001183   0.000010  -0.000000  -0.007996  -0.000841   0.000184
    42  H    0.000003  -0.000000  -0.000000  -0.000593  -0.000193   0.000053
    43  H   -0.000051  -0.000000  -0.000000  -0.000587   0.000012  -0.000025
    44  H    0.000003  -0.000000   0.000000  -0.000041   0.000019  -0.000017
              25         26         27         28         29         30
     1  C    0.000001  -0.000000   0.000000  -0.000000   0.000000   0.000000
     2  C    0.000000   0.000000  -0.000000  -0.000000  -0.000000   0.000000
     3  C   -0.000010   0.000000  -0.000001  -0.000000   0.000000   0.000009
     4  C   -0.000000   0.000000  -0.000000   0.000000  -0.000000  -0.000000
     5  C    0.000035  -0.000000   0.000007   0.000000   0.000000  -0.000084
     6  C    0.000005  -0.000000   0.000000  -0.000000  -0.000000  -0.000002
     7  H    0.000000   0.000000   0.000000  -0.000000  -0.000000  -0.000000
     8  H    0.000006  -0.000000  -0.000000   0.000000  -0.000000   0.000001
     9  H   -0.000000  -0.000000   0.000000   0.000000   0.000000  -0.000000
    10  H    0.000000   0.000000   0.000000  -0.000000  -0.000000  -0.000000
    11  C   -0.001839   0.000019  -0.000129  -0.000005  -0.000006   0.000252
    12  C    0.002617  -0.000066  -0.000045   0.000028   0.000017   0.000804
    13  C   -0.004398   0.000048  -0.000317  -0.000060   0.000013  -0.001770
    14  C    0.017989  -0.000261   0.001502   0.000018  -0.000314  -0.001675
    15  C   -0.066497   0.003264  -0.009432  -0.000540   0.000423   0.004624
    16  C    0.028748  -0.004911   0.001529   0.002043  -0.001473   0.001659
    17  H   -0.000026   0.000000  -0.000001   0.000000  -0.000000   0.000008
    18  H    0.000131  -0.000002   0.000026  -0.000002   0.000000  -0.000042
    19  H    0.000367   0.000014   0.000008  -0.000005  -0.000008   0.000010
    20  H    0.001139   0.000378  -0.001882   0.000523   0.000036   0.001183
    21  H    0.000000  -0.000000   0.000000   0.000000   0.000000  -0.000000
    22  N   -0.011240   0.013441   0.013555   0.005797  -0.007333  -0.007977
    23  C    0.358291   0.021485   0.020059  -0.098730  -0.035824  -0.034470
    24  C   -0.050020   0.359027  -0.139791  -0.018171   0.397805   0.013290
    25  C    5.253974  -0.136536   0.356915  -0.019673   0.012925   0.397010
    26  C   -0.136536   5.086237   0.034714   0.427930  -0.043560  -0.001333
    27  C    0.356915   0.034714   5.092957   0.428036  -0.001324  -0.044597
    28  C   -0.019673   0.427930   0.428036   5.054984   0.010286   0.010281
    29  H    0.012925  -0.043560  -0.001324   0.010286   0.524028  -0.000276
    30  H    0.397010  -0.001333  -0.044597   0.010281  -0.000276   0.524504
    31  H   -0.002464   0.416546   0.016910  -0.068174  -0.007457   0.000014
    32  H   -0.053404   0.016903   0.416570  -0.067930   0.000015  -0.007462
    33  H    0.025202  -0.072939  -0.072949   0.432429  -0.000108  -0.000107
    34  C   -0.005192  -0.001192  -0.005126   0.002416   0.002755  -0.000835
    35  C    0.013354  -0.006746   0.003644  -0.000993   0.001318   0.000183
    36  C   -0.008840   0.000740  -0.000263   0.000074  -0.000698  -0.000229
    37  C    0.000740  -0.000574   0.000085  -0.000057  -0.001409  -0.000008
    38  C   -0.000263   0.000085  -0.000056   0.000020   0.000495   0.000016
    39  C    0.000074  -0.000057   0.000020  -0.000011   0.000417  -0.000005
    40  H   -0.000701  -0.001409   0.000494   0.000417   0.000929   0.000033
    41  H   -0.000229  -0.000008   0.000016  -0.000005   0.000033  -0.000009
    42  H   -0.000032   0.000025  -0.000001  -0.000001  -0.000044  -0.000000
    43  H    0.000001  -0.000001   0.000000   0.000000   0.000003  -0.000000
    44  H    0.000001  -0.000001  -0.000000  -0.000000   0.000003   0.000000
              31         32         33         34         35         36
     1  C    0.000000  -0.000000  -0.000000  -0.000000   0.000000  -0.000000
     2  C    0.000000   0.000000  -0.000000   0.000000   0.000000   0.000000
     3  C    0.000000  -0.000000  -0.000000   0.000001  -0.000000   0.000005
     4  C   -0.000000  -0.000000   0.000000   0.000000  -0.000000   0.000001
     5  C   -0.000000  -0.000000   0.000000  -0.000162  -0.000001   0.000035
     6  C    0.000000   0.000000   0.000000   0.000011   0.000000  -0.000010
     7  H   -0.000000   0.000000  -0.000000  -0.000000   0.000000   0.000000
     8  H    0.000000  -0.000000   0.000000   0.000000  -0.000000   0.000000
     9  H   -0.000000  -0.000000   0.000000  -0.000000  -0.000000   0.000000
    10  H    0.000000   0.000000  -0.000000   0.000001   0.000000   0.000006
    11  C   -0.000000  -0.000004  -0.000000   0.001970   0.000153  -0.001843
    12  C    0.000000  -0.000001   0.000000  -0.003968   0.000725  -0.004386
    13  C   -0.000001   0.000031  -0.000001  -0.005397  -0.000015   0.002620
    14  C    0.000002  -0.000031   0.000001   0.027817   0.018997  -0.066523
    15  C   -0.000029   0.000022  -0.000016  -0.004883  -0.011264   0.017999
    16  C    0.000011  -0.000182   0.000018  -0.085516  -0.009888   0.028741
    17  H   -0.000000   0.000000  -0.000000  -0.000079  -0.000046   0.000132
    18  H    0.000000   0.000000   0.000000   0.000023   0.000001  -0.000026
    19  H   -0.000000  -0.000000  -0.000000   0.002732   0.000071   0.001139
    20  H    0.000003  -0.000051   0.000003  -0.000931  -0.000310   0.000368
    21  H   -0.000000  -0.000000   0.000000  -0.000000   0.000000  -0.000000
    22  N   -0.000593  -0.000587  -0.000041   0.163798  -0.009735  -0.011327
    23  C    0.018188   0.018110  -0.008143  -0.086907   0.027060  -0.005232
    24  C   -0.053195  -0.002477   0.025146   0.027050  -0.057566   0.013361
    25  C   -0.002464  -0.053404   0.025202  -0.005192   0.013354  -0.008840
    26  C    0.416546   0.016903  -0.072939  -0.001192  -0.006746   0.000740
    27  C    0.016910   0.416570  -0.072949  -0.005126   0.003644  -0.000263
    28  C   -0.068174  -0.067930   0.432429   0.002416  -0.000993   0.000074
    29  H   -0.007457   0.000015  -0.000108   0.002755   0.001318  -0.000698
    30  H    0.000014  -0.007462  -0.000107  -0.000835   0.000183  -0.000229
    31  H    0.584822  -0.000246  -0.008984  -0.000193   0.000053  -0.000032
    32  H   -0.000246   0.584959  -0.008979   0.000012  -0.000025   0.000001
    33  H   -0.008984  -0.008979   0.585951   0.000019  -0.000017   0.000001
    34  C   -0.000193   0.000012   0.000019   5.413298   0.355508   0.358380
    35  C    0.000053  -0.000025  -0.000017   0.355508   5.256099  -0.050027
    36  C   -0.000032   0.000001   0.000001   0.358380  -0.050027   5.253966
    37  C    0.000025  -0.000001  -0.000001   0.021472   0.359066  -0.136512
    38  C   -0.000001   0.000000  -0.000000   0.020087  -0.139835   0.356883
    39  C   -0.000001   0.000000  -0.000000  -0.098729  -0.018143  -0.019699
    40  H   -0.000044   0.000003   0.000003  -0.035847   0.397812   0.012925
    41  H   -0.000000  -0.000000   0.000000  -0.034446   0.013290   0.396986
    42  H   -0.000000   0.000000  -0.000000   0.018193  -0.053208  -0.002466
    43  H    0.000000  -0.000000  -0.000000   0.018105  -0.002476  -0.053392
    44  H   -0.000000  -0.000000  -0.000000  -0.008143   0.025147   0.025202
              37         38         39         40         41         42
     1  C    0.000000  -0.000000   0.000000  -0.000000  -0.000000  -0.000000
     2  C    0.000000  -0.000000  -0.000000  -0.000000   0.000000   0.000000
     3  C   -0.000000   0.000000  -0.000000  -0.000000  -0.000002   0.000000
     4  C   -0.000000   0.000000  -0.000000   0.000000   0.000000   0.000000
     5  C   -0.000000   0.000007   0.000000   0.000000  -0.000084  -0.000000
     6  C    0.000000  -0.000001  -0.000000   0.000000   0.000009   0.000000
     7  H    0.000000   0.000000  -0.000000  -0.000000  -0.000000  -0.000000
     8  H    0.000000   0.000000  -0.000000  -0.000000  -0.000000   0.000000
     9  H   -0.000000   0.000000   0.000000   0.000000  -0.000000  -0.000000
    10  H   -0.000000  -0.000000   0.000000  -0.000000   0.000001   0.000000
    11  C    0.000019  -0.000129  -0.000005  -0.000006   0.000252  -0.000000
    12  C    0.000048  -0.000317  -0.000060   0.000013  -0.001770  -0.000001
    13  C   -0.000066  -0.000045   0.000028   0.000017   0.000805   0.000000
    14  C    0.003261  -0.009439  -0.000540   0.000422   0.004623  -0.000029
    15  C   -0.000261   0.001502   0.000018  -0.000315  -0.001673   0.000002
    16  C   -0.004910   0.001528   0.002047  -0.001467   0.001677   0.000011
    17  H   -0.000002   0.000026  -0.000002   0.000000  -0.000042   0.000000
    18  H    0.000000  -0.000001   0.000000  -0.000000   0.000008  -0.000000
    19  H    0.000377  -0.001883   0.000524   0.000036   0.001183   0.000003
    20  H    0.000014   0.000008  -0.000005  -0.000008   0.000010  -0.000000
    21  H   -0.000000   0.000000   0.000000   0.000000  -0.000000  -0.000000
    22  N    0.013425   0.013567   0.005797  -0.007315  -0.007996  -0.000593
    23  C   -0.001186  -0.005125   0.002412   0.002743  -0.000841  -0.000193
    24  C   -0.006740   0.003646  -0.000993   0.001318   0.000184   0.000053
    25  C    0.000740  -0.000263   0.000074  -0.000701  -0.000229  -0.000032
    26  C   -0.000574   0.000085  -0.000057  -0.001409  -0.000008   0.000025
    27  C    0.000085  -0.000056   0.000020   0.000494   0.000016  -0.000001
    28  C   -0.000057   0.000020  -0.000011   0.000417  -0.000005  -0.000001
    29  H   -0.001409   0.000495   0.000417   0.000929   0.000033  -0.000044
    30  H   -0.000008   0.000016  -0.000005   0.000033  -0.000009  -0.000000
    31  H    0.000025  -0.000001  -0.000001  -0.000044  -0.000000  -0.000000
    32  H   -0.000001   0.000000   0.000000   0.000003  -0.000000   0.000000
    33  H   -0.000001  -0.000000  -0.000000   0.000003   0.000000  -0.000000
    34  C    0.021472   0.020087  -0.098729  -0.035847  -0.034446   0.018193
    35  C    0.359066  -0.139835  -0.018143   0.397812   0.013290  -0.053208
    36  C   -0.136512   0.356883  -0.019699   0.012925   0.396986  -0.002466
    37  C    5.086186   0.034712   0.427921  -0.043549  -0.001331   0.416559
    38  C    0.034712   5.093005   0.428062  -0.001325  -0.044594   0.016914
    39  C    0.427921   0.428062   5.054960   0.010288   0.010276  -0.068184
    40  H   -0.043549  -0.001325   0.010288   0.524027  -0.000276  -0.007459
    41  H   -0.001331  -0.044594   0.010276  -0.000276   0.524488   0.000014
    42  H    0.416559   0.016914  -0.068184  -0.007459   0.000014   0.584828
    43  H    0.016901   0.416557  -0.067920   0.000015  -0.007460  -0.000246
    44  H   -0.072947  -0.072948   0.432433  -0.000108  -0.000107  -0.008985
              43         44
     1  C   -0.000000   0.000000
     2  C    0.000000  -0.000000
     3  C    0.000000   0.000000
     4  C   -0.000000  -0.000000
     5  C   -0.000000   0.000000
     6  C   -0.000000  -0.000000
     7  H    0.000000  -0.000000
     8  H    0.000000  -0.000000
     9  H   -0.000000   0.000000
    10  H   -0.000000   0.000000
    11  C   -0.000004  -0.000000
    12  C    0.000031  -0.000001
    13  C   -0.000001   0.000000
    14  C    0.000022  -0.000015
    15  C   -0.000031   0.000001
    16  C   -0.000182   0.000018
    17  H    0.000000   0.000000
    18  H    0.000000  -0.000000
    19  H   -0.000051   0.000003
    20  H   -0.000000  -0.000000
    21  H   -0.000000   0.000000
    22  N   -0.000587  -0.000041
    23  C    0.000012   0.000019
    24  C   -0.000025  -0.000017
    25  C    0.000001   0.000001
    26  C   -0.000001  -0.000001
    27  C    0.000000  -0.000000
    28  C    0.000000  -0.000000
    29  H    0.000003   0.000003
    30  H   -0.000000   0.000000
    31  H    0.000000  -0.000000
    32  H   -0.000000  -0.000000
    33  H   -0.000000  -0.000000
    34  C    0.018105  -0.008143
    35  C   -0.002476   0.025147
    36  C   -0.053392   0.025202
    37  C    0.016901  -0.072947
    38  C    0.416557  -0.072948
    39  C   -0.067920   0.432433
    40  H    0.000015  -0.000108
    41  H   -0.007460  -0.000107
    42  H   -0.000246  -0.008985
    43  H    0.584958  -0.008978
    44  H   -0.008978   0.585954
 Mulliken charges:
               1
     1  C   -0.087434
     2  C   -0.122049
     3  C   -0.134058
     4  C   -0.087431
     5  C    0.000933
     6  C   -0.134042
     7  H    0.104918
     8  H    0.127552
     9  H    0.102256
    10  H    0.127546
    11  C    0.036967
    12  C   -0.152539
    13  C   -0.152546
    14  C   -0.125483
    15  C   -0.125351
    16  C   -0.032393
    17  H    0.124829
    18  H    0.124828
    19  H    0.145088
    20  H    0.145097
    21  H    0.102256
    22  N   -0.006478
    23  C   -0.056130
    24  C   -0.112057
    25  C   -0.108163
    26  C   -0.111262
    27  C   -0.111134
    28  C   -0.100926
    29  H    0.148333
    30  H    0.146999
    31  H    0.104843
    32  H    0.104754
    33  H    0.103512
    34  C   -0.056102
    35  C   -0.112188
    36  C   -0.108058
    37  C   -0.111258
    38  C   -0.111160
    39  C   -0.100923
    40  H    0.148332
    41  H    0.147018
    42  H    0.104842
    43  H    0.104751
    44  H    0.103511
 Sum of Mulliken charges =  -0.00000
 Mulliken charges with hydrogens summed into heavy atoms:
               1
     1  C    0.014822
     2  C   -0.017131
     3  C   -0.006506
     4  C    0.014825
     5  C    0.000933
     6  C   -0.006496
    11  C    0.036967
    12  C   -0.027709
    13  C   -0.027718
    14  C    0.019605
    15  C    0.019745
    16  C   -0.032393
    22  N   -0.006478
    23  C   -0.056130
    24  C    0.036276
    25  C    0.038836
    26  C   -0.006420
    27  C   -0.006380
    28  C    0.002586
    34  C   -0.056102
    35  C    0.036144
    36  C    0.038960
    37  C   -0.006417
    38  C   -0.006409
    39  C    0.002588
 Electronic spatial extent (au):  <R**2>=          11114.9082
 Charge=             -0.0000 electrons
 Dipole moment (field-independent basis, Debye):
    X=              0.2420    Y=              0.0002    Z=             -0.0003  Tot=              0.2420
 Quadrupole moment (field-independent basis, Debye-Ang):
   XX=           -134.5179   YY=           -133.2876   ZZ=           -148.5113
   XY=              0.0006   XZ=             -0.0009   YZ=              0.4541
 Traceless Quadrupole moment (field-independent basis, Debye-Ang):
   XX=              4.2544   YY=              5.4847   ZZ=             -9.7390
   XY=              0.0006   XZ=             -0.0009   YZ=              0.4541
 Octapole moment (field-independent basis, Debye-Ang**2):
  XXX=            -34.5123  YYY=              0.0078  ZZZ=              0.0029  XYY=              7.0786
  XXY=             -0.0049  XXZ=             -0.0097  XZZ=             19.2125  YZZ=              0.0023
  YYZ=             -0.0042  XYZ=             -2.3751
 Hexadecapole moment (field-independent basis, Debye-Ang**3):
 XXXX=         -10831.3973 YYYY=          -3333.8748 ZZZZ=           -509.5805 XXXY=             -0.0719
 XXXZ=              0.0146 YYYX=              0.0297 YYYZ=             84.6147 ZZZX=             -0.0134
 ZZZY=              0.2315 XXYY=          -2275.5362 XXZZ=          -2154.2784 YYZZ=           -681.4980
 XXYZ=            -71.4624 YYXZ=             -0.0166 ZZXY=              0.0201
 N-N= 1.905495953278D+03 E-N=-6.086292864156D+03  KE= 9.754061350191D+02
 No NMR shielding tensors so no spin-rotation constants.
 Leave Link  601 at Sun Jan 17 14:31:06 2021, MaxMem=  4026531840 cpu:               3.7 elap:               0.6
 (Enter /opt/ohpc/pub/libs/gaussian/g16-A.03/sandybridge/g16/l9999.exe)

 Test job not archived.
 1\1\GINC-CASCADEB025\SP\RLC-wHPBE\TZVP\C24H19N1\RDU230\17-Jan-2021\0\\
 #P LC-wHPBE/TZVP iop(3/107=0182000000, 3/108=0182000000) scf=(conver=6
 ,fermi,ndamp=35,noincfock,novaracc,vshift=500,xqc)\\H19 C24 N1\\0,1\C,
 0,6.129184,1.201496,-0.030856\C,0,6.830271,0.000001,0.000182\C,0,4.738
 958,1.200713,-0.032197\C,0,6.129235,-1.201473,0.031153\C,0,4.021751,-0
 .000032,0.000031\C,0,4.738962,-1.200719,0.032361\H,0,7.919539,0.000045
 ,0.00019\H,0,4.198073,2.145454,-0.081149\H,0,6.668779,-2.147537,0.0634
 12\H,0,4.198148,-2.145504,0.081256\C,0,2.536892,-0.000014,-0.000063\C,
 0,1.813363,-0.924286,-0.760077\C,0,1.813258,0.92429,0.759786\C,0,0.426
 027,-0.922473,-0.771159\C,0,0.425899,0.922498,0.770636\C,0,-0.288344,0
 .000018,-0.000311\H,0,2.347573,-1.638662,-1.38605\H,0,2.34735,1.638674
 ,1.385851\H,0,-0.11537,-1.638494,-1.387158\H,0,-0.115571,1.638578,1.38
 6504\H,0,6.668762,2.147543,-0.063006\N,0,-1.704382,-0.000003,-0.000499
 \C,0,-2.414266,1.22777,0.004035\C,0,-3.559402,1.382015,0.792108\C,0,-1
 .979956,2.301413,-0.78017\C,0,-4.257371,2.583383,0.786193\C,0,-2.67352
 7,3.505213,-0.76583\C,0,-3.817854,3.653503,0.012423\H,0,-3.900046,0.55
 1242,1.407814\H,0,-1.092486,2.185578,-1.400082\H,0,-5.147916,2.686607,
 1.40537\H,0,-2.321511,4.331764,-1.38228\H,0,-4.363183,4.595952,0.01566
 4\C,0,-2.414241,-1.227791,-0.004406\C,0,-3.559682,-1.382189,-0.792032\
 C,0,-1.979686,-2.301249,0.779869\C,0,-4.257673,-2.583532,-0.785597\C,0
 ,-2.673287,-3.50506,0.766028\C,0,-3.817885,-3.653507,-0.011769\H,0,-3.
 900521,-0.551523,-1.407763\H,0,-1.092008,-2.185299,1.399468\H,0,-5.148
 466,-2.686887,-1.404399\H,0,-2.32101,-4.331477,1.382521\H,0,-4.363223,
 -4.595951,-0.014691\\Version=EM64L-G16RevA.03\State=1-A\HF=-980.100861
 \RMSD=7.094e-07\Dipole=-0.0952114,0.0000669,0.0001082\Quadrupole=3.163
 0205,4.0777039,-7.2407244,-0.0004656,-0.0006813,-0.3376054\PG=C01 [X(C
 24H19N1)]\\@


 WORK FAITHFULLY FOR EIGHT HOURS A DAY AND DON'T WORRY.
 IN TIME YOU MAY BECOME BOSS AND WORK TWELVE HOURS A DAY
 AND HAVE ALL THE WORRY.
 Job cpu time:       0 days  1 hours 17 minutes 19.8 seconds.
 Elapsed time:       0 days  0 hours  9 minutes 42.1 seconds.
 File lengths (MBytes):  RWF=    156 Int=      0 D2E=      0 Chk=     28 Scr=      8
 Normal termination of Gaussian 16 at Sun Jan 17 14:31:06 2021.
