 Entering Gaussian System, Link 0=g16
 Input=mol_bp_pa_half_tune_c0.gjf
 Output=mol_bp_pa_half_tune_c0.log
 Initial command:
 /opt/ohpc/pub/libs/gaussian/g16-A.03/sandybridge/g16/l1.exe "/mnt/gpfs2_4m/scratch/rdu230/ondemand/projects/init_structures/wtuning/mol_bp_pa_half/tuning_mol_bp_pa_half_ocycle0/Gau-385923.inp" -scrdir="/mnt/gpfs2_4m/scratch/rdu230/ondemand/projects/init_structures/wtuning/mol_bp_pa_half/tuning_mol_bp_pa_half_ocycle0/"
 Entering Link 1 = /opt/ohpc/pub/libs/gaussian/g16-A.03/sandybridge/g16/l1.exe PID=    385924.
  
 Copyright (c) 1988,1990,1992,1993,1995,1998,2003,2009,2016,
            Gaussian, Inc.  All Rights Reserved.
  
 This is part of the Gaussian(R) 16 program.  It is based on
 the Gaussian(R) 09 system (copyright 2009, Gaussian, Inc.),
 the Gaussian(R) 03 system (copyright 2003, Gaussian, Inc.),
 the Gaussian(R) 98 system (copyright 1998, Gaussian, Inc.),
 the Gaussian(R) 94 system (copyright 1995, Gaussian, Inc.),
 the Gaussian 92(TM) system (copyright 1992, Gaussian, Inc.),
 the Gaussian 90(TM) system (copyright 1990, Gaussian, Inc.),
 the Gaussian 88(TM) system (copyright 1988, Gaussian, Inc.),
 the Gaussian 86(TM) system (copyright 1986, Carnegie Mellon
 University), and the Gaussian 82(TM) system (copyright 1983,
 Carnegie Mellon University). Gaussian is a federally registered
 trademark of Gaussian, Inc.
  
 This software contains proprietary and confidential information,
 including trade secrets, belonging to Gaussian, Inc.
  
 This software is provided under written license and may be
 used, copied, transmitted, or stored only in accord with that
 written license.
  
 The following legend is applicable only to US Government
 contracts under FAR:
  
                    RESTRICTED RIGHTS LEGEND
  
 Use, reproduction and disclosure by the US Government is
 subject to restrictions as set forth in subparagraphs (a)
 and (c) of the Commercial Computer Software - Restricted
 Rights clause in FAR 52.227-19.
  
 Gaussian, Inc.
 340 Quinnipiac St., Bldg. 40, Wallingford CT 06492
  
  
 ---------------------------------------------------------------
 Warning -- This program may not be used in any manner that
 competes with the business of Gaussian, Inc. or will provide
 assistance to any competitor of Gaussian, Inc.  The licensee
 of this program is prohibited from giving any competitor of
 Gaussian, Inc. access to this program.  By using this program,
 the user acknowledges that Gaussian, Inc. is engaged in the
 business of creating and licensing software in the field of
 computational chemistry and represents and warrants to the
 licensee that it is not a competitor of Gaussian, Inc. and that
 it will not use this program in any manner prohibited above.
 ---------------------------------------------------------------
  

 Cite this work as:
 Gaussian 16, Revision A.03,
 M. J. Frisch, G. W. Trucks, H. B. Schlegel, G. E. Scuseria, 
 M. A. Robb, J. R. Cheeseman, G. Scalmani, V. Barone, 
 G. A. Petersson, H. Nakatsuji, X. Li, M. Caricato, A. V. Marenich, 
 J. Bloino, B. G. Janesko, R. Gomperts, B. Mennucci, H. P. Hratchian, 
 J. V. Ortiz, A. F. Izmaylov, J. L. Sonnenberg, D. Williams-Young, 
 F. Ding, F. Lipparini, F. Egidi, J. Goings, B. Peng, A. Petrone, 
 T. Henderson, D. Ranasinghe, V. G. Zakrzewski, J. Gao, N. Rega, 
 G. Zheng, W. Liang, M. Hada, M. Ehara, K. Toyota, R. Fukuda, 
 J. Hasegawa, M. Ishida, T. Nakajima, Y. Honda, O. Kitao, H. Nakai, 
 T. Vreven, K. Throssell, J. A. Montgomery, Jr., J. E. Peralta, 
 F. Ogliaro, M. J. Bearpark, J. J. Heyd, E. N. Brothers, K. N. Kudin, 
 V. N. Staroverov, T. A. Keith, R. Kobayashi, J. Normand, 
 K. Raghavachari, A. P. Rendell, J. C. Burant, S. S. Iyengar, 
 J. Tomasi, M. Cossi, J. M. Millam, M. Klene, C. Adamo, R. Cammi, 
 J. W. Ochterski, R. L. Martin, K. Morokuma, O. Farkas, 
 J. B. Foresman, and D. J. Fox, Gaussian, Inc., Wallingford CT, 2016.
 
 ******************************************
 Gaussian 16:  EM64L-G16RevA.03 25-Dec-2016
                17-Jan-2021 
 ******************************************
 %mem=30GB
 %nproc=8
 Will use up to    8 processors via shared memory.
 ----------------------------------------------------------------------
 #P LC-wHPBE/TZVP iop(3/107=0221900000, 3/108=0221900000) scf=(conver=6
 ,fermi,ndamp=35,noincfock,novaracc,vshift=500,xqc)
 ----------------------------------------------------------------------
 1/38=1,172=1/1;
 2/12=2,17=6,18=5,40=1/2;
 3/5=19,7=101,11=2,25=1,30=1,74=-71,107=221900000,108=221900000/1,2,3;
 4//1;
 5/5=100002,6=6,8=3,10=500,13=1,18=-1,22=13,38=1,93=35/2,8;
 6/7=2,8=2,9=2,10=2,28=1/1;
 99/5=1,9=1/99;
 Leave Link    1 at Sun Jan 17 11:50:11 2021, MaxMem=  4026531840 cpu:               0.8 elap:               0.1
 (Enter /opt/ohpc/pub/libs/gaussian/g16-A.03/sandybridge/g16/l101.exe)
 ----------
 H19 C24 N1
 ----------
 Symbolic Z-matrix:
 Charge =  1 Multiplicity = 2
 C                     6.12918   1.2015   -0.03086 
 C                     6.83027   0.        0.00018 
 C                     4.73896   1.20071  -0.0322 
 C                     6.12924  -1.20147   0.03115 
 C                     4.02175  -0.00003   0.00003 
 C                     4.73896  -1.20072   0.03236 
 H                     7.91954   0.00005   0.00019 
 H                     4.19807   2.14545  -0.08115 
 H                     6.66878  -2.14754   0.06341 
 H                     4.19815  -2.1455    0.08126 
 C                     2.53689  -0.00001  -0.00006 
 C                     1.81336  -0.92429  -0.76008 
 C                     1.81326   0.92429   0.75979 
 C                     0.42603  -0.92247  -0.77116 
 C                     0.4259    0.9225    0.77064 
 C                    -0.28834   0.00002  -0.00031 
 H                     2.34757  -1.63866  -1.38605 
 H                     2.34735   1.63867   1.38585 
 H                    -0.11537  -1.63849  -1.38716 
 H                    -0.11557   1.63858   1.3865 
 H                     6.66876   2.14754  -0.06301 
 N                    -1.70438  0.        -0.0005 
 C                    -2.41427   1.22777   0.00404 
 C                    -3.5594    1.38202   0.79211 
 C                    -1.97996   2.30141  -0.78017 
 C                    -4.25737   2.58338   0.78619 
 C                    -2.67353   3.50521  -0.76583 
 C                    -3.81785   3.6535    0.01242 
 H                    -3.90005   0.55124   1.40781 
 H                    -1.09249   2.18558  -1.40008 
 H                    -5.14792   2.68661   1.40537 
 H                    -2.32151   4.33176  -1.38228 
 H                    -4.36318   4.59595   0.01566 
 C                    -2.41424  -1.22779  -0.00441 
 C                    -3.55968  -1.38219  -0.79203 
 C                    -1.97969  -2.30125   0.77987 
 C                    -4.25767  -2.58353  -0.7856 
 C                    -2.67329  -3.50506   0.76603 
 C                    -3.81789  -3.65351  -0.01177 
 H                    -3.90052  -0.55152  -1.40776 
 H                    -1.09201  -2.1853    1.39947 
 H                    -5.14847  -2.68689  -1.4044 
 H                    -2.32101  -4.33148   1.38252 
 H                    -4.36322  -4.59595  -0.01469 
 
 ITRead=  0  0  0  0  0  0  0  0  0  0  0  0  0  0  0  0  0  0  0  0
 ITRead=  0  0  0  0  0  0  0  0  0  0  0  0  0  0  0  0  0  0  0  0
 ITRead=  0  0  0  0
 MicOpt= -1 -1 -1 -1 -1 -1 -1 -1 -1 -1 -1 -1 -1 -1 -1 -1 -1 -1 -1 -1
 MicOpt= -1 -1 -1 -1 -1 -1 -1 -1 -1 -1 -1 -1 -1 -1 -1 -1 -1 -1 -1 -1
 MicOpt= -1 -1 -1 -1
 NAtoms=     44 NQM=       44 NQMF=       0 NMMI=      0 NMMIF=      0
                NMic=       0 NMicF=      0.
                    Isotopes and Nuclear Properties:
 (Nuclear quadrupole moments (NQMom) in fm**2, nuclear magnetic moments (NMagM)
  in nuclear magnetons)

  Atom         1           2           3           4           5           6           7           8           9          10
 IAtWgt=          12          12          12          12          12          12           1           1           1           1
 AtmWgt=  12.0000000  12.0000000  12.0000000  12.0000000  12.0000000  12.0000000   1.0078250   1.0078250   1.0078250   1.0078250
 NucSpn=           0           0           0           0           0           0           1           1           1           1
 AtZEff=  -0.0000000  -0.0000000  -0.0000000  -0.0000000  -0.0000000  -0.0000000  -0.0000000  -0.0000000  -0.0000000  -0.0000000
 NQMom=    0.0000000   0.0000000   0.0000000   0.0000000   0.0000000   0.0000000   0.0000000   0.0000000   0.0000000   0.0000000
 NMagM=    0.0000000   0.0000000   0.0000000   0.0000000   0.0000000   0.0000000   2.7928460   2.7928460   2.7928460   2.7928460
 AtZNuc=   6.0000000   6.0000000   6.0000000   6.0000000   6.0000000   6.0000000   1.0000000   1.0000000   1.0000000   1.0000000

  Atom        11          12          13          14          15          16          17          18          19          20
 IAtWgt=          12          12          12          12          12          12           1           1           1           1
 AtmWgt=  12.0000000  12.0000000  12.0000000  12.0000000  12.0000000  12.0000000   1.0078250   1.0078250   1.0078250   1.0078250
 NucSpn=           0           0           0           0           0           0           1           1           1           1
 AtZEff=  -0.0000000  -0.0000000  -0.0000000  -0.0000000  -0.0000000  -0.0000000  -0.0000000  -0.0000000  -0.0000000  -0.0000000
 NQMom=    0.0000000   0.0000000   0.0000000   0.0000000   0.0000000   0.0000000   0.0000000   0.0000000   0.0000000   0.0000000
 NMagM=    0.0000000   0.0000000   0.0000000   0.0000000   0.0000000   0.0000000   2.7928460   2.7928460   2.7928460   2.7928460
 AtZNuc=   6.0000000   6.0000000   6.0000000   6.0000000   6.0000000   6.0000000   1.0000000   1.0000000   1.0000000   1.0000000

  Atom        21          22          23          24          25          26          27          28          29          30
 IAtWgt=           1          14          12          12          12          12          12          12           1           1
 AtmWgt=   1.0078250  14.0030740  12.0000000  12.0000000  12.0000000  12.0000000  12.0000000  12.0000000   1.0078250   1.0078250
 NucSpn=           1           2           0           0           0           0           0           0           1           1
 AtZEff=  -0.0000000  -0.0000000  -0.0000000  -0.0000000  -0.0000000  -0.0000000  -0.0000000  -0.0000000  -0.0000000  -0.0000000
 NQMom=    0.0000000   2.0440000   0.0000000   0.0000000   0.0000000   0.0000000   0.0000000   0.0000000   0.0000000   0.0000000
 NMagM=    2.7928460   0.4037610   0.0000000   0.0000000   0.0000000   0.0000000   0.0000000   0.0000000   2.7928460   2.7928460
 AtZNuc=   1.0000000   7.0000000   6.0000000   6.0000000   6.0000000   6.0000000   6.0000000   6.0000000   1.0000000   1.0000000

  Atom        31          32          33          34          35          36          37          38          39          40
 IAtWgt=           1           1           1          12          12          12          12          12          12           1
 AtmWgt=   1.0078250   1.0078250   1.0078250  12.0000000  12.0000000  12.0000000  12.0000000  12.0000000  12.0000000   1.0078250
 NucSpn=           1           1           1           0           0           0           0           0           0           1
 AtZEff=  -0.0000000  -0.0000000  -0.0000000  -0.0000000  -0.0000000  -0.0000000  -0.0000000  -0.0000000  -0.0000000  -0.0000000
 NQMom=    0.0000000   0.0000000   0.0000000   0.0000000   0.0000000   0.0000000   0.0000000   0.0000000   0.0000000   0.0000000
 NMagM=    2.7928460   2.7928460   2.7928460   0.0000000   0.0000000   0.0000000   0.0000000   0.0000000   0.0000000   2.7928460
 AtZNuc=   1.0000000   1.0000000   1.0000000   6.0000000   6.0000000   6.0000000   6.0000000   6.0000000   6.0000000   1.0000000

  Atom        41          42          43          44
 IAtWgt=           1           1           1           1
 AtmWgt=   1.0078250   1.0078250   1.0078250   1.0078250
 NucSpn=           1           1           1           1
 AtZEff=  -0.0000000  -0.0000000  -0.0000000  -0.0000000
 NQMom=    0.0000000   0.0000000   0.0000000   0.0000000
 NMagM=    2.7928460   2.7928460   2.7928460   2.7928460
 AtZNuc=   1.0000000   1.0000000   1.0000000   1.0000000
 Leave Link  101 at Sun Jan 17 11:50:11 2021, MaxMem=  4026531840 cpu:               0.7 elap:               0.1
 (Enter /opt/ohpc/pub/libs/gaussian/g16-A.03/sandybridge/g16/l202.exe)
                          Input orientation:                          
 ---------------------------------------------------------------------
 Center     Atomic      Atomic             Coordinates (Angstroms)
 Number     Number       Type             X           Y           Z
 ---------------------------------------------------------------------
      1          6           0        6.129184    1.201496   -0.030856
      2          6           0        6.830271    0.000001    0.000182
      3          6           0        4.738958    1.200713   -0.032197
      4          6           0        6.129235   -1.201473    0.031153
      5          6           0        4.021751   -0.000032    0.000031
      6          6           0        4.738962   -1.200719    0.032361
      7          1           0        7.919539    0.000045    0.000190
      8          1           0        4.198073    2.145454   -0.081149
      9          1           0        6.668779   -2.147537    0.063412
     10          1           0        4.198148   -2.145504    0.081256
     11          6           0        2.536892   -0.000014   -0.000063
     12          6           0        1.813363   -0.924286   -0.760077
     13          6           0        1.813258    0.924290    0.759786
     14          6           0        0.426027   -0.922473   -0.771159
     15          6           0        0.425899    0.922498    0.770636
     16          6           0       -0.288344    0.000018   -0.000311
     17          1           0        2.347573   -1.638662   -1.386050
     18          1           0        2.347350    1.638674    1.385851
     19          1           0       -0.115370   -1.638494   -1.387158
     20          1           0       -0.115571    1.638578    1.386504
     21          1           0        6.668762    2.147543   -0.063006
     22          7           0       -1.704382   -0.000003   -0.000499
     23          6           0       -2.414266    1.227770    0.004035
     24          6           0       -3.559402    1.382015    0.792108
     25          6           0       -1.979956    2.301413   -0.780170
     26          6           0       -4.257371    2.583383    0.786193
     27          6           0       -2.673527    3.505213   -0.765830
     28          6           0       -3.817854    3.653503    0.012423
     29          1           0       -3.900046    0.551242    1.407814
     30          1           0       -1.092486    2.185578   -1.400082
     31          1           0       -5.147916    2.686607    1.405370
     32          1           0       -2.321511    4.331764   -1.382280
     33          1           0       -4.363183    4.595952    0.015664
     34          6           0       -2.414241   -1.227791   -0.004406
     35          6           0       -3.559682   -1.382189   -0.792032
     36          6           0       -1.979686   -2.301249    0.779869
     37          6           0       -4.257673   -2.583532   -0.785597
     38          6           0       -2.673287   -3.505060    0.766028
     39          6           0       -3.817885   -3.653507   -0.011769
     40          1           0       -3.900521   -0.551523   -1.407763
     41          1           0       -1.092008   -2.185299    1.399468
     42          1           0       -5.148466   -2.686887   -1.404399
     43          1           0       -2.321010   -4.331477    1.382521
     44          1           0       -4.363223   -4.595951   -0.014691
 ---------------------------------------------------------------------
                    Distance matrix (angstroms):
                    1          2          3          4          5
     1  C    0.000000
     2  C    1.391430   0.000000
     3  C    1.390227   2.411711   0.000000
     4  C    2.403769   1.391384   2.776217   0.000000
     5  C    2.426087   2.808520   1.399004   2.426091   0.000000
     6  C    2.776212   2.411708   2.402300   1.390274   1.398959
     7  H    2.156344   1.089268   3.399816   2.156338   3.897788
     8  H    2.150064   3.396770   1.089719   3.865737   2.154249
     9  H    3.393534   2.154529   3.865764   1.089580   3.409186
    10  H    3.865731   3.396739   3.391536   2.150070   2.154243
    11  C    3.788025   4.293379   2.508361   3.788061   1.484859
    12  C    4.865904   5.157680   3.688433   4.396547   2.511770
    13  C    4.396496   5.157686   3.043578   4.865946   2.511780
    14  C    6.130685   6.516154   4.863677   5.766119   3.791420
    15  C    5.766081   6.516178   4.395955   6.130753   3.791444
    16  C    6.529100   7.118615   5.168796   6.529157   4.310095
    17  H    4.919718   4.970054   3.951416   4.062089   2.721985
    18  H    4.062075   4.970101   2.814686   4.919786   2.722035
    19  H    6.992822   7.269890   5.784593   6.418542   4.660968
    20  H    6.418482   7.269907   5.076504   6.992887   4.660985
    21  H    1.089579   2.154533   2.149786   3.393503   3.409211
    22  N    7.925230   8.534653   6.554339   7.925282   5.726133
    23  C    8.543562   9.325712   7.153367   8.882194   6.552086
    24  C    9.725151  10.511062   8.341171  10.056001   7.746697
    25  C    8.217630   9.139231   6.849439   8.870594   6.475017
    26  C   10.509886  11.411726   9.138680  11.080470   8.708384
    27  C    9.128802  10.158517   7.797042  10.013825   7.596054
    28  C   10.244890  11.257477   8.901528  11.068682   8.649155
    29  H   10.152736  10.836282   8.782245  10.273932   8.064777
    30  H    7.415910   8.337120   6.070157   8.103937   5.735209
    31  H   11.464785  12.355945  10.100731  12.007488   9.657940
    32  H    9.112583  10.219124   7.840690  10.199491   7.804628
    33  H   11.027886  12.100265   9.714881  11.987544   9.561926
    34  C    8.882131   9.325690   7.554248   8.543591   6.552053
    35  C   10.056289  10.511383   8.724457   9.725503   7.746990
    36  C    8.870190   9.138873   7.619932   8.217340   6.474642
    37  C   11.080743  11.412037   9.789152  10.510234   8.708648
    38  C   10.013500  10.158228   8.816056   9.128579   7.595756
    39  C   11.068677  11.257508   9.837857  10.244975   8.649157
    40  H   10.274431  10.836807   8.922058  10.153271   8.065260
    41  H    8.103198   8.336429   6.893106   7.415292   5.734488
    42  H   12.007978  12.356470  10.712494  11.465331   9.658390
    43  H   10.198882  10.218537   9.080182   9.112067   7.804057
    44  H   11.987546  12.100302  10.791261  11.027976   9.561929
                    6          7          8          9         10
     6  C    0.000000
     7  H    3.399844   0.000000
     8  H    3.391507   4.296360   0.000000
     9  H    2.149796   2.486062   4.955306   0.000000
    10  H    1.089720   4.296359   4.294030   2.470696   0.000000
    11  C    2.508357   5.382647   2.714614   4.657078   2.714684
    12  C    3.043600   6.222361   3.946022   5.074401   2.808276
    13  C    3.688435   6.222370   2.808159   5.787672   3.946104
    14  C    4.395961   7.589383   4.910868   6.416326   4.056022
    15  C    4.863704   7.589410   4.055916   6.992770   4.910982
    16  C    5.168814   8.207883   4.973667   7.281319   4.973784
    17  H    2.814680   5.971083   4.409836   4.586144   2.415472
    18  H    3.951442   5.971135   2.415386   5.895675   4.409923
    19  H    5.076536   8.316809   5.884702   6.956145   4.584729
    20  H    5.784618   8.316829   4.584589   7.881158   5.884821
    21  H    3.865758   2.485998   2.470756   4.296940   4.955300
    22  N    6.554348   9.623921   6.280801   8.644409   6.280901
    23  C    7.554272  10.406481   6.676258   9.690094   7.423541
    24  C    8.724138  11.588920   7.843713  10.844557   8.551508
    25  C    7.620301  10.193393   6.219405   9.762449   7.660685
    26  C    9.788856  12.472713   8.511087  11.928318   9.713656
    27  C    8.816343  11.184187   7.038226  10.950795   8.936894
    28  C    9.837834  12.292856   8.157086  11.984329   9.893913
    29  H    8.921530  11.915864   8.386779  10.990491   8.637878
    30  H    6.893815   9.378375   5.452633   9.008603   6.995959
    31  H   10.711994  13.414564   9.478929  12.837604  10.604315
    32  H    9.080741  11.205093   6.998419  11.175718   9.306067
    33  H   10.791233  13.114414   8.905584  12.929853  10.897152
    34  C    7.153349  10.406470   7.423434   9.129720   6.676318
    35  C    8.341466  11.589249   8.551747  10.292665   7.844056
    36  C    6.849100  10.193062   7.660237   8.679452   6.219160
    37  C    9.138964  12.473044   9.713866  10.968056   8.511417
    38  C    7.796774  11.183927   8.936532   9.466295   7.038034
    39  C    8.901559  12.292913   9.893854  10.594514   8.157175
    40  H    8.782715  11.916391   8.638334  10.789890   8.387276
    41  H    6.069480   9.377723   6.995184   7.875042   5.452065
    42  H   10.101198  13.415112  10.604730  11.920262   9.479423
    43  H    7.840139  11.204542   9.305450   9.344835   6.997942
    44  H    9.714916  13.114482  10.897098  11.300703   8.905671
                   11         12         13         14         15
    11  C    0.000000
    12  C    1.398354   0.000000
    13  C    1.398340   2.393160   0.000000
    14  C    2.429253   1.387381   2.771053   0.000000
    15  C    2.429258   2.771056   1.387403   2.404381   0.000000
    16  C    2.825236   2.418420   2.418420   1.398400   1.398382
    17  H    2.154523   1.089750   3.385089   2.140878   3.860527
    18  H    2.154526   3.385102   1.089750   3.860524   2.140881
    19  H    3.412205   2.150194   3.859642   1.088693   3.392304
    20  H    3.412200   3.859646   2.150201   3.392318   1.088694
    21  H    4.657071   5.787654   5.074372   6.992726   6.416310
    22  N    4.241274   3.715614   3.715662   2.446121   2.446171
    23  C    5.101121   4.805004   4.305255   3.645783   2.957601
    24  C    6.300979   6.049372   5.392220   4.861904   4.011763
    25  C    5.129040   4.979438   4.319306   4.022720   3.177191
    26  C    7.311234   7.179729   6.293316   6.053973   4.969084
    27  C    6.326253   6.304972   5.396286   5.404782   4.317127
    28  C    7.330153   7.298186   6.302109   6.289999   5.103206
    29  H    6.612123   6.286492   5.762026   5.063069   4.388351
    30  H    4.461978   4.304047   3.833957   3.515879   2.934771
    31  H    8.261322   8.135546   7.209749   6.987959   5.880679
    32  H    6.654240   6.716426   5.770237   5.960658   4.879181
    33  H    8.290608   8.320128   7.223797   7.349057   6.082726
    34  C    5.101095   4.305321   4.804913   2.957744   3.645659
    35  C    6.301257   5.392616   6.049502   4.012188   4.861931
    36  C    5.128689   4.319107   4.979049   3.177132   4.022371
    37  C    7.311480   6.293745   7.179779   4.969544   6.053921
    38  C    6.325995   5.396241   6.304623   4.317227   5.404465
    39  C    7.330166   6.302346   7.298034   5.103529   6.289808
    40  H    6.612569   5.762545   6.286777   4.388837   5.063207
    41  H    4.461286   3.833402   4.303406   2.934413   3.515377
    42  H    8.261729   7.210338   8.135717   5.881252   6.987988
    43  H    6.653745   5.769984   6.715881   4.879125   5.960215
    44  H    8.290623   7.224053   8.319964   6.083058   7.348858
                   16         17         18         19         20
    16  C    0.000000
    17  H    3.399059   0.000000
    18  H    3.399047   4.292361   0.000000
    19  H    2.153598   2.462943   4.949182   0.000000
    20  H    2.153598   4.949185   2.462921   4.293297   0.000000
    21  H    7.281285   5.895631   4.586146   7.881110   6.956098
    22  N    1.416038   4.585117   4.585167   2.670662   2.670776
    23  C    2.454982   5.729213   4.975062   3.928843   2.713666
    24  C    3.638360   6.982923   5.942064   5.072872   3.504155
    25  C    2.960769   5.883773   4.884306   4.400907   2.934239
    26  C    4.800577   8.134469   6.698836   6.301101   4.290401
    27  C    4.308307   7.214954   5.772599   5.778230   3.828839
    28  C    5.079917   8.244709   6.629901   6.608513   4.433387
    29  H    3.915489   7.185687   6.341368   5.189469   3.937639
    30  H    2.717108   5.143833   4.460157   3.946954   3.003104
    31  H    5.727926   9.092983   7.568194   7.199391   5.140352
    32  H    4.980726   7.579337   6.059170   6.364830   4.448099
    33  H    6.142245   9.266578   7.460171   7.673340   5.354201
    34  C    2.454989   4.975201   5.729065   2.713943   3.928688
    35  C    3.638540   5.942583   6.982966   3.504733   5.072766
    36  C    2.960599   4.884199   5.883319   2.934438   4.400587
    37  C    4.800727   6.699448   8.134405   4.291113   6.300892
    38  C    4.308225   5.772687   7.214498   3.829258   5.777881
    39  C    5.079964   6.630318   8.244431   4.434026   6.608212
    40  H    3.915730   6.342005   7.185898   3.938185   5.189443
    41  H    2.716775   4.459668   5.143164   3.003015   3.946598
    42  H    5.728150   7.568997   9.093032   5.141156   7.199224
    43  H    4.980543   6.059035   7.578674   4.448385   6.364396
    44  H    6.142294   7.460628   9.266275   5.354855   7.673021
                   21         22         23         24         25
    21  H    0.000000
    22  N    8.644386   0.000000
    23  C    9.129725   1.418232   0.000000
    24  C   10.292356   2.445260   1.398638   0.000000
    25  C    8.679765   2.445474   1.398682   2.410809   0.000000
    26  C   10.967747   3.716251   2.417952   1.389417   2.778420
    27  C    9.466551   3.716384   2.417986   2.778474   1.389381
    28  C   10.594466   4.220786   2.802554   2.415443   2.415413
    29  H   10.789402   2.666113   2.153097   1.088722   3.396633
    30  H    7.875671   2.666461   2.153147   3.396628   1.088720
    31  H   11.919757   4.588275   3.400704   2.145094   3.867936
    32  H    9.345390   4.588504   3.400772   3.867991   2.145116
    33  H   11.300651   5.309641   3.891409   3.402693   3.402651
    34  C    9.690060   1.418231   2.455576   2.959209   3.639463
    35  C   10.844886   2.445220   2.959322   3.185957   4.008067
    36  C    9.762061   2.445506   3.639334   4.007753   4.859858
    37  C   11.928629   3.716221   4.306703   4.324615   5.389871
    38  C   10.950484   3.716418   4.800771   4.966828   6.048683
    39  C   11.984347   4.220795   5.079100   5.105831   6.279291
    40  H   10.991045   2.666007   2.714408   2.948621   3.495953
    41  H    9.007880   2.666539   3.917223   4.379800   5.066543
    42  H   12.838143   4.588245   4.978361   4.889349   5.942411
    43  H   11.175117   4.588534   5.728363   5.875899   6.984897
    44  H   12.929878   5.309649   6.141214   6.085485   7.337544
                   26         27         28         29         30
    26  C    0.000000
    27  C    2.401480   0.000000
    28  C    1.391780   1.391816   0.000000
    29  H    2.154922   3.867172   3.402631   0.000000
    30  H    3.867111   2.154856   3.402588   4.293917   0.000000
    31  H    1.089544   3.392171   2.155053   2.473251   4.956622
    32  H    3.392148   1.089547   2.155058   4.956687   2.473244
    33  H    2.157625   2.157633   1.088855   4.302587   4.302522
    34  C    4.306649   4.800867   5.079118   2.714211   3.917402
    35  C    4.324734   4.967158   5.106074   2.948445   4.380153
    36  C    5.389575   6.048603   6.279085   3.495540   5.066648
    37  C    5.400698   6.291480   6.303244   3.842624   5.756771
    38  C    6.291174   7.175689   7.288551   4.286072   6.290813
    39  C    6.303070   7.288720   7.307050   4.438680   6.591671
    40  H    3.842970   4.286572   4.439145   3.023833   3.921332
    41  H    5.756384   6.290600   6.591338   3.920944   5.190573
    42  H    5.776547   6.698895   6.631626   4.466830   6.339709
    43  H    7.205580   8.133473   8.238787   5.131758   7.191951
    44  H    7.224642   8.309521   8.267506   5.360191   7.655466
                   31         32         33         34         35
    31  H    0.000000
    32  H    4.297220   0.000000
    33  H    2.488511   2.488467   0.000000
    34  C    4.978249   5.728507   6.141234   0.000000
    35  C    4.889393   5.876284   6.085734   1.398652   0.000000
    36  C    5.942023   6.984883   7.337333   1.398656   2.410795
    37  C    5.776438   7.205975   7.224828   2.417961   1.389409
    38  C    6.698454   8.133559   8.309344   2.417980   2.778458
    39  C    6.631313   8.239053   8.267507   2.802565   2.415443
    40  H    4.467124   5.132291   5.360662   2.153086   1.088716
    41  H    6.339234   7.191795   7.655120   2.153134   3.396627
    42  H    6.063764   7.566613   7.461434   3.400725   2.145103
    43  H    7.566070   9.093727   9.259469   3.400754   3.867983
    44  H    7.461097   9.259751   9.191953   3.891419   3.402676
                   36         37         38         39         40
    36  C    0.000000
    37  C    2.778415   0.000000
    38  C    1.389401   2.401465   0.000000
    39  C    2.415423   1.391787   1.391801   0.000000
    40  H    3.396599   2.154927   3.867150   3.402636   0.000000
    41  H    1.088724   3.867109   2.154869   3.402592   4.293893
    42  H    3.867934   1.089546   3.392149   2.155045   2.473289
    43  H    2.145115   3.392154   1.089554   2.155069   4.956671
    44  H    3.402680   2.157607   2.157649   1.088854   4.302574
                   41         42         43         44
    41  H    0.000000
    42  H    4.956623   0.000000
    43  H    2.473219   4.297221   0.000000
    44  H    4.302550   2.488457   2.488530   0.000000
 Stoichiometry    C24H19N(1+,2)
 Framework group  C1[X(C24H19N)]
 Deg. of freedom   126
 Full point group                 C1      NOp   1
 Largest Abelian subgroup         C1      NOp   1
 Largest concise Abelian subgroup C1      NOp   1
                         Standard orientation:                         
 ---------------------------------------------------------------------
 Center     Atomic      Atomic             Coordinates (Angstroms)
 Number     Number       Type             X           Y           Z
 ---------------------------------------------------------------------
      1          6           0       -6.129184    1.201496    0.030856
      2          6           0       -6.830271    0.000001   -0.000182
      3          6           0       -4.738958    1.200713    0.032197
      4          6           0       -6.129235   -1.201473   -0.031153
      5          6           0       -4.021751   -0.000032   -0.000031
      6          6           0       -4.738962   -1.200719   -0.032361
      7          1           0       -7.919539    0.000045   -0.000190
      8          1           0       -4.198073    2.145454    0.081149
      9          1           0       -6.668779   -2.147537   -0.063412
     10          1           0       -4.198148   -2.145504   -0.081256
     11          6           0       -2.536892   -0.000014    0.000063
     12          6           0       -1.813363   -0.924286    0.760077
     13          6           0       -1.813258    0.924290   -0.759786
     14          6           0       -0.426027   -0.922473    0.771159
     15          6           0       -0.425899    0.922498   -0.770636
     16          6           0        0.288344    0.000018    0.000311
     17          1           0       -2.347573   -1.638662    1.386050
     18          1           0       -2.347350    1.638674   -1.385851
     19          1           0        0.115370   -1.638494    1.387158
     20          1           0        0.115571    1.638578   -1.386504
     21          1           0       -6.668762    2.147543    0.063006
     22          7           0        1.704382   -0.000003    0.000499
     23          6           0        2.414266    1.227770   -0.004035
     24          6           0        3.559402    1.382015   -0.792108
     25          6           0        1.979956    2.301413    0.780170
     26          6           0        4.257371    2.583383   -0.786193
     27          6           0        2.673527    3.505213    0.765830
     28          6           0        3.817854    3.653503   -0.012423
     29          1           0        3.900046    0.551242   -1.407814
     30          1           0        1.092486    2.185578    1.400082
     31          1           0        5.147916    2.686607   -1.405370
     32          1           0        2.321511    4.331764    1.382280
     33          1           0        4.363183    4.595952   -0.015664
     34          6           0        2.414241   -1.227791    0.004406
     35          6           0        3.559682   -1.382189    0.792032
     36          6           0        1.979686   -2.301249   -0.779869
     37          6           0        4.257673   -2.583532    0.785597
     38          6           0        2.673287   -3.505060   -0.766028
     39          6           0        3.817885   -3.653507    0.011769
     40          1           0        3.900521   -0.551523    1.407763
     41          1           0        1.092008   -2.185299   -1.399468
     42          1           0        5.148466   -2.686887    1.404399
     43          1           0        2.321010   -4.331477   -1.382521
     44          1           0        4.363223   -4.595951    0.014691
 ---------------------------------------------------------------------
 Rotational constants (GHZ):           0.3772696           0.1165367           0.0926339
 Leave Link  202 at Sun Jan 17 11:50:11 2021, MaxMem=  4026531840 cpu:               0.3 elap:               0.1
 (Enter /opt/ohpc/pub/libs/gaussian/g16-A.03/sandybridge/g16/l301.exe)
 Standard basis: TZVP (5D, 7F)
 Ernie: Thresh=  0.10000D-02 Tol=  0.10000D-05 Strict=F.
 There are   614 symmetry adapted cartesian basis functions of A   symmetry.
 There are   589 symmetry adapted basis functions of A   symmetry.
   589 basis functions,  1027 primitive gaussians,   614 cartesian basis functions
    85 alpha electrons       84 beta electrons
       nuclear repulsion energy      1905.4959532784 Hartrees.
 IExCor=33909 DFT=T Ex+Corr=LC-wHPBE ExCW=0 ScaHFX=  1.000000
 ScaDFX=  1.000000  1.000000  1.000000  1.000000 ScalE2=  1.000000  1.000000
 IRadAn=      5 IRanWt=     -1 IRanGd=            0 ICorTp=0 IEmpDi=  4
 HFx  wShort=  0.000000 wLong=  0.221900 cFull=  0.000000 cShort=  0.000000 cLong=  1.000000
 DFx  wShort=  0.000000 wLong=  0.221900 cFull=  0.000000 cShort=  1.000000 cLong=  0.000000
 NAtoms=   44 NActive=   44 NUniq=   44 SFac= 1.00D+00 NAtFMM=   60 NAOKFM=F Big=F
 Integral buffers will be    131072 words long.
 Raffenetti 2 integral format.
 Two-electron integral symmetry is turned on.
 Leave Link  301 at Sun Jan 17 11:50:11 2021, MaxMem=  4026531840 cpu:               0.4 elap:               0.1
 (Enter /opt/ohpc/pub/libs/gaussian/g16-A.03/sandybridge/g16/l302.exe)
 NPDir=0 NMtPBC=     1 NCelOv=     1 NCel=       1 NClECP=     1 NCelD=      1
         NCelK=      1 NCelE2=     1 NClLst=     1 CellRange=     0.0.
 One-electron integrals computed using PRISM.
 One-electron integral symmetry used in STVInt
 NBasis=   589 RedAO= T EigKep=  7.25D-06  NBF=   589
 NBsUse=   589 1.00D-06 EigRej= -1.00D+00 NBFU=   589
 Precomputing XC quadrature grid using
 IXCGrd= 4 IRadAn=           5 IRanWt=          -1 IRanGd=           0 AccXCQ= 0.00D+00.
 Generated NRdTot=       0 NPtTot=           0 NUsed=           0 NTot=          32
 NSgBfM=   586   586   586   586   586 MxSgAt=    44 MxSgA2=    44.
 Leave Link  302 at Sun Jan 17 11:50:13 2021, MaxMem=  4026531840 cpu:               8.1 elap:               1.1
 (Enter /opt/ohpc/pub/libs/gaussian/g16-A.03/sandybridge/g16/l303.exe)
 DipDrv:  MaxL=1.
 Leave Link  303 at Sun Jan 17 11:50:13 2021, MaxMem=  4026531840 cpu:               0.8 elap:               0.1
 (Enter /opt/ohpc/pub/libs/gaussian/g16-A.03/sandybridge/g16/l401.exe)
 ExpMin= 9.52D-02 ExpMax= 1.97D+04 ExpMxC= 6.73D+02 IAcc=3 IRadAn=         5 AccDes= 0.00D+00
 Harris functional with IExCor=33909 and IRadAn=       5 diagonalized for initial guess.
 HarFok:  IExCor=33909 AccDes= 0.00D+00 IRadAn=         5 IDoV= 1 UseB2=F ITyADJ=14
 ICtDFT=  3500011 ScaDFX=  1.000000  1.000000  1.000000  1.000000
 FoFCou: FMM=F IPFlag=           0 FMFlag=      100000 FMFlg1=           0
         NFxFlg=           0 DoJE=T BraDBF=F KetDBF=T FulRan=T
         wScrn=  0.000000 ICntrl=       500 IOpCl=  0 I1Cent=   200000004 NGrid=           0
         NMat0=    1 NMatS0=      1 NMatT0=    0 NMatD0=    1 NMtDS0=    0 NMtDT0=    0
 Petite list used in FoFCou.
 Harris En= -960.128425071788    
 JPrj=0 DoOrth=F DoCkMO=F.
 Initial guess <Sx>= 0.0000 <Sy>= 0.0000 <Sz>= 0.5000 <S**2>= 0.7500 S= 0.5000
 Leave Link  401 at Sun Jan 17 11:50:19 2021, MaxMem=  4026531840 cpu:              48.9 elap:               6.2
 (Enter /opt/ohpc/pub/libs/gaussian/g16-A.03/sandybridge/g16/l502.exe)
 Integral symmetry usage will be decided dynamically.
 UHF open shell SCF:
 Using DIIS extrapolation, IDIIS=    10.
 NGot=  4026531840 LenX=  4025766914 LenY=  4025389304
 Requested convergence on RMS density matrix=1.00D-06 within  32 cycles.
 Requested convergence on MAX density matrix=1.00D-04.
 Requested convergence on             energy=1.00D-04.
 Virtual orbitals will be shifted by   0.500 hartree.
 No special actions if energy rises.
 Dynamic level shift is on during FON iterations.

 Cycle   1  Pass 1  IDiag  1:
 FoFJK:  IHMeth= 1 ICntrl=       0 DoSepK=T KAlg= 0 I1Cent=           0 FoldK=F
 IRaf=         1 NMat=       1 IRICut=       1 DoRegI=T DoRafI=F ISym2E= 0 IDoP0=0 IntGTp=1.
 FoFCou: FMM=F IPFlag=           0 FMFlag=      100000 FMFlg1=           0
         NFxFlg=           0 DoJE=T BraDBF=F KetDBF=F FulRan=T
         wScrn=  0.000000 ICntrl=       500 IOpCl=  0 I1Cent=           0 NGrid=           0
         NMat0=    1 NMatS0=      1 NMatT0=    0 NMatD0=    1 NMtDS0=    0 NMtDT0=    0
 Symmetry not used in FoFCou.
 E= -979.509288987168    
 DIIS: error= 3.02D-02 at cycle   1 NSaved=   1.
 NSaved= 1 IEnMin= 1 EnMin= -979.509288987168     IErMin= 1 ErrMin= 3.02D-02
 ErrMax= 3.02D-02  0.00D+00 EMaxC= 1.00D+00 BMatC= 1.59D+00 BMatP= 1.59D+00
 IDIUse=1 WtCom= 1.00D+00 WtEn= 0.00D+00
 Coeff-Com:  0.100D+01
 Coeff:      0.100D+01
 Gap=     0.412 Goal=   None    Shift=    0.500
 T= 1501. Gap= 0.698 NK=0 IS=   86 IE=  589 IFin=   85
          NO(<0.9)=   0  NV(>0.1)=   0     85.00e < EF      0.00e >EF  Err=0.0D+00
 Gap=     0.080 Goal=   None    Shift=    0.500
 T= 1501. Gap= 0.505 NK=0 IS=   85 IE=  589 IFin=   84
          NO(<0.9)=   0  NV(>0.1)=   0     84.00e < EF      0.00e >EF  Err=0.0D+00
 GapD=    0.080 DampG=0.500 DampE=0.500 DampFc=0.2500 IDamp=-1.
 Damping current iteration by 2.50D-01
 RMSDP=2.62D-03 MaxDP=8.97D-02              OVMax= 9.66D-02

 Cycle   2  Pass 1  IDiag  1:
 E= -979.652474342034     Delta-E=       -0.143185354866 Rises=F Damp=T
 DIIS: error= 2.06D-02 at cycle   2 NSaved=   2.
 NSaved= 2 IEnMin= 2 EnMin= -979.652474342034     IErMin= 2 ErrMin= 2.06D-02
 ErrMax= 2.06D-02  0.00D+00 EMaxC= 1.00D+00 BMatC= 7.42D-01 BMatP= 1.59D+00
 IDIUse=1 WtCom= 1.00D+00 WtEn= 0.00D+00
 Coeff-Com: -0.193D+01 0.293D+01
 Coeff:     -0.193D+01 0.293D+01
 Gap=     0.309 Goal=   None    Shift=    0.500
 T= 1434. Gap= 0.781 NK=0 IS=   86 IE=  589 IFin=   85
          NO(<0.9)=   0  NV(>0.1)=   0     85.00e < EF      0.00e >EF  Err=0.0D+00
 Gap=     0.201 Goal=   None    Shift=    0.500
 T= 1434. Gap= 0.663 NK=0 IS=   85 IE=  589 IFin=   84
          NO(<0.9)=   0  NV(>0.1)=   0     84.00e < EF      0.00e >EF  Err=0.0D+00
 GapD=    0.201 DampG=1.000 DampE=0.500 DampFc=0.5000 IDamp=-1.
 Damping current iteration by 5.00D-01
 RMSDP=1.99D-03 MaxDP=7.63D-02 DE=-1.43D-01 OVMax= 3.09D-02

 Cycle   3  Pass 1  IDiag  1:
 E= -979.800717865737     Delta-E=       -0.148243523703 Rises=F Damp=T
 DIIS: error= 9.54D-03 at cycle   3 NSaved=   3.
 NSaved= 3 IEnMin= 3 EnMin= -979.800717865737     IErMin= 3 ErrMin= 9.54D-03
 ErrMax= 9.54D-03  0.00D+00 EMaxC= 1.00D+00 BMatC= 1.47D-01 BMatP= 7.42D-01
 IDIUse=1 WtCom= 1.00D+00 WtEn= 0.00D+00
 Coeff-Com:  0.749D-01-0.906D+00 0.183D+01
 Coeff:      0.749D-01-0.906D+00 0.183D+01
 Gap=     0.291 Goal=   None    Shift=    0.500
 T= 1257. Gap= 0.790 NK=4 IS=   86 IE=   96 IFin=   85
          NO(<0.9)=   0  NV(>0.1)=   0     85.00e < EF      0.00e >EF  Err=0.0D+00
 Gap=     0.161 Goal=   None    Shift=    0.500
 T= 1257. Gap= 0.661 NK=4 IS=   85 IE=   94 IFin=   84
          NO(<0.9)=   0  NV(>0.1)=   0     84.00e < EF      0.00e >EF  Err=0.0D+00
 GapD=    0.161 DampG=1.000 DampE=1.000 DampFc=1.0000 IDamp=-1.
 RMSDP=1.03D-03 MaxDP=4.20D-02 DE=-1.48D-01 OVMax= 1.09D-02

 Cycle   4  Pass 1  IDiag  1:
 E= -979.904195739035     Delta-E=       -0.103477873298 Rises=F Damp=F
 DIIS: error= 1.29D-03 at cycle   4 NSaved=   4.
 NSaved= 4 IEnMin= 4 EnMin= -979.904195739035     IErMin= 4 ErrMin= 1.29D-03
 ErrMax= 1.29D-03  0.00D+00 EMaxC= 1.00D+00 BMatC= 3.09D-03 BMatP= 1.47D-01
 IDIUse=1 WtCom= 1.00D+00 WtEn= 0.00D+00
 Coeff-Com:  0.183D+00-0.284D+00 0.132D+00 0.970D+00
 Coeff:      0.183D+00-0.284D+00 0.132D+00 0.970D+00
 Gap=     0.290 Goal=   None    Shift=    0.500
 T=  866. Gap= 0.790 NK=4 IS=   86 IE=   96 IFin=   85
          NO(<0.9)=   0  NV(>0.1)=   0     85.00e < EF      0.00e >EF  Err=0.0D+00
 Gap=     0.165 Goal=   None    Shift=    0.500
 T=  866. Gap= 0.665 NK=4 IS=   85 IE=   94 IFin=   84
          NO(<0.9)=   0  NV(>0.1)=   0     84.00e < EF      0.00e >EF  Err=0.0D+00
 GapD=    0.165 DampG=1.000 DampE=1.000 DampFc=1.0000 IDamp=-1.
 RMSDP=1.28D-04 MaxDP=5.93D-03 DE=-1.03D-01 OVMax= 8.35D-03

 Cycle   5  Pass 1  IDiag  1:
 E= -979.905286776941     Delta-E=       -0.001091037906 Rises=F Damp=F
 DIIS: error= 9.98D-04 at cycle   5 NSaved=   5.
 NSaved= 5 IEnMin= 5 EnMin= -979.905286776941     IErMin= 5 ErrMin= 9.98D-04
 ErrMax= 9.98D-04  0.00D+00 EMaxC= 1.00D+00 BMatC= 6.49D-04 BMatP= 3.09D-03
 IDIUse=1 WtCom= 1.00D+00 WtEn= 0.00D+00
 Coeff-Com:  0.118D-01 0.616D-01-0.173D+00-0.376D+00 0.148D+01
 Coeff:      0.118D-01 0.616D-01-0.173D+00-0.376D+00 0.148D+01
 Gap=     0.293 Goal=   None    Shift=    0.500
 Gap=     0.168 Goal=   None    Shift=    0.500
 RMSDP=9.43D-05 MaxDP=4.10D-03 DE=-1.09D-03 OVMax= 6.53D-03

 Cycle   6  Pass 1  IDiag  1:
 E= -979.905743604371     Delta-E=       -0.000456827430 Rises=F Damp=F
 DIIS: error= 8.01D-04 at cycle   6 NSaved=   6.
 NSaved= 6 IEnMin= 6 EnMin= -979.905743604371     IErMin= 6 ErrMin= 8.01D-04
 ErrMax= 8.01D-04  0.00D+00 EMaxC= 1.00D+00 BMatC= 2.11D-04 BMatP= 6.49D-04
 IDIUse=1 WtCom= 1.00D+00 WtEn= 0.00D+00
 Coeff-Com: -0.569D-01 0.101D+00-0.694D-01-0.386D+00 0.421D-01 0.137D+01
 Coeff:     -0.569D-01 0.101D+00-0.694D-01-0.386D+00 0.421D-01 0.137D+01
 Gap=     0.293 Goal=   None    Shift=    0.500
 Gap=     0.169 Goal=   None    Shift=    0.500
 RMSDP=5.47D-05 MaxDP=1.82D-03 DE=-4.57D-04 OVMax= 5.18D-03

 Cycle   7  Pass 1  IDiag  1:
 E= -979.905975500842     Delta-E=       -0.000231896472 Rises=F Damp=F
 DIIS: error= 5.08D-04 at cycle   7 NSaved=   7.
 NSaved= 7 IEnMin= 7 EnMin= -979.905975500842     IErMin= 7 ErrMin= 5.08D-04
 ErrMax= 5.08D-04  0.00D+00 EMaxC= 1.00D+00 BMatC= 9.45D-05 BMatP= 2.11D-04
 IDIUse=1 WtCom= 1.00D+00 WtEn= 0.00D+00
 Coeff-Com: -0.135D-01 0.133D-02 0.324D-01 0.123D+00-0.540D+00-0.790D+00
 Coeff-Com:  0.219D+01
 Coeff:     -0.135D-01 0.133D-02 0.324D-01 0.123D+00-0.540D+00-0.790D+00
 Coeff:      0.219D+01
 Gap=     0.294 Goal=   None    Shift=    0.500
 Gap=     0.170 Goal=   None    Shift=    0.500
 RMSDP=3.81D-05 MaxDP=1.08D-03 DE=-2.32D-04 OVMax= 4.53D-03

 Cycle   8  Pass 1  IDiag  1:
 E= -979.906116374175     Delta-E=       -0.000140873332 Rises=F Damp=F
 DIIS: error= 3.40D-04 at cycle   8 NSaved=   8.
 NSaved= 8 IEnMin= 8 EnMin= -979.906116374175     IErMin= 8 ErrMin= 3.40D-04
 ErrMax= 3.40D-04  0.00D+00 EMaxC= 1.00D+00 BMatC= 4.67D-05 BMatP= 9.45D-05
 IDIUse=1 WtCom= 1.00D+00 WtEn= 0.00D+00
 Coeff-Com:  0.108D-01-0.174D-01 0.970D-02 0.130D+00-0.308D-01-0.768D+00
 Coeff-Com: -0.343D+00 0.201D+01
 Coeff:      0.108D-01-0.174D-01 0.970D-02 0.130D+00-0.308D-01-0.768D+00
 Coeff:     -0.343D+00 0.201D+01
 Gap=     0.294 Goal=   None    Shift=    0.500
 Gap=     0.171 Goal=   None    Shift=    0.500
 RMSDP=2.19D-05 MaxDP=6.35D-04 DE=-1.41D-04 OVMax= 3.52D-03

 Cycle   9  Pass 1  IDiag  1:
 E= -979.906194177537     Delta-E=       -0.000077803362 Rises=F Damp=F
 DIIS: error= 2.56D-04 at cycle   9 NSaved=   9.
 NSaved= 9 IEnMin= 9 EnMin= -979.906194177537     IErMin= 9 ErrMin= 2.56D-04
 ErrMax= 2.56D-04  0.00D+00 EMaxC= 1.00D+00 BMatC= 2.40D-05 BMatP= 4.67D-05
 IDIUse=1 WtCom= 1.00D+00 WtEn= 0.00D+00
 Coeff-Com:  0.705D-02-0.359D-02-0.102D-01-0.102D-01 0.270D+00-0.142D+00
 Coeff-Com: -0.102D+01 0.510D-01 0.186D+01
 Coeff:      0.705D-02-0.359D-02-0.102D-01-0.102D-01 0.270D+00-0.142D+00
 Coeff:     -0.102D+01 0.510D-01 0.186D+01
 Gap=     0.294 Goal=   None    Shift=    0.500
 Gap=     0.172 Goal=   None    Shift=    0.500
 RMSDP=1.45D-05 MaxDP=4.03D-04 DE=-7.78D-05 OVMax= 2.77D-03

 Cycle  10  Pass 1  IDiag  1:
 E= -979.906236952801     Delta-E=       -0.000042775264 Rises=F Damp=F
 DIIS: error= 2.08D-04 at cycle  10 NSaved=  10.
 NSaved=10 IEnMin=10 EnMin= -979.906236952801     IErMin=10 ErrMin= 2.08D-04
 ErrMax= 2.08D-04  0.00D+00 EMaxC= 1.00D+00 BMatC= 1.26D-05 BMatP= 2.40D-05
 IDIUse=1 WtCom= 1.00D+00 WtEn= 0.00D+00
 Coeff-Com: -0.631D-02 0.865D-02-0.197D-02-0.859D-01 0.101D+00 0.331D+00
 Coeff-Com:  0.119D+00-0.151D+01-0.441D+00 0.249D+01
 Coeff:     -0.631D-02 0.865D-02-0.197D-02-0.859D-01 0.101D+00 0.331D+00
 Coeff:      0.119D+00-0.151D+01-0.441D+00 0.249D+01
 Gap=     0.294 Goal=   None    Shift=    0.500
 Gap=     0.172 Goal=   None    Shift=    0.500
 RMSDP=1.11D-05 MaxDP=3.13D-04 DE=-4.28D-05 OVMax= 2.31D-03

 Cycle  11  Pass 1  IDiag  1:
 E= -979.906261213477     Delta-E=       -0.000024260676 Rises=F Damp=F
 DIIS: error= 1.74D-04 at cycle  11 NSaved=  11.
 NSaved=11 IEnMin=11 EnMin= -979.906261213477     IErMin=11 ErrMin= 1.74D-04
 ErrMax= 1.74D-04  0.00D+00 EMaxC= 1.00D+00 BMatC= 6.45D-06 BMatP= 1.26D-05
 IDIUse=1 WtCom= 1.00D+00 WtEn= 0.00D+00
 Coeff-Com: -0.400D-02 0.578D-03 0.848D-02-0.317D-01-0.802D-01 0.175D+00
 Coeff-Com:  0.531D+00-0.800D+00-0.878D+00 0.319D+00 0.176D+01
 Coeff:     -0.400D-02 0.578D-03 0.848D-02-0.317D-01-0.802D-01 0.175D+00
 Coeff:      0.531D+00-0.800D+00-0.878D+00 0.319D+00 0.176D+01
 Gap=     0.294 Goal=   None    Shift=    0.500
 Gap=     0.172 Goal=   None    Shift=    0.500
 RMSDP=7.61D-06 MaxDP=2.00D-04 DE=-2.43D-05 OVMax= 1.65D-03

 Cycle  12  Pass 1  IDiag  1:
 E= -979.906272726950     Delta-E=       -0.000011513473 Rises=F Damp=F
 DIIS: error= 1.35D-04 at cycle  12 NSaved=  12.
 NSaved=12 IEnMin=12 EnMin= -979.906272726950     IErMin=12 ErrMin= 1.35D-04
 ErrMax= 1.35D-04  0.00D+00 EMaxC= 1.00D+00 BMatC= 3.31D-06 BMatP= 6.45D-06
 IDIUse=1 WtCom= 1.00D+00 WtEn= 0.00D+00
 Coeff-Com:  0.280D-02-0.749D-02 0.805D-02 0.338D-01-0.105D+00-0.985D-01
 Coeff-Com:  0.203D+00 0.459D+00-0.174D+00-0.136D+01-0.251D+00 0.229D+01
 Coeff:      0.280D-02-0.749D-02 0.805D-02 0.338D-01-0.105D+00-0.985D-01
 Coeff:      0.203D+00 0.459D+00-0.174D+00-0.136D+01-0.251D+00 0.229D+01
 Gap=     0.294 Goal=   None    Shift=    0.500
 Gap=     0.172 Goal=   None    Shift=    0.500
 RMSDP=5.98D-06 MaxDP=1.63D-04 DE=-1.15D-05 OVMax= 1.25D-03

 Cycle  13  Pass 1  IDiag  1:
 E= -979.906278386270     Delta-E=       -0.000005659320 Rises=F Damp=F
 DIIS: error= 1.07D-04 at cycle  13 NSaved=  13.
 NSaved=13 IEnMin=13 EnMin= -979.906278386270     IErMin=13 ErrMin= 1.07D-04
 ErrMax= 1.07D-04  0.00D+00 EMaxC= 1.00D+00 BMatC= 1.74D-06 BMatP= 3.31D-06
 IDIUse=1 WtCom= 1.00D+00 WtEn= 0.00D+00
 Coeff-Com:  0.255D-02-0.250D-02-0.139D-02 0.126D-01 0.275D-01-0.791D-01
 Coeff-Com: -0.217D+00 0.395D+00 0.436D+00-0.323D+00-0.150D+01 0.809D-02
 Coeff-Com:  0.224D+01
 Coeff:      0.255D-02-0.250D-02-0.139D-02 0.126D-01 0.275D-01-0.791D-01
 Coeff:     -0.217D+00 0.395D+00 0.436D+00-0.323D+00-0.150D+01 0.809D-02
 Coeff:      0.224D+01
 Gap=     0.294 Goal=   None    Shift=    0.500
 Gap=     0.172 Goal=   None    Shift=    0.500
 RMSDP=4.36D-06 MaxDP=1.17D-04 DE=-5.66D-06 OVMax= 9.13D-04

 Cycle  14  Pass 1  IDiag  1:
 E= -979.906280986265     Delta-E=       -0.000002599995 Rises=F Damp=F
 DIIS: error= 8.38D-05 at cycle  14 NSaved=  14.
 NSaved=14 IEnMin=14 EnMin= -979.906280986265     IErMin=14 ErrMin= 8.38D-05
 ErrMax= 8.38D-05  0.00D+00 EMaxC= 1.00D+00 BMatC= 8.22D-07 BMatP= 1.74D-06
 IDIUse=1 WtCom= 1.00D+00 WtEn= 0.00D+00
 Coeff-Com:  0.214D-03 0.115D-02-0.292D-02-0.948D-02 0.508D-01 0.421D-02
 Coeff-Com: -0.148D+00-0.606D-01 0.309D+00 0.411D+00-0.777D+00-0.681D+00
 Coeff-Com:  0.613D-01 0.184D+01
 Coeff:      0.214D-03 0.115D-02-0.292D-02-0.948D-02 0.508D-01 0.421D-02
 Coeff:     -0.148D+00-0.606D-01 0.309D+00 0.411D+00-0.777D+00-0.681D+00
 Coeff:      0.613D-01 0.184D+01
 Gap=     0.294 Goal=   None    Shift=    0.500
 Gap=     0.172 Goal=   None    Shift=    0.500
 RMSDP=2.88D-06 MaxDP=7.97D-05 DE=-2.60D-06 OVMax= 6.32D-04

 Cycle  15  Pass 1  IDiag  1:
 E= -979.906282091171     Delta-E=       -0.000001104906 Rises=F Damp=F
 DIIS: error= 6.70D-05 at cycle  15 NSaved=  15.
 NSaved=15 IEnMin=15 EnMin= -979.906282091171     IErMin=15 ErrMin= 6.70D-05
 ErrMax= 6.70D-05  0.00D+00 EMaxC= 1.00D+00 BMatC= 3.94D-07 BMatP= 8.22D-07
 IDIUse=1 WtCom= 1.00D+00 WtEn= 0.00D+00
 Coeff-Com: -0.105D-02 0.136D-02-0.842D-04-0.955D-02 0.235D-02 0.430D-01
 Coeff-Com:  0.715D-01-0.264D+00-0.641D-01 0.305D+00 0.417D+00-0.225D+00
 Coeff-Com: -0.137D+01 0.620D-01 0.204D+01
 Coeff:     -0.105D-02 0.136D-02-0.842D-04-0.955D-02 0.235D-02 0.430D-01
 Coeff:      0.715D-01-0.264D+00-0.641D-01 0.305D+00 0.417D+00-0.225D+00
 Coeff:     -0.137D+01 0.620D-01 0.204D+01
 Gap=     0.294 Goal=   None    Shift=    0.500
 Gap=     0.172 Goal=   None    Shift=    0.500
 RMSDP=2.01D-06 MaxDP=7.51D-05 DE=-1.10D-06 OVMax= 4.69D-04

 Cycle  16  Pass 1  IDiag  1:
 E= -979.906282626660     Delta-E=       -0.000000535489 Rises=F Damp=F
 DIIS: error= 5.39D-05 at cycle  16 NSaved=  16.
 NSaved=16 IEnMin=16 EnMin= -979.906282626660     IErMin=16 ErrMin= 5.39D-05
 ErrMax= 5.39D-05  0.00D+00 EMaxC= 1.00D+00 BMatC= 1.89D-07 BMatP= 3.94D-07
 IDIUse=1 WtCom= 1.00D+00 WtEn= 0.00D+00
 Coeff-Com: -0.155D-03-0.133D-03 0.711D-03 0.344D-02-0.180D-01 0.167D-02
 Coeff-Com:  0.555D-01-0.140D-01-0.609D-01-0.166D+00 0.300D+00 0.208D+00
 Coeff-Com: -0.303D+00-0.560D+00-0.631D+00 0.218D+01
 Coeff:     -0.155D-03-0.133D-03 0.711D-03 0.344D-02-0.180D-01 0.167D-02
 Coeff:      0.555D-01-0.140D-01-0.609D-01-0.166D+00 0.300D+00 0.208D+00
 Coeff:     -0.303D+00-0.560D+00-0.631D+00 0.218D+01
 Gap=     0.294 Goal=   None    Shift=    0.500
 Gap=     0.172 Goal=   None    Shift=    0.500
 RMSDP=1.38D-06 MaxDP=4.37D-05 DE=-5.35D-07 OVMax= 3.65D-04

 Cycle  17  Pass 1  IDiag  1:
 E= -979.906282909653     Delta-E=       -0.000000282992 Rises=F Damp=F
 DIIS: error= 4.36D-05 at cycle  17 NSaved=  17.
 NSaved=17 IEnMin=17 EnMin= -979.906282909653     IErMin=17 ErrMin= 4.36D-05
 ErrMax= 4.36D-05  0.00D+00 EMaxC= 1.00D+00 BMatC= 1.02D-07 BMatP= 1.89D-07
 IDIUse=1 WtCom= 1.00D+00 WtEn= 0.00D+00
 Coeff-Com:  0.434D-03-0.696D-03 0.319D-03 0.550D-02-0.666D-02-0.197D-01
 Coeff-Com: -0.215D-01 0.120D+00 0.457D-01-0.234D+00-0.133D+00 0.219D+00
 Coeff-Com:  0.549D+00-0.229D+00-0.141D+01-0.511D-01 0.216D+01
 Coeff:      0.434D-03-0.696D-03 0.319D-03 0.550D-02-0.666D-02-0.197D-01
 Coeff:     -0.215D-01 0.120D+00 0.457D-01-0.234D+00-0.133D+00 0.219D+00
 Coeff:      0.549D+00-0.229D+00-0.141D+01-0.511D-01 0.216D+01
 Gap=     0.294 Goal=   None    Shift=    0.500
 Gap=     0.172 Goal=   None    Shift=    0.500
 RMSDP=1.00D-06 MaxDP=3.68D-05 DE=-2.83D-07 OVMax= 2.93D-04

 Cycle  18  Pass 1  IDiag  1:
 E= -979.906283081006     Delta-E=       -0.000000171353 Rises=F Damp=F
 DIIS: error= 3.56D-05 at cycle  18 NSaved=  18.
 NSaved=18 IEnMin=18 EnMin= -979.906283081006     IErMin=18 ErrMin= 3.56D-05
 ErrMax= 3.56D-05  0.00D+00 EMaxC= 1.00D+00 BMatC= 6.30D-08 BMatP= 1.02D-07
 IDIUse=1 WtCom= 1.00D+00 WtEn= 0.00D+00
 Coeff-Com:  0.224D-03-0.168D-03-0.292D-03-0.330D-02 0.142D-01 0.201D-02
 Coeff-Com: -0.445D-01-0.402D-02 0.944D-01 0.859D-01-0.275D+00-0.761D-01
 Coeff-Com:  0.142D+00 0.503D+00 0.351D+00-0.216D+01-0.498D+00 0.287D+01
 Coeff:      0.224D-03-0.168D-03-0.292D-03-0.330D-02 0.142D-01 0.201D-02
 Coeff:     -0.445D-01-0.402D-02 0.944D-01 0.859D-01-0.275D+00-0.761D-01
 Coeff:      0.142D+00 0.503D+00 0.351D+00-0.216D+01-0.498D+00 0.287D+01
 Gap=     0.294 Goal=   None    Shift=    0.500
 Gap=     0.172 Goal=   None    Shift=    0.500
 RMSDP=9.09D-07 MaxDP=3.39D-05 DE=-1.71D-07 OVMax= 2.61D-04

 SCF Done:  E(ULC-wHPBE) =  -979.906283081     A.U. after   18 cycles
            NFock= 18  Conv=0.91D-06     -V/T= 2.0050
 <Sx>= 0.0000 <Sy>= 0.0000 <Sz>= 0.5000 <S**2>= 0.7761 S= 0.5129
 <L.S>= 0.000000000000E+00
 KE= 9.750234063672D+02 PE=-6.064209641913D+03 EE= 2.203783999186D+03
 Annihilation of the first spin contaminant:
 S**2 before annihilation     0.7761,   after     0.7506
 Leave Link  502 at Sun Jan 17 12:05:58 2021, MaxMem=  4026531840 cpu:            7497.5 elap:             939.6
 (Enter /opt/ohpc/pub/libs/gaussian/g16-A.03/sandybridge/g16/l508.exe)
 QCSCF skips out because SCF is already converged.
 Leave Link  508 at Sun Jan 17 12:05:59 2021, MaxMem=  4026531840 cpu:               0.1 elap:               0.0
 (Enter /opt/ohpc/pub/libs/gaussian/g16-A.03/sandybridge/g16/l601.exe)
 Copying SCF densities to generalized density rwf, IOpCl= 1 IROHF=0.

 **********************************************************************

            Population analysis using the SCF density.

 **********************************************************************

 Orbital symmetries:
 Alpha Orbitals:
       Occupied  (A) (A) (A) (A) (A) (A) (A) (A) (A) (A) (A) (A)
                 (A) (A) (A) (A) (A) (A) (A) (A) (A) (A) (A) (A)
                 (A) (A) (A) (A) (A) (A) (A) (A) (A) (A) (A) (A)
                 (A) (A) (A) (A) (A) (A) (A) (A) (A) (A) (A) (A)
                 (A) (A) (A) (A) (A) (A) (A) (A) (A) (A) (A) (A)
                 (A) (A) (A) (A) (A) (A) (A) (A) (A) (A) (A) (A)
                 (A) (A) (A) (A) (A) (A) (A) (A) (A) (A) (A) (A)
                 (A)
       Virtual   (A) (A) (A) (A) (A) (A) (A) (A) (A) (A) (A) (A)
                 (A) (A) (A) (A) (A) (A) (A) (A) (A) (A) (A) (A)
                 (A) (A) (A) (A) (A) (A) (A) (A) (A) (A) (A) (A)
                 (A) (A) (A) (A) (A) (A) (A) (A) (A) (A) (A) (A)
                 (A) (A) (A) (A) (A) (A) (A) (A) (A) (A) (A) (A)
                 (A) (A) (A) (A) (A) (A) (A) (A) (A) (A) (A) (A)
                 (A) (A) (A) (A) (A) (A) (A) (A) (A) (A) (A) (A)
                 (A) (A) (A) (A) (A) (A) (A) (A) (A) (A) (A) (A)
                 (A) (A) (A) (A) (A) (A) (A) (A) (A) (A) (A) (A)
                 (A) (A) (A) (A) (A) (A) (A) (A) (A) (A) (A) (A)
                 (A) (A) (A) (A) (A) (A) (A) (A) (A) (A) (A) (A)
                 (A) (A) (A) (A) (A) (A) (A) (A) (A) (A) (A) (A)
                 (A) (A) (A) (A) (A) (A) (A) (A) (A) (A) (A) (A)
                 (A) (A) (A) (A) (A) (A) (A) (A) (A) (A) (A) (A)
                 (A) (A) (A) (A) (A) (A) (A) (A) (A) (A) (A) (A)
                 (A) (A) (A) (A) (A) (A) (A) (A) (A) (A) (A) (A)
                 (A) (A) (A) (A) (A) (A) (A) (A) (A) (A) (A) (A)
                 (A) (A) (A) (A) (A) (A) (A) (A) (A) (A) (A) (A)
                 (A) (A) (A) (A) (A) (A) (A) (A) (A) (A) (A) (A)
                 (A) (A) (A) (A) (A) (A) (A) (A) (A) (A) (A) (A)
                 (A) (A) (A) (A) (A) (A) (A) (A) (A) (A) (A) (A)
                 (A) (A) (A) (A) (A) (A) (A) (A) (A) (A) (A) (A)
                 (A) (A) (A) (A) (A) (A) (A) (A) (A) (A) (A) (A)
                 (A) (A) (A) (A) (A) (A) (A) (A) (A) (A) (A) (A)
                 (A) (A) (A) (A) (A) (A) (A) (A) (A) (A) (A) (A)
                 (A) (A) (A) (A) (A) (A) (A) (A) (A) (A) (A) (A)
                 (A) (A) (A) (A) (A) (A) (A) (A) (A) (A) (A) (A)
                 (A) (A) (A) (A) (A) (A) (A) (A) (A) (A) (A) (A)
                 (A) (A) (A) (A) (A) (A) (A) (A) (A) (A) (A) (A)
                 (A) (A) (A) (A) (A) (A) (A) (A) (A) (A) (A) (A)
                 (A) (A) (A) (A) (A) (A) (A) (A) (A) (A) (A) (A)
                 (A) (A) (A) (A) (A) (A) (A) (A) (A) (A) (A) (A)
                 (A) (A) (A) (A) (A) (A) (A) (A) (A) (A) (A) (A)
                 (A) (A) (A) (A) (A) (A) (A) (A) (A) (A) (A) (A)
                 (A) (A) (A) (A) (A) (A) (A) (A) (A) (A) (A) (A)
                 (A) (A) (A) (A) (A) (A) (A) (A) (A) (A) (A) (A)
                 (A) (A) (A) (A) (A) (A) (A) (A) (A) (A) (A) (A)
                 (A) (A) (A) (A) (A) (A) (A) (A) (A) (A) (A) (A)
                 (A) (A) (A) (A) (A) (A) (A) (A) (A) (A) (A) (A)
                 (A) (A) (A) (A) (A) (A) (A) (A) (A) (A) (A) (A)
                 (A) (A) (A) (A) (A) (A) (A) (A) (A) (A) (A) (A)
                 (A) (A) (A) (A) (A) (A) (A) (A) (A) (A) (A) (A)
 Beta  Orbitals:
       Occupied  (A) (A) (A) (A) (A) (A) (A) (A) (A) (A) (A) (A)
                 (A) (A) (A) (A) (A) (A) (A) (A) (A) (A) (A) (A)
                 (A) (A) (A) (A) (A) (A) (A) (A) (A) (A) (A) (A)
                 (A) (A) (A) (A) (A) (A) (A) (A) (A) (A) (A) (A)
                 (A) (A) (A) (A) (A) (A) (A) (A) (A) (A) (A) (A)
                 (A) (A) (A) (A) (A) (A) (A) (A) (A) (A) (A) (A)
                 (A) (A) (A) (A) (A) (A) (A) (A) (A) (A) (A) (A)
       Virtual   (A) (A) (A) (A) (A) (A) (A) (A) (A) (A) (A) (A)
                 (A) (A) (A) (A) (A) (A) (A) (A) (A) (A) (A) (A)
                 (A) (A) (A) (A) (A) (A) (A) (A) (A) (A) (A) (A)
                 (A) (A) (A) (A) (A) (A) (A) (A) (A) (A) (A) (A)
                 (A) (A) (A) (A) (A) (A) (A) (A) (A) (A) (A) (A)
                 (A) (A) (A) (A) (A) (A) (A) (A) (A) (A) (A) (A)
                 (A) (A) (A) (A) (A) (A) (A) (A) (A) (A) (A) (A)
                 (A) (A) (A) (A) (A) (A) (A) (A) (A) (A) (A) (A)
                 (A) (A) (A) (A) (A) (A) (A) (A) (A) (A) (A) (A)
                 (A) (A) (A) (A) (A) (A) (A) (A) (A) (A) (A) (A)
                 (A) (A) (A) (A) (A) (A) (A) (A) (A) (A) (A) (A)
                 (A) (A) (A) (A) (A) (A) (A) (A) (A) (A) (A) (A)
                 (A) (A) (A) (A) (A) (A) (A) (A) (A) (A) (A) (A)
                 (A) (A) (A) (A) (A) (A) (A) (A) (A) (A) (A) (A)
                 (A) (A) (A) (A) (A) (A) (A) (A) (A) (A) (A) (A)
                 (A) (A) (A) (A) (A) (A) (A) (A) (A) (A) (A) (A)
                 (A) (A) (A) (A) (A) (A) (A) (A) (A) (A) (A) (A)
                 (A) (A) (A) (A) (A) (A) (A) (A) (A) (A) (A) (A)
                 (A) (A) (A) (A) (A) (A) (A) (A) (A) (A) (A) (A)
                 (A) (A) (A) (A) (A) (A) (A) (A) (A) (A) (A) (A)
                 (A) (A) (A) (A) (A) (A) (A) (A) (A) (A) (A) (A)
                 (A) (A) (A) (A) (A) (A) (A) (A) (A) (A) (A) (A)
                 (A) (A) (A) (A) (A) (A) (A) (A) (A) (A) (A) (A)
                 (A) (A) (A) (A) (A) (A) (A) (A) (A) (A) (A) (A)
                 (A) (A) (A) (A) (A) (A) (A) (A) (A) (A) (A) (A)
                 (A) (A) (A) (A) (A) (A) (A) (A) (A) (A) (A) (A)
                 (A) (A) (A) (A) (A) (A) (A) (A) (A) (A) (A) (A)
                 (A) (A) (A) (A) (A) (A) (A) (A) (A) (A) (A) (A)
                 (A) (A) (A) (A) (A) (A) (A) (A) (A) (A) (A) (A)
                 (A) (A) (A) (A) (A) (A) (A) (A) (A) (A) (A) (A)
                 (A) (A) (A) (A) (A) (A) (A) (A) (A) (A) (A) (A)
                 (A) (A) (A) (A) (A) (A) (A) (A) (A) (A) (A) (A)
                 (A) (A) (A) (A) (A) (A) (A) (A) (A) (A) (A) (A)
                 (A) (A) (A) (A) (A) (A) (A) (A) (A) (A) (A) (A)
                 (A) (A) (A) (A) (A) (A) (A) (A) (A) (A) (A) (A)
                 (A) (A) (A) (A) (A) (A) (A) (A) (A) (A) (A) (A)
                 (A) (A) (A) (A) (A) (A) (A) (A) (A) (A) (A) (A)
                 (A) (A) (A) (A) (A) (A) (A) (A) (A) (A) (A) (A)
                 (A) (A) (A) (A) (A) (A) (A) (A) (A) (A) (A) (A)
                 (A) (A) (A) (A) (A) (A) (A) (A) (A) (A) (A) (A)
                 (A) (A) (A) (A) (A) (A) (A) (A) (A) (A) (A) (A)
                 (A) (A) (A) (A) (A) (A) (A) (A) (A) (A) (A) (A)
                 (A)
 The electronic state is 2-A.
 Alpha  occ. eigenvalues --  -14.35128 -10.20400 -10.20186 -10.20184 -10.16156
 Alpha  occ. eigenvalues --  -10.15835 -10.15833 -10.15640 -10.15639 -10.15594
 Alpha  occ. eigenvalues --  -10.15594 -10.14739 -10.14739 -10.14491 -10.14489
 Alpha  occ. eigenvalues --  -10.14449 -10.14449 -10.14440 -10.14440 -10.12660
 Alpha  occ. eigenvalues --  -10.11154 -10.11152 -10.10467 -10.10417 -10.10402
 Alpha  occ. eigenvalues --   -1.19537  -1.06073  -1.05628  -1.03880  -1.01133
 Alpha  occ. eigenvalues --   -0.96876  -0.96304  -0.94264  -0.94260  -0.94069
 Alpha  occ. eigenvalues --   -0.92317  -0.89913  -0.89059  -0.83878  -0.83619
 Alpha  occ. eigenvalues --   -0.81220  -0.80381  -0.80260  -0.77624  -0.76189
 Alpha  occ. eigenvalues --   -0.75617  -0.74684  -0.74554  -0.70558  -0.69310
 Alpha  occ. eigenvalues --   -0.68807  -0.68608  -0.65835  -0.65785  -0.65441
 Alpha  occ. eigenvalues --   -0.63698  -0.63563  -0.62930  -0.62654  -0.62276
 Alpha  occ. eigenvalues --   -0.62084  -0.61629  -0.60596  -0.59963  -0.59151
 Alpha  occ. eigenvalues --   -0.59092  -0.57937  -0.56816  -0.56433  -0.56010
 Alpha  occ. eigenvalues --   -0.55679  -0.54639  -0.54130  -0.54045  -0.53013
 Alpha  occ. eigenvalues --   -0.50766  -0.50104  -0.48172  -0.47816  -0.47492
 Alpha  occ. eigenvalues --   -0.46283  -0.46220  -0.43100  -0.42376  -0.40387
 Alpha virt. eigenvalues --   -0.10963  -0.10211  -0.10058  -0.07841  -0.07688
 Alpha virt. eigenvalues --   -0.06442  -0.04553  -0.03083  -0.00625   0.00972
 Alpha virt. eigenvalues --    0.01306   0.02605   0.02704   0.03447   0.03549
 Alpha virt. eigenvalues --    0.04089   0.04774   0.05655   0.05677   0.06241
 Alpha virt. eigenvalues --    0.06544   0.06562   0.06783   0.07246   0.07824
 Alpha virt. eigenvalues --    0.08522   0.08823   0.09137   0.09685   0.10886
 Alpha virt. eigenvalues --    0.10910   0.11329   0.11891   0.13056   0.13134
 Alpha virt. eigenvalues --    0.13547   0.14238   0.14297   0.14604   0.14691
 Alpha virt. eigenvalues --    0.15647   0.16057   0.16844   0.16866   0.17357
 Alpha virt. eigenvalues --    0.17771   0.17782   0.18276   0.18695   0.18714
 Alpha virt. eigenvalues --    0.18867   0.19104   0.19547   0.19770   0.20636
 Alpha virt. eigenvalues --    0.20873   0.21053   0.21639   0.22164   0.22333
 Alpha virt. eigenvalues --    0.22452   0.22728   0.22802   0.23239   0.23616
 Alpha virt. eigenvalues --    0.24076   0.24794   0.24891   0.25707   0.26349
 Alpha virt. eigenvalues --    0.26544   0.26552   0.27003   0.27179   0.28134
 Alpha virt. eigenvalues --    0.28930   0.29141   0.29792   0.30328   0.30351
 Alpha virt. eigenvalues --    0.30870   0.31240   0.31329   0.32167   0.32744
 Alpha virt. eigenvalues --    0.33075   0.33172   0.33485   0.33662   0.33843
 Alpha virt. eigenvalues --    0.34063   0.34494   0.35372   0.35639   0.35844
 Alpha virt. eigenvalues --    0.36200   0.37012   0.37287   0.37676   0.37950
 Alpha virt. eigenvalues --    0.38010   0.38174   0.38457   0.39128   0.39543
 Alpha virt. eigenvalues --    0.39729   0.40196   0.40663   0.40895   0.40973
 Alpha virt. eigenvalues --    0.41061   0.41583   0.42413   0.42648   0.43040
 Alpha virt. eigenvalues --    0.43102   0.43325   0.43911   0.44371   0.44617
 Alpha virt. eigenvalues --    0.45245   0.45313   0.45799   0.46352   0.46630
 Alpha virt. eigenvalues --    0.47230   0.48030   0.48138   0.48406   0.49342
 Alpha virt. eigenvalues --    0.49860   0.50182   0.50222   0.50463   0.51820
 Alpha virt. eigenvalues --    0.52426   0.52523   0.54553   0.55228   0.55709
 Alpha virt. eigenvalues --    0.56494   0.57075   0.58306   0.58583   0.59823
 Alpha virt. eigenvalues --    0.60721   0.60939   0.62114   0.62519   0.63224
 Alpha virt. eigenvalues --    0.63458   0.63507   0.63632   0.64074   0.65035
 Alpha virt. eigenvalues --    0.65607   0.66371   0.66663   0.67094   0.67554
 Alpha virt. eigenvalues --    0.68486   0.69294   0.70548   0.70704   0.71784
 Alpha virt. eigenvalues --    0.71931   0.72379   0.74055   0.76141   0.77790
 Alpha virt. eigenvalues --    0.77798   0.79352   0.79611   0.80018   0.84960
 Alpha virt. eigenvalues --    0.85725   0.86562   0.87961   1.05489   1.07605
 Alpha virt. eigenvalues --    1.07959   1.12268   1.12809   1.14381   1.15053
 Alpha virt. eigenvalues --    1.15152   1.16092   1.16276   1.17683   1.17849
 Alpha virt. eigenvalues --    1.18054   1.18652   1.18926   1.19829   1.19833
 Alpha virt. eigenvalues --    1.20411   1.20710   1.21248   1.21360   1.21687
 Alpha virt. eigenvalues --    1.21989   1.22677   1.22797   1.23192   1.23338
 Alpha virt. eigenvalues --    1.24240   1.24339   1.24950   1.25424   1.25719
 Alpha virt. eigenvalues --    1.25973   1.26384   1.26551   1.27037   1.27895
 Alpha virt. eigenvalues --    1.27903   1.28432   1.30264   1.33554   1.33907
 Alpha virt. eigenvalues --    1.34555   1.34938   1.35515   1.35795   1.36012
 Alpha virt. eigenvalues --    1.36192   1.36278   1.36862   1.37069   1.37447
 Alpha virt. eigenvalues --    1.37660   1.38242   1.38540   1.38801   1.39099
 Alpha virt. eigenvalues --    1.39351   1.40132   1.40226   1.40620   1.40752
 Alpha virt. eigenvalues --    1.41514   1.41864   1.42075   1.42554   1.43271
 Alpha virt. eigenvalues --    1.43414   1.43719   1.43845   1.44031   1.44455
 Alpha virt. eigenvalues --    1.44777   1.46177   1.46499   1.46535   1.47020
 Alpha virt. eigenvalues --    1.47226   1.47260   1.47959   1.48536   1.48851
 Alpha virt. eigenvalues --    1.49204   1.49235   1.49398   1.50093   1.50179
 Alpha virt. eigenvalues --    1.50633   1.50934   1.52183   1.52416   1.53969
 Alpha virt. eigenvalues --    1.54505   1.56735   1.58181   1.58320   1.59582
 Alpha virt. eigenvalues --    1.59920   1.60843   1.62174   1.62571   1.66405
 Alpha virt. eigenvalues --    1.67222   1.67416   1.68372   1.68566   1.69511
 Alpha virt. eigenvalues --    1.69677   1.70401   1.70768   1.70941   1.71391
 Alpha virt. eigenvalues --    1.72196   1.73052   1.73298   1.73556   1.73663
 Alpha virt. eigenvalues --    1.73835   1.74359   1.75540   1.75934   1.76199
 Alpha virt. eigenvalues --    1.77705   1.79082   1.79710   1.80111   1.80521
 Alpha virt. eigenvalues --    1.80819   1.82624   1.82810   1.83124   1.83273
 Alpha virt. eigenvalues --    1.83545   1.83625   1.83646   1.84057   1.84549
 Alpha virt. eigenvalues --    1.84686   1.84836   1.85049   1.85640   1.85730
 Alpha virt. eigenvalues --    1.86390   1.87027   1.88640   1.89202   1.89573
 Alpha virt. eigenvalues --    1.89740   1.90437   1.90639   1.91224   1.91591
 Alpha virt. eigenvalues --    1.92705   1.94061   1.94684   1.95169   1.95687
 Alpha virt. eigenvalues --    1.96562   1.97245   1.98361   1.99543   2.02236
 Alpha virt. eigenvalues --    2.02644   2.03939   2.04977   2.05827   2.10100
 Alpha virt. eigenvalues --    2.10130   2.12470   2.13559   2.14237   2.17032
 Alpha virt. eigenvalues --    2.18380   2.20481   2.20579   2.21237   2.21637
 Alpha virt. eigenvalues --    2.21732   2.21964   2.22499   2.22690   2.23088
 Alpha virt. eigenvalues --    2.23325   2.24701   2.24968   2.25604   2.26189
 Alpha virt. eigenvalues --    2.26811   2.27402   2.27542   2.27856   2.28252
 Alpha virt. eigenvalues --    2.28256   2.28715   2.28862   2.29234   2.29804
 Alpha virt. eigenvalues --    2.31632   2.32408   2.34776   2.35914   2.36356
 Alpha virt. eigenvalues --    2.41082   2.41236   2.42478   2.42933   2.43405
 Alpha virt. eigenvalues --    2.43802   2.44551   2.44751   2.46001   2.46438
 Alpha virt. eigenvalues --    2.46591   2.48293   2.48447   2.50299   2.50718
 Alpha virt. eigenvalues --    2.53994   2.54339   2.55056   2.55217   2.55886
 Alpha virt. eigenvalues --    2.56116   2.57041   2.57390   2.57892   2.58439
 Alpha virt. eigenvalues --    2.59180   2.59253   2.59454   2.62520   2.63832
 Alpha virt. eigenvalues --    2.64951   2.65032   2.65232   2.66273   2.66730
 Alpha virt. eigenvalues --    2.68540   2.68571   2.70562   2.72750   2.74041
 Alpha virt. eigenvalues --    2.75186   2.75421   2.75595   2.76158   2.77244
 Alpha virt. eigenvalues --    2.81098   2.85227   2.85747   2.88847   2.90190
 Alpha virt. eigenvalues --    2.92839   2.93131   2.93893   2.94205   2.94926
 Alpha virt. eigenvalues --    2.95672   2.96473   2.96945   2.97927   2.98483
 Alpha virt. eigenvalues --    2.99438   3.00924   3.01425   3.02892   3.03079
 Alpha virt. eigenvalues --    3.04971   3.06075   3.07647   3.07966   3.08093
 Alpha virt. eigenvalues --    3.08625   3.10143   3.11129   3.11147   3.12359
 Alpha virt. eigenvalues --    3.12995   3.14591   3.14686   3.18876   3.20987
 Alpha virt. eigenvalues --    3.23509   3.24179   3.24708   3.28244   3.28506
 Alpha virt. eigenvalues --    3.31063   3.31899   3.34242   3.34807   3.43390
 Alpha virt. eigenvalues --    3.45286   3.46459   3.48028   3.48861   3.50210
 Alpha virt. eigenvalues --    3.68241   3.74208   3.80433   3.80993  21.00781
 Alpha virt. eigenvalues --   21.09342  21.11111  21.23513  21.53064  21.57000
 Alpha virt. eigenvalues --   21.59848  21.59971  21.63038  21.63163  21.68815
 Alpha virt. eigenvalues --   21.75565  21.79131  21.83291  21.85011  21.85684
 Alpha virt. eigenvalues --   21.86902  21.89290  21.91020  21.92279  21.96987
 Alpha virt. eigenvalues --   22.00938  22.02563  22.03710  31.86575
  Beta  occ. eigenvalues --  -14.34258 -10.20434 -10.20252 -10.20250 -10.15956
  Beta  occ. eigenvalues --  -10.15683 -10.15681 -10.15490 -10.15490 -10.15448
  Beta  occ. eigenvalues --  -10.15448 -10.14582 -10.14582 -10.14558 -10.14556
  Beta  occ. eigenvalues --  -10.14517 -10.14517 -10.14502 -10.14502 -10.12683
  Beta  occ. eigenvalues --  -10.11116 -10.11114 -10.10451 -10.10434 -10.10395
  Beta  occ. eigenvalues --   -1.18423  -1.05838  -1.05429  -1.03593  -1.01021
  Beta  occ. eigenvalues --   -0.96651  -0.96108  -0.94112  -0.94107  -0.93922
  Beta  occ. eigenvalues --   -0.91958  -0.89875  -0.88776  -0.83609  -0.83364
  Beta  occ. eigenvalues --   -0.80957  -0.80217  -0.80143  -0.77459  -0.76130
  Beta  occ. eigenvalues --   -0.75531  -0.74508  -0.74397  -0.70431  -0.69172
  Beta  occ. eigenvalues --   -0.68491  -0.67858  -0.65711  -0.65672  -0.65350
  Beta  occ. eigenvalues --   -0.63618  -0.63409  -0.62788  -0.62510  -0.62158
  Beta  occ. eigenvalues --   -0.62008  -0.61479  -0.60555  -0.59306  -0.58691
  Beta  occ. eigenvalues --   -0.58656  -0.57815  -0.56729  -0.55912  -0.55688
  Beta  occ. eigenvalues --   -0.55422  -0.54391  -0.54027  -0.53946  -0.51803
  Beta  occ. eigenvalues --   -0.50721  -0.49948  -0.47111  -0.46968  -0.46733
  Beta  occ. eigenvalues --   -0.45758  -0.45658  -0.42291  -0.41191
  Beta virt. eigenvalues --   -0.23958  -0.10268  -0.09776  -0.09535  -0.07270
  Beta virt. eigenvalues --   -0.07210  -0.05398  -0.04454  -0.02526  -0.00532
  Beta virt. eigenvalues --    0.01041   0.01384   0.02662   0.02767   0.03514
  Beta virt. eigenvalues --    0.03588   0.04136   0.04856   0.05750   0.05765
  Beta virt. eigenvalues --    0.06339   0.06762   0.06821   0.06821   0.07323
  Beta virt. eigenvalues --    0.08016   0.08574   0.08865   0.09313   0.09971
  Beta virt. eigenvalues --    0.10922   0.11029   0.11454   0.11971   0.13159
  Beta virt. eigenvalues --    0.13320   0.13669   0.14357   0.14501   0.14713
  Beta virt. eigenvalues --    0.14815   0.15749   0.16131   0.16991   0.17022
  Beta virt. eigenvalues --    0.17510   0.17878   0.17956   0.18414   0.18752
  Beta virt. eigenvalues --    0.18782   0.18902   0.19180   0.19644   0.19861
  Beta virt. eigenvalues --    0.20677   0.20932   0.21141   0.21671   0.22241
  Beta virt. eigenvalues --    0.22447   0.22521   0.22760   0.22991   0.23335
  Beta virt. eigenvalues --    0.23735   0.24221   0.25000   0.25094   0.25781
  Beta virt. eigenvalues --    0.26460   0.26672   0.26714   0.27122   0.27356
  Beta virt. eigenvalues --    0.28295   0.29079   0.29379   0.29925   0.30430
  Beta virt. eigenvalues --    0.30431   0.31018   0.31403   0.31468   0.32305
  Beta virt. eigenvalues --    0.32854   0.33163   0.33312   0.33613   0.33762
  Beta virt. eigenvalues --    0.33977   0.34208   0.34650   0.35530   0.35749
  Beta virt. eigenvalues --    0.35985   0.36327   0.37091   0.37432   0.37693
  Beta virt. eigenvalues --    0.38002   0.38080   0.38267   0.38517   0.39223
  Beta virt. eigenvalues --    0.39583   0.39814   0.40297   0.40761   0.41021
  Beta virt. eigenvalues --    0.41051   0.41147   0.41727   0.42477   0.42732
  Beta virt. eigenvalues --    0.43121   0.43161   0.43439   0.44045   0.44507
  Beta virt. eigenvalues --    0.44691   0.45369   0.45385   0.45922   0.46440
  Beta virt. eigenvalues --    0.46750   0.47324   0.48098   0.48187   0.48497
  Beta virt. eigenvalues --    0.49421   0.49968   0.50291   0.50303   0.50580
  Beta virt. eigenvalues --    0.51945   0.52529   0.52642   0.54637   0.55318
  Beta virt. eigenvalues --    0.55841   0.56634   0.57167   0.58393   0.58677
  Beta virt. eigenvalues --    0.59935   0.60805   0.61056   0.62216   0.62632
  Beta virt. eigenvalues --    0.63317   0.63566   0.63655   0.63730   0.64214
  Beta virt. eigenvalues --    0.65091   0.65695   0.66502   0.66719   0.67212
  Beta virt. eigenvalues --    0.67594   0.68576   0.69455   0.70669   0.70774
  Beta virt. eigenvalues --    0.71862   0.72015   0.72480   0.74454   0.76581
  Beta virt. eigenvalues --    0.77878   0.78235   0.79464   0.79700   0.80135
  Beta virt. eigenvalues --    0.85085   0.85822   0.86689   0.88145   1.05596
  Beta virt. eigenvalues --    1.07688   1.08049   1.12401   1.12909   1.14530
  Beta virt. eigenvalues --    1.15222   1.15325   1.16182   1.16388   1.17851
  Beta virt. eigenvalues --    1.17976   1.18208   1.18828   1.19090   1.19969
  Beta virt. eigenvalues --    1.20059   1.20519   1.20796   1.21350   1.21480
  Beta virt. eigenvalues --    1.21764   1.22059   1.22830   1.22924   1.23332
  Beta virt. eigenvalues --    1.23434   1.24302   1.24475   1.25032   1.25694
  Beta virt. eigenvalues --    1.25818   1.26062   1.26408   1.26739   1.27229
  Beta virt. eigenvalues --    1.27934   1.27950   1.28568   1.30331   1.33861
  Beta virt. eigenvalues --    1.34126   1.34673   1.35435   1.35596   1.36078
  Beta virt. eigenvalues --    1.36197   1.36412   1.36427   1.37177   1.37204
  Beta virt. eigenvalues --    1.37500   1.37751   1.38329   1.38661   1.39037
  Beta virt. eigenvalues --    1.39337   1.39548   1.40187   1.40281   1.40595
  Beta virt. eigenvalues --    1.40875   1.41588   1.41969   1.42223   1.42701
  Beta virt. eigenvalues --    1.43445   1.43607   1.43828   1.43912   1.44268
  Beta virt. eigenvalues --    1.44616   1.44844   1.46253   1.46556   1.46607
  Beta virt. eigenvalues --    1.47183   1.47395   1.47435   1.48035   1.48699
  Beta virt. eigenvalues --    1.49113   1.49391   1.49403   1.49538   1.50259
  Beta virt. eigenvalues --    1.50383   1.50770   1.51027   1.52405   1.52561
  Beta virt. eigenvalues --    1.54127   1.54697   1.56881   1.58363   1.58492
  Beta virt. eigenvalues --    1.59710   1.60004   1.60919   1.62299   1.62647
  Beta virt. eigenvalues --    1.66590   1.67455   1.67682   1.68671   1.68911
  Beta virt. eigenvalues --    1.69689   1.70001   1.70365   1.70937   1.71016
  Beta virt. eigenvalues --    1.71545   1.72297   1.73229   1.73361   1.73741
  Beta virt. eigenvalues --    1.73746   1.74023   1.74452   1.75761   1.76070
  Beta virt. eigenvalues --    1.76320   1.78004   1.79230   1.79919   1.80324
  Beta virt. eigenvalues --    1.80732   1.80986   1.82784   1.82958   1.83251
  Beta virt. eigenvalues --    1.83340   1.83676   1.83737   1.83778   1.84202
  Beta virt. eigenvalues --    1.84626   1.84813   1.84954   1.85108   1.85747
  Beta virt. eigenvalues --    1.85974   1.86478   1.87121   1.88711   1.89339
  Beta virt. eigenvalues --    1.89728   1.89856   1.90649   1.90821   1.91355
  Beta virt. eigenvalues --    1.91862   1.92909   1.94251   1.94761   1.95465
  Beta virt. eigenvalues --    1.95815   1.96771   1.97326   1.98557   1.99767
  Beta virt. eigenvalues --    2.02452   2.02735   2.04163   2.05106   2.06190
  Beta virt. eigenvalues --    2.10422   2.10430   2.13178   2.14021   2.14859
  Beta virt. eigenvalues --    2.17499   2.18538   2.20643   2.20867   2.21406
  Beta virt. eigenvalues --    2.21920   2.22039   2.22209   2.22645   2.22925
  Beta virt. eigenvalues --    2.23262   2.23535   2.24949   2.25282   2.25832
  Beta virt. eigenvalues --    2.26458   2.27074   2.27565   2.27697   2.28057
  Beta virt. eigenvalues --    2.28432   2.28444   2.28881   2.29112   2.29379
  Beta virt. eigenvalues --    2.29937   2.31686   2.32643   2.35074   2.36097
  Beta virt. eigenvalues --    2.36895   2.41221   2.41431   2.42523   2.42947
  Beta virt. eigenvalues --    2.43635   2.44030   2.44600   2.44783   2.46113
  Beta virt. eigenvalues --    2.46606   2.46999   2.48364   2.48673   2.50522
  Beta virt. eigenvalues --    2.51172   2.54205   2.54582   2.55313   2.55493
  Beta virt. eigenvalues --    2.56032   2.56274   2.57242   2.57991   2.57992
  Beta virt. eigenvalues --    2.58678   2.59348   2.59441   2.59598   2.62564
  Beta virt. eigenvalues --    2.63982   2.65397   2.65470   2.65553   2.66591
  Beta virt. eigenvalues --    2.67065   2.68954   2.69282   2.70635   2.72865
  Beta virt. eigenvalues --    2.74161   2.75481   2.75528   2.75720   2.76266
  Beta virt. eigenvalues --    2.77315   2.81289   2.85771   2.86325   2.89014
  Beta virt. eigenvalues --    2.90364   2.92932   2.93191   2.93936   2.94331
  Beta virt. eigenvalues --    2.94966   2.95783   2.96559   2.97020   2.98276
  Beta virt. eigenvalues --    2.98496   2.99613   3.01132   3.01553   3.02997
  Beta virt. eigenvalues --    3.03166   3.05201   3.06203   3.07758   3.08038
  Beta virt. eigenvalues --    3.08227   3.08766   3.10323   3.11270   3.11358
  Beta virt. eigenvalues --    3.12425   3.13100   3.14691   3.14810   3.19024
  Beta virt. eigenvalues --    3.21187   3.23599   3.24269   3.24767   3.28298
  Beta virt. eigenvalues --    3.28999   3.31328   3.32082   3.34815   3.35492
  Beta virt. eigenvalues --    3.43492   3.45387   3.46535   3.48342   3.48965
  Beta virt. eigenvalues --    3.50511   3.68485   3.74343   3.80699   3.81280
  Beta virt. eigenvalues --   21.00835  21.09415  21.11185  21.23571  21.53155
  Beta virt. eigenvalues --   21.57049  21.59915  21.60001  21.63111  21.63231
  Beta virt. eigenvalues --   21.68970  21.75679  21.79205  21.83378  21.85068
  Beta virt. eigenvalues --   21.85725  21.86932  21.89379  21.91089  21.92360
  Beta virt. eigenvalues --   21.97076  22.00961  22.02602  22.03776  31.87821
          Condensed to atoms (all electrons):
               1          2          3          4          5          6
     1  C    4.945283   0.477211   0.411500  -0.010019  -0.008895  -0.099152
     2  C    0.477211   4.935552  -0.028438   0.477250  -0.065839  -0.028451
     3  C    0.411500  -0.028438   5.189917  -0.099157   0.390406  -0.055554
     4  C   -0.010019   0.477250  -0.099157   4.945261  -0.008894   0.411489
     5  C   -0.008895  -0.065839   0.390406  -0.008894   5.452377   0.390432
     6  C   -0.099152  -0.028451  -0.055554   0.411489   0.390432   5.189920
     7  H   -0.051645   0.416404   0.016838  -0.051642  -0.003928   0.016837
     8  H   -0.017270   0.009597   0.400208  -0.001667  -0.064466   0.012567
[...]
    41  H(1)              -0.00131      -5.86516      -2.09283      -1.95641
    42  H(1)               0.00089       3.96643       1.41532       1.32306
    43  H(1)               0.00095       4.26358       1.52135       1.42218
    44  H(1)              -0.00179      -8.00804      -2.85747      -2.67119
 --------------------------------------------------------
       Center         ----  Spin Dipole Couplings  ----
                      3XX-RR        3YY-RR        3ZZ-RR
 --------------------------------------------------------
     1   Atom        0.007852      0.005465     -0.013317
     2   Atom       -0.014806     -0.016955      0.031761
     3   Atom       -0.011319     -0.013694      0.025013
     4   Atom        0.007852      0.005465     -0.013318
     5   Atom        0.007696      0.006205     -0.013901
     6   Atom       -0.011322     -0.013698      0.025020
     7   Atom        0.002503     -0.002218     -0.000284
     8   Atom       -0.000236      0.001660     -0.001424
     9   Atom        0.000835     -0.000119     -0.000716
    10   Atom       -0.000236      0.001660     -0.001424
    11   Atom       -0.079260     -0.002469      0.081729
    12   Atom        0.026527     -0.004712     -0.021815
    13   Atom        0.026520     -0.004706     -0.021814
    14   Atom       -0.059922      0.059174      0.000748
    15   Atom       -0.059921      0.059186      0.000735
    16   Atom        0.006665     -0.024056      0.017391
    17   Atom        0.001924     -0.000945     -0.000979
    18   Atom        0.001924     -0.000945     -0.000979
    19   Atom       -0.003549      0.002899      0.000650
    20   Atom       -0.003548      0.002898      0.000650
    21   Atom        0.000835     -0.000119     -0.000716
    22   Atom       -0.532673     -0.532950      1.065624
    23   Atom       -0.009545      0.009384      0.000161
    24   Atom        0.043468     -0.044042      0.000573
    25   Atom        0.015143     -0.013235     -0.001908
    26   Atom        0.003711      0.017854     -0.021565
    27   Atom        0.000473      0.021525     -0.021997
    28   Atom       -0.013745     -0.047588      0.061334
    29   Atom        0.000158     -0.000497      0.000339
    30   Atom        0.002074     -0.002568      0.000494
    31   Atom       -0.000954      0.002016     -0.001062
    32   Atom        0.000384      0.000731     -0.001114
    33   Atom       -0.001877      0.005918     -0.004041
    34   Atom       -0.009508      0.009357      0.000151
    35   Atom        0.043389     -0.044026      0.000638
    36   Atom        0.015112     -0.013215     -0.001897
    37   Atom        0.003731      0.017850     -0.021581
    38   Atom        0.000498      0.021520     -0.022018
    39   Atom       -0.013808     -0.047573      0.061381
    40   Atom        0.000162     -0.000499      0.000337
    41   Atom        0.002078     -0.002570      0.000492
    42   Atom       -0.000953      0.002016     -0.001062
    43   Atom        0.000385      0.000730     -0.001115
    44   Atom       -0.001880      0.005919     -0.004039
 --------------------------------------------------------
                        XY            XZ            YZ
 --------------------------------------------------------
     1   Atom       -0.000043      0.001203      0.000220
     2   Atom        0.000000     -0.000001     -0.000842
     3   Atom       -0.002665      0.008598     -0.007176
     4   Atom        0.000043     -0.001201      0.000221
     5   Atom       -0.000000      0.000000      0.005217
     6   Atom        0.002666     -0.008603     -0.007178
     7   Atom       -0.000000      0.000000     -0.000081
     8   Atom        0.000094     -0.000054     -0.000629
     9   Atom       -0.000183     -0.000064      0.000069
    10   Atom       -0.000094      0.000054     -0.000629
    11   Atom       -0.000013     -0.000018      0.117774
    12   Atom        0.002041      0.003318     -0.034813
    13   Atom       -0.002038     -0.003313     -0.034801
    14   Atom        0.016501      0.007385      0.084520
    15   Atom       -0.016522     -0.007398      0.084512
    16   Atom        0.000019      0.000037     -0.002136
    17   Atom       -0.000737      0.000835     -0.001737
    18   Atom        0.000737     -0.000835     -0.001738
    19   Atom       -0.001447      0.002077     -0.005936
    20   Atom        0.001449     -0.002079     -0.005936
    21   Atom        0.000183      0.000064      0.000069
    22   Atom        0.000001      0.000097      0.013934
    23   Atom        0.019412     -0.017591      0.013042
    24   Atom       -0.039248      0.074129     -0.033056
    25   Atom       -0.059684      0.066922     -0.047397
    26   Atom        0.015947     -0.030205      0.020665
    27   Atom        0.014641     -0.033961      0.016319
    28   Atom       -0.029358      0.086228     -0.049929
    29   Atom       -0.002946     -0.003681      0.004312
    30   Atom       -0.001341     -0.005631      0.000995
    31   Atom        0.001063     -0.000744      0.001247
    32   Atom        0.001952     -0.001431     -0.000017
    33   Atom        0.006795      0.003437     -0.002013
    34   Atom       -0.019427      0.017559      0.013105
    35   Atom        0.039251     -0.074149     -0.033091
    36   Atom        0.059698     -0.066919     -0.047420
    37   Atom       -0.015947      0.030200      0.020681
    38   Atom       -0.014640      0.033950      0.016331
    39   Atom        0.029358     -0.086202     -0.049963
    40   Atom        0.002947      0.003682      0.004311
    41   Atom        0.001338      0.005633      0.000992
    42   Atom       -0.001063      0.000743      0.001248
    43   Atom       -0.001952      0.001431     -0.000015
    44   Atom       -0.006795     -0.003438     -0.002010
 --------------------------------------------------------


 ---------------------------------------------------------------------------------
              Anisotropic Spin Dipole Couplings in Principal Axis System
 ---------------------------------------------------------------------------------

       Atom             a.u.   MegaHertz   Gauss  10(-4) cm-1        Axes

              Baa    -0.0134    -1.797    -0.641    -0.599 -0.0566 -0.0118  0.9983
     1 C(13)  Bbb     0.0055     0.734     0.262     0.245  0.0117  0.9999  0.0125
              Bcc     0.0079     1.063     0.379     0.355  0.9983 -0.0124  0.0564
 
              Baa    -0.0170    -2.277    -0.813    -0.760 -0.0000  0.9999  0.0173
     2 C(13)  Bbb    -0.0148    -1.987    -0.709    -0.663  1.0000  0.0000  0.0000
              Bcc     0.0318     4.264     1.521     1.422 -0.0000 -0.0173  0.9999
 
              Baa    -0.0155    -2.082    -0.743    -0.694  0.4330  0.8989  0.0673
     3 C(13)  Bbb    -0.0128    -1.718    -0.613    -0.573  0.8741 -0.4005 -0.2748
              Bcc     0.0283     3.800     1.356     1.267  0.2200 -0.1778  0.9592
 
              Baa    -0.0134    -1.797    -0.641    -0.599  0.0565 -0.0118  0.9983
     4 C(13)  Bbb     0.0055     0.734     0.262     0.245 -0.0116  0.9999  0.0125
              Bcc     0.0079     1.063     0.379     0.355  0.9983  0.0123 -0.0563
 
              Baa    -0.0152    -2.036    -0.727    -0.679 -0.0000 -0.2371  0.9715
     5 C(13)  Bbb     0.0075     1.004     0.358     0.335 -0.0005  0.9715  0.2371
              Bcc     0.0077     1.033     0.369     0.344  1.0000  0.0005  0.0001
 
              Baa    -0.0155    -2.083    -0.743    -0.695 -0.4330  0.8989  0.0673
     6 C(13)  Bbb    -0.0128    -1.718    -0.613    -0.573  0.8741  0.4005  0.2748
              Bcc     0.0283     3.801     1.356     1.268 -0.2201 -0.1778  0.9591
 
              Baa    -0.0022    -1.185    -0.423    -0.395  0.0000  0.9991  0.0419
     7 H(1)   Bbb    -0.0003    -0.150    -0.054    -0.050 -0.0000 -0.0419  0.9991
              Bcc     0.0025     1.335     0.476     0.445  1.0000 -0.0000  0.0000
 
              Baa    -0.0015    -0.826    -0.295    -0.276  0.0263  0.1916  0.9811
     8 H(1)   Bbb    -0.0002    -0.128    -0.046    -0.043  0.9984 -0.0547 -0.0161
              Bcc     0.0018     0.954     0.340     0.318  0.0506  0.9800 -0.1927
 
              Baa    -0.0007    -0.387    -0.138    -0.129  0.0284 -0.1052  0.9940
     9 H(1)   Bbb    -0.0001    -0.078    -0.028    -0.026  0.1883  0.9772  0.0980
              Bcc     0.0009     0.466     0.166     0.155  0.9817 -0.1844 -0.0475
 
              Baa    -0.0015    -0.826    -0.295    -0.276 -0.0263  0.1915  0.9811
    10 H(1)   Bbb    -0.0002    -0.128    -0.046    -0.043  0.9984  0.0548  0.0161
              Bcc     0.0018     0.954     0.341     0.318 -0.0507  0.9800 -0.1927
 
              Baa    -0.0854   -11.465    -4.091    -3.824  0.0000  0.8175 -0.5759
    11 C(13)  Bbb    -0.0793   -10.636    -3.795    -3.548  1.0000  0.0001  0.0001
              Bcc     0.1647    22.101     7.886     7.372 -0.0001  0.5759  0.8175
 
              Baa    -0.0493    -6.617    -2.361    -2.207 -0.0510  0.6160  0.7861
    12 C(13)  Bbb     0.0225     3.024     1.079     1.009  0.1044  0.7861 -0.6092
              Bcc     0.0268     3.592     1.282     1.198  0.9932 -0.0511  0.1044
 
              Baa    -0.0493    -6.615    -2.360    -2.206  0.0509  0.6159  0.7862
    13 C(13)  Bbb     0.0225     3.023     1.079     1.008 -0.1042  0.7862 -0.6092
              Bcc     0.0268     3.591     1.281     1.198  0.9933  0.0509 -0.1042
 
              Baa    -0.0643    -8.624    -3.077    -2.877  0.8011 -0.4073  0.4385
    14 C(13)  Bbb    -0.0569    -7.629    -2.722    -2.545 -0.5905 -0.4186  0.6900
              Bcc     0.1211    16.253     5.800     5.422  0.0975  0.8117  0.5759
 
              Baa    -0.0643    -8.625    -3.077    -2.877  0.8013  0.4072 -0.4382
    15 C(13)  Bbb    -0.0569    -7.629    -2.722    -2.545  0.5902 -0.4187  0.6902
              Bcc     0.1211    16.254     5.800     5.422 -0.0976  0.8117  0.5758
 
              Baa    -0.0242    -3.243    -1.157    -1.082 -0.0007  0.9987  0.0513
    16 C(13)  Bbb     0.0067     0.894     0.319     0.298  1.0000  0.0008 -0.0033
              Bcc     0.0175     2.349     0.838     0.783  0.0033 -0.0513  0.9987
 
              Baa    -0.0027    -1.441    -0.514    -0.481 -0.0175  0.6996  0.7143
    17 H(1)   Bbb     0.0001     0.053     0.019     0.018  0.5197  0.6167 -0.5912
              Bcc     0.0026     1.388     0.495     0.463  0.8542 -0.3609  0.3744
 
              Baa    -0.0027    -1.441    -0.514    -0.481  0.0174  0.6996  0.7143
    18 H(1)   Bbb     0.0001     0.053     0.019     0.018 -0.5198  0.6166 -0.5913
              Bcc     0.0026     1.388     0.495     0.463  0.8541  0.3610 -0.3744
 
              Baa    -0.0048    -2.577    -0.920    -0.860 -0.6354  0.3920  0.6653
    19 H(1)   Bbb    -0.0035    -1.861    -0.664    -0.621  0.7453  0.5366  0.3957
              Bcc     0.0083     4.439     1.584     1.481 -0.2019  0.7473 -0.6331
 
              Baa    -0.0048    -2.578    -0.920    -0.860  0.6355  0.3918  0.6653
    20 H(1)   Bbb    -0.0035    -1.861    -0.664    -0.621  0.7451 -0.5369 -0.3957
              Bcc     0.0083     4.439     1.584     1.481  0.2022  0.7472 -0.6331
 
              Baa    -0.0007    -0.387    -0.138    -0.129 -0.0285 -0.1052  0.9940
    21 H(1)   Bbb    -0.0001    -0.078    -0.028    -0.026 -0.1884  0.9772  0.0980
              Bcc     0.0009     0.466     0.166     0.155  0.9817  0.1845  0.0476
 
              Baa    -0.5331   -20.559    -7.336    -6.858 -0.0015  1.0000 -0.0087
    22 N(14)  Bbb    -0.5327   -20.544    -7.331    -6.853  1.0000  0.0015 -0.0001
              Bcc     1.0657    41.103    14.667    13.711  0.0001  0.0087  1.0000
 
              Baa    -0.0352    -4.721    -1.685    -1.575  0.7125 -0.4643  0.5260
    23 C(13)  Bbb     0.0134     1.796     0.641     0.599 -0.5356  0.1243  0.8353
              Bcc     0.0218     2.925     1.044     0.976  0.4532  0.8769  0.1601
 
              Baa    -0.0616    -8.268    -2.950    -2.758 -0.0082  0.8789  0.4770
    24 C(13)  Bbb    -0.0540    -7.249    -2.587    -2.418 -0.6522 -0.3663  0.6637
              Bcc     0.1156    15.517     5.537     5.176  0.7580 -0.3056  0.5762
 
              Baa    -0.0629    -8.439    -3.011    -2.815  0.7542  0.4513 -0.4769
    25 C(13)  Bbb    -0.0553    -7.421    -2.648    -2.475 -0.0153  0.7382  0.6744
              Bcc     0.1182    15.860     5.659     5.290  0.6564 -0.5014  0.5637
 
              Baa    -0.0515    -6.905    -2.464    -2.303  0.5257 -0.3519  0.7745
    26 C(13)  Bbb     0.0232     3.109     1.109     1.037  0.7038 -0.3315 -0.6283
              Bcc     0.0283     3.796     1.355     1.266  0.4778  0.8754  0.0734
 
              Baa    -0.0529    -7.102    -2.534    -2.369  0.5687 -0.2813  0.7729
    27 C(13)  Bbb     0.0238     3.196     1.140     1.066  0.6303 -0.4548 -0.6292
              Bcc     0.0291     3.906     1.394     1.303  0.5285  0.8450 -0.0813
 
              Baa    -0.0715    -9.597    -3.424    -3.201  0.6888 -0.4069 -0.6000
    28 C(13)  Bbb    -0.0646    -8.662    -3.091    -2.889  0.5059  0.8626 -0.0044
              Bcc     0.1361    18.259     6.515     6.090  0.5193 -0.3005  0.8000
 
              Baa    -0.0045    -2.376    -0.848    -0.793  0.1396 -0.6803  0.7195
    29 H(1)   Bbb    -0.0029    -1.540    -0.550    -0.514  0.8245  0.4823  0.2960
              Bcc     0.0073     3.916     1.397     1.306 -0.5484  0.5519  0.6282
 
              Baa    -0.0044    -2.355    -0.840    -0.785  0.6628  0.0801  0.7445
    30 H(1)   Bbb    -0.0028    -1.515    -0.541    -0.505  0.0727  0.9827 -0.1705
              Bcc     0.0073     3.870     1.381     1.291  0.7452 -0.1671 -0.6455
 
              Baa    -0.0024    -1.262    -0.450    -0.421  0.6293 -0.3501  0.6938
    31 H(1)   Bbb    -0.0003    -0.140    -0.050    -0.047  0.7450  0.0174 -0.6669
              Bcc     0.0026     1.403     0.500     0.468  0.2215  0.9365  0.2718
 
              Baa    -0.0024    -1.281    -0.457    -0.427  0.6201 -0.3828  0.6847
    32 H(1)   Bbb    -0.0004    -0.202    -0.072    -0.067 -0.3574  0.6391  0.6810
              Bcc     0.0028     1.483     0.529     0.495  0.6983  0.6671 -0.2595
 
              Baa    -0.0090    -4.806    -1.715    -1.603  0.6747 -0.3916 -0.6256
    33 H(1)   Bbb    -0.0008    -0.452    -0.161    -0.151  0.5421 -0.3123  0.7801
              Bcc     0.0099     5.257     1.876     1.754  0.5009  0.8655 -0.0015
 
              Baa    -0.0352    -4.722    -1.685    -1.575  0.7118  0.4653 -0.5262
    34 C(13)  Bbb     0.0134     1.794     0.640     0.598  0.5379  0.1207  0.8343
              Bcc     0.0218     2.928     1.045     0.977 -0.4517  0.8769  0.1643
 
              Baa    -0.0616    -8.268    -2.950    -2.758  0.0085  0.8787  0.4773
    35 C(13)  Bbb    -0.0540    -7.250    -2.587    -2.418  0.6525 -0.3666  0.6632
              Bcc     0.1156    15.518     5.537     5.176  0.7577  0.3058 -0.5765
 
              Baa    -0.0629    -8.440    -3.012    -2.815  0.7543 -0.4517  0.4764
    36 C(13)  Bbb    -0.0553    -7.422    -2.648    -2.476  0.0157  0.7379  0.6748
              Bcc     0.1182    15.862     5.660     5.291  0.6563  0.5015 -0.5637
 
              Baa    -0.0515    -6.906    -2.464    -2.304 -0.5255 -0.3520  0.7746
    37 C(13)  Bbb     0.0232     3.110     1.110     1.037  0.7041  0.3312  0.6282
              Bcc     0.0283     3.797     1.355     1.266 -0.4776  0.8755  0.0738
 
              Baa    -0.0529    -7.102    -2.534    -2.369 -0.5684 -0.2814  0.7731
    38 C(13)  Bbb     0.0238     3.196     1.140     1.066  0.6305  0.4546  0.6291
              Bcc     0.0291     3.906     1.394     1.303 -0.5285  0.8451 -0.0810
 
              Baa    -0.0715    -9.597    -3.425    -3.201  0.6890  0.4068  0.5998
    39 C(13)  Bbb    -0.0646    -8.663    -3.091    -2.890 -0.5059  0.8626 -0.0040
              Bcc     0.1361    18.260     6.516     6.091 -0.5191 -0.3007  0.8001
 
              Baa    -0.0045    -2.376    -0.848    -0.793 -0.1394 -0.6804  0.7194
    40 H(1)   Bbb    -0.0029    -1.540    -0.550    -0.514  0.8243 -0.4824 -0.2965
              Bcc     0.0073     3.916     1.397     1.306  0.5488  0.5517  0.6281
 
              Baa    -0.0044    -2.355    -0.840    -0.785 -0.6626  0.0802  0.7446
    41 H(1)   Bbb    -0.0028    -1.516    -0.541    -0.506 -0.0724  0.9827 -0.1703
              Bcc     0.0073     3.871     1.381     1.291  0.7454  0.1667  0.6454
 
              Baa    -0.0024    -1.262    -0.450    -0.421 -0.6289 -0.3503  0.6941
    42 H(1)   Bbb    -0.0003    -0.141    -0.050    -0.047  0.7453 -0.0174  0.6665
              Bcc     0.0026     1.403     0.501     0.468 -0.2214  0.9365  0.2720
 
              Baa    -0.0024    -1.281    -0.457    -0.427 -0.6199 -0.3831  0.6848
    43 H(1)   Bbb    -0.0004    -0.202    -0.072    -0.067  0.3575  0.6389  0.6811
              Bcc     0.0028     1.483     0.529     0.495  0.6984 -0.6671  0.2591
 
              Baa    -0.0090    -4.806    -1.715    -1.603  0.6749  0.3915  0.6255
    44 H(1)   Bbb    -0.0008    -0.452    -0.161    -0.151 -0.5418 -0.3124  0.7803
              Bcc     0.0099     5.258     1.876     1.754 -0.5009  0.8655 -0.0013
 

 ---------------------------------------------------------------------------------

 No NMR shielding tensors so no spin-rotation constants.
 Leave Link  601 at Sun Jan 17 12:05:59 2021, MaxMem=  4026531840 cpu:               4.9 elap:               0.7
 (Enter /opt/ohpc/pub/libs/gaussian/g16-A.03/sandybridge/g16/l9999.exe)

 Test job not archived.
 1\1\GINC-CASCADEB025\SP\ULC-wHPBE\TZVP\C24H19N1(1+,2)\RDU230\17-Jan-20
 21\0\\#P LC-wHPBE/TZVP iop(3/107=0221900000, 3/108=0221900000) scf=(co
 nver=6,fermi,ndamp=35,noincfock,novaracc,vshift=500,xqc)\\H19 C24 N1\\
 1,2\C,0,6.129184,1.201496,-0.030856\C,0,6.830271,0.000001,0.000182\C,0
 ,4.738958,1.200713,-0.032197\C,0,6.129235,-1.201473,0.031153\C,0,4.021
 751,-0.000032,0.000031\C,0,4.738962,-1.200719,0.032361\H,0,7.919539,0.
 000045,0.00019\H,0,4.198073,2.145454,-0.081149\H,0,6.668779,-2.147537,
 0.063412\H,0,4.198148,-2.145504,0.081256\C,0,2.536892,-0.000014,-0.000
 063\C,0,1.813363,-0.924286,-0.760077\C,0,1.813258,0.92429,0.759786\C,0
 ,0.426027,-0.922473,-0.771159\C,0,0.425899,0.922498,0.770636\C,0,-0.28
 8344,0.000018,-0.000311\H,0,2.347573,-1.638662,-1.38605\H,0,2.34735,1.
 638674,1.385851\H,0,-0.11537,-1.638494,-1.387158\H,0,-0.115571,1.63857
 8,1.386504\H,0,6.668762,2.147543,-0.063006\N,0,-1.704382,-0.000003,-0.
 000499\C,0,-2.414266,1.22777,0.004035\C,0,-3.559402,1.382015,0.792108\
 C,0,-1.979956,2.301413,-0.78017\C,0,-4.257371,2.583383,0.786193\C,0,-2
 .673527,3.505213,-0.76583\C,0,-3.817854,3.653503,0.012423\H,0,-3.90004
 6,0.551242,1.407814\H,0,-1.092486,2.185578,-1.400082\H,0,-5.147916,2.6
 86607,1.40537\H,0,-2.321511,4.331764,-1.38228\H,0,-4.363183,4.595952,0
 .015664\C,0,-2.414241,-1.227791,-0.004406\C,0,-3.559682,-1.382189,-0.7
 92032\C,0,-1.979686,-2.301249,0.779869\C,0,-4.257673,-2.583532,-0.7855
 97\C,0,-2.673287,-3.50506,0.766028\C,0,-3.817885,-3.653507,-0.011769\H
 ,0,-3.900521,-0.551523,-1.407763\H,0,-1.092008,-2.185299,1.399468\H,0,
 -5.148466,-2.686887,-1.404399\H,0,-2.32101,-4.331477,1.382521\H,0,-4.3
 63223,-4.595951,-0.014691\\Version=EM64L-G16RevA.03\State=2-A\HF=-979.
 9062831\S2=0.776067\S2-1=0.\S2A=0.750636\RMSD=9.090e-07\Dipole=-1.8270
 43,0.0000007,0.0000983\Quadrupole=27.2823303,1.8899527,-29.172283,-0.0
 001022,-0.0011673,-0.3002481\PG=C01 [X(C24H19N1)]\\@


 DON'T WORRY CHARLIE BROWN...WE LEARN MORE FROM LOSING 
 THAN WE DO FROM WINNING.
 THEN THAT MAKES ME THE SMARTEST PERSON IN THE WORLD...
 CHARLES SCHULZ 'PEANUTS'
 Job cpu time:       0 days  2 hours  6 minutes  4.2 seconds.
 Elapsed time:       0 days  0 hours 15 minutes 48.4 seconds.
 File lengths (MBytes):  RWF=    220 Int=      0 D2E=      0 Chk=     32 Scr=      8
 Normal termination of Gaussian 16 at Sun Jan 17 12:05:59 2021.
