 Entering Gaussian System, Link 0=g16
 Input=mol_NN_pa_frag_tune_n10.gjf
 Output=mol_NN_pa_frag_tune_n10.log
 Initial command:
 /opt/ohpc/pub/libs/gaussian/g16-A.03/sandybridge/g16/l1.exe "/mnt/gpfs2_4m/scratch/rdu230/ondemand/projects/init_structures/wtuning/mol_NN_pa_frag/tuning_mol_NN_pa_frag_ocycle0/Gau-330849.inp" -scrdir="/mnt/gpfs2_4m/scratch/rdu230/ondemand/projects/init_structures/wtuning/mol_NN_pa_frag/tuning_mol_NN_pa_frag_ocycle0/"
 Entering Link 1 = /opt/ohpc/pub/libs/gaussian/g16-A.03/sandybridge/g16/l1.exe PID=    330850.
  
 Copyright (c) 1988,1990,1992,1993,1995,1998,2003,2009,2016,
            Gaussian, Inc.  All Rights Reserved.
  
 This is part of the Gaussian(R) 16 program.  It is based on
 the Gaussian(R) 09 system (copyright 2009, Gaussian, Inc.),
 the Gaussian(R) 03 system (copyright 2003, Gaussian, Inc.),
 the Gaussian(R) 98 system (copyright 1998, Gaussian, Inc.),
 the Gaussian(R) 94 system (copyright 1995, Gaussian, Inc.),
 the Gaussian 92(TM) system (copyright 1992, Gaussian, Inc.),
 the Gaussian 90(TM) system (copyright 1990, Gaussian, Inc.),
 the Gaussian 88(TM) system (copyright 1988, Gaussian, Inc.),
 the Gaussian 86(TM) system (copyright 1986, Carnegie Mellon
 University), and the Gaussian 82(TM) system (copyright 1983,
 Carnegie Mellon University). Gaussian is a federally registered
 trademark of Gaussian, Inc.
  
 This software contains proprietary and confidential information,
 including trade secrets, belonging to Gaussian, Inc.
  
 This software is provided under written license and may be
 used, copied, transmitted, or stored only in accord with that
 written license.
  
 The following legend is applicable only to US Government
 contracts under FAR:
  
                    RESTRICTED RIGHTS LEGEND
  
 Use, reproduction and disclosure by the US Government is
 subject to restrictions as set forth in subparagraphs (a)
 and (c) of the Commercial Computer Software - Restricted
 Rights clause in FAR 52.227-19.
  
 Gaussian, Inc.
 340 Quinnipiac St., Bldg. 40, Wallingford CT 06492
  
  
 ---------------------------------------------------------------
 Warning -- This program may not be used in any manner that
 competes with the business of Gaussian, Inc. or will provide
 assistance to any competitor of Gaussian, Inc.  The licensee
 of this program is prohibited from giving any competitor of
 Gaussian, Inc. access to this program.  By using this program,
 the user acknowledges that Gaussian, Inc. is engaged in the
 business of creating and licensing software in the field of
 computational chemistry and represents and warrants to the
 licensee that it is not a competitor of Gaussian, Inc. and that
 it will not use this program in any manner prohibited above.
 ---------------------------------------------------------------
  

 Cite this work as:
 Gaussian 16, Revision A.03,
 M. J. Frisch, G. W. Trucks, H. B. Schlegel, G. E. Scuseria, 
 M. A. Robb, J. R. Cheeseman, G. Scalmani, V. Barone, 
 G. A. Petersson, H. Nakatsuji, X. Li, M. Caricato, A. V. Marenich, 
 J. Bloino, B. G. Janesko, R. Gomperts, B. Mennucci, H. P. Hratchian, 
 J. V. Ortiz, A. F. Izmaylov, J. L. Sonnenberg, D. Williams-Young, 
 F. Ding, F. Lipparini, F. Egidi, J. Goings, B. Peng, A. Petrone, 
 T. Henderson, D. Ranasinghe, V. G. Zakrzewski, J. Gao, N. Rega, 
 G. Zheng, W. Liang, M. Hada, M. Ehara, K. Toyota, R. Fukuda, 
 J. Hasegawa, M. Ishida, T. Nakajima, Y. Honda, O. Kitao, H. Nakai, 
 T. Vreven, K. Throssell, J. A. Montgomery, Jr., J. E. Peralta, 
 F. Ogliaro, M. J. Bearpark, J. J. Heyd, E. N. Brothers, K. N. Kudin, 
 V. N. Staroverov, T. A. Keith, R. Kobayashi, J. Normand, 
 K. Raghavachari, A. P. Rendell, J. C. Burant, S. S. Iyengar, 
 J. Tomasi, M. Cossi, J. M. Millam, M. Klene, C. Adamo, R. Cammi, 
 J. W. Ochterski, R. L. Martin, K. Morokuma, O. Farkas, 
 J. B. Foresman, and D. J. Fox, Gaussian, Inc., Wallingford CT, 2016.
 
 ******************************************
 Gaussian 16:  EM64L-G16RevA.03 25-Dec-2016
                17-Jan-2021 
 ******************************************
 %mem=30GB
 %nproc=8
 Will use up to    8 processors via shared memory.
 ----------------------------------------------------------------------
 #P LC-wHPBE/TZVP iop(3/107=0197300000, 3/108=0197300000) scf=(conver=6
 ,fermi,ndamp=35,noincfock,novaracc,vshift=500,xqc)
 ----------------------------------------------------------------------
 1/38=1,172=1/1;
 2/12=2,17=6,18=5,40=1/2;
 3/5=19,7=101,11=2,25=1,30=1,74=-71,107=197300000,108=197300000/1,2,3;
 4//1;
 5/5=100002,6=6,8=3,10=500,13=1,18=-1,22=13,38=1,93=35/2,8;
 6/7=2,8=2,9=2,10=2,28=1/1;
 99/5=1,9=1/99;
 Leave Link    1 at Sun Jan 17 21:36:53 2021, MaxMem=  4026531840 cpu:               1.0 elap:               0.1
 (Enter /opt/ohpc/pub/libs/gaussian/g16-A.03/sandybridge/g16/l101.exe)
 ----------
 H15 C18 N1
 ----------
 Symbolic Z-matrix:
 Charge =  0 Multiplicity = 1
 N                     0.00002  -0.00013  -0.00128 
 C                     0.41152  -1.35684  -0.00048 
 C                     1.49553  -1.76929   0.78118 
 C                    -0.26032  -2.30269  -0.78172 
 C                     1.90122  -3.09798   0.77159 
 C                     0.14061  -3.63281  -0.77087 
 C                     1.22528  -4.03895   0.00067 
 H                     2.02011  -1.039     1.39485 
 H                    -1.10182  -1.9873   -1.39616 
 H                     2.74809  -3.40206   1.38588 
 H                    -0.39449  -4.35669  -1.38461 
 H                     1.54142  -5.08084   0.00103 
 C                     0.96912   1.03471  -0.00049 
 C                     2.12304   0.92694  -0.78345 
 C                     0.78534   2.17869   0.78292 
 C                     3.07444   1.93923  -0.77269 
 C                     1.73325   3.1943    0.77353 
 C                     2.88509   3.08045   0.00089 
 H                     2.26992   0.04131  -1.39928 
 H                    -0.10857   2.2669    1.39801 
 H                     3.96786   1.83865  -1.38809 
 H                     1.57409   4.07887   1.38936 
 H                     3.62942   3.87508   0.00165 
 C                    -1.38073   0.32195  -0.00044 
 C                    -2.27969  -0.409     0.78299 
 C                    -1.86402   1.37524  -0.78348 
 C                    -3.63319  -0.0958    0.77326 
 C                    -3.21637   1.69329  -0.77288 
 C                    -4.11021   0.95866   0.00047 
 H                    -1.90927  -1.22721   1.39817 
 H                    -1.17018   1.94511  -1.3991 
 H                    -4.31985  -0.67576   1.389 
 H                    -3.57589   2.51727  -1.38835 
 H                    -5.17056   1.20591   0.00069 
 
 ITRead=  0  0  0  0  0  0  0  0  0  0  0  0  0  0  0  0  0  0  0  0
 ITRead=  0  0  0  0  0  0  0  0  0  0  0  0  0  0
 MicOpt= -1 -1 -1 -1 -1 -1 -1 -1 -1 -1 -1 -1 -1 -1 -1 -1 -1 -1 -1 -1
 MicOpt= -1 -1 -1 -1 -1 -1 -1 -1 -1 -1 -1 -1 -1 -1
 NAtoms=     34 NQM=       34 NQMF=       0 NMMI=      0 NMMIF=      0
                NMic=       0 NMicF=      0.
                    Isotopes and Nuclear Properties:
 (Nuclear quadrupole moments (NQMom) in fm**2, nuclear magnetic moments (NMagM)
  in nuclear magnetons)

  Atom         1           2           3           4           5           6           7           8           9          10
 IAtWgt=          14          12          12          12          12          12          12           1           1           1
 AtmWgt=  14.0030740  12.0000000  12.0000000  12.0000000  12.0000000  12.0000000  12.0000000   1.0078250   1.0078250   1.0078250
 NucSpn=           2           0           0           0           0           0           0           1           1           1
 AtZEff=  -0.0000000  -0.0000000  -0.0000000  -0.0000000  -0.0000000  -0.0000000  -0.0000000  -0.0000000  -0.0000000  -0.0000000
 NQMom=    2.0440000   0.0000000   0.0000000   0.0000000   0.0000000   0.0000000   0.0000000   0.0000000   0.0000000   0.0000000
 NMagM=    0.4037610   0.0000000   0.0000000   0.0000000   0.0000000   0.0000000   0.0000000   2.7928460   2.7928460   2.7928460
 AtZNuc=   7.0000000   6.0000000   6.0000000   6.0000000   6.0000000   6.0000000   6.0000000   1.0000000   1.0000000   1.0000000

  Atom        11          12          13          14          15          16          17          18          19          20
 IAtWgt=           1           1          12          12          12          12          12          12           1           1
 AtmWgt=   1.0078250   1.0078250  12.0000000  12.0000000  12.0000000  12.0000000  12.0000000  12.0000000   1.0078250   1.0078250
 NucSpn=           1           1           0           0           0           0           0           0           1           1
 AtZEff=  -0.0000000  -0.0000000  -0.0000000  -0.0000000  -0.0000000  -0.0000000  -0.0000000  -0.0000000  -0.0000000  -0.0000000
 NQMom=    0.0000000   0.0000000   0.0000000   0.0000000   0.0000000   0.0000000   0.0000000   0.0000000   0.0000000   0.0000000
 NMagM=    2.7928460   2.7928460   0.0000000   0.0000000   0.0000000   0.0000000   0.0000000   0.0000000   2.7928460   2.7928460
 AtZNuc=   1.0000000   1.0000000   6.0000000   6.0000000   6.0000000   6.0000000   6.0000000   6.0000000   1.0000000   1.0000000

  Atom        21          22          23          24          25          26          27          28          29          30
 IAtWgt=           1           1           1          12          12          12          12          12          12           1
 AtmWgt=   1.0078250   1.0078250   1.0078250  12.0000000  12.0000000  12.0000000  12.0000000  12.0000000  12.0000000   1.0078250
 NucSpn=           1           1           1           0           0           0           0           0           0           1
 AtZEff=  -0.0000000  -0.0000000  -0.0000000  -0.0000000  -0.0000000  -0.0000000  -0.0000000  -0.0000000  -0.0000000  -0.0000000
 NQMom=    0.0000000   0.0000000   0.0000000   0.0000000   0.0000000   0.0000000   0.0000000   0.0000000   0.0000000   0.0000000
 NMagM=    2.7928460   2.7928460   2.7928460   0.0000000   0.0000000   0.0000000   0.0000000   0.0000000   0.0000000   2.7928460
 AtZNuc=   1.0000000   1.0000000   1.0000000   6.0000000   6.0000000   6.0000000   6.0000000   6.0000000   6.0000000   1.0000000

  Atom        31          32          33          34
 IAtWgt=           1           1           1           1
 AtmWgt=   1.0078250   1.0078250   1.0078250   1.0078250
 NucSpn=           1           1           1           1
 AtZEff=  -0.0000000  -0.0000000  -0.0000000  -0.0000000
 NQMom=    0.0000000   0.0000000   0.0000000   0.0000000
 NMagM=    2.7928460   2.7928460   2.7928460   2.7928460
 AtZNuc=   1.0000000   1.0000000   1.0000000   1.0000000
 Leave Link  101 at Sun Jan 17 21:36:53 2021, MaxMem=  4026531840 cpu:               0.7 elap:               0.1
 (Enter /opt/ohpc/pub/libs/gaussian/g16-A.03/sandybridge/g16/l202.exe)
                          Input orientation:                          
 ---------------------------------------------------------------------
 Center     Atomic      Atomic             Coordinates (Angstroms)
 Number     Number       Type             X           Y           Z
 ---------------------------------------------------------------------
      1          7           0        0.000022   -0.000126   -0.001279
      2          6           0        0.411521   -1.356839   -0.000484
      3          6           0        1.495533   -1.769287    0.781179
      4          6           0       -0.260320   -2.302689   -0.781717
      5          6           0        1.901218   -3.097977    0.771590
      6          6           0        0.140608   -3.632811   -0.770872
      7          6           0        1.225282   -4.038950    0.000666
      8          1           0        2.020108   -1.039002    1.394849
      9          1           0       -1.101816   -1.987296   -1.396157
     10          1           0        2.748094   -3.402056    1.385878
     11          1           0       -0.394485   -4.356690   -1.384611
     12          1           0        1.541424   -5.080840    0.001027
     13          6           0        0.969124    1.034710   -0.000488
     14          6           0        2.123037    0.926935   -0.783450
     15          6           0        0.785335    2.178692    0.782922
     16          6           0        3.074444    1.939229   -0.772694
     17          6           0        1.733248    3.194302    0.773528
     18          6           0        2.885092    3.080453    0.000886
     19          1           0        2.269922    0.041314   -1.399284
     20          1           0       -0.108570    2.266902    1.398014
     21          1           0        3.967862    1.838651   -1.388087
     22          1           0        1.574087    4.078874    1.389358
     23          1           0        3.629424    3.875076    0.001646
     24          6           0       -1.380731    0.321945   -0.000436
     25          6           0       -2.279686   -0.409002    0.782988
     26          6           0       -1.864017    1.375244   -0.783483
     27          6           0       -3.633185   -0.095800    0.773256
     28          6           0       -3.216365    1.693293   -0.772877
     29          6           0       -4.110212    0.958658    0.000466
     30          1           0       -1.909274   -1.227214    1.398174
     31          1           0       -1.170181    1.945112   -1.399095
     32          1           0       -4.319851   -0.675761    1.389003
     33          1           0       -3.575887    2.517271   -1.388348
     34          1           0       -5.170565    1.205911    0.000686
 ---------------------------------------------------------------------
                    Distance matrix (angstroms):
                    1          2          3          4          5
     1  N    0.000000
     2  C    1.417745   0.000000
     3  C    2.445143   1.398639   0.000000
     4  C    2.445129   1.398688   2.410432   0.000000
     5  C    3.715986   2.418027   1.389277   2.778037   0.000000
     6  C    3.715971   2.418045   2.778022   1.389275   2.401038
     7  C    4.220588   2.802843   2.415286   2.415313   1.391633
     8  H    2.666305   2.153027   1.088617   3.396277   2.154522
     9  H    2.666191   2.153037   3.396254   1.088634   3.866646
    10  H    4.587944   3.400660   2.144879   3.867510   1.089501
    11  H    4.587907   3.400670   3.867489   2.144855   3.391727
    12  H    5.309386   3.891641   3.402518   3.402513   2.157537
    13  C    1.417761   2.455693   2.958126   3.641440   4.306275
    14  C    2.445082   2.959383   3.179849   4.013834   4.320564
    15  C    2.445186   3.640528   4.011349   4.860480   5.393381
    16  C    3.715945   4.307149   4.319788   5.395795   5.397658
    17  C    3.716015   4.801973   4.969284   6.050621   6.294521
    18  C    4.220616   5.080169   5.104871   6.283654   6.303570
    19  H    2.666192   2.713877   2.938090   3.503978   3.834551
    20  H    2.666314   3.918902   4.386850   5.065118   5.763123
    21  H    4.587820   4.978369   4.882145   5.949446   5.771093
    22  H    4.588005   5.729764   5.880224   6.985912   7.210814
    23  H    5.309403   6.142299   6.084406   7.342244   7.225163
    24  C    1.417818   2.455704   3.641026   2.958788   4.802404
    25  C    2.445265   2.958854   4.012812   3.179967   4.970983
    26  C    2.445021   3.640802   4.860331   4.012361   6.050203
    27  C    3.716080   4.306802   5.394847   4.320245   6.296244
    28  C    3.715936   4.802234   6.050333   4.970528   7.178531
    29  C    4.220580   5.080118   6.282959   5.105866   7.293025
    30  H    2.666388   2.712773   3.502462   2.937281   4.290945
    31  H    2.665936   3.919282   5.065213   4.387803   6.291114
    32  H    4.588101   4.977994   5.948440   4.882490   6.704478
    33  H    4.587851   5.730124   6.985752   5.881581   8.136032
    34  H    5.309378   6.142261   7.341514   6.085469   8.314317
                    6          7          8          9         10
     6  C    0.000000
     7  C    1.391667   0.000000
     8  H    3.866615   3.402232   0.000000
     9  H    2.154604   3.402320   4.293645   0.000000
    10  H    3.391725   2.154856   2.472664   4.956115   0.000000
    11  H    1.089496   2.154901   4.956078   2.472747   4.296829
    12  H    2.157522   1.088798   4.302131   4.302192   2.488409
    13  C    4.802675   5.080122   2.711423   3.920358   4.977111
    14  C    4.972069   5.106938   2.936067   4.389514   4.882299
    15  C    6.050084   6.282082   3.500382   5.066081   5.946489
    16  C    6.297224   6.305245   3.831413   5.766060   5.770205
    17  C    7.178520   7.292138   4.288262   6.292383   6.702001
    18  C    7.293539   7.310326   4.434100   6.597670   6.630226
    19  H    4.292793   4.438433   3.006105   3.934957   4.454500
    20  H    6.290689   6.595113   3.931956   5.185762   6.348052
    21  H    6.705649   6.632991   4.451895   6.351344   6.053737
    22  H    8.135818   8.243130   5.137277   7.191521   7.572491
    23  H    8.314866   8.271137   5.355285   7.661977   7.459859
    24  C    4.306755   5.080227   3.919784   2.712642   5.730379
    25  C    4.320330   5.106207   4.388565   2.937186   5.882212
    26  C    5.394376   6.282687   5.065584   3.501856   6.985720
    27  C    5.397804   6.304762   5.765044   3.833007   7.212999
    28  C    6.295765   7.292819   6.291671   4.290283   8.136189
    29  C    6.304445   7.310512   6.596649   4.436175   8.244486
    30  H    3.833233   4.436703   3.933888   3.006326   5.140152
    31  H    5.764205   6.595951   5.185461   3.933003   7.190352
    32  H    5.771040   6.632271   6.350359   4.453424   7.575522
    33  H    7.212290   8.244066   7.190857   5.139281   9.095466
    34  H    7.226139   8.271362   7.660881   5.357468   9.265920
                   11         12         13         14         15
    11  H    0.000000
    12  H    2.488399   0.000000
    13  C    5.730831   6.142270   0.000000
    14  C    5.883537   6.086628   1.398628   0.000000
    15  C    6.985799   7.340561   1.398644   2.410366   0.000000
    16  C    7.214327   7.227044   2.418022   1.389255   2.778004
    17  C    8.136479   8.313334   2.418021   2.777961   1.389277
    18  C    8.245382   8.271164   2.802856   2.415274   2.415312
    19  H    5.142151   5.359855   2.153031   1.088647   3.396234
    20  H    7.190043   7.659201   2.153028   3.396228   1.088662
    21  H    7.577093   7.463015   3.400615   2.144806   3.867478
    22  H    9.095544   9.264388   3.400674   3.867449   2.144898
    23  H    9.266905   9.196096   3.891642   3.402516   3.402492
    24  C    4.977775   6.142400   2.455576   3.640812   2.958547
    25  C    4.882285   6.085919   3.640454   4.860291   4.011298
    26  C    5.947768   7.341220   2.959009   4.012179   3.180915
    27  C    5.770680   7.226586   4.801873   6.050075   4.969580
    28  C    6.703694   8.314106   4.306813   5.394129   4.320848
    29  C    6.631590   8.271428   5.079905   6.282430   5.105595
    30  H    4.453324   5.358150   3.918894   5.065508   4.386302
    31  H    6.349380   7.660101   2.713219   3.501569   2.939354
    32  H    6.053980   7.462288   5.729717   6.985628   5.880320
    33  H    7.574475   9.265448   4.978079   5.947504   4.883575
    34  H    7.461402   9.196414   6.142076   7.340935   6.085305
                   16         17         18         19         20
    16  C    0.000000
    17  C    2.401003   0.000000
    18  C    1.391644   1.391647   0.000000
    19  H    2.154519   3.866583   3.402246   0.000000
    20  H    3.866642   2.154611   3.402329   4.293640   0.000000
    21  H    1.089505   3.391735   2.154927   2.472559   4.956113
    22  H    3.391699   1.089517   2.154863   4.956067   2.472782
    23  H    2.157570   2.157484   1.088787   4.302160   4.302170
    24  C    4.802143   4.306544   5.080021   3.919540   2.712363
    25  C    6.049880   5.393286   6.281951   5.065968   3.500352
    26  C    4.970573   4.321293   5.106565   4.387258   2.938635
    27  C    7.177994   6.294710   7.291987   6.291693   4.289009
    28  C    6.295615   5.398432   6.304816   5.763746   3.834082
    29  C    7.292364   6.304106   7.310013   6.595978   4.435965
    30  H    6.290984   5.762634   6.595025   5.186580   3.930825
    31  H    4.290601   3.835449   4.437813   3.931762   3.009051
    32  H    8.135521   7.210839   8.243010   7.191234   5.137532
    33  H    6.703735   5.772261   6.632601   6.348540   4.455198
    34  H    8.313606   7.225899   8.270884   7.660095   5.357427
                   21         22         23         24         25
    21  H    0.000000
    22  H    4.296854   0.000000
    23  H    2.488559   2.488310   0.000000
    24  C    5.730045   4.977649   6.142182   0.000000
    25  C    6.985511   5.946451   7.340395   1.398627   0.000000
    26  C    5.881420   4.883791   6.086336   1.398630   2.410424
    27  C    8.135688   6.702475   8.313166   2.417987   1.389298
    28  C    7.211985   5.771888   7.226679   2.418018   2.778080
    29  C    8.243649   6.631442   8.270880   2.802761   2.415297
    30  H    7.190515   6.347318   7.659036   2.152989   1.088637
    31  H    5.139158   4.456391   5.359388   2.152963   3.396224
    32  H    9.095091   7.572652   9.264224   3.400645   2.144921
    33  H    7.574211   6.056112   7.462722   3.400657   3.867546
    34  H    9.264982   7.461411   9.195882   3.891560   3.402517
                   26         27         28         29         30
    26  C    0.000000
    27  C    2.778014   0.000000
    28  C    1.389285   2.401066   0.000000
    29  C    2.415266   1.391632   1.391657   0.000000
    30  H    3.396242   2.154644   3.866692   3.402316   0.000000
    31  H    1.088640   3.866629   2.154630   3.402300   4.293556
    32  H    3.867485   1.089500   3.391729   2.154834   2.472866
    33  H    2.144898   3.391748   1.089495   2.154897   4.956155
    34  H    3.402478   2.157511   2.157507   1.088799   4.302219
                   31         32         33         34
    31  H    0.000000
    32  H    4.956096   0.000000
    33  H    2.472833   4.296814   0.000000
    34  H    4.302194   2.488338   2.488389   0.000000
 Stoichiometry    C18H15N
 Framework group  C1[X(C18H15N)]
 Deg. of freedom    96
 Full point group                 C1      NOp   1
 Largest Abelian subgroup         C1      NOp   1
 Largest concise Abelian subgroup C1      NOp   1
                         Standard orientation:                         
 ---------------------------------------------------------------------
 Center     Atomic      Atomic             Coordinates (Angstroms)
 Number     Number       Type             X           Y           Z
 ---------------------------------------------------------------------
      1          7           0       -0.000022    0.000126   -0.001279
      2          6           0       -0.411410    1.356873   -0.000484
      3          6           0       -1.495388    1.769410    0.781179
      4          6           0        0.260509    2.302668   -0.781717
      5          6           0       -1.900964    3.098133    0.771590
      6          6           0       -0.140310    3.632823   -0.770872
      7          6           0       -1.224951    4.039050    0.000666
      8          1           0       -2.020023    1.039168    1.394849
      9          1           0        1.101979    1.987206   -1.396157
     10          1           0       -2.747815    3.402281    1.385878
     11          1           0        0.394842    4.356658   -1.384611
     12          1           0       -1.541008    5.080966    0.001027
     13          6           0       -0.969209   -1.034631   -0.000488
     14          6           0       -2.123113   -0.926761   -0.783450
     15          6           0       -0.785513   -2.178628    0.782922
     16          6           0       -3.074603   -1.938977   -0.772694
     17          6           0       -1.733510   -3.194160    0.773528
     18          6           0       -2.885344   -3.080217    0.000886
     19          1           0       -2.269925   -0.041128   -1.399284
     20          1           0        0.108384   -2.266911    1.398014
     21          1           0       -3.968013   -1.838326   -1.388087
     22          1           0       -1.574421   -4.078745    1.389358
     23          1           0       -3.629741   -3.874779    0.001646
     24          6           0        1.380705   -0.322058   -0.000436
     25          6           0        2.279720    0.408815    0.782988
     26          6           0        1.863904   -1.375397   -0.783483
     27          6           0        3.633193    0.095502    0.773256
     28          6           0        3.216226   -1.693556   -0.772877
     29          6           0        4.110133   -0.958995    0.000466
     30          1           0        1.909375    1.227058    1.398174
     31          1           0        1.170022   -1.945208   -1.399095
     32          1           0        4.319906    0.675407    1.389003
     33          1           0        3.575681   -2.517564   -1.388348
     34          1           0        5.170466   -1.206335    0.000686
 ---------------------------------------------------------------------
 Rotational constants (GHZ):           0.4036067           0.4035965           0.2213359
 Leave Link  202 at Sun Jan 17 21:36:53 2021, MaxMem=  4026531840 cpu:               0.2 elap:               0.0
 (Enter /opt/ohpc/pub/libs/gaussian/g16-A.03/sandybridge/g16/l301.exe)
 Standard basis: TZVP (5D, 7F)
 Ernie: Thresh=  0.10000D-02 Tol=  0.10000D-05 Strict=F.
 There are   470 symmetry adapted cartesian basis functions of A   symmetry.
 There are   451 symmetry adapted basis functions of A   symmetry.
   451 basis functions,   785 primitive gaussians,   470 cartesian basis functions
    65 alpha electrons       65 beta electrons
       nuclear repulsion energy      1298.2205480218 Hartrees.
 IExCor=33909 DFT=T Ex+Corr=LC-wHPBE ExCW=0 ScaHFX=  1.000000
 ScaDFX=  1.000000  1.000000  1.000000  1.000000 ScalE2=  1.000000  1.000000
 IRadAn=      5 IRanWt=     -1 IRanGd=            0 ICorTp=0 IEmpDi=  4
 HFx  wShort=  0.000000 wLong=  0.197300 cFull=  0.000000 cShort=  0.000000 cLong=  1.000000
 DFx  wShort=  0.000000 wLong=  0.197300 cFull=  0.000000 cShort=  1.000000 cLong=  0.000000
 NAtoms=   34 NActive=   34 NUniq=   34 SFac= 1.00D+00 NAtFMM=   60 NAOKFM=F Big=F
 Integral buffers will be    131072 words long.
 Raffenetti 2 integral format.
 Two-electron integral symmetry is turned on.
 Leave Link  301 at Sun Jan 17 21:36:53 2021, MaxMem=  4026531840 cpu:               0.4 elap:               0.1
 (Enter /opt/ohpc/pub/libs/gaussian/g16-A.03/sandybridge/g16/l302.exe)
 NPDir=0 NMtPBC=     1 NCelOv=     1 NCel=       1 NClECP=     1 NCelD=      1
         NCelK=      1 NCelE2=     1 NClLst=     1 CellRange=     0.0.
 One-electron integrals computed using PRISM.
 One-electron integral symmetry used in STVInt
 NBasis=   451 RedAO= T EigKep=  8.44D-06  NBF=   451
 NBsUse=   451 1.00D-06 EigRej= -1.00D+00 NBFU=   451
 Precomputing XC quadrature grid using
 IXCGrd= 4 IRadAn=           5 IRanWt=          -1 IRanGd=           0 AccXCQ= 0.00D+00.
 Generated NRdTot=       0 NPtTot=           0 NUsed=           0 NTot=          32
 NSgBfM=   462   462   462   462   462 MxSgAt=    34 MxSgA2=    34.
 Leave Link  302 at Sun Jan 17 21:36:54 2021, MaxMem=  4026531840 cpu:               4.4 elap:               0.6
 (Enter /opt/ohpc/pub/libs/gaussian/g16-A.03/sandybridge/g16/l303.exe)
 DipDrv:  MaxL=1.
 Leave Link  303 at Sun Jan 17 21:36:54 2021, MaxMem=  4026531840 cpu:               0.4 elap:               0.1
 (Enter /opt/ohpc/pub/libs/gaussian/g16-A.03/sandybridge/g16/l401.exe)
 ExpMin= 9.52D-02 ExpMax= 1.97D+04 ExpMxC= 6.73D+02 IAcc=3 IRadAn=         5 AccDes= 0.00D+00
 Harris functional with IExCor=33909 and IRadAn=       5 diagonalized for initial guess.
 HarFok:  IExCor=33909 AccDes= 0.00D+00 IRadAn=         5 IDoV= 1 UseB2=F ITyADJ=14
 ICtDFT=  3500011 ScaDFX=  1.000000  1.000000  1.000000  1.000000
 FoFCou: FMM=F IPFlag=           0 FMFlag=      100000 FMFlg1=           0
         NFxFlg=           0 DoJE=T BraDBF=F KetDBF=T FulRan=T
         wScrn=  0.000000 ICntrl=       500 IOpCl=  0 I1Cent=   200000004 NGrid=           0
         NMat0=    1 NMatS0=      1 NMatT0=    0 NMatD0=    1 NMtDS0=    0 NMtDT0=    0
 Petite list used in FoFCou.
 Harris En= -735.623045770954    
 JPrj=0 DoOrth=F DoCkMO=F.
 Leave Link  401 at Sun Jan 17 21:36:57 2021, MaxMem=  4026531840 cpu:              27.2 elap:               3.4
 (Enter /opt/ohpc/pub/libs/gaussian/g16-A.03/sandybridge/g16/l502.exe)
 Integral symmetry usage will be decided dynamically.
 Closed shell SCF:
 Using DIIS extrapolation, IDIIS=    10.
 NGot=  4026531840 LenX=  4026081620 LenY=  4025860250
 Requested convergence on RMS density matrix=1.00D-06 within  32 cycles.
 Requested convergence on MAX density matrix=1.00D-04.
 Requested convergence on             energy=1.00D-04.
 Virtual orbitals will be shifted by   0.500 hartree.
 No special actions if energy rises.
 Dynamic level shift is on during FON iterations.

 Cycle   1  Pass 1  IDiag  1:
 FoFJK:  IHMeth= 1 ICntrl=       0 DoSepK=T KAlg= 0 I1Cent=           0 FoldK=F
 IRaf=         1 NMat=       1 IRICut=       1 DoRegI=T DoRafI=F ISym2E= 0 IDoP0=0 IntGTp=1.
 FoFCou: FMM=F IPFlag=           0 FMFlag=      100000 FMFlg1=           0
         NFxFlg=           0 DoJE=T BraDBF=F KetDBF=F FulRan=T
         wScrn=  0.000000 ICntrl=       500 IOpCl=  0 I1Cent=           0 NGrid=           0
         NMat0=    1 NMatS0=      1 NMatT0=    0 NMatD0=    1 NMtDS0=    0 NMtDT0=    0
 Symmetry not used in FoFCou.
 E= -748.877824077476    
 DIIS: error= 3.50D-02 at cycle   1 NSaved=   1.
 NSaved= 1 IEnMin= 1 EnMin= -748.877824077476     IErMin= 1 ErrMin= 3.50D-02
 ErrMax= 3.50D-02  0.00D+00 EMaxC= 1.00D+00 BMatC= 3.27D-01 BMatP= 3.27D-01
 IDIUse=1 WtCom= 1.00D+00 WtEn= 0.00D+00
 Coeff-Com:  0.100D+01
 Coeff:      0.100D+01
 Gap=     0.324 Goal=   None    Shift=    0.500
 T= 1589. Gap= 0.768 NK=0 IS=   66 IE=  451 IFin=   65
          NO(<0.9)=   0  NV(>0.1)=   0     65.00e < EF      0.00e >EF  Err=0.0D+00
 GapD=    0.324 DampG=1.000 DampE=0.500 DampFc=0.5000 IDamp=-1.
 Damping current iteration by 5.00D-01
 RMSDP=2.34D-03 MaxDP=6.04D-02              OVMax= 8.53D-02

 Cycle   2  Pass 1  IDiag  1:
 E= -749.085257190032     Delta-E=       -0.207433112556 Rises=F Damp=T
 DIIS: error= 1.62D-02 at cycle   2 NSaved=   2.
 NSaved= 2 IEnMin= 2 EnMin= -749.085257190032     IErMin= 2 ErrMin= 1.62D-02
 ErrMax= 1.62D-02  0.00D+00 EMaxC= 1.00D+00 BMatC= 5.56D-02 BMatP= 3.27D-01
 IDIUse=1 WtCom= 1.00D+00 WtEn= 0.00D+00
 Coeff-Com: -0.555D+00 0.155D+01
 Coeff:     -0.555D+00 0.155D+01
 Gap=     0.294 Goal=   None    Shift=    0.500
 T= 1471. Gap= 0.762 NK=0 IS=   66 IE=  451 IFin=   65
          NO(<0.9)=   0  NV(>0.1)=   0     65.00e < EF      0.00e >EF  Err=0.0D+00
 GapD=    0.294 DampG=1.000 DampE=0.500 DampFc=0.5000 IDamp=-1.
 Damping current iteration by 5.00D-01
 RMSDP=1.47D-03 MaxDP=5.05D-02 DE=-2.07D-01 OVMax= 1.90D-02

 Cycle   3  Pass 1  IDiag  1:
 E= -749.156023410081     Delta-E=       -0.070766220049 Rises=F Damp=T
 DIIS: error= 7.40D-03 at cycle   3 NSaved=   3.
 NSaved= 3 IEnMin= 3 EnMin= -749.156023410081     IErMin= 3 ErrMin= 7.40D-03
 ErrMax= 7.40D-03  0.00D+00 EMaxC= 1.00D+00 BMatC= 1.06D-02 BMatP= 5.56D-02
 IDIUse=1 WtCom= 1.00D+00 WtEn= 0.00D+00
 Coeff-Com:  0.511D-01-0.873D+00 0.182D+01
 Coeff:      0.511D-01-0.873D+00 0.182D+01
 Gap=     0.282 Goal=   None    Shift=    0.500
 T= 1239. Gap= 0.780 NK=0 IS=   66 IE=  451 IFin=   65
          NO(<0.9)=   0  NV(>0.1)=   0     65.00e < EF      0.00e >EF  Err=0.0D+00
 GapD=    0.282 DampG=1.000 DampE=1.000 DampFc=1.0000 IDamp=-1.
 RMSDP=7.89D-04 MaxDP=2.71D-02 DE=-7.08D-02 OVMax= 1.09D-02

 Cycle   4  Pass 1  IDiag  1:
 E= -749.214810680285     Delta-E=       -0.058787270204 Rises=F Damp=F
 DIIS: error= 1.18D-03 at cycle   4 NSaved=   4.
 NSaved= 4 IEnMin= 4 EnMin= -749.214810680285     IErMin= 4 ErrMin= 1.18D-03
 ErrMax= 1.18D-03  0.00D+00 EMaxC= 1.00D+00 BMatC= 4.77D-04 BMatP= 1.06D-02
 IDIUse=1 WtCom= 1.00D+00 WtEn= 0.00D+00
 Coeff-Com:  0.806D-01-0.232D+00 0.213D+00 0.939D+00
 Coeff:      0.806D-01-0.232D+00 0.213D+00 0.939D+00
 Gap=     0.276 Goal=   None    Shift=    0.500
 T=  723. Gap= 0.776 NK=0 IS=   66 IE=  451 IFin=   65
          NO(<0.9)=   0  NV(>0.1)=   0     65.00e < EF      0.00e >EF  Err=0.0D+00
 GapD=    0.276 DampG=1.000 DampE=1.000 DampFc=1.0000 IDamp=-1.
 RMSDP=1.69D-04 MaxDP=2.75D-03 DE=-5.88D-02 OVMax= 5.31D-03

 Cycle   5  Pass 1  IDiag  1:
 E= -749.215325345357     Delta-E=       -0.000514665072 Rises=F Damp=F
 DIIS: error= 9.98D-04 at cycle   5 NSaved=   5.
 NSaved= 5 IEnMin= 5 EnMin= -749.215325345357     IErMin= 5 ErrMin= 9.98D-04
 ErrMax= 9.98D-04  0.00D+00 EMaxC= 1.00D+00 BMatC= 7.28D-05 BMatP= 4.77D-04
 IDIUse=1 WtCom= 1.00D+00 WtEn= 0.00D+00
 Coeff-Com:  0.159D-01 0.105D-02-0.692D-01-0.207D+00 0.126D+01
 Coeff:      0.159D-01 0.105D-02-0.692D-01-0.207D+00 0.126D+01
 Gap=     0.276 Goal=   None    Shift=    0.500
 RMSDP=1.32D-04 MaxDP=2.61D-03 DE=-5.15D-04 OVMax= 4.06D-03

 Cycle   6  Pass 1  IDiag  1:
 E= -749.215459928278     Delta-E=       -0.000134582921 Rises=F Damp=F
 DIIS: error= 8.80D-04 at cycle   6 NSaved=   6.
 NSaved= 6 IEnMin= 6 EnMin= -749.215459928278     IErMin= 6 ErrMin= 8.80D-04
 ErrMax= 8.80D-04  0.00D+00 EMaxC= 1.00D+00 BMatC= 1.49D-05 BMatP= 7.28D-05
 IDIUse=1 WtCom= 1.00D+00 WtEn= 0.00D+00
 Coeff-Com: -0.113D-01 0.426D-01-0.558D-01-0.250D+00 0.874D-01 0.119D+01
 Coeff:     -0.113D-01 0.426D-01-0.558D-01-0.250D+00 0.874D-01 0.119D+01
 Gap=     0.277 Goal=   None    Shift=    0.500
 RMSDP=8.25D-05 MaxDP=1.86D-03 DE=-1.35D-04 OVMax= 3.45D-03

 Cycle   7  Pass 1  IDiag  1:
 E= -749.215506616048     Delta-E=       -0.000046687770 Rises=F Damp=F
 DIIS: error= 6.15D-04 at cycle   7 NSaved=   7.
 NSaved= 7 IEnMin= 7 EnMin= -749.215506616048     IErMin= 7 ErrMin= 6.15D-04
 ErrMax= 6.15D-04  0.00D+00 EMaxC= 1.00D+00 BMatC= 4.55D-06 BMatP= 1.49D-05
 IDIUse=1 WtCom= 1.00D+00 WtEn= 0.00D+00
 Coeff-Com: -0.596D-02 0.511D-02 0.916D-02 0.429D-01-0.357D+00-0.500D+00
 Coeff-Com:  0.181D+01
 Coeff:     -0.596D-02 0.511D-02 0.916D-02 0.429D-01-0.357D+00-0.500D+00
 Coeff:      0.181D+01
 Gap=     0.277 Goal=   None    Shift=    0.500
 RMSDP=4.86D-05 MaxDP=1.12D-03 DE=-4.67D-05 OVMax= 2.65D-03

 Cycle   8  Pass 1  IDiag  1:
 E= -749.215527259604     Delta-E=       -0.000020643556 Rises=F Damp=F
 DIIS: error= 4.28D-04 at cycle   8 NSaved=   8.
 NSaved= 8 IEnMin= 8 EnMin= -749.215527259604     IErMin= 8 ErrMin= 4.28D-04
 ErrMax= 4.28D-04  0.00D+00 EMaxC= 1.00D+00 BMatC= 1.75D-06 BMatP= 4.55D-06
 IDIUse=1 WtCom= 1.00D+00 WtEn= 0.00D+00
 Coeff-Com:  0.262D-02-0.422D-02-0.171D-03 0.783D-01 0.167D-03-0.396D+00
 Coeff-Com: -0.932D+00 0.225D+01
 Coeff:      0.262D-02-0.422D-02-0.171D-03 0.783D-01 0.167D-03-0.396D+00
 Coeff:     -0.932D+00 0.225D+01
 Gap=     0.277 Goal=   None    Shift=    0.500
 RMSDP=2.26D-05 MaxDP=4.52D-04 DE=-2.06D-05 OVMax= 1.94D-03

 Cycle   9  Pass 1  IDiag  1:
 E= -749.215536260038     Delta-E=       -0.000009000434 Rises=F Damp=F
 DIIS: error= 2.85D-04 at cycle   9 NSaved=   9.
 NSaved= 9 IEnMin= 9 EnMin= -749.215536260038     IErMin= 9 ErrMin= 2.85D-04
 ErrMax= 2.85D-04  0.00D+00 EMaxC= 1.00D+00 BMatC= 7.62D-07 BMatP= 1.75D-06
 IDIUse=1 WtCom= 1.00D+00 WtEn= 0.00D+00
 Coeff-Com:  0.151D-02 0.500D-02-0.149D-01 0.330D-01 0.107D+00-0.112D+00
 Coeff-Com: -0.880D+00 0.367D+00 0.149D+01
 Coeff:      0.151D-02 0.500D-02-0.149D-01 0.330D-01 0.107D+00-0.112D+00
 Coeff:     -0.880D+00 0.367D+00 0.149D+01
 Gap=     0.277 Goal=   None    Shift=    0.500
 RMSDP=9.76D-06 MaxDP=1.97D-04 DE=-9.00D-06 OVMax= 1.27D-03

 Cycle  10  Pass 1  IDiag  1:
 E= -749.215539896321     Delta-E=       -0.000003636283 Rises=F Damp=F
 DIIS: error= 1.86D-04 at cycle  10 NSaved=  10.
 NSaved=10 IEnMin=10 EnMin= -749.215539896321     IErMin=10 ErrMin= 1.86D-04
 ErrMax= 1.86D-04  0.00D+00 EMaxC= 1.00D+00 BMatC= 3.26D-07 BMatP= 7.62D-07
 IDIUse=1 WtCom= 1.00D+00 WtEn= 0.00D+00
 Coeff-Com: -0.850D-03 0.814D-02-0.131D-01-0.483D-02 0.626D-01 0.470D-01
 Coeff-Com: -0.696D-01-0.697D+00-0.191D+00 0.186D+01
 Coeff:     -0.850D-03 0.814D-02-0.131D-01-0.483D-02 0.626D-01 0.470D-01
 Coeff:     -0.696D-01-0.697D+00-0.191D+00 0.186D+01
 Gap=     0.277 Goal=   None    Shift=    0.500
 RMSDP=5.21D-06 MaxDP=1.33D-04 DE=-3.64D-06 OVMax= 8.46D-04

 Cycle  11  Pass 1  IDiag  1:
 E= -749.215541370824     Delta-E=       -0.000001474502 Rises=F Damp=F
 DIIS: error= 1.16D-04 at cycle  11 NSaved=  11.
 NSaved=11 IEnMin=11 EnMin= -749.215541370824     IErMin=11 ErrMin= 1.16D-04
 ErrMax= 1.16D-04  0.00D+00 EMaxC= 1.00D+00 BMatC= 1.45D-07 BMatP= 3.26D-07
 IDIUse=1 WtCom= 1.00D+00 WtEn= 0.00D+00
 Coeff-Com: -0.784D-03 0.212D-02-0.135D-02-0.736D-03-0.191D-01 0.104D-01
 Coeff-Com:  0.202D+00-0.551D-01-0.936D+00-0.285D+00 0.208D+01
 Coeff:     -0.784D-03 0.212D-02-0.135D-02-0.736D-03-0.191D-01 0.104D-01
 Coeff:      0.202D+00-0.551D-01-0.936D+00-0.285D+00 0.208D+01
 Gap=     0.277 Goal=   None    Shift=    0.500
 RMSDP=3.24D-06 MaxDP=8.40D-05 DE=-1.47D-06 OVMax= 5.35D-04

 Cycle  12  Pass 1  IDiag  1:
 E= -749.215541942603     Delta-E=       -0.000000571780 Rises=F Damp=F
 DIIS: error= 7.15D-05 at cycle  12 NSaved=  12.
 NSaved=12 IEnMin=12 EnMin= -749.215541942603     IErMin=12 ErrMin= 7.15D-05
 ErrMax= 7.15D-05  0.00D+00 EMaxC= 1.00D+00 BMatC= 6.45D-08 BMatP= 1.45D-07
 IDIUse=1 WtCom= 1.00D+00 WtEn= 0.00D+00
 Coeff-Com: -0.113D-03 0.684D-03-0.885D-03 0.612D-02-0.124D-01-0.111D-01
 Coeff-Com: -0.439D-02 0.226D+00-0.298D+00-0.233D+00-0.929D+00 0.226D+01
 Coeff:     -0.113D-03 0.684D-03-0.885D-03 0.612D-02-0.124D-01-0.111D-01
 Coeff:     -0.439D-02 0.226D+00-0.298D+00-0.233D+00-0.929D+00 0.226D+01
 Gap=     0.277 Goal=   None    Shift=    0.500
 RMSDP=1.80D-06 MaxDP=4.94D-05 DE=-5.72D-07 OVMax= 3.23D-04

 Cycle  13  Pass 1  IDiag  1:
 E= -749.215542156019     Delta-E=       -0.000000213416 Rises=F Damp=F
 DIIS: error= 4.42D-05 at cycle  13 NSaved=  13.
 NSaved=13 IEnMin=13 EnMin= -749.215542156019     IErMin=13 ErrMin= 4.42D-05
 ErrMax= 4.42D-05  0.00D+00 EMaxC= 1.00D+00 BMatC= 2.76D-08 BMatP= 6.45D-08
 IDIUse=1 WtCom= 1.00D+00 WtEn= 0.00D+00
 Coeff-Com:  0.121D-03 0.298D-03-0.995D-03 0.517D-02-0.131D-02-0.997D-02
 Coeff-Com: -0.782D-01 0.192D+00 0.918D-01-0.601D-01-0.151D+01 0.102D+01
 Coeff-Com:  0.136D+01
 Coeff:      0.121D-03 0.298D-03-0.995D-03 0.517D-02-0.131D-02-0.997D-02
 Coeff:     -0.782D-01 0.192D+00 0.918D-01-0.601D-01-0.151D+01 0.102D+01
 Coeff:      0.136D+01
 Gap=     0.277 Goal=   None    Shift=    0.500
 RMSDP=1.06D-06 MaxDP=3.00D-05 DE=-2.13D-07 OVMax= 1.97D-04

 Cycle  14  Pass 1  IDiag  1:
 E= -749.215542236430     Delta-E=       -0.000000080412 Rises=F Damp=F
 DIIS: error= 2.68D-05 at cycle  14 NSaved=  14.
 NSaved=14 IEnMin=14 EnMin= -749.215542236430     IErMin=14 ErrMin= 2.68D-05
 ErrMax= 2.68D-05  0.00D+00 EMaxC= 1.00D+00 BMatC= 1.06D-08 BMatP= 2.76D-08
 IDIUse=1 WtCom= 1.00D+00 WtEn= 0.00D+00
 Coeff-Com: -0.316D-04 0.279D-03-0.452D-03-0.551D-03 0.284D-02 0.146D-02
 Coeff-Com:  0.120D-03-0.351D-01 0.402D-01 0.271D-01 0.175D+00-0.471D+00
 Coeff-Com: -0.139D+01 0.265D+01
 Coeff:     -0.316D-04 0.279D-03-0.452D-03-0.551D-03 0.284D-02 0.146D-02
 Coeff:      0.120D-03-0.351D-01 0.402D-01 0.271D-01 0.175D+00-0.471D+00
 Coeff:     -0.139D+01 0.265D+01
 Gap=     0.277 Goal=   None    Shift=    0.500
 RMSDP=6.25D-07 MaxDP=1.90D-05 DE=-8.04D-08 OVMax= 1.18D-04

 SCF Done:  E(RLC-wHPBE) =  -749.215542236     A.U. after   14 cycles
            NFock= 14  Conv=0.63D-06     -V/T= 2.0049
 KE= 7.455765839465D+02 PE=-4.335836138850D+03 EE= 1.542823464645D+03
 Leave Link  502 at Sun Jan 17 21:41:25 2021, MaxMem=  4026531840 cpu:            2137.5 elap:             267.9
 (Enter /opt/ohpc/pub/libs/gaussian/g16-A.03/sandybridge/g16/l508.exe)
 QCSCF skips out because SCF is already converged.
 Leave Link  508 at Sun Jan 17 21:41:25 2021, MaxMem=  4026531840 cpu:               0.1 elap:               0.0
 (Enter /opt/ohpc/pub/libs/gaussian/g16-A.03/sandybridge/g16/l601.exe)
 Copying SCF densities to generalized density rwf, IOpCl= 0 IROHF=0.

 **********************************************************************

            Population analysis using the SCF density.

 **********************************************************************

 Orbital symmetries:
       Occupied  (A) (A) (A) (A) (A) (A) (A) (A) (A) (A) (A) (A)
                 (A) (A) (A) (A) (A) (A) (A) (A) (A) (A) (A) (A)
                 (A) (A) (A) (A) (A) (A) (A) (A) (A) (A) (A) (A)
                 (A) (A) (A) (A) (A) (A) (A) (A) (A) (A) (A) (A)
                 (A) (A) (A) (A) (A) (A) (A) (A) (A) (A) (A) (A)
                 (A) (A) (A) (A) (A)
       Virtual   (A) (A) (A) (A) (A) (A) (A) (A) (A) (A) (A) (A)
                 (A) (A) (A) (A) (A) (A) (A) (A) (A) (A) (A) (A)
                 (A) (A) (A) (A) (A) (A) (A) (A) (A) (A) (A) (A)
                 (A) (A) (A) (A) (A) (A) (A) (A) (A) (A) (A) (A)
                 (A) (A) (A) (A) (A) (A) (A) (A) (A) (A) (A) (A)
                 (A) (A) (A) (A) (A) (A) (A) (A) (A) (A) (A) (A)
                 (A) (A) (A) (A) (A) (A) (A) (A) (A) (A) (A) (A)
                 (A) (A) (A) (A) (A) (A) (A) (A) (A) (A) (A) (A)
                 (A) (A) (A) (A) (A) (A) (A) (A) (A) (A) (A) (A)
                 (A) (A) (A) (A) (A) (A) (A) (A) (A) (A) (A) (A)
                 (A) (A) (A) (A) (A) (A) (A) (A) (A) (A) (A) (A)
                 (A) (A) (A) (A) (A) (A) (A) (A) (A) (A) (A) (A)
                 (A) (A) (A) (A) (A) (A) (A) (A) (A) (A) (A) (A)
                 (A) (A) (A) (A) (A) (A) (A) (A) (A) (A) (A) (A)
                 (A) (A) (A) (A) (A) (A) (A) (A) (A) (A) (A) (A)
                 (A) (A) (A) (A) (A) (A) (A) (A) (A) (A) (A) (A)
                 (A) (A) (A) (A) (A) (A) (A) (A) (A) (A) (A) (A)
                 (A) (A) (A) (A) (A) (A) (A) (A) (A) (A) (A) (A)
                 (A) (A) (A) (A) (A) (A) (A) (A) (A) (A) (A) (A)
                 (A) (A) (A) (A) (A) (A) (A) (A) (A) (A) (A) (A)
                 (A) (A) (A) (A) (A) (A) (A) (A) (A) (A) (A) (A)
                 (A) (A) (A) (A) (A) (A) (A) (A) (A) (A) (A) (A)
                 (A) (A) (A) (A) (A) (A) (A) (A) (A) (A) (A) (A)
                 (A) (A) (A) (A) (A) (A) (A) (A) (A) (A) (A) (A)
                 (A) (A) (A) (A) (A) (A) (A) (A) (A) (A) (A) (A)
                 (A) (A) (A) (A) (A) (A) (A) (A) (A) (A) (A) (A)
                 (A) (A) (A) (A) (A) (A) (A) (A) (A) (A) (A) (A)
                 (A) (A) (A) (A) (A) (A) (A) (A) (A) (A) (A) (A)
                 (A) (A) (A) (A) (A) (A) (A) (A) (A) (A) (A) (A)
                 (A) (A) (A) (A) (A) (A) (A) (A) (A) (A) (A) (A)
                 (A) (A) (A) (A) (A) (A) (A) (A) (A) (A) (A) (A)
                 (A) (A) (A) (A) (A) (A) (A) (A) (A) (A) (A) (A)
                 (A) (A)
 The electronic state is 1-A.
 Alpha  occ. eigenvalues --  -14.13043 -10.04076 -10.04076 -10.04074 -10.00035
 Alpha  occ. eigenvalues --  -10.00035 -10.00034 -10.00034 -10.00031 -10.00031
 Alpha  occ. eigenvalues --   -9.99748  -9.99747  -9.99747  -9.99746  -9.99744
 Alpha  occ. eigenvalues --   -9.99742  -9.99564  -9.99563  -9.99559  -1.00463
 Alpha  occ. eigenvalues --   -0.90017  -0.90014  -0.88033  -0.80590  -0.80589
 Alpha  occ. eigenvalues --   -0.79078  -0.78962  -0.78960  -0.75471  -0.68101
 Alpha  occ. eigenvalues --   -0.68099  -0.65748  -0.65188  -0.65186  -0.62498
 Alpha  occ. eigenvalues --   -0.59437  -0.59436  -0.56088  -0.53696  -0.53694
 Alpha  occ. eigenvalues --   -0.52511  -0.50777  -0.50776  -0.49651  -0.48818
 Alpha  occ. eigenvalues --   -0.48816  -0.48050  -0.47753  -0.47751  -0.44448
 Alpha  occ. eigenvalues --   -0.44161  -0.44159  -0.42642  -0.41413  -0.41410
 Alpha  occ. eigenvalues --   -0.40943  -0.39809  -0.39807  -0.37501  -0.33157
 Alpha  occ. eigenvalues --   -0.33155  -0.33113  -0.31897  -0.31896  -0.24972
 Alpha virt. eigenvalues --    0.02686   0.03041   0.03043   0.05116   0.05118
 Alpha virt. eigenvalues --    0.07868   0.10629   0.11579   0.11581   0.13985
 Alpha virt. eigenvalues --    0.13986   0.14147   0.14507   0.15706   0.15707
 Alpha virt. eigenvalues --    0.16775   0.16775   0.16940   0.17410   0.18501
 Alpha virt. eigenvalues --    0.18502   0.18917   0.18917   0.21271   0.22244
 Alpha virt. eigenvalues --    0.24610   0.24610   0.25004   0.25475   0.26032
 Alpha virt. eigenvalues --    0.26380   0.26382   0.27238   0.27241   0.28401
 Alpha virt. eigenvalues --    0.28417   0.28424   0.29662   0.29663   0.30013
 Alpha virt. eigenvalues --    0.30278   0.30319   0.30322   0.31219   0.31831
 Alpha virt. eigenvalues --    0.31836   0.32928   0.32929   0.34231   0.34233
 Alpha virt. eigenvalues --    0.34952   0.35777   0.35779   0.36818   0.37144
 Alpha virt. eigenvalues --    0.38217   0.38507   0.38511   0.39308   0.39311
 Alpha virt. eigenvalues --    0.40876   0.42684   0.42953   0.42959   0.43582
 Alpha virt. eigenvalues --    0.43760   0.43761   0.44971   0.44973   0.45077
 Alpha virt. eigenvalues --    0.45241   0.45985   0.45993   0.46451   0.47180
 Alpha virt. eigenvalues --    0.47181   0.48368   0.48551   0.48553   0.49304
 Alpha virt. eigenvalues --    0.49309   0.49466   0.50800   0.50801   0.51695
 Alpha virt. eigenvalues --    0.53009   0.53011   0.54002   0.54015   0.54018
 Alpha virt. eigenvalues --    0.55065   0.55328   0.55451   0.55456   0.56177
 Alpha virt. eigenvalues --    0.56587   0.56599   0.57224   0.58764   0.58766
 Alpha virt. eigenvalues --    0.60705   0.60816   0.60825   0.60852   0.63742
 Alpha virt. eigenvalues --    0.63743   0.66020   0.66635   0.68135   0.68137
 Alpha virt. eigenvalues --    0.71925   0.71925   0.73124   0.73129   0.74665
 Alpha virt. eigenvalues --    0.74858   0.74863   0.75362   0.75365   0.75382
 Alpha virt. eigenvalues --    0.75626   0.77460   0.77472   0.81041   0.81067
 Alpha virt. eigenvalues --    0.81403   0.83089   0.83095   0.86255   0.89832
 Alpha virt. eigenvalues --    0.89842   0.90786   0.91012   0.97031   0.97039
 Alpha virt. eigenvalues --    0.99190   1.18039   1.20540   1.20541   1.23951
 Alpha virt. eigenvalues --    1.23957   1.24386   1.27327   1.27330   1.27835
 Alpha virt. eigenvalues --    1.28325   1.28328   1.29846   1.30627   1.31018
 Alpha virt. eigenvalues --    1.31020   1.32180   1.32187   1.32859   1.32864
 Alpha virt. eigenvalues --    1.33130   1.34169   1.34712   1.34713   1.34732
 Alpha virt. eigenvalues --    1.35990   1.35992   1.36685   1.38091   1.38180
 Alpha virt. eigenvalues --    1.39009   1.39018   1.46243   1.46246   1.46837
 Alpha virt. eigenvalues --    1.47392   1.47394   1.48000   1.48003   1.48157
 Alpha virt. eigenvalues --    1.48405   1.48687   1.48964   1.48970   1.50056
 Alpha virt. eigenvalues --    1.50059   1.51139   1.51665   1.51674   1.51744
 Alpha virt. eigenvalues --    1.52672   1.52677   1.54527   1.55335   1.55735
 Alpha virt. eigenvalues --    1.55740   1.56781   1.56785   1.58693   1.58695
 Alpha virt. eigenvalues --    1.58973   1.59240   1.59669   1.59671   1.60887
 Alpha virt. eigenvalues --    1.61203   1.61203   1.62238   1.62241   1.62692
 Alpha virt. eigenvalues --    1.63550   1.64077   1.64085   1.70475   1.70983
 Alpha virt. eigenvalues --    1.70984   1.74766   1.74782   1.79660   1.79669
 Alpha virt. eigenvalues --    1.80164   1.80223   1.80731   1.80733   1.81408
 Alpha virt. eigenvalues --    1.82782   1.82950   1.82953   1.83548   1.84997
 Alpha virt. eigenvalues --    1.85011   1.85577   1.85585   1.86113   1.87793
 Alpha virt. eigenvalues --    1.90363   1.90364   1.91704   1.91713   1.92084
 Alpha virt. eigenvalues --    1.92085   1.94315   1.94637   1.94641   1.95549
 Alpha virt. eigenvalues --    1.95557   1.95816   1.95849   1.95858   1.96449
 Alpha virt. eigenvalues --    1.97080   1.97090   1.98215   2.00966   2.00981
 Alpha virt. eigenvalues --    2.00984   2.03000   2.03382   2.03383   2.06076
 Alpha virt. eigenvalues --    2.06089   2.07250   2.10988   2.10990   2.14915
 Alpha virt. eigenvalues --    2.15085   2.15088   2.18787   2.23180   2.23182
 Alpha virt. eigenvalues --    2.26328   2.27525   2.27533   2.29769   2.32623
 Alpha virt. eigenvalues --    2.32625   2.33972   2.33982   2.34679   2.34679
 Alpha virt. eigenvalues --    2.35078   2.35082   2.37214   2.37410   2.37414
 Alpha virt. eigenvalues --    2.38018   2.39032   2.39766   2.39769   2.40141
 Alpha virt. eigenvalues --    2.40145   2.41233   2.48365   2.48371   2.49200
 Alpha virt. eigenvalues --    2.52638   2.52644   2.54036   2.54038   2.55187
 Alpha virt. eigenvalues --    2.55188   2.55391   2.56131   2.58244   2.58251
 Alpha virt. eigenvalues --    2.59259   2.62773   2.66579   2.66581   2.67396
 Alpha virt. eigenvalues --    2.67727   2.67733   2.67872   2.67874   2.69519
 Alpha virt. eigenvalues --    2.70146   2.70984   2.70985   2.76943   2.77521
 Alpha virt. eigenvalues --    2.77522   2.79760   2.79769   2.81158   2.82308
 Alpha virt. eigenvalues --    2.85142   2.85145   2.87357   2.87797   2.87803
 Alpha virt. eigenvalues --    2.92388   2.99696   2.99710   3.00764   3.00772
 Alpha virt. eigenvalues --    3.03870   3.05171   3.05174   3.05544   3.06435
 Alpha virt. eigenvalues --    3.07866   3.07872   3.11726   3.13239   3.13240
 Alpha virt. eigenvalues --    3.14306   3.16032   3.18209   3.18215   3.20146
 Alpha virt. eigenvalues --    3.20148   3.22410   3.22411   3.23287   3.23289
 Alpha virt. eigenvalues --    3.24197   3.27907   3.35547   3.35552   3.36309
 Alpha virt. eigenvalues --    3.41082   3.43852   3.43856   3.49180   3.55062
 Alpha virt. eigenvalues --    3.57821   3.57832   3.63680   3.63684   3.84284
 Alpha virt. eigenvalues --    3.94799   3.94802  21.20578  21.23218  21.23221
 Alpha virt. eigenvalues --   21.68636  21.72011  21.72014  21.72627  21.80485
 Alpha virt. eigenvalues --   21.80491  21.91487  21.94896  21.97035  21.97040
 Alpha virt. eigenvalues --   22.02745  22.02747  22.08645  22.15116  22.15140
 Alpha virt. eigenvalues --   32.05264
          Condensed to atoms (all electrons):
               1          2          3          4          5          6
     1  N    6.511165   0.173195  -0.011620  -0.011191   0.013236   0.013223
     2  C    0.173195   5.392222   0.366340   0.366270   0.014723   0.014706
     3  C   -0.011620   0.366340   5.245741  -0.054287   0.368724  -0.133988
     4  C   -0.011191   0.366270  -0.054287   5.245567  -0.133892   0.368663
     5  C    0.013236   0.014723   0.368724  -0.133892   5.076567   0.029325
     6  C    0.013223   0.014706  -0.133988   0.368663   0.029325   5.076797
     7  C    0.005598  -0.094264  -0.023791  -0.023784   0.436602   0.436520
     8  H   -0.007303  -0.033577   0.395836   0.012504  -0.041555  -0.001166
     9  H   -0.007266  -0.033601   0.012536   0.395872  -0.001177  -0.041613
    10  H   -0.000570   0.017782  -0.052312  -0.002476   0.416491   0.016470
    11  H   -0.000571   0.017785  -0.002475  -0.052325   0.016469   0.416498
    12  H   -0.000041  -0.008021   0.024599   0.024598  -0.071561  -0.071574
    13  C    0.172777  -0.084269   0.026072  -0.006030  -0.000878  -0.005093
    14  C   -0.011153   0.025996  -0.058702   0.013994  -0.007187   0.003496
    15  C   -0.011598  -0.006282   0.014064  -0.008863   0.000738  -0.000283
    16  C    0.013236  -0.000770  -0.007223   0.000741  -0.000570   0.000098
    17  C    0.013276  -0.005063   0.003493  -0.000280   0.000097  -0.000050
    18  C    0.005598   0.002333  -0.000895   0.000081  -0.000061   0.000017
    19  H   -0.007236   0.002334   0.001399  -0.000671  -0.001417   0.000385
    20  H   -0.007310  -0.001129   0.000295  -0.000248  -0.000005   0.000012
    21  H   -0.000572  -0.000186   0.000052  -0.000033   0.000026  -0.000001
    22  H   -0.000571   0.000011  -0.000025   0.000001  -0.000001   0.000000
    23  H   -0.000041   0.000018  -0.000016   0.000001  -0.000001  -0.000000
    24  C    0.172743  -0.084315  -0.006130   0.025987  -0.005074  -0.000842
    25  C   -0.011619   0.026099   0.014064  -0.058636   0.003482  -0.007217
    26  C   -0.011165  -0.006129  -0.008877   0.014003  -0.000280   0.000745
    27  C    0.013269  -0.000846   0.000744  -0.007213   0.000097  -0.000574
    28  C    0.013254  -0.005095  -0.000280   0.003493  -0.000050   0.000097
    29  C    0.005594   0.002363   0.000081  -0.000897   0.000017  -0.000061
    30  H   -0.007284   0.002401  -0.000661   0.001369   0.000389  -0.001416
    31  H   -0.007264  -0.001107  -0.000248   0.000290   0.000012  -0.000005
    32  H   -0.000571  -0.000187  -0.000033   0.000051  -0.000001   0.000026
    33  H   -0.000572   0.000011   0.000001  -0.000025   0.000000  -0.000001
    34  H   -0.000041   0.000018   0.000001  -0.000015  -0.000000  -0.000001
               7          8          9         10         11         12
     1  N    0.005598  -0.007303  -0.007266  -0.000570  -0.000571  -0.000041
     2  C   -0.094264  -0.033577  -0.033601   0.017782   0.017785  -0.008021
     3  C   -0.023791   0.395836   0.012536  -0.052312  -0.002475   0.024599
     4  C   -0.023784   0.012504   0.395872  -0.002476  -0.052325   0.024598
     5  C    0.436602  -0.041555  -0.001177   0.416491   0.016469  -0.071561
     6  C    0.436520  -0.001166  -0.041613   0.016470   0.416498  -0.071574
     7  C    5.044350   0.009676   0.009692  -0.066722  -0.066727   0.432042
     8  H    0.009676   0.519789  -0.000267  -0.007248   0.000012  -0.000100
     9  H    0.009692  -0.000267   0.519866   0.000012  -0.007252  -0.000100
    10  H   -0.066722  -0.007248   0.000012   0.581993  -0.000234  -0.008784
    11  H   -0.066727   0.000012  -0.007252  -0.000234   0.581999  -0.008784
    12  H    0.432042  -0.000100  -0.000100  -0.008784  -0.008784   0.583150
    13  C    0.002367   0.002453  -0.001106  -0.000187   0.000011   0.000018
    14  C   -0.000905   0.001346   0.000288   0.000052  -0.000025  -0.000015
    15  C    0.000083  -0.000665  -0.000248  -0.000033   0.000001   0.000001
    16  C   -0.000062  -0.001416  -0.000005   0.000026  -0.000001  -0.000001
    17  C    0.000017   0.000392   0.000012  -0.000001   0.000000  -0.000000
    18  C   -0.000009   0.000431  -0.000004  -0.000002   0.000000  -0.000000
    19  H    0.000433   0.000946   0.000030  -0.000045   0.000003   0.000003
    20  H   -0.000004   0.000030  -0.000006  -0.000000  -0.000000   0.000000
    21  H   -0.000002  -0.000045  -0.000000  -0.000000   0.000000  -0.000000
    22  H    0.000000   0.000003  -0.000000   0.000000  -0.000000  -0.000000
    23  H   -0.000000   0.000003   0.000000  -0.000000  -0.000000  -0.000000
    24  C    0.002345  -0.001125   0.002407   0.000012  -0.000186   0.000018
    25  C   -0.000891   0.000296   0.001388  -0.000025   0.000051  -0.000015
    26  C    0.000081  -0.000249  -0.000685   0.000001  -0.000033   0.000001
    27  C   -0.000061  -0.000005  -0.001415  -0.000001   0.000026  -0.000001
    28  C    0.000017   0.000012   0.000389   0.000000  -0.000001  -0.000000
    29  C   -0.000009  -0.000004   0.000432   0.000000  -0.000002  -0.000000
    30  H    0.000431   0.000030   0.000945   0.000003  -0.000045   0.000003
    31  H   -0.000004  -0.000006   0.000030  -0.000000  -0.000000   0.000000
    32  H   -0.000002  -0.000000  -0.000045   0.000000  -0.000000  -0.000000
    33  H    0.000000  -0.000000   0.000003  -0.000000   0.000000  -0.000000
    34  H   -0.000000   0.000000   0.000003  -0.000000  -0.000000  -0.000000
              13         14         15         16         17         18
     1  N    0.172777  -0.011153  -0.011598   0.013236   0.013276   0.005598
     2  C   -0.084269   0.025996  -0.006282  -0.000770  -0.005063   0.002333
     3  C    0.026072  -0.058702   0.014064  -0.007223   0.003493  -0.000895
     4  C   -0.006030   0.013994  -0.008863   0.000741  -0.000280   0.000081
     5  C   -0.000878  -0.007187   0.000738  -0.000570   0.000097  -0.000061
     6  C   -0.005093   0.003496  -0.000283   0.000098  -0.000050   0.000017
     7  C    0.002367  -0.000905   0.000083  -0.000062   0.000017  -0.000009
     8  H    0.002453   0.001346  -0.000665  -0.001416   0.000392   0.000431
     9  H   -0.001106   0.000288  -0.000248  -0.000005   0.000012  -0.000004
    10  H   -0.000187   0.000052  -0.000033   0.000026  -0.000001  -0.000002
    11  H    0.000011  -0.000025   0.000001  -0.000001   0.000000   0.000000
    12  H    0.000018  -0.000015   0.000001  -0.000001  -0.000000  -0.000000
    13  C    5.393875   0.366184   0.366283   0.014703   0.014788  -0.094308
    14  C    0.366184   5.244957  -0.053997   0.368680  -0.133852  -0.023807
    15  C    0.366283  -0.053997   5.244757  -0.133972   0.368512  -0.023730
    16  C    0.014703   0.368680  -0.133972   5.076907   0.029300   0.436416
    17  C    0.014788  -0.133852   0.368512   0.029300   5.076920   0.436498
    18  C   -0.094308  -0.023807  -0.023730   0.436416   0.436498   5.044473
    19  H   -0.033660   0.396001   0.012557  -0.041697  -0.001188   0.009715
    20  H   -0.033583   0.012539   0.395939  -0.001177  -0.041712   0.009694
    21  H    0.017794  -0.052312  -0.002474   0.416498   0.016468  -0.066746
    22  H    0.017783  -0.002472  -0.052291   0.016471   0.416480  -0.066734
    23  H   -0.008018   0.024586   0.024587  -0.071545  -0.071536   0.432029
    24  C   -0.084508  -0.006087   0.026224  -0.005111  -0.000896   0.002372
    25  C   -0.006200  -0.008866   0.013974  -0.000279   0.000742   0.000081
    26  C    0.026106   0.013941  -0.058606   0.003503  -0.007175  -0.000905
    27  C   -0.005088  -0.000279   0.003503  -0.000050   0.000098   0.000017
    28  C   -0.000862   0.000744  -0.007177   0.000097  -0.000567  -0.000061
    29  C    0.002351   0.000080  -0.000904   0.000017  -0.000061  -0.000009
    30  H   -0.001129  -0.000249   0.000299   0.000012  -0.000005  -0.000004
    31  H    0.002396  -0.000687   0.001399   0.000387  -0.001419   0.000433
    32  H    0.000011   0.000001  -0.000025   0.000000  -0.000001   0.000000
    33  H   -0.000187  -0.000033   0.000053  -0.000001   0.000026  -0.000002
    34  H    0.000018   0.000001  -0.000016  -0.000000  -0.000001  -0.000000
              19         20         21         22         23         24
     1  N   -0.007236  -0.007310  -0.000572  -0.000571  -0.000041   0.172743
     2  C    0.002334  -0.001129  -0.000186   0.000011   0.000018  -0.084315
     3  C    0.001399   0.000295   0.000052  -0.000025  -0.000016  -0.006130
     4  C   -0.000671  -0.000248  -0.000033   0.000001   0.000001   0.025987
     5  C   -0.001417  -0.000005   0.000026  -0.000001  -0.000001  -0.005074
     6  C    0.000385   0.000012  -0.000001   0.000000  -0.000000  -0.000842
     7  C    0.000433  -0.000004  -0.000002   0.000000  -0.000000   0.002345
     8  H    0.000946   0.000030  -0.000045   0.000003   0.000003  -0.001125
     9  H    0.000030  -0.000006  -0.000000  -0.000000   0.000000   0.002407
    10  H   -0.000045  -0.000000  -0.000000   0.000000  -0.000000   0.000012
    11  H    0.000003  -0.000000   0.000000  -0.000000  -0.000000  -0.000186
    12  H    0.000003   0.000000  -0.000000  -0.000000  -0.000000   0.000018
    13  C   -0.033660  -0.033583   0.017794   0.017783  -0.008018  -0.084508
    14  C    0.396001   0.012539  -0.052312  -0.002472   0.024586  -0.006087
    15  C    0.012557   0.395939  -0.002474  -0.052291   0.024587   0.026224
    16  C   -0.041697  -0.001177   0.416498   0.016471  -0.071545  -0.005111
    17  C   -0.001188  -0.041712   0.016468   0.416480  -0.071536  -0.000896
    18  C    0.009715   0.009694  -0.066746  -0.066734   0.432029   0.002372
    19  H    0.519946  -0.000267  -0.007257   0.000012  -0.000100  -0.001108
    20  H   -0.000267   0.519974   0.000012  -0.007249  -0.000100   0.002452
    21  H   -0.007257   0.000012   0.581993  -0.000234  -0.008781   0.000011
    22  H    0.000012  -0.007249  -0.000234   0.581977  -0.008783  -0.000188
    23  H   -0.000100  -0.000100  -0.008781  -0.008783   0.583097   0.000018
    24  C   -0.001108   0.002452   0.000011  -0.000188   0.000018   5.393742
    25  C   -0.000249  -0.000673   0.000001  -0.000033   0.000001   0.366434
    26  C    0.000293   0.001365  -0.000025   0.000053  -0.000015   0.366171
    27  C    0.000012   0.000392   0.000000  -0.000001  -0.000000   0.014790
    28  C   -0.000005  -0.001418  -0.000001   0.000026  -0.000001   0.014708
    29  C   -0.000004   0.000430   0.000000  -0.000002  -0.000000  -0.094317
    30  H   -0.000006   0.000031  -0.000000  -0.000000   0.000000  -0.033608
    31  H    0.000031   0.000944   0.000003  -0.000045   0.000003  -0.033605
    32  H   -0.000000   0.000003  -0.000000   0.000000  -0.000000   0.017773
    33  H   -0.000000  -0.000045   0.000000  -0.000000  -0.000000   0.017794
    34  H    0.000000   0.000003  -0.000000  -0.000000  -0.000000  -0.008020
              25         26         27         28         29         30
     1  N   -0.011619  -0.011165   0.013269   0.013254   0.005594  -0.007284
     2  C    0.026099  -0.006129  -0.000846  -0.005095   0.002363   0.002401
     3  C    0.014064  -0.008877   0.000744  -0.000280   0.000081  -0.000661
     4  C   -0.058636   0.014003  -0.007213   0.003493  -0.000897   0.001369
     5  C    0.003482  -0.000280   0.000097  -0.000050   0.000017   0.000389
     6  C   -0.007217   0.000745  -0.000574   0.000097  -0.000061  -0.001416
     7  C   -0.000891   0.000081  -0.000061   0.000017  -0.000009   0.000431
     8  H    0.000296  -0.000249  -0.000005   0.000012  -0.000004   0.000030
     9  H    0.001388  -0.000685  -0.001415   0.000389   0.000432   0.000945
    10  H   -0.000025   0.000001  -0.000001   0.000000   0.000000   0.000003
    11  H    0.000051  -0.000033   0.000026  -0.000001  -0.000002  -0.000045
    12  H   -0.000015   0.000001  -0.000001  -0.000000  -0.000000   0.000003
    13  C   -0.006200   0.026106  -0.005088  -0.000862   0.002351  -0.001129
    14  C   -0.008866   0.013941  -0.000279   0.000744   0.000080  -0.000249
    15  C    0.013974  -0.058606   0.003503  -0.007177  -0.000904   0.000299
    16  C   -0.000279   0.003503  -0.000050   0.000097   0.000017   0.000012
    17  C    0.000742  -0.007175   0.000098  -0.000567  -0.000061  -0.000005
    18  C    0.000081  -0.000905   0.000017  -0.000061  -0.000009  -0.000004
    19  H   -0.000249   0.000293   0.000012  -0.000005  -0.000004  -0.000006
    20  H   -0.000673   0.001365   0.000392  -0.001418   0.000430   0.000031
    21  H    0.000001  -0.000025   0.000000  -0.000001   0.000000  -0.000000
    22  H   -0.000033   0.000053  -0.000001   0.000026  -0.000002  -0.000000
    23  H    0.000001  -0.000015  -0.000000  -0.000001  -0.000000   0.000000
    24  C    0.366434   0.366171   0.014790   0.014708  -0.094317  -0.033608
    25  C    5.245060  -0.054023   0.368450  -0.133935  -0.023737   0.395953
    26  C   -0.054023   5.244540  -0.133904   0.368639  -0.023730   0.012531
    27  C    0.368450  -0.133904   5.077005   0.029395   0.436396  -0.041654
    28  C   -0.133935   0.368639   0.029395   5.077014   0.436305  -0.001176
    29  C   -0.023737  -0.023730   0.436396   0.436305   5.044612   0.009691
    30  H    0.395953   0.012531  -0.041654  -0.001176   0.009691   0.519869
    31  H    0.012549   0.395978  -0.001184  -0.041734   0.009707  -0.000267
    32  H   -0.052284  -0.002471   0.416476   0.016467  -0.066723  -0.007244
    33  H   -0.002474  -0.052308   0.016472   0.416498  -0.066754   0.000012
    34  H    0.024595   0.024586  -0.071542  -0.071553   0.432032  -0.000100
              31         32         33         34
     1  N   -0.007264  -0.000571  -0.000572  -0.000041
     2  C   -0.001107  -0.000187   0.000011   0.000018
     3  C   -0.000248  -0.000033   0.000001   0.000001
     4  C    0.000290   0.000051  -0.000025  -0.000015
     5  C    0.000012  -0.000001   0.000000  -0.000000
     6  C   -0.000005   0.000026  -0.000001  -0.000001
     7  C   -0.000004  -0.000002   0.000000  -0.000000
     8  H   -0.000006  -0.000000  -0.000000   0.000000
     9  H    0.000030  -0.000045   0.000003   0.000003
    10  H   -0.000000   0.000000  -0.000000  -0.000000
    11  H   -0.000000  -0.000000   0.000000  -0.000000
    12  H    0.000000  -0.000000  -0.000000  -0.000000
    13  C    0.002396   0.000011  -0.000187   0.000018
    14  C   -0.000687   0.000001  -0.000033   0.000001
    15  C    0.001399  -0.000025   0.000053  -0.000016
    16  C    0.000387   0.000000  -0.000001  -0.000000
    17  C   -0.001419  -0.000001   0.000026  -0.000001
    18  C    0.000433   0.000000  -0.000002  -0.000000
    19  H    0.000031  -0.000000  -0.000000   0.000000
    20  H    0.000944   0.000003  -0.000045   0.000003
    21  H    0.000003  -0.000000   0.000000  -0.000000
    22  H   -0.000045   0.000000  -0.000000  -0.000000
    23  H    0.000003  -0.000000  -0.000000  -0.000000
    24  C   -0.033605   0.017773   0.017794  -0.008020
    25  C    0.012549  -0.052284  -0.002474   0.024595
    26  C    0.395978  -0.002471  -0.052308   0.024586
    27  C   -0.001184   0.416476   0.016472  -0.071542
    28  C   -0.041734   0.016467   0.416498  -0.071553
    29  C    0.009707  -0.066723  -0.066754   0.432032
    30  H   -0.000267  -0.007244   0.000012  -0.000100
    31  H    0.520001   0.000012  -0.007251  -0.000100
    32  H    0.000012   0.581962  -0.000234  -0.008783
    33  H   -0.007251  -0.000234   0.581977  -0.008783
    34  H   -0.000100  -0.008783  -0.008783   0.583107
 Mulliken charges:
               1
     1  N   -0.010606
     2  C   -0.059764
     3  C   -0.112482
     4  C   -0.112619
     5  C   -0.113286
     6  C   -0.113193
     7  C   -0.103019
     8  H    0.150973
     9  H    0.150884
    10  H    0.105799
    11  H    0.105804
    12  H    0.104564
    13  C   -0.060885
    14  C   -0.112261
    15  C   -0.111809
    16  C   -0.113210
    17  C   -0.113313
    18  C   -0.102912
    19  H    0.150811
    20  H    0.150810
    21  H    0.105809
    22  H    0.105810
    23  H    0.104593
    24  C   -0.060881
    25  C   -0.112064
    26  C   -0.111957
    27  C   -0.113325
    28  C   -0.113239
    29  C   -0.102894
    30  H    0.150880
    31  H    0.150751
    32  H    0.105820
    33  H    0.105820
    34  H    0.104589
 Sum of Mulliken charges =  -0.00000
 Mulliken charges with hydrogens summed into heavy atoms:
               1
     1  N   -0.010606
     2  C   -0.059764
     3  C    0.038492
     4  C    0.038265
     5  C   -0.007487
     6  C   -0.007389
     7  C    0.001545
    13  C   -0.060885
    14  C    0.038550
    15  C    0.039001
    16  C   -0.007401
    17  C   -0.007503
    18  C    0.001681
    24  C   -0.060881
    25  C    0.038816
    26  C    0.038794
    27  C   -0.007505
    28  C   -0.007419
    29  C    0.001695
 Electronic spatial extent (au):  <R**2>=           4959.9454
 Charge=             -0.0000 electrons
 Dipole moment (field-independent basis, Debye):
    X=              0.0012    Y=             -0.0028    Z=              0.0006  Tot=              0.0031
 Quadrupole moment (field-independent basis, Debye-Ang):
   XX=           -103.4807   YY=           -103.5048   ZZ=           -111.2038
   XY=              0.0068   XZ=              0.0020   YZ=              0.0004
 Traceless Quadrupole moment (field-independent basis, Debye-Ang):
   XX=              2.5824   YY=              2.5583   ZZ=             -5.1407
   XY=              0.0068   XZ=              0.0020   YZ=              0.0004
 Octapole moment (field-independent basis, Debye-Ang**2):
  XXX=             12.3291  YYY=             10.1472  ZZZ=             -0.0093  XYY=            -12.3234
  XXY=            -10.1469  XXZ=              0.0074  XZZ=              0.0156  YZZ=             -0.0510
  YYZ=              0.0181  XYZ=              0.0116
 Hexadecapole moment (field-independent basis, Debye-Ang**3):
 XXXX=          -3065.2676 YYYY=          -3065.4572 ZZZZ=           -467.2255 XXXY=             -0.0744
 XXXZ=             52.6092 YYYX=              0.1554 YYYZ=            -64.0969 ZZZX=              0.0724
 ZZZY=              0.0262 XXYY=          -1021.7200 XXZZ=           -619.1799 YYZZ=           -619.3037
 XXYZ=             64.0572 YYXZ=            -52.6894 ZZXY=              0.0442
 N-N= 1.298220548022D+03 E-N=-4.335836555094D+03  KE= 7.455765839465D+02
 No NMR shielding tensors so no spin-rotation constants.
 Leave Link  601 at Sun Jan 17 21:41:26 2021, MaxMem=  4026531840 cpu:               2.2 elap:               0.4
 (Enter /opt/ohpc/pub/libs/gaussian/g16-A.03/sandybridge/g16/l9999.exe)

 Test job not archived.
 1\1\GINC-CASCADEB040\SP\RLC-wHPBE\TZVP\C18H15N1\RDU230\17-Jan-2021\0\\
 #P LC-wHPBE/TZVP iop(3/107=0197300000, 3/108=0197300000) scf=(conver=6
 ,fermi,ndamp=35,noincfock,novaracc,vshift=500,xqc)\\H15 C18 N1\\0,1\N,
 0,0.000022,-0.000126,-0.001279\C,0,0.411521,-1.356839,-0.000484\C,0,1.
 495533,-1.769287,0.781179\C,0,-0.26032,-2.302689,-0.781717\C,0,1.90121
 8,-3.097977,0.77159\C,0,0.140608,-3.632811,-0.770872\C,0,1.225282,-4.0
 3895,0.000666\H,0,2.020108,-1.039002,1.394849\H,0,-1.101816,-1.987296,
 -1.396157\H,0,2.748094,-3.402056,1.385878\H,0,-0.394485,-4.35669,-1.38
 4611\H,0,1.541424,-5.08084,0.001027\C,0,0.969124,1.03471,-0.000488\C,0
 ,2.123037,0.926935,-0.78345\C,0,0.785335,2.178692,0.782922\C,0,3.07444
 4,1.939229,-0.772694\C,0,1.733248,3.194302,0.773528\C,0,2.885092,3.080
 453,0.000886\H,0,2.269922,0.041314,-1.399284\H,0,-0.10857,2.266902,1.3
 98014\H,0,3.967862,1.838651,-1.388087\H,0,1.574087,4.078874,1.389358\H
 ,0,3.629424,3.875076,0.001646\C,0,-1.380731,0.321945,-0.000436\C,0,-2.
 279686,-0.409002,0.782988\C,0,-1.864017,1.375244,-0.783483\C,0,-3.6331
 85,-0.0958,0.773256\C,0,-3.216365,1.693293,-0.772877\C,0,-4.110212,0.9
 58658,0.000466\H,0,-1.909274,-1.227214,1.398174\H,0,-1.170181,1.945112
 ,-1.399095\H,0,-4.319851,-0.675761,1.389003\H,0,-3.575887,2.517271,-1.
 388348\H,0,-5.170565,1.205911,0.000686\\Version=EM64L-G16RevA.03\State
 =1-A\HF=-749.2155422\RMSD=6.255e-07\Dipole=-0.0004537,0.0011193,0.0002
 363\Quadrupole=1.9199398,1.9020375,-3.8219774,0.0050362,-0.0014891,-0.
 0002986\PG=C01 [X(C18H15N1)]\\@


 THE THINKER DIES, BUT HIS THOUGHTS ARE BEYOND THE 
 REACH OF DESTRUCTION.  MEN ARE MORTAL; BUT IDEAS 
 ARE IMMORTAL.
                              -- WALTER LIPPMANN
 Job cpu time:       0 days  0 hours 36 minutes 14.6 seconds.
 Elapsed time:       0 days  0 hours  4 minutes 33.0 seconds.
 File lengths (MBytes):  RWF=    116 Int=      0 D2E=      0 Chk=     20 Scr=      8
 Normal termination of Gaussian 16 at Sun Jan 17 21:41:26 2021.
