 Entering Gaussian System, Link 0=g16
 Input=mol_NN_pa_frag_tune_c0.gjf
 Output=mol_NN_pa_frag_tune_c0.log
 Initial command:
 /opt/ohpc/pub/libs/gaussian/g16-A.03/sandybridge/g16/l1.exe "/mnt/gpfs2_4m/scratch/rdu230/ondemand/projects/init_structures/wtuning/mol_NN_pa_frag/tuning_mol_NN_pa_frag_ocycle0/Gau-310252.inp" -scrdir="/mnt/gpfs2_4m/scratch/rdu230/ondemand/projects/init_structures/wtuning/mol_NN_pa_frag/tuning_mol_NN_pa_frag_ocycle0/"
 Entering Link 1 = /opt/ohpc/pub/libs/gaussian/g16-A.03/sandybridge/g16/l1.exe PID=    310253.
  
 Copyright (c) 1988,1990,1992,1993,1995,1998,2003,2009,2016,
            Gaussian, Inc.  All Rights Reserved.
  
 This is part of the Gaussian(R) 16 program.  It is based on
 the Gaussian(R) 09 system (copyright 2009, Gaussian, Inc.),
 the Gaussian(R) 03 system (copyright 2003, Gaussian, Inc.),
 the Gaussian(R) 98 system (copyright 1998, Gaussian, Inc.),
 the Gaussian(R) 94 system (copyright 1995, Gaussian, Inc.),
 the Gaussian 92(TM) system (copyright 1992, Gaussian, Inc.),
 the Gaussian 90(TM) system (copyright 1990, Gaussian, Inc.),
 the Gaussian 88(TM) system (copyright 1988, Gaussian, Inc.),
 the Gaussian 86(TM) system (copyright 1986, Carnegie Mellon
 University), and the Gaussian 82(TM) system (copyright 1983,
 Carnegie Mellon University). Gaussian is a federally registered
 trademark of Gaussian, Inc.
  
 This software contains proprietary and confidential information,
 including trade secrets, belonging to Gaussian, Inc.
  
 This software is provided under written license and may be
 used, copied, transmitted, or stored only in accord with that
 written license.
  
 The following legend is applicable only to US Government
 contracts under FAR:
  
                    RESTRICTED RIGHTS LEGEND
  
 Use, reproduction and disclosure by the US Government is
 subject to restrictions as set forth in subparagraphs (a)
 and (c) of the Commercial Computer Software - Restricted
 Rights clause in FAR 52.227-19.
  
 Gaussian, Inc.
 340 Quinnipiac St., Bldg. 40, Wallingford CT 06492
  
  
 ---------------------------------------------------------------
 Warning -- This program may not be used in any manner that
 competes with the business of Gaussian, Inc. or will provide
 assistance to any competitor of Gaussian, Inc.  The licensee
 of this program is prohibited from giving any competitor of
 Gaussian, Inc. access to this program.  By using this program,
 the user acknowledges that Gaussian, Inc. is engaged in the
 business of creating and licensing software in the field of
 computational chemistry and represents and warrants to the
 licensee that it is not a competitor of Gaussian, Inc. and that
 it will not use this program in any manner prohibited above.
 ---------------------------------------------------------------
  

 Cite this work as:
 Gaussian 16, Revision A.03,
 M. J. Frisch, G. W. Trucks, H. B. Schlegel, G. E. Scuseria, 
 M. A. Robb, J. R. Cheeseman, G. Scalmani, V. Barone, 
 G. A. Petersson, H. Nakatsuji, X. Li, M. Caricato, A. V. Marenich, 
 J. Bloino, B. G. Janesko, R. Gomperts, B. Mennucci, H. P. Hratchian, 
 J. V. Ortiz, A. F. Izmaylov, J. L. Sonnenberg, D. Williams-Young, 
 F. Ding, F. Lipparini, F. Egidi, J. Goings, B. Peng, A. Petrone, 
 T. Henderson, D. Ranasinghe, V. G. Zakrzewski, J. Gao, N. Rega, 
 G. Zheng, W. Liang, M. Hada, M. Ehara, K. Toyota, R. Fukuda, 
 J. Hasegawa, M. Ishida, T. Nakajima, Y. Honda, O. Kitao, H. Nakai, 
 T. Vreven, K. Throssell, J. A. Montgomery, Jr., J. E. Peralta, 
 F. Ogliaro, M. J. Bearpark, J. J. Heyd, E. N. Brothers, K. N. Kudin, 
 V. N. Staroverov, T. A. Keith, R. Kobayashi, J. Normand, 
 K. Raghavachari, A. P. Rendell, J. C. Burant, S. S. Iyengar, 
 J. Tomasi, M. Cossi, J. M. Millam, M. Klene, C. Adamo, R. Cammi, 
 J. W. Ochterski, R. L. Martin, K. Morokuma, O. Farkas, 
 J. B. Foresman, and D. J. Fox, Gaussian, Inc., Wallingford CT, 2016.
 
 ******************************************
 Gaussian 16:  EM64L-G16RevA.03 25-Dec-2016
                17-Jan-2021 
 ******************************************
 %mem=30GB
 %nproc=8
 Will use up to    8 processors via shared memory.
 ----------------------------------------------------------------------
 #P LC-wHPBE/TZVP iop(3/107=0221900000, 3/108=0221900000) scf=(conver=6
 ,fermi,ndamp=35,noincfock,novaracc,vshift=500,xqc)
 ----------------------------------------------------------------------
 1/38=1,172=1/1;
 2/12=2,17=6,18=5,40=1/2;
 3/5=19,7=101,11=2,25=1,30=1,74=-71,107=221900000,108=221900000/1,2,3;
 4//1;
 5/5=100002,6=6,8=3,10=500,13=1,18=-1,22=13,38=1,93=35/2,8;
 6/7=2,8=2,9=2,10=2,28=1/1;
 99/5=1,9=1/99;
 Leave Link    1 at Sun Jan 17 19:44:28 2021, MaxMem=  4026531840 cpu:               1.9 elap:               0.3
 (Enter /opt/ohpc/pub/libs/gaussian/g16-A.03/sandybridge/g16/l101.exe)
 ----------
 H15 C18 N1
 ----------
 Symbolic Z-matrix:
 Charge =  1 Multiplicity = 2
 N                     0.00002  -0.00013  -0.00128 
 C                     0.41152  -1.35684  -0.00048 
 C                     1.49553  -1.76929   0.78118 
 C                    -0.26032  -2.30269  -0.78172 
 C                     1.90122  -3.09798   0.77159 
 C                     0.14061  -3.63281  -0.77087 
 C                     1.22528  -4.03895   0.00067 
 H                     2.02011  -1.039     1.39485 
 H                    -1.10182  -1.9873   -1.39616 
 H                     2.74809  -3.40206   1.38588 
 H                    -0.39449  -4.35669  -1.38461 
 H                     1.54142  -5.08084   0.00103 
 C                     0.96912   1.03471  -0.00049 
 C                     2.12304   0.92694  -0.78345 
 C                     0.78534   2.17869   0.78292 
 C                     3.07444   1.93923  -0.77269 
 C                     1.73325   3.1943    0.77353 
 C                     2.88509   3.08045   0.00089 
 H                     2.26992   0.04131  -1.39928 
 H                    -0.10857   2.2669    1.39801 
 H                     3.96786   1.83865  -1.38809 
 H                     1.57409   4.07887   1.38936 
 H                     3.62942   3.87508   0.00165 
 C                    -1.38073   0.32195  -0.00044 
 C                    -2.27969  -0.409     0.78299 
 C                    -1.86402   1.37524  -0.78348 
 C                    -3.63319  -0.0958    0.77326 
 C                    -3.21637   1.69329  -0.77288 
 C                    -4.11021   0.95866   0.00047 
 H                    -1.90927  -1.22721   1.39817 
 H                    -1.17018   1.94511  -1.3991 
 H                    -4.31985  -0.67576   1.389 
 H                    -3.57589   2.51727  -1.38835 
 H                    -5.17056   1.20591   0.00069 
 
 ITRead=  0  0  0  0  0  0  0  0  0  0  0  0  0  0  0  0  0  0  0  0
 ITRead=  0  0  0  0  0  0  0  0  0  0  0  0  0  0
 MicOpt= -1 -1 -1 -1 -1 -1 -1 -1 -1 -1 -1 -1 -1 -1 -1 -1 -1 -1 -1 -1
 MicOpt= -1 -1 -1 -1 -1 -1 -1 -1 -1 -1 -1 -1 -1 -1
 NAtoms=     34 NQM=       34 NQMF=       0 NMMI=      0 NMMIF=      0
                NMic=       0 NMicF=      0.
                    Isotopes and Nuclear Properties:
 (Nuclear quadrupole moments (NQMom) in fm**2, nuclear magnetic moments (NMagM)
  in nuclear magnetons)

  Atom         1           2           3           4           5           6           7           8           9          10
 IAtWgt=          14          12          12          12          12          12          12           1           1           1
 AtmWgt=  14.0030740  12.0000000  12.0000000  12.0000000  12.0000000  12.0000000  12.0000000   1.0078250   1.0078250   1.0078250
 NucSpn=           2           0           0           0           0           0           0           1           1           1
 AtZEff=  -0.0000000  -0.0000000  -0.0000000  -0.0000000  -0.0000000  -0.0000000  -0.0000000  -0.0000000  -0.0000000  -0.0000000
 NQMom=    2.0440000   0.0000000   0.0000000   0.0000000   0.0000000   0.0000000   0.0000000   0.0000000   0.0000000   0.0000000
 NMagM=    0.4037610   0.0000000   0.0000000   0.0000000   0.0000000   0.0000000   0.0000000   2.7928460   2.7928460   2.7928460
 AtZNuc=   7.0000000   6.0000000   6.0000000   6.0000000   6.0000000   6.0000000   6.0000000   1.0000000   1.0000000   1.0000000

  Atom        11          12          13          14          15          16          17          18          19          20
 IAtWgt=           1           1          12          12          12          12          12          12           1           1
 AtmWgt=   1.0078250   1.0078250  12.0000000  12.0000000  12.0000000  12.0000000  12.0000000  12.0000000   1.0078250   1.0078250
 NucSpn=           1           1           0           0           0           0           0           0           1           1
 AtZEff=  -0.0000000  -0.0000000  -0.0000000  -0.0000000  -0.0000000  -0.0000000  -0.0000000  -0.0000000  -0.0000000  -0.0000000
 NQMom=    0.0000000   0.0000000   0.0000000   0.0000000   0.0000000   0.0000000   0.0000000   0.0000000   0.0000000   0.0000000
 NMagM=    2.7928460   2.7928460   0.0000000   0.0000000   0.0000000   0.0000000   0.0000000   0.0000000   2.7928460   2.7928460
 AtZNuc=   1.0000000   1.0000000   6.0000000   6.0000000   6.0000000   6.0000000   6.0000000   6.0000000   1.0000000   1.0000000

  Atom        21          22          23          24          25          26          27          28          29          30
 IAtWgt=           1           1           1          12          12          12          12          12          12           1
 AtmWgt=   1.0078250   1.0078250   1.0078250  12.0000000  12.0000000  12.0000000  12.0000000  12.0000000  12.0000000   1.0078250
 NucSpn=           1           1           1           0           0           0           0           0           0           1
 AtZEff=  -0.0000000  -0.0000000  -0.0000000  -0.0000000  -0.0000000  -0.0000000  -0.0000000  -0.0000000  -0.0000000  -0.0000000
 NQMom=    0.0000000   0.0000000   0.0000000   0.0000000   0.0000000   0.0000000   0.0000000   0.0000000   0.0000000   0.0000000
 NMagM=    2.7928460   2.7928460   2.7928460   0.0000000   0.0000000   0.0000000   0.0000000   0.0000000   0.0000000   2.7928460
 AtZNuc=   1.0000000   1.0000000   1.0000000   6.0000000   6.0000000   6.0000000   6.0000000   6.0000000   6.0000000   1.0000000

  Atom        31          32          33          34
 IAtWgt=           1           1           1           1
 AtmWgt=   1.0078250   1.0078250   1.0078250   1.0078250
 NucSpn=           1           1           1           1
 AtZEff=  -0.0000000  -0.0000000  -0.0000000  -0.0000000
 NQMom=    0.0000000   0.0000000   0.0000000   0.0000000
 NMagM=    2.7928460   2.7928460   2.7928460   2.7928460
 AtZNuc=   1.0000000   1.0000000   1.0000000   1.0000000
 Leave Link  101 at Sun Jan 17 19:44:28 2021, MaxMem=  4026531840 cpu:               0.7 elap:               0.1
 (Enter /opt/ohpc/pub/libs/gaussian/g16-A.03/sandybridge/g16/l202.exe)
                          Input orientation:                          
 ---------------------------------------------------------------------
 Center     Atomic      Atomic             Coordinates (Angstroms)
 Number     Number       Type             X           Y           Z
 ---------------------------------------------------------------------
      1          7           0        0.000022   -0.000126   -0.001279
      2          6           0        0.411521   -1.356839   -0.000484
      3          6           0        1.495533   -1.769287    0.781179
      4          6           0       -0.260320   -2.302689   -0.781717
      5          6           0        1.901218   -3.097977    0.771590
      6          6           0        0.140608   -3.632811   -0.770872
      7          6           0        1.225282   -4.038950    0.000666
      8          1           0        2.020108   -1.039002    1.394849
      9          1           0       -1.101816   -1.987296   -1.396157
     10          1           0        2.748094   -3.402056    1.385878
     11          1           0       -0.394485   -4.356690   -1.384611
     12          1           0        1.541424   -5.080840    0.001027
     13          6           0        0.969124    1.034710   -0.000488
     14          6           0        2.123037    0.926935   -0.783450
     15          6           0        0.785335    2.178692    0.782922
     16          6           0        3.074444    1.939229   -0.772694
     17          6           0        1.733248    3.194302    0.773528
     18          6           0        2.885092    3.080453    0.000886
     19          1           0        2.269922    0.041314   -1.399284
     20          1           0       -0.108570    2.266902    1.398014
     21          1           0        3.967862    1.838651   -1.388087
     22          1           0        1.574087    4.078874    1.389358
     23          1           0        3.629424    3.875076    0.001646
     24          6           0       -1.380731    0.321945   -0.000436
     25          6           0       -2.279686   -0.409002    0.782988
     26          6           0       -1.864017    1.375244   -0.783483
     27          6           0       -3.633185   -0.095800    0.773256
     28          6           0       -3.216365    1.693293   -0.772877
     29          6           0       -4.110212    0.958658    0.000466
     30          1           0       -1.909274   -1.227214    1.398174
     31          1           0       -1.170181    1.945112   -1.399095
     32          1           0       -4.319851   -0.675761    1.389003
     33          1           0       -3.575887    2.517271   -1.388348
     34          1           0       -5.170565    1.205911    0.000686
 ---------------------------------------------------------------------
                    Distance matrix (angstroms):
                    1          2          3          4          5
     1  N    0.000000
     2  C    1.417745   0.000000
     3  C    2.445143   1.398639   0.000000
     4  C    2.445129   1.398688   2.410432   0.000000
     5  C    3.715986   2.418027   1.389277   2.778037   0.000000
     6  C    3.715971   2.418045   2.778022   1.389275   2.401038
     7  C    4.220588   2.802843   2.415286   2.415313   1.391633
     8  H    2.666305   2.153027   1.088617   3.396277   2.154522
     9  H    2.666191   2.153037   3.396254   1.088634   3.866646
    10  H    4.587944   3.400660   2.144879   3.867510   1.089501
    11  H    4.587907   3.400670   3.867489   2.144855   3.391727
    12  H    5.309386   3.891641   3.402518   3.402513   2.157537
    13  C    1.417761   2.455693   2.958126   3.641440   4.306275
    14  C    2.445082   2.959383   3.179849   4.013834   4.320564
    15  C    2.445186   3.640528   4.011349   4.860480   5.393381
    16  C    3.715945   4.307149   4.319788   5.395795   5.397658
    17  C    3.716015   4.801973   4.969284   6.050621   6.294521
    18  C    4.220616   5.080169   5.104871   6.283654   6.303570
    19  H    2.666192   2.713877   2.938090   3.503978   3.834551
    20  H    2.666314   3.918902   4.386850   5.065118   5.763123
    21  H    4.587820   4.978369   4.882145   5.949446   5.771093
    22  H    4.588005   5.729764   5.880224   6.985912   7.210814
    23  H    5.309403   6.142299   6.084406   7.342244   7.225163
    24  C    1.417818   2.455704   3.641026   2.958788   4.802404
    25  C    2.445265   2.958854   4.012812   3.179967   4.970983
    26  C    2.445021   3.640802   4.860331   4.012361   6.050203
    27  C    3.716080   4.306802   5.394847   4.320245   6.296244
    28  C    3.715936   4.802234   6.050333   4.970528   7.178531
    29  C    4.220580   5.080118   6.282959   5.105866   7.293025
    30  H    2.666388   2.712773   3.502462   2.937281   4.290945
    31  H    2.665936   3.919282   5.065213   4.387803   6.291114
    32  H    4.588101   4.977994   5.948440   4.882490   6.704478
    33  H    4.587851   5.730124   6.985752   5.881581   8.136032
    34  H    5.309378   6.142261   7.341514   6.085469   8.314317
                    6          7          8          9         10
     6  C    0.000000
     7  C    1.391667   0.000000
     8  H    3.866615   3.402232   0.000000
     9  H    2.154604   3.402320   4.293645   0.000000
    10  H    3.391725   2.154856   2.472664   4.956115   0.000000
    11  H    1.089496   2.154901   4.956078   2.472747   4.296829
    12  H    2.157522   1.088798   4.302131   4.302192   2.488409
    13  C    4.802675   5.080122   2.711423   3.920358   4.977111
    14  C    4.972069   5.106938   2.936067   4.389514   4.882299
    15  C    6.050084   6.282082   3.500382   5.066081   5.946489
    16  C    6.297224   6.305245   3.831413   5.766060   5.770205
    17  C    7.178520   7.292138   4.288262   6.292383   6.702001
    18  C    7.293539   7.310326   4.434100   6.597670   6.630226
    19  H    4.292793   4.438433   3.006105   3.934957   4.454500
    20  H    6.290689   6.595113   3.931956   5.185762   6.348052
    21  H    6.705649   6.632991   4.451895   6.351344   6.053737
    22  H    8.135818   8.243130   5.137277   7.191521   7.572491
    23  H    8.314866   8.271137   5.355285   7.661977   7.459859
    24  C    4.306755   5.080227   3.919784   2.712642   5.730379
    25  C    4.320330   5.106207   4.388565   2.937186   5.882212
    26  C    5.394376   6.282687   5.065584   3.501856   6.985720
    27  C    5.397804   6.304762   5.765044   3.833007   7.212999
    28  C    6.295765   7.292819   6.291671   4.290283   8.136189
    29  C    6.304445   7.310512   6.596649   4.436175   8.244486
    30  H    3.833233   4.436703   3.933888   3.006326   5.140152
    31  H    5.764205   6.595951   5.185461   3.933003   7.190352
    32  H    5.771040   6.632271   6.350359   4.453424   7.575522
    33  H    7.212290   8.244066   7.190857   5.139281   9.095466
    34  H    7.226139   8.271362   7.660881   5.357468   9.265920
                   11         12         13         14         15
    11  H    0.000000
    12  H    2.488399   0.000000
    13  C    5.730831   6.142270   0.000000
    14  C    5.883537   6.086628   1.398628   0.000000
    15  C    6.985799   7.340561   1.398644   2.410366   0.000000
    16  C    7.214327   7.227044   2.418022   1.389255   2.778004
    17  C    8.136479   8.313334   2.418021   2.777961   1.389277
    18  C    8.245382   8.271164   2.802856   2.415274   2.415312
    19  H    5.142151   5.359855   2.153031   1.088647   3.396234
    20  H    7.190043   7.659201   2.153028   3.396228   1.088662
    21  H    7.577093   7.463015   3.400615   2.144806   3.867478
    22  H    9.095544   9.264388   3.400674   3.867449   2.144898
    23  H    9.266905   9.196096   3.891642   3.402516   3.402492
    24  C    4.977775   6.142400   2.455576   3.640812   2.958547
    25  C    4.882285   6.085919   3.640454   4.860291   4.011298
    26  C    5.947768   7.341220   2.959009   4.012179   3.180915
    27  C    5.770680   7.226586   4.801873   6.050075   4.969580
    28  C    6.703694   8.314106   4.306813   5.394129   4.320848
    29  C    6.631590   8.271428   5.079905   6.282430   5.105595
    30  H    4.453324   5.358150   3.918894   5.065508   4.386302
    31  H    6.349380   7.660101   2.713219   3.501569   2.939354
    32  H    6.053980   7.462288   5.729717   6.985628   5.880320
    33  H    7.574475   9.265448   4.978079   5.947504   4.883575
    34  H    7.461402   9.196414   6.142076   7.340935   6.085305
                   16         17         18         19         20
    16  C    0.000000
    17  C    2.401003   0.000000
    18  C    1.391644   1.391647   0.000000
    19  H    2.154519   3.866583   3.402246   0.000000
    20  H    3.866642   2.154611   3.402329   4.293640   0.000000
    21  H    1.089505   3.391735   2.154927   2.472559   4.956113
    22  H    3.391699   1.089517   2.154863   4.956067   2.472782
    23  H    2.157570   2.157484   1.088787   4.302160   4.302170
    24  C    4.802143   4.306544   5.080021   3.919540   2.712363
    25  C    6.049880   5.393286   6.281951   5.065968   3.500352
    26  C    4.970573   4.321293   5.106565   4.387258   2.938635
    27  C    7.177994   6.294710   7.291987   6.291693   4.289009
    28  C    6.295615   5.398432   6.304816   5.763746   3.834082
    29  C    7.292364   6.304106   7.310013   6.595978   4.435965
    30  H    6.290984   5.762634   6.595025   5.186580   3.930825
    31  H    4.290601   3.835449   4.437813   3.931762   3.009051
    32  H    8.135521   7.210839   8.243010   7.191234   5.137532
    33  H    6.703735   5.772261   6.632601   6.348540   4.455198
    34  H    8.313606   7.225899   8.270884   7.660095   5.357427
                   21         22         23         24         25
    21  H    0.000000
    22  H    4.296854   0.000000
    23  H    2.488559   2.488310   0.000000
    24  C    5.730045   4.977649   6.142182   0.000000
    25  C    6.985511   5.946451   7.340395   1.398627   0.000000
    26  C    5.881420   4.883791   6.086336   1.398630   2.410424
    27  C    8.135688   6.702475   8.313166   2.417987   1.389298
    28  C    7.211985   5.771888   7.226679   2.418018   2.778080
    29  C    8.243649   6.631442   8.270880   2.802761   2.415297
    30  H    7.190515   6.347318   7.659036   2.152989   1.088637
    31  H    5.139158   4.456391   5.359388   2.152963   3.396224
    32  H    9.095091   7.572652   9.264224   3.400645   2.144921
    33  H    7.574211   6.056112   7.462722   3.400657   3.867546
    34  H    9.264982   7.461411   9.195882   3.891560   3.402517
                   26         27         28         29         30
    26  C    0.000000
    27  C    2.778014   0.000000
    28  C    1.389285   2.401066   0.000000
    29  C    2.415266   1.391632   1.391657   0.000000
    30  H    3.396242   2.154644   3.866692   3.402316   0.000000
    31  H    1.088640   3.866629   2.154630   3.402300   4.293556
    32  H    3.867485   1.089500   3.391729   2.154834   2.472866
    33  H    2.144898   3.391748   1.089495   2.154897   4.956155
    34  H    3.402478   2.157511   2.157507   1.088799   4.302219
                   31         32         33         34
    31  H    0.000000
    32  H    4.956096   0.000000
    33  H    2.472833   4.296814   0.000000
    34  H    4.302194   2.488338   2.488389   0.000000
 Stoichiometry    C18H15N(1+,2)
 Framework group  C1[X(C18H15N)]
 Deg. of freedom    96
 Full point group                 C1      NOp   1
 Largest Abelian subgroup         C1      NOp   1
 Largest concise Abelian subgroup C1      NOp   1
                         Standard orientation:                         
 ---------------------------------------------------------------------
 Center     Atomic      Atomic             Coordinates (Angstroms)
 Number     Number       Type             X           Y           Z
 ---------------------------------------------------------------------
      1          7           0       -0.000022    0.000126   -0.001279
      2          6           0       -0.411410    1.356873   -0.000484
      3          6           0       -1.495388    1.769410    0.781179
      4          6           0        0.260509    2.302668   -0.781717
      5          6           0       -1.900964    3.098133    0.771590
      6          6           0       -0.140310    3.632823   -0.770872
      7          6           0       -1.224951    4.039050    0.000666
      8          1           0       -2.020023    1.039168    1.394849
      9          1           0        1.101979    1.987206   -1.396157
     10          1           0       -2.747815    3.402281    1.385878
     11          1           0        0.394842    4.356658   -1.384611
     12          1           0       -1.541008    5.080966    0.001027
     13          6           0       -0.969209   -1.034631   -0.000488
     14          6           0       -2.123113   -0.926761   -0.783450
     15          6           0       -0.785513   -2.178628    0.782922
     16          6           0       -3.074603   -1.938977   -0.772694
     17          6           0       -1.733510   -3.194160    0.773528
     18          6           0       -2.885344   -3.080217    0.000886
     19          1           0       -2.269925   -0.041128   -1.399284
     20          1           0        0.108384   -2.266911    1.398014
     21          1           0       -3.968013   -1.838326   -1.388087
     22          1           0       -1.574421   -4.078745    1.389358
     23          1           0       -3.629741   -3.874779    0.001646
     24          6           0        1.380705   -0.322058   -0.000436
     25          6           0        2.279720    0.408815    0.782988
     26          6           0        1.863904   -1.375397   -0.783483
     27          6           0        3.633193    0.095502    0.773256
     28          6           0        3.216226   -1.693556   -0.772877
     29          6           0        4.110133   -0.958995    0.000466
     30          1           0        1.909375    1.227058    1.398174
     31          1           0        1.170022   -1.945208   -1.399095
     32          1           0        4.319906    0.675407    1.389003
     33          1           0        3.575681   -2.517564   -1.388348
     34          1           0        5.170466   -1.206335    0.000686
 ---------------------------------------------------------------------
 Rotational constants (GHZ):           0.4036067           0.4035965           0.2213359
 Leave Link  202 at Sun Jan 17 19:44:28 2021, MaxMem=  4026531840 cpu:               0.2 elap:               0.1
 (Enter /opt/ohpc/pub/libs/gaussian/g16-A.03/sandybridge/g16/l301.exe)
 Standard basis: TZVP (5D, 7F)
 Ernie: Thresh=  0.10000D-02 Tol=  0.10000D-05 Strict=F.
 There are   470 symmetry adapted cartesian basis functions of A   symmetry.
 There are   451 symmetry adapted basis functions of A   symmetry.
   451 basis functions,   785 primitive gaussians,   470 cartesian basis functions
    65 alpha electrons       64 beta electrons
       nuclear repulsion energy      1298.2205480218 Hartrees.
 IExCor=33909 DFT=T Ex+Corr=LC-wHPBE ExCW=0 ScaHFX=  1.000000
 ScaDFX=  1.000000  1.000000  1.000000  1.000000 ScalE2=  1.000000  1.000000
 IRadAn=      5 IRanWt=     -1 IRanGd=            0 ICorTp=0 IEmpDi=  4
 HFx  wShort=  0.000000 wLong=  0.221900 cFull=  0.000000 cShort=  0.000000 cLong=  1.000000
 DFx  wShort=  0.000000 wLong=  0.221900 cFull=  0.000000 cShort=  1.000000 cLong=  0.000000
 NAtoms=   34 NActive=   34 NUniq=   34 SFac= 1.00D+00 NAtFMM=   60 NAOKFM=F Big=F
 Integral buffers will be    131072 words long.
 Raffenetti 2 integral format.
 Two-electron integral symmetry is turned on.
 Leave Link  301 at Sun Jan 17 19:44:28 2021, MaxMem=  4026531840 cpu:               0.4 elap:               0.1
 (Enter /opt/ohpc/pub/libs/gaussian/g16-A.03/sandybridge/g16/l302.exe)
 NPDir=0 NMtPBC=     1 NCelOv=     1 NCel=       1 NClECP=     1 NCelD=      1
         NCelK=      1 NCelE2=     1 NClLst=     1 CellRange=     0.0.
 One-electron integrals computed using PRISM.
 One-electron integral symmetry used in STVInt
 NBasis=   451 RedAO= T EigKep=  8.44D-06  NBF=   451
 NBsUse=   451 1.00D-06 EigRej= -1.00D+00 NBFU=   451
 Precomputing XC quadrature grid using
 IXCGrd= 4 IRadAn=           5 IRanWt=          -1 IRanGd=           0 AccXCQ= 0.00D+00.
 Generated NRdTot=       0 NPtTot=           0 NUsed=           0 NTot=          32
 NSgBfM=   462   462   462   462   462 MxSgAt=    34 MxSgA2=    34.
 Leave Link  302 at Sun Jan 17 19:44:29 2021, MaxMem=  4026531840 cpu:               4.4 elap:               0.6
 (Enter /opt/ohpc/pub/libs/gaussian/g16-A.03/sandybridge/g16/l303.exe)
 DipDrv:  MaxL=1.
 Leave Link  303 at Sun Jan 17 19:44:29 2021, MaxMem=  4026531840 cpu:               0.6 elap:               0.1
 (Enter /opt/ohpc/pub/libs/gaussian/g16-A.03/sandybridge/g16/l401.exe)
 ExpMin= 9.52D-02 ExpMax= 1.97D+04 ExpMxC= 6.73D+02 IAcc=3 IRadAn=         5 AccDes= 0.00D+00
 Harris functional with IExCor=33909 and IRadAn=       5 diagonalized for initial guess.
 HarFok:  IExCor=33909 AccDes= 0.00D+00 IRadAn=         5 IDoV= 1 UseB2=F ITyADJ=14
 ICtDFT=  3500011 ScaDFX=  1.000000  1.000000  1.000000  1.000000
 FoFCou: FMM=F IPFlag=           0 FMFlag=      100000 FMFlg1=           0
         NFxFlg=           0 DoJE=T BraDBF=F KetDBF=T FulRan=T
         wScrn=  0.000000 ICntrl=       500 IOpCl=  0 I1Cent=   200000004 NGrid=           0
         NMat0=    1 NMatS0=      1 NMatT0=    0 NMatD0=    1 NMtDS0=    0 NMtDT0=    0
 Petite list used in FoFCou.
 Harris En= -733.891095720566    
 JPrj=0 DoOrth=F DoCkMO=F.
 Initial guess <Sx>= 0.0000 <Sy>= 0.0000 <Sz>= 0.5000 <S**2>= 0.7500 S= 0.5000
 Leave Link  401 at Sun Jan 17 19:44:32 2021, MaxMem=  4026531840 cpu:              28.9 elap:               3.7
 (Enter /opt/ohpc/pub/libs/gaussian/g16-A.03/sandybridge/g16/l502.exe)
 Integral symmetry usage will be decided dynamically.
 UHF open shell SCF:
 Using DIIS extrapolation, IDIIS=    10.
 NGot=  4026531840 LenX=  4026081620 LenY=  4025860250
 Requested convergence on RMS density matrix=1.00D-06 within  32 cycles.
 Requested convergence on MAX density matrix=1.00D-04.
 Requested convergence on             energy=1.00D-04.
 Virtual orbitals will be shifted by   0.500 hartree.
 No special actions if energy rises.
 Dynamic level shift is on during FON iterations.

 Cycle   1  Pass 1  IDiag  1:
 FoFJK:  IHMeth= 1 ICntrl=       0 DoSepK=T KAlg= 0 I1Cent=           0 FoldK=F
 IRaf=         1 NMat=       1 IRICut=       1 DoRegI=T DoRafI=F ISym2E= 0 IDoP0=0 IntGTp=1.
 FoFCou: FMM=F IPFlag=           0 FMFlag=      100000 FMFlg1=           0
         NFxFlg=           0 DoJE=T BraDBF=F KetDBF=F FulRan=T
         wScrn=  0.000000 ICntrl=       500 IOpCl=  0 I1Cent=           0 NGrid=           0
         NMat0=    1 NMatS0=      1 NMatT0=    0 NMatD0=    1 NMtDS0=    0 NMtDT0=    0
 Symmetry not used in FoFCou.
 E= -748.672849330479    
 DIIS: error= 3.55D-02 at cycle   1 NSaved=   1.
 NSaved= 1 IEnMin= 1 EnMin= -748.672849330479     IErMin= 1 ErrMin= 3.55D-02
 ErrMax= 3.55D-02  0.00D+00 EMaxC= 1.00D+00 BMatC= 1.29D+00 BMatP= 1.29D+00
 IDIUse=1 WtCom= 1.00D+00 WtEn= 0.00D+00
 Coeff-Com:  0.100D+01
 Coeff:      0.100D+01
 Gap=     0.417 Goal=   None    Shift=    0.500
 T= 1597. Gap= 0.775 NK=0 IS=   66 IE=  451 IFin=   65
          NO(<0.9)=   0  NV(>0.1)=   0     65.00e < EF      0.00e >EF  Err=0.0D+00
 Gap=     0.125 Goal=   None    Shift=    0.500
 T= 1597. Gap= 0.584 NK=0 IS=   65 IE=  451 IFin=   64
          NO(<0.9)=   0  NV(>0.1)=   0     64.00e < EF      0.00e >EF  Err=0.0D+00
 GapD=    0.125 DampG=1.000 DampE=0.500 DampFc=0.5000 IDamp=-1.
 Damping current iteration by 5.00D-01
 RMSDP=2.80D-03 MaxDP=6.61D-02              OVMax= 1.04D-01

 Cycle   2  Pass 1  IDiag  1:
 E= -748.872799186224     Delta-E=       -0.199949855744 Rises=F Damp=T
 DIIS: error= 1.35D-02 at cycle   2 NSaved=   2.
 NSaved= 2 IEnMin= 2 EnMin= -748.872799186224     IErMin= 2 ErrMin= 1.35D-02
 ErrMax= 1.35D-02  0.00D+00 EMaxC= 1.00D+00 BMatC= 1.82D-01 BMatP= 1.29D+00
 IDIUse=1 WtCom= 1.00D+00 WtEn= 0.00D+00
 Coeff-Com: -0.415D+00 0.142D+01
 Coeff:     -0.415D+00 0.142D+01
 Gap=     0.347 Goal=   None    Shift=    0.500
 T= 1458. Gap= 0.803 NK=0 IS=   66 IE=  451 IFin=   65
          NO(<0.9)=   0  NV(>0.1)=   0     65.00e < EF      0.00e >EF  Err=0.0D+00
 Gap=     0.248 Goal=   None    Shift=    0.500
 T= 1458. Gap= 0.716 NK=0 IS=   65 IE=  451 IFin=   64
          NO(<0.9)=   0  NV(>0.1)=   0     64.00e < EF      0.00e >EF  Err=0.0D+00
 GapD=    0.248 DampG=1.000 DampE=0.500 DampFc=0.5000 IDamp=-1.
 Damping current iteration by 5.00D-01
 RMSDP=1.51D-03 MaxDP=4.48D-02 DE=-2.00D-01 OVMax= 3.13D-02

 Cycle   3  Pass 1  IDiag  1:
 E= -748.934396800279     Delta-E=       -0.061597614055 Rises=F Damp=T
 DIIS: error= 7.69D-03 at cycle   3 NSaved=   3.
 NSaved= 3 IEnMin= 3 EnMin= -748.934396800279     IErMin= 3 ErrMin= 7.69D-03
 ErrMax= 7.69D-03  0.00D+00 EMaxC= 1.00D+00 BMatC= 3.16D-02 BMatP= 1.82D-01
 IDIUse=1 WtCom= 1.00D+00 WtEn= 0.00D+00
 Coeff-Com:  0.117D+00-0.989D+00 0.187D+01
 Coeff:      0.117D+00-0.989D+00 0.187D+01
 Gap=     0.315 Goal=   None    Shift=    0.500
 T= 1219. Gap= 0.814 NK=4 IS=   66 IE=   74 IFin=   65
          NO(<0.9)=   0  NV(>0.1)=   0     65.00e < EF      0.00e >EF  Err=0.0D+00
 Gap=     0.208 Goal=   None    Shift=    0.500
 T= 1219. Gap= 0.708 NK=4 IS=   65 IE=   72 IFin=   64
          NO(<0.9)=   0  NV(>0.1)=   0     64.00e < EF      0.00e >EF  Err=0.0D+00
 GapD=    0.208 DampG=1.000 DampE=1.000 DampFc=1.0000 IDamp=-1.
 RMSDP=8.72D-04 MaxDP=3.02D-02 DE=-6.16D-02 OVMax= 1.05D-02

 Cycle   4  Pass 1  IDiag  1:
 E= -748.987177038179     Delta-E=       -0.052780237900 Rises=F Damp=F
 DIIS: error= 2.19D-03 at cycle   4 NSaved=   4.
 NSaved= 4 IEnMin= 4 EnMin= -748.987177038179     IErMin= 4 ErrMin= 2.19D-03
 ErrMax= 2.19D-03  0.00D+00 EMaxC= 1.00D+00 BMatC= 3.08D-03 BMatP= 3.16D-02
 IDIUse=1 WtCom= 1.00D+00 WtEn= 0.00D+00
 Coeff-Com:  0.813D-01-0.166D+00 0.852D-01 0.100D+01
 Coeff:      0.813D-01-0.166D+00 0.852D-01 0.100D+01
 Gap=     0.313 Goal=   None    Shift=    0.500
 T=  687. Gap= 0.813 NK=4 IS=   66 IE=   74 IFin=   65
          NO(<0.9)=   0  NV(>0.1)=   0     65.00e < EF      0.00e >EF  Err=0.0D+00
 Gap=     0.211 Goal=   None    Shift=    0.500
 T=  687. Gap= 0.711 NK=4 IS=   65 IE=   72 IFin=   64
          NO(<0.9)=   0  NV(>0.1)=   0     64.00e < EF      0.00e >EF  Err=0.0D+00
 GapD=    0.211 DampG=1.000 DampE=1.000 DampFc=1.0000 IDamp=-1.
 RMSDP=1.43D-04 MaxDP=4.28D-03 DE=-5.28D-02 OVMax= 8.46D-03

 Cycle   5  Pass 1  IDiag  1:
 E= -748.988164502738     Delta-E=       -0.000987464559 Rises=F Damp=F
 DIIS: error= 1.86D-03 at cycle   5 NSaved=   5.
 NSaved= 5 IEnMin= 5 EnMin= -748.988164502738     IErMin= 5 ErrMin= 1.86D-03
 ErrMax= 1.86D-03  0.00D+00 EMaxC= 1.00D+00 BMatC= 5.86D-04 BMatP= 3.08D-03
 IDIUse=1 WtCom= 1.00D+00 WtEn= 0.00D+00
 Coeff-Com: -0.464D-02 0.114D+00-0.244D+00-0.295D+00 0.143D+01
 Coeff:     -0.464D-02 0.114D+00-0.244D+00-0.295D+00 0.143D+01
 Gap=     0.315 Goal=   None    Shift=    0.500
 T=  274. Gap= 0.815 NK=4 IS=   66 IE=   74 IFin=   65
          NO(<0.9)=   0  NV(>0.1)=   0     65.00e < EF      0.00e >EF  Err=0.0D+00
 Gap=     0.213 Goal=   None    Shift=    0.500
 T=  274. Gap= 0.713 NK=4 IS=   65 IE=   72 IFin=   64
          NO(<0.9)=   0  NV(>0.1)=   0     64.00e < EF      0.00e >EF  Err=0.0D+00
 GapD=    0.213 DampG=1.000 DampE=1.000 DampFc=1.0000 IDamp=-1.
 RMSDP=1.03D-04 MaxDP=2.30D-03 DE=-9.87D-04 OVMax= 6.66D-03

 Cycle   6  Pass 1  IDiag  1:
 E= -748.988546811374     Delta-E=       -0.000382308637 Rises=F Damp=F
 DIIS: error= 1.48D-03 at cycle   6 NSaved=   6.
 NSaved= 6 IEnMin= 6 EnMin= -748.988546811374     IErMin= 6 ErrMin= 1.48D-03
 ErrMax= 1.48D-03  0.00D+00 EMaxC= 1.00D+00 BMatC= 1.71D-04 BMatP= 5.86D-04
 IDIUse=1 WtCom= 1.00D+00 WtEn= 0.00D+00
 Coeff-Com: -0.255D-01 0.719D-01-0.727D-01-0.338D+00-0.553D-01 0.142D+01
 Coeff:     -0.255D-01 0.719D-01-0.727D-01-0.338D+00-0.553D-01 0.142D+01
 Gap=     0.316 Goal=   None    Shift=    0.500
 Gap=     0.213 Goal=   None    Shift=    0.500
 GapD=    0.213 DampG=1.000 DampE=1.000 DampFc=1.0000 IDamp=-1.
 RMSDP=5.79D-05 MaxDP=1.22D-03 DE=-3.82D-04 OVMax= 5.40D-03

 Cycle   7  Pass 1  IDiag  1:
 E= -748.988735083262     Delta-E=       -0.000188271887 Rises=F Damp=F
 DIIS: error= 9.31D-04 at cycle   7 NSaved=   7.
 NSaved= 7 IEnMin= 7 EnMin= -748.988735083262     IErMin= 7 ErrMin= 9.31D-04
 ErrMax= 9.31D-04  0.00D+00 EMaxC= 1.00D+00 BMatC= 7.77D-05 BMatP= 1.71D-04
 IDIUse=1 WtCom= 1.00D+00 WtEn= 0.00D+00
 Coeff-Com: -0.244D-02-0.259D-01 0.632D-01 0.961D-01-0.515D+00-0.868D+00
 Coeff-Com:  0.225D+01
 Coeff:     -0.244D-02-0.259D-01 0.632D-01 0.961D-01-0.515D+00-0.868D+00
 Coeff:      0.225D+01
 Gap=     0.317 Goal=   None    Shift=    0.500
 Gap=     0.215 Goal=   None    Shift=    0.500
 RMSDP=4.23D-05 MaxDP=9.97D-04 DE=-1.88D-04 OVMax= 3.76D-03

 Cycle   8  Pass 1  IDiag  1:
 E= -748.988853803529     Delta-E=       -0.000118720267 Rises=F Damp=F
 DIIS: error= 5.57D-04 at cycle   8 NSaved=   8.
 NSaved= 8 IEnMin= 8 EnMin= -748.988853803529     IErMin= 8 ErrMin= 5.57D-04
 ErrMax= 5.57D-04  0.00D+00 EMaxC= 1.00D+00 BMatC= 3.76D-05 BMatP= 7.77D-05
 IDIUse=1 WtCom= 1.00D+00 WtEn= 0.00D+00
 Coeff-Com:  0.640D-02-0.971D-02 0.986D-03 0.834D-01 0.223D+00-0.712D+00
 Coeff-Com: -0.119D+01 0.260D+01
 Coeff:      0.640D-02-0.971D-02 0.986D-03 0.834D-01 0.223D+00-0.712D+00
 Coeff:     -0.119D+01 0.260D+01
 Gap=     0.317 Goal=   None    Shift=    0.500
 Gap=     0.215 Goal=   None    Shift=    0.500
 RMSDP=2.50D-05 MaxDP=6.26D-04 DE=-1.19D-04 OVMax= 3.13D-03

 Cycle   9  Pass 1  IDiag  1:
 E= -748.988922680907     Delta-E=       -0.000068877378 Rises=F Damp=F
 DIIS: error= 3.24D-04 at cycle   9 NSaved=   9.
 NSaved= 9 IEnMin= 9 EnMin= -748.988922680907     IErMin= 9 ErrMin= 3.24D-04
 ErrMax= 3.24D-04  0.00D+00 EMaxC= 1.00D+00 BMatC= 1.90D-05 BMatP= 3.76D-05
 IDIUse=1 WtCom= 1.00D+00 WtEn= 0.00D+00
 Coeff-Com:  0.133D-02 0.415D-02-0.126D-01-0.253D-01 0.242D+00-0.429D-01
 Coeff-Com: -0.789D+00-0.379D+00 0.200D+01
 Coeff:      0.133D-02 0.415D-02-0.126D-01-0.253D-01 0.242D+00-0.429D-01
 Coeff:     -0.789D+00-0.379D+00 0.200D+01
 Gap=     0.317 Goal=   None    Shift=    0.500
 Gap=     0.215 Goal=   None    Shift=    0.500
 RMSDP=1.52D-05 MaxDP=3.87D-04 DE=-6.89D-05 OVMax= 2.23D-03

 Cycle  10  Pass 1  IDiag  1:
 E= -748.988956970348     Delta-E=       -0.000034289442 Rises=F Damp=F
 DIIS: error= 2.48D-04 at cycle  10 NSaved=  10.
 NSaved=10 IEnMin=10 EnMin= -748.988956970348     IErMin=10 ErrMin= 2.48D-04
 ErrMax= 2.48D-04  0.00D+00 EMaxC= 1.00D+00 BMatC= 9.75D-06 BMatP= 1.90D-05
 IDIUse=1 WtCom= 1.00D+00 WtEn= 0.00D+00
 Coeff-Com: -0.284D-02 0.211D-02 0.438D-02-0.642D-01-0.354D-01 0.349D+00
 Coeff-Com:  0.501D+00-0.196D+01-0.536D-01 0.226D+01
 Coeff:     -0.284D-02 0.211D-02 0.438D-02-0.642D-01-0.354D-01 0.349D+00
 Coeff:      0.501D+00-0.196D+01-0.536D-01 0.226D+01
 Gap=     0.317 Goal=   None    Shift=    0.500
 Gap=     0.216 Goal=   None    Shift=    0.500
 RMSDP=1.20D-05 MaxDP=2.84D-04 DE=-3.43D-05 OVMax= 1.81D-03

 Cycle  11  Pass 1  IDiag  1:
 E= -748.988976105551     Delta-E=       -0.000019135203 Rises=F Damp=F
 DIIS: error= 1.82D-04 at cycle  11 NSaved=  11.
 NSaved=11 IEnMin=11 EnMin= -748.988976105551     IErMin=11 ErrMin= 1.82D-04
 ErrMax= 1.82D-04  0.00D+00 EMaxC= 1.00D+00 BMatC= 5.07D-06 BMatP= 9.75D-06
 IDIUse=1 WtCom= 1.00D+00 WtEn= 0.00D+00
 Coeff-Com:  0.822D-03-0.108D-01 0.188D-01 0.233D-01-0.169D+00-0.493D-01
 Coeff-Com:  0.519D+00 0.537D+00-0.211D+01-0.346D+00 0.258D+01
 Coeff:      0.822D-03-0.108D-01 0.188D-01 0.233D-01-0.169D+00-0.493D-01
 Coeff:      0.519D+00 0.537D+00-0.211D+01-0.346D+00 0.258D+01
 Gap=     0.317 Goal=   None    Shift=    0.500
 Gap=     0.216 Goal=   None    Shift=    0.500
 RMSDP=9.29D-06 MaxDP=1.85D-04 DE=-1.91D-05 OVMax= 1.39D-03

 Cycle  12  Pass 1  IDiag  1:
 E= -748.988985532334     Delta-E=       -0.000009426783 Rises=F Damp=F
 DIIS: error= 1.18D-04 at cycle  12 NSaved=  12.
 NSaved=12 IEnMin=12 EnMin= -748.988985532334     IErMin=12 ErrMin= 1.18D-04
 ErrMax= 1.18D-04  0.00D+00 EMaxC= 1.00D+00 BMatC= 2.32D-06 BMatP= 5.07D-06
 IDIUse=1 WtCom= 1.00D+00 WtEn= 0.00D+00
 Coeff-Com:  0.122D-02-0.262D-02 0.146D-02 0.223D-01 0.739D-02-0.148D+00
 Coeff-Com: -0.159D+00 0.903D+00-0.369D+00-0.739D+00-0.127D+01 0.276D+01
 Coeff:      0.122D-02-0.262D-02 0.146D-02 0.223D-01 0.739D-02-0.148D+00
 Coeff:     -0.159D+00 0.903D+00-0.369D+00-0.739D+00-0.127D+01 0.276D+01
 Gap=     0.317 Goal=   None    Shift=    0.500
 Gap=     0.216 Goal=   None    Shift=    0.500
 RMSDP=6.70D-06 MaxDP=1.43D-04 DE=-9.43D-06 OVMax= 9.57D-04

 Cycle  13  Pass 1  IDiag  1:
 E= -748.988989468192     Delta-E=       -0.000003935858 Rises=F Damp=F
 DIIS: error= 7.51D-05 at cycle  13 NSaved=  13.
 NSaved=13 IEnMin=13 EnMin= -748.988989468192     IErMin=13 ErrMin= 7.51D-05
 ErrMax= 7.51D-05  0.00D+00 EMaxC= 1.00D+00 BMatC= 1.01D-06 BMatP= 2.32D-06
 IDIUse=1 WtCom= 1.00D+00 WtEn= 0.00D+00
 Coeff-Com: -0.182D-03 0.124D-02-0.205D-02-0.123D-01 0.288D-01 0.447D-01
 Coeff-Com: -0.491D-01-0.346D+00 0.593D+00 0.215D+00-0.342D+00-0.248D+01
 Coeff-Com:  0.335D+01
 Coeff:     -0.182D-03 0.124D-02-0.205D-02-0.123D-01 0.288D-01 0.447D-01
 Coeff:     -0.491D-01-0.346D+00 0.593D+00 0.215D+00-0.342D+00-0.248D+01
 Coeff:      0.335D+01
 Gap=     0.317 Goal=   None    Shift=    0.500
 Gap=     0.216 Goal=   None    Shift=    0.500
 RMSDP=4.59D-06 MaxDP=1.05D-04 DE=-3.94D-06 OVMax= 6.13D-04

 Cycle  14  Pass 1  IDiag  1:
 E= -748.988990982130     Delta-E=       -0.000001513938 Rises=F Damp=F
 DIIS: error= 4.40D-05 at cycle  14 NSaved=  14.
 NSaved=14 IEnMin=14 EnMin= -748.988990982130     IErMin=14 ErrMin= 4.40D-05
 ErrMax= 4.40D-05  0.00D+00 EMaxC= 1.00D+00 BMatC= 3.97D-07 BMatP= 1.01D-06
 IDIUse=1 WtCom= 1.00D+00 WtEn= 0.00D+00
 Coeff-Com: -0.148D-03-0.650D-03 0.182D-02-0.915D-03-0.225D-01 0.179D-01
 Coeff-Com:  0.108D+00-0.164D+00-0.100D+00 0.164D+00 0.551D+00-0.882D+00
 Coeff-Com: -0.128D+01 0.261D+01
 Coeff:     -0.148D-03-0.650D-03 0.182D-02-0.915D-03-0.225D-01 0.179D-01
 Coeff:      0.108D+00-0.164D+00-0.100D+00 0.164D+00 0.551D+00-0.882D+00
 Coeff:     -0.128D+01 0.261D+01
 Gap=     0.317 Goal=   None    Shift=    0.500
 Gap=     0.216 Goal=   None    Shift=    0.500
 RMSDP=2.92D-06 MaxDP=6.96D-05 DE=-1.51D-06 OVMax= 3.51D-04

 Cycle  15  Pass 1  IDiag  1:
 E= -748.988991514990     Delta-E=       -0.000000532861 Rises=F Damp=F
 DIIS: error= 2.55D-05 at cycle  15 NSaved=  15.
 NSaved=15 IEnMin=15 EnMin= -748.988991514990     IErMin=15 ErrMin= 2.55D-05
 ErrMax= 2.55D-05  0.00D+00 EMaxC= 1.00D+00 BMatC= 1.47D-07 BMatP= 3.97D-07
 IDIUse=1 WtCom= 1.00D+00 WtEn= 0.00D+00
 Coeff-Com:  0.346D-04-0.831D-03 0.164D-02 0.365D-02-0.187D-01-0.711D-02
 Coeff-Com:  0.571D-01 0.648D-01-0.248D+00-0.211D-01 0.312D+00 0.355D+00
 Coeff-Com: -0.163D+01 0.722D+00 0.141D+01
 Coeff:      0.346D-04-0.831D-03 0.164D-02 0.365D-02-0.187D-01-0.711D-02
 Coeff:      0.571D-01 0.648D-01-0.248D+00-0.211D-01 0.312D+00 0.355D+00
 Coeff:     -0.163D+01 0.722D+00 0.141D+01
 Gap=     0.317 Goal=   None    Shift=    0.500
 Gap=     0.216 Goal=   None    Shift=    0.500
 RMSDP=1.78D-06 MaxDP=4.17D-05 DE=-5.33D-07 OVMax= 2.05D-04

 Cycle  16  Pass 1  IDiag  1:
 E= -748.988991702932     Delta-E=       -0.000000187942 Rises=F Damp=F
 DIIS: error= 1.85D-05 at cycle  16 NSaved=  16.
 NSaved=16 IEnMin=16 EnMin= -748.988991702932     IErMin=16 ErrMin= 1.85D-05
 ErrMax= 1.85D-05  0.00D+00 EMaxC= 1.00D+00 BMatC= 5.32D-08 BMatP= 1.47D-07
 IDIUse=1 WtCom= 1.00D+00 WtEn= 0.00D+00
 Coeff-Com:  0.927D-04-0.380D-04-0.232D-03 0.600D-03 0.673D-02-0.848D-02
 Coeff-Com: -0.417D-01 0.864D-01 0.190D-01-0.735D-01-0.193D+00 0.251D+00
 Coeff-Com:  0.441D+00-0.109D+01-0.572D+00 0.217D+01
 Coeff:      0.927D-04-0.380D-04-0.232D-03 0.600D-03 0.673D-02-0.848D-02
 Coeff:     -0.417D-01 0.864D-01 0.190D-01-0.735D-01-0.193D+00 0.251D+00
 Coeff:      0.441D+00-0.109D+01-0.572D+00 0.217D+01
 Gap=     0.317 Goal=   None    Shift=    0.500
 Gap=     0.216 Goal=   None    Shift=    0.500
 RMSDP=1.11D-06 MaxDP=2.25D-05 DE=-1.88D-07 OVMax= 1.30D-04

 Cycle  17  Pass 1  IDiag  1:
 E= -748.988991769105     Delta-E=       -0.000000066173 Rises=F Damp=F
 DIIS: error= 1.34D-05 at cycle  17 NSaved=  17.
 NSaved=17 IEnMin=17 EnMin= -748.988991769105     IErMin=17 ErrMin= 1.34D-05
 ErrMax= 1.34D-05  0.00D+00 EMaxC= 1.00D+00 BMatC= 1.96D-08 BMatP= 5.32D-08
 IDIUse=1 WtCom= 1.00D+00 WtEn= 0.00D+00
 Coeff-Com:  0.187D-04 0.555D-04-0.191D-03-0.915D-03 0.290D-02 0.299D-02
 Coeff-Com: -0.535D-02-0.295D-01 0.599D-01 0.185D-01-0.548D-01-0.170D+00
 Coeff-Com:  0.337D+00-0.767D-01-0.119D+00-0.150D+01 0.254D+01
 Coeff:      0.187D-04 0.555D-04-0.191D-03-0.915D-03 0.290D-02 0.299D-02
 Coeff:     -0.535D-02-0.295D-01 0.599D-01 0.185D-01-0.548D-01-0.170D+00
 Coeff:      0.337D+00-0.767D-01-0.119D+00-0.150D+01 0.254D+01
 Gap=     0.317 Goal=   None    Shift=    0.500
 Gap=     0.216 Goal=   None    Shift=    0.500
 RMSDP=6.93D-07 MaxDP=1.40D-05 DE=-6.62D-08 OVMax= 9.45D-05

 SCF Done:  E(ULC-wHPBE) =  -748.988991769     A.U. after   17 cycles
            NFock= 17  Conv=0.69D-06     -V/T= 2.0050
 <Sx>= 0.0000 <Sy>= 0.0000 <Sz>= 0.5000 <S**2>= 0.7759 S= 0.5129
 <L.S>= 0.000000000000E+00
 KE= 7.452700493671D+02 PE=-4.316527186902D+03 EE= 1.524047597744D+03
 Annihilation of the first spin contaminant:
 S**2 before annihilation     0.7759,   after     0.7506
 Leave Link  502 at Sun Jan 17 19:51:52 2021, MaxMem=  4026531840 cpu:            3504.8 elap:             439.3
 (Enter /opt/ohpc/pub/libs/gaussian/g16-A.03/sandybridge/g16/l508.exe)
 QCSCF skips out because SCF is already converged.
 Leave Link  508 at Sun Jan 17 19:51:52 2021, MaxMem=  4026531840 cpu:               0.0 elap:               0.0
 (Enter /opt/ohpc/pub/libs/gaussian/g16-A.03/sandybridge/g16/l601.exe)
 Copying SCF densities to generalized density rwf, IOpCl= 1 IROHF=0.

 **********************************************************************

            Population analysis using the SCF density.

 **********************************************************************

 Orbital symmetries:
 Alpha Orbitals:
       Occupied  (A) (A) (A) (A) (A) (A) (A) (A) (A) (A) (A) (A)
                 (A) (A) (A) (A) (A) (A) (A) (A) (A) (A) (A) (A)
                 (A) (A) (A) (A) (A) (A) (A) (A) (A) (A) (A) (A)
                 (A) (A) (A) (A) (A) (A) (A) (A) (A) (A) (A) (A)
                 (A) (A) (A) (A) (A) (A) (A) (A) (A) (A) (A) (A)
                 (A) (A) (A) (A) (A)
       Virtual   (A) (A) (A) (A) (A) (A) (A) (A) (A) (A) (A) (A)
                 (A) (A) (A) (A) (A) (A) (A) (A) (A) (A) (A) (A)
                 (A) (A) (A) (A) (A) (A) (A) (A) (A) (A) (A) (A)
                 (A) (A) (A) (A) (A) (A) (A) (A) (A) (A) (A) (A)
                 (A) (A) (A) (A) (A) (A) (A) (A) (A) (A) (A) (A)
                 (A) (A) (A) (A) (A) (A) (A) (A) (A) (A) (A) (A)
                 (A) (A) (A) (A) (A) (A) (A) (A) (A) (A) (A) (A)
                 (A) (A) (A) (A) (A) (A) (A) (A) (A) (A) (A) (A)
                 (A) (A) (A) (A) (A) (A) (A) (A) (A) (A) (A) (A)
                 (A) (A) (A) (A) (A) (A) (A) (A) (A) (A) (A) (A)
                 (A) (A) (A) (A) (A) (A) (A) (A) (A) (A) (A) (A)
                 (A) (A) (A) (A) (A) (A) (A) (A) (A) (A) (A) (A)
                 (A) (A) (A) (A) (A) (A) (A) (A) (A) (A) (A) (A)
                 (A) (A) (A) (A) (A) (A) (A) (A) (A) (A) (A) (A)
                 (A) (A) (A) (A) (A) (A) (A) (A) (A) (A) (A) (A)
                 (A) (A) (A) (A) (A) (A) (A) (A) (A) (A) (A) (A)
                 (A) (A) (A) (A) (A) (A) (A) (A) (A) (A) (A) (A)
                 (A) (A) (A) (A) (A) (A) (A) (A) (A) (A) (A) (A)
                 (A) (A) (A) (A) (A) (A) (A) (A) (A) (A) (A) (A)
                 (A) (A) (A) (A) (A) (A) (A) (A) (A) (A) (A) (A)
                 (A) (A) (A) (A) (A) (A) (A) (A) (A) (A) (A) (A)
                 (A) (A) (A) (A) (A) (A) (A) (A) (A) (A) (A) (A)
                 (A) (A) (A) (A) (A) (A) (A) (A) (A) (A) (A) (A)
                 (A) (A) (A) (A) (A) (A) (A) (A) (A) (A) (A) (A)
                 (A) (A) (A) (A) (A) (A) (A) (A) (A) (A) (A) (A)
                 (A) (A) (A) (A) (A) (A) (A) (A) (A) (A) (A) (A)
                 (A) (A) (A) (A) (A) (A) (A) (A) (A) (A) (A) (A)
                 (A) (A) (A) (A) (A) (A) (A) (A) (A) (A) (A) (A)
                 (A) (A) (A) (A) (A) (A) (A) (A) (A) (A) (A) (A)
                 (A) (A) (A) (A) (A) (A) (A) (A) (A) (A) (A) (A)
                 (A) (A) (A) (A) (A) (A) (A) (A) (A) (A) (A) (A)
                 (A) (A) (A) (A) (A) (A) (A) (A) (A) (A) (A) (A)
                 (A) (A)
 Beta  Orbitals:
       Occupied  (A) (A) (A) (A) (A) (A) (A) (A) (A) (A) (A) (A)
                 (A) (A) (A) (A) (A) (A) (A) (A) (A) (A) (A) (A)
                 (A) (A) (A) (A) (A) (A) (A) (A) (A) (A) (A) (A)
                 (A) (A) (A) (A) (A) (A) (A) (A) (A) (A) (A) (A)
                 (A) (A) (A) (A) (A) (A) (A) (A) (A) (A) (A) (A)
                 (A) (A) (A) (A)
       Virtual   (A) (A) (A) (A) (A) (A) (A) (A) (A) (A) (A) (A)
                 (A) (A) (A) (A) (A) (A) (A) (A) (A) (A) (A) (A)
                 (A) (A) (A) (A) (A) (A) (A) (A) (A) (A) (A) (A)
                 (A) (A) (A) (A) (A) (A) (A) (A) (A) (A) (A) (A)
                 (A) (A) (A) (A) (A) (A) (A) (A) (A) (A) (A) (A)
                 (A) (A) (A) (A) (A) (A) (A) (A) (A) (A) (A) (A)
                 (A) (A) (A) (A) (A) (A) (A) (A) (A) (A) (A) (A)
                 (A) (A) (A) (A) (A) (A) (A) (A) (A) (A) (A) (A)
                 (A) (A) (A) (A) (A) (A) (A) (A) (A) (A) (A) (A)
                 (A) (A) (A) (A) (A) (A) (A) (A) (A) (A) (A) (A)
                 (A) (A) (A) (A) (A) (A) (A) (A) (A) (A) (A) (A)
                 (A) (A) (A) (A) (A) (A) (A) (A) (A) (A) (A) (A)
                 (A) (A) (A) (A) (A) (A) (A) (A) (A) (A) (A) (A)
                 (A) (A) (A) (A) (A) (A) (A) (A) (A) (A) (A) (A)
                 (A) (A) (A) (A) (A) (A) (A) (A) (A) (A) (A) (A)
                 (A) (A) (A) (A) (A) (A) (A) (A) (A) (A) (A) (A)
                 (A) (A) (A) (A) (A) (A) (A) (A) (A) (A) (A) (A)
                 (A) (A) (A) (A) (A) (A) (A) (A) (A) (A) (A) (A)
                 (A) (A) (A) (A) (A) (A) (A) (A) (A) (A) (A) (A)
                 (A) (A) (A) (A) (A) (A) (A) (A) (A) (A) (A) (A)
                 (A) (A) (A) (A) (A) (A) (A) (A) (A) (A) (A) (A)
                 (A) (A) (A) (A) (A) (A) (A) (A) (A) (A) (A) (A)
                 (A) (A) (A) (A) (A) (A) (A) (A) (A) (A) (A) (A)
                 (A) (A) (A) (A) (A) (A) (A) (A) (A) (A) (A) (A)
                 (A) (A) (A) (A) (A) (A) (A) (A) (A) (A) (A) (A)
                 (A) (A) (A) (A) (A) (A) (A) (A) (A) (A) (A) (A)
                 (A) (A) (A) (A) (A) (A) (A) (A) (A) (A) (A) (A)
                 (A) (A) (A) (A) (A) (A) (A) (A) (A) (A) (A) (A)
                 (A) (A) (A) (A) (A) (A) (A) (A) (A) (A) (A) (A)
                 (A) (A) (A) (A) (A) (A) (A) (A) (A) (A) (A) (A)
                 (A) (A) (A) (A) (A) (A) (A) (A) (A) (A) (A) (A)
                 (A) (A) (A) (A) (A) (A) (A) (A) (A) (A) (A) (A)
                 (A) (A) (A)
 The electronic state is 2-A.
 Alpha  occ. eigenvalues --  -14.36162 -10.21036 -10.21031 -10.21029 -10.16397
 Alpha  occ. eigenvalues --  -10.16395 -10.16394 -10.16393 -10.16392 -10.16391
 Alpha  occ. eigenvalues --  -10.15503 -10.15499 -10.15499 -10.15136 -10.15133
 Alpha  occ. eigenvalues --  -10.15133 -10.15133 -10.15130 -10.15130  -1.20437
 Alpha  occ. eigenvalues --   -1.06415  -1.06413  -1.04296  -0.97063  -0.97062
 Alpha  occ. eigenvalues --   -0.94825  -0.94770  -0.94769  -0.91895  -0.84565
 Alpha  occ. eigenvalues --   -0.84564  -0.81677  -0.80836  -0.80835  -0.77958
 Alpha  occ. eigenvalues --   -0.75369  -0.75367  -0.71356  -0.69399  -0.69336
 Alpha  occ. eigenvalues --   -0.69335  -0.66155  -0.66155  -0.64392  -0.64216
 Alpha  occ. eigenvalues --   -0.64213  -0.63272  -0.62788  -0.62785  -0.60881
 Alpha  occ. eigenvalues --   -0.59909  -0.59907  -0.57402  -0.56790  -0.56361
 Alpha  occ. eigenvalues --   -0.56360  -0.54788  -0.54787  -0.53795  -0.48586
 Alpha  occ. eigenvalues --   -0.48585  -0.48154  -0.46894  -0.46892  -0.42702
 Alpha virt. eigenvalues --   -0.10965  -0.10962  -0.10670  -0.08381  -0.08379
 Alpha virt. eigenvalues --   -0.06463  -0.01219   0.00412   0.00413   0.02316
 Alpha virt. eigenvalues --    0.02318   0.02898   0.03077   0.04636   0.04637
 Alpha virt. eigenvalues --    0.05411   0.05719   0.05720   0.06124   0.06126
 Alpha virt. eigenvalues --    0.06359   0.08076   0.08076   0.08114   0.09188
 Alpha virt. eigenvalues --    0.12330   0.12749   0.12752   0.13471   0.13822
 Alpha virt. eigenvalues --    0.13823   0.13846   0.15240   0.15241   0.16262
 Alpha virt. eigenvalues --    0.16267   0.16432   0.17620   0.17621   0.17934
 Alpha virt. eigenvalues --    0.18338   0.18341   0.18452   0.18985   0.18989
 Alpha virt. eigenvalues --    0.19518   0.21099   0.21100   0.22026   0.22026
 Alpha virt. eigenvalues --    0.22492   0.23617   0.23619   0.24387   0.24603
 Alpha virt. eigenvalues --    0.25699   0.25704   0.26184   0.27020   0.27024
 Alpha virt. eigenvalues --    0.28897   0.30112   0.30259   0.30266   0.30303
 Alpha virt. eigenvalues --    0.31876   0.31879   0.32740   0.33075   0.33076
 Alpha virt. eigenvalues --    0.33296   0.33875   0.34049   0.34058   0.35280
 Alpha virt. eigenvalues --    0.35280   0.36969   0.37346   0.37347   0.37602
 Alpha virt. eigenvalues --    0.37604   0.38005   0.39586   0.39586   0.40221
 Alpha virt. eigenvalues --    0.40222   0.40494   0.41516   0.41869   0.41874
 Alpha virt. eigenvalues --    0.42970   0.43249   0.43381   0.43383   0.44340
 Alpha virt. eigenvalues --    0.44350   0.44623   0.44678   0.46085   0.46087
 Alpha virt. eigenvalues --    0.48224   0.48232   0.48471   0.48685   0.51381
 Alpha virt. eigenvalues --    0.51383   0.53570   0.54006   0.55502   0.55504
 Alpha virt. eigenvalues --    0.59247   0.59252   0.60264   0.60267   0.62217
 Alpha virt. eigenvalues --    0.62483   0.62488   0.62690   0.63112   0.63114
 Alpha virt. eigenvalues --    0.63500   0.64962   0.64976   0.67514   0.67539
 Alpha virt. eigenvalues --    0.69310   0.71260   0.71266   0.73255   0.76312
 Alpha virt. eigenvalues --    0.77423   0.77437   0.78420   0.84748   0.84755
 Alpha virt. eigenvalues --    0.85954   1.04733   1.07191   1.07195   1.11386
 Alpha virt. eigenvalues --    1.11390   1.11517   1.14326   1.14327   1.15434
 Alpha virt. eigenvalues --    1.15619   1.15620   1.17070   1.17315   1.18409
 Alpha virt. eigenvalues --    1.18409   1.19204   1.19208   1.20439   1.20575
 Alpha virt. eigenvalues --    1.20577   1.21768   1.21902   1.22079   1.22082
 Alpha virt. eigenvalues --    1.23576   1.23577   1.23784   1.24754   1.25723
 Alpha virt. eigenvalues --    1.25733   1.25837   1.33104   1.33108   1.34526
 Alpha virt. eigenvalues --    1.34591   1.34985   1.34990   1.35047   1.35049
 Alpha virt. eigenvalues --    1.36013   1.36053   1.36515   1.36517   1.37138
 Alpha virt. eigenvalues --    1.37141   1.38391   1.38510   1.38566   1.38575
 Alpha virt. eigenvalues --    1.39993   1.39995   1.42235   1.42578   1.42578
 Alpha virt. eigenvalues --    1.42588   1.43704   1.43708   1.45598   1.45604
 Alpha virt. eigenvalues --    1.45826   1.45949   1.46380   1.46382   1.47675
 Alpha virt. eigenvalues --    1.47675   1.47865   1.49102   1.49192   1.49195
 Alpha virt. eigenvalues --    1.50782   1.50951   1.50958   1.57416   1.57418
 Alpha virt. eigenvalues --    1.57596   1.61110   1.61130   1.66249   1.66512
 Alpha virt. eigenvalues --    1.66524   1.67889   1.68852   1.68853   1.69225
 Alpha virt. eigenvalues --    1.69504   1.69698   1.70155   1.70156   1.72273
 Alpha virt. eigenvalues --    1.72285   1.73064   1.73071   1.73396   1.74835
 Alpha virt. eigenvalues --    1.77887   1.77888   1.78681   1.79437   1.79899
 Alpha virt. eigenvalues --    1.79903   1.81435   1.82090   1.82094   1.82772
 Alpha virt. eigenvalues --    1.82777   1.82851   1.82862   1.83427   1.83596
 Alpha virt. eigenvalues --    1.84315   1.84323   1.85006   1.88873   1.88917
 Alpha virt. eigenvalues --    1.88918   1.89724   1.89932   1.89932   1.93207
 Alpha virt. eigenvalues --    1.93216   1.94177   1.97770   1.97772   2.01486
 Alpha virt. eigenvalues --    2.01490   2.01855   2.04697   2.09534   2.09535
 Alpha virt. eigenvalues --    2.11900   2.13348   2.13352   2.15961   2.19671
 Alpha virt. eigenvalues --    2.19671   2.20441   2.20540   2.21194   2.21196
 Alpha virt. eigenvalues --    2.21324   2.21326   2.23833   2.24048   2.24049
 Alpha virt. eigenvalues --    2.24446   2.25696   2.25997   2.25999   2.27066
 Alpha virt. eigenvalues --    2.27069   2.27760   2.33598   2.33603   2.35077
 Alpha virt. eigenvalues --    2.39807   2.39815   2.41598   2.41600   2.42454
 Alpha virt. eigenvalues --    2.42457   2.43043   2.43795   2.45430   2.45440
 Alpha virt. eigenvalues --    2.45970   2.49059   2.53535   2.53540   2.54288
 Alpha virt. eigenvalues --    2.54733   2.54740   2.55339   2.55342   2.56514
 Alpha virt. eigenvalues --    2.56978   2.58295   2.58297   2.63954   2.63964
 Alpha virt. eigenvalues --    2.64586   2.66296   2.66298   2.67436   2.67624
 Alpha virt. eigenvalues --    2.72272   2.72281   2.74232   2.74903   2.74915
 Alpha virt. eigenvalues --    2.79262   2.84692   2.84705   2.88051   2.88056
 Alpha virt. eigenvalues --    2.91975   2.92700   2.93171   2.93176   2.94152
 Alpha virt. eigenvalues --    2.95470   2.95474   2.98202   3.00117   3.00121
 Alpha virt. eigenvalues --    3.01438   3.02737   3.05382   3.05384   3.06606
 Alpha virt. eigenvalues --    3.06608   3.09064   3.09067   3.10022   3.10026
 Alpha virt. eigenvalues --    3.10833   3.14772   3.22823   3.22826   3.23565
 Alpha virt. eigenvalues --    3.27693   3.31168   3.31175   3.33761   3.41854
 Alpha virt. eigenvalues --    3.44458   3.44474   3.49082   3.49088   3.70963
 Alpha virt. eigenvalues --    3.80168   3.80170  21.07484  21.10220  21.10227
 Alpha virt. eigenvalues --   21.55671  21.59009  21.59025  21.59031  21.67146
 Alpha virt. eigenvalues --   21.67156  21.77797  21.81709  21.83864  21.83870
 Alpha virt. eigenvalues --   21.89348  21.89351  21.95539  22.01345  22.01372
 Alpha virt. eigenvalues --   31.85097
  Beta  occ. eigenvalues --  -14.35250 -10.21096 -10.21091 -10.21089 -10.16239
  Beta  occ. eigenvalues --  -10.16237 -10.16236 -10.16236 -10.16234 -10.16234
  Beta  occ. eigenvalues --  -10.15326 -10.15323 -10.15322 -10.15209 -10.15206
  Beta  occ. eigenvalues --  -10.15206 -10.15202 -10.15199 -10.15199  -1.19261
  Beta  occ. eigenvalues --   -1.06191  -1.06190  -1.03965  -0.96843  -0.96842
  Beta  occ. eigenvalues --   -0.94665  -0.94606  -0.94605  -0.91259  -0.84273
  Beta  occ. eigenvalues --   -0.84272  -0.81382  -0.80691  -0.80690  -0.77781
  Beta  occ. eigenvalues --   -0.75199  -0.75196  -0.71166  -0.69127  -0.69127
  Beta  occ. eigenvalues --   -0.68416  -0.66049  -0.66049  -0.64311  -0.64045
  Beta  occ. eigenvalues --   -0.64042  -0.63137  -0.62703  -0.62701  -0.60166
  Beta  occ. eigenvalues --   -0.59358  -0.59357  -0.57278  -0.56247  -0.56246
  Beta  occ. eigenvalues --   -0.55679  -0.54673  -0.54672  -0.52494  -0.47730
  Beta  occ. eigenvalues --   -0.47329  -0.47327  -0.46209  -0.46207
  Beta virt. eigenvalues --   -0.24635  -0.10400  -0.10219  -0.10218  -0.07843
  Beta virt. eigenvalues --   -0.07843  -0.05094  -0.01117   0.00487   0.00488
  Beta virt. eigenvalues --    0.02380   0.02383   0.02983   0.03117   0.04699
  Beta virt. eigenvalues --    0.04699   0.05623   0.05908   0.05908   0.06291
  Beta virt. eigenvalues --    0.06294   0.06388   0.08109   0.08110   0.08594
  Beta virt. eigenvalues --    0.09556   0.12559   0.12875   0.12878   0.13622
  Beta virt. eigenvalues --    0.13938   0.13939   0.14096   0.15357   0.15358
  Beta virt. eigenvalues --    0.16422   0.16427   0.16574   0.17755   0.17756
  Beta virt. eigenvalues --    0.18113   0.18375   0.18379   0.18553   0.19106
  Beta virt. eigenvalues --    0.19111   0.19627   0.21170   0.21171   0.22058
  Beta virt. eigenvalues --    0.22059   0.22697   0.23902   0.23905   0.24518
  Beta virt. eigenvalues --    0.24845   0.25845   0.25850   0.26482   0.27223
  Beta virt. eigenvalues --    0.27227   0.29160   0.30303   0.30399   0.30406
  Beta virt. eigenvalues --    0.30483   0.31982   0.31985   0.33044   0.33226
  Beta virt. eigenvalues --    0.33226   0.33434   0.34154   0.34203   0.34212
  Beta virt. eigenvalues --    0.35498   0.35498   0.36959   0.37368   0.37370
  Beta virt. eigenvalues --    0.37699   0.37702   0.38053   0.39708   0.39709
  Beta virt. eigenvalues --    0.40388   0.40389   0.40645   0.41689   0.41950
  Beta virt. eigenvalues --    0.41955   0.43106   0.43461   0.43463   0.43475
  Beta virt. eigenvalues --    0.44442   0.44452   0.44717   0.44882   0.46229
  Beta virt. eigenvalues --    0.46231   0.48343   0.48352   0.48612   0.48798
  Beta virt. eigenvalues --    0.51497   0.51499   0.53739   0.54199   0.55588
  Beta virt. eigenvalues --    0.55589   0.59336   0.59339   0.60411   0.60413
  Beta virt. eigenvalues --    0.62321   0.62611   0.62615   0.62897   0.63224
  Beta virt. eigenvalues --    0.63226   0.63608   0.65090   0.65104   0.67683
  Beta virt. eigenvalues --    0.67707   0.69429   0.71350   0.71356   0.73839
  Beta virt. eigenvalues --    0.77041   0.77522   0.77536   0.78640   0.84846
  Beta virt. eigenvalues --    0.84854   0.86240   1.04866   1.07293   1.07297
  Beta virt. eigenvalues --    1.11525   1.11530   1.11620   1.14514   1.14515
  Beta virt. eigenvalues --    1.15684   1.15737   1.15739   1.17254   1.17532
  Beta virt. eigenvalues --    1.18579   1.18579   1.19489   1.19494   1.20544
  Beta virt. eigenvalues --    1.20682   1.20684   1.21948   1.22083   1.22251
  Beta virt. eigenvalues --    1.22253   1.23660   1.23661   1.23953   1.25069
  Beta virt. eigenvalues --    1.25832   1.25933   1.25944   1.33352   1.33355
  Beta virt. eigenvalues --    1.34651   1.34915   1.34919   1.35183   1.35679
  Beta virt. eigenvalues --    1.35679   1.35916   1.36537   1.36679   1.36682
  Beta virt. eigenvalues --    1.37184   1.37186   1.38450   1.38704   1.38923
  Beta virt. eigenvalues --    1.38931   1.40102   1.40104   1.42448   1.42600
  Beta virt. eigenvalues --    1.42836   1.42837   1.43750   1.43754   1.45669
  Beta virt. eigenvalues --    1.45675   1.45953   1.46033   1.46689   1.46691
  Beta virt. eigenvalues --    1.47925   1.47926   1.48163   1.49358   1.49364
  Beta virt. eigenvalues --    1.49402   1.51002   1.51147   1.51153   1.57615
  Beta virt. eigenvalues --    1.57617   1.57773   1.61248   1.61268   1.66467
  Beta virt. eigenvalues --    1.66786   1.66797   1.68246   1.69050   1.69051
  Beta virt. eigenvalues --    1.69499   1.69676   1.69764   1.70309   1.70310
  Beta virt. eigenvalues --    1.72501   1.72513   1.73202   1.73211   1.73760
  Beta virt. eigenvalues --    1.75123   1.78069   1.78070   1.78979   1.79692
  Beta virt. eigenvalues --    1.80084   1.80088   1.81597   1.82243   1.82247
  Beta virt. eigenvalues --    1.82946   1.82953   1.83038   1.83048   1.83603
  Beta virt. eigenvalues --    1.83660   1.84424   1.84432   1.85235   1.89044
  Beta virt. eigenvalues --    1.89093   1.89094   1.90124   1.90124   1.90204
  Beta virt. eigenvalues --    1.93415   1.93424   1.94478   1.97982   1.97983
  Beta virt. eigenvalues --    2.01721   2.01725   2.01960   2.05180   2.09865
  Beta virt. eigenvalues --    2.09866   2.12641   2.14013   2.14019   2.16565
  Beta virt. eigenvalues --    2.19833   2.19834   2.20771   2.20867   2.21441
  Beta virt. eigenvalues --    2.21442   2.21656   2.21657   2.24178   2.24304
  Beta virt. eigenvalues --    2.24306   2.24850   2.25924   2.26280   2.26283
  Beta virt. eigenvalues --    2.27287   2.27289   2.28068   2.33893   2.33898
  Beta virt. eigenvalues --    2.35650   2.39981   2.39987   2.41592   2.41594
  Beta virt. eigenvalues --    2.42753   2.42756   2.43169   2.44014   2.45630
  Beta virt. eigenvalues --    2.45638   2.46487   2.49576   2.53790   2.53795
  Beta virt. eigenvalues --    2.54595   2.54929   2.54935   2.55530   2.55533
  Beta virt. eigenvalues --    2.57083   2.57277   2.58494   2.58495   2.64573
  Beta virt. eigenvalues --    2.64582   2.64894   2.66556   2.66559   2.67887
  Beta virt. eigenvalues --    2.68441   2.72396   2.72405   2.74578   2.75052
  Beta virt. eigenvalues --    2.75065   2.79504   2.85279   2.85293   2.88232
  Beta virt. eigenvalues --    2.88237   2.92042   2.92853   2.93219   2.93223
  Beta virt. eigenvalues --    2.94195   2.95561   2.95565   2.98629   3.00351
  Beta virt. eigenvalues --    3.00355   3.01520   3.03045   3.05522   3.05525
  Beta virt. eigenvalues --    3.06782   3.06784   3.09218   3.09221   3.10207
  Beta virt. eigenvalues --    3.10212   3.11106   3.14957   3.22917   3.22920
  Beta virt. eigenvalues --    3.23659   3.28370   3.31372   3.31379   3.35024
  Beta virt. eigenvalues --    3.41965   3.44569   3.44584   3.49440   3.49447
  Beta virt. eigenvalues --    3.71249   3.80470   3.80471  21.07564  21.10303
  Beta virt. eigenvalues --   21.10311  21.55724  21.59078  21.59082  21.59150
  Beta virt. eigenvalues --   21.67325  21.67334  21.77863  21.81808  21.83936
  Beta virt. eigenvalues --   21.83942  21.89435  21.89438  21.95626  22.01397
  Beta virt. eigenvalues --   22.01425  31.86406
          Condensed to atoms (all electrons):
               1          2          3          4          5          6
     1  N    6.306991   0.194122  -0.003819  -0.003309   0.009115   0.009115
     2  C    0.194122   5.604607   0.307554   0.307238   0.016445   0.016471
     3  C   -0.003819   0.307554   5.207929  -0.033771   0.388109  -0.129107
     4  C   -0.003309   0.307238  -0.033771   5.207986  -0.129070   0.387955
     5  C    0.009115   0.016445   0.388109  -0.129070   5.017492   0.027277
     6  C    0.009115   0.016471  -0.129107   0.387955   0.027277   5.017697
     7  C    0.005342  -0.070182  -0.029652  -0.029581   0.444000   0.443920
     8  H   -0.004987  -0.041061   0.396482   0.008939  -0.021113  -0.001127
     9  H   -0.004958  -0.041072   0.008971   0.396499  -0.001137  -0.021151
    10  H   -0.000490   0.014104  -0.040216  -0.001184   0.410331   0.012434
    11  H   -0.000491   0.014110  -0.001183  -0.040236   0.012435   0.410347
    12  H   -0.000028  -0.006297   0.019742   0.019744  -0.055182  -0.055194
    13  C    0.193709  -0.146638   0.040148  -0.003926  -0.000853  -0.005611
    14  C   -0.003253   0.040053  -0.051634   0.012635  -0.003279   0.003081
    15  C   -0.003853  -0.004335   0.012752  -0.008569   0.000123  -0.000288
    16  C    0.009131  -0.000755  -0.003300   0.000122   0.000046   0.000061
    17  C    0.009141  -0.005562   0.003067  -0.000284   0.000060  -0.000028
    18  C    0.005345   0.003499  -0.001912   0.000092  -0.000128   0.000014
    19  H   -0.004930  -0.001507  -0.000713  -0.000145  -0.001841   0.000054
    20  H   -0.004992  -0.001418   0.000493  -0.000261  -0.000009  -0.000005
    21  H   -0.000492  -0.000185  -0.000034  -0.000029   0.000020   0.000000
    22  H   -0.000491  -0.000044   0.000005   0.000001  -0.000000   0.000000
    23  H   -0.000029   0.000019  -0.000016   0.000001  -0.000001  -0.000000
    24  C    0.193677  -0.146647  -0.004130   0.040044  -0.005573  -0.000813
    25  C   -0.003797   0.040111   0.012737  -0.051569   0.003063  -0.003306
    26  C   -0.003315  -0.004080  -0.008584   0.012660  -0.000285   0.000126
    27  C    0.009129  -0.000811   0.000130  -0.003292   0.000060   0.000041
    28  C    0.009135  -0.005605  -0.000284   0.003074  -0.000028   0.000060
    29  C    0.005346   0.003529   0.000093  -0.001915   0.000014  -0.000127
    30  H   -0.004963  -0.001451  -0.000145  -0.000737   0.000057  -0.001843
    31  H   -0.004955  -0.001393  -0.000262   0.000486  -0.000005  -0.000009
    32  H   -0.000492  -0.000186  -0.000029  -0.000035   0.000000   0.000020
    33  H   -0.000492  -0.000044   0.000001   0.000005   0.000000  -0.000000
    34  H   -0.000029   0.000019   0.000001  -0.000016  -0.000000  -0.000001
               7          8          9         10         11         12
     1  N    0.005342  -0.004987  -0.004958  -0.000490  -0.000491  -0.000028
     2  C   -0.070182  -0.041061  -0.041072   0.014104   0.014110  -0.006297
     3  C   -0.029652   0.396482   0.008971  -0.040216  -0.001183   0.019742
     4  C   -0.029581   0.008939   0.396499  -0.001184  -0.040236   0.019744
     5  C    0.444000  -0.021113  -0.001137   0.410331   0.012435  -0.055182
     6  C    0.443920  -0.001127  -0.021151   0.012434   0.410347  -0.055194
     7  C    4.956022   0.006943   0.006957  -0.048622  -0.048633   0.423960
     8  H    0.006943   0.475377  -0.000086  -0.005094   0.000008  -0.000034
     9  H    0.006957  -0.000086   0.475399   0.000007  -0.005096  -0.000034
    10  H   -0.048622  -0.005094   0.000007   0.509420  -0.000094  -0.005931
    11  H   -0.048633   0.000008  -0.005096  -0.000094   0.509425  -0.005931
    12  H    0.423960  -0.000034  -0.000034  -0.005931  -0.005931   0.506134
    13  C    0.003540  -0.001386  -0.001388  -0.000186  -0.000044   0.000019
    14  C   -0.001920  -0.000758   0.000482  -0.000034   0.000005  -0.000016
    15  C    0.000095  -0.000154  -0.000262  -0.000029   0.000001   0.000001
    16  C   -0.000128  -0.001841  -0.000009   0.000021  -0.000000  -0.000001
    17  C    0.000014   0.000060  -0.000005   0.000000   0.000000  -0.000000
    18  C   -0.000012   0.000672   0.000000   0.000000   0.000000  -0.000000
    19  H    0.000674   0.001097  -0.000007  -0.000038  -0.000003   0.000004
    20  H    0.000000  -0.000006  -0.000002  -0.000000  -0.000000   0.000000
    21  H    0.000000  -0.000037  -0.000000   0.000000  -0.000000  -0.000000
    22  H    0.000000  -0.000003  -0.000000  -0.000000  -0.000000  -0.000000
    23  H   -0.000000   0.000004   0.000000  -0.000000  -0.000000  -0.000000
    24  C    0.003508  -0.001412  -0.001437  -0.000043  -0.000186   0.000019
    25  C   -0.001905   0.000491  -0.000720   0.000005  -0.000034  -0.000016
    26  C    0.000093  -0.000262  -0.000160   0.000001  -0.000029   0.000001
    27  C   -0.000127  -0.000009  -0.001837  -0.000000   0.000020  -0.000001
    28  C    0.000014  -0.000005   0.000056   0.000000   0.000000  -0.000000
    29  C   -0.000012   0.000000   0.000673   0.000000   0.000000  -0.000000
    30  H    0.000673  -0.000007   0.001097  -0.000003  -0.000037   0.000004
    31  H    0.000000  -0.000002  -0.000006  -0.000000  -0.000000   0.000000
    32  H    0.000000  -0.000000  -0.000037  -0.000000   0.000000  -0.000000
    33  H    0.000000  -0.000000  -0.000003  -0.000000  -0.000000  -0.000000
    34  H   -0.000000   0.000000   0.000004  -0.000000  -0.000000  -0.000000
              13         14         15         16         17         18
     1  N    0.193709  -0.003253  -0.003853   0.009131   0.009141   0.005345
     2  C   -0.146638   0.040053  -0.004335  -0.000755  -0.005562   0.003499
     3  C    0.040148  -0.051634   0.012752  -0.003300   0.003067  -0.001912
     4  C   -0.003926   0.012635  -0.008569   0.000122  -0.000284   0.000092
     5  C   -0.000853  -0.003279   0.000123   0.000046   0.000060  -0.000128
     6  C   -0.005611   0.003081  -0.000288   0.000061  -0.000028   0.000014
     7  C    0.003540  -0.001920   0.000095  -0.000128   0.000014  -0.000012
     8  H   -0.001386  -0.000758  -0.000154  -0.001841   0.000060   0.000672
     9  H   -0.001388   0.000482  -0.000262  -0.000009  -0.000005   0.000000
    10  H   -0.000186  -0.000034  -0.000029   0.000021   0.000000   0.000000
    11  H   -0.000044   0.000005   0.000001  -0.000000   0.000000   0.000000
    12  H    0.000019  -0.000016   0.000001  -0.000001  -0.000000  -0.000000
    13  C    5.606606   0.306725   0.307529   0.016570   0.016593  -0.070282
    14  C    0.306725   5.208069  -0.033471   0.387838  -0.129130  -0.029538
    15  C    0.307529  -0.033471   5.207037  -0.129115   0.388004  -0.029622
    16  C    0.016570   0.387838  -0.129115   5.017816   0.027324   0.443804
    17  C    0.016593  -0.129130   0.388004   0.027324   5.017730   0.443865
    18  C   -0.070282  -0.029538  -0.029622   0.443804   0.443865   4.956275
    19  H   -0.041142   0.396608   0.008993  -0.021208  -0.001145   0.006973
    20  H   -0.041089   0.008975   0.396594  -0.001139  -0.021245   0.006961
    21  H    0.014125  -0.040245  -0.001182   0.410352   0.012437  -0.048656
    22  H    0.014105  -0.001180  -0.040214   0.012440   0.410336  -0.048648
    23  H   -0.006296   0.019741   0.019738  -0.055185  -0.055178   0.423962
    24  C   -0.147098  -0.003938   0.040282  -0.005632  -0.000882   0.003548
    25  C   -0.004131  -0.008586   0.012648  -0.000284   0.000128   0.000092
    26  C    0.040197   0.012577  -0.051555   0.003086  -0.003258  -0.001923
    27  C   -0.005606  -0.000283   0.003080  -0.000028   0.000060   0.000014
    28  C   -0.000856   0.000126  -0.003270   0.000060   0.000046  -0.000127
    29  C    0.003525   0.000091  -0.001918   0.000014  -0.000127  -0.000012
    30  H   -0.001420  -0.000262   0.000497  -0.000005  -0.000009   0.000000
    31  H   -0.001451  -0.000159  -0.000704   0.000053  -0.001839   0.000674
    32  H   -0.000044   0.000001   0.000005   0.000000  -0.000000   0.000000
    33  H   -0.000187  -0.000029  -0.000033  -0.000000   0.000020   0.000000
    34  H    0.000019   0.000001  -0.000016  -0.000000  -0.000001  -0.000000
              19         20         21         22         23         24
     1  N   -0.004930  -0.004992  -0.000492  -0.000491  -0.000029   0.193677
     2  C   -0.001507  -0.001418  -0.000185  -0.000044   0.000019  -0.146647
     3  C   -0.000713   0.000493  -0.000034   0.000005  -0.000016  -0.004130
     4  C   -0.000145  -0.000261  -0.000029   0.000001   0.000001   0.040044
     5  C   -0.001841  -0.000009   0.000020  -0.000000  -0.000001  -0.005573
     6  C    0.000054  -0.000005   0.000000   0.000000  -0.000000  -0.000813
     7  C    0.000674   0.000000   0.000000   0.000000  -0.000000   0.003508
     8  H    0.001097  -0.000006  -0.000037  -0.000003   0.000004  -0.001412
     9  H   -0.000007  -0.000002  -0.000000  -0.000000   0.000000  -0.001437
    10  H   -0.000038  -0.000000   0.000000  -0.000000  -0.000000  -0.000043
    11  H   -0.000003  -0.000000  -0.000000  -0.000000  -0.000000  -0.000186
    12  H    0.000004   0.000000  -0.000000  -0.000000  -0.000000   0.000019
    13  C   -0.041142  -0.041089   0.014125   0.014105  -0.006296  -0.147098
    14  C    0.396608   0.008975  -0.040245  -0.001180   0.019741  -0.003938
    15  C    0.008993   0.396594  -0.001182  -0.040214   0.019738   0.040282
    16  C   -0.021208  -0.001139   0.410352   0.012440  -0.055185  -0.005632
    17  C   -0.001145  -0.021245   0.012437   0.410336  -0.055178  -0.000882
    18  C    0.006973   0.006961  -0.048656  -0.048648   0.423962   0.003548
    19  H    0.475509  -0.000085  -0.005101   0.000007  -0.000034  -0.001397
    20  H   -0.000085   0.475562   0.000008  -0.005095  -0.000034  -0.001397
    21  H   -0.005101   0.000008   0.509462  -0.000094  -0.005931  -0.000044
    22  H    0.000007  -0.005095  -0.000094   0.509447  -0.005933  -0.000187
    23  H   -0.000034  -0.000034  -0.005931  -0.005933   0.506135   0.000019
    24  C   -0.001397  -0.001397  -0.000044  -0.000187   0.000019   5.606437
    25  C   -0.000262  -0.000158   0.000001  -0.000029   0.000001   0.307442
    26  C    0.000490  -0.000740   0.000005  -0.000033  -0.000016   0.307104
    27  C   -0.000005   0.000059   0.000000  -0.000000  -0.000000   0.016487
    28  C   -0.000009  -0.001841  -0.000000   0.000020  -0.000001   0.016501
    29  C    0.000000   0.000672   0.000000   0.000000  -0.000000  -0.070217
    30  H   -0.000002  -0.000006  -0.000000  -0.000000   0.000000  -0.041104
    31  H   -0.000006   0.001096  -0.000003  -0.000038   0.000004  -0.041110
    32  H   -0.000000  -0.000003  -0.000000  -0.000000  -0.000000   0.014101
    33  H   -0.000000  -0.000037  -0.000000   0.000000  -0.000000   0.014114
    34  H    0.000000   0.000004  -0.000000  -0.000000  -0.000000  -0.006296
              25         26         27         28         29         30
     1  N   -0.003797  -0.003315   0.009129   0.009135   0.005346  -0.004963
     2  C    0.040111  -0.004080  -0.000811  -0.005605   0.003529  -0.001451
     3  C    0.012737  -0.008584   0.000130  -0.000284   0.000093  -0.000145
     4  C   -0.051569   0.012660  -0.003292   0.003074  -0.001915  -0.000737
     5  C    0.003063  -0.000285   0.000060  -0.000028   0.000014   0.000057
     6  C   -0.003306   0.000126   0.000041   0.000060  -0.000127  -0.001843
     7  C   -0.001905   0.000093  -0.000127   0.000014  -0.000012   0.000673
     8  H    0.000491  -0.000262  -0.000009  -0.000005   0.000000  -0.000007
     9  H   -0.000720  -0.000160  -0.001837   0.000056   0.000673   0.001097
    10  H    0.000005   0.000001  -0.000000   0.000000   0.000000  -0.000003
    11  H   -0.000034  -0.000029   0.000020   0.000000   0.000000  -0.000037
    12  H   -0.000016   0.000001  -0.000001  -0.000000  -0.000000   0.000004
    13  C   -0.004131   0.040197  -0.005606  -0.000856   0.003525  -0.001420
    14  C   -0.008586   0.012577  -0.000283   0.000126   0.000091  -0.000262
    15  C    0.012648  -0.051555   0.003080  -0.003270  -0.001918   0.000497
    16  C   -0.000284   0.003086  -0.000028   0.000060   0.000014  -0.000005
    17  C    0.000128  -0.003258   0.000060   0.000046  -0.000127  -0.000009
    18  C    0.000092  -0.001923   0.000014  -0.000127  -0.000012   0.000000
    19  H   -0.000262   0.000490  -0.000005  -0.000009   0.000000  -0.000002
    20  H   -0.000158  -0.000740   0.000059  -0.001841   0.000672  -0.000006
    21  H    0.000001   0.000005   0.000000  -0.000000   0.000000  -0.000000
    22  H   -0.000029  -0.000033  -0.000000   0.000020   0.000000  -0.000000
    23  H    0.000001  -0.000016  -0.000000  -0.000001  -0.000000   0.000000
    24  C    0.307442   0.307104   0.016487   0.016501  -0.070217  -0.041104
    25  C    5.207554  -0.033585   0.388025  -0.129034  -0.029698   0.396580
    26  C   -0.033585   5.207153  -0.129030   0.388032  -0.029612   0.008966
    27  C    0.388025  -0.129030   5.017615   0.027293   0.443943  -0.021181
    28  C   -0.129034   0.388032   0.027293   5.017736   0.443815  -0.001134
    29  C   -0.029698  -0.029612   0.443943   0.443815   4.956276   0.006954
    30  H    0.396580   0.008966  -0.021181  -0.001134   0.006954   0.475489
    31  H    0.008987   0.396616  -0.001143  -0.021254   0.006971  -0.000086
    32  H   -0.040210  -0.001179   0.410325   0.012435  -0.048637  -0.005091
    33  H   -0.001177  -0.040228   0.012435   0.410341  -0.048655   0.000008
    34  H    0.019741   0.019738  -0.055178  -0.055185   0.423959  -0.000034
              31         32         33         34
     1  N   -0.004955  -0.000492  -0.000492  -0.000029
     2  C   -0.001393  -0.000186  -0.000044   0.000019
     3  C   -0.000262  -0.000029   0.000001   0.000001
     4  C    0.000486  -0.000035   0.000005  -0.000016
     5  C   -0.000005   0.000000   0.000000  -0.000000
     6  C   -0.000009   0.000020  -0.000000  -0.000001
     7  C    0.000000   0.000000   0.000000  -0.000000
     8  H   -0.000002  -0.000000  -0.000000   0.000000
     9  H   -0.000006  -0.000037  -0.000003   0.000004
    10  H   -0.000000  -0.000000  -0.000000  -0.000000
    11  H   -0.000000   0.000000  -0.000000  -0.000000
    12  H    0.000000  -0.000000  -0.000000  -0.000000
    13  C   -0.001451  -0.000044  -0.000187   0.000019
    14  C   -0.000159   0.000001  -0.000029   0.000001
    15  C   -0.000704   0.000005  -0.000033  -0.000016
    16  C    0.000053   0.000000  -0.000000  -0.000000
    17  C   -0.001839  -0.000000   0.000020  -0.000001
    18  C    0.000674   0.000000   0.000000  -0.000000
    19  H   -0.000006  -0.000000  -0.000000   0.000000
    20  H    0.001096  -0.000003  -0.000037   0.000004
    21  H   -0.000003  -0.000000  -0.000000  -0.000000
    22  H   -0.000038  -0.000000   0.000000  -0.000000
    23  H    0.000004  -0.000000  -0.000000  -0.000000
    24  C   -0.041110   0.014101   0.014114  -0.006296
    25  C    0.008987  -0.040210  -0.001177   0.019741
    26  C    0.396616  -0.001179  -0.040228   0.019738
    27  C   -0.001143   0.410325   0.012435  -0.055178
    28  C   -0.021254   0.012435   0.410341  -0.055185
    29  C    0.006971  -0.048637  -0.048655   0.423959
    30  H   -0.000086  -0.005091   0.000008  -0.000034
    31  H    0.475572   0.000008  -0.005096  -0.000034
    32  H    0.000008   0.509445  -0.000094  -0.005932
    33  H   -0.005096  -0.000094   0.509449  -0.005931
    34  H   -0.000034  -0.005932  -0.005931   0.506147
          Atomic-Atomic Spin Densities.
[...]
    28  C    0.045522  -0.068863
    29  C    0.094074   0.144105
 Electronic spatial extent (au):  <R**2>=           4900.4196
 Charge=              1.0000 electrons
 Dipole moment (field-independent basis, Debye):
    X=             -0.0012    Y=              0.0025    Z=              0.0006  Tot=              0.0028
 Quadrupole moment (field-independent basis, Debye-Ang):
   XX=            -67.6122   YY=            -67.6182   ZZ=           -102.8946
   XY=              0.0018   XZ=              0.0005   YZ=             -0.0004
 Traceless Quadrupole moment (field-independent basis, Debye-Ang):
   XX=             11.7628   YY=             11.7568   ZZ=            -23.5196
   XY=              0.0018   XZ=              0.0005   YZ=             -0.0004
 Octapole moment (field-independent basis, Debye-Ang**2):
  XXX=             50.7610  YYY=             41.8237  ZZZ=             -0.0079  XYY=            -50.8013
  XXY=            -41.7126  XXZ=              0.0204  XZZ=              0.0168  YZZ=             -0.0588
  YYZ=              0.0329  XYZ=              0.0128
 Hexadecapole moment (field-independent basis, Debye-Ang**3):
 XXXX=          -2464.3792 YYYY=          -2464.1220 ZZZZ=           -435.1464 XXXY=             -0.1442
 XXXZ=             69.4075 YYYX=              0.0948 YYYZ=            -84.5542 ZZZX=              0.0775
 ZZZY=              0.0271 XXYY=           -821.3380 XXZZ=           -563.1745 YYZZ=           -563.3133
 XXYZ=             84.4987 YYXZ=            -69.5241 ZZXY=              0.0499
 N-N= 1.298220548022D+03 E-N=-4.316527122428D+03  KE= 7.452700493671D+02
                          Isotropic Fermi Contact Couplings
        Atom                 a.u.       MegaHertz       Gauss      10(-4) cm-1
     1  N(14)              0.04492      14.51499       5.17931       4.84168
     2  C(13)             -0.01871     -21.03307      -7.50512      -7.01588
     3  C(13)              0.00652       7.33471       2.61721       2.44659
     4  C(13)              0.00653       7.34198       2.61980       2.44902
     5  C(13)             -0.00627      -7.04664      -2.51442      -2.35051
     6  C(13)             -0.00627      -7.04825      -2.51499      -2.35104
     7  C(13)              0.00438       4.92299       1.75665       1.64213
     8  H(1)              -0.00142      -6.33405      -2.26015      -2.11281
     9  H(1)              -0.00142      -6.33471      -2.26038      -2.11303
    10  H(1)               0.00098       4.38135       1.56338       1.46146
    11  H(1)               0.00098       4.37856       1.56238       1.46053
    12  H(1)              -0.00196      -8.76606      -3.12795      -2.92404
    13  C(13)             -0.01870     -21.01891      -7.50007      -7.01115
    14  C(13)              0.00654       7.35749       2.62533       2.45419
    15  C(13)              0.00654       7.35606       2.62482       2.45372
    16  C(13)             -0.00625      -7.02840      -2.50791      -2.34442
    17  C(13)             -0.00625      -7.02470      -2.50659      -2.34319
    18  C(13)              0.00437       4.90977       1.75193       1.63772
    19  H(1)              -0.00141      -6.32113      -2.25554      -2.10850
    20  H(1)              -0.00141      -6.32324      -2.25629      -2.10921
    21  H(1)               0.00098       4.37709       1.56185       1.46004
    22  H(1)               0.00098       4.37621       1.56154       1.45974
    23  H(1)              -0.00196      -8.74389      -3.12004      -2.91665
    24  C(13)             -0.01869     -21.01609      -7.49906      -7.01021
    25  C(13)              0.00654       7.35080       2.62295       2.45196
    26  C(13)              0.00655       7.36442       2.62781       2.45651
    27  C(13)             -0.00625      -7.02513      -2.50674      -2.34333
    28  C(13)             -0.00625      -7.02382      -2.50627      -2.34289
    29  C(13)              0.00437       4.90854       1.75149       1.63731
    30  H(1)              -0.00141      -6.31767      -2.25430      -2.10735
    31  H(1)              -0.00141      -6.32171      -2.25574      -2.10870
    32  H(1)               0.00098       4.37697       1.56181       1.46000
    33  H(1)               0.00098       4.37397       1.56074       1.45900
    34  H(1)              -0.00196      -8.74038      -3.11878      -2.91548
 --------------------------------------------------------
       Center         ----  Spin Dipole Couplings  ----
                      3XX-RR        3YY-RR        3ZZ-RR
 --------------------------------------------------------
     1   Atom       -0.557761     -0.557766      1.115527
     2   Atom       -0.020194      0.014942      0.005252
     3   Atom        0.061217     -0.061583      0.000367
     4   Atom        0.039656     -0.040043      0.000387
     5   Atom       -0.002233      0.025915     -0.023682
     6   Atom       -0.004595      0.028280     -0.023685
     7   Atom       -0.003520     -0.064648      0.068167
     8   Atom        0.001376     -0.001834      0.000458
     9   Atom        0.002969     -0.003431      0.000461
    10   Atom       -0.001373      0.002471     -0.001098
    11   Atom       -0.000438      0.001536     -0.001098
    12   Atom       -0.004943      0.009318     -0.004375
    13   Atom       -0.003994     -0.001345      0.005338
    14   Atom        0.023428     -0.023378     -0.000051
    15   Atom       -0.015504      0.015570     -0.000066
    16   Atom        0.012684      0.010782     -0.023465
    17   Atom        0.008424      0.015058     -0.023482
    18   Atom       -0.031453     -0.036091      0.067544
    19   Atom       -0.001460      0.000985      0.000475
    20   Atom        0.001371     -0.001838      0.000468
    21   Atom       -0.000403      0.001494     -0.001091
    22   Atom        0.001266     -0.000175     -0.001091
    23   Atom        0.001633      0.002751     -0.004384
    24   Atom        0.016234     -0.021580      0.005346
    25   Atom       -0.045926      0.046015     -0.000089
    26   Atom       -0.063189      0.063233     -0.000043
    27   Atom        0.029156     -0.005684     -0.023472
    28   Atom        0.027264     -0.003800     -0.023465
    29   Atom       -0.066782     -0.000759      0.067540
    30   Atom       -0.003440      0.002968      0.000472
    31   Atom       -0.002190      0.001723      0.000467
    32   Atom        0.001744     -0.000653     -0.001091
    33   Atom        0.002484     -0.001393     -0.001091
    34   Atom        0.009854     -0.005473     -0.004381
 --------------------------------------------------------
                        XY            XZ            YZ
 --------------------------------------------------------
     1   Atom       -0.000001     -0.000162     -0.000000
     2   Atom       -0.011663     -0.017295     -0.005130
     3   Atom        0.017616      0.085923      0.016645
     4   Atom        0.049906      0.080757      0.033841
     5   Atom       -0.011943     -0.036509     -0.014438
     6   Atom       -0.008407     -0.038404     -0.008240
     7   Atom        0.020375      0.104135      0.031537
     8   Atom        0.002801     -0.004904     -0.003730
     9   Atom        0.000419     -0.006150      0.000373
    10   Atom       -0.000270     -0.001130     -0.001139
    11   Atom       -0.001672     -0.001573      0.000322
    12   Atom       -0.004766      0.004135      0.001259
    13   Atom        0.021079      0.013056     -0.012381
    14   Atom       -0.059512     -0.069436      0.052786
    15   Atom       -0.062035     -0.057125      0.065839
    16   Atom        0.018496      0.026308     -0.029101
    17   Atom        0.018200      0.030702     -0.024371
    18   Atom       -0.036784     -0.079225      0.074368
    19   Atom       -0.002964      0.002760     -0.005501
    20   Atom       -0.002777      0.005673     -0.002388
    21   Atom        0.001693      0.000506     -0.001520
    22   Atom        0.001800      0.001548     -0.000409
    23   Atom        0.008530     -0.003156      0.002944
    24   Atom       -0.009391      0.004187      0.017486
    25   Atom        0.044456     -0.028436     -0.082382
    26   Atom        0.009478     -0.010992     -0.086486
    27   Atom       -0.006222      0.005746      0.038770
    28   Atom       -0.010068      0.012040      0.037317
    29   Atom        0.016328     -0.024719     -0.105759
    30   Atom       -0.000004     -0.000765      0.006105
    31   Atom        0.002539      0.003384      0.005139
    32   Atom       -0.001525     -0.000420      0.001544
    33   Atom       -0.000026      0.001063      0.001198
    34   Atom       -0.003781     -0.000977     -0.004202
 --------------------------------------------------------


 ---------------------------------------------------------------------------------
              Anisotropic Spin Dipole Couplings in Principal Axis System
 ---------------------------------------------------------------------------------

       Atom             a.u.   MegaHertz   Gauss  10(-4) cm-1        Axes

              Baa    -0.5578   -21.512    -7.676    -7.176  0.2293  0.9734  0.0000
     1 N(14)  Bbb    -0.5578   -21.512    -7.676    -7.175  0.9734 -0.2293  0.0001
              Bcc     1.1155    43.023    15.352    14.351 -0.0001 -0.0000  1.0000
 
              Baa    -0.0324    -4.343    -1.550    -1.449  0.8634  0.2598  0.4324
     2 C(13)  Bbb     0.0139     1.865     0.666     0.622 -0.4091 -0.1409  0.9015
              Bcc     0.0185     2.477     0.884     0.826 -0.2951  0.9553  0.0154
 
              Baa    -0.0665    -8.929    -3.186    -2.978  0.1878  0.8692 -0.4575
     3 C(13)  Bbb    -0.0585    -7.849    -2.801    -2.618 -0.5576  0.4778  0.6789
              Bcc     0.1250    16.778     5.987     5.596  0.8086  0.1276  0.5744
 
              Baa    -0.0665    -8.930    -3.186    -2.979  0.6390 -0.6174 -0.4588
     4 C(13)  Bbb    -0.0585    -7.851    -2.802    -2.619  0.1976  0.7082 -0.6778
              Bcc     0.1251    16.781     5.988     5.598  0.7434  0.3425  0.5745
 
              Baa    -0.0553    -7.424    -2.649    -2.476  0.5860  0.2245  0.7786
     5 C(13)  Bbb     0.0249     3.348     1.194     1.117  0.7658  0.1608 -0.6227
              Bcc     0.0304     4.076     1.454     1.360 -0.2650  0.9611 -0.0777
 
              Baa    -0.0553    -7.426    -2.650    -2.477  0.6121  0.1383  0.7786
     6 C(13)  Bbb     0.0250     3.349     1.195     1.117  0.7258  0.2925 -0.6226
              Bcc     0.0304     4.077     1.455     1.360 -0.3138  0.9462  0.0787
 
              Baa    -0.0782   -10.497    -3.745    -3.501  0.7680  0.2332 -0.5965
     7 C(13)  Bbb    -0.0708    -9.503    -3.391    -3.170 -0.2903  0.9569  0.0004
              Bcc     0.1490    20.000     7.136     6.671  0.5709  0.1729  0.8026
 
              Baa    -0.0048    -2.554    -0.911    -0.852  0.2789  0.6400  0.7160
     8 H(1)   Bbb    -0.0032    -1.711    -0.610    -0.571  0.7086 -0.6404  0.2964
              Bcc     0.0080     4.264     1.522     1.422  0.6482  0.4247 -0.6321
 
              Baa    -0.0048    -2.554    -0.911    -0.852  0.5876 -0.3780  0.7154
     9 H(1)   Bbb    -0.0032    -1.710    -0.610    -0.570  0.2334  0.9258  0.2975
              Bcc     0.0080     4.264     1.522     1.422  0.7747  0.0078 -0.6322
 
              Baa    -0.0026    -1.368    -0.488    -0.456  0.6985  0.1933  0.6890
    10 H(1)   Bbb    -0.0002    -0.129    -0.046    -0.043  0.7154 -0.2086 -0.6668
              Bcc     0.0028     1.496     0.534     0.499  0.0148  0.9587 -0.2840
 
              Baa    -0.0026    -1.367    -0.488    -0.456  0.6882  0.2265  0.6892
    11 H(1)   Bbb    -0.0002    -0.130    -0.046    -0.043 -0.4793 -0.5711  0.6664
              Bcc     0.0028     1.497     0.534     0.499 -0.5446  0.7890  0.2845
 
              Baa    -0.0098    -5.240    -1.870    -1.748  0.7495  0.2275 -0.6217
    12 H(1)   Bbb    -0.0009    -0.504    -0.180    -0.168  0.5950  0.1803  0.7832
              Bcc     0.0108     5.743     2.049     1.916 -0.2903  0.9569  0.0003
 
              Baa    -0.0324    -4.344    -1.550    -1.449  0.6574 -0.6184 -0.4306
    13 C(13)  Bbb     0.0139     1.868     0.667     0.623  0.3257 -0.2821  0.9024
              Bcc     0.0185     2.476     0.884     0.826  0.6795  0.7335 -0.0160
 
              Baa    -0.0664    -8.914    -3.181    -2.973  0.2147  0.8614 -0.4604
    14 C(13)  Bbb    -0.0584    -7.833    -2.795    -2.613  0.7108  0.1854  0.6785
              Bcc     0.1248    16.747     5.976     5.586  0.6698 -0.4729 -0.5725
 
              Baa    -0.0664    -8.911    -3.180    -2.973  0.8460  0.2717  0.4588
    15 C(13)  Bbb    -0.0583    -7.829    -2.793    -2.611  0.1372  0.7206 -0.6796
              Bcc     0.1247    16.740     5.973     5.584 -0.5153  0.6379  0.5723
 
              Baa    -0.0552    -7.411    -2.644    -2.472 -0.4270  0.4623  0.7772
    16 C(13)  Bbb     0.0249     3.341     1.192     1.114  0.6142 -0.4826  0.6244
              Bcc     0.0303     4.070     1.452     1.358  0.6637  0.7439 -0.0779
 
              Baa    -0.0552    -7.407    -2.643    -2.471 -0.4885  0.3962  0.7774
    17 C(13)  Bbb     0.0249     3.339     1.191     1.114  0.5226 -0.5807  0.6243
              Bcc     0.0303     4.068     1.451     1.357  0.6988  0.7112  0.0766
 
              Baa    -0.0780   -10.470    -3.736    -3.492  0.5850 -0.5477  0.5982
    18 C(13)  Bbb    -0.0706    -9.478    -3.382    -3.161  0.6838  0.7297 -0.0007
              Bcc     0.1487    19.948     7.118     6.654 -0.4361  0.4094  0.8014
 
              Baa    -0.0048    -2.550    -0.910    -0.850  0.0275  0.6975  0.7160
    19 H(1)   Bbb    -0.0032    -1.706    -0.609    -0.569  0.9185  0.2650 -0.2934
              Bcc     0.0080     4.255     1.518     1.419 -0.3944  0.6657 -0.6334
 
              Baa    -0.0048    -2.551    -0.910    -0.851 -0.6938 -0.0733  0.7165
    20 H(1)   Bbb    -0.0032    -1.704    -0.608    -0.568  0.2040  0.9341  0.2931
              Bcc     0.0080     4.256     1.518     1.420  0.6907 -0.3495  0.6331
 
              Baa    -0.0026    -1.366    -0.487    -0.455 -0.5415  0.4839  0.6875
    21 H(1)   Bbb    -0.0002    -0.129    -0.046    -0.043  0.7325 -0.1297  0.6683
              Bcc     0.0028     1.494     0.533     0.498  0.4126  0.8654 -0.2843
 
              Baa    -0.0026    -1.365    -0.487    -0.455 -0.5177  0.5090  0.6877
    22 H(1)   Bbb    -0.0002    -0.127    -0.045    -0.042 -0.1771  0.7226 -0.6682
              Bcc     0.0028     1.493     0.533     0.498  0.8370  0.4677  0.2840
 
              Baa    -0.0098    -5.227    -1.865    -1.744  0.5709 -0.5343  0.6234
    23 H(1)   Bbb    -0.0009    -0.503    -0.179    -0.168 -0.4546  0.4266  0.7819
              Bcc     0.0107     5.730     2.045     1.911  0.6837  0.7298 -0.0006
 
              Baa    -0.0324    -4.342    -1.549    -1.448  0.2069  0.8786 -0.4304
    24 C(13)  Bbb     0.0139     1.868     0.666     0.623  0.0825  0.4227  0.9025
              Bcc     0.0184     2.474     0.883     0.825  0.9749 -0.2222  0.0150
 
              Baa    -0.0664    -8.910    -3.179    -2.972  0.6580 -0.5968 -0.4592
    25 C(13)  Bbb    -0.0583    -7.828    -2.793    -2.611  0.6929  0.2412  0.6794
              Bcc     0.1247    16.738     5.973     5.583  0.2947  0.7653 -0.5722
 
              Baa    -0.0664    -8.910    -3.179    -2.972  0.8534  0.2447  0.4602
    26 C(13)  Bbb    -0.0583    -7.829    -2.793    -2.611 -0.5159  0.5229  0.6785
              Bcc     0.1247    16.739     5.973     5.583  0.0747  0.8165 -0.5725
 
              Baa    -0.0552    -7.406    -2.642    -2.470 -0.0988 -0.6212  0.7774
    27 C(13)  Bbb     0.0249     3.338     1.191     1.114  0.2418  0.7428  0.6243
              Bcc     0.0303     4.067     1.451     1.357  0.9653 -0.2496 -0.0768
 
              Baa    -0.0552    -7.408    -2.643    -2.471 -0.1868 -0.6008  0.7772
    28 C(13)  Bbb     0.0249     3.340     1.192     1.114  0.1116  0.7731  0.6244
              Bcc     0.0303     4.068     1.452     1.357  0.9760 -0.2034  0.0774
 
              Baa    -0.0780   -10.466    -3.735    -3.491  0.1820  0.7805  0.5981
    29 C(13)  Bbb    -0.0706    -9.474    -3.380    -3.160  0.9738 -0.2273  0.0003
              Bcc     0.1486    19.940     7.115     6.651 -0.1361 -0.5824  0.8014
 
              Baa    -0.0048    -2.548    -0.909    -0.850  0.4092 -0.5648  0.7166
    30 H(1)   Bbb    -0.0032    -1.705    -0.609    -0.569  0.9114  0.2898 -0.2921
              Bcc     0.0080     4.254     1.518     1.419 -0.0427  0.7727  0.6333
 
              Baa    -0.0048    -2.551    -0.910    -0.851 -0.6173 -0.3251  0.7164
    31 H(1)   Bbb    -0.0032    -1.703    -0.608    -0.568  0.6892 -0.6626  0.2931
              Bcc     0.0080     4.254     1.518     1.419  0.3794  0.6747  0.6331
 
              Baa    -0.0026    -1.365    -0.487    -0.455  0.1821  0.7030 -0.6875
    32 H(1)   Bbb    -0.0002    -0.128    -0.046    -0.043  0.5371  0.5146  0.6684
              Bcc     0.0028     1.493     0.533     0.498  0.8236 -0.4910 -0.2839
 
              Baa    -0.0026    -1.365    -0.487    -0.455  0.1486  0.7105 -0.6878
    33 H(1)   Bbb    -0.0002    -0.128    -0.046    -0.043 -0.2539  0.6996  0.6679
              Bcc     0.0028     1.493     0.533     0.498  0.9558  0.0754  0.2843
 
              Baa    -0.0098    -5.225    -1.865    -1.743  0.1776  0.7616  0.6233
    34 H(1)   Bbb    -0.0009    -0.503    -0.179    -0.168 -0.1418 -0.6070  0.7820
              Bcc     0.0107     5.728     2.044     1.911  0.9738 -0.2272  0.0002
 

 ---------------------------------------------------------------------------------

 No NMR shielding tensors so no spin-rotation constants.
 Leave Link  601 at Sun Jan 17 19:51:52 2021, MaxMem=  4026531840 cpu:               3.0 elap:               0.4
 (Enter /opt/ohpc/pub/libs/gaussian/g16-A.03/sandybridge/g16/l9999.exe)

 Test job not archived.
 1\1\GINC-CASCADEB040\SP\ULC-wHPBE\TZVP\C18H15N1(1+,2)\RDU230\17-Jan-20
 21\0\\#P LC-wHPBE/TZVP iop(3/107=0221900000, 3/108=0221900000) scf=(co
 nver=6,fermi,ndamp=35,noincfock,novaracc,vshift=500,xqc)\\H15 C18 N1\\
 1,2\N,0,0.000022,-0.000126,-0.001279\C,0,0.411521,-1.356839,-0.000484\
 C,0,1.495533,-1.769287,0.781179\C,0,-0.26032,-2.302689,-0.781717\C,0,1
 .901218,-3.097977,0.77159\C,0,0.140608,-3.632811,-0.770872\C,0,1.22528
 2,-4.03895,0.000666\H,0,2.020108,-1.039002,1.394849\H,0,-1.101816,-1.9
 87296,-1.396157\H,0,2.748094,-3.402056,1.385878\H,0,-0.394485,-4.35669
 ,-1.384611\H,0,1.541424,-5.08084,0.001027\C,0,0.969124,1.03471,-0.0004
 88\C,0,2.123037,0.926935,-0.78345\C,0,0.785335,2.178692,0.782922\C,0,3
 .074444,1.939229,-0.772694\C,0,1.733248,3.194302,0.773528\C,0,2.885092
 ,3.080453,0.000886\H,0,2.269922,0.041314,-1.399284\H,0,-0.10857,2.2669
 02,1.398014\H,0,3.967862,1.838651,-1.388087\H,0,1.574087,4.078874,1.38
 9358\H,0,3.629424,3.875076,0.001646\C,0,-1.380731,0.321945,-0.000436\C
 ,0,-2.279686,-0.409002,0.782988\C,0,-1.864017,1.375244,-0.783483\C,0,-
 3.633185,-0.0958,0.773256\C,0,-3.216365,1.693293,-0.772877\C,0,-4.1102
 12,0.958658,0.000466\H,0,-1.909274,-1.227214,1.398174\H,0,-1.170181,1.
 945112,-1.399095\H,0,-4.319851,-0.675761,1.389003\H,0,-3.575887,2.5172
 71,-1.388348\H,0,-5.170565,1.205911,0.000686\\Version=EM64L-G16RevA.03
 \State=2-A\HF=-748.9889918\S2=0.77588\S2-1=0.\S2A=0.750634\RMSD=6.935e
 -07\Dipole=0.0004639,-0.0009711,0.000227\Quadrupole=8.7453635,8.740887
 9,-17.4862514,0.0013495,-0.0003436,0.0002662\PG=C01 [X(C18H15N1)]\\@


 ERWIN WITH HIS PSI CAN DO
 CALCULATIONS QUITE A FEW.
 BUT ONE THING HAS NOT BEEN SEEN
 JUST WHAT DOES PSI REALLY MEAN.
 -- WALTER HUCKEL, TRANS. BY FELIX BLOCH
 Job cpu time:       0 days  0 hours 59 minutes  5.6 seconds.
 Elapsed time:       0 days  0 hours  7 minutes 24.7 seconds.
 File lengths (MBytes):  RWF=    152 Int=      0 D2E=      0 Chk=     20 Scr=      8
 Normal termination of Gaussian 16 at Sun Jan 17 19:51:52 2021.
