 Entering Gaussian System, Link 0=g16
 Input=mol_NN_pa_frag_tune_n4.gjf
 Output=mol_NN_pa_frag_tune_n4.log
 Initial command:
 /opt/ohpc/pub/libs/gaussian/g16-A.03/sandybridge/g16/l1.exe "/mnt/gpfs2_4m/scratch/rdu230/ondemand/projects/init_structures/wtuning/mol_NN_pa_frag/tuning_mol_NN_pa_frag_ocycle0/Gau-318263.inp" -scrdir="/mnt/gpfs2_4m/scratch/rdu230/ondemand/projects/init_structures/wtuning/mol_NN_pa_frag/tuning_mol_NN_pa_frag_ocycle0/"
 Entering Link 1 = /opt/ohpc/pub/libs/gaussian/g16-A.03/sandybridge/g16/l1.exe PID=    318264.
  
 Copyright (c) 1988,1990,1992,1993,1995,1998,2003,2009,2016,
            Gaussian, Inc.  All Rights Reserved.
  
 This is part of the Gaussian(R) 16 program.  It is based on
 the Gaussian(R) 09 system (copyright 2009, Gaussian, Inc.),
 the Gaussian(R) 03 system (copyright 2003, Gaussian, Inc.),
 the Gaussian(R) 98 system (copyright 1998, Gaussian, Inc.),
 the Gaussian(R) 94 system (copyright 1995, Gaussian, Inc.),
 the Gaussian 92(TM) system (copyright 1992, Gaussian, Inc.),
 the Gaussian 90(TM) system (copyright 1990, Gaussian, Inc.),
 the Gaussian 88(TM) system (copyright 1988, Gaussian, Inc.),
 the Gaussian 86(TM) system (copyright 1986, Carnegie Mellon
 University), and the Gaussian 82(TM) system (copyright 1983,
 Carnegie Mellon University). Gaussian is a federally registered
 trademark of Gaussian, Inc.
  
 This software contains proprietary and confidential information,
 including trade secrets, belonging to Gaussian, Inc.
  
 This software is provided under written license and may be
 used, copied, transmitted, or stored only in accord with that
 written license.
  
 The following legend is applicable only to US Government
 contracts under FAR:
  
                    RESTRICTED RIGHTS LEGEND
  
 Use, reproduction and disclosure by the US Government is
 subject to restrictions as set forth in subparagraphs (a)
 and (c) of the Commercial Computer Software - Restricted
 Rights clause in FAR 52.227-19.
  
 Gaussian, Inc.
 340 Quinnipiac St., Bldg. 40, Wallingford CT 06492
  
  
 ---------------------------------------------------------------
 Warning -- This program may not be used in any manner that
 competes with the business of Gaussian, Inc. or will provide
 assistance to any competitor of Gaussian, Inc.  The licensee
 of this program is prohibited from giving any competitor of
 Gaussian, Inc. access to this program.  By using this program,
 the user acknowledges that Gaussian, Inc. is engaged in the
 business of creating and licensing software in the field of
 computational chemistry and represents and warrants to the
 licensee that it is not a competitor of Gaussian, Inc. and that
 it will not use this program in any manner prohibited above.
 ---------------------------------------------------------------
  

 Cite this work as:
 Gaussian 16, Revision A.03,
 M. J. Frisch, G. W. Trucks, H. B. Schlegel, G. E. Scuseria, 
 M. A. Robb, J. R. Cheeseman, G. Scalmani, V. Barone, 
 G. A. Petersson, H. Nakatsuji, X. Li, M. Caricato, A. V. Marenich, 
 J. Bloino, B. G. Janesko, R. Gomperts, B. Mennucci, H. P. Hratchian, 
 J. V. Ortiz, A. F. Izmaylov, J. L. Sonnenberg, D. Williams-Young, 
 F. Ding, F. Lipparini, F. Egidi, J. Goings, B. Peng, A. Petrone, 
 T. Henderson, D. Ranasinghe, V. G. Zakrzewski, J. Gao, N. Rega, 
 G. Zheng, W. Liang, M. Hada, M. Ehara, K. Toyota, R. Fukuda, 
 J. Hasegawa, M. Ishida, T. Nakajima, Y. Honda, O. Kitao, H. Nakai, 
 T. Vreven, K. Throssell, J. A. Montgomery, Jr., J. E. Peralta, 
 F. Ogliaro, M. J. Bearpark, J. J. Heyd, E. N. Brothers, K. N. Kudin, 
 V. N. Staroverov, T. A. Keith, R. Kobayashi, J. Normand, 
 K. Raghavachari, A. P. Rendell, J. C. Burant, S. S. Iyengar, 
 J. Tomasi, M. Cossi, J. M. Millam, M. Klene, C. Adamo, R. Cammi, 
 J. W. Ochterski, R. L. Martin, K. Morokuma, O. Farkas, 
 J. B. Foresman, and D. J. Fox, Gaussian, Inc., Wallingford CT, 2016.
 
 ******************************************
 Gaussian 16:  EM64L-G16RevA.03 25-Dec-2016
                17-Jan-2021 
 ******************************************
 %mem=30GB
 %nproc=8
 Will use up to    8 processors via shared memory.
 ----------------------------------------------------------------------
 #P LC-wHPBE/TZVP iop(3/107=0198000000, 3/108=0198000000) scf=(conver=6
 ,fermi,ndamp=35,noincfock,novaracc,vshift=500,xqc)
 ----------------------------------------------------------------------
 1/38=1,172=1/1;
 2/12=2,17=6,18=5,40=1/2;
 3/5=19,7=101,11=2,25=1,30=1,74=-71,107=198000000,108=198000000/1,2,3;
 4//1;
 5/5=100002,6=6,8=3,10=500,13=1,18=-1,22=13,38=1,93=35/2,8;
 6/7=2,8=2,9=2,10=2,28=1/1;
 99/5=1,9=1/99;
 Leave Link    1 at Sun Jan 17 20:27:51 2021, MaxMem=  4026531840 cpu:               1.1 elap:               0.2
 (Enter /opt/ohpc/pub/libs/gaussian/g16-A.03/sandybridge/g16/l101.exe)
 ----------
 H15 C18 N1
 ----------
 Symbolic Z-matrix:
 Charge =  0 Multiplicity = 1
 N                     0.00002  -0.00013  -0.00128 
 C                     0.41152  -1.35684  -0.00048 
 C                     1.49553  -1.76929   0.78118 
 C                    -0.26032  -2.30269  -0.78172 
 C                     1.90122  -3.09798   0.77159 
 C                     0.14061  -3.63281  -0.77087 
 C                     1.22528  -4.03895   0.00067 
 H                     2.02011  -1.039     1.39485 
 H                    -1.10182  -1.9873   -1.39616 
 H                     2.74809  -3.40206   1.38588 
 H                    -0.39449  -4.35669  -1.38461 
 H                     1.54142  -5.08084   0.00103 
 C                     0.96912   1.03471  -0.00049 
 C                     2.12304   0.92694  -0.78345 
 C                     0.78534   2.17869   0.78292 
 C                     3.07444   1.93923  -0.77269 
 C                     1.73325   3.1943    0.77353 
 C                     2.88509   3.08045   0.00089 
 H                     2.26992   0.04131  -1.39928 
 H                    -0.10857   2.2669    1.39801 
 H                     3.96786   1.83865  -1.38809 
 H                     1.57409   4.07887   1.38936 
 H                     3.62942   3.87508   0.00165 
 C                    -1.38073   0.32195  -0.00044 
 C                    -2.27969  -0.409     0.78299 
 C                    -1.86402   1.37524  -0.78348 
 C                    -3.63319  -0.0958    0.77326 
 C                    -3.21637   1.69329  -0.77288 
 C                    -4.11021   0.95866   0.00047 
 H                    -1.90927  -1.22721   1.39817 
 H                    -1.17018   1.94511  -1.3991 
 H                    -4.31985  -0.67576   1.389 
 H                    -3.57589   2.51727  -1.38835 
 H                    -5.17056   1.20591   0.00069 
 
 ITRead=  0  0  0  0  0  0  0  0  0  0  0  0  0  0  0  0  0  0  0  0
 ITRead=  0  0  0  0  0  0  0  0  0  0  0  0  0  0
 MicOpt= -1 -1 -1 -1 -1 -1 -1 -1 -1 -1 -1 -1 -1 -1 -1 -1 -1 -1 -1 -1
 MicOpt= -1 -1 -1 -1 -1 -1 -1 -1 -1 -1 -1 -1 -1 -1
 NAtoms=     34 NQM=       34 NQMF=       0 NMMI=      0 NMMIF=      0
                NMic=       0 NMicF=      0.
                    Isotopes and Nuclear Properties:
 (Nuclear quadrupole moments (NQMom) in fm**2, nuclear magnetic moments (NMagM)
  in nuclear magnetons)

  Atom         1           2           3           4           5           6           7           8           9          10
 IAtWgt=          14          12          12          12          12          12          12           1           1           1
 AtmWgt=  14.0030740  12.0000000  12.0000000  12.0000000  12.0000000  12.0000000  12.0000000   1.0078250   1.0078250   1.0078250
 NucSpn=           2           0           0           0           0           0           0           1           1           1
 AtZEff=  -0.0000000  -0.0000000  -0.0000000  -0.0000000  -0.0000000  -0.0000000  -0.0000000  -0.0000000  -0.0000000  -0.0000000
 NQMom=    2.0440000   0.0000000   0.0000000   0.0000000   0.0000000   0.0000000   0.0000000   0.0000000   0.0000000   0.0000000
 NMagM=    0.4037610   0.0000000   0.0000000   0.0000000   0.0000000   0.0000000   0.0000000   2.7928460   2.7928460   2.7928460
 AtZNuc=   7.0000000   6.0000000   6.0000000   6.0000000   6.0000000   6.0000000   6.0000000   1.0000000   1.0000000   1.0000000

  Atom        11          12          13          14          15          16          17          18          19          20
 IAtWgt=           1           1          12          12          12          12          12          12           1           1
 AtmWgt=   1.0078250   1.0078250  12.0000000  12.0000000  12.0000000  12.0000000  12.0000000  12.0000000   1.0078250   1.0078250
 NucSpn=           1           1           0           0           0           0           0           0           1           1
 AtZEff=  -0.0000000  -0.0000000  -0.0000000  -0.0000000  -0.0000000  -0.0000000  -0.0000000  -0.0000000  -0.0000000  -0.0000000
 NQMom=    0.0000000   0.0000000   0.0000000   0.0000000   0.0000000   0.0000000   0.0000000   0.0000000   0.0000000   0.0000000
 NMagM=    2.7928460   2.7928460   0.0000000   0.0000000   0.0000000   0.0000000   0.0000000   0.0000000   2.7928460   2.7928460
 AtZNuc=   1.0000000   1.0000000   6.0000000   6.0000000   6.0000000   6.0000000   6.0000000   6.0000000   1.0000000   1.0000000

  Atom        21          22          23          24          25          26          27          28          29          30
 IAtWgt=           1           1           1          12          12          12          12          12          12           1
 AtmWgt=   1.0078250   1.0078250   1.0078250  12.0000000  12.0000000  12.0000000  12.0000000  12.0000000  12.0000000   1.0078250
 NucSpn=           1           1           1           0           0           0           0           0           0           1
 AtZEff=  -0.0000000  -0.0000000  -0.0000000  -0.0000000  -0.0000000  -0.0000000  -0.0000000  -0.0000000  -0.0000000  -0.0000000
 NQMom=    0.0000000   0.0000000   0.0000000   0.0000000   0.0000000   0.0000000   0.0000000   0.0000000   0.0000000   0.0000000
 NMagM=    2.7928460   2.7928460   2.7928460   0.0000000   0.0000000   0.0000000   0.0000000   0.0000000   0.0000000   2.7928460
 AtZNuc=   1.0000000   1.0000000   1.0000000   6.0000000   6.0000000   6.0000000   6.0000000   6.0000000   6.0000000   1.0000000

  Atom        31          32          33          34
 IAtWgt=           1           1           1           1
 AtmWgt=   1.0078250   1.0078250   1.0078250   1.0078250
 NucSpn=           1           1           1           1
 AtZEff=  -0.0000000  -0.0000000  -0.0000000  -0.0000000
 NQMom=    0.0000000   0.0000000   0.0000000   0.0000000
 NMagM=    2.7928460   2.7928460   2.7928460   2.7928460
 AtZNuc=   1.0000000   1.0000000   1.0000000   1.0000000
 Leave Link  101 at Sun Jan 17 20:27:51 2021, MaxMem=  4026531840 cpu:               0.7 elap:               0.1
 (Enter /opt/ohpc/pub/libs/gaussian/g16-A.03/sandybridge/g16/l202.exe)
                          Input orientation:                          
 ---------------------------------------------------------------------
 Center     Atomic      Atomic             Coordinates (Angstroms)
 Number     Number       Type             X           Y           Z
 ---------------------------------------------------------------------
      1          7           0        0.000022   -0.000126   -0.001279
      2          6           0        0.411521   -1.356839   -0.000484
      3          6           0        1.495533   -1.769287    0.781179
      4          6           0       -0.260320   -2.302689   -0.781717
      5          6           0        1.901218   -3.097977    0.771590
      6          6           0        0.140608   -3.632811   -0.770872
      7          6           0        1.225282   -4.038950    0.000666
      8          1           0        2.020108   -1.039002    1.394849
      9          1           0       -1.101816   -1.987296   -1.396157
     10          1           0        2.748094   -3.402056    1.385878
     11          1           0       -0.394485   -4.356690   -1.384611
     12          1           0        1.541424   -5.080840    0.001027
     13          6           0        0.969124    1.034710   -0.000488
     14          6           0        2.123037    0.926935   -0.783450
     15          6           0        0.785335    2.178692    0.782922
     16          6           0        3.074444    1.939229   -0.772694
     17          6           0        1.733248    3.194302    0.773528
     18          6           0        2.885092    3.080453    0.000886
     19          1           0        2.269922    0.041314   -1.399284
     20          1           0       -0.108570    2.266902    1.398014
     21          1           0        3.967862    1.838651   -1.388087
     22          1           0        1.574087    4.078874    1.389358
     23          1           0        3.629424    3.875076    0.001646
     24          6           0       -1.380731    0.321945   -0.000436
     25          6           0       -2.279686   -0.409002    0.782988
     26          6           0       -1.864017    1.375244   -0.783483
     27          6           0       -3.633185   -0.095800    0.773256
     28          6           0       -3.216365    1.693293   -0.772877
     29          6           0       -4.110212    0.958658    0.000466
     30          1           0       -1.909274   -1.227214    1.398174
     31          1           0       -1.170181    1.945112   -1.399095
     32          1           0       -4.319851   -0.675761    1.389003
     33          1           0       -3.575887    2.517271   -1.388348
     34          1           0       -5.170565    1.205911    0.000686
 ---------------------------------------------------------------------
                    Distance matrix (angstroms):
                    1          2          3          4          5
     1  N    0.000000
     2  C    1.417745   0.000000
     3  C    2.445143   1.398639   0.000000
     4  C    2.445129   1.398688   2.410432   0.000000
     5  C    3.715986   2.418027   1.389277   2.778037   0.000000
     6  C    3.715971   2.418045   2.778022   1.389275   2.401038
     7  C    4.220588   2.802843   2.415286   2.415313   1.391633
     8  H    2.666305   2.153027   1.088617   3.396277   2.154522
     9  H    2.666191   2.153037   3.396254   1.088634   3.866646
    10  H    4.587944   3.400660   2.144879   3.867510   1.089501
    11  H    4.587907   3.400670   3.867489   2.144855   3.391727
    12  H    5.309386   3.891641   3.402518   3.402513   2.157537
    13  C    1.417761   2.455693   2.958126   3.641440   4.306275
    14  C    2.445082   2.959383   3.179849   4.013834   4.320564
    15  C    2.445186   3.640528   4.011349   4.860480   5.393381
    16  C    3.715945   4.307149   4.319788   5.395795   5.397658
    17  C    3.716015   4.801973   4.969284   6.050621   6.294521
    18  C    4.220616   5.080169   5.104871   6.283654   6.303570
    19  H    2.666192   2.713877   2.938090   3.503978   3.834551
    20  H    2.666314   3.918902   4.386850   5.065118   5.763123
    21  H    4.587820   4.978369   4.882145   5.949446   5.771093
    22  H    4.588005   5.729764   5.880224   6.985912   7.210814
    23  H    5.309403   6.142299   6.084406   7.342244   7.225163
    24  C    1.417818   2.455704   3.641026   2.958788   4.802404
    25  C    2.445265   2.958854   4.012812   3.179967   4.970983
    26  C    2.445021   3.640802   4.860331   4.012361   6.050203
    27  C    3.716080   4.306802   5.394847   4.320245   6.296244
    28  C    3.715936   4.802234   6.050333   4.970528   7.178531
    29  C    4.220580   5.080118   6.282959   5.105866   7.293025
    30  H    2.666388   2.712773   3.502462   2.937281   4.290945
    31  H    2.665936   3.919282   5.065213   4.387803   6.291114
    32  H    4.588101   4.977994   5.948440   4.882490   6.704478
    33  H    4.587851   5.730124   6.985752   5.881581   8.136032
    34  H    5.309378   6.142261   7.341514   6.085469   8.314317
                    6          7          8          9         10
     6  C    0.000000
     7  C    1.391667   0.000000
     8  H    3.866615   3.402232   0.000000
     9  H    2.154604   3.402320   4.293645   0.000000
    10  H    3.391725   2.154856   2.472664   4.956115   0.000000
    11  H    1.089496   2.154901   4.956078   2.472747   4.296829
    12  H    2.157522   1.088798   4.302131   4.302192   2.488409
    13  C    4.802675   5.080122   2.711423   3.920358   4.977111
    14  C    4.972069   5.106938   2.936067   4.389514   4.882299
    15  C    6.050084   6.282082   3.500382   5.066081   5.946489
    16  C    6.297224   6.305245   3.831413   5.766060   5.770205
    17  C    7.178520   7.292138   4.288262   6.292383   6.702001
    18  C    7.293539   7.310326   4.434100   6.597670   6.630226
    19  H    4.292793   4.438433   3.006105   3.934957   4.454500
    20  H    6.290689   6.595113   3.931956   5.185762   6.348052
    21  H    6.705649   6.632991   4.451895   6.351344   6.053737
    22  H    8.135818   8.243130   5.137277   7.191521   7.572491
    23  H    8.314866   8.271137   5.355285   7.661977   7.459859
    24  C    4.306755   5.080227   3.919784   2.712642   5.730379
    25  C    4.320330   5.106207   4.388565   2.937186   5.882212
    26  C    5.394376   6.282687   5.065584   3.501856   6.985720
    27  C    5.397804   6.304762   5.765044   3.833007   7.212999
    28  C    6.295765   7.292819   6.291671   4.290283   8.136189
    29  C    6.304445   7.310512   6.596649   4.436175   8.244486
    30  H    3.833233   4.436703   3.933888   3.006326   5.140152
    31  H    5.764205   6.595951   5.185461   3.933003   7.190352
    32  H    5.771040   6.632271   6.350359   4.453424   7.575522
    33  H    7.212290   8.244066   7.190857   5.139281   9.095466
    34  H    7.226139   8.271362   7.660881   5.357468   9.265920
                   11         12         13         14         15
    11  H    0.000000
    12  H    2.488399   0.000000
    13  C    5.730831   6.142270   0.000000
    14  C    5.883537   6.086628   1.398628   0.000000
    15  C    6.985799   7.340561   1.398644   2.410366   0.000000
    16  C    7.214327   7.227044   2.418022   1.389255   2.778004
    17  C    8.136479   8.313334   2.418021   2.777961   1.389277
    18  C    8.245382   8.271164   2.802856   2.415274   2.415312
    19  H    5.142151   5.359855   2.153031   1.088647   3.396234
    20  H    7.190043   7.659201   2.153028   3.396228   1.088662
    21  H    7.577093   7.463015   3.400615   2.144806   3.867478
    22  H    9.095544   9.264388   3.400674   3.867449   2.144898
    23  H    9.266905   9.196096   3.891642   3.402516   3.402492
    24  C    4.977775   6.142400   2.455576   3.640812   2.958547
    25  C    4.882285   6.085919   3.640454   4.860291   4.011298
    26  C    5.947768   7.341220   2.959009   4.012179   3.180915
    27  C    5.770680   7.226586   4.801873   6.050075   4.969580
    28  C    6.703694   8.314106   4.306813   5.394129   4.320848
    29  C    6.631590   8.271428   5.079905   6.282430   5.105595
    30  H    4.453324   5.358150   3.918894   5.065508   4.386302
    31  H    6.349380   7.660101   2.713219   3.501569   2.939354
    32  H    6.053980   7.462288   5.729717   6.985628   5.880320
    33  H    7.574475   9.265448   4.978079   5.947504   4.883575
    34  H    7.461402   9.196414   6.142076   7.340935   6.085305
                   16         17         18         19         20
    16  C    0.000000
    17  C    2.401003   0.000000
    18  C    1.391644   1.391647   0.000000
    19  H    2.154519   3.866583   3.402246   0.000000
    20  H    3.866642   2.154611   3.402329   4.293640   0.000000
    21  H    1.089505   3.391735   2.154927   2.472559   4.956113
    22  H    3.391699   1.089517   2.154863   4.956067   2.472782
    23  H    2.157570   2.157484   1.088787   4.302160   4.302170
    24  C    4.802143   4.306544   5.080021   3.919540   2.712363
    25  C    6.049880   5.393286   6.281951   5.065968   3.500352
    26  C    4.970573   4.321293   5.106565   4.387258   2.938635
    27  C    7.177994   6.294710   7.291987   6.291693   4.289009
    28  C    6.295615   5.398432   6.304816   5.763746   3.834082
    29  C    7.292364   6.304106   7.310013   6.595978   4.435965
    30  H    6.290984   5.762634   6.595025   5.186580   3.930825
    31  H    4.290601   3.835449   4.437813   3.931762   3.009051
    32  H    8.135521   7.210839   8.243010   7.191234   5.137532
    33  H    6.703735   5.772261   6.632601   6.348540   4.455198
    34  H    8.313606   7.225899   8.270884   7.660095   5.357427
                   21         22         23         24         25
    21  H    0.000000
    22  H    4.296854   0.000000
    23  H    2.488559   2.488310   0.000000
    24  C    5.730045   4.977649   6.142182   0.000000
    25  C    6.985511   5.946451   7.340395   1.398627   0.000000
    26  C    5.881420   4.883791   6.086336   1.398630   2.410424
    27  C    8.135688   6.702475   8.313166   2.417987   1.389298
    28  C    7.211985   5.771888   7.226679   2.418018   2.778080
    29  C    8.243649   6.631442   8.270880   2.802761   2.415297
    30  H    7.190515   6.347318   7.659036   2.152989   1.088637
    31  H    5.139158   4.456391   5.359388   2.152963   3.396224
    32  H    9.095091   7.572652   9.264224   3.400645   2.144921
    33  H    7.574211   6.056112   7.462722   3.400657   3.867546
    34  H    9.264982   7.461411   9.195882   3.891560   3.402517
                   26         27         28         29         30
    26  C    0.000000
    27  C    2.778014   0.000000
    28  C    1.389285   2.401066   0.000000
    29  C    2.415266   1.391632   1.391657   0.000000
    30  H    3.396242   2.154644   3.866692   3.402316   0.000000
    31  H    1.088640   3.866629   2.154630   3.402300   4.293556
    32  H    3.867485   1.089500   3.391729   2.154834   2.472866
    33  H    2.144898   3.391748   1.089495   2.154897   4.956155
    34  H    3.402478   2.157511   2.157507   1.088799   4.302219
                   31         32         33         34
    31  H    0.000000
    32  H    4.956096   0.000000
    33  H    2.472833   4.296814   0.000000
    34  H    4.302194   2.488338   2.488389   0.000000
 Stoichiometry    C18H15N
 Framework group  C1[X(C18H15N)]
 Deg. of freedom    96
 Full point group                 C1      NOp   1
 Largest Abelian subgroup         C1      NOp   1
 Largest concise Abelian subgroup C1      NOp   1
                         Standard orientation:                         
 ---------------------------------------------------------------------
 Center     Atomic      Atomic             Coordinates (Angstroms)
 Number     Number       Type             X           Y           Z
 ---------------------------------------------------------------------
      1          7           0       -0.000022    0.000126   -0.001279
      2          6           0       -0.411410    1.356873   -0.000484
      3          6           0       -1.495388    1.769410    0.781179
      4          6           0        0.260509    2.302668   -0.781717
      5          6           0       -1.900964    3.098133    0.771590
      6          6           0       -0.140310    3.632823   -0.770872
      7          6           0       -1.224951    4.039050    0.000666
      8          1           0       -2.020023    1.039168    1.394849
      9          1           0        1.101979    1.987206   -1.396157
     10          1           0       -2.747815    3.402281    1.385878
     11          1           0        0.394842    4.356658   -1.384611
     12          1           0       -1.541008    5.080966    0.001027
     13          6           0       -0.969209   -1.034631   -0.000488
     14          6           0       -2.123113   -0.926761   -0.783450
     15          6           0       -0.785513   -2.178628    0.782922
     16          6           0       -3.074603   -1.938977   -0.772694
     17          6           0       -1.733510   -3.194160    0.773528
     18          6           0       -2.885344   -3.080217    0.000886
     19          1           0       -2.269925   -0.041128   -1.399284
     20          1           0        0.108384   -2.266911    1.398014
     21          1           0       -3.968013   -1.838326   -1.388087
     22          1           0       -1.574421   -4.078745    1.389358
     23          1           0       -3.629741   -3.874779    0.001646
     24          6           0        1.380705   -0.322058   -0.000436
     25          6           0        2.279720    0.408815    0.782988
     26          6           0        1.863904   -1.375397   -0.783483
     27          6           0        3.633193    0.095502    0.773256
     28          6           0        3.216226   -1.693556   -0.772877
     29          6           0        4.110133   -0.958995    0.000466
     30          1           0        1.909375    1.227058    1.398174
     31          1           0        1.170022   -1.945208   -1.399095
     32          1           0        4.319906    0.675407    1.389003
     33          1           0        3.575681   -2.517564   -1.388348
     34          1           0        5.170466   -1.206335    0.000686
 ---------------------------------------------------------------------
 Rotational constants (GHZ):           0.4036067           0.4035965           0.2213359
 Leave Link  202 at Sun Jan 17 20:27:51 2021, MaxMem=  4026531840 cpu:               0.2 elap:               0.0
 (Enter /opt/ohpc/pub/libs/gaussian/g16-A.03/sandybridge/g16/l301.exe)
 Standard basis: TZVP (5D, 7F)
 Ernie: Thresh=  0.10000D-02 Tol=  0.10000D-05 Strict=F.
 There are   470 symmetry adapted cartesian basis functions of A   symmetry.
 There are   451 symmetry adapted basis functions of A   symmetry.
   451 basis functions,   785 primitive gaussians,   470 cartesian basis functions
    65 alpha electrons       65 beta electrons
       nuclear repulsion energy      1298.2205480218 Hartrees.
 IExCor=33909 DFT=T Ex+Corr=LC-wHPBE ExCW=0 ScaHFX=  1.000000
 ScaDFX=  1.000000  1.000000  1.000000  1.000000 ScalE2=  1.000000  1.000000
 IRadAn=      5 IRanWt=     -1 IRanGd=            0 ICorTp=0 IEmpDi=  4
 HFx  wShort=  0.000000 wLong=  0.198000 cFull=  0.000000 cShort=  0.000000 cLong=  1.000000
 DFx  wShort=  0.000000 wLong=  0.198000 cFull=  0.000000 cShort=  1.000000 cLong=  0.000000
 NAtoms=   34 NActive=   34 NUniq=   34 SFac= 1.00D+00 NAtFMM=   60 NAOKFM=F Big=F
 Integral buffers will be    131072 words long.
 Raffenetti 2 integral format.
 Two-electron integral symmetry is turned on.
 Leave Link  301 at Sun Jan 17 20:27:51 2021, MaxMem=  4026531840 cpu:               0.4 elap:               0.1
 (Enter /opt/ohpc/pub/libs/gaussian/g16-A.03/sandybridge/g16/l302.exe)
 NPDir=0 NMtPBC=     1 NCelOv=     1 NCel=       1 NClECP=     1 NCelD=      1
         NCelK=      1 NCelE2=     1 NClLst=     1 CellRange=     0.0.
 One-electron integrals computed using PRISM.
 One-electron integral symmetry used in STVInt
 NBasis=   451 RedAO= T EigKep=  8.44D-06  NBF=   451
 NBsUse=   451 1.00D-06 EigRej= -1.00D+00 NBFU=   451
 Precomputing XC quadrature grid using
 IXCGrd= 4 IRadAn=           5 IRanWt=          -1 IRanGd=           0 AccXCQ= 0.00D+00.
 Generated NRdTot=       0 NPtTot=           0 NUsed=           0 NTot=          32
 NSgBfM=   462   462   462   462   462 MxSgAt=    34 MxSgA2=    34.
 Leave Link  302 at Sun Jan 17 20:27:52 2021, MaxMem=  4026531840 cpu:               5.1 elap:               0.7
 (Enter /opt/ohpc/pub/libs/gaussian/g16-A.03/sandybridge/g16/l303.exe)
 DipDrv:  MaxL=1.
 Leave Link  303 at Sun Jan 17 20:27:52 2021, MaxMem=  4026531840 cpu:               0.7 elap:               0.1
 (Enter /opt/ohpc/pub/libs/gaussian/g16-A.03/sandybridge/g16/l401.exe)
 ExpMin= 9.52D-02 ExpMax= 1.97D+04 ExpMxC= 6.73D+02 IAcc=3 IRadAn=         5 AccDes= 0.00D+00
 Harris functional with IExCor=33909 and IRadAn=       5 diagonalized for initial guess.
 HarFok:  IExCor=33909 AccDes= 0.00D+00 IRadAn=         5 IDoV= 1 UseB2=F ITyADJ=14
 ICtDFT=  3500011 ScaDFX=  1.000000  1.000000  1.000000  1.000000
 FoFCou: FMM=F IPFlag=           0 FMFlag=      100000 FMFlg1=           0
         NFxFlg=           0 DoJE=T BraDBF=F KetDBF=T FulRan=T
         wScrn=  0.000000 ICntrl=       500 IOpCl=  0 I1Cent=   200000004 NGrid=           0
         NMat0=    1 NMatS0=      1 NMatT0=    0 NMatD0=    1 NMtDS0=    0 NMtDT0=    0
 Petite list used in FoFCou.
 Harris En= -735.577951279315    
 JPrj=0 DoOrth=F DoCkMO=F.
 Leave Link  401 at Sun Jan 17 20:27:56 2021, MaxMem=  4026531840 cpu:              28.6 elap:               3.6
 (Enter /opt/ohpc/pub/libs/gaussian/g16-A.03/sandybridge/g16/l502.exe)
 Integral symmetry usage will be decided dynamically.
 Closed shell SCF:
 Using DIIS extrapolation, IDIIS=    10.
 NGot=  4026531840 LenX=  4026081620 LenY=  4025860250
 Requested convergence on RMS density matrix=1.00D-06 within  32 cycles.
 Requested convergence on MAX density matrix=1.00D-04.
 Requested convergence on             energy=1.00D-04.
 Virtual orbitals will be shifted by   0.500 hartree.
 No special actions if energy rises.
 Dynamic level shift is on during FON iterations.

 Cycle   1  Pass 1  IDiag  1:
 FoFJK:  IHMeth= 1 ICntrl=       0 DoSepK=T KAlg= 0 I1Cent=           0 FoldK=F
 IRaf=         1 NMat=       1 IRICut=       1 DoRegI=T DoRafI=F ISym2E= 0 IDoP0=0 IntGTp=1.
 FoFCou: FMM=F IPFlag=           0 FMFlag=      100000 FMFlg1=           0
         NFxFlg=           0 DoJE=T BraDBF=F KetDBF=F FulRan=T
         wScrn=  0.000000 ICntrl=       500 IOpCl=  0 I1Cent=           0 NGrid=           0
         NMat0=    1 NMatS0=      1 NMatT0=    0 NMatD0=    1 NMtDS0=    0 NMtDT0=    0
 Symmetry not used in FoFCou.
 E= -748.878933225715    
 DIIS: error= 3.50D-02 at cycle   1 NSaved=   1.
 NSaved= 1 IEnMin= 1 EnMin= -748.878933225715     IErMin= 1 ErrMin= 3.50D-02
 ErrMax= 3.50D-02  0.00D+00 EMaxC= 1.00D+00 BMatC= 3.27D-01 BMatP= 3.27D-01
 IDIUse=1 WtCom= 1.00D+00 WtEn= 0.00D+00
 Coeff-Com:  0.100D+01
 Coeff:      0.100D+01
 Gap=     0.324 Goal=   None    Shift=    0.500
 T= 1589. Gap= 0.769 NK=0 IS=   66 IE=  451 IFin=   65
          NO(<0.9)=   0  NV(>0.1)=   0     65.00e < EF      0.00e >EF  Err=0.0D+00
 GapD=    0.324 DampG=1.000 DampE=0.500 DampFc=0.5000 IDamp=-1.
 Damping current iteration by 5.00D-01
 RMSDP=2.34D-03 MaxDP=6.04D-02              OVMax= 8.53D-02

 Cycle   2  Pass 1  IDiag  1:
 E= -749.086091753793     Delta-E=       -0.207158528078 Rises=F Damp=T
 DIIS: error= 1.62D-02 at cycle   2 NSaved=   2.
 NSaved= 2 IEnMin= 2 EnMin= -749.086091753793     IErMin= 2 ErrMin= 1.62D-02
 ErrMax= 1.62D-02  0.00D+00 EMaxC= 1.00D+00 BMatC= 5.56D-02 BMatP= 3.27D-01
 IDIUse=1 WtCom= 1.00D+00 WtEn= 0.00D+00
 Coeff-Com: -0.555D+00 0.156D+01
 Coeff:     -0.555D+00 0.156D+01
 Gap=     0.294 Goal=   None    Shift=    0.500
 T= 1470. Gap= 0.763 NK=0 IS=   66 IE=  451 IFin=   65
          NO(<0.9)=   0  NV(>0.1)=   0     65.00e < EF      0.00e >EF  Err=0.0D+00
 GapD=    0.294 DampG=1.000 DampE=0.500 DampFc=0.5000 IDamp=-1.
 Damping current iteration by 5.00D-01
 RMSDP=1.47D-03 MaxDP=5.06D-02 DE=-2.07D-01 OVMax= 1.89D-02

 Cycle   3  Pass 1  IDiag  1:
 E= -749.156788569715     Delta-E=       -0.070696815922 Rises=F Damp=T
 DIIS: error= 7.39D-03 at cycle   3 NSaved=   3.
 NSaved= 3 IEnMin= 3 EnMin= -749.156788569715     IErMin= 3 ErrMin= 7.39D-03
 ErrMax= 7.39D-03  0.00D+00 EMaxC= 1.00D+00 BMatC= 1.06D-02 BMatP= 5.56D-02
 IDIUse=1 WtCom= 1.00D+00 WtEn= 0.00D+00
 Coeff-Com:  0.509D-01-0.874D+00 0.182D+01
 Coeff:      0.509D-01-0.874D+00 0.182D+01
 Gap=     0.282 Goal=   None    Shift=    0.500
 T= 1239. Gap= 0.780 NK=0 IS=   66 IE=  451 IFin=   65
          NO(<0.9)=   0  NV(>0.1)=   0     65.00e < EF      0.00e >EF  Err=0.0D+00
 GapD=    0.282 DampG=1.000 DampE=1.000 DampFc=1.0000 IDamp=-1.
 RMSDP=7.90D-04 MaxDP=2.72D-02 DE=-7.07D-02 OVMax= 1.09D-02

 Cycle   4  Pass 1  IDiag  1:
 E= -749.215529022809     Delta-E=       -0.058740453094 Rises=F Damp=F
 DIIS: error= 1.17D-03 at cycle   4 NSaved=   4.
 NSaved= 4 IEnMin= 4 EnMin= -749.215529022809     IErMin= 4 ErrMin= 1.17D-03
 ErrMax= 1.17D-03  0.00D+00 EMaxC= 1.00D+00 BMatC= 4.75D-04 BMatP= 1.06D-02
 IDIUse=1 WtCom= 1.00D+00 WtEn= 0.00D+00
 Coeff-Com:  0.806D-01-0.232D+00 0.212D+00 0.939D+00
 Coeff:      0.806D-01-0.232D+00 0.212D+00 0.939D+00
 Gap=     0.277 Goal=   None    Shift=    0.500
 T=  722. Gap= 0.777 NK=0 IS=   66 IE=  451 IFin=   65
          NO(<0.9)=   0  NV(>0.1)=   0     65.00e < EF      0.00e >EF  Err=0.0D+00
 GapD=    0.277 DampG=1.000 DampE=1.000 DampFc=1.0000 IDamp=-1.
 RMSDP=1.68D-04 MaxDP=2.73D-03 DE=-5.87D-02 OVMax= 5.33D-03

 Cycle   5  Pass 1  IDiag  1:
 E= -749.216042885813     Delta-E=       -0.000513863005 Rises=F Damp=F
 DIIS: error= 1.00D-03 at cycle   5 NSaved=   5.
 NSaved= 5 IEnMin= 5 EnMin= -749.216042885813     IErMin= 5 ErrMin= 1.00D-03
 ErrMax= 1.00D-03  0.00D+00 EMaxC= 1.00D+00 BMatC= 7.27D-05 BMatP= 4.75D-04
 IDIUse=1 WtCom= 1.00D+00 WtEn= 0.00D+00
 Coeff-Com:  0.158D-01 0.133D-02-0.696D-01-0.208D+00 0.126D+01
 Coeff:      0.158D-01 0.133D-02-0.696D-01-0.208D+00 0.126D+01
 Gap=     0.277 Goal=   None    Shift=    0.500
 T=  151. Gap= 0.777 NK=0 IS=   66 IE=  451 IFin=   65
          NO(<0.9)=   0  NV(>0.1)=   0     65.00e < EF      0.00e >EF  Err=0.0D+00
 GapD=    0.277 DampG=1.000 DampE=1.000 DampFc=1.0000 IDamp=-1.
 RMSDP=1.31D-04 MaxDP=2.59D-03 DE=-5.14D-04 OVMax= 4.08D-03

 Cycle   6  Pass 1  IDiag  1:
 E= -749.216177753060     Delta-E=       -0.000134867247 Rises=F Damp=F
 DIIS: error= 8.84D-04 at cycle   6 NSaved=   6.
 NSaved= 6 IEnMin= 6 EnMin= -749.216177753060     IErMin= 6 ErrMin= 8.84D-04
 ErrMax= 8.84D-04  0.00D+00 EMaxC= 1.00D+00 BMatC= 1.50D-05 BMatP= 7.27D-05
 IDIUse=1 WtCom= 1.00D+00 WtEn= 0.00D+00
 Coeff-Com: -0.113D-01 0.427D-01-0.558D-01-0.251D+00 0.867D-01 0.119D+01
 Coeff:     -0.113D-01 0.427D-01-0.558D-01-0.251D+00 0.867D-01 0.119D+01
 Gap=     0.277 Goal=   None    Shift=    0.500
 RMSDP=8.22D-05 MaxDP=1.85D-03 DE=-1.35D-04 OVMax= 3.47D-03

 Cycle   7  Pass 1  IDiag  1:
 E= -749.216224674947     Delta-E=       -0.000046921886 Rises=F Damp=F
 DIIS: error= 6.17D-04 at cycle   7 NSaved=   7.
 NSaved= 7 IEnMin= 7 EnMin= -749.216224674947     IErMin= 7 ErrMin= 6.17D-04
 ErrMax= 6.17D-04  0.00D+00 EMaxC= 1.00D+00 BMatC= 4.57D-06 BMatP= 1.50D-05
 IDIUse=1 WtCom= 1.00D+00 WtEn= 0.00D+00
 Coeff-Com: -0.597D-02 0.508D-02 0.926D-02 0.434D-01-0.358D+00-0.501D+00
 Coeff-Com:  0.181D+01
 Coeff:     -0.597D-02 0.508D-02 0.926D-02 0.434D-01-0.358D+00-0.501D+00
 Coeff:      0.181D+01
 Gap=     0.277 Goal=   None    Shift=    0.500
 RMSDP=4.85D-05 MaxDP=1.12D-03 DE=-4.69D-05 OVMax= 2.66D-03

 Cycle   8  Pass 1  IDiag  1:
 E= -749.216245445691     Delta-E=       -0.000020770745 Rises=F Damp=F
 DIIS: error= 4.30D-04 at cycle   8 NSaved=   8.
 NSaved= 8 IEnMin= 8 EnMin= -749.216245445691     IErMin= 8 ErrMin= 4.30D-04
 ErrMax= 4.30D-04  0.00D+00 EMaxC= 1.00D+00 BMatC= 1.76D-06 BMatP= 4.57D-06
 IDIUse=1 WtCom= 1.00D+00 WtEn= 0.00D+00
 Coeff-Com:  0.262D-02-0.414D-02-0.340D-03 0.786D-01 0.702D-03-0.397D+00
 Coeff-Com: -0.932D+00 0.225D+01
 Coeff:      0.262D-02-0.414D-02-0.340D-03 0.786D-01 0.702D-03-0.397D+00
 Coeff:     -0.932D+00 0.225D+01
 Gap=     0.277 Goal=   None    Shift=    0.500
 RMSDP=2.25D-05 MaxDP=4.50D-04 DE=-2.08D-05 OVMax= 1.94D-03

 Cycle   9  Pass 1  IDiag  1:
 E= -749.216254496558     Delta-E=       -0.000009050867 Rises=F Damp=F
 DIIS: error= 2.86D-04 at cycle   9 NSaved=   9.
 NSaved= 9 IEnMin= 9 EnMin= -749.216254496558     IErMin= 9 ErrMin= 2.86D-04
 ErrMax= 2.86D-04  0.00D+00 EMaxC= 1.00D+00 BMatC= 7.66D-07 BMatP= 1.76D-06
 IDIUse=1 WtCom= 1.00D+00 WtEn= 0.00D+00
 Coeff-Com:  0.150D-02 0.509D-02-0.150D-01 0.330D-01 0.108D+00-0.113D+00
 Coeff-Com: -0.880D+00 0.367D+00 0.149D+01
 Coeff:      0.150D-02 0.509D-02-0.150D-01 0.330D-01 0.108D+00-0.113D+00
 Coeff:     -0.880D+00 0.367D+00 0.149D+01
 Gap=     0.277 Goal=   None    Shift=    0.500
 RMSDP=9.77D-06 MaxDP=1.98D-04 DE=-9.05D-06 OVMax= 1.27D-03

 Cycle  10  Pass 1  IDiag  1:
 E= -749.216258150237     Delta-E=       -0.000003653679 Rises=F Damp=F
 DIIS: error= 1.87D-04 at cycle  10 NSaved=  10.
 NSaved=10 IEnMin=10 EnMin= -749.216258150237     IErMin=10 ErrMin= 1.87D-04
 ErrMax= 1.87D-04  0.00D+00 EMaxC= 1.00D+00 BMatC= 3.28D-07 BMatP= 7.66D-07
 IDIUse=1 WtCom= 1.00D+00 WtEn= 0.00D+00
 Coeff-Com: -0.858D-03 0.816D-02-0.131D-01-0.490D-02 0.625D-01 0.469D-01
 Coeff-Com: -0.682D-01-0.698D+00-0.193D+00 0.186D+01
 Coeff:     -0.858D-03 0.816D-02-0.131D-01-0.490D-02 0.625D-01 0.469D-01
 Coeff:     -0.682D-01-0.698D+00-0.193D+00 0.186D+01
 Gap=     0.277 Goal=   None    Shift=    0.500
 RMSDP=5.22D-06 MaxDP=1.33D-04 DE=-3.65D-06 OVMax= 8.48D-04

 Cycle  11  Pass 1  IDiag  1:
 E= -749.216259630333     Delta-E=       -0.000001480096 Rises=F Damp=F
 DIIS: error= 1.16D-04 at cycle  11 NSaved=  11.
 NSaved=11 IEnMin=11 EnMin= -749.216259630333     IErMin=11 ErrMin= 1.16D-04
 ErrMax= 1.16D-04  0.00D+00 EMaxC= 1.00D+00 BMatC= 1.45D-07 BMatP= 3.28D-07
 IDIUse=1 WtCom= 1.00D+00 WtEn= 0.00D+00
 Coeff-Com: -0.785D-03 0.211D-02-0.132D-02-0.749D-03-0.192D-01 0.106D-01
 Coeff-Com:  0.202D+00-0.556D-01-0.936D+00-0.282D+00 0.208D+01
 Coeff:     -0.785D-03 0.211D-02-0.132D-02-0.749D-03-0.192D-01 0.106D-01
 Coeff:      0.202D+00-0.556D-01-0.936D+00-0.282D+00 0.208D+01
 Gap=     0.277 Goal=   None    Shift=    0.500
 RMSDP=3.25D-06 MaxDP=8.42D-05 DE=-1.48D-06 OVMax= 5.36D-04

 Cycle  12  Pass 1  IDiag  1:
 E= -749.216260203765     Delta-E=       -0.000000573432 Rises=F Damp=F
 DIIS: error= 7.16D-05 at cycle  12 NSaved=  12.
 NSaved=12 IEnMin=12 EnMin= -749.216260203765     IErMin=12 ErrMin= 7.16D-05
 ErrMax= 7.16D-05  0.00D+00 EMaxC= 1.00D+00 BMatC= 6.47D-08 BMatP= 1.45D-07
 IDIUse=1 WtCom= 1.00D+00 WtEn= 0.00D+00
 Coeff-Com: -0.113D-03 0.683D-03-0.885D-03 0.612D-02-0.124D-01-0.111D-01
 Coeff-Com: -0.436D-02 0.225D+00-0.297D+00-0.233D+00-0.925D+00 0.225D+01
 Coeff:     -0.113D-03 0.683D-03-0.885D-03 0.612D-02-0.124D-01-0.111D-01
 Coeff:     -0.436D-02 0.225D+00-0.297D+00-0.233D+00-0.925D+00 0.225D+01
 Gap=     0.277 Goal=   None    Shift=    0.500
 RMSDP=1.80D-06 MaxDP=4.95D-05 DE=-5.73D-07 OVMax= 3.24D-04

 Cycle  13  Pass 1  IDiag  1:
 E= -749.216260417625     Delta-E=       -0.000000213859 Rises=F Damp=F
 DIIS: error= 4.42D-05 at cycle  13 NSaved=  13.
 NSaved=13 IEnMin=13 EnMin= -749.216260417625     IErMin=13 ErrMin= 4.42D-05
 ErrMax= 4.42D-05  0.00D+00 EMaxC= 1.00D+00 BMatC= 2.77D-08 BMatP= 6.47D-08
 IDIUse=1 WtCom= 1.00D+00 WtEn= 0.00D+00
 Coeff-Com:  0.121D-03 0.302D-03-0.100D-02 0.517D-02-0.122D-02-0.100D-01
 Coeff-Com: -0.783D-01 0.191D+00 0.927D-01-0.608D-01-0.151D+01 0.101D+01
 Coeff-Com:  0.136D+01
 Coeff:      0.121D-03 0.302D-03-0.100D-02 0.517D-02-0.122D-02-0.100D-01
 Coeff:     -0.783D-01 0.191D+00 0.927D-01-0.608D-01-0.151D+01 0.101D+01
 Coeff:      0.136D+01
 Gap=     0.277 Goal=   None    Shift=    0.500
 RMSDP=1.06D-06 MaxDP=3.01D-05 DE=-2.14D-07 OVMax= 1.97D-04

 Cycle  14  Pass 1  IDiag  1:
 E= -749.216260498133     Delta-E=       -0.000000080508 Rises=F Damp=F
 DIIS: error= 2.68D-05 at cycle  14 NSaved=  14.
 NSaved=14 IEnMin=14 EnMin= -749.216260498133     IErMin=14 ErrMin= 2.68D-05
 ErrMax= 2.68D-05  0.00D+00 EMaxC= 1.00D+00 BMatC= 1.06D-08 BMatP= 2.77D-08
 IDIUse=1 WtCom= 1.00D+00 WtEn= 0.00D+00
 Coeff-Com: -0.321D-04 0.279D-03-0.452D-03-0.558D-03 0.282D-02 0.147D-02
 Coeff-Com:  0.300D-03-0.352D-01 0.396D-01 0.274D-01 0.176D+00-0.469D+00
 Coeff-Com: -0.140D+01 0.265D+01
 Coeff:     -0.321D-04 0.279D-03-0.452D-03-0.558D-03 0.282D-02 0.147D-02
 Coeff:      0.300D-03-0.352D-01 0.396D-01 0.274D-01 0.176D+00-0.469D+00
 Coeff:     -0.140D+01 0.265D+01
 Gap=     0.277 Goal=   None    Shift=    0.500
 RMSDP=6.26D-07 MaxDP=1.90D-05 DE=-8.05D-08 OVMax= 1.18D-04

 SCF Done:  E(RLC-wHPBE) =  -749.216260498     A.U. after   14 cycles
            NFock= 14  Conv=0.63D-06     -V/T= 2.0049
 KE= 7.455748239949D+02 PE=-4.335834925686D+03 EE= 1.542823293171D+03
 Leave Link  502 at Sun Jan 17 20:32:32 2021, MaxMem=  4026531840 cpu:            2202.5 elap:             276.1
 (Enter /opt/ohpc/pub/libs/gaussian/g16-A.03/sandybridge/g16/l508.exe)
 QCSCF skips out because SCF is already converged.
 Leave Link  508 at Sun Jan 17 20:32:32 2021, MaxMem=  4026531840 cpu:               0.0 elap:               0.0
 (Enter /opt/ohpc/pub/libs/gaussian/g16-A.03/sandybridge/g16/l601.exe)
 Copying SCF densities to generalized density rwf, IOpCl= 0 IROHF=0.

 **********************************************************************

            Population analysis using the SCF density.

 **********************************************************************

 Orbital symmetries:
       Occupied  (A) (A) (A) (A) (A) (A) (A) (A) (A) (A) (A) (A)
                 (A) (A) (A) (A) (A) (A) (A) (A) (A) (A) (A) (A)
                 (A) (A) (A) (A) (A) (A) (A) (A) (A) (A) (A) (A)
                 (A) (A) (A) (A) (A) (A) (A) (A) (A) (A) (A) (A)
                 (A) (A) (A) (A) (A) (A) (A) (A) (A) (A) (A) (A)
                 (A) (A) (A) (A) (A)
       Virtual   (A) (A) (A) (A) (A) (A) (A) (A) (A) (A) (A) (A)
                 (A) (A) (A) (A) (A) (A) (A) (A) (A) (A) (A) (A)
                 (A) (A) (A) (A) (A) (A) (A) (A) (A) (A) (A) (A)
                 (A) (A) (A) (A) (A) (A) (A) (A) (A) (A) (A) (A)
                 (A) (A) (A) (A) (A) (A) (A) (A) (A) (A) (A) (A)
                 (A) (A) (A) (A) (A) (A) (A) (A) (A) (A) (A) (A)
                 (A) (A) (A) (A) (A) (A) (A) (A) (A) (A) (A) (A)
                 (A) (A) (A) (A) (A) (A) (A) (A) (A) (A) (A) (A)
                 (A) (A) (A) (A) (A) (A) (A) (A) (A) (A) (A) (A)
                 (A) (A) (A) (A) (A) (A) (A) (A) (A) (A) (A) (A)
                 (A) (A) (A) (A) (A) (A) (A) (A) (A) (A) (A) (A)
                 (A) (A) (A) (A) (A) (A) (A) (A) (A) (A) (A) (A)
                 (A) (A) (A) (A) (A) (A) (A) (A) (A) (A) (A) (A)
                 (A) (A) (A) (A) (A) (A) (A) (A) (A) (A) (A) (A)
                 (A) (A) (A) (A) (A) (A) (A) (A) (A) (A) (A) (A)
                 (A) (A) (A) (A) (A) (A) (A) (A) (A) (A) (A) (A)
                 (A) (A) (A) (A) (A) (A) (A) (A) (A) (A) (A) (A)
                 (A) (A) (A) (A) (A) (A) (A) (A) (A) (A) (A) (A)
                 (A) (A) (A) (A) (A) (A) (A) (A) (A) (A) (A) (A)
                 (A) (A) (A) (A) (A) (A) (A) (A) (A) (A) (A) (A)
                 (A) (A) (A) (A) (A) (A) (A) (A) (A) (A) (A) (A)
                 (A) (A) (A) (A) (A) (A) (A) (A) (A) (A) (A) (A)
                 (A) (A) (A) (A) (A) (A) (A) (A) (A) (A) (A) (A)
                 (A) (A) (A) (A) (A) (A) (A) (A) (A) (A) (A) (A)
                 (A) (A) (A) (A) (A) (A) (A) (A) (A) (A) (A) (A)
                 (A) (A) (A) (A) (A) (A) (A) (A) (A) (A) (A) (A)
                 (A) (A) (A) (A) (A) (A) (A) (A) (A) (A) (A) (A)
                 (A) (A) (A) (A) (A) (A) (A) (A) (A) (A) (A) (A)
                 (A) (A) (A) (A) (A) (A) (A) (A) (A) (A) (A) (A)
                 (A) (A) (A) (A) (A) (A) (A) (A) (A) (A) (A) (A)
                 (A) (A) (A) (A) (A) (A) (A) (A) (A) (A) (A) (A)
                 (A) (A) (A) (A) (A) (A) (A) (A) (A) (A) (A) (A)
                 (A) (A)
 The electronic state is 1-A.
 Alpha  occ. eigenvalues --  -14.13080 -10.04116 -10.04116 -10.04114 -10.00074
 Alpha  occ. eigenvalues --  -10.00074 -10.00074 -10.00073 -10.00071 -10.00071
 Alpha  occ. eigenvalues --   -9.99787  -9.99786  -9.99786  -9.99785  -9.99783
 Alpha  occ. eigenvalues --   -9.99782  -9.99603  -9.99602  -9.99598  -1.00503
 Alpha  occ. eigenvalues --   -0.90058  -0.90056  -0.88075  -0.80630  -0.80628
 Alpha  occ. eigenvalues --   -0.79118  -0.79001  -0.79000  -0.75509  -0.68137
 Alpha  occ. eigenvalues --   -0.68135  -0.65784  -0.65224  -0.65222  -0.62533
 Alpha  occ. eigenvalues --   -0.59471  -0.59470  -0.56122  -0.53728  -0.53725
 Alpha  occ. eigenvalues --   -0.52543  -0.50808  -0.50808  -0.49682  -0.48848
 Alpha  occ. eigenvalues --   -0.48846  -0.48080  -0.47783  -0.47782  -0.44479
 Alpha  occ. eigenvalues --   -0.44193  -0.44191  -0.42670  -0.41440  -0.41438
 Alpha  occ. eigenvalues --   -0.40971  -0.39836  -0.39834  -0.37528  -0.33179
 Alpha  occ. eigenvalues --   -0.33177  -0.33135  -0.31918  -0.31917  -0.24990
 Alpha virt. eigenvalues --    0.02703   0.03058   0.03059   0.05134   0.05136
 Alpha virt. eigenvalues --    0.07887   0.10645   0.11595   0.11597   0.14001
 Alpha virt. eigenvalues --    0.14002   0.14162   0.14523   0.15722   0.15723
 Alpha virt. eigenvalues --    0.16791   0.16792   0.16956   0.17426   0.18517
 Alpha virt. eigenvalues --    0.18517   0.18943   0.18943   0.21296   0.22264
 Alpha virt. eigenvalues --    0.24629   0.24629   0.25025   0.25494   0.26051
 Alpha virt. eigenvalues --    0.26399   0.26402   0.27257   0.27260   0.28420
 Alpha virt. eigenvalues --    0.28436   0.28442   0.29682   0.29683   0.30032
 Alpha virt. eigenvalues --    0.30298   0.30339   0.30341   0.31240   0.31853
 Alpha virt. eigenvalues --    0.31857   0.32948   0.32949   0.34253   0.34255
 Alpha virt. eigenvalues --    0.34974   0.35798   0.35800   0.36840   0.37165
 Alpha virt. eigenvalues --    0.38238   0.38530   0.38533   0.39331   0.39334
 Alpha virt. eigenvalues --    0.40898   0.42709   0.42977   0.42983   0.43606
 Alpha virt. eigenvalues --    0.43782   0.43783   0.44993   0.44994   0.45100
 Alpha virt. eigenvalues --    0.45262   0.46007   0.46014   0.46474   0.47202
 Alpha virt. eigenvalues --    0.47203   0.48389   0.48572   0.48574   0.49324
 Alpha virt. eigenvalues --    0.49330   0.49486   0.50821   0.50822   0.51717
 Alpha virt. eigenvalues --    0.53032   0.53034   0.54026   0.54039   0.54042
 Alpha virt. eigenvalues --    0.55087   0.55350   0.55474   0.55479   0.56199
 Alpha virt. eigenvalues --    0.56610   0.56622   0.57248   0.58790   0.58793
 Alpha virt. eigenvalues --    0.60729   0.60840   0.60849   0.60874   0.63766
 Alpha virt. eigenvalues --    0.63767   0.66044   0.66659   0.68161   0.68164
 Alpha virt. eigenvalues --    0.71949   0.71950   0.73149   0.73154   0.74693
 Alpha virt. eigenvalues --    0.74885   0.74890   0.75386   0.75389   0.75406
 Alpha virt. eigenvalues --    0.75656   0.77486   0.77498   0.81065   0.81091
 Alpha virt. eigenvalues --    0.81427   0.83112   0.83118   0.86279   0.89855
 Alpha virt. eigenvalues --    0.89866   0.90811   0.91037   0.97056   0.97063
 Alpha virt. eigenvalues --    0.99214   1.18068   1.20569   1.20570   1.23982
 Alpha virt. eigenvalues --    1.23988   1.24416   1.27359   1.27361   1.27866
 Alpha virt. eigenvalues --    1.28355   1.28358   1.29878   1.30659   1.31049
 Alpha virt. eigenvalues --    1.31051   1.32212   1.32219   1.32890   1.32894
 Alpha virt. eigenvalues --    1.33160   1.34199   1.34742   1.34743   1.34764
 Alpha virt. eigenvalues --    1.36020   1.36021   1.36715   1.38121   1.38210
 Alpha virt. eigenvalues --    1.39041   1.39049   1.46275   1.46278   1.46869
 Alpha virt. eigenvalues --    1.47424   1.47426   1.48032   1.48035   1.48189
 Alpha virt. eigenvalues --    1.48437   1.48719   1.48996   1.49001   1.50088
 Alpha virt. eigenvalues --    1.50091   1.51170   1.51697   1.51705   1.51776
 Alpha virt. eigenvalues --    1.52704   1.52708   1.54558   1.55366   1.55766
 Alpha virt. eigenvalues --    1.55771   1.56813   1.56817   1.58725   1.58727
 Alpha virt. eigenvalues --    1.59005   1.59272   1.59701   1.59703   1.60919
 Alpha virt. eigenvalues --    1.61234   1.61234   1.62269   1.62273   1.62724
 Alpha virt. eigenvalues --    1.63581   1.64108   1.64115   1.70505   1.71015
 Alpha virt. eigenvalues --    1.71016   1.74797   1.74814   1.79692   1.79701
 Alpha virt. eigenvalues --    1.80197   1.80256   1.80763   1.80765   1.81440
 Alpha virt. eigenvalues --    1.82815   1.82983   1.82985   1.83581   1.85030
 Alpha virt. eigenvalues --    1.85044   1.85610   1.85617   1.86146   1.87826
 Alpha virt. eigenvalues --    1.90396   1.90397   1.91737   1.91746   1.92117
 Alpha virt. eigenvalues --    1.92118   1.94348   1.94670   1.94674   1.95582
 Alpha virt. eigenvalues --    1.95590   1.95848   1.95883   1.95891   1.96482
 Alpha virt. eigenvalues --    1.97113   1.97123   1.98248   2.00999   2.01014
 Alpha virt. eigenvalues --    2.01017   2.03034   2.03416   2.03416   2.06110
 Alpha virt. eigenvalues --    2.06123   2.07283   2.11021   2.11023   2.14948
 Alpha virt. eigenvalues --    2.15119   2.15121   2.18822   2.23214   2.23216
 Alpha virt. eigenvalues --    2.26363   2.27559   2.27567   2.29804   2.32657
 Alpha virt. eigenvalues --    2.32660   2.34006   2.34016   2.34713   2.34714
 Alpha virt. eigenvalues --    2.35112   2.35116   2.37249   2.37445   2.37449
 Alpha virt. eigenvalues --    2.38053   2.39066   2.39800   2.39804   2.40176
 Alpha virt. eigenvalues --    2.40180   2.41267   2.48399   2.48405   2.49235
 Alpha virt. eigenvalues --    2.52673   2.52679   2.54071   2.54073   2.55221
 Alpha virt. eigenvalues --    2.55222   2.55425   2.56165   2.58278   2.58285
 Alpha virt. eigenvalues --    2.59293   2.62806   2.66613   2.66615   2.67431
 Alpha virt. eigenvalues --    2.67761   2.67767   2.67907   2.67909   2.69553
 Alpha virt. eigenvalues --    2.70179   2.71018   2.71019   2.76977   2.77555
 Alpha virt. eigenvalues --    2.77556   2.79795   2.79805   2.81193   2.82342
 Alpha virt. eigenvalues --    2.85176   2.85179   2.87392   2.87831   2.87837
 Alpha virt. eigenvalues --    2.92423   2.99731   2.99745   3.00797   3.00805
 Alpha virt. eigenvalues --    3.03904   3.05205   3.05208   3.05577   3.06469
 Alpha virt. eigenvalues --    3.07900   3.07906   3.11759   3.13273   3.13274
 Alpha virt. eigenvalues --    3.14340   3.16066   3.18243   3.18248   3.20182
 Alpha virt. eigenvalues --    3.20183   3.22445   3.22446   3.23322   3.23323
 Alpha virt. eigenvalues --    3.24232   3.27941   3.35582   3.35587   3.36345
 Alpha virt. eigenvalues --    3.41116   3.43885   3.43890   3.49215   3.55097
 Alpha virt. eigenvalues --    3.57856   3.57868   3.63716   3.63720   3.84320
 Alpha virt. eigenvalues --    3.94836   3.94839  21.20617  21.23257  21.23260
 Alpha virt. eigenvalues --   21.68675  21.72050  21.72053  21.72666  21.80524
 Alpha virt. eigenvalues --   21.80530  21.91526  21.94936  21.97074  21.97079
 Alpha virt. eigenvalues --   22.02784  22.02787  22.08684  22.15155  22.15179
 Alpha virt. eigenvalues --   32.05306
          Condensed to atoms (all electrons):
               1          2          3          4          5          6
     1  N    6.511363   0.173106  -0.011573  -0.011145   0.013231   0.013217
     2  C    0.173106   5.391590   0.366634   0.366565   0.014483   0.014466
     3  C   -0.011573   0.366634   5.245272  -0.054371   0.369118  -0.133829
     4  C   -0.011145   0.366565  -0.054371   5.245099  -0.133733   0.369056
     5  C    0.013231   0.014483   0.369118  -0.133733   5.076082   0.029109
     6  C    0.013217   0.014466  -0.133829   0.369056   0.029109   5.076312
     7  C    0.005594  -0.094077  -0.023982  -0.023975   0.436958   0.436875
     8  H   -0.007292  -0.033504   0.395801   0.012484  -0.041486  -0.001163
     9  H   -0.007256  -0.033528   0.012516   0.395838  -0.001174  -0.041544
    10  H   -0.000570   0.017759  -0.052243  -0.002473   0.416464   0.016445
    11  H   -0.000570   0.017761  -0.002471  -0.052257   0.016444   0.416471
    12  H   -0.000041  -0.008014   0.024569   0.024568  -0.071483  -0.071496
    13  C    0.172689  -0.084100   0.026068  -0.006047  -0.000875  -0.005096
    14  C   -0.011107   0.025993  -0.058762   0.014000  -0.007183   0.003499
    15  C   -0.011551  -0.006299   0.014070  -0.008861   0.000737  -0.000284
    16  C    0.013230  -0.000768  -0.007219   0.000740  -0.000568   0.000098
    17  C    0.013270  -0.005065   0.003496  -0.000281   0.000098  -0.000050
    18  C    0.005594   0.002331  -0.000896   0.000081  -0.000061   0.000017
    19  H   -0.007226   0.002328   0.001389  -0.000672  -0.001417   0.000384
    20  H   -0.007300  -0.001127   0.000295  -0.000247  -0.000005   0.000012
    21  H   -0.000571  -0.000186   0.000052  -0.000033   0.000026  -0.000001
    22  H   -0.000571   0.000011  -0.000025   0.000001  -0.000001   0.000000
    23  H   -0.000041   0.000018  -0.000016   0.000001  -0.000001  -0.000000
    24  C    0.172655  -0.084145  -0.006146   0.025984  -0.005077  -0.000839
    25  C   -0.011573   0.026096   0.014070  -0.058697   0.003485  -0.007214
    26  C   -0.011118  -0.006146  -0.008876   0.014009  -0.000281   0.000745
    27  C    0.013264  -0.000843   0.000744  -0.007209   0.000097  -0.000573
    28  C    0.013249  -0.005097  -0.000281   0.003496  -0.000050   0.000097
    29  C    0.005590   0.002361   0.000081  -0.000898   0.000017  -0.000061
    30  H   -0.007274   0.002395  -0.000662   0.001359   0.000387  -0.001416
    31  H   -0.007254  -0.001105  -0.000248   0.000290   0.000012  -0.000005
    32  H   -0.000570  -0.000187  -0.000033   0.000052  -0.000001   0.000026
    33  H   -0.000571   0.000011   0.000001  -0.000025   0.000000  -0.000001
    34  H   -0.000041   0.000018   0.000001  -0.000015  -0.000000  -0.000001
               7          8          9         10         11         12
     1  N    0.005594  -0.007292  -0.007256  -0.000570  -0.000570  -0.000041
     2  C   -0.094077  -0.033504  -0.033528   0.017759   0.017761  -0.008014
     3  C   -0.023982   0.395801   0.012516  -0.052243  -0.002471   0.024569
     4  C   -0.023975   0.012484   0.395838  -0.002473  -0.052257   0.024568
     5  C    0.436958  -0.041486  -0.001174   0.416464   0.016444  -0.071483
     6  C    0.436875  -0.001163  -0.041544   0.016445   0.416471  -0.071496
     7  C    5.043867   0.009654   0.009670  -0.066646  -0.066651   0.432010
     8  H    0.009654   0.519621  -0.000267  -0.007236   0.000012  -0.000100
     9  H    0.009670  -0.000267   0.519698   0.000012  -0.007240  -0.000100
    10  H   -0.066646  -0.007236   0.000012   0.581823  -0.000233  -0.008772
    11  H   -0.066651   0.000012  -0.007240  -0.000233   0.581829  -0.008772
    12  H    0.432010  -0.000100  -0.000100  -0.008772  -0.008772   0.582981
    13  C    0.002365   0.002448  -0.001104  -0.000186   0.000011   0.000018
    14  C   -0.000906   0.001336   0.000288   0.000052  -0.000025  -0.000015
    15  C    0.000083  -0.000667  -0.000247  -0.000033   0.000001   0.000001
    16  C   -0.000062  -0.001416  -0.000005   0.000026  -0.000001  -0.000001
    17  C    0.000017   0.000390   0.000012  -0.000001   0.000000  -0.000000
    18  C   -0.000009   0.000431  -0.000004  -0.000002   0.000000  -0.000000
    19  H    0.000433   0.000946   0.000030  -0.000045   0.000003   0.000003
    20  H   -0.000004   0.000030  -0.000006  -0.000000  -0.000000   0.000000
    21  H   -0.000002  -0.000045  -0.000000  -0.000000   0.000000  -0.000000
    22  H    0.000000   0.000003  -0.000000   0.000000  -0.000000  -0.000000
    23  H   -0.000000   0.000003   0.000000  -0.000000  -0.000000  -0.000000
    24  C    0.002343  -0.001124   0.002401   0.000012  -0.000186   0.000018
    25  C   -0.000892   0.000296   0.001378  -0.000025   0.000052  -0.000015
    26  C    0.000081  -0.000248  -0.000686   0.000001  -0.000033   0.000001
    27  C   -0.000061  -0.000005  -0.001415  -0.000001   0.000026  -0.000001
    28  C    0.000017   0.000012   0.000388   0.000000  -0.000001  -0.000000
    29  C   -0.000009  -0.000004   0.000432   0.000000  -0.000002  -0.000000
    30  H    0.000431   0.000030   0.000945   0.000003  -0.000045   0.000003
    31  H   -0.000004  -0.000006   0.000030  -0.000000  -0.000000   0.000000
    32  H   -0.000002  -0.000000  -0.000045   0.000000  -0.000000  -0.000000
    33  H    0.000000  -0.000000   0.000003  -0.000000   0.000000  -0.000000
    34  H   -0.000000   0.000000   0.000003  -0.000000  -0.000000  -0.000000
              13         14         15         16         17         18
     1  N    0.172689  -0.011107  -0.011551   0.013230   0.013270   0.005594
     2  C   -0.084100   0.025993  -0.006299  -0.000768  -0.005065   0.002331
     3  C    0.026068  -0.058762   0.014070  -0.007219   0.003496  -0.000896
     4  C   -0.006047   0.014000  -0.008861   0.000740  -0.000281   0.000081
     5  C   -0.000875  -0.007183   0.000737  -0.000568   0.000098  -0.000061
     6  C   -0.005096   0.003499  -0.000284   0.000098  -0.000050   0.000017
     7  C    0.002365  -0.000906   0.000083  -0.000062   0.000017  -0.000009
     8  H    0.002448   0.001336  -0.000667  -0.001416   0.000390   0.000431
     9  H   -0.001104   0.000288  -0.000247  -0.000005   0.000012  -0.000004
    10  H   -0.000186   0.000052  -0.000033   0.000026  -0.000001  -0.000002
    11  H    0.000011  -0.000025   0.000001  -0.000001   0.000000   0.000000
    12  H    0.000018  -0.000015   0.000001  -0.000001  -0.000000  -0.000000
    13  C    5.393242   0.366479   0.366578   0.014463   0.014548  -0.094120
    14  C    0.366479   5.244489  -0.054082   0.369074  -0.133693  -0.023998
    15  C    0.366578  -0.054082   5.244288  -0.133814   0.368906  -0.023922
    16  C    0.014463   0.369074  -0.133814   5.076422   0.029084   0.436771
    17  C    0.014548  -0.133693   0.368906   0.029084   5.076435   0.436854
    18  C   -0.094120  -0.023998  -0.023922   0.436771   0.436854   5.043990
    19  H   -0.033587   0.395967   0.012537  -0.041628  -0.001185   0.009693
    20  H   -0.033511   0.012519   0.395905  -0.001174  -0.041643   0.009671
    21  H    0.017771  -0.052244  -0.002471   0.416471   0.016443  -0.066669
    22  H    0.017760  -0.002469  -0.052223   0.016446   0.416453  -0.066658
    23  H   -0.008011   0.024556   0.024557  -0.071467  -0.071458   0.431997
    24  C   -0.084338  -0.006104   0.026220  -0.005113  -0.000893   0.002370
    25  C   -0.006217  -0.008864   0.013980  -0.000280   0.000742   0.000081
    26  C    0.026103   0.013948  -0.058666   0.003506  -0.007171  -0.000906
    27  C   -0.005091  -0.000280   0.003506  -0.000050   0.000098   0.000017
    28  C   -0.000859   0.000743  -0.007173   0.000097  -0.000566  -0.000061
    29  C    0.002349   0.000081  -0.000905   0.000017  -0.000061  -0.000009
    30  H   -0.001127  -0.000248   0.000299   0.000012  -0.000005  -0.000004
    31  H    0.002390  -0.000688   0.001389   0.000385  -0.001419   0.000433
    32  H    0.000011   0.000001  -0.000025   0.000000  -0.000001   0.000000
    33  H   -0.000187  -0.000033   0.000053  -0.000001   0.000026  -0.000002
    34  H    0.000018   0.000001  -0.000016  -0.000000  -0.000001  -0.000000
              19         20         21         22         23         24
     1  N   -0.007226  -0.007300  -0.000571  -0.000571  -0.000041   0.172655
     2  C    0.002328  -0.001127  -0.000186   0.000011   0.000018  -0.084145
     3  C    0.001389   0.000295   0.000052  -0.000025  -0.000016  -0.006146
     4  C   -0.000672  -0.000247  -0.000033   0.000001   0.000001   0.025984
     5  C   -0.001417  -0.000005   0.000026  -0.000001  -0.000001  -0.005077
     6  C    0.000384   0.000012  -0.000001   0.000000  -0.000000  -0.000839
     7  C    0.000433  -0.000004  -0.000002   0.000000  -0.000000   0.002343
     8  H    0.000946   0.000030  -0.000045   0.000003   0.000003  -0.001124
     9  H    0.000030  -0.000006  -0.000000  -0.000000   0.000000   0.002401
    10  H   -0.000045  -0.000000  -0.000000   0.000000  -0.000000   0.000012
    11  H    0.000003  -0.000000   0.000000  -0.000000  -0.000000  -0.000186
    12  H    0.000003   0.000000  -0.000000  -0.000000  -0.000000   0.000018
    13  C   -0.033587  -0.033511   0.017771   0.017760  -0.008011  -0.084338
    14  C    0.395967   0.012519  -0.052244  -0.002469   0.024556  -0.006104
    15  C    0.012537   0.395905  -0.002471  -0.052223   0.024557   0.026220
    16  C   -0.041628  -0.001174   0.416471   0.016446  -0.071467  -0.005113
    17  C   -0.001185  -0.041643   0.016443   0.416453  -0.071458  -0.000893
    18  C    0.009693   0.009671  -0.066669  -0.066658   0.431997   0.002370
    19  H    0.519778  -0.000266  -0.007245   0.000012  -0.000099  -0.001107
    20  H   -0.000266   0.519806   0.000012  -0.007237  -0.000100   0.002446
    21  H   -0.007245   0.000012   0.581823  -0.000233  -0.008769   0.000011
    22  H    0.000012  -0.007237  -0.000233   0.581807  -0.008771  -0.000187
    23  H   -0.000099  -0.000100  -0.008769  -0.008771   0.582927   0.000018
    24  C   -0.001107   0.002446   0.000011  -0.000187   0.000018   5.393109
    25  C   -0.000249  -0.000675   0.000001  -0.000033   0.000001   0.366728
    26  C    0.000293   0.001355  -0.000025   0.000053  -0.000015   0.366466
    27  C    0.000012   0.000390   0.000000  -0.000001  -0.000000   0.014550
    28  C   -0.000005  -0.001418  -0.000001   0.000026  -0.000001   0.014468
    29  C   -0.000004   0.000431   0.000000  -0.000002  -0.000000  -0.094129
    30  H   -0.000006   0.000031  -0.000000  -0.000000   0.000000  -0.033535
    31  H    0.000031   0.000944   0.000003  -0.000045   0.000003  -0.033533
    32  H   -0.000000   0.000003  -0.000000   0.000000  -0.000000   0.017750
    33  H   -0.000000  -0.000045   0.000000  -0.000000  -0.000000   0.017771
    34  H    0.000000   0.000003  -0.000000  -0.000000  -0.000000  -0.008013
              25         26         27         28         29         30
     1  N   -0.011573  -0.011118   0.013264   0.013249   0.005590  -0.007274
     2  C    0.026096  -0.006146  -0.000843  -0.005097   0.002361   0.002395
     3  C    0.014070  -0.008876   0.000744  -0.000281   0.000081  -0.000662
     4  C   -0.058697   0.014009  -0.007209   0.003496  -0.000898   0.001359
     5  C    0.003485  -0.000281   0.000097  -0.000050   0.000017   0.000387
     6  C   -0.007214   0.000745  -0.000573   0.000097  -0.000061  -0.001416
     7  C   -0.000892   0.000081  -0.000061   0.000017  -0.000009   0.000431
     8  H    0.000296  -0.000248  -0.000005   0.000012  -0.000004   0.000030
     9  H    0.001378  -0.000686  -0.001415   0.000388   0.000432   0.000945
    10  H   -0.000025   0.000001  -0.000001   0.000000   0.000000   0.000003
    11  H    0.000052  -0.000033   0.000026  -0.000001  -0.000002  -0.000045
    12  H   -0.000015   0.000001  -0.000001  -0.000000  -0.000000   0.000003
    13  C   -0.006217   0.026103  -0.005091  -0.000859   0.002349  -0.001127
    14  C   -0.008864   0.013948  -0.000280   0.000743   0.000081  -0.000248
    15  C    0.013980  -0.058666   0.003506  -0.007173  -0.000905   0.000299
    16  C   -0.000280   0.003506  -0.000050   0.000097   0.000017   0.000012
    17  C    0.000742  -0.007171   0.000098  -0.000566  -0.000061  -0.000005
    18  C    0.000081  -0.000906   0.000017  -0.000061  -0.000009  -0.000004
    19  H   -0.000249   0.000293   0.000012  -0.000005  -0.000004  -0.000006
    20  H   -0.000675   0.001355   0.000390  -0.001418   0.000431   0.000031
    21  H    0.000001  -0.000025   0.000000  -0.000001   0.000000  -0.000000
    22  H   -0.000033   0.000053  -0.000001   0.000026  -0.000002  -0.000000
    23  H    0.000001  -0.000015  -0.000000  -0.000001  -0.000000   0.000000
    24  C    0.366728   0.366466   0.014550   0.014468  -0.094129  -0.033535
    25  C    5.244591  -0.054107   0.368845  -0.133776  -0.023929   0.395918
    26  C   -0.054107   5.244071  -0.133745   0.369032  -0.023922   0.012511
    27  C    0.368845  -0.133745   5.076519   0.029178   0.436752  -0.041585
    28  C   -0.133776   0.369032   0.029178   5.076529   0.436661  -0.001173
    29  C   -0.023929  -0.023922   0.436752   0.436661   5.044128   0.009668
    30  H    0.395918   0.012511  -0.041585  -0.001173   0.009668   0.519701
    31  H    0.012529   0.395944  -0.001181  -0.041665   0.009685  -0.000267
    32  H   -0.052216  -0.002468   0.416450   0.016442  -0.066647  -0.007232
    33  H   -0.002470  -0.052240   0.016447   0.416471  -0.066678   0.000012
    34  H    0.024565   0.024556  -0.071464  -0.071475   0.432001  -0.000099
              31         32         33         34
     1  N   -0.007254  -0.000570  -0.000571  -0.000041
     2  C   -0.001105  -0.000187   0.000011   0.000018
     3  C   -0.000248  -0.000033   0.000001   0.000001
     4  C    0.000290   0.000052  -0.000025  -0.000015
     5  C    0.000012  -0.000001   0.000000  -0.000000
     6  C   -0.000005   0.000026  -0.000001  -0.000001
     7  C   -0.000004  -0.000002   0.000000  -0.000000
     8  H   -0.000006  -0.000000  -0.000000   0.000000
     9  H    0.000030  -0.000045   0.000003   0.000003
    10  H   -0.000000   0.000000  -0.000000  -0.000000
    11  H   -0.000000  -0.000000   0.000000  -0.000000
    12  H    0.000000  -0.000000  -0.000000  -0.000000
    13  C    0.002390   0.000011  -0.000187   0.000018
    14  C   -0.000688   0.000001  -0.000033   0.000001
    15  C    0.001389  -0.000025   0.000053  -0.000016
    16  C    0.000385   0.000000  -0.000001  -0.000000
    17  C   -0.001419  -0.000001   0.000026  -0.000001
    18  C    0.000433   0.000000  -0.000002  -0.000000
    19  H    0.000031  -0.000000  -0.000000   0.000000
    20  H    0.000944   0.000003  -0.000045   0.000003
    21  H    0.000003  -0.000000   0.000000  -0.000000
    22  H   -0.000045   0.000000  -0.000000  -0.000000
    23  H    0.000003  -0.000000  -0.000000  -0.000000
    24  C   -0.033533   0.017750   0.017771  -0.008013
    25  C    0.012529  -0.052216  -0.002470   0.024565
    26  C    0.395944  -0.002468  -0.052240   0.024556
    27  C   -0.001181   0.416450   0.016447  -0.071464
    28  C   -0.041665   0.016442   0.416471  -0.071475
    29  C    0.009685  -0.066647  -0.066678   0.432001
    30  H   -0.000267  -0.007232   0.000012  -0.000099
    31  H    0.519833   0.000012  -0.007239  -0.000100
    32  H    0.000012   0.581792  -0.000233  -0.008771
    33  H   -0.007239  -0.000233   0.581807  -0.008771
    34  H   -0.000100  -0.008771  -0.008771   0.582937
 Mulliken charges:
               1
     1  N   -0.010838
     2  C   -0.059735
     3  C   -0.112546
     4  C   -0.112683
     5  C   -0.113351
     6  C   -0.113258
     7  C   -0.103120
     8  H    0.151067
     9  H    0.150978
    10  H    0.105871
    11  H    0.105876
    12  H    0.104638
    13  C   -0.060856
    14  C   -0.112324
    15  C   -0.111873
    16  C   -0.113275
    17  C   -0.113378
    18  C   -0.103012
    19  H    0.150905
    20  H    0.150904
    21  H    0.105881
    22  H    0.105882
    23  H    0.104667
    24  C   -0.060852
    25  C   -0.112128
    26  C   -0.112021
    27  C   -0.113390
    28  C   -0.113304
    29  C   -0.102994
    30  H    0.150974
    31  H    0.150845
    32  H    0.105892
    33  H    0.105892
    34  H    0.104663
 Sum of Mulliken charges =  -0.00000
 Mulliken charges with hydrogens summed into heavy atoms:
               1
     1  N   -0.010838
     2  C   -0.059735
     3  C    0.038522
     4  C    0.038296
     5  C   -0.007480
     6  C   -0.007382
     7  C    0.001519
    13  C   -0.060856
    14  C    0.038581
    15  C    0.039031
    16  C   -0.007394
    17  C   -0.007496
    18  C    0.001655
    24  C   -0.060852
    25  C    0.038846
    26  C    0.038824
    27  C   -0.007498
    28  C   -0.007412
    29  C    0.001669
 Electronic spatial extent (au):  <R**2>=           4959.9367
 Charge=             -0.0000 electrons
 Dipole moment (field-independent basis, Debye):
    X=              0.0012    Y=             -0.0028    Z=              0.0006  Tot=              0.0031
 Quadrupole moment (field-independent basis, Debye-Ang):
   XX=           -103.4761   YY=           -103.5002   ZZ=           -111.2012
   XY=              0.0068   XZ=              0.0020   YZ=              0.0004
 Traceless Quadrupole moment (field-independent basis, Debye-Ang):
   XX=              2.5831   YY=              2.5590   ZZ=             -5.1420
   XY=              0.0068   XZ=              0.0020   YZ=              0.0004
 Octapole moment (field-independent basis, Debye-Ang**2):
  XXX=             12.3318  YYY=             10.1494  ZZZ=             -0.0093  XYY=            -12.3262
  XXY=            -10.1492  XXZ=              0.0074  XZZ=              0.0156  YZZ=             -0.0510
  YYZ=              0.0182  XYZ=              0.0116
 Hexadecapole moment (field-independent basis, Debye-Ang**3):
 XXXX=          -3065.1252 YYYY=          -3065.3148 ZZZZ=           -467.2051 XXXY=             -0.0744
 XXXZ=             52.6182 YYYX=              0.1554 YYYZ=            -64.1079 ZZZX=              0.0725
 ZZZY=              0.0262 XXYY=          -1021.6725 XXZZ=           -619.1579 YYZZ=           -619.2817
 XXYZ=             64.0681 YYXZ=            -52.6984 ZZXY=              0.0442
 N-N= 1.298220548022D+03 E-N=-4.335835342790D+03  KE= 7.455748239949D+02
 No NMR shielding tensors so no spin-rotation constants.
 Leave Link  601 at Sun Jan 17 20:32:32 2021, MaxMem=  4026531840 cpu:               2.0 elap:               0.3
 (Enter /opt/ohpc/pub/libs/gaussian/g16-A.03/sandybridge/g16/l9999.exe)

 Test job not archived.
 1\1\GINC-CASCADEB040\SP\RLC-wHPBE\TZVP\C18H15N1\RDU230\17-Jan-2021\0\\
 #P LC-wHPBE/TZVP iop(3/107=0198000000, 3/108=0198000000) scf=(conver=6
 ,fermi,ndamp=35,noincfock,novaracc,vshift=500,xqc)\\H15 C18 N1\\0,1\N,
 0,0.000022,-0.000126,-0.001279\C,0,0.411521,-1.356839,-0.000484\C,0,1.
 495533,-1.769287,0.781179\C,0,-0.26032,-2.302689,-0.781717\C,0,1.90121
 8,-3.097977,0.77159\C,0,0.140608,-3.632811,-0.770872\C,0,1.225282,-4.0
 3895,0.000666\H,0,2.020108,-1.039002,1.394849\H,0,-1.101816,-1.987296,
 -1.396157\H,0,2.748094,-3.402056,1.385878\H,0,-0.394485,-4.35669,-1.38
 4611\H,0,1.541424,-5.08084,0.001027\C,0,0.969124,1.03471,-0.000488\C,0
 ,2.123037,0.926935,-0.78345\C,0,0.785335,2.178692,0.782922\C,0,3.07444
 4,1.939229,-0.772694\C,0,1.733248,3.194302,0.773528\C,0,2.885092,3.080
 453,0.000886\H,0,2.269922,0.041314,-1.399284\H,0,-0.10857,2.266902,1.3
 98014\H,0,3.967862,1.838651,-1.388087\H,0,1.574087,4.078874,1.389358\H
 ,0,3.629424,3.875076,0.001646\C,0,-1.380731,0.321945,-0.000436\C,0,-2.
 279686,-0.409002,0.782988\C,0,-1.864017,1.375244,-0.783483\C,0,-3.6331
 85,-0.0958,0.773256\C,0,-3.216365,1.693293,-0.772877\C,0,-4.110212,0.9
 58658,0.000466\H,0,-1.909274,-1.227214,1.398174\H,0,-1.170181,1.945112
 ,-1.399095\H,0,-4.319851,-0.675761,1.389003\H,0,-3.575887,2.517271,-1.
 388348\H,0,-5.170565,1.205911,0.000686\\Version=EM64L-G16RevA.03\State
 =1-A\HF=-749.2162605\RMSD=6.258e-07\Dipole=-0.0004536,0.0011191,0.0002
 366\Quadrupole=1.9204336,1.9025302,-3.8229638,0.0050364,-0.0014889,-0.
 0002983\PG=C01 [X(C18H15N1)]\\@


 I FIND THAT THE THREE TRULY GREAT TIMES FOR THINKING THOUGHTS
 ARE WHEN I AM STANDING IN THE SHOWER, SITTING ON THE JOHN, OR WALKING.

                                    -- COLIN FLETCHER
 Job cpu time:       0 days  0 hours 37 minutes 21.6 seconds.
 Elapsed time:       0 days  0 hours  4 minutes 41.4 seconds.
 File lengths (MBytes):  RWF=    116 Int=      0 D2E=      0 Chk=     20 Scr=      8
 Normal termination of Gaussian 16 at Sun Jan 17 20:32:32 2021.
