 Entering Gaussian System, Link 0=g16
 Input=mol_NN_pa_frag_tune_n2.gjf
 Output=mol_NN_pa_frag_tune_n2.log
 Initial command:
 /opt/ohpc/pub/libs/gaussian/g16-A.03/sandybridge/g16/l1.exe "/mnt/gpfs2_4m/scratch/rdu230/ondemand/projects/init_structures/wtuning/mol_NN_pa_frag/tuning_mol_NN_pa_frag_ocycle0/Gau-313947.inp" -scrdir="/mnt/gpfs2_4m/scratch/rdu230/ondemand/projects/init_structures/wtuning/mol_NN_pa_frag/tuning_mol_NN_pa_frag_ocycle0/"
 Entering Link 1 = /opt/ohpc/pub/libs/gaussian/g16-A.03/sandybridge/g16/l1.exe PID=    313948.
  
 Copyright (c) 1988,1990,1992,1993,1995,1998,2003,2009,2016,
            Gaussian, Inc.  All Rights Reserved.
  
 This is part of the Gaussian(R) 16 program.  It is based on
 the Gaussian(R) 09 system (copyright 2009, Gaussian, Inc.),
 the Gaussian(R) 03 system (copyright 2003, Gaussian, Inc.),
 the Gaussian(R) 98 system (copyright 1998, Gaussian, Inc.),
 the Gaussian(R) 94 system (copyright 1995, Gaussian, Inc.),
 the Gaussian 92(TM) system (copyright 1992, Gaussian, Inc.),
 the Gaussian 90(TM) system (copyright 1990, Gaussian, Inc.),
 the Gaussian 88(TM) system (copyright 1988, Gaussian, Inc.),
 the Gaussian 86(TM) system (copyright 1986, Carnegie Mellon
 University), and the Gaussian 82(TM) system (copyright 1983,
 Carnegie Mellon University). Gaussian is a federally registered
 trademark of Gaussian, Inc.
  
 This software contains proprietary and confidential information,
 including trade secrets, belonging to Gaussian, Inc.
  
 This software is provided under written license and may be
 used, copied, transmitted, or stored only in accord with that
 written license.
  
 The following legend is applicable only to US Government
 contracts under FAR:
  
                    RESTRICTED RIGHTS LEGEND
  
 Use, reproduction and disclosure by the US Government is
 subject to restrictions as set forth in subparagraphs (a)
 and (c) of the Commercial Computer Software - Restricted
 Rights clause in FAR 52.227-19.
  
 Gaussian, Inc.
 340 Quinnipiac St., Bldg. 40, Wallingford CT 06492
  
  
 ---------------------------------------------------------------
 Warning -- This program may not be used in any manner that
 competes with the business of Gaussian, Inc. or will provide
 assistance to any competitor of Gaussian, Inc.  The licensee
 of this program is prohibited from giving any competitor of
 Gaussian, Inc. access to this program.  By using this program,
 the user acknowledges that Gaussian, Inc. is engaged in the
 business of creating and licensing software in the field of
 computational chemistry and represents and warrants to the
 licensee that it is not a competitor of Gaussian, Inc. and that
 it will not use this program in any manner prohibited above.
 ---------------------------------------------------------------
  

 Cite this work as:
 Gaussian 16, Revision A.03,
 M. J. Frisch, G. W. Trucks, H. B. Schlegel, G. E. Scuseria, 
 M. A. Robb, J. R. Cheeseman, G. Scalmani, V. Barone, 
 G. A. Petersson, H. Nakatsuji, X. Li, M. Caricato, A. V. Marenich, 
 J. Bloino, B. G. Janesko, R. Gomperts, B. Mennucci, H. P. Hratchian, 
 J. V. Ortiz, A. F. Izmaylov, J. L. Sonnenberg, D. Williams-Young, 
 F. Ding, F. Lipparini, F. Egidi, J. Goings, B. Peng, A. Petrone, 
 T. Henderson, D. Ranasinghe, V. G. Zakrzewski, J. Gao, N. Rega, 
 G. Zheng, W. Liang, M. Hada, M. Ehara, K. Toyota, R. Fukuda, 
 J. Hasegawa, M. Ishida, T. Nakajima, Y. Honda, O. Kitao, H. Nakai, 
 T. Vreven, K. Throssell, J. A. Montgomery, Jr., J. E. Peralta, 
 F. Ogliaro, M. J. Bearpark, J. J. Heyd, E. N. Brothers, K. N. Kudin, 
 V. N. Staroverov, T. A. Keith, R. Kobayashi, J. Normand, 
 K. Raghavachari, A. P. Rendell, J. C. Burant, S. S. Iyengar, 
 J. Tomasi, M. Cossi, J. M. Millam, M. Klene, C. Adamo, R. Cammi, 
 J. W. Ochterski, R. L. Martin, K. Morokuma, O. Farkas, 
 J. B. Foresman, and D. J. Fox, Gaussian, Inc., Wallingford CT, 2016.
 
 ******************************************
 Gaussian 16:  EM64L-G16RevA.03 25-Dec-2016
                17-Jan-2021 
 ******************************************
 %mem=30GB
 %nproc=8
 Will use up to    8 processors via shared memory.
 ----------------------------------------------------------------------
 #P LC-wHPBE/TZVP iop(3/107=0156200000, 3/108=0156200000) scf=(conver=6
 ,fermi,ndamp=35,noincfock,novaracc,vshift=500,xqc)
 ----------------------------------------------------------------------
 1/38=1,172=1/1;
 2/12=2,17=6,18=5,40=1/2;
 3/5=19,7=101,11=2,25=1,30=1,74=-71,107=156200000,108=156200000/1,2,3;
 4//1;
 5/5=100002,6=6,8=3,10=500,13=1,18=-1,22=13,38=1,93=35/2,8;
 6/7=2,8=2,9=2,10=2,28=1/1;
 99/5=1,9=1/99;
 Leave Link    1 at Sun Jan 17 20:04:29 2021, MaxMem=  4026531840 cpu:               1.1 elap:               0.2
 (Enter /opt/ohpc/pub/libs/gaussian/g16-A.03/sandybridge/g16/l101.exe)
 ----------
 H15 C18 N1
 ----------
 Symbolic Z-matrix:
 Charge =  0 Multiplicity = 1
 N                     0.00002  -0.00013  -0.00128 
 C                     0.41152  -1.35684  -0.00048 
 C                     1.49553  -1.76929   0.78118 
 C                    -0.26032  -2.30269  -0.78172 
 C                     1.90122  -3.09798   0.77159 
 C                     0.14061  -3.63281  -0.77087 
 C                     1.22528  -4.03895   0.00067 
 H                     2.02011  -1.039     1.39485 
 H                    -1.10182  -1.9873   -1.39616 
 H                     2.74809  -3.40206   1.38588 
 H                    -0.39449  -4.35669  -1.38461 
 H                     1.54142  -5.08084   0.00103 
 C                     0.96912   1.03471  -0.00049 
 C                     2.12304   0.92694  -0.78345 
 C                     0.78534   2.17869   0.78292 
 C                     3.07444   1.93923  -0.77269 
 C                     1.73325   3.1943    0.77353 
 C                     2.88509   3.08045   0.00089 
 H                     2.26992   0.04131  -1.39928 
 H                    -0.10857   2.2669    1.39801 
 H                     3.96786   1.83865  -1.38809 
 H                     1.57409   4.07887   1.38936 
 H                     3.62942   3.87508   0.00165 
 C                    -1.38073   0.32195  -0.00044 
 C                    -2.27969  -0.409     0.78299 
 C                    -1.86402   1.37524  -0.78348 
 C                    -3.63319  -0.0958    0.77326 
 C                    -3.21637   1.69329  -0.77288 
 C                    -4.11021   0.95866   0.00047 
 H                    -1.90927  -1.22721   1.39817 
 H                    -1.17018   1.94511  -1.3991 
 H                    -4.31985  -0.67576   1.389 
 H                    -3.57589   2.51727  -1.38835 
 H                    -5.17056   1.20591   0.00069 
 
 ITRead=  0  0  0  0  0  0  0  0  0  0  0  0  0  0  0  0  0  0  0  0
 ITRead=  0  0  0  0  0  0  0  0  0  0  0  0  0  0
 MicOpt= -1 -1 -1 -1 -1 -1 -1 -1 -1 -1 -1 -1 -1 -1 -1 -1 -1 -1 -1 -1
 MicOpt= -1 -1 -1 -1 -1 -1 -1 -1 -1 -1 -1 -1 -1 -1
 NAtoms=     34 NQM=       34 NQMF=       0 NMMI=      0 NMMIF=      0
                NMic=       0 NMicF=      0.
                    Isotopes and Nuclear Properties:
 (Nuclear quadrupole moments (NQMom) in fm**2, nuclear magnetic moments (NMagM)
  in nuclear magnetons)

  Atom         1           2           3           4           5           6           7           8           9          10
 IAtWgt=          14          12          12          12          12          12          12           1           1           1
 AtmWgt=  14.0030740  12.0000000  12.0000000  12.0000000  12.0000000  12.0000000  12.0000000   1.0078250   1.0078250   1.0078250
 NucSpn=           2           0           0           0           0           0           0           1           1           1
 AtZEff=  -0.0000000  -0.0000000  -0.0000000  -0.0000000  -0.0000000  -0.0000000  -0.0000000  -0.0000000  -0.0000000  -0.0000000
 NQMom=    2.0440000   0.0000000   0.0000000   0.0000000   0.0000000   0.0000000   0.0000000   0.0000000   0.0000000   0.0000000
 NMagM=    0.4037610   0.0000000   0.0000000   0.0000000   0.0000000   0.0000000   0.0000000   2.7928460   2.7928460   2.7928460
 AtZNuc=   7.0000000   6.0000000   6.0000000   6.0000000   6.0000000   6.0000000   6.0000000   1.0000000   1.0000000   1.0000000

  Atom        11          12          13          14          15          16          17          18          19          20
 IAtWgt=           1           1          12          12          12          12          12          12           1           1
 AtmWgt=   1.0078250   1.0078250  12.0000000  12.0000000  12.0000000  12.0000000  12.0000000  12.0000000   1.0078250   1.0078250
 NucSpn=           1           1           0           0           0           0           0           0           1           1
 AtZEff=  -0.0000000  -0.0000000  -0.0000000  -0.0000000  -0.0000000  -0.0000000  -0.0000000  -0.0000000  -0.0000000  -0.0000000
 NQMom=    0.0000000   0.0000000   0.0000000   0.0000000   0.0000000   0.0000000   0.0000000   0.0000000   0.0000000   0.0000000
 NMagM=    2.7928460   2.7928460   0.0000000   0.0000000   0.0000000   0.0000000   0.0000000   0.0000000   2.7928460   2.7928460
 AtZNuc=   1.0000000   1.0000000   6.0000000   6.0000000   6.0000000   6.0000000   6.0000000   6.0000000   1.0000000   1.0000000

  Atom        21          22          23          24          25          26          27          28          29          30
 IAtWgt=           1           1           1          12          12          12          12          12          12           1
 AtmWgt=   1.0078250   1.0078250   1.0078250  12.0000000  12.0000000  12.0000000  12.0000000  12.0000000  12.0000000   1.0078250
 NucSpn=           1           1           1           0           0           0           0           0           0           1
 AtZEff=  -0.0000000  -0.0000000  -0.0000000  -0.0000000  -0.0000000  -0.0000000  -0.0000000  -0.0000000  -0.0000000  -0.0000000
 NQMom=    0.0000000   0.0000000   0.0000000   0.0000000   0.0000000   0.0000000   0.0000000   0.0000000   0.0000000   0.0000000
 NMagM=    2.7928460   2.7928460   2.7928460   0.0000000   0.0000000   0.0000000   0.0000000   0.0000000   0.0000000   2.7928460
 AtZNuc=   1.0000000   1.0000000   1.0000000   6.0000000   6.0000000   6.0000000   6.0000000   6.0000000   6.0000000   1.0000000

  Atom        31          32          33          34
 IAtWgt=           1           1           1           1
 AtmWgt=   1.0078250   1.0078250   1.0078250   1.0078250
 NucSpn=           1           1           1           1
 AtZEff=  -0.0000000  -0.0000000  -0.0000000  -0.0000000
 NQMom=    0.0000000   0.0000000   0.0000000   0.0000000
 NMagM=    2.7928460   2.7928460   2.7928460   2.7928460
 AtZNuc=   1.0000000   1.0000000   1.0000000   1.0000000
 Leave Link  101 at Sun Jan 17 20:04:29 2021, MaxMem=  4026531840 cpu:               0.7 elap:               0.1
 (Enter /opt/ohpc/pub/libs/gaussian/g16-A.03/sandybridge/g16/l202.exe)
                          Input orientation:                          
 ---------------------------------------------------------------------
 Center     Atomic      Atomic             Coordinates (Angstroms)
 Number     Number       Type             X           Y           Z
 ---------------------------------------------------------------------
      1          7           0        0.000022   -0.000126   -0.001279
      2          6           0        0.411521   -1.356839   -0.000484
      3          6           0        1.495533   -1.769287    0.781179
      4          6           0       -0.260320   -2.302689   -0.781717
      5          6           0        1.901218   -3.097977    0.771590
      6          6           0        0.140608   -3.632811   -0.770872
      7          6           0        1.225282   -4.038950    0.000666
      8          1           0        2.020108   -1.039002    1.394849
      9          1           0       -1.101816   -1.987296   -1.396157
     10          1           0        2.748094   -3.402056    1.385878
     11          1           0       -0.394485   -4.356690   -1.384611
     12          1           0        1.541424   -5.080840    0.001027
     13          6           0        0.969124    1.034710   -0.000488
     14          6           0        2.123037    0.926935   -0.783450
     15          6           0        0.785335    2.178692    0.782922
     16          6           0        3.074444    1.939229   -0.772694
     17          6           0        1.733248    3.194302    0.773528
     18          6           0        2.885092    3.080453    0.000886
     19          1           0        2.269922    0.041314   -1.399284
     20          1           0       -0.108570    2.266902    1.398014
     21          1           0        3.967862    1.838651   -1.388087
     22          1           0        1.574087    4.078874    1.389358
     23          1           0        3.629424    3.875076    0.001646
     24          6           0       -1.380731    0.321945   -0.000436
     25          6           0       -2.279686   -0.409002    0.782988
     26          6           0       -1.864017    1.375244   -0.783483
     27          6           0       -3.633185   -0.095800    0.773256
     28          6           0       -3.216365    1.693293   -0.772877
     29          6           0       -4.110212    0.958658    0.000466
     30          1           0       -1.909274   -1.227214    1.398174
     31          1           0       -1.170181    1.945112   -1.399095
     32          1           0       -4.319851   -0.675761    1.389003
     33          1           0       -3.575887    2.517271   -1.388348
     34          1           0       -5.170565    1.205911    0.000686
 ---------------------------------------------------------------------
                    Distance matrix (angstroms):
                    1          2          3          4          5
     1  N    0.000000
     2  C    1.417745   0.000000
     3  C    2.445143   1.398639   0.000000
     4  C    2.445129   1.398688   2.410432   0.000000
     5  C    3.715986   2.418027   1.389277   2.778037   0.000000
     6  C    3.715971   2.418045   2.778022   1.389275   2.401038
     7  C    4.220588   2.802843   2.415286   2.415313   1.391633
     8  H    2.666305   2.153027   1.088617   3.396277   2.154522
     9  H    2.666191   2.153037   3.396254   1.088634   3.866646
    10  H    4.587944   3.400660   2.144879   3.867510   1.089501
    11  H    4.587907   3.400670   3.867489   2.144855   3.391727
    12  H    5.309386   3.891641   3.402518   3.402513   2.157537
    13  C    1.417761   2.455693   2.958126   3.641440   4.306275
    14  C    2.445082   2.959383   3.179849   4.013834   4.320564
    15  C    2.445186   3.640528   4.011349   4.860480   5.393381
    16  C    3.715945   4.307149   4.319788   5.395795   5.397658
    17  C    3.716015   4.801973   4.969284   6.050621   6.294521
    18  C    4.220616   5.080169   5.104871   6.283654   6.303570
    19  H    2.666192   2.713877   2.938090   3.503978   3.834551
    20  H    2.666314   3.918902   4.386850   5.065118   5.763123
    21  H    4.587820   4.978369   4.882145   5.949446   5.771093
    22  H    4.588005   5.729764   5.880224   6.985912   7.210814
    23  H    5.309403   6.142299   6.084406   7.342244   7.225163
    24  C    1.417818   2.455704   3.641026   2.958788   4.802404
    25  C    2.445265   2.958854   4.012812   3.179967   4.970983
    26  C    2.445021   3.640802   4.860331   4.012361   6.050203
    27  C    3.716080   4.306802   5.394847   4.320245   6.296244
    28  C    3.715936   4.802234   6.050333   4.970528   7.178531
    29  C    4.220580   5.080118   6.282959   5.105866   7.293025
    30  H    2.666388   2.712773   3.502462   2.937281   4.290945
    31  H    2.665936   3.919282   5.065213   4.387803   6.291114
    32  H    4.588101   4.977994   5.948440   4.882490   6.704478
    33  H    4.587851   5.730124   6.985752   5.881581   8.136032
    34  H    5.309378   6.142261   7.341514   6.085469   8.314317
                    6          7          8          9         10
     6  C    0.000000
     7  C    1.391667   0.000000
     8  H    3.866615   3.402232   0.000000
     9  H    2.154604   3.402320   4.293645   0.000000
    10  H    3.391725   2.154856   2.472664   4.956115   0.000000
    11  H    1.089496   2.154901   4.956078   2.472747   4.296829
    12  H    2.157522   1.088798   4.302131   4.302192   2.488409
    13  C    4.802675   5.080122   2.711423   3.920358   4.977111
    14  C    4.972069   5.106938   2.936067   4.389514   4.882299
    15  C    6.050084   6.282082   3.500382   5.066081   5.946489
    16  C    6.297224   6.305245   3.831413   5.766060   5.770205
    17  C    7.178520   7.292138   4.288262   6.292383   6.702001
    18  C    7.293539   7.310326   4.434100   6.597670   6.630226
    19  H    4.292793   4.438433   3.006105   3.934957   4.454500
    20  H    6.290689   6.595113   3.931956   5.185762   6.348052
    21  H    6.705649   6.632991   4.451895   6.351344   6.053737
    22  H    8.135818   8.243130   5.137277   7.191521   7.572491
    23  H    8.314866   8.271137   5.355285   7.661977   7.459859
    24  C    4.306755   5.080227   3.919784   2.712642   5.730379
    25  C    4.320330   5.106207   4.388565   2.937186   5.882212
    26  C    5.394376   6.282687   5.065584   3.501856   6.985720
    27  C    5.397804   6.304762   5.765044   3.833007   7.212999
    28  C    6.295765   7.292819   6.291671   4.290283   8.136189
    29  C    6.304445   7.310512   6.596649   4.436175   8.244486
    30  H    3.833233   4.436703   3.933888   3.006326   5.140152
    31  H    5.764205   6.595951   5.185461   3.933003   7.190352
    32  H    5.771040   6.632271   6.350359   4.453424   7.575522
    33  H    7.212290   8.244066   7.190857   5.139281   9.095466
    34  H    7.226139   8.271362   7.660881   5.357468   9.265920
                   11         12         13         14         15
    11  H    0.000000
    12  H    2.488399   0.000000
    13  C    5.730831   6.142270   0.000000
    14  C    5.883537   6.086628   1.398628   0.000000
    15  C    6.985799   7.340561   1.398644   2.410366   0.000000
    16  C    7.214327   7.227044   2.418022   1.389255   2.778004
    17  C    8.136479   8.313334   2.418021   2.777961   1.389277
    18  C    8.245382   8.271164   2.802856   2.415274   2.415312
    19  H    5.142151   5.359855   2.153031   1.088647   3.396234
    20  H    7.190043   7.659201   2.153028   3.396228   1.088662
    21  H    7.577093   7.463015   3.400615   2.144806   3.867478
    22  H    9.095544   9.264388   3.400674   3.867449   2.144898
    23  H    9.266905   9.196096   3.891642   3.402516   3.402492
    24  C    4.977775   6.142400   2.455576   3.640812   2.958547
    25  C    4.882285   6.085919   3.640454   4.860291   4.011298
    26  C    5.947768   7.341220   2.959009   4.012179   3.180915
    27  C    5.770680   7.226586   4.801873   6.050075   4.969580
    28  C    6.703694   8.314106   4.306813   5.394129   4.320848
    29  C    6.631590   8.271428   5.079905   6.282430   5.105595
    30  H    4.453324   5.358150   3.918894   5.065508   4.386302
    31  H    6.349380   7.660101   2.713219   3.501569   2.939354
    32  H    6.053980   7.462288   5.729717   6.985628   5.880320
    33  H    7.574475   9.265448   4.978079   5.947504   4.883575
    34  H    7.461402   9.196414   6.142076   7.340935   6.085305
                   16         17         18         19         20
    16  C    0.000000
    17  C    2.401003   0.000000
    18  C    1.391644   1.391647   0.000000
    19  H    2.154519   3.866583   3.402246   0.000000
    20  H    3.866642   2.154611   3.402329   4.293640   0.000000
    21  H    1.089505   3.391735   2.154927   2.472559   4.956113
    22  H    3.391699   1.089517   2.154863   4.956067   2.472782
    23  H    2.157570   2.157484   1.088787   4.302160   4.302170
    24  C    4.802143   4.306544   5.080021   3.919540   2.712363
    25  C    6.049880   5.393286   6.281951   5.065968   3.500352
    26  C    4.970573   4.321293   5.106565   4.387258   2.938635
    27  C    7.177994   6.294710   7.291987   6.291693   4.289009
    28  C    6.295615   5.398432   6.304816   5.763746   3.834082
    29  C    7.292364   6.304106   7.310013   6.595978   4.435965
    30  H    6.290984   5.762634   6.595025   5.186580   3.930825
    31  H    4.290601   3.835449   4.437813   3.931762   3.009051
    32  H    8.135521   7.210839   8.243010   7.191234   5.137532
    33  H    6.703735   5.772261   6.632601   6.348540   4.455198
    34  H    8.313606   7.225899   8.270884   7.660095   5.357427
                   21         22         23         24         25
    21  H    0.000000
    22  H    4.296854   0.000000
    23  H    2.488559   2.488310   0.000000
    24  C    5.730045   4.977649   6.142182   0.000000
    25  C    6.985511   5.946451   7.340395   1.398627   0.000000
    26  C    5.881420   4.883791   6.086336   1.398630   2.410424
    27  C    8.135688   6.702475   8.313166   2.417987   1.389298
    28  C    7.211985   5.771888   7.226679   2.418018   2.778080
    29  C    8.243649   6.631442   8.270880   2.802761   2.415297
    30  H    7.190515   6.347318   7.659036   2.152989   1.088637
    31  H    5.139158   4.456391   5.359388   2.152963   3.396224
    32  H    9.095091   7.572652   9.264224   3.400645   2.144921
    33  H    7.574211   6.056112   7.462722   3.400657   3.867546
    34  H    9.264982   7.461411   9.195882   3.891560   3.402517
                   26         27         28         29         30
    26  C    0.000000
    27  C    2.778014   0.000000
    28  C    1.389285   2.401066   0.000000
    29  C    2.415266   1.391632   1.391657   0.000000
    30  H    3.396242   2.154644   3.866692   3.402316   0.000000
    31  H    1.088640   3.866629   2.154630   3.402300   4.293556
    32  H    3.867485   1.089500   3.391729   2.154834   2.472866
    33  H    2.144898   3.391748   1.089495   2.154897   4.956155
    34  H    3.402478   2.157511   2.157507   1.088799   4.302219
                   31         32         33         34
    31  H    0.000000
    32  H    4.956096   0.000000
    33  H    2.472833   4.296814   0.000000
    34  H    4.302194   2.488338   2.488389   0.000000
 Stoichiometry    C18H15N
 Framework group  C1[X(C18H15N)]
 Deg. of freedom    96
 Full point group                 C1      NOp   1
 Largest Abelian subgroup         C1      NOp   1
 Largest concise Abelian subgroup C1      NOp   1
                         Standard orientation:                         
 ---------------------------------------------------------------------
 Center     Atomic      Atomic             Coordinates (Angstroms)
 Number     Number       Type             X           Y           Z
 ---------------------------------------------------------------------
      1          7           0       -0.000022    0.000126   -0.001279
      2          6           0       -0.411410    1.356873   -0.000484
      3          6           0       -1.495388    1.769410    0.781179
      4          6           0        0.260509    2.302668   -0.781717
      5          6           0       -1.900964    3.098133    0.771590
      6          6           0       -0.140310    3.632823   -0.770872
      7          6           0       -1.224951    4.039050    0.000666
      8          1           0       -2.020023    1.039168    1.394849
      9          1           0        1.101979    1.987206   -1.396157
     10          1           0       -2.747815    3.402281    1.385878
     11          1           0        0.394842    4.356658   -1.384611
     12          1           0       -1.541008    5.080966    0.001027
     13          6           0       -0.969209   -1.034631   -0.000488
     14          6           0       -2.123113   -0.926761   -0.783450
     15          6           0       -0.785513   -2.178628    0.782922
     16          6           0       -3.074603   -1.938977   -0.772694
     17          6           0       -1.733510   -3.194160    0.773528
     18          6           0       -2.885344   -3.080217    0.000886
     19          1           0       -2.269925   -0.041128   -1.399284
     20          1           0        0.108384   -2.266911    1.398014
     21          1           0       -3.968013   -1.838326   -1.388087
     22          1           0       -1.574421   -4.078745    1.389358
     23          1           0       -3.629741   -3.874779    0.001646
     24          6           0        1.380705   -0.322058   -0.000436
     25          6           0        2.279720    0.408815    0.782988
     26          6           0        1.863904   -1.375397   -0.783483
     27          6           0        3.633193    0.095502    0.773256
     28          6           0        3.216226   -1.693556   -0.772877
     29          6           0        4.110133   -0.958995    0.000466
     30          1           0        1.909375    1.227058    1.398174
     31          1           0        1.170022   -1.945208   -1.399095
     32          1           0        4.319906    0.675407    1.389003
     33          1           0        3.575681   -2.517564   -1.388348
     34          1           0        5.170466   -1.206335    0.000686
 ---------------------------------------------------------------------
 Rotational constants (GHZ):           0.4036067           0.4035965           0.2213359
 Leave Link  202 at Sun Jan 17 20:04:29 2021, MaxMem=  4026531840 cpu:               0.2 elap:               0.1
 (Enter /opt/ohpc/pub/libs/gaussian/g16-A.03/sandybridge/g16/l301.exe)
 Standard basis: TZVP (5D, 7F)
 Ernie: Thresh=  0.10000D-02 Tol=  0.10000D-05 Strict=F.
 There are   470 symmetry adapted cartesian basis functions of A   symmetry.
 There are   451 symmetry adapted basis functions of A   symmetry.
   451 basis functions,   785 primitive gaussians,   470 cartesian basis functions
    65 alpha electrons       65 beta electrons
       nuclear repulsion energy      1298.2205480218 Hartrees.
 IExCor=33909 DFT=T Ex+Corr=LC-wHPBE ExCW=0 ScaHFX=  1.000000
 ScaDFX=  1.000000  1.000000  1.000000  1.000000 ScalE2=  1.000000  1.000000
 IRadAn=      5 IRanWt=     -1 IRanGd=            0 ICorTp=0 IEmpDi=  4
 HFx  wShort=  0.000000 wLong=  0.156200 cFull=  0.000000 cShort=  0.000000 cLong=  1.000000
 DFx  wShort=  0.000000 wLong=  0.156200 cFull=  0.000000 cShort=  1.000000 cLong=  0.000000
 NAtoms=   34 NActive=   34 NUniq=   34 SFac= 1.00D+00 NAtFMM=   60 NAOKFM=F Big=F
 Integral buffers will be    131072 words long.
 Raffenetti 2 integral format.
 Two-electron integral symmetry is turned on.
 Leave Link  301 at Sun Jan 17 20:04:29 2021, MaxMem=  4026531840 cpu:               0.4 elap:               0.1
 (Enter /opt/ohpc/pub/libs/gaussian/g16-A.03/sandybridge/g16/l302.exe)
 NPDir=0 NMtPBC=     1 NCelOv=     1 NCel=       1 NClECP=     1 NCelD=      1
         NCelK=      1 NCelE2=     1 NClLst=     1 CellRange=     0.0.
 One-electron integrals computed using PRISM.
 One-electron integral symmetry used in STVInt
 NBasis=   451 RedAO= T EigKep=  8.44D-06  NBF=   451
 NBsUse=   451 1.00D-06 EigRej= -1.00D+00 NBFU=   451
 Precomputing XC quadrature grid using
 IXCGrd= 4 IRadAn=           5 IRanWt=          -1 IRanGd=           0 AccXCQ= 0.00D+00.
 Generated NRdTot=       0 NPtTot=           0 NUsed=           0 NTot=          32
 NSgBfM=   462   462   462   462   462 MxSgAt=    34 MxSgA2=    34.
 Leave Link  302 at Sun Jan 17 20:04:30 2021, MaxMem=  4026531840 cpu:               4.6 elap:               0.6
 (Enter /opt/ohpc/pub/libs/gaussian/g16-A.03/sandybridge/g16/l303.exe)
 DipDrv:  MaxL=1.
 Leave Link  303 at Sun Jan 17 20:04:30 2021, MaxMem=  4026531840 cpu:               0.5 elap:               0.1
 (Enter /opt/ohpc/pub/libs/gaussian/g16-A.03/sandybridge/g16/l401.exe)
 ExpMin= 9.52D-02 ExpMax= 1.97D+04 ExpMxC= 6.73D+02 IAcc=3 IRadAn=         5 AccDes= 0.00D+00
 Harris functional with IExCor=33909 and IRadAn=       5 diagonalized for initial guess.
 HarFok:  IExCor=33909 AccDes= 0.00D+00 IRadAn=         5 IDoV= 1 UseB2=F ITyADJ=14
 ICtDFT=  3500011 ScaDFX=  1.000000  1.000000  1.000000  1.000000
 FoFCou: FMM=F IPFlag=           0 FMFlag=      100000 FMFlg1=           0
         NFxFlg=           0 DoJE=T BraDBF=F KetDBF=T FulRan=T
         wScrn=  0.000000 ICntrl=       500 IOpCl=  0 I1Cent=   200000004 NGrid=           0
         NMat0=    1 NMatS0=      1 NMatT0=    0 NMatD0=    1 NMtDS0=    0 NMtDT0=    0
 Petite list used in FoFCou.
 Harris En= -738.323421743264    
 JPrj=0 DoOrth=F DoCkMO=F.
 Leave Link  401 at Sun Jan 17 20:04:34 2021, MaxMem=  4026531840 cpu:              28.5 elap:               3.6
 (Enter /opt/ohpc/pub/libs/gaussian/g16-A.03/sandybridge/g16/l502.exe)
 Integral symmetry usage will be decided dynamically.
 Closed shell SCF:
 Using DIIS extrapolation, IDIIS=    10.
 NGot=  4026531840 LenX=  4026081620 LenY=  4025860250
 Requested convergence on RMS density matrix=1.00D-06 within  32 cycles.
 Requested convergence on MAX density matrix=1.00D-04.
 Requested convergence on             energy=1.00D-04.
 Virtual orbitals will be shifted by   0.500 hartree.
 No special actions if energy rises.
 Dynamic level shift is on during FON iterations.

 Cycle   1  Pass 1  IDiag  1:
 FoFJK:  IHMeth= 1 ICntrl=       0 DoSepK=T KAlg= 0 I1Cent=           0 FoldK=F
 IRaf=         1 NMat=       1 IRICut=       1 DoRegI=T DoRafI=F ISym2E= 0 IDoP0=0 IntGTp=1.
 FoFCou: FMM=F IPFlag=           0 FMFlag=      100000 FMFlg1=           0
         NFxFlg=           0 DoJE=T BraDBF=F KetDBF=F FulRan=T
         wScrn=  0.000000 ICntrl=       500 IOpCl=  0 I1Cent=           0 NGrid=           0
         NMat0=    1 NMatS0=      1 NMatT0=    0 NMatD0=    1 NMtDS0=    0 NMtDT0=    0
 Symmetry not used in FoFCou.
 E= -748.813263880409    
 DIIS: error= 3.67D-02 at cycle   1 NSaved=   1.
 NSaved= 1 IEnMin= 1 EnMin= -748.813263880409     IErMin= 1 ErrMin= 3.67D-02
 ErrMax= 3.67D-02  0.00D+00 EMaxC= 1.00D+00 BMatC= 3.43D-01 BMatP= 3.43D-01
 IDIUse=1 WtCom= 1.00D+00 WtEn= 0.00D+00
 Coeff-Com:  0.100D+01
 Coeff:      0.100D+01
 Gap=     0.301 Goal=   None    Shift=    0.500
 T= 1616. Gap= 0.746 NK=0 IS=   66 IE=  451 IFin=   65
          NO(<0.9)=   0  NV(>0.1)=   0     65.00e < EF      0.00e >EF  Err=0.0D+00
 GapD=    0.301 DampG=1.000 DampE=0.500 DampFc=0.5000 IDamp=-1.
 Damping current iteration by 5.00D-01
 RMSDP=2.34D-03 MaxDP=5.75D-02              OVMax= 8.66D-02

 Cycle   2  Pass 1  IDiag  1:
 E= -749.036266780547     Delta-E=       -0.223002900138 Rises=F Damp=T
 DIIS: error= 1.68D-02 at cycle   2 NSaved=   2.
 NSaved= 2 IEnMin= 2 EnMin= -749.036266780547     IErMin= 2 ErrMin= 1.68D-02
 ErrMax= 1.68D-02  0.00D+00 EMaxC= 1.00D+00 BMatC= 5.55D-02 BMatP= 3.43D-01
 IDIUse=1 WtCom= 1.00D+00 WtEn= 0.00D+00
 Coeff-Com: -0.524D+00 0.152D+01
 Coeff:     -0.524D+00 0.152D+01
 Gap=     0.273 Goal=   None    Shift=    0.500
 T= 1497. Gap= 0.740 NK=0 IS=   66 IE=  451 IFin=   65
          NO(<0.9)=   0  NV(>0.1)=   0     65.00e < EF      0.00e >EF  Err=0.0D+00
 GapD=    0.273 DampG=1.000 DampE=0.500 DampFc=0.5000 IDamp=-1.
 Damping current iteration by 5.00D-01
 RMSDP=1.39D-03 MaxDP=4.72D-02 DE=-2.23D-01 OVMax= 2.12D-02

 Cycle   3  Pass 1  IDiag  1:
 E= -749.110556715780     Delta-E=       -0.074289935234 Rises=F Damp=T
 DIIS: error= 7.56D-03 at cycle   3 NSaved=   3.
 NSaved= 3 IEnMin= 3 EnMin= -749.110556715780     IErMin= 3 ErrMin= 7.56D-03
 ErrMax= 7.56D-03  0.00D+00 EMaxC= 1.00D+00 BMatC= 1.00D-02 BMatP= 5.55D-02
 IDIUse=1 WtCom= 1.00D+00 WtEn= 0.00D+00
 Coeff-Com:  0.587D-01-0.855D+00 0.180D+01
 Coeff:      0.587D-01-0.855D+00 0.180D+01
 Gap=     0.260 Goal=   None    Shift=    0.500
 T= 1263. Gap= 0.758 NK=0 IS=   66 IE=  451 IFin=   65
          NO(<0.9)=   0  NV(>0.1)=   0     65.00e < EF      0.00e >EF  Err=0.0D+00
 GapD=    0.260 DampG=1.000 DampE=1.000 DampFc=1.0000 IDamp=-1.
 RMSDP=7.32D-04 MaxDP=2.34D-02 DE=-7.43D-02 OVMax= 9.91D-03

 Cycle   4  Pass 1  IDiag  1:
 E= -749.171573145023     Delta-E=       -0.061016429242 Rises=F Damp=F
 DIIS: error= 1.48D-03 at cycle   4 NSaved=   4.
 NSaved= 4 IEnMin= 4 EnMin= -749.171573145023     IErMin= 4 ErrMin= 1.48D-03
 ErrMax= 1.48D-03  0.00D+00 EMaxC= 1.00D+00 BMatC= 5.98D-04 BMatP= 1.00D-02
 IDIUse=1 WtCom= 1.00D+00 WtEn= 0.00D+00
 Coeff-Com:  0.848D-01-0.249D+00 0.248D+00 0.915D+00
 Coeff:      0.848D-01-0.249D+00 0.248D+00 0.915D+00
 Gap=     0.254 Goal=   None    Shift=    0.500
 T=  747. Gap= 0.754 NK=0 IS=   66 IE=  451 IFin=   65
          NO(<0.9)=   0  NV(>0.1)=   0     65.00e < EF      0.00e >EF  Err=0.0D+00
 GapD=    0.254 DampG=1.000 DampE=1.000 DampFc=1.0000 IDamp=-1.
 RMSDP=2.18D-04 MaxDP=4.35D-03 DE=-6.10D-02 OVMax= 4.07D-03

 Cycle   5  Pass 1  IDiag  1:
 E= -749.172153905063     Delta-E=       -0.000580760041 Rises=F Damp=F
 DIIS: error= 6.51D-04 at cycle   5 NSaved=   5.
 NSaved= 5 IEnMin= 5 EnMin= -749.172153905063     IErMin= 5 ErrMin= 6.51D-04
 ErrMax= 6.51D-04  0.00D+00 EMaxC= 1.00D+00 BMatC= 8.17D-05 BMatP= 5.98D-04
 IDIUse=1 WtCom= 1.00D+00 WtEn= 0.00D+00
 Coeff-Com:  0.192D-01-0.144D-01-0.445D-01-0.161D+00 0.120D+01
 Coeff:      0.192D-01-0.144D-01-0.445D-01-0.161D+00 0.120D+01
 Gap=     0.254 Goal=   None    Shift=    0.500
 RMSDP=1.58D-04 MaxDP=3.69D-03 DE=-5.81D-04 OVMax= 2.97D-03

 Cycle   6  Pass 1  IDiag  1:
 E= -749.172275917086     Delta-E=       -0.000122012022 Rises=F Damp=F
 DIIS: error= 6.56D-04 at cycle   6 NSaved=   6.
 NSaved= 6 IEnMin= 6 EnMin= -749.172275917086     IErMin= 5 ErrMin= 6.51D-04
 ErrMax= 6.56D-04  0.00D+00 EMaxC= 1.00D+00 BMatC= 1.33D-05 BMatP= 8.17D-05
 IDIUse=1 WtCom= 1.00D+00 WtEn= 0.00D+00
 Coeff-Com: -0.852D-02 0.360D-01-0.519D-01-0.219D+00 0.132D+00 0.111D+01
 Coeff:     -0.852D-02 0.360D-01-0.519D-01-0.219D+00 0.132D+00 0.111D+01
 Gap=     0.254 Goal=   None    Shift=    0.500
 RMSDP=9.34D-05 MaxDP=2.37D-03 DE=-1.22D-04 OVMax= 2.61D-03

 Cycle   7  Pass 1  IDiag  1:
 E= -749.172310026389     Delta-E=       -0.000034109303 Rises=F Damp=F
 DIIS: error= 4.69D-04 at cycle   7 NSaved=   7.
 NSaved= 7 IEnMin= 7 EnMin= -749.172310026389     IErMin= 7 ErrMin= 4.69D-04
 ErrMax= 4.69D-04  0.00D+00 EMaxC= 1.00D+00 BMatC= 3.28D-06 BMatP= 1.33D-05
 IDIUse=1 WtCom= 1.00D+00 WtEn= 0.00D+00
 Coeff-Com: -0.541D-02 0.728D-02 0.178D-02 0.166D-01-0.262D+00-0.407D+00
 Coeff-Com:  0.165D+01
 Coeff:     -0.541D-02 0.728D-02 0.178D-02 0.166D-01-0.262D+00-0.407D+00
 Coeff:      0.165D+01
 Gap=     0.254 Goal=   None    Shift=    0.500
 RMSDP=5.09D-05 MaxDP=1.31D-03 DE=-3.41D-05 OVMax= 1.98D-03

 Cycle   8  Pass 1  IDiag  1:
 E= -749.172323482536     Delta-E=       -0.000013456148 Rises=F Damp=F
 DIIS: error= 3.35D-04 at cycle   8 NSaved=   8.
 NSaved= 8 IEnMin= 8 EnMin= -749.172323482536     IErMin= 8 ErrMin= 3.35D-04
 ErrMax= 3.35D-04  0.00D+00 EMaxC= 1.00D+00 BMatC= 1.23D-06 BMatP= 3.28D-06
 IDIUse=1 WtCom= 1.00D+00 WtEn= 0.00D+00
 Coeff-Com:  0.221D-02-0.732D-02 0.718D-02 0.595D-01-0.293D-01-0.315D+00
 Coeff-Com: -0.855D+00 0.214D+01
 Coeff:      0.221D-02-0.732D-02 0.718D-02 0.595D-01-0.293D-01-0.315D+00
 Coeff:     -0.855D+00 0.214D+01
 Gap=     0.254 Goal=   None    Shift=    0.500
 RMSDP=2.31D-05 MaxDP=5.40D-04 DE=-1.35D-05 OVMax= 1.48D-03

 Cycle   9  Pass 1  IDiag  1:
 E= -749.172329411512     Delta-E=       -0.000005928975 Rises=F Damp=F
 DIIS: error= 2.31D-04 at cycle   9 NSaved=   9.
 NSaved= 9 IEnMin= 9 EnMin= -749.172329411512     IErMin= 9 ErrMin= 2.31D-04
 ErrMax= 2.31D-04  0.00D+00 EMaxC= 1.00D+00 BMatC= 5.14D-07 BMatP= 1.23D-06
 IDIUse=1 WtCom= 1.00D+00 WtEn= 0.00D+00
 Coeff-Com:  0.171D-02-0.265D-04-0.550D-02 0.274D-01 0.729D-01-0.727D-01
 Coeff-Com: -0.859D+00 0.341D+00 0.149D+01
 Coeff:      0.171D-02-0.265D-04-0.550D-02 0.274D-01 0.729D-01-0.727D-01
 Coeff:     -0.859D+00 0.341D+00 0.149D+01
 Gap=     0.254 Goal=   None    Shift=    0.500
 RMSDP=9.58D-06 MaxDP=1.67D-04 DE=-5.93D-06 OVMax= 1.01D-03

 Cycle  10  Pass 1  IDiag  1:
 E= -749.172331912481     Delta-E=       -0.000002500969 Rises=F Damp=F
 DIIS: error= 1.58D-04 at cycle  10 NSaved=  10.
 NSaved=10 IEnMin=10 EnMin= -749.172331912481     IErMin=10 ErrMin= 1.58D-04
 ErrMax= 1.58D-04  0.00D+00 EMaxC= 1.00D+00 BMatC= 2.25D-07 BMatP= 5.14D-07
 IDIUse=1 WtCom= 1.00D+00 WtEn= 0.00D+00
 Coeff-Com: -0.389D-03 0.609D-02-0.105D-01-0.264D-02 0.641D-01 0.518D-01
 Coeff-Com: -0.128D+00-0.717D+00-0.695D-01 0.181D+01
 Coeff:     -0.389D-03 0.609D-02-0.105D-01-0.264D-02 0.641D-01 0.518D-01
 Coeff:     -0.128D+00-0.717D+00-0.695D-01 0.181D+01
 Gap=     0.254 Goal=   None    Shift=    0.500
 RMSDP=4.66D-06 MaxDP=9.97D-05 DE=-2.50D-06 OVMax= 7.03D-04

 Cycle  11  Pass 1  IDiag  1:
 E= -749.172332985165     Delta-E=       -0.000001072684 Rises=F Damp=F
 DIIS: error= 1.02D-04 at cycle  11 NSaved=  11.
 NSaved=11 IEnMin=11 EnMin= -749.172332985165     IErMin=11 ErrMin= 1.02D-04
 ErrMax= 1.02D-04  0.00D+00 EMaxC= 1.00D+00 BMatC= 1.06D-07 BMatP= 2.25D-07
 IDIUse=1 WtCom= 1.00D+00 WtEn= 0.00D+00
 Coeff-Com: -0.727D-03 0.277D-02-0.283D-02 0.162D-03-0.914D-02 0.244D-02
 Coeff-Com:  0.189D+00-0.185D-01-0.954D+00-0.450D+00 0.224D+01
 Coeff:     -0.727D-03 0.277D-02-0.283D-02 0.162D-03-0.914D-02 0.244D-02
 Coeff:      0.189D+00-0.185D-01-0.954D+00-0.450D+00 0.224D+01
 Gap=     0.254 Goal=   None    Shift=    0.500
 RMSDP=2.84D-06 MaxDP=6.75D-05 DE=-1.07D-06 OVMax= 4.64D-04

 Cycle  12  Pass 1  IDiag  1:
 E= -749.172333428566     Delta-E=       -0.000000443400 Rises=F Damp=F
 DIIS: error= 6.50D-05 at cycle  12 NSaved=  12.
 NSaved=12 IEnMin=12 EnMin= -749.172333428566     IErMin=12 ErrMin= 6.50D-05
 ErrMax= 6.50D-05  0.00D+00 EMaxC= 1.00D+00 BMatC= 5.07D-08 BMatP= 1.06D-07
 IDIUse=1 WtCom= 1.00D+00 WtEn= 0.00D+00
 Coeff-Com: -0.128D-03 0.758D-03-0.967D-03 0.556D-02-0.121D-01-0.106D-01
 Coeff-Com: -0.802D-02 0.269D+00-0.339D+00-0.216D+00-0.116D+01 0.247D+01
 Coeff:     -0.128D-03 0.758D-03-0.967D-03 0.556D-02-0.121D-01-0.106D-01
 Coeff:     -0.802D-02 0.269D+00-0.339D+00-0.216D+00-0.116D+01 0.247D+01
 Gap=     0.254 Goal=   None    Shift=    0.500
 RMSDP=1.60D-06 MaxDP=4.07D-05 DE=-4.43D-07 OVMax= 2.91D-04

 Cycle  13  Pass 1  IDiag  1:
 E= -749.172333604051     Delta-E=       -0.000000175485 Rises=F Damp=F
 DIIS: error= 4.16D-05 at cycle  13 NSaved=  13.
 NSaved=13 IEnMin=13 EnMin= -749.172333604051     IErMin=13 ErrMin= 4.16D-05
 ErrMax= 4.16D-05  0.00D+00 EMaxC= 1.00D+00 BMatC= 2.35D-08 BMatP= 5.07D-08
 IDIUse=1 WtCom= 1.00D+00 WtEn= 0.00D+00
 Coeff-Com:  0.841D-04 0.138D-03-0.522D-03 0.486D-02-0.563D-02-0.783D-02
 Coeff-Com: -0.725D-01 0.227D+00 0.254D-01-0.485D-02-0.173D+01 0.131D+01
 Coeff-Com:  0.126D+01
 Coeff:      0.841D-04 0.138D-03-0.522D-03 0.486D-02-0.563D-02-0.783D-02
 Coeff:     -0.725D-01 0.227D+00 0.254D-01-0.485D-02-0.173D+01 0.131D+01
 Coeff:      0.126D+01
 Gap=     0.254 Goal=   None    Shift=    0.500
 RMSDP=9.59D-07 MaxDP=2.53D-05 DE=-1.75D-07 OVMax= 1.83D-04

 SCF Done:  E(RLC-wHPBE) =  -749.172333604     A.U. after   13 cycles
            NFock= 13  Conv=0.96D-06     -V/T= 2.0047
 KE= 7.456759735704D+02 PE=-4.335900605264D+03 EE= 1.542831750068D+03
 Leave Link  502 at Sun Jan 17 20:08:50 2021, MaxMem=  4026531840 cpu:            2044.6 elap:             256.3
 (Enter /opt/ohpc/pub/libs/gaussian/g16-A.03/sandybridge/g16/l508.exe)
 QCSCF skips out because SCF is already converged.
 Leave Link  508 at Sun Jan 17 20:08:50 2021, MaxMem=  4026531840 cpu:               0.1 elap:               0.0
 (Enter /opt/ohpc/pub/libs/gaussian/g16-A.03/sandybridge/g16/l601.exe)
 Copying SCF densities to generalized density rwf, IOpCl= 0 IROHF=0.

 **********************************************************************

            Population analysis using the SCF density.

 **********************************************************************

 Orbital symmetries:
       Occupied  (A) (A) (A) (A) (A) (A) (A) (A) (A) (A) (A) (A)
                 (A) (A) (A) (A) (A) (A) (A) (A) (A) (A) (A) (A)
                 (A) (A) (A) (A) (A) (A) (A) (A) (A) (A) (A) (A)
                 (A) (A) (A) (A) (A) (A) (A) (A) (A) (A) (A) (A)
                 (A) (A) (A) (A) (A) (A) (A) (A) (A) (A) (A) (A)
                 (A) (A) (A) (A) (A)
       Virtual   (A) (A) (A) (A) (A) (A) (A) (A) (A) (A) (A) (A)
                 (A) (A) (A) (A) (A) (A) (A) (A) (A) (A) (A) (A)
                 (A) (A) (A) (A) (A) (A) (A) (A) (A) (A) (A) (A)
                 (A) (A) (A) (A) (A) (A) (A) (A) (A) (A) (A) (A)
                 (A) (A) (A) (A) (A) (A) (A) (A) (A) (A) (A) (A)
                 (A) (A) (A) (A) (A) (A) (A) (A) (A) (A) (A) (A)
                 (A) (A) (A) (A) (A) (A) (A) (A) (A) (A) (A) (A)
                 (A) (A) (A) (A) (A) (A) (A) (A) (A) (A) (A) (A)
                 (A) (A) (A) (A) (A) (A) (A) (A) (A) (A) (A) (A)
                 (A) (A) (A) (A) (A) (A) (A) (A) (A) (A) (A) (A)
                 (A) (A) (A) (A) (A) (A) (A) (A) (A) (A) (A) (A)
                 (A) (A) (A) (A) (A) (A) (A) (A) (A) (A) (A) (A)
                 (A) (A) (A) (A) (A) (A) (A) (A) (A) (A) (A) (A)
                 (A) (A) (A) (A) (A) (A) (A) (A) (A) (A) (A) (A)
                 (A) (A) (A) (A) (A) (A) (A) (A) (A) (A) (A) (A)
                 (A) (A) (A) (A) (A) (A) (A) (A) (A) (A) (A) (A)
                 (A) (A) (A) (A) (A) (A) (A) (A) (A) (A) (A) (A)
                 (A) (A) (A) (A) (A) (A) (A) (A) (A) (A) (A) (A)
                 (A) (A) (A) (A) (A) (A) (A) (A) (A) (A) (A) (A)
                 (A) (A) (A) (A) (A) (A) (A) (A) (A) (A) (A) (A)
                 (A) (A) (A) (A) (A) (A) (A) (A) (A) (A) (A) (A)
                 (A) (A) (A) (A) (A) (A) (A) (A) (A) (A) (A) (A)
                 (A) (A) (A) (A) (A) (A) (A) (A) (A) (A) (A) (A)
                 (A) (A) (A) (A) (A) (A) (A) (A) (A) (A) (A) (A)
                 (A) (A) (A) (A) (A) (A) (A) (A) (A) (A) (A) (A)
                 (A) (A) (A) (A) (A) (A) (A) (A) (A) (A) (A) (A)
                 (A) (A) (A) (A) (A) (A) (A) (A) (A) (A) (A) (A)
                 (A) (A) (A) (A) (A) (A) (A) (A) (A) (A) (A) (A)
                 (A) (A) (A) (A) (A) (A) (A) (A) (A) (A) (A) (A)
                 (A) (A) (A) (A) (A) (A) (A) (A) (A) (A) (A) (A)
                 (A) (A) (A) (A) (A) (A) (A) (A) (A) (A) (A) (A)
                 (A) (A) (A) (A) (A) (A) (A) (A) (A) (A) (A) (A)
                 (A) (A)
 The electronic state is 1-A.
 Alpha  occ. eigenvalues --  -14.10911 -10.01735 -10.01735 -10.01733  -9.97717
 Alpha  occ. eigenvalues --   -9.97717  -9.97716  -9.97716  -9.97713  -9.97713
 Alpha  occ. eigenvalues --   -9.97448  -9.97448  -9.97447  -9.97447  -9.97444
 Alpha  occ. eigenvalues --   -9.97443  -9.97250  -9.97250  -9.97245  -0.98088
 Alpha  occ. eigenvalues --   -0.87570  -0.87568  -0.85612  -0.78237  -0.78235
 Alpha  occ. eigenvalues --   -0.76728  -0.76617  -0.76615  -0.73188  -0.65931
 Alpha  occ. eigenvalues --   -0.65929  -0.63583  -0.63038  -0.63037  -0.60387
 Alpha  occ. eigenvalues --   -0.57375  -0.57374  -0.54050  -0.51751  -0.51748
 Alpha  occ. eigenvalues --   -0.50546  -0.48866  -0.48865  -0.47755  -0.46963
 Alpha  occ. eigenvalues --   -0.46962  -0.46176  -0.45906  -0.45905  -0.42519
 Alpha  occ. eigenvalues --   -0.42185  -0.42183  -0.40913  -0.39721  -0.39718
 Alpha  occ. eigenvalues --   -0.39215  -0.38149  -0.38147  -0.35812  -0.31744
 Alpha  occ. eigenvalues --   -0.31742  -0.31692  -0.30512  -0.30510  -0.23833
 Alpha virt. eigenvalues --    0.01574   0.01949   0.01951   0.03910   0.03913
 Alpha virt. eigenvalues --    0.06632   0.09503   0.10454   0.10455   0.12881
 Alpha virt. eigenvalues --    0.12882   0.13091   0.13401   0.14605   0.14606
 Alpha virt. eigenvalues --    0.15676   0.15676   0.15846   0.16293   0.17248
 Alpha virt. eigenvalues --    0.17248   0.17501   0.17501   0.19669   0.20941
 Alpha virt. eigenvalues --    0.23345   0.23345   0.23645   0.24212   0.24752
 Alpha virt. eigenvalues --    0.25079   0.25081   0.25969   0.25971   0.27119
 Alpha virt. eigenvalues --    0.27201   0.27207   0.28327   0.28328   0.28757
 Alpha virt. eigenvalues --    0.28973   0.29063   0.29067   0.29865   0.30430
 Alpha virt. eigenvalues --    0.30435   0.31622   0.31622   0.32825   0.32827
 Alpha virt. eigenvalues --    0.33509   0.34421   0.34423   0.35391   0.35795
 Alpha virt. eigenvalues --    0.36854   0.37068   0.37071   0.37826   0.37829
 Alpha virt. eigenvalues --    0.39466   0.41122   0.41437   0.41442   0.42072
 Alpha virt. eigenvalues --    0.42344   0.42346   0.43612   0.43613   0.43686
 Alpha virt. eigenvalues --    0.43873   0.44579   0.44586   0.44986   0.45781
 Alpha virt. eigenvalues --    0.45783   0.47001   0.47200   0.47202   0.47994
 Alpha virt. eigenvalues --    0.47999   0.48201   0.49455   0.49456   0.50298
 Alpha virt. eigenvalues --    0.51534   0.51535   0.52458   0.52516   0.52519
 Alpha virt. eigenvalues --    0.53688   0.53862   0.53948   0.53953   0.54718
 Alpha virt. eigenvalues --    0.55125   0.55136   0.55729   0.57130   0.57133
 Alpha virt. eigenvalues --    0.59188   0.59250   0.59258   0.59444   0.62184
 Alpha virt. eigenvalues --    0.62186   0.64487   0.65133   0.66472   0.66475
 Alpha virt. eigenvalues --    0.70357   0.70358   0.71511   0.71516   0.72905
 Alpha virt. eigenvalues --    0.73182   0.73186   0.73766   0.73838   0.73840
 Alpha virt. eigenvalues --    0.73858   0.75825   0.75837   0.79484   0.79510
 Alpha virt. eigenvalues --    0.79886   0.81617   0.81622   0.84726   0.88337
 Alpha virt. eigenvalues --    0.88347   0.89186   0.89483   0.95499   0.95507
 Alpha virt. eigenvalues --    0.97677   1.16260   1.18742   1.18743   1.22069
 Alpha virt. eigenvalues --    1.22074   1.22525   1.25426   1.25427   1.25942
 Alpha virt. eigenvalues --    1.26467   1.26469   1.27934   1.28678   1.29126
 Alpha virt. eigenvalues --    1.29129   1.30247   1.30254   1.31003   1.31007
 Alpha virt. eigenvalues --    1.31301   1.32337   1.32808   1.32858   1.32859
 Alpha virt. eigenvalues --    1.34167   1.34169   1.34817   1.36198   1.36347
 Alpha virt. eigenvalues --    1.37087   1.37096   1.44318   1.44321   1.44928
 Alpha virt. eigenvalues --    1.45464   1.45466   1.46068   1.46071   1.46220
 Alpha virt. eigenvalues --    1.46489   1.46764   1.47077   1.47083   1.48121
 Alpha virt. eigenvalues --    1.48125   1.49257   1.49746   1.49754   1.49816
 Alpha virt. eigenvalues --    1.50755   1.50760   1.52640   1.53459   1.53844
 Alpha virt. eigenvalues --    1.53849   1.54855   1.54859   1.56747   1.56750
 Alpha virt. eigenvalues --    1.56991   1.57318   1.57739   1.57742   1.58982
 Alpha virt. eigenvalues --    1.59315   1.59315   1.60320   1.60323   1.60766
 Alpha virt. eigenvalues --    1.61685   1.62196   1.62203   1.68628   1.69069
 Alpha virt. eigenvalues --    1.69070   1.72848   1.72864   1.77694   1.77703
 Alpha virt. eigenvalues --    1.78183   1.78255   1.78760   1.78761   1.79436
 Alpha virt. eigenvalues --    1.80775   1.80989   1.80991   1.81553   1.82993
 Alpha virt. eigenvalues --    1.83007   1.83599   1.83607   1.84116   1.85801
 Alpha virt. eigenvalues --    1.88379   1.88380   1.89722   1.89725   1.90102
 Alpha virt. eigenvalues --    1.90103   1.92309   1.92644   1.92648   1.93563
 Alpha virt. eigenvalues --    1.93571   1.93840   1.93853   1.93862   1.94462
 Alpha virt. eigenvalues --    1.95088   1.95097   1.96214   1.98943   1.98962
 Alpha virt. eigenvalues --    1.98965   2.00951   2.01383   2.01383   2.04050
 Alpha virt. eigenvalues --    2.04063   2.05229   2.08998   2.09001   2.12890
 Alpha virt. eigenvalues --    2.13073   2.13076   2.16730   2.21117   2.21120
 Alpha virt. eigenvalues --    2.24239   2.25455   2.25463   2.27677   2.30537
 Alpha virt. eigenvalues --    2.30540   2.31923   2.31936   2.32609   2.32609
 Alpha virt. eigenvalues --    2.33002   2.33006   2.35122   2.35337   2.35341
 Alpha virt. eigenvalues --    2.35936   2.36967   2.37711   2.37715   2.38065
 Alpha virt. eigenvalues --    2.38069   2.39148   2.46310   2.46316   2.47124
 Alpha virt. eigenvalues --    2.50552   2.50559   2.51974   2.51976   2.53145
 Alpha virt. eigenvalues --    2.53146   2.53337   2.54093   2.56174   2.56181
 Alpha virt. eigenvalues --    2.57184   2.60735   2.64525   2.64528   2.65307
 Alpha virt. eigenvalues --    2.65661   2.65667   2.65792   2.65794   2.67462
 Alpha virt. eigenvalues --    2.68125   2.68943   2.68945   2.74862   2.75439
 Alpha virt. eigenvalues --    2.75440   2.77639   2.77649   2.79089   2.80243
 Alpha virt. eigenvalues --    2.83078   2.83081   2.85283   2.85750   2.85756
 Alpha virt. eigenvalues --    2.90310   2.97608   2.97622   2.98775   2.98783
 Alpha virt. eigenvalues --    3.01844   3.03145   3.03148   3.03547   3.04395
 Alpha virt. eigenvalues --    3.05826   3.05832   3.09697   3.11200   3.11202
 Alpha virt. eigenvalues --    3.12242   3.13948   3.16175   3.16180   3.18043
 Alpha virt. eigenvalues --    3.18044   3.20326   3.20327   3.21206   3.21207
 Alpha virt. eigenvalues --    3.22112   3.25878   3.33426   3.33432   3.34192
 Alpha virt. eigenvalues --    3.39038   3.41840   3.41844   3.47074   3.52974
 Alpha virt. eigenvalues --    3.55718   3.55729   3.61513   3.61517   3.82126
 Alpha virt. eigenvalues --    3.92628   3.92631  21.18275  21.20915  21.20918
 Alpha virt. eigenvalues --   21.66328  21.69706  21.69708  21.70329  21.78179
 Alpha virt. eigenvalues --   21.78184  21.89191  21.92584  21.94730  21.94735
 Alpha virt. eigenvalues --   22.00438  22.00441  22.06337  22.12818  22.12842
 Alpha virt. eigenvalues --   32.02787
          Condensed to atoms (all electrons):
               1          2          3          4          5          6
     1  N    6.501453   0.177345  -0.014091  -0.013631   0.013577   0.013562
     2  C    0.177345   5.428813   0.351712   0.351598   0.026285   0.026263
     3  C   -0.014091   0.351712   5.272120  -0.051591   0.348383  -0.141797
     4  C   -0.013631   0.351598  -0.051591   5.271958  -0.141704   0.348337
     5  C    0.013577   0.026285   0.348383  -0.141704   5.102799   0.039559
     6  C    0.013562   0.026263  -0.141797   0.348337   0.039559   5.103011
     7  C    0.005832  -0.103704  -0.014814  -0.014808   0.418719   0.418641
     8  H   -0.007842  -0.037208   0.397042   0.013507  -0.045059  -0.001248
     9  H   -0.007802  -0.037240   0.013539   0.397081  -0.001259  -0.045117
    10  H   -0.000601   0.018870  -0.055424  -0.002523   0.416945   0.017686
    11  H   -0.000602   0.018874  -0.002521  -0.055437   0.017686   0.416953
    12  H   -0.000040  -0.008226   0.026055   0.026054  -0.075168  -0.075180
    13  C    0.176914  -0.094486   0.026285  -0.004974  -0.001051  -0.004935
    14  C   -0.013591   0.026193  -0.055492   0.013716  -0.007459   0.003326
    15  C   -0.014078  -0.005243   0.013786  -0.009035   0.000771  -0.000235
    16  C    0.013575  -0.000931  -0.007498   0.000775  -0.000643   0.000097
    17  C    0.013618  -0.004899   0.003321  -0.000232   0.000096  -0.000054
    18  C    0.005832   0.002422  -0.000838   0.000063  -0.000064   0.000018
    19  H   -0.007770   0.002649   0.001892  -0.000568  -0.001399   0.000473
    20  H   -0.007848  -0.001241   0.000298  -0.000253  -0.000005   0.000014
    21  H   -0.000603  -0.000206   0.000045  -0.000033   0.000029  -0.000001
    22  H   -0.000602   0.000013  -0.000027   0.000001  -0.000001   0.000000
    23  H   -0.000040   0.000019  -0.000016   0.000001  -0.000001  -0.000000
    24  C    0.176889  -0.094551  -0.005077   0.026196  -0.004914  -0.001014
    25  C   -0.014092   0.026323   0.013785  -0.055427   0.003312  -0.007489
    26  C   -0.013619  -0.005076  -0.009050   0.013723  -0.000232   0.000779
    27  C    0.013613  -0.001017   0.000778  -0.007488   0.000096  -0.000647
    28  C    0.013593  -0.004939  -0.000232   0.003323  -0.000054   0.000096
    29  C    0.005828   0.002457   0.000063  -0.000840   0.000018  -0.000063
    30  H   -0.007822   0.002724  -0.000559   0.001861   0.000477  -0.001397
    31  H   -0.007797  -0.001217  -0.000254   0.000293   0.000014  -0.000005
    32  H   -0.000602  -0.000207  -0.000033   0.000044  -0.000001   0.000029
    33  H   -0.000603   0.000013   0.000001  -0.000027   0.000000  -0.000001
    34  H   -0.000040   0.000019   0.000001  -0.000016  -0.000000  -0.000001
               7          8          9         10         11         12
     1  N    0.005832  -0.007842  -0.007802  -0.000601  -0.000602  -0.000040
     2  C   -0.103704  -0.037208  -0.037240   0.018870   0.018874  -0.008226
     3  C   -0.014814   0.397042   0.013539  -0.055424  -0.002521   0.026055
     4  C   -0.014808   0.013507   0.397081  -0.002523  -0.055437   0.026054
     5  C    0.418719  -0.045059  -0.001259   0.416945   0.017686  -0.075168
     6  C    0.418641  -0.001248  -0.045117   0.017686   0.416953  -0.075180
     7  C    5.070722   0.010826   0.010843  -0.070280  -0.070286   0.432716
     8  H    0.010826   0.528451  -0.000301  -0.007825   0.000019  -0.000129
     9  H    0.010843  -0.000301   0.528530   0.000019  -0.007830  -0.000129
    10  H   -0.070280  -0.007825   0.000019   0.590368  -0.000278  -0.009337
    11  H   -0.070286   0.000019  -0.007830  -0.000278   0.590375  -0.009336
    12  H    0.432716  -0.000129  -0.000129  -0.009337  -0.009336   0.591468
    13  C    0.002460   0.002781  -0.001217  -0.000207   0.000013   0.000019
    14  C   -0.000849   0.001836   0.000291   0.000044  -0.000026  -0.000016
    15  C    0.000065  -0.000563  -0.000253  -0.000033   0.000001   0.000001
    16  C   -0.000064  -0.001398  -0.000005   0.000029  -0.000001  -0.000001
    17  C    0.000018   0.000481   0.000014  -0.000001   0.000000  -0.000000
    18  C   -0.000009   0.000425  -0.000005  -0.000002   0.000000  -0.000000
    19  H    0.000428   0.000940   0.000033  -0.000049   0.000003   0.000003
    20  H   -0.000005   0.000034  -0.000007  -0.000000  -0.000000   0.000000
    21  H   -0.000002  -0.000049  -0.000000  -0.000000   0.000000  -0.000000
    22  H    0.000000   0.000003  -0.000000   0.000000  -0.000000  -0.000000
    23  H   -0.000000   0.000003   0.000000  -0.000000  -0.000000   0.000000
    24  C    0.002437  -0.001238   0.002732   0.000013  -0.000206   0.000019
    25  C   -0.000835   0.000298   0.001878  -0.000027   0.000044  -0.000016
    26  C    0.000063  -0.000254  -0.000583   0.000001  -0.000033   0.000001
    27  C   -0.000063  -0.000005  -0.001396  -0.000001   0.000029  -0.000001
    28  C    0.000018   0.000014   0.000478   0.000000  -0.000001  -0.000000
    29  C   -0.000010  -0.000004   0.000425   0.000000  -0.000002  -0.000000
    30  H    0.000425   0.000033   0.000939   0.000003  -0.000049   0.000003
    31  H   -0.000005  -0.000007   0.000034  -0.000000  -0.000000   0.000000
    32  H   -0.000002  -0.000000  -0.000049   0.000000  -0.000000  -0.000000
    33  H    0.000000  -0.000000   0.000003  -0.000000   0.000000  -0.000000
    34  H   -0.000000   0.000000   0.000003  -0.000000  -0.000000   0.000000
              13         14         15         16         17         18
     1  N    0.176914  -0.013591  -0.014078   0.013575   0.013618   0.005832
     2  C   -0.094486   0.026193  -0.005243  -0.000931  -0.004899   0.002422
     3  C    0.026285  -0.055492   0.013786  -0.007498   0.003321  -0.000838
     4  C   -0.004974   0.013716  -0.009035   0.000775  -0.000232   0.000063
     5  C   -0.001051  -0.007459   0.000771  -0.000643   0.000096  -0.000064
     6  C   -0.004935   0.003326  -0.000235   0.000097  -0.000054   0.000018
     7  C    0.002460  -0.000849   0.000065  -0.000064   0.000018  -0.000009
     8  H    0.002781   0.001836  -0.000563  -0.001398   0.000481   0.000425
     9  H   -0.001217   0.000291  -0.000253  -0.000005   0.000014  -0.000005
    10  H   -0.000207   0.000044  -0.000033   0.000029  -0.000001  -0.000002
    11  H    0.000013  -0.000026   0.000001  -0.000001   0.000000   0.000000
    12  H    0.000019  -0.000016   0.000001  -0.000001  -0.000000  -0.000000
    13  C    5.430511   0.351491   0.351645   0.026256   0.026353  -0.103747
    14  C    0.351491   5.271347  -0.051283   0.348365  -0.141658  -0.014840
    15  C    0.351645  -0.051283   5.271157  -0.141781   0.348158  -0.014756
    16  C    0.026256   0.348365  -0.141781   5.103109   0.039523   0.418544
    17  C    0.026353  -0.141658   0.348158   0.039523   5.103147   0.418624
    18  C   -0.103747  -0.014840  -0.014756   0.418544   0.418624   5.070846
    19  H   -0.037307   0.397217   0.013561  -0.045203  -0.001271   0.010867
    20  H   -0.037223   0.013543   0.397153  -0.001260  -0.045220   0.010845
    21  H    0.018884  -0.055421  -0.002521   0.416951   0.017684  -0.070307
    22  H    0.018871  -0.002518  -0.055401   0.017686   0.416931  -0.070290
    23  H   -0.008222   0.026040   0.026042  -0.075150  -0.075139   0.432701
    24  C   -0.094762  -0.005025   0.026455  -0.004955  -0.001069   0.002466
    25  C   -0.005151  -0.009039   0.013693  -0.000231   0.000776   0.000063
    26  C    0.026327   0.013661  -0.055414   0.003334  -0.007447  -0.000849
    27  C   -0.004927  -0.000231   0.003333  -0.000055   0.000097   0.000018
    28  C   -0.001030   0.000778  -0.007448   0.000096  -0.000640  -0.000063
    29  C    0.002441   0.000063  -0.000849   0.000018  -0.000063  -0.000010
    30  H   -0.001241  -0.000254   0.000301   0.000014  -0.000005  -0.000005
    31  H    0.002716  -0.000584   0.001889   0.000475  -0.001402   0.000427
    32  H    0.000013   0.000001  -0.000026   0.000000  -0.000001   0.000000
    33  H   -0.000207  -0.000033   0.000046  -0.000001   0.000029  -0.000002
    34  H    0.000019   0.000001  -0.000016  -0.000000  -0.000001  -0.000000
              19         20         21         22         23         24
     1  N   -0.007770  -0.007848  -0.000603  -0.000602  -0.000040   0.176889
     2  C    0.002649  -0.001241  -0.000206   0.000013   0.000019  -0.094551
     3  C    0.001892   0.000298   0.000045  -0.000027  -0.000016  -0.005077
     4  C   -0.000568  -0.000253  -0.000033   0.000001   0.000001   0.026196
     5  C   -0.001399  -0.000005   0.000029  -0.000001  -0.000001  -0.004914
     6  C    0.000473   0.000014  -0.000001   0.000000  -0.000000  -0.001014
     7  C    0.000428  -0.000005  -0.000002   0.000000  -0.000000   0.002437
     8  H    0.000940   0.000034  -0.000049   0.000003   0.000003  -0.001238
     9  H    0.000033  -0.000007  -0.000000  -0.000000   0.000000   0.002732
    10  H   -0.000049  -0.000000  -0.000000   0.000000  -0.000000   0.000013
    11  H    0.000003  -0.000000   0.000000  -0.000000  -0.000000  -0.000206
    12  H    0.000003   0.000000  -0.000000  -0.000000   0.000000   0.000019
    13  C   -0.037307  -0.037223   0.018884   0.018871  -0.008222  -0.094762
    14  C    0.397217   0.013543  -0.055421  -0.002518   0.026040  -0.005025
    15  C    0.013561   0.397153  -0.002521  -0.055401   0.026042   0.026455
    16  C   -0.045203  -0.001260   0.416951   0.017686  -0.075150  -0.004955
    17  C   -0.001271  -0.045220   0.017684   0.416931  -0.075139  -0.001069
    18  C    0.010867   0.010845  -0.070307  -0.070290   0.432701   0.002466
    19  H    0.528614  -0.000301  -0.007835   0.000019  -0.000129  -0.001218
    20  H   -0.000301   0.528642   0.000019  -0.007826  -0.000129   0.002777
    21  H   -0.007835   0.000019   0.590370  -0.000278  -0.009333   0.000012
    22  H    0.000019  -0.007826  -0.000278   0.590351  -0.009335  -0.000207
    23  H   -0.000129  -0.000129  -0.009333  -0.009335   0.591412   0.000019
    24  C   -0.001218   0.002777   0.000012  -0.000207   0.000019   5.430355
    25  C   -0.000255  -0.000571   0.000001  -0.000033   0.000001   0.351781
    26  C    0.000296   0.001855  -0.000026   0.000046  -0.000016   0.351504
    27  C    0.000014   0.000481   0.000000  -0.000001  -0.000000   0.026369
    28  C   -0.000005  -0.001399  -0.000001   0.000029  -0.000001   0.026267
    29  C   -0.000005   0.000424   0.000000  -0.000002  -0.000000  -0.103763
    30  H   -0.000007   0.000034  -0.000000  -0.000000   0.000000  -0.037247
    31  H    0.000034   0.000938   0.000003  -0.000049   0.000003  -0.037245
    32  H   -0.000000   0.000003  -0.000000   0.000000  -0.000000   0.018861
    33  H   -0.000000  -0.000049   0.000000  -0.000000  -0.000000   0.018884
    34  H    0.000000   0.000003  -0.000000  -0.000000   0.000000  -0.008225
              25         26         27         28         29         30
     1  N   -0.014092  -0.013619   0.013613   0.013593   0.005828  -0.007822
     2  C    0.026323  -0.005076  -0.001017  -0.004939   0.002457   0.002724
     3  C    0.013785  -0.009050   0.000778  -0.000232   0.000063  -0.000559
     4  C   -0.055427   0.013723  -0.007488   0.003323  -0.000840   0.001861
     5  C    0.003312  -0.000232   0.000096  -0.000054   0.000018   0.000477
     6  C   -0.007489   0.000779  -0.000647   0.000096  -0.000063  -0.001397
     7  C   -0.000835   0.000063  -0.000063   0.000018  -0.000010   0.000425
     8  H    0.000298  -0.000254  -0.000005   0.000014  -0.000004   0.000033
     9  H    0.001878  -0.000583  -0.001396   0.000478   0.000425   0.000939
    10  H   -0.000027   0.000001  -0.000001   0.000000   0.000000   0.000003
    11  H    0.000044  -0.000033   0.000029  -0.000001  -0.000002  -0.000049
    12  H   -0.000016   0.000001  -0.000001  -0.000000  -0.000000   0.000003
    13  C   -0.005151   0.026327  -0.004927  -0.001030   0.002441  -0.001241
    14  C   -0.009039   0.013661  -0.000231   0.000778   0.000063  -0.000254
    15  C    0.013693  -0.055414   0.003333  -0.007448  -0.000849   0.000301
    16  C   -0.000231   0.003334  -0.000055   0.000096   0.000018   0.000014
    17  C    0.000776  -0.007447   0.000097  -0.000640  -0.000063  -0.000005
    18  C    0.000063  -0.000849   0.000018  -0.000063  -0.000010  -0.000005
    19  H   -0.000255   0.000296   0.000014  -0.000005  -0.000005  -0.000007
    20  H   -0.000571   0.001855   0.000481  -0.001399   0.000424   0.000034
    21  H    0.000001  -0.000026   0.000000  -0.000001   0.000000  -0.000000
    22  H   -0.000033   0.000046  -0.000001   0.000029  -0.000002  -0.000000
    23  H    0.000001  -0.000016  -0.000000  -0.000001  -0.000000   0.000000
    24  C    0.351781   0.351504   0.026369   0.026267  -0.103763  -0.037247
    25  C    5.271474  -0.051303   0.348066  -0.141753  -0.014743   0.397168
    26  C   -0.051303   5.270929  -0.141728   0.348310  -0.014745   0.013535
    27  C    0.348066  -0.141728   5.103279   0.039644   0.418485  -0.045162
    28  C   -0.141753   0.348310   0.039644   5.103231   0.418404  -0.001259
    29  C   -0.014743  -0.014745   0.418485   0.418404   5.071022   0.010842
    30  H    0.397168   0.013535  -0.045162  -0.001259   0.010842   0.528535
    31  H    0.013551   0.397188  -0.001267  -0.045234   0.010858  -0.000301
    32  H   -0.055393  -0.002517   0.416928   0.017683  -0.070280  -0.007821
    33  H   -0.002521  -0.055420   0.017689   0.416954  -0.070317   0.000019
    34  H    0.026052   0.026041  -0.075147  -0.075159   0.432707  -0.000129
              31         32         33         34
     1  N   -0.007797  -0.000602  -0.000603  -0.000040
     2  C   -0.001217  -0.000207   0.000013   0.000019
     3  C   -0.000254  -0.000033   0.000001   0.000001
     4  C    0.000293   0.000044  -0.000027  -0.000016
     5  C    0.000014  -0.000001   0.000000  -0.000000
     6  C   -0.000005   0.000029  -0.000001  -0.000001
     7  C   -0.000005  -0.000002   0.000000  -0.000000
     8  H   -0.000007  -0.000000  -0.000000   0.000000
     9  H    0.000034  -0.000049   0.000003   0.000003
    10  H   -0.000000   0.000000  -0.000000  -0.000000
    11  H   -0.000000  -0.000000   0.000000  -0.000000
    12  H    0.000000  -0.000000  -0.000000   0.000000
    13  C    0.002716   0.000013  -0.000207   0.000019
    14  C   -0.000584   0.000001  -0.000033   0.000001
    15  C    0.001889  -0.000026   0.000046  -0.000016
    16  C    0.000475   0.000000  -0.000001  -0.000000
    17  C   -0.001402  -0.000001   0.000029  -0.000001
    18  C    0.000427   0.000000  -0.000002  -0.000000
    19  H    0.000034  -0.000000  -0.000000   0.000000
    20  H    0.000938   0.000003  -0.000049   0.000003
    21  H    0.000003  -0.000000   0.000000  -0.000000
    22  H   -0.000049   0.000000  -0.000000  -0.000000
    23  H    0.000003  -0.000000  -0.000000   0.000000
    24  C   -0.037245   0.018861   0.018884  -0.008225
    25  C    0.013551  -0.055393  -0.002521   0.026052
    26  C    0.397188  -0.002517  -0.055420   0.026041
    27  C   -0.001267   0.416928   0.017689  -0.075147
    28  C   -0.045234   0.017683   0.416954  -0.075159
    29  C    0.010858  -0.070280  -0.070317   0.432707
    30  H   -0.000301  -0.007821   0.000019  -0.000129
    31  H    0.528663   0.000019  -0.007828  -0.000129
    32  H    0.000019   0.590336  -0.000278  -0.009335
    33  H   -0.007828  -0.000278   0.590353  -0.009335
    34  H   -0.000129  -0.009335  -0.009335   0.591423
 Mulliken charges:
               1
     1  N    0.002085
     2  C   -0.062198
     3  C   -0.109794
     4  C   -0.109944
     5  C   -0.109751
     6  C   -0.109658
     7  C   -0.098477
     8  H    0.146439
     9  H    0.146351
    10  H    0.102609
    11  H    0.102614
    12  H    0.101241
    13  C   -0.063310
    14  C   -0.109596
    15  C   -0.109126
    16  C   -0.109672
    17  C   -0.109769
    18  C   -0.098375
    19  H    0.146278
    20  H    0.146274
    21  H    0.102618
    22  H    0.102620
    23  H    0.101270
    24  C   -0.063318
    25  C   -0.109388
    26  C   -0.109278
    27  C   -0.109784
    28  C   -0.109698
    29  C   -0.098358
    30  H    0.146346
    31  H    0.146220
    32  H    0.102630
    33  H    0.102630
    34  H    0.101266
 Sum of Mulliken charges =  -0.00000
 Mulliken charges with hydrogens summed into heavy atoms:
               1
     1  N    0.002085
     2  C   -0.062198
     3  C    0.036646
     4  C    0.036406
     5  C   -0.007142
     6  C   -0.007045
     7  C    0.002765
    13  C   -0.063310
    14  C    0.036682
    15  C    0.037148
    16  C   -0.007053
    17  C   -0.007148
    18  C    0.002895
    24  C   -0.063318
    25  C    0.036957
    26  C    0.036942
    27  C   -0.007154
    28  C   -0.007068
    29  C    0.002909
 Electronic spatial extent (au):  <R**2>=           4960.4472
 Charge=             -0.0000 electrons
 Dipole moment (field-independent basis, Debye):
    X=              0.0012    Y=             -0.0029    Z=              0.0006  Tot=              0.0032
 Quadrupole moment (field-independent basis, Debye-Ang):
   XX=           -103.7420   YY=           -103.7660   ZZ=           -111.3562
   XY=              0.0068   XZ=              0.0020   YZ=              0.0004
 Traceless Quadrupole moment (field-independent basis, Debye-Ang):
   XX=              2.5461   YY=              2.5221   ZZ=             -5.0681
   XY=              0.0068   XZ=              0.0020   YZ=              0.0004
 Octapole moment (field-independent basis, Debye-Ang**2):
  XXX=             12.1782  YYY=             10.0221  ZZZ=             -0.0094  XYY=            -12.1722
  XXY=            -10.0228  XXZ=              0.0073  XZZ=              0.0155  YZZ=             -0.0506
  YYZ=              0.0180  XYZ=              0.0115
 Hexadecapole moment (field-independent basis, Debye-Ang**3):
 XXXX=          -3073.1771 YYYY=          -3073.3664 ZZZZ=           -468.4042 XXXY=             -0.0734
 XXXZ=             52.1604 YYYX=              0.1545 YYYZ=            -63.5493 ZZZX=              0.0721
 ZZZY=              0.0261 XXYY=          -1024.3571 XXZZ=           -620.4234 YYZZ=           -620.5462
 XXYZ=             63.5103 YYXZ=            -52.2395 ZZXY=              0.0439
 N-N= 1.298220548022D+03 E-N=-4.335901175516D+03  KE= 7.456759735704D+02
 No NMR shielding tensors so no spin-rotation constants.
 Leave Link  601 at Sun Jan 17 20:08:50 2021, MaxMem=  4026531840 cpu:               2.1 elap:               0.4
 (Enter /opt/ohpc/pub/libs/gaussian/g16-A.03/sandybridge/g16/l9999.exe)

 Test job not archived.
 1\1\GINC-CASCADEB040\SP\RLC-wHPBE\TZVP\C18H15N1\RDU230\17-Jan-2021\0\\
 #P LC-wHPBE/TZVP iop(3/107=0156200000, 3/108=0156200000) scf=(conver=6
 ,fermi,ndamp=35,noincfock,novaracc,vshift=500,xqc)\\H15 C18 N1\\0,1\N,
 0,0.000022,-0.000126,-0.001279\C,0,0.411521,-1.356839,-0.000484\C,0,1.
 495533,-1.769287,0.781179\C,0,-0.26032,-2.302689,-0.781717\C,0,1.90121
 8,-3.097977,0.77159\C,0,0.140608,-3.632811,-0.770872\C,0,1.225282,-4.0
 3895,0.000666\H,0,2.020108,-1.039002,1.394849\H,0,-1.101816,-1.987296,
 -1.396157\H,0,2.748094,-3.402056,1.385878\H,0,-0.394485,-4.35669,-1.38
 4611\H,0,1.541424,-5.08084,0.001027\C,0,0.969124,1.03471,-0.000488\C,0
 ,2.123037,0.926935,-0.78345\C,0,0.785335,2.178692,0.782922\C,0,3.07444
 4,1.939229,-0.772694\C,0,1.733248,3.194302,0.773528\C,0,2.885092,3.080
 453,0.000886\H,0,2.269922,0.041314,-1.399284\H,0,-0.10857,2.266902,1.3
 98014\H,0,3.967862,1.838651,-1.388087\H,0,1.574087,4.078874,1.389358\H
 ,0,3.629424,3.875076,0.001646\C,0,-1.380731,0.321945,-0.000436\C,0,-2.
 279686,-0.409002,0.782988\C,0,-1.864017,1.375244,-0.783483\C,0,-3.6331
 85,-0.0958,0.773256\C,0,-3.216365,1.693293,-0.772877\C,0,-4.110212,0.9
 58658,0.000466\H,0,-1.909274,-1.227214,1.398174\H,0,-1.170181,1.945112
 ,-1.399095\H,0,-4.319851,-0.675761,1.389003\H,0,-3.575887,2.517271,-1.
 388348\H,0,-5.170565,1.205911,0.000686\\Version=EM64L-G16RevA.03\State
 =1-A\HF=-749.1723336\RMSD=9.594e-07\Dipole=-0.0004585,0.0011311,0.0002
 215\Quadrupole=1.8929348,1.8750999,-3.7680348,0.0050209,-0.0015033,-0.
 0003226\PG=C01 [X(C18H15N1)]\\@



 IN THIS SHORT LIFE

 THAT ONLY LASTS AN HOUR

 HOW MUCH, HOW LITTLE, IS WITHIN OUR POWER....


 EMILY DICKINSON BOLTS OF MELODY NO. 521
 Job cpu time:       0 days  0 hours 34 minutes 43.3 seconds.
 Elapsed time:       0 days  0 hours  4 minutes 21.5 seconds.
 File lengths (MBytes):  RWF=    116 Int=      0 D2E=      0 Chk=     20 Scr=      8
 Normal termination of Gaussian 16 at Sun Jan 17 20:08:50 2021.
