 Entering Gaussian System, Link 0=g16
 Input=mol_NN_pa_frag_tune_c2.gjf
 Output=mol_NN_pa_frag_tune_c2.log
 Initial command:
 /opt/ohpc/pub/libs/gaussian/g16-A.03/sandybridge/g16/l1.exe "/mnt/gpfs2_4m/scratch/rdu230/ondemand/projects/init_structures/wtuning/mol_NN_pa_frag/tuning_mol_NN_pa_frag_ocycle0/Gau-314740.inp" -scrdir="/mnt/gpfs2_4m/scratch/rdu230/ondemand/projects/init_structures/wtuning/mol_NN_pa_frag/tuning_mol_NN_pa_frag_ocycle0/"
 Entering Link 1 = /opt/ohpc/pub/libs/gaussian/g16-A.03/sandybridge/g16/l1.exe PID=    314741.
  
 Copyright (c) 1988,1990,1992,1993,1995,1998,2003,2009,2016,
            Gaussian, Inc.  All Rights Reserved.
  
 This is part of the Gaussian(R) 16 program.  It is based on
 the Gaussian(R) 09 system (copyright 2009, Gaussian, Inc.),
 the Gaussian(R) 03 system (copyright 2003, Gaussian, Inc.),
 the Gaussian(R) 98 system (copyright 1998, Gaussian, Inc.),
 the Gaussian(R) 94 system (copyright 1995, Gaussian, Inc.),
 the Gaussian 92(TM) system (copyright 1992, Gaussian, Inc.),
 the Gaussian 90(TM) system (copyright 1990, Gaussian, Inc.),
 the Gaussian 88(TM) system (copyright 1988, Gaussian, Inc.),
 the Gaussian 86(TM) system (copyright 1986, Carnegie Mellon
 University), and the Gaussian 82(TM) system (copyright 1983,
 Carnegie Mellon University). Gaussian is a federally registered
 trademark of Gaussian, Inc.
  
 This software contains proprietary and confidential information,
 including trade secrets, belonging to Gaussian, Inc.
  
 This software is provided under written license and may be
 used, copied, transmitted, or stored only in accord with that
 written license.
  
 The following legend is applicable only to US Government
 contracts under FAR:
  
                    RESTRICTED RIGHTS LEGEND
  
 Use, reproduction and disclosure by the US Government is
 subject to restrictions as set forth in subparagraphs (a)
 and (c) of the Commercial Computer Software - Restricted
 Rights clause in FAR 52.227-19.
  
 Gaussian, Inc.
 340 Quinnipiac St., Bldg. 40, Wallingford CT 06492
  
  
 ---------------------------------------------------------------
 Warning -- This program may not be used in any manner that
 competes with the business of Gaussian, Inc. or will provide
 assistance to any competitor of Gaussian, Inc.  The licensee
 of this program is prohibited from giving any competitor of
 Gaussian, Inc. access to this program.  By using this program,
 the user acknowledges that Gaussian, Inc. is engaged in the
 business of creating and licensing software in the field of
 computational chemistry and represents and warrants to the
 licensee that it is not a competitor of Gaussian, Inc. and that
 it will not use this program in any manner prohibited above.
 ---------------------------------------------------------------
  

 Cite this work as:
 Gaussian 16, Revision A.03,
 M. J. Frisch, G. W. Trucks, H. B. Schlegel, G. E. Scuseria, 
 M. A. Robb, J. R. Cheeseman, G. Scalmani, V. Barone, 
 G. A. Petersson, H. Nakatsuji, X. Li, M. Caricato, A. V. Marenich, 
 J. Bloino, B. G. Janesko, R. Gomperts, B. Mennucci, H. P. Hratchian, 
 J. V. Ortiz, A. F. Izmaylov, J. L. Sonnenberg, D. Williams-Young, 
 F. Ding, F. Lipparini, F. Egidi, J. Goings, B. Peng, A. Petrone, 
 T. Henderson, D. Ranasinghe, V. G. Zakrzewski, J. Gao, N. Rega, 
 G. Zheng, W. Liang, M. Hada, M. Ehara, K. Toyota, R. Fukuda, 
 J. Hasegawa, M. Ishida, T. Nakajima, Y. Honda, O. Kitao, H. Nakai, 
 T. Vreven, K. Throssell, J. A. Montgomery, Jr., J. E. Peralta, 
 F. Ogliaro, M. J. Bearpark, J. J. Heyd, E. N. Brothers, K. N. Kudin, 
 V. N. Staroverov, T. A. Keith, R. Kobayashi, J. Normand, 
 K. Raghavachari, A. P. Rendell, J. C. Burant, S. S. Iyengar, 
 J. Tomasi, M. Cossi, J. M. Millam, M. Klene, C. Adamo, R. Cammi, 
 J. W. Ochterski, R. L. Martin, K. Morokuma, O. Farkas, 
 J. B. Foresman, and D. J. Fox, Gaussian, Inc., Wallingford CT, 2016.
 
 ******************************************
 Gaussian 16:  EM64L-G16RevA.03 25-Dec-2016
                17-Jan-2021 
 ******************************************
 %mem=30GB
 %nproc=8
 Will use up to    8 processors via shared memory.
 ----------------------------------------------------------------------
 #P LC-wHPBE/TZVP iop(3/107=0156200000, 3/108=0156200000) scf=(conver=6
 ,fermi,ndamp=35,noincfock,novaracc,vshift=500,xqc)
 ----------------------------------------------------------------------
 1/38=1,172=1/1;
 2/12=2,17=6,18=5,40=1/2;
 3/5=19,7=101,11=2,25=1,30=1,74=-71,107=156200000,108=156200000/1,2,3;
 4//1;
 5/5=100002,6=6,8=3,10=500,13=1,18=-1,22=13,38=1,93=35/2,8;
 6/7=2,8=2,9=2,10=2,28=1/1;
 99/5=1,9=1/99;
 Leave Link    1 at Sun Jan 17 20:08:51 2021, MaxMem=  4026531840 cpu:               1.2 elap:               0.2
 (Enter /opt/ohpc/pub/libs/gaussian/g16-A.03/sandybridge/g16/l101.exe)
 ----------
 H15 C18 N1
 ----------
 Symbolic Z-matrix:
 Charge =  1 Multiplicity = 2
 N                     0.00002  -0.00013  -0.00128 
 C                     0.41152  -1.35684  -0.00048 
 C                     1.49553  -1.76929   0.78118 
 C                    -0.26032  -2.30269  -0.78172 
 C                     1.90122  -3.09798   0.77159 
 C                     0.14061  -3.63281  -0.77087 
 C                     1.22528  -4.03895   0.00067 
 H                     2.02011  -1.039     1.39485 
 H                    -1.10182  -1.9873   -1.39616 
 H                     2.74809  -3.40206   1.38588 
 H                    -0.39449  -4.35669  -1.38461 
 H                     1.54142  -5.08084   0.00103 
 C                     0.96912   1.03471  -0.00049 
 C                     2.12304   0.92694  -0.78345 
 C                     0.78534   2.17869   0.78292 
 C                     3.07444   1.93923  -0.77269 
 C                     1.73325   3.1943    0.77353 
 C                     2.88509   3.08045   0.00089 
 H                     2.26992   0.04131  -1.39928 
 H                    -0.10857   2.2669    1.39801 
 H                     3.96786   1.83865  -1.38809 
 H                     1.57409   4.07887   1.38936 
 H                     3.62942   3.87508   0.00165 
 C                    -1.38073   0.32195  -0.00044 
 C                    -2.27969  -0.409     0.78299 
 C                    -1.86402   1.37524  -0.78348 
 C                    -3.63319  -0.0958    0.77326 
 C                    -3.21637   1.69329  -0.77288 
 C                    -4.11021   0.95866   0.00047 
 H                    -1.90927  -1.22721   1.39817 
 H                    -1.17018   1.94511  -1.3991 
 H                    -4.31985  -0.67576   1.389 
 H                    -3.57589   2.51727  -1.38835 
 H                    -5.17056   1.20591   0.00069 
 
 ITRead=  0  0  0  0  0  0  0  0  0  0  0  0  0  0  0  0  0  0  0  0
 ITRead=  0  0  0  0  0  0  0  0  0  0  0  0  0  0
 MicOpt= -1 -1 -1 -1 -1 -1 -1 -1 -1 -1 -1 -1 -1 -1 -1 -1 -1 -1 -1 -1
 MicOpt= -1 -1 -1 -1 -1 -1 -1 -1 -1 -1 -1 -1 -1 -1
 NAtoms=     34 NQM=       34 NQMF=       0 NMMI=      0 NMMIF=      0
                NMic=       0 NMicF=      0.
                    Isotopes and Nuclear Properties:
 (Nuclear quadrupole moments (NQMom) in fm**2, nuclear magnetic moments (NMagM)
  in nuclear magnetons)

  Atom         1           2           3           4           5           6           7           8           9          10
 IAtWgt=          14          12          12          12          12          12          12           1           1           1
 AtmWgt=  14.0030740  12.0000000  12.0000000  12.0000000  12.0000000  12.0000000  12.0000000   1.0078250   1.0078250   1.0078250
 NucSpn=           2           0           0           0           0           0           0           1           1           1
 AtZEff=  -0.0000000  -0.0000000  -0.0000000  -0.0000000  -0.0000000  -0.0000000  -0.0000000  -0.0000000  -0.0000000  -0.0000000
 NQMom=    2.0440000   0.0000000   0.0000000   0.0000000   0.0000000   0.0000000   0.0000000   0.0000000   0.0000000   0.0000000
 NMagM=    0.4037610   0.0000000   0.0000000   0.0000000   0.0000000   0.0000000   0.0000000   2.7928460   2.7928460   2.7928460
 AtZNuc=   7.0000000   6.0000000   6.0000000   6.0000000   6.0000000   6.0000000   6.0000000   1.0000000   1.0000000   1.0000000

  Atom        11          12          13          14          15          16          17          18          19          20
 IAtWgt=           1           1          12          12          12          12          12          12           1           1
 AtmWgt=   1.0078250   1.0078250  12.0000000  12.0000000  12.0000000  12.0000000  12.0000000  12.0000000   1.0078250   1.0078250
 NucSpn=           1           1           0           0           0           0           0           0           1           1
 AtZEff=  -0.0000000  -0.0000000  -0.0000000  -0.0000000  -0.0000000  -0.0000000  -0.0000000  -0.0000000  -0.0000000  -0.0000000
 NQMom=    0.0000000   0.0000000   0.0000000   0.0000000   0.0000000   0.0000000   0.0000000   0.0000000   0.0000000   0.0000000
 NMagM=    2.7928460   2.7928460   0.0000000   0.0000000   0.0000000   0.0000000   0.0000000   0.0000000   2.7928460   2.7928460
 AtZNuc=   1.0000000   1.0000000   6.0000000   6.0000000   6.0000000   6.0000000   6.0000000   6.0000000   1.0000000   1.0000000

  Atom        21          22          23          24          25          26          27          28          29          30
 IAtWgt=           1           1           1          12          12          12          12          12          12           1
 AtmWgt=   1.0078250   1.0078250   1.0078250  12.0000000  12.0000000  12.0000000  12.0000000  12.0000000  12.0000000   1.0078250
 NucSpn=           1           1           1           0           0           0           0           0           0           1
 AtZEff=  -0.0000000  -0.0000000  -0.0000000  -0.0000000  -0.0000000  -0.0000000  -0.0000000  -0.0000000  -0.0000000  -0.0000000
 NQMom=    0.0000000   0.0000000   0.0000000   0.0000000   0.0000000   0.0000000   0.0000000   0.0000000   0.0000000   0.0000000
 NMagM=    2.7928460   2.7928460   2.7928460   0.0000000   0.0000000   0.0000000   0.0000000   0.0000000   0.0000000   2.7928460
 AtZNuc=   1.0000000   1.0000000   1.0000000   6.0000000   6.0000000   6.0000000   6.0000000   6.0000000   6.0000000   1.0000000

  Atom        31          32          33          34
 IAtWgt=           1           1           1           1
 AtmWgt=   1.0078250   1.0078250   1.0078250   1.0078250
 NucSpn=           1           1           1           1
 AtZEff=  -0.0000000  -0.0000000  -0.0000000  -0.0000000
 NQMom=    0.0000000   0.0000000   0.0000000   0.0000000
 NMagM=    2.7928460   2.7928460   2.7928460   2.7928460
 AtZNuc=   1.0000000   1.0000000   1.0000000   1.0000000
 Leave Link  101 at Sun Jan 17 20:08:51 2021, MaxMem=  4026531840 cpu:               0.7 elap:               0.1
 (Enter /opt/ohpc/pub/libs/gaussian/g16-A.03/sandybridge/g16/l202.exe)
                          Input orientation:                          
 ---------------------------------------------------------------------
 Center     Atomic      Atomic             Coordinates (Angstroms)
 Number     Number       Type             X           Y           Z
 ---------------------------------------------------------------------
      1          7           0        0.000022   -0.000126   -0.001279
      2          6           0        0.411521   -1.356839   -0.000484
      3          6           0        1.495533   -1.769287    0.781179
      4          6           0       -0.260320   -2.302689   -0.781717
      5          6           0        1.901218   -3.097977    0.771590
      6          6           0        0.140608   -3.632811   -0.770872
      7          6           0        1.225282   -4.038950    0.000666
      8          1           0        2.020108   -1.039002    1.394849
      9          1           0       -1.101816   -1.987296   -1.396157
     10          1           0        2.748094   -3.402056    1.385878
     11          1           0       -0.394485   -4.356690   -1.384611
     12          1           0        1.541424   -5.080840    0.001027
     13          6           0        0.969124    1.034710   -0.000488
     14          6           0        2.123037    0.926935   -0.783450
     15          6           0        0.785335    2.178692    0.782922
     16          6           0        3.074444    1.939229   -0.772694
     17          6           0        1.733248    3.194302    0.773528
     18          6           0        2.885092    3.080453    0.000886
     19          1           0        2.269922    0.041314   -1.399284
     20          1           0       -0.108570    2.266902    1.398014
     21          1           0        3.967862    1.838651   -1.388087
     22          1           0        1.574087    4.078874    1.389358
     23          1           0        3.629424    3.875076    0.001646
     24          6           0       -1.380731    0.321945   -0.000436
     25          6           0       -2.279686   -0.409002    0.782988
     26          6           0       -1.864017    1.375244   -0.783483
     27          6           0       -3.633185   -0.095800    0.773256
     28          6           0       -3.216365    1.693293   -0.772877
     29          6           0       -4.110212    0.958658    0.000466
     30          1           0       -1.909274   -1.227214    1.398174
     31          1           0       -1.170181    1.945112   -1.399095
     32          1           0       -4.319851   -0.675761    1.389003
     33          1           0       -3.575887    2.517271   -1.388348
     34          1           0       -5.170565    1.205911    0.000686
 ---------------------------------------------------------------------
                    Distance matrix (angstroms):
                    1          2          3          4          5
     1  N    0.000000
     2  C    1.417745   0.000000
     3  C    2.445143   1.398639   0.000000
     4  C    2.445129   1.398688   2.410432   0.000000
     5  C    3.715986   2.418027   1.389277   2.778037   0.000000
     6  C    3.715971   2.418045   2.778022   1.389275   2.401038
     7  C    4.220588   2.802843   2.415286   2.415313   1.391633
     8  H    2.666305   2.153027   1.088617   3.396277   2.154522
     9  H    2.666191   2.153037   3.396254   1.088634   3.866646
    10  H    4.587944   3.400660   2.144879   3.867510   1.089501
    11  H    4.587907   3.400670   3.867489   2.144855   3.391727
    12  H    5.309386   3.891641   3.402518   3.402513   2.157537
    13  C    1.417761   2.455693   2.958126   3.641440   4.306275
    14  C    2.445082   2.959383   3.179849   4.013834   4.320564
    15  C    2.445186   3.640528   4.011349   4.860480   5.393381
    16  C    3.715945   4.307149   4.319788   5.395795   5.397658
    17  C    3.716015   4.801973   4.969284   6.050621   6.294521
    18  C    4.220616   5.080169   5.104871   6.283654   6.303570
    19  H    2.666192   2.713877   2.938090   3.503978   3.834551
    20  H    2.666314   3.918902   4.386850   5.065118   5.763123
    21  H    4.587820   4.978369   4.882145   5.949446   5.771093
    22  H    4.588005   5.729764   5.880224   6.985912   7.210814
    23  H    5.309403   6.142299   6.084406   7.342244   7.225163
    24  C    1.417818   2.455704   3.641026   2.958788   4.802404
    25  C    2.445265   2.958854   4.012812   3.179967   4.970983
    26  C    2.445021   3.640802   4.860331   4.012361   6.050203
    27  C    3.716080   4.306802   5.394847   4.320245   6.296244
    28  C    3.715936   4.802234   6.050333   4.970528   7.178531
    29  C    4.220580   5.080118   6.282959   5.105866   7.293025
    30  H    2.666388   2.712773   3.502462   2.937281   4.290945
    31  H    2.665936   3.919282   5.065213   4.387803   6.291114
    32  H    4.588101   4.977994   5.948440   4.882490   6.704478
    33  H    4.587851   5.730124   6.985752   5.881581   8.136032
    34  H    5.309378   6.142261   7.341514   6.085469   8.314317
                    6          7          8          9         10
     6  C    0.000000
     7  C    1.391667   0.000000
     8  H    3.866615   3.402232   0.000000
     9  H    2.154604   3.402320   4.293645   0.000000
    10  H    3.391725   2.154856   2.472664   4.956115   0.000000
    11  H    1.089496   2.154901   4.956078   2.472747   4.296829
    12  H    2.157522   1.088798   4.302131   4.302192   2.488409
    13  C    4.802675   5.080122   2.711423   3.920358   4.977111
    14  C    4.972069   5.106938   2.936067   4.389514   4.882299
    15  C    6.050084   6.282082   3.500382   5.066081   5.946489
    16  C    6.297224   6.305245   3.831413   5.766060   5.770205
    17  C    7.178520   7.292138   4.288262   6.292383   6.702001
    18  C    7.293539   7.310326   4.434100   6.597670   6.630226
    19  H    4.292793   4.438433   3.006105   3.934957   4.454500
    20  H    6.290689   6.595113   3.931956   5.185762   6.348052
    21  H    6.705649   6.632991   4.451895   6.351344   6.053737
    22  H    8.135818   8.243130   5.137277   7.191521   7.572491
    23  H    8.314866   8.271137   5.355285   7.661977   7.459859
    24  C    4.306755   5.080227   3.919784   2.712642   5.730379
    25  C    4.320330   5.106207   4.388565   2.937186   5.882212
    26  C    5.394376   6.282687   5.065584   3.501856   6.985720
    27  C    5.397804   6.304762   5.765044   3.833007   7.212999
    28  C    6.295765   7.292819   6.291671   4.290283   8.136189
    29  C    6.304445   7.310512   6.596649   4.436175   8.244486
    30  H    3.833233   4.436703   3.933888   3.006326   5.140152
    31  H    5.764205   6.595951   5.185461   3.933003   7.190352
    32  H    5.771040   6.632271   6.350359   4.453424   7.575522
    33  H    7.212290   8.244066   7.190857   5.139281   9.095466
    34  H    7.226139   8.271362   7.660881   5.357468   9.265920
                   11         12         13         14         15
    11  H    0.000000
    12  H    2.488399   0.000000
    13  C    5.730831   6.142270   0.000000
    14  C    5.883537   6.086628   1.398628   0.000000
    15  C    6.985799   7.340561   1.398644   2.410366   0.000000
    16  C    7.214327   7.227044   2.418022   1.389255   2.778004
    17  C    8.136479   8.313334   2.418021   2.777961   1.389277
    18  C    8.245382   8.271164   2.802856   2.415274   2.415312
    19  H    5.142151   5.359855   2.153031   1.088647   3.396234
    20  H    7.190043   7.659201   2.153028   3.396228   1.088662
    21  H    7.577093   7.463015   3.400615   2.144806   3.867478
    22  H    9.095544   9.264388   3.400674   3.867449   2.144898
    23  H    9.266905   9.196096   3.891642   3.402516   3.402492
    24  C    4.977775   6.142400   2.455576   3.640812   2.958547
    25  C    4.882285   6.085919   3.640454   4.860291   4.011298
    26  C    5.947768   7.341220   2.959009   4.012179   3.180915
    27  C    5.770680   7.226586   4.801873   6.050075   4.969580
    28  C    6.703694   8.314106   4.306813   5.394129   4.320848
    29  C    6.631590   8.271428   5.079905   6.282430   5.105595
    30  H    4.453324   5.358150   3.918894   5.065508   4.386302
    31  H    6.349380   7.660101   2.713219   3.501569   2.939354
    32  H    6.053980   7.462288   5.729717   6.985628   5.880320
    33  H    7.574475   9.265448   4.978079   5.947504   4.883575
    34  H    7.461402   9.196414   6.142076   7.340935   6.085305
                   16         17         18         19         20
    16  C    0.000000
    17  C    2.401003   0.000000
    18  C    1.391644   1.391647   0.000000
    19  H    2.154519   3.866583   3.402246   0.000000
    20  H    3.866642   2.154611   3.402329   4.293640   0.000000
    21  H    1.089505   3.391735   2.154927   2.472559   4.956113
    22  H    3.391699   1.089517   2.154863   4.956067   2.472782
    23  H    2.157570   2.157484   1.088787   4.302160   4.302170
    24  C    4.802143   4.306544   5.080021   3.919540   2.712363
    25  C    6.049880   5.393286   6.281951   5.065968   3.500352
    26  C    4.970573   4.321293   5.106565   4.387258   2.938635
    27  C    7.177994   6.294710   7.291987   6.291693   4.289009
    28  C    6.295615   5.398432   6.304816   5.763746   3.834082
    29  C    7.292364   6.304106   7.310013   6.595978   4.435965
    30  H    6.290984   5.762634   6.595025   5.186580   3.930825
    31  H    4.290601   3.835449   4.437813   3.931762   3.009051
    32  H    8.135521   7.210839   8.243010   7.191234   5.137532
    33  H    6.703735   5.772261   6.632601   6.348540   4.455198
    34  H    8.313606   7.225899   8.270884   7.660095   5.357427
                   21         22         23         24         25
    21  H    0.000000
    22  H    4.296854   0.000000
    23  H    2.488559   2.488310   0.000000
    24  C    5.730045   4.977649   6.142182   0.000000
    25  C    6.985511   5.946451   7.340395   1.398627   0.000000
    26  C    5.881420   4.883791   6.086336   1.398630   2.410424
    27  C    8.135688   6.702475   8.313166   2.417987   1.389298
    28  C    7.211985   5.771888   7.226679   2.418018   2.778080
    29  C    8.243649   6.631442   8.270880   2.802761   2.415297
    30  H    7.190515   6.347318   7.659036   2.152989   1.088637
    31  H    5.139158   4.456391   5.359388   2.152963   3.396224
    32  H    9.095091   7.572652   9.264224   3.400645   2.144921
    33  H    7.574211   6.056112   7.462722   3.400657   3.867546
    34  H    9.264982   7.461411   9.195882   3.891560   3.402517
                   26         27         28         29         30
    26  C    0.000000
    27  C    2.778014   0.000000
    28  C    1.389285   2.401066   0.000000
    29  C    2.415266   1.391632   1.391657   0.000000
    30  H    3.396242   2.154644   3.866692   3.402316   0.000000
    31  H    1.088640   3.866629   2.154630   3.402300   4.293556
    32  H    3.867485   1.089500   3.391729   2.154834   2.472866
    33  H    2.144898   3.391748   1.089495   2.154897   4.956155
    34  H    3.402478   2.157511   2.157507   1.088799   4.302219
                   31         32         33         34
    31  H    0.000000
    32  H    4.956096   0.000000
    33  H    2.472833   4.296814   0.000000
    34  H    4.302194   2.488338   2.488389   0.000000
 Stoichiometry    C18H15N(1+,2)
 Framework group  C1[X(C18H15N)]
 Deg. of freedom    96
 Full point group                 C1      NOp   1
 Largest Abelian subgroup         C1      NOp   1
 Largest concise Abelian subgroup C1      NOp   1
                         Standard orientation:                         
 ---------------------------------------------------------------------
 Center     Atomic      Atomic             Coordinates (Angstroms)
 Number     Number       Type             X           Y           Z
 ---------------------------------------------------------------------
      1          7           0       -0.000022    0.000126   -0.001279
      2          6           0       -0.411410    1.356873   -0.000484
      3          6           0       -1.495388    1.769410    0.781179
      4          6           0        0.260509    2.302668   -0.781717
      5          6           0       -1.900964    3.098133    0.771590
      6          6           0       -0.140310    3.632823   -0.770872
      7          6           0       -1.224951    4.039050    0.000666
      8          1           0       -2.020023    1.039168    1.394849
      9          1           0        1.101979    1.987206   -1.396157
     10          1           0       -2.747815    3.402281    1.385878
     11          1           0        0.394842    4.356658   -1.384611
     12          1           0       -1.541008    5.080966    0.001027
     13          6           0       -0.969209   -1.034631   -0.000488
     14          6           0       -2.123113   -0.926761   -0.783450
     15          6           0       -0.785513   -2.178628    0.782922
     16          6           0       -3.074603   -1.938977   -0.772694
     17          6           0       -1.733510   -3.194160    0.773528
     18          6           0       -2.885344   -3.080217    0.000886
     19          1           0       -2.269925   -0.041128   -1.399284
     20          1           0        0.108384   -2.266911    1.398014
     21          1           0       -3.968013   -1.838326   -1.388087
     22          1           0       -1.574421   -4.078745    1.389358
     23          1           0       -3.629741   -3.874779    0.001646
     24          6           0        1.380705   -0.322058   -0.000436
     25          6           0        2.279720    0.408815    0.782988
     26          6           0        1.863904   -1.375397   -0.783483
     27          6           0        3.633193    0.095502    0.773256
     28          6           0        3.216226   -1.693556   -0.772877
     29          6           0        4.110133   -0.958995    0.000466
     30          1           0        1.909375    1.227058    1.398174
     31          1           0        1.170022   -1.945208   -1.399095
     32          1           0        4.319906    0.675407    1.389003
     33          1           0        3.575681   -2.517564   -1.388348
     34          1           0        5.170466   -1.206335    0.000686
 ---------------------------------------------------------------------
 Rotational constants (GHZ):           0.4036067           0.4035965           0.2213359
 Leave Link  202 at Sun Jan 17 20:08:51 2021, MaxMem=  4026531840 cpu:               0.2 elap:               0.0
 (Enter /opt/ohpc/pub/libs/gaussian/g16-A.03/sandybridge/g16/l301.exe)
 Standard basis: TZVP (5D, 7F)
 Ernie: Thresh=  0.10000D-02 Tol=  0.10000D-05 Strict=F.
 There are   470 symmetry adapted cartesian basis functions of A   symmetry.
 There are   451 symmetry adapted basis functions of A   symmetry.
   451 basis functions,   785 primitive gaussians,   470 cartesian basis functions
    65 alpha electrons       64 beta electrons
       nuclear repulsion energy      1298.2205480218 Hartrees.
 IExCor=33909 DFT=T Ex+Corr=LC-wHPBE ExCW=0 ScaHFX=  1.000000
 ScaDFX=  1.000000  1.000000  1.000000  1.000000 ScalE2=  1.000000  1.000000
 IRadAn=      5 IRanWt=     -1 IRanGd=            0 ICorTp=0 IEmpDi=  4
 HFx  wShort=  0.000000 wLong=  0.156200 cFull=  0.000000 cShort=  0.000000 cLong=  1.000000
 DFx  wShort=  0.000000 wLong=  0.156200 cFull=  0.000000 cShort=  1.000000 cLong=  0.000000
 NAtoms=   34 NActive=   34 NUniq=   34 SFac= 1.00D+00 NAtFMM=   60 NAOKFM=F Big=F
 Integral buffers will be    131072 words long.
 Raffenetti 2 integral format.
 Two-electron integral symmetry is turned on.
 Leave Link  301 at Sun Jan 17 20:08:51 2021, MaxMem=  4026531840 cpu:               0.4 elap:               0.1
 (Enter /opt/ohpc/pub/libs/gaussian/g16-A.03/sandybridge/g16/l302.exe)
 NPDir=0 NMtPBC=     1 NCelOv=     1 NCel=       1 NClECP=     1 NCelD=      1
         NCelK=      1 NCelE2=     1 NClLst=     1 CellRange=     0.0.
 One-electron integrals computed using PRISM.
 One-electron integral symmetry used in STVInt
 NBasis=   451 RedAO= T EigKep=  8.44D-06  NBF=   451
 NBsUse=   451 1.00D-06 EigRej= -1.00D+00 NBFU=   451
 Precomputing XC quadrature grid using
 IXCGrd= 4 IRadAn=           5 IRanWt=          -1 IRanGd=           0 AccXCQ= 0.00D+00.
 Generated NRdTot=       0 NPtTot=           0 NUsed=           0 NTot=          32
 NSgBfM=   462   462   462   462   462 MxSgAt=    34 MxSgA2=    34.
 Leave Link  302 at Sun Jan 17 20:08:52 2021, MaxMem=  4026531840 cpu:               4.5 elap:               0.6
 (Enter /opt/ohpc/pub/libs/gaussian/g16-A.03/sandybridge/g16/l303.exe)
 DipDrv:  MaxL=1.
 Leave Link  303 at Sun Jan 17 20:08:52 2021, MaxMem=  4026531840 cpu:               0.7 elap:               0.2
 (Enter /opt/ohpc/pub/libs/gaussian/g16-A.03/sandybridge/g16/l401.exe)
 ExpMin= 9.52D-02 ExpMax= 1.97D+04 ExpMxC= 6.73D+02 IAcc=3 IRadAn=         5 AccDes= 0.00D+00
 Harris functional with IExCor=33909 and IRadAn=       5 diagonalized for initial guess.
 HarFok:  IExCor=33909 AccDes= 0.00D+00 IRadAn=         5 IDoV= 1 UseB2=F ITyADJ=14
 ICtDFT=  3500011 ScaDFX=  1.000000  1.000000  1.000000  1.000000
 FoFCou: FMM=F IPFlag=           0 FMFlag=      100000 FMFlg1=           0
         NFxFlg=           0 DoJE=T BraDBF=F KetDBF=T FulRan=T
         wScrn=  0.000000 ICntrl=       500 IOpCl=  0 I1Cent=   200000004 NGrid=           0
         NMat0=    1 NMatS0=      1 NMatT0=    0 NMatD0=    1 NMtDS0=    0 NMtDT0=    0
 Petite list used in FoFCou.
 Harris En= -738.125423786961    
 JPrj=0 DoOrth=F DoCkMO=F.
 Initial guess <Sx>= 0.0000 <Sy>= 0.0000 <Sz>= 0.5000 <S**2>= 0.7500 S= 0.5000
 Leave Link  401 at Sun Jan 17 20:08:55 2021, MaxMem=  4026531840 cpu:              28.6 elap:               3.6
 (Enter /opt/ohpc/pub/libs/gaussian/g16-A.03/sandybridge/g16/l502.exe)
 Integral symmetry usage will be decided dynamically.
 UHF open shell SCF:
 Using DIIS extrapolation, IDIIS=    10.
 NGot=  4026531840 LenX=  4026081620 LenY=  4025860250
 Requested convergence on RMS density matrix=1.00D-06 within  32 cycles.
 Requested convergence on MAX density matrix=1.00D-04.
 Requested convergence on             energy=1.00D-04.
 Virtual orbitals will be shifted by   0.500 hartree.
 No special actions if energy rises.
 Dynamic level shift is on during FON iterations.

 Cycle   1  Pass 1  IDiag  1:
 FoFJK:  IHMeth= 1 ICntrl=       0 DoSepK=T KAlg= 0 I1Cent=           0 FoldK=F
 IRaf=         1 NMat=       1 IRICut=       1 DoRegI=T DoRafI=F ISym2E= 0 IDoP0=0 IntGTp=1.
 FoFCou: FMM=F IPFlag=           0 FMFlag=      100000 FMFlg1=           0
         NFxFlg=           0 DoJE=T BraDBF=F KetDBF=F FulRan=T
         wScrn=  0.000000 ICntrl=       500 IOpCl=  0 I1Cent=           0 NGrid=           0
         NMat0=    1 NMatS0=      1 NMatT0=    0 NMatD0=    1 NMtDS0=    0 NMtDT0=    0
 Symmetry not used in FoFCou.
 E= -748.583246431939    
 DIIS: error= 3.64D-02 at cycle   1 NSaved=   1.
 NSaved= 1 IEnMin= 1 EnMin= -748.583246431939     IErMin= 1 ErrMin= 3.64D-02
 ErrMax= 3.64D-02  0.00D+00 EMaxC= 1.00D+00 BMatC= 1.37D+00 BMatP= 1.37D+00
 IDIUse=1 WtCom= 1.00D+00 WtEn= 0.00D+00
 Coeff-Com:  0.100D+01
 Coeff:      0.100D+01
 Gap=     0.382 Goal=   None    Shift=    0.500
 T= 1612. Gap= 0.739 NK=0 IS=   66 IE=  451 IFin=   65
          NO(<0.9)=   0  NV(>0.1)=   0     65.00e < EF      0.00e >EF  Err=0.0D+00
 Gap=     0.099 Goal=   None    Shift=    0.500
 T= 1612. Gap= 0.555 NK=0 IS=   65 IE=  451 IFin=   64
          NO(<0.9)=   0  NV(>0.1)=   0     64.00e < EF      0.00e >EF  Err=0.0D+00
 GapD=    0.099 DampG=0.500 DampE=0.500 DampFc=0.2500 IDamp=-1.
 Damping current iteration by 2.50D-01
 RMSDP=2.83D-03 MaxDP=6.56D-02              OVMax= 1.05D-01

 Cycle   2  Pass 1  IDiag  1:
 E= -748.713745007241     Delta-E=       -0.130498575302 Rises=F Damp=T
 DIIS: error= 2.37D-02 at cycle   2 NSaved=   2.
 NSaved= 2 IEnMin= 2 EnMin= -748.713745007241     IErMin= 2 ErrMin= 2.37D-02
 ErrMax= 2.37D-02  0.00D+00 EMaxC= 1.00D+00 BMatC= 6.04D-01 BMatP= 1.37D+00
 IDIUse=1 WtCom= 1.00D+00 WtEn= 0.00D+00
 Coeff-Com: -0.175D+01 0.275D+01
 Coeff:     -0.175D+01 0.275D+01
 Gap=     0.317 Goal=   None    Shift=    0.500
 T= 1538. Gap= 0.769 NK=0 IS=   66 IE=  451 IFin=   65
          NO(<0.9)=   0  NV(>0.1)=   0     65.00e < EF      0.00e >EF  Err=0.0D+00
 Gap=     0.223 Goal=   None    Shift=    0.500
 T= 1538. Gap= 0.691 NK=0 IS=   65 IE=  451 IFin=   64
          NO(<0.9)=   0  NV(>0.1)=   0     64.00e < EF      0.00e >EF  Err=0.0D+00
 GapD=    0.223 DampG=1.000 DampE=0.500 DampFc=0.5000 IDamp=-1.
 Damping current iteration by 5.00D-01
 RMSDP=1.96D-03 MaxDP=5.06D-02 DE=-1.30D-01 OVMax= 3.21D-02

 Cycle   3  Pass 1  IDiag  1:
 E= -748.840553282616     Delta-E=       -0.126808275375 Rises=F Damp=T
 DIIS: error= 1.08D-02 at cycle   3 NSaved=   3.
 NSaved= 3 IEnMin= 3 EnMin= -748.840553282616     IErMin= 3 ErrMin= 1.08D-02
 ErrMax= 1.08D-02  0.00D+00 EMaxC= 1.00D+00 BMatC= 1.05D-01 BMatP= 6.04D-01
 IDIUse=1 WtCom= 1.00D+00 WtEn= 0.00D+00
 Coeff-Com:  0.168D+00-0.994D+00 0.183D+01
 Coeff:      0.168D+00-0.994D+00 0.183D+01
 Gap=     0.283 Goal=   None    Shift=    0.500
 T= 1353. Gap= 0.779 NK=4 IS=   66 IE=   74 IFin=   65
          NO(<0.9)=   0  NV(>0.1)=   0     65.00e < EF      0.00e >EF  Err=0.0D+00
 Gap=     0.182 Goal=   None    Shift=    0.500
 T= 1353. Gap= 0.681 NK=4 IS=   65 IE=   72 IFin=   64
          NO(<0.9)=   0  NV(>0.1)=   0     64.00e < EF      0.00e >EF  Err=0.0D+00
 GapD=    0.182 DampG=1.000 DampE=0.500 DampFc=0.5000 IDamp=-1.
 Damping current iteration by 5.00D-01
 RMSDP=9.36D-04 MaxDP=3.05D-02 DE=-1.27D-01 OVMax= 8.40D-03

 Cycle   4  Pass 1  IDiag  1:
 E= -748.885958376070     Delta-E=       -0.045405093455 Rises=F Damp=T
 DIIS: error= 5.87D-03 at cycle   4 NSaved=   4.
 NSaved= 4 IEnMin= 4 EnMin= -748.885958376070     IErMin= 4 ErrMin= 5.87D-03
 ErrMax= 5.87D-03  0.00D+00 EMaxC= 1.00D+00 BMatC= 2.03D-02 BMatP= 1.05D-01
 IDIUse=1 WtCom= 1.00D+00 WtEn= 0.00D+00
 Coeff-Com:  0.219D+00-0.343D+00-0.763D+00 0.189D+01
 Coeff:      0.219D+00-0.343D+00-0.763D+00 0.189D+01
 Gap=     0.278 Goal=   None    Shift=    0.500
 T= 1015. Gap= 0.778 NK=4 IS=   66 IE=   74 IFin=   65
          NO(<0.9)=   0  NV(>0.1)=   0     65.00e < EF      0.00e >EF  Err=0.0D+00
 Gap=     0.184 Goal=   None    Shift=    0.500
 T= 1015. Gap= 0.684 NK=4 IS=   65 IE=   72 IFin=   64
          NO(<0.9)=   0  NV(>0.1)=   0     64.00e < EF      0.00e >EF  Err=0.0D+00
 GapD=    0.184 DampG=1.000 DampE=1.000 DampFc=1.0000 IDamp=-1.
 RMSDP=4.39D-04 MaxDP=1.65D-02 DE=-4.54D-02 OVMax= 6.24D-03

 Cycle   5  Pass 1  IDiag  1:
 E= -748.924635201579     Delta-E=       -0.038676825509 Rises=F Damp=F
 DIIS: error= 1.19D-03 at cycle   5 NSaved=   5.
 NSaved= 5 IEnMin= 5 EnMin= -748.924635201579     IErMin= 5 ErrMin= 1.19D-03
 ErrMax= 1.19D-03  0.00D+00 EMaxC= 1.00D+00 BMatC= 6.32D-04 BMatP= 2.03D-02
 IDIUse=1 WtCom= 1.00D+00 WtEn= 0.00D+00
 Coeff-Com:  0.344D-01 0.136D-01 0.653D-01-0.381D+00 0.127D+01
 Coeff:      0.344D-01 0.136D-01 0.653D-01-0.381D+00 0.127D+01
 Gap=     0.279 Goal=   None    Shift=    0.500
 T=  527. Gap= 0.779 NK=4 IS=   66 IE=   74 IFin=   65
          NO(<0.9)=   0  NV(>0.1)=   0     65.00e < EF      0.00e >EF  Err=0.0D+00
 Gap=     0.185 Goal=   None    Shift=    0.500
 T=  527. Gap= 0.685 NK=4 IS=   65 IE=   72 IFin=   64
          NO(<0.9)=   0  NV(>0.1)=   0     64.00e < EF      0.00e >EF  Err=0.0D+00
 GapD=    0.185 DampG=1.000 DampE=1.000 DampFc=1.0000 IDamp=-1.
 RMSDP=1.18D-04 MaxDP=2.22D-03 DE=-3.87D-02 OVMax= 4.53D-03

 Cycle   6  Pass 1  IDiag  1:
 E= -748.924915836127     Delta-E=       -0.000280634548 Rises=F Damp=F
 DIIS: error= 1.10D-03 at cycle   6 NSaved=   6.
 NSaved= 6 IEnMin= 6 EnMin= -748.924915836127     IErMin= 6 ErrMin= 1.10D-03
 ErrMax= 1.10D-03  0.00D+00 EMaxC= 1.00D+00 BMatC= 1.24D-04 BMatP= 6.32D-04
 IDIUse=1 WtCom= 1.00D+00 WtEn= 0.00D+00
 Coeff-Com: -0.470D-01 0.823D-01 0.216D+00-0.545D+00-0.383D-01 0.133D+01
 Coeff:     -0.470D-01 0.823D-01 0.216D+00-0.545D+00-0.383D-01 0.133D+01
 Gap=     0.280 Goal=   None    Shift=    0.500
 T=   56. Gap= 0.780 NK=4 IS=   66 IE=   74 IFin=   65
          NO(<0.9)=   0  NV(>0.1)=   0     65.00e < EF      0.00e >EF  Err=0.0D+00
 Gap=     0.186 Goal=   None    Shift=    0.500
 T=   56. Gap= 0.686 NK=4 IS=   65 IE=   72 IFin=   64
          NO(<0.9)=   0  NV(>0.1)=   0     64.00e < EF      0.00e >EF  Err=0.0D+00
 GapD=    0.186 DampG=1.000 DampE=1.000 DampFc=1.0000 IDamp=-1.
 RMSDP=6.39D-05 MaxDP=1.38D-03 DE=-2.81D-04 OVMax= 3.99D-03

 Cycle   7  Pass 1  IDiag  1:
 E= -748.925025196468     Delta-E=       -0.000109360341 Rises=F Damp=F
 DIIS: error= 7.30D-04 at cycle   7 NSaved=   7.
 NSaved= 7 IEnMin= 7 EnMin= -748.925025196468     IErMin= 7 ErrMin= 7.30D-04
 ErrMax= 7.30D-04  0.00D+00 EMaxC= 1.00D+00 BMatC= 4.75D-05 BMatP= 1.24D-04
 IDIUse=1 WtCom= 1.00D+00 WtEn= 0.00D+00
 Coeff-Com: -0.113D-01 0.309D-02-0.371D-01 0.116D+00-0.384D+00-0.647D+00
 Coeff-Com:  0.196D+01
 Coeff:     -0.113D-01 0.309D-02-0.371D-01 0.116D+00-0.384D+00-0.647D+00
 Coeff:      0.196D+01
 Gap=     0.280 Goal=   None    Shift=    0.500
 Gap=     0.186 Goal=   None    Shift=    0.500
 RMSDP=3.77D-05 MaxDP=7.75D-04 DE=-1.09D-04 OVMax= 2.76D-03

 Cycle   8  Pass 1  IDiag  1:
 E= -748.925087320241     Delta-E=       -0.000062123773 Rises=F Damp=F
 DIIS: error= 4.77D-04 at cycle   8 NSaved=   8.
 NSaved= 8 IEnMin= 8 EnMin= -748.925087320241     IErMin= 8 ErrMin= 4.77D-04
 ErrMax= 4.77D-04  0.00D+00 EMaxC= 1.00D+00 BMatC= 2.25D-05 BMatP= 4.75D-05
 IDIUse=1 WtCom= 1.00D+00 WtEn= 0.00D+00
 Coeff-Com:  0.146D-01-0.211D-01-0.887D-01 0.192D+00 0.776D-01-0.662D+00
 Coeff-Com: -0.100D+01 0.249D+01
 Coeff:      0.146D-01-0.211D-01-0.887D-01 0.192D+00 0.776D-01-0.662D+00
 Coeff:     -0.100D+01 0.249D+01
 Gap=     0.280 Goal=   None    Shift=    0.500
 Gap=     0.186 Goal=   None    Shift=    0.500
 RMSDP=2.11D-05 MaxDP=4.72D-04 DE=-6.21D-05 OVMax= 2.09D-03

 Cycle   9  Pass 1  IDiag  1:
 E= -748.925124893045     Delta-E=       -0.000037572803 Rises=F Damp=F
 DIIS: error= 2.82D-04 at cycle   9 NSaved=   9.
 NSaved= 9 IEnMin= 9 EnMin= -748.925124893045     IErMin= 9 ErrMin= 2.82D-04
 ErrMax= 2.82D-04  0.00D+00 EMaxC= 1.00D+00 BMatC= 1.14D-05 BMatP= 2.25D-05
 IDIUse=1 WtCom= 1.00D+00 WtEn= 0.00D+00
 Coeff-Com:  0.876D-02-0.910D-02-0.368D-01 0.687D-01 0.173D+00-0.275D+00
 Coeff-Com: -0.105D+01 0.823D+00 0.130D+01
 Coeff:      0.876D-02-0.910D-02-0.368D-01 0.687D-01 0.173D+00-0.275D+00
 Coeff:     -0.105D+01 0.823D+00 0.130D+01
 Gap=     0.280 Goal=   None    Shift=    0.500
 Gap=     0.187 Goal=   None    Shift=    0.500
 RMSDP=1.16D-05 MaxDP=2.66D-04 DE=-3.76D-05 OVMax= 1.53D-03

 Cycle  10  Pass 1  IDiag  1:
 E= -748.925143311724     Delta-E=       -0.000018418679 Rises=F Damp=F
 DIIS: error= 1.83D-04 at cycle  10 NSaved=  10.
 NSaved=10 IEnMin=10 EnMin= -748.925143311724     IErMin=10 ErrMin= 1.83D-04
 ErrMax= 1.83D-04  0.00D+00 EMaxC= 1.00D+00 BMatC= 5.63D-06 BMatP= 1.14D-05
 IDIUse=1 WtCom= 1.00D+00 WtEn= 0.00D+00
 Coeff-Com: -0.721D-02 0.110D-01 0.471D-01-0.102D+00 0.478D-01 0.278D+00
 Coeff-Com:  0.228D+00-0.138D+01-0.846D+00 0.272D+01
 Coeff:     -0.721D-02 0.110D-01 0.471D-01-0.102D+00 0.478D-01 0.278D+00
 Coeff:      0.228D+00-0.138D+01-0.846D+00 0.272D+01
 Gap=     0.280 Goal=   None    Shift=    0.500
 Gap=     0.187 Goal=   None    Shift=    0.500
 RMSDP=8.73D-06 MaxDP=2.28D-04 DE=-1.84D-05 OVMax= 1.32D-03

 Cycle  11  Pass 1  IDiag  1:
 E= -748.925154155886     Delta-E=       -0.000010844162 Rises=F Damp=F
 DIIS: error= 1.32D-04 at cycle  11 NSaved=  11.
 NSaved=11 IEnMin=11 EnMin= -748.925154155886     IErMin=11 ErrMin= 1.32D-04
 ErrMax= 1.32D-04  0.00D+00 EMaxC= 1.00D+00 BMatC= 2.88D-06 BMatP= 5.63D-06
 IDIUse=1 WtCom= 1.00D+00 WtEn= 0.00D+00
 Coeff-Com: -0.266D-02 0.606D-03 0.176D-01-0.252D-01-0.862D-01 0.987D-01
 Coeff-Com:  0.508D+00-0.255D+00-0.138D+01-0.233D+00 0.235D+01
 Coeff:     -0.266D-02 0.606D-03 0.176D-01-0.252D-01-0.862D-01 0.987D-01
 Coeff:      0.508D+00-0.255D+00-0.138D+01-0.233D+00 0.235D+01
 Gap=     0.280 Goal=   None    Shift=    0.500
 Gap=     0.187 Goal=   None    Shift=    0.500
 RMSDP=6.10D-06 MaxDP=1.34D-04 DE=-1.08D-05 OVMax= 9.64D-04

 Cycle  12  Pass 1  IDiag  1:
 E= -748.925159256108     Delta-E=       -0.000005100222 Rises=F Damp=F
 DIIS: error= 9.12D-05 at cycle  12 NSaved=  12.
 NSaved=12 IEnMin=12 EnMin= -748.925159256108     IErMin=12 ErrMin= 9.12D-05
 ErrMax= 9.12D-05  0.00D+00 EMaxC= 1.00D+00 BMatC= 1.39D-06 BMatP= 2.88D-06
 IDIUse=1 WtCom= 1.00D+00 WtEn= 0.00D+00
 Coeff-Com:  0.263D-02-0.400D-02-0.177D-01 0.380D-01-0.235D-01-0.109D+00
 Coeff-Com: -0.795D-01 0.628D+00 0.686D-01-0.717D+00-0.210D+01 0.332D+01
 Coeff:      0.263D-02-0.400D-02-0.177D-01 0.380D-01-0.235D-01-0.109D+00
 Coeff:     -0.795D-01 0.628D+00 0.686D-01-0.717D+00-0.210D+01 0.332D+01
 Gap=     0.280 Goal=   None    Shift=    0.500
 Gap=     0.187 Goal=   None    Shift=    0.500
 RMSDP=4.59D-06 MaxDP=9.45D-05 DE=-5.10D-06 OVMax= 6.64D-04

 Cycle  13  Pass 1  IDiag  1:
 E= -748.925161508386     Delta-E=       -0.000002252278 Rises=F Damp=F
 DIIS: error= 5.90D-05 at cycle  13 NSaved=  13.
 NSaved=13 IEnMin=13 EnMin= -748.925161508386     IErMin=13 ErrMin= 5.90D-05
 ErrMax= 5.90D-05  0.00D+00 EMaxC= 1.00D+00 BMatC= 6.38D-07 BMatP= 1.39D-06
 IDIUse=1 WtCom= 1.00D+00 WtEn= 0.00D+00
 Coeff-Com:  0.132D-02-0.164D-02-0.377D-02 0.740D-02 0.200D-01-0.404D-01
 Coeff-Com: -0.153D+00 0.192D+00 0.393D+00 0.751D-02-0.163D+01 0.136D+00
 Coeff-Com:  0.208D+01
 Coeff:      0.132D-02-0.164D-02-0.377D-02 0.740D-02 0.200D-01-0.404D-01
 Coeff:     -0.153D+00 0.192D+00 0.393D+00 0.751D-02-0.163D+01 0.136D+00
 Coeff:      0.208D+01
 Gap=     0.280 Goal=   None    Shift=    0.500
 Gap=     0.187 Goal=   None    Shift=    0.500
 RMSDP=3.07D-06 MaxDP=7.18D-05 DE=-2.25D-06 OVMax= 4.30D-04

 Cycle  14  Pass 1  IDiag  1:
 E= -748.925162422798     Delta-E=       -0.000000914412 Rises=F Damp=F
 DIIS: error= 3.74D-05 at cycle  14 NSaved=  14.
 NSaved=14 IEnMin=14 EnMin= -748.925162422798     IErMin=14 ErrMin= 3.74D-05
 ErrMax= 3.74D-05  0.00D+00 EMaxC= 1.00D+00 BMatC= 2.74D-07 BMatP= 6.38D-07
 IDIUse=1 WtCom= 1.00D+00 WtEn= 0.00D+00
 Coeff-Com: -0.772D-03 0.988D-03 0.102D-01-0.206D-01 0.214D-01 0.425D-01
 Coeff-Com: -0.172D-01-0.274D+00 0.126D+00 0.481D+00 0.321D+00-0.216D+01
 Coeff-Com:  0.636D+00 0.183D+01
 Coeff:     -0.772D-03 0.988D-03 0.102D-01-0.206D-01 0.214D-01 0.425D-01
 Coeff:     -0.172D-01-0.274D+00 0.126D+00 0.481D+00 0.321D+00-0.216D+01
 Coeff:      0.636D+00 0.183D+01
 Gap=     0.280 Goal=   None    Shift=    0.500
 Gap=     0.187 Goal=   None    Shift=    0.500
 RMSDP=2.08D-06 MaxDP=4.98D-05 DE=-9.14D-07 OVMax= 2.57D-04

 Cycle  15  Pass 1  IDiag  1:
 E= -748.925162780727     Delta-E=       -0.000000357929 Rises=F Damp=F
 DIIS: error= 2.31D-05 at cycle  15 NSaved=  15.
 NSaved=15 IEnMin=15 EnMin= -748.925162780727     IErMin=15 ErrMin= 2.31D-05
 ErrMax= 2.31D-05  0.00D+00 EMaxC= 1.00D+00 BMatC= 1.01D-07 BMatP= 2.74D-07
 IDIUse=1 WtCom= 1.00D+00 WtEn= 0.00D+00
 Coeff-Com: -0.434D-03 0.669D-03 0.675D-03-0.177D-02-0.609D-02 0.119D-01
 Coeff-Com:  0.488D-01-0.560D-01-0.120D+00 0.525D-02 0.423D+00-0.169D+00
 Coeff-Com: -0.659D+00-0.663D+00 0.219D+01
 Coeff:     -0.434D-03 0.669D-03 0.675D-03-0.177D-02-0.609D-02 0.119D-01
 Coeff:      0.488D-01-0.560D-01-0.120D+00 0.525D-02 0.423D+00-0.169D+00
 Coeff:     -0.659D+00-0.663D+00 0.219D+01
 Gap=     0.280 Goal=   None    Shift=    0.500
 Gap=     0.187 Goal=   None    Shift=    0.500
 RMSDP=1.35D-06 MaxDP=3.46D-05 DE=-3.58D-07 OVMax= 1.54D-04

 Cycle  16  Pass 1  IDiag  1:
 E= -748.925162917186     Delta-E=       -0.000000136459 Rises=F Damp=F
 DIIS: error= 1.65D-05 at cycle  16 NSaved=  16.
 NSaved=16 IEnMin=16 EnMin= -748.925162917186     IErMin=16 ErrMin= 1.65D-05
 ErrMax= 1.65D-05  0.00D+00 EMaxC= 1.00D+00 BMatC= 3.84D-08 BMatP= 1.01D-07
 IDIUse=1 WtCom= 1.00D+00 WtEn= 0.00D+00
 Coeff-Com:  0.224D-03-0.353D-03-0.141D-02 0.310D-02-0.274D-02-0.866D-02
 Coeff-Com: -0.105D-01 0.746D-01-0.420D-02-0.109D+00-0.145D+00 0.432D+00
 Coeff-Com: -0.148D+00-0.309D+00-0.111D+01 0.234D+01
 Coeff:      0.224D-03-0.353D-03-0.141D-02 0.310D-02-0.274D-02-0.866D-02
 Coeff:     -0.105D-01 0.746D-01-0.420D-02-0.109D+00-0.145D+00 0.432D+00
 Coeff:     -0.148D+00-0.309D+00-0.111D+01 0.234D+01
 Gap=     0.280 Goal=   None    Shift=    0.500
 Gap=     0.187 Goal=   None    Shift=    0.500
 RMSDP=8.38D-07 MaxDP=1.87D-05 DE=-1.36D-07 OVMax= 1.16D-04

 SCF Done:  E(ULC-wHPBE) =  -748.925162917     A.U. after   16 cycles
            NFock= 16  Conv=0.84D-06     -V/T= 2.0047
 <Sx>= 0.0000 <Sy>= 0.0000 <Sz>= 0.5000 <S**2>= 0.7642 S= 0.5071
 <L.S>= 0.000000000000E+00
 KE= 7.454325137463D+02 PE=-4.316719903706D+03 EE= 1.524141679020D+03
 Annihilation of the first spin contaminant:
 S**2 before annihilation     0.7642,   after     0.7502
 Leave Link  502 at Sun Jan 17 20:15:43 2021, MaxMem=  4026531840 cpu:            3255.8 elap:             408.1
 (Enter /opt/ohpc/pub/libs/gaussian/g16-A.03/sandybridge/g16/l508.exe)
 QCSCF skips out because SCF is already converged.
 Leave Link  508 at Sun Jan 17 20:15:43 2021, MaxMem=  4026531840 cpu:               0.1 elap:               0.0
 (Enter /opt/ohpc/pub/libs/gaussian/g16-A.03/sandybridge/g16/l601.exe)
 Copying SCF densities to generalized density rwf, IOpCl= 1 IROHF=0.

 **********************************************************************

            Population analysis using the SCF density.

 **********************************************************************

 Orbital symmetries:
 Alpha Orbitals:
       Occupied  (A) (A) (A) (A) (A) (A) (A) (A) (A) (A) (A) (A)
                 (A) (A) (A) (A) (A) (A) (A) (A) (A) (A) (A) (A)
                 (A) (A) (A) (A) (A) (A) (A) (A) (A) (A) (A) (A)
                 (A) (A) (A) (A) (A) (A) (A) (A) (A) (A) (A) (A)
                 (A) (A) (A) (A) (A) (A) (A) (A) (A) (A) (A) (A)
                 (A) (A) (A) (A) (A)
       Virtual   (A) (A) (A) (A) (A) (A) (A) (A) (A) (A) (A) (A)
                 (A) (A) (A) (A) (A) (A) (A) (A) (A) (A) (A) (A)
                 (A) (A) (A) (A) (A) (A) (A) (A) (A) (A) (A) (A)
                 (A) (A) (A) (A) (A) (A) (A) (A) (A) (A) (A) (A)
                 (A) (A) (A) (A) (A) (A) (A) (A) (A) (A) (A) (A)
                 (A) (A) (A) (A) (A) (A) (A) (A) (A) (A) (A) (A)
                 (A) (A) (A) (A) (A) (A) (A) (A) (A) (A) (A) (A)
                 (A) (A) (A) (A) (A) (A) (A) (A) (A) (A) (A) (A)
                 (A) (A) (A) (A) (A) (A) (A) (A) (A) (A) (A) (A)
                 (A) (A) (A) (A) (A) (A) (A) (A) (A) (A) (A) (A)
                 (A) (A) (A) (A) (A) (A) (A) (A) (A) (A) (A) (A)
                 (A) (A) (A) (A) (A) (A) (A) (A) (A) (A) (A) (A)
                 (A) (A) (A) (A) (A) (A) (A) (A) (A) (A) (A) (A)
                 (A) (A) (A) (A) (A) (A) (A) (A) (A) (A) (A) (A)
                 (A) (A) (A) (A) (A) (A) (A) (A) (A) (A) (A) (A)
                 (A) (A) (A) (A) (A) (A) (A) (A) (A) (A) (A) (A)
                 (A) (A) (A) (A) (A) (A) (A) (A) (A) (A) (A) (A)
                 (A) (A) (A) (A) (A) (A) (A) (A) (A) (A) (A) (A)
                 (A) (A) (A) (A) (A) (A) (A) (A) (A) (A) (A) (A)
                 (A) (A) (A) (A) (A) (A) (A) (A) (A) (A) (A) (A)
                 (A) (A) (A) (A) (A) (A) (A) (A) (A) (A) (A) (A)
                 (A) (A) (A) (A) (A) (A) (A) (A) (A) (A) (A) (A)
                 (A) (A) (A) (A) (A) (A) (A) (A) (A) (A) (A) (A)
                 (A) (A) (A) (A) (A) (A) (A) (A) (A) (A) (A) (A)
                 (A) (A) (A) (A) (A) (A) (A) (A) (A) (A) (A) (A)
                 (A) (A) (A) (A) (A) (A) (A) (A) (A) (A) (A) (A)
                 (A) (A) (A) (A) (A) (A) (A) (A) (A) (A) (A) (A)
                 (A) (A) (A) (A) (A) (A) (A) (A) (A) (A) (A) (A)
                 (A) (A) (A) (A) (A) (A) (A) (A) (A) (A) (A) (A)
                 (A) (A) (A) (A) (A) (A) (A) (A) (A) (A) (A) (A)
                 (A) (A) (A) (A) (A) (A) (A) (A) (A) (A) (A) (A)
                 (A) (A) (A) (A) (A) (A) (A) (A) (A) (A) (A) (A)
                 (A) (A)
 Beta  Orbitals:
       Occupied  (A) (A) (A) (A) (A) (A) (A) (A) (A) (A) (A) (A)
                 (A) (A) (A) (A) (A) (A) (A) (A) (A) (A) (A) (A)
                 (A) (A) (A) (A) (A) (A) (A) (A) (A) (A) (A) (A)
                 (A) (A) (A) (A) (A) (A) (A) (A) (A) (A) (A) (A)
                 (A) (A) (A) (A) (A) (A) (A) (A) (A) (A) (A) (A)
                 (A) (A) (A) (A)
       Virtual   (A) (A) (A) (A) (A) (A) (A) (A) (A) (A) (A) (A)
                 (A) (A) (A) (A) (A) (A) (A) (A) (A) (A) (A) (A)
                 (A) (A) (A) (A) (A) (A) (A) (A) (A) (A) (A) (A)
                 (A) (A) (A) (A) (A) (A) (A) (A) (A) (A) (A) (A)
                 (A) (A) (A) (A) (A) (A) (A) (A) (A) (A) (A) (A)
                 (A) (A) (A) (A) (A) (A) (A) (A) (A) (A) (A) (A)
                 (A) (A) (A) (A) (A) (A) (A) (A) (A) (A) (A) (A)
                 (A) (A) (A) (A) (A) (A) (A) (A) (A) (A) (A) (A)
                 (A) (A) (A) (A) (A) (A) (A) (A) (A) (A) (A) (A)
                 (A) (A) (A) (A) (A) (A) (A) (A) (A) (A) (A) (A)
                 (A) (A) (A) (A) (A) (A) (A) (A) (A) (A) (A) (A)
                 (A) (A) (A) (A) (A) (A) (A) (A) (A) (A) (A) (A)
                 (A) (A) (A) (A) (A) (A) (A) (A) (A) (A) (A) (A)
                 (A) (A) (A) (A) (A) (A) (A) (A) (A) (A) (A) (A)
                 (A) (A) (A) (A) (A) (A) (A) (A) (A) (A) (A) (A)
                 (A) (A) (A) (A) (A) (A) (A) (A) (A) (A) (A) (A)
                 (A) (A) (A) (A) (A) (A) (A) (A) (A) (A) (A) (A)
                 (A) (A) (A) (A) (A) (A) (A) (A) (A) (A) (A) (A)
                 (A) (A) (A) (A) (A) (A) (A) (A) (A) (A) (A) (A)
                 (A) (A) (A) (A) (A) (A) (A) (A) (A) (A) (A) (A)
                 (A) (A) (A) (A) (A) (A) (A) (A) (A) (A) (A) (A)
                 (A) (A) (A) (A) (A) (A) (A) (A) (A) (A) (A) (A)
                 (A) (A) (A) (A) (A) (A) (A) (A) (A) (A) (A) (A)
                 (A) (A) (A) (A) (A) (A) (A) (A) (A) (A) (A) (A)
                 (A) (A) (A) (A) (A) (A) (A) (A) (A) (A) (A) (A)
                 (A) (A) (A) (A) (A) (A) (A) (A) (A) (A) (A) (A)
                 (A) (A) (A) (A) (A) (A) (A) (A) (A) (A) (A) (A)
                 (A) (A) (A) (A) (A) (A) (A) (A) (A) (A) (A) (A)
                 (A) (A) (A) (A) (A) (A) (A) (A) (A) (A) (A) (A)
                 (A) (A) (A) (A) (A) (A) (A) (A) (A) (A) (A) (A)
                 (A) (A) (A) (A) (A) (A) (A) (A) (A) (A) (A) (A)
                 (A) (A) (A) (A) (A) (A) (A) (A) (A) (A) (A) (A)
                 (A) (A) (A)
 The electronic state is 2-A.
 Alpha  occ. eigenvalues --  -14.32009 -10.17272 -10.17268 -10.17266 -10.12616
 Alpha  occ. eigenvalues --  -10.12614 -10.12613 -10.12613 -10.12612 -10.12611
 Alpha  occ. eigenvalues --  -10.11787 -10.11784 -10.11784 -10.11465 -10.11463
 Alpha  occ. eigenvalues --  -10.11463 -10.11462 -10.11460 -10.11460  -1.16268
 Alpha  occ. eigenvalues --   -1.02454  -1.02453  -1.00370  -0.93258  -0.93257
 Alpha  occ. eigenvalues --   -0.91054  -0.91006  -0.91005  -0.88190  -0.81050
 Alpha  occ. eigenvalues --   -0.81050  -0.78192  -0.77410  -0.77409  -0.74613
 Alpha  occ. eigenvalues --   -0.72070  -0.72068  -0.68109  -0.66203  -0.66202
 Alpha  occ. eigenvalues --   -0.66114  -0.63157  -0.63157  -0.61415  -0.61239
 Alpha  occ. eigenvalues --   -0.61236  -0.60285  -0.59865  -0.59863  -0.57851
 Alpha  occ. eigenvalues --   -0.56810  -0.56809  -0.54683  -0.53882  -0.53684
 Alpha  occ. eigenvalues --   -0.53683  -0.52171  -0.52171  -0.51104  -0.46408
 Alpha  occ. eigenvalues --   -0.46407  -0.45966  -0.44775  -0.44774  -0.40626
 Alpha virt. eigenvalues --   -0.12590  -0.12588  -0.12348  -0.10181  -0.10180
 Alpha virt. eigenvalues --   -0.08272  -0.02879  -0.01298  -0.01297   0.00654
 Alpha virt. eigenvalues --    0.00656   0.01267   0.01413   0.02982   0.02983
 Alpha virt. eigenvalues --    0.03239   0.03242   0.03584   0.04397   0.04398
 Alpha virt. eigenvalues --    0.04539   0.05769   0.06470   0.06470   0.07254
 Alpha virt. eigenvalues --    0.10531   0.10796   0.10799   0.11606   0.11846
 Alpha virt. eigenvalues --    0.11847   0.11987   0.13348   0.13348   0.14421
 Alpha virt. eigenvalues --    0.14426   0.14555   0.15708   0.15709   0.16079
 Alpha virt. eigenvalues --    0.16436   0.16457   0.16460   0.16963   0.16967
 Alpha virt. eigenvalues --    0.17554   0.19147   0.19148   0.19944   0.19944
 Alpha virt. eigenvalues --    0.20329   0.21619   0.21621   0.22323   0.22658
 Alpha virt. eigenvalues --    0.23561   0.23566   0.24143   0.24836   0.24840
 Alpha virt. eigenvalues --    0.26628   0.27930   0.27992   0.27999   0.28058
 Alpha virt. eigenvalues --    0.29742   0.29744   0.30679   0.31050   0.31050
 Alpha virt. eigenvalues --    0.31107   0.31798   0.31984   0.31992   0.33163
 Alpha virt. eigenvalues --    0.33163   0.34956   0.35389   0.35391   0.35717
 Alpha virt. eigenvalues --    0.35720   0.36171   0.37509   0.37511   0.38118
 Alpha virt. eigenvalues --    0.38120   0.38423   0.39283   0.39705   0.39710
 Alpha virt. eigenvalues --    0.40914   0.41125   0.41127   0.41170   0.42201
 Alpha virt. eigenvalues --    0.42211   0.42425   0.42453   0.43694   0.43696
 Alpha virt. eigenvalues --    0.45879   0.45887   0.46180   0.46651   0.49014
 Alpha virt. eigenvalues --    0.49015   0.51297   0.51783   0.53036   0.53037
 Alpha virt. eigenvalues --    0.56916   0.56921   0.57800   0.57804   0.59610
 Alpha virt. eigenvalues --    0.59825   0.60033   0.60037   0.60824   0.60828
 Alpha virt. eigenvalues --    0.61216   0.62524   0.62538   0.65239   0.65263
 Alpha virt. eigenvalues --    0.67054   0.69070   0.69076   0.71066   0.74063
 Alpha virt. eigenvalues --    0.75210   0.75224   0.76219   0.82540   0.82548
 Alpha virt. eigenvalues --    0.83764   1.02023   1.04435   1.04439   1.08451
 Alpha virt. eigenvalues --    1.08455   1.08655   1.11381   1.11381   1.12472
 Alpha virt. eigenvalues --    1.12771   1.12771   1.14048   1.14370   1.15450
 Alpha virt. eigenvalues --    1.15451   1.16214   1.16219   1.17542   1.17706
 Alpha virt. eigenvalues --    1.17708   1.18797   1.19088   1.19219   1.19221
 Alpha virt. eigenvalues --    1.20749   1.20750   1.20927   1.21856   1.22765
 Alpha virt. eigenvalues --    1.22775   1.23015   1.30149   1.30153   1.31519
 Alpha virt. eigenvalues --    1.31694   1.31973   1.31977   1.32062   1.32064
 Alpha virt. eigenvalues --    1.32988   1.33066   1.33559   1.33561   1.34144
 Alpha virt. eigenvalues --    1.34147   1.35471   1.35550   1.35624   1.35632
 Alpha virt. eigenvalues --    1.37037   1.37039   1.39354   1.39633   1.39689
 Alpha virt. eigenvalues --    1.39689   1.40730   1.40733   1.42595   1.42602
 Alpha virt. eigenvalues --    1.42852   1.42885   1.43408   1.43410   1.44778
 Alpha virt. eigenvalues --    1.44778   1.44937   1.46137   1.46243   1.46246
 Alpha virt. eigenvalues --    1.47925   1.48085   1.48091   1.54494   1.54496
 Alpha virt. eigenvalues --    1.54751   1.58202   1.58221   1.63251   1.63502
 Alpha virt. eigenvalues --    1.63512   1.64823   1.65770   1.65770   1.66152
 Alpha virt. eigenvalues --    1.66430   1.66606   1.67112   1.67113   1.69182
 Alpha virt. eigenvalues --    1.69195   1.69997   1.70004   1.70316   1.71777
 Alpha virt. eigenvalues --    1.74798   1.74799   1.75597   1.76345   1.76799
 Alpha virt. eigenvalues --    1.76802   1.78325   1.78992   1.78995   1.79665
 Alpha virt. eigenvalues --    1.79670   1.79768   1.79779   1.80342   1.80502
 Alpha virt. eigenvalues --    1.81223   1.81231   1.81916   1.85687   1.85736
 Alpha virt. eigenvalues --    1.85737   1.86585   1.86857   1.86858   1.90067
 Alpha virt. eigenvalues --    1.90076   1.91058   1.94713   1.94715   1.98377
 Alpha virt. eigenvalues --    1.98381   1.98708   2.01550   2.06360   2.06361
 Alpha virt. eigenvalues --    2.08772   2.10210   2.10214   2.12738   2.16405
 Alpha virt. eigenvalues --    2.16405   2.17267   2.17373   2.17959   2.17961
 Alpha virt. eigenvalues --    2.18109   2.18111   2.20591   2.20809   2.20810
 Alpha virt. eigenvalues --    2.21194   2.22468   2.22820   2.22822   2.23818
 Alpha virt. eigenvalues --    2.23820   2.24517   2.30521   2.30526   2.31981
 Alpha virt. eigenvalues --    2.36552   2.36559   2.38370   2.38371   2.39273
 Alpha virt. eigenvalues --    2.39276   2.39819   2.40627   2.42218   2.42227
 Alpha virt. eigenvalues --    2.42777   2.45982   2.50277   2.50282   2.51004
 Alpha virt. eigenvalues --    2.51534   2.51541   2.52109   2.52113   2.53429
 Alpha virt. eigenvalues --    2.53760   2.55123   2.55125   2.60779   2.60789
 Alpha virt. eigenvalues --    2.61380   2.63057   2.63059   2.64305   2.64541
 Alpha virt. eigenvalues --    2.69096   2.69105   2.71055   2.71742   2.71755
 Alpha virt. eigenvalues --    2.76074   2.81617   2.81630   2.84968   2.84972
 Alpha virt. eigenvalues --    2.88799   2.89594   2.89990   2.89995   2.90970
 Alpha virt. eigenvalues --    2.92296   2.92301   2.95087   2.96944   2.96948
 Alpha virt. eigenvalues --    2.98211   2.99518   3.02209   3.02212   3.03353
 Alpha virt. eigenvalues --    3.03354   3.05840   3.05843   3.06819   3.06824
 Alpha virt. eigenvalues --    3.07627   3.11628   3.19516   3.19519   3.20258
 Alpha virt. eigenvalues --    3.24549   3.28028   3.28035   3.30691   3.38601
 Alpha virt. eigenvalues --    3.41192   3.41207   3.45837   3.45843   3.67616
 Alpha virt. eigenvalues --    3.76894   3.76896  21.03831  21.06559  21.06567
 Alpha virt. eigenvalues --   21.52012  21.55366  21.55368  21.55384  21.63505
 Alpha virt. eigenvalues --   21.63514  21.74162  21.78061  21.80205  21.80211
 Alpha virt. eigenvalues --   21.85708  21.85711  21.91878  21.97716  21.97743
 Alpha virt. eigenvalues --   31.81858
  Beta  occ. eigenvalues --  -14.31175 -10.17303 -10.17299 -10.17298 -10.12476
  Beta  occ. eigenvalues --  -10.12475 -10.12474 -10.12474 -10.12472 -10.12472
  Beta  occ. eigenvalues --  -10.11623 -10.11621 -10.11620 -10.11519 -10.11517
  Beta  occ. eigenvalues --  -10.11517 -10.11512 -10.11509 -10.11509  -1.15184
  Beta  occ. eigenvalues --   -1.02232  -1.02231  -1.00067  -0.93036  -0.93035
  Beta  occ. eigenvalues --   -0.90898  -0.90846  -0.90845  -0.87645  -0.80781
  Beta  occ. eigenvalues --   -0.80781  -0.77920  -0.77265  -0.77264  -0.74439
  Beta  occ. eigenvalues --   -0.71902  -0.71900  -0.67939  -0.66013  -0.66012
  Beta  occ. eigenvalues --   -0.65307  -0.63050  -0.63050  -0.61333  -0.61092
  Beta  occ. eigenvalues --   -0.61090  -0.60162  -0.59792  -0.59790  -0.57161
  Beta  occ. eigenvalues --   -0.56369  -0.56369  -0.54567  -0.53577  -0.53576
  Beta  occ. eigenvalues --   -0.53096  -0.52067  -0.52066  -0.50130  -0.45592
  Beta  occ. eigenvalues --   -0.45367  -0.45366  -0.44266  -0.44265
  Beta virt. eigenvalues --   -0.25589  -0.12090  -0.11909  -0.11908  -0.09744
  Beta virt. eigenvalues --   -0.09743  -0.07239  -0.02773  -0.01221  -0.01221
  Beta virt. eigenvalues --    0.00720   0.00722   0.01369   0.01456   0.03046
  Beta virt. eigenvalues --    0.03047   0.03560   0.03562   0.03813   0.04444
  Beta virt. eigenvalues --    0.04445   0.04626   0.06197   0.06516   0.06517
  Beta virt. eigenvalues --    0.07609   0.10726   0.10941   0.10944   0.11763
  Beta virt. eigenvalues --    0.11978   0.11979   0.12208   0.13472   0.13472
  Beta virt. eigenvalues --    0.14568   0.14573   0.14688   0.15838   0.15839
  Beta virt. eigenvalues --    0.16253   0.16499   0.16502   0.16537   0.17084
  Beta virt. eigenvalues --    0.17088   0.17670   0.19227   0.19228   0.19988
  Beta virt. eigenvalues --    0.19989   0.20532   0.21887   0.21890   0.22447
  Beta virt. eigenvalues --    0.22872   0.23715   0.23720   0.24414   0.25031
  Beta virt. eigenvalues --    0.25035   0.26887   0.28144   0.28146   0.28151
  Beta virt. eigenvalues --    0.28259   0.29867   0.29869   0.30956   0.31209
  Beta virt. eigenvalues --    0.31209   0.31258   0.32059   0.32142   0.32150
  Beta virt. eigenvalues --    0.33362   0.33362   0.34966   0.35416   0.35419
  Beta virt. eigenvalues --    0.35816   0.35819   0.36226   0.37651   0.37652
  Beta virt. eigenvalues --    0.38277   0.38279   0.38571   0.39444   0.39782
  Beta virt. eigenvalues --    0.39787   0.41047   0.41207   0.41210   0.41367
  Beta virt. eigenvalues --    0.42307   0.42317   0.42551   0.42644   0.43834
  Beta virt. eigenvalues --    0.43836   0.46004   0.46012   0.46320   0.46762
  Beta virt. eigenvalues --    0.49136   0.49137   0.51465   0.51986   0.53132
  Beta virt. eigenvalues --    0.53134   0.57019   0.57022   0.57942   0.57945
  Beta virt. eigenvalues --    0.59706   0.60039   0.60154   0.60158   0.60946
  Beta virt. eigenvalues --    0.60948   0.61337   0.62658   0.62672   0.65411
  Beta virt. eigenvalues --    0.65436   0.67181   0.69171   0.69177   0.71608
  Beta virt. eigenvalues --    0.74762   0.75320   0.75333   0.76422   0.82639
  Beta virt. eigenvalues --    0.82647   0.84038   1.02155   1.04543   1.04547
  Beta virt. eigenvalues --    1.08598   1.08603   1.08756   1.11556   1.11557
  Beta virt. eigenvalues --    1.12723   1.12883   1.12884   1.14242   1.14584
  Beta virt. eigenvalues --    1.15631   1.15631   1.16480   1.16485   1.17673
  Beta virt. eigenvalues --    1.17825   1.17827   1.18967   1.19270   1.19386
  Beta virt. eigenvalues --    1.19389   1.20841   1.20842   1.21096   1.22143
  Beta virt. eigenvalues --    1.22986   1.22996   1.23031   1.30386   1.30389
  Beta virt. eigenvalues --    1.31689   1.31946   1.31951   1.32229   1.32689
  Beta virt. eigenvalues --    1.32689   1.32952   1.33536   1.33737   1.33739
  Beta virt. eigenvalues --    1.34216   1.34217   1.35554   1.35760   1.35957
  Beta virt. eigenvalues --    1.35965   1.37153   1.37155   1.39569   1.39657
  Beta virt. eigenvalues --    1.39963   1.39964   1.40780   1.40784   1.42674
  Beta virt. eigenvalues --    1.42680   1.42969   1.43002   1.43710   1.43712
  Beta virt. eigenvalues --    1.45049   1.45049   1.45219   1.46416   1.46421
  Beta virt. eigenvalues --    1.46456   1.48132   1.48279   1.48285   1.54697
  Beta virt. eigenvalues --    1.54698   1.54940   1.58362   1.58381   1.63462
  Beta virt. eigenvalues --    1.63772   1.63783   1.65180   1.65971   1.65972
  Beta virt. eigenvalues --    1.66449   1.66657   1.66683   1.67272   1.67273
  Beta virt. eigenvalues --    1.69402   1.69414   1.70138   1.70146   1.70670
  Beta virt. eigenvalues --    1.72044   1.74989   1.74990   1.75902   1.76608
  Beta virt. eigenvalues --    1.76993   1.76996   1.78494   1.79151   1.79155
  Beta virt. eigenvalues --    1.79862   1.79868   1.79949   1.79959   1.80525
  Beta virt. eigenvalues --    1.80593   1.81348   1.81356   1.82148   1.85872
  Beta virt. eigenvalues --    1.85925   1.85926   1.87044   1.87060   1.87060
  Beta virt. eigenvalues --    1.90269   1.90279   1.91355   1.94919   1.94921
  Beta virt. eigenvalues --    1.98625   1.98628   1.98820   2.02020   2.06684
  Beta virt. eigenvalues --    2.06685   2.09441   2.10837   2.10843   2.13328
  Beta virt. eigenvalues --    2.16572   2.16573   2.17602   2.17690   2.18214
  Beta virt. eigenvalues --    2.18216   2.18460   2.18461   2.20922   2.21078
  Beta virt. eigenvalues --    2.21079   2.21615   2.22706   2.23105   2.23108
  Beta virt. eigenvalues --    2.24047   2.24049   2.24833   2.30824   2.30829
  Beta virt. eigenvalues --    2.32518   2.36732   2.36739   2.38385   2.38387
  Beta virt. eigenvalues --    2.39572   2.39575   2.39956   2.40842   2.42424
  Beta virt. eigenvalues --    2.42433   2.43276   2.46477   2.50559   2.50564
  Beta virt. eigenvalues --    2.51328   2.51729   2.51735   2.52299   2.52302
  Beta virt. eigenvalues --    2.53878   2.54162   2.55328   2.55330   2.61362
  Beta virt. eigenvalues --    2.61371   2.61651   2.63319   2.63323   2.64734
  Beta virt. eigenvalues --    2.65340   2.69221   2.69229   2.71389   2.71893
  Beta virt. eigenvalues --    2.71905   2.76311   2.82160   2.82175   2.85159
  Beta virt. eigenvalues --    2.85164   2.88869   2.89759   2.90044   2.90048
  Beta virt. eigenvalues --    2.91014   2.92387   2.92392   2.95512   2.97195
  Beta virt. eigenvalues --    2.97198   2.98301   2.99809   3.02358   3.02361
  Beta virt. eigenvalues --    3.03525   3.03526   3.05991   3.05994   3.06994
  Beta virt. eigenvalues --    3.06999   3.07884   3.11816   3.19609   3.19612
  Beta virt. eigenvalues --    3.20351   3.25198   3.28247   3.28254   3.31878
  Beta virt. eigenvalues --    3.38717   3.41307   3.41321   3.46175   3.46182
  Beta virt. eigenvalues --    3.67892   3.77184   3.77186  21.03917  21.06649
  Beta virt. eigenvalues --   21.06656  21.52070  21.55426  21.55430  21.55526
  Beta virt. eigenvalues --   21.63679  21.63688  21.74245  21.78158  21.80287
  Beta virt. eigenvalues --   21.80293  21.85801  21.85804  21.91970  21.97785
  Beta virt. eigenvalues --   21.97812  31.83064
          Condensed to atoms (all electrons):
               1          2          3          4          5          6
     1  N    6.333328   0.187502  -0.005610  -0.005064   0.010006   0.010004
     2  C    0.187502   5.647076   0.289272   0.288925   0.030478   0.030493
     3  C   -0.005610   0.289272   5.243262  -0.032420   0.363823  -0.139902
     4  C   -0.005064   0.288925  -0.032420   5.243317  -0.139859   0.363698
     5  C    0.010006   0.030478   0.363823  -0.139859   5.048280   0.039369
     6  C    0.010004   0.030493  -0.139902   0.363698   0.039369   5.048466
     7  C    0.005630  -0.084350  -0.018745  -0.018685   0.420669   0.420599
     8  H   -0.005835  -0.046306   0.399417   0.010370  -0.026396  -0.001392
     9  H   -0.005802  -0.046326   0.010400   0.399441  -0.001402  -0.026434
    10  H   -0.000524   0.015725  -0.044559  -0.001308   0.412163   0.014088
    11  H   -0.000525   0.015731  -0.001306  -0.044577   0.014089   0.412177
    12  H   -0.000028  -0.006691   0.021736   0.021737  -0.060229  -0.060240
    13  C    0.187057  -0.151219   0.038314  -0.002707  -0.001218  -0.005284
    14  C   -0.005008   0.038193  -0.048520   0.012876  -0.003770   0.002928
    15  C   -0.005645  -0.003129   0.012997  -0.009279   0.000281  -0.000236
    16  C    0.010019  -0.001101  -0.003799   0.000281  -0.000077   0.000050
    17  C    0.010034  -0.005229   0.002912  -0.000232   0.000048  -0.000036
    18  C    0.005633   0.003457  -0.001792   0.000063  -0.000123   0.000016
    19  H   -0.005772  -0.000150  -0.000091  -0.000133  -0.001846   0.000193
    20  H   -0.005840  -0.001570   0.000485  -0.000270  -0.000007  -0.000001
    21  H   -0.000526  -0.000203  -0.000047  -0.000029   0.000021   0.000000
    22  H   -0.000525  -0.000036   0.000001   0.000001  -0.000000   0.000000
    23  H   -0.000028   0.000019  -0.000016   0.000001  -0.000001  -0.000000
    24  C    0.187038  -0.151254  -0.002911   0.038207  -0.005244  -0.001173
    25  C   -0.005585   0.038293   0.012979  -0.048462   0.002909  -0.003800
    26  C   -0.005082  -0.002864  -0.009294   0.012898  -0.000233   0.000285
    27  C    0.010022  -0.001174   0.000288  -0.003784   0.000048  -0.000082
    28  C    0.010024  -0.005280  -0.000232   0.002921  -0.000036   0.000048
    29  C    0.005634   0.003493   0.000063  -0.001797   0.000016  -0.000123
    30  H   -0.005809  -0.000081  -0.000132  -0.000120   0.000198  -0.001847
    31  H   -0.005797  -0.001543  -0.000271   0.000478  -0.000001  -0.000007
    32  H   -0.000525  -0.000204  -0.000029  -0.000048   0.000000   0.000021
    33  H   -0.000526  -0.000037   0.000001   0.000001   0.000000  -0.000000
    34  H   -0.000028   0.000019   0.000001  -0.000016  -0.000000  -0.000001
               7          8          9         10         11         12
     1  N    0.005630  -0.005835  -0.005802  -0.000524  -0.000525  -0.000028
     2  C   -0.084350  -0.046306  -0.046326   0.015725   0.015731  -0.006691
     3  C   -0.018745   0.399417   0.010400  -0.044559  -0.001306   0.021736
     4  C   -0.018685   0.010370   0.399441  -0.001308  -0.044577   0.021737
     5  C    0.420669  -0.026396  -0.001402   0.412163   0.014089  -0.060229
     6  C    0.420599  -0.001392  -0.026434   0.014088   0.412177  -0.060240
     7  C    4.993608   0.008696   0.008711  -0.053731  -0.053742   0.426199
     8  H    0.008696   0.487790  -0.000126  -0.005906   0.000012  -0.000057
     9  H    0.008711  -0.000126   0.487813   0.000012  -0.005909  -0.000057
    10  H   -0.053731  -0.005906   0.000012   0.520797  -0.000132  -0.006653
    11  H   -0.053742   0.000012  -0.005909  -0.000132   0.520801  -0.006653
    12  H    0.426199  -0.000057  -0.000057  -0.006653  -0.006653   0.517288
    13  C    0.003504  -0.000010  -0.001539  -0.000204  -0.000037   0.000019
    14  C   -0.001802  -0.000141   0.000474  -0.000048   0.000001  -0.000016
    15  C    0.000065  -0.000140  -0.000271  -0.000029   0.000001   0.000001
    16  C   -0.000124  -0.001846  -0.000007   0.000022  -0.000000  -0.000001
    17  C    0.000016   0.000201  -0.000001   0.000000   0.000000  -0.000000
    18  C   -0.000013   0.000631  -0.000001  -0.000000   0.000000  -0.000000
    19  H    0.000634   0.001159   0.000002  -0.000041  -0.000002   0.000003
    20  H   -0.000001   0.000003  -0.000002  -0.000000  -0.000000   0.000000
    21  H   -0.000000  -0.000041  -0.000000   0.000000  -0.000000  -0.000000
    22  H    0.000000  -0.000002  -0.000000  -0.000000  -0.000000  -0.000000
    23  H   -0.000000   0.000003   0.000000  -0.000000  -0.000000   0.000000
    24  C    0.003470  -0.001565  -0.000067  -0.000036  -0.000203   0.000019
    25  C   -0.001785   0.000483  -0.000100   0.000001  -0.000048  -0.000016
    26  C    0.000063  -0.000271  -0.000149   0.000001  -0.000029   0.000001
    27  C   -0.000122  -0.000007  -0.001842  -0.000000   0.000021  -0.000001
    28  C    0.000016  -0.000001   0.000196   0.000000   0.000000  -0.000000
    29  C   -0.000013  -0.000001   0.000632   0.000000  -0.000000  -0.000000
    30  H    0.000632   0.000002   0.001159  -0.000002  -0.000041   0.000003
    31  H   -0.000001  -0.000002   0.000002  -0.000000  -0.000000   0.000000
    32  H   -0.000000  -0.000000  -0.000041  -0.000000   0.000000  -0.000000
    33  H    0.000000  -0.000000  -0.000002  -0.000000  -0.000000  -0.000000
    34  H   -0.000000   0.000000   0.000003  -0.000000  -0.000000   0.000000
              13         14         15         16         17         18
     1  N    0.187057  -0.005008  -0.005645   0.010019   0.010034   0.005633
     2  C   -0.151219   0.038193  -0.003129  -0.001101  -0.005229   0.003457
     3  C    0.038314  -0.048520   0.012997  -0.003799   0.002912  -0.001792
     4  C   -0.002707   0.012876  -0.009279   0.000281  -0.000232   0.000063
     5  C   -0.001218  -0.003770   0.000281  -0.000077   0.000048  -0.000123
     6  C   -0.005284   0.002928  -0.000236   0.000050  -0.000036   0.000016
     7  C    0.003504  -0.001802   0.000065  -0.000124   0.000016  -0.000013
     8  H   -0.000010  -0.000141  -0.000140  -0.001846   0.000201   0.000631
     9  H   -0.001539   0.000474  -0.000271  -0.000007  -0.000001  -0.000001
    10  H   -0.000204  -0.000048  -0.000029   0.000022   0.000000  -0.000000
    11  H   -0.000037   0.000001   0.000001  -0.000000   0.000000   0.000000
    12  H    0.000019  -0.000016   0.000001  -0.000001  -0.000000  -0.000000
    13  C    5.649124   0.288401   0.289206   0.030591   0.030639  -0.084459
    14  C    0.288401   5.243365  -0.032080   0.363596  -0.139918  -0.018646
    15  C    0.289206  -0.032080   5.242389  -0.139919   0.363693  -0.018703
    16  C    0.030591   0.363596  -0.139919   5.048583   0.039411   0.420480
    17  C    0.030639  -0.139918   0.363693   0.039411   5.048527   0.420534
    18  C   -0.084459  -0.018646  -0.018703   0.420480   0.420534   4.993866
    19  H   -0.046406   0.399561   0.010424  -0.026493  -0.001411   0.008730
    20  H   -0.046342   0.010408   0.399537  -0.001404  -0.026534   0.008716
    21  H    0.015746  -0.044582  -0.001305   0.412180   0.014090  -0.053767
    22  H    0.015727  -0.001303  -0.044554   0.014093   0.412166  -0.053757
    23  H   -0.006690   0.021734   0.021731  -0.060229  -0.060222   0.426200
    24  C   -0.151677  -0.002727   0.038475  -0.005307  -0.001244   0.003512
    25  C   -0.002932  -0.009298   0.012894  -0.000231   0.000287   0.000063
    26  C    0.038370   0.012819  -0.048465   0.002934  -0.003750  -0.001804
    27  C   -0.005274  -0.000231   0.002926  -0.000036   0.000048   0.000016
    28  C   -0.001208   0.000285  -0.003767   0.000048  -0.000077  -0.000122
    29  C    0.003484   0.000062  -0.001798   0.000016  -0.000123  -0.000013
    30  H   -0.001571  -0.000271   0.000489  -0.000001  -0.000007  -0.000001
    31  H   -0.000086  -0.000149  -0.000085   0.000193  -0.001844   0.000633
    32  H   -0.000037   0.000001   0.000001   0.000000  -0.000000   0.000000
    33  H   -0.000205  -0.000029  -0.000046   0.000000   0.000021  -0.000000
    34  H    0.000019   0.000001  -0.000016  -0.000000  -0.000001  -0.000000
              19         20         21         22         23         24
     1  N   -0.005772  -0.005840  -0.000526  -0.000525  -0.000028   0.187038
     2  C   -0.000150  -0.001570  -0.000203  -0.000036   0.000019  -0.151254
     3  C   -0.000091   0.000485  -0.000047   0.000001  -0.000016  -0.002911
     4  C   -0.000133  -0.000270  -0.000029   0.000001   0.000001   0.038207
     5  C   -0.001846  -0.000007   0.000021  -0.000000  -0.000001  -0.005244
     6  C    0.000193  -0.000001   0.000000   0.000000  -0.000000  -0.001173
     7  C    0.000634  -0.000001  -0.000000   0.000000  -0.000000   0.003470
     8  H    0.001159   0.000003  -0.000041  -0.000002   0.000003  -0.001565
     9  H    0.000002  -0.000002  -0.000000  -0.000000   0.000000  -0.000067
    10  H   -0.000041  -0.000000   0.000000  -0.000000  -0.000000  -0.000036
    11  H   -0.000002  -0.000000  -0.000000  -0.000000  -0.000000  -0.000203
    12  H    0.000003   0.000000  -0.000000  -0.000000   0.000000   0.000019
    13  C   -0.046406  -0.046342   0.015746   0.015727  -0.006690  -0.151677
    14  C    0.399561   0.010408  -0.044582  -0.001303   0.021734  -0.002727
    15  C    0.010424   0.399537  -0.001305  -0.044554   0.021731   0.038475
    16  C   -0.026493  -0.001404   0.412180   0.014093  -0.060229  -0.005307
    17  C   -0.001411  -0.026534   0.014090   0.412166  -0.060222  -0.001244
    18  C    0.008730   0.008716  -0.053767  -0.053757   0.426200   0.003512
    19  H    0.487924  -0.000126  -0.005914   0.000012  -0.000057  -0.001546
    20  H   -0.000126   0.487980   0.000012  -0.005907  -0.000057  -0.000022
    21  H   -0.005914   0.000012   0.520837  -0.000132  -0.006652  -0.000037
    22  H    0.000012  -0.005907  -0.000132   0.520822  -0.006655  -0.000205
    23  H   -0.000057  -0.000057  -0.006652  -0.006655   0.517285   0.000019
    24  C   -0.001546  -0.000022  -0.000037  -0.000205   0.000019   5.648931
    25  C   -0.000272  -0.000146   0.000001  -0.000029   0.000001   0.289144
    26  C    0.000482  -0.000123   0.000001  -0.000046  -0.000016   0.288769
    27  C   -0.000001   0.000200   0.000000   0.000000  -0.000000   0.030532
    28  C   -0.000007  -0.001844  -0.000000   0.000021  -0.000001   0.030537
    29  C   -0.000001   0.000631   0.000000  -0.000000  -0.000000  -0.084398
    30  H   -0.000002   0.000003  -0.000000  -0.000000   0.000000  -0.046359
    31  H    0.000003   0.001158  -0.000002  -0.000041   0.000003  -0.046366
    32  H   -0.000000  -0.000002  -0.000000  -0.000000  -0.000000   0.015722
    33  H   -0.000000  -0.000041  -0.000000   0.000000  -0.000000   0.015736
    34  H    0.000000   0.000003  -0.000000  -0.000000   0.000000  -0.006691
              25         26         27         28         29         30
     1  N   -0.005585  -0.005082   0.010022   0.010024   0.005634  -0.005809
     2  C    0.038293  -0.002864  -0.001174  -0.005280   0.003493  -0.000081
     3  C    0.012979  -0.009294   0.000288  -0.000232   0.000063  -0.000132
     4  C   -0.048462   0.012898  -0.003784   0.002921  -0.001797  -0.000120
     5  C    0.002909  -0.000233   0.000048  -0.000036   0.000016   0.000198
     6  C   -0.003800   0.000285  -0.000082   0.000048  -0.000123  -0.001847
     7  C   -0.001785   0.000063  -0.000122   0.000016  -0.000013   0.000632
     8  H    0.000483  -0.000271  -0.000007  -0.000001  -0.000001   0.000002
     9  H   -0.000100  -0.000149  -0.001842   0.000196   0.000632   0.001159
    10  H    0.000001   0.000001  -0.000000   0.000000   0.000000  -0.000002
    11  H   -0.000048  -0.000029   0.000021   0.000000  -0.000000  -0.000041
    12  H   -0.000016   0.000001  -0.000001  -0.000000  -0.000000   0.000003
    13  C   -0.002932   0.038370  -0.005274  -0.001208   0.003484  -0.001571
    14  C   -0.009298   0.012819  -0.000231   0.000285   0.000062  -0.000271
    15  C    0.012894  -0.048465   0.002926  -0.003767  -0.001798   0.000489
    16  C   -0.000231   0.002934  -0.000036   0.000048   0.000016  -0.000001
    17  C    0.000287  -0.003750   0.000048  -0.000077  -0.000123  -0.000007
    18  C    0.000063  -0.001804   0.000016  -0.000122  -0.000013  -0.000001
    19  H   -0.000272   0.000482  -0.000001  -0.000007  -0.000001  -0.000002
    20  H   -0.000146  -0.000123   0.000200  -0.001844   0.000631   0.000003
    21  H    0.000001   0.000001   0.000000  -0.000000   0.000000  -0.000000
    22  H   -0.000029  -0.000046   0.000000   0.000021  -0.000000  -0.000000
    23  H    0.000001  -0.000016  -0.000000  -0.000001  -0.000000   0.000000
    24  C    0.289144   0.288769   0.030532   0.030537  -0.084398  -0.046359
    25  C    5.242863  -0.032191   0.363729  -0.139839  -0.018779   0.399525
    26  C   -0.032191   5.242489  -0.139839   0.363749  -0.018689   0.010396
    27  C    0.363729  -0.139839   5.048425   0.039404   0.420585  -0.026465
    28  C   -0.139839   0.363749   0.039404   5.048534   0.420457  -0.001399
    29  C   -0.018779  -0.018689   0.420585   0.420457   4.993902   0.008708
    30  H    0.399525   0.010396  -0.026465  -0.001399   0.008708   0.487901
    31  H    0.010415   0.399560  -0.001408  -0.026535   0.008725  -0.000126
    32  H   -0.044549  -0.001302   0.412153   0.014089  -0.053746  -0.005904
    33  H   -0.001301  -0.044568   0.014090   0.412172  -0.053767   0.000012
    34  H    0.021735   0.021732  -0.060224  -0.060231   0.426199  -0.000057
              31         32         33         34
     1  N   -0.005797  -0.000525  -0.000526  -0.000028
     2  C   -0.001543  -0.000204  -0.000037   0.000019
     3  C   -0.000271  -0.000029   0.000001   0.000001
     4  C    0.000478  -0.000048   0.000001  -0.000016
     5  C   -0.000001   0.000000   0.000000  -0.000000
     6  C   -0.000007   0.000021  -0.000000  -0.000001
     7  C   -0.000001  -0.000000   0.000000  -0.000000
     8  H   -0.000002  -0.000000  -0.000000   0.000000
     9  H    0.000002  -0.000041  -0.000002   0.000003
    10  H   -0.000000  -0.000000  -0.000000  -0.000000
    11  H   -0.000000   0.000000  -0.000000  -0.000000
    12  H    0.000000  -0.000000  -0.000000   0.000000
    13  C   -0.000086  -0.000037  -0.000205   0.000019
    14  C   -0.000149   0.000001  -0.000029   0.000001
    15  C   -0.000085   0.000001  -0.000046  -0.000016
    16  C    0.000193   0.000000   0.000000  -0.000000
    17  C   -0.001844  -0.000000   0.000021  -0.000001
    18  C    0.000633   0.000000  -0.000000  -0.000000
    19  H    0.000003  -0.000000  -0.000000   0.000000
    20  H    0.001158  -0.000002  -0.000041   0.000003
    21  H   -0.000002  -0.000000  -0.000000  -0.000000
    22  H   -0.000041  -0.000000   0.000000  -0.000000
    23  H    0.000003  -0.000000  -0.000000   0.000000
    24  C   -0.046366   0.015722   0.015736  -0.006691
    25  C    0.010415  -0.044549  -0.001301   0.021735
    26  C    0.399560  -0.001302  -0.044568   0.021732
    27  C   -0.001408   0.412153   0.014090  -0.060224
    28  C   -0.026535   0.014089   0.412172  -0.060231
    29  C    0.008725  -0.053746  -0.053767   0.426199
    30  H   -0.000126  -0.005904   0.000012  -0.000057
    31  H    0.487982   0.000012  -0.005909  -0.000057
    32  H    0.000012   0.520819  -0.000132  -0.006654
    33  H   -0.005909  -0.000132   0.520823  -0.006654
    34  H   -0.000057  -0.006654  -0.006654   0.517297
          Atomic-Atomic Spin Densities.
               1          2          3          4          5          6
     1  N    0.599356  -0.071022  -0.005131  -0.005146   0.002026   0.002028
     2  C   -0.071022  -0.021028   0.020871   0.020870  -0.004625  -0.004619
     3  C   -0.005131   0.020871   0.102161   0.007191  -0.007115  -0.001448
     4  C   -0.005146   0.020870   0.007191   0.102240  -0.001456  -0.007103
     5  C    0.002026  -0.004625  -0.007115  -0.001456  -0.043814  -0.003254
     6  C    0.002028  -0.004619  -0.001448  -0.007103  -0.003254  -0.043872
     7  C    0.000088  -0.007458  -0.002821  -0.002831   0.004279   0.004276
[...]
 Charge=              1.0000 electrons
 Dipole moment (field-independent basis, Debye):
    X=             -0.0010    Y=              0.0021    Z=              0.0006  Tot=              0.0024
 Quadrupole moment (field-independent basis, Debye-Ang):
   XX=            -67.6848   YY=            -67.6918   ZZ=           -103.0695
   XY=              0.0020   XZ=              0.0006   YZ=             -0.0003
 Traceless Quadrupole moment (field-independent basis, Debye-Ang):
   XX=             11.7972   YY=             11.7903   ZZ=            -23.5875
   XY=              0.0020   XZ=              0.0006   YZ=             -0.0003
 Octapole moment (field-independent basis, Debye-Ang**2):
  XXX=             50.7609  YYY=             41.8166  ZZZ=             -0.0078  XYY=            -50.7982
  XXY=            -41.7118  XXZ=              0.0201  XZZ=              0.0169  YZZ=             -0.0588
  YYZ=              0.0327  XYZ=              0.0129
 Hexadecapole moment (field-independent basis, Debye-Ang**3):
 XXXX=          -2471.5123 YYYY=          -2471.2777 ZZZZ=           -436.5025 XXXY=             -0.1425
 XXXZ=             68.9431 YYYX=              0.0982 YYYZ=            -83.9865 ZZZX=              0.0770
 ZZZY=              0.0271 XXYY=           -823.7196 XXZZ=           -564.3128 YYZZ=           -564.4514
 XXYZ=             83.9325 YYXZ=            -69.0574 ZZXY=              0.0499
 N-N= 1.298220548022D+03 E-N=-4.316719854966D+03  KE= 7.454325137463D+02
                          Isotropic Fermi Contact Couplings
        Atom                 a.u.       MegaHertz       Gauss      10(-4) cm-1
     1  N(14)              0.03894      12.58162       4.48943       4.19678
     2  C(13)             -0.01606     -18.05079      -6.44097      -6.02110
     3  C(13)              0.00542       6.09366       2.17437       2.03263
     4  C(13)              0.00543       6.10102       2.17699       2.03508
     5  C(13)             -0.00552      -6.20390      -2.21370      -2.06940
     6  C(13)             -0.00552      -6.20551      -2.21428      -2.06994
     7  C(13)              0.00379       4.26084       1.52037       1.42126
     8  H(1)              -0.00119      -5.30274      -1.89215      -1.76881
     9  H(1)              -0.00119      -5.30376      -1.89251      -1.76914
    10  H(1)               0.00079       3.54540       1.26509       1.18262
    11  H(1)               0.00079       3.54248       1.26405       1.18165
    12  H(1)              -0.00180      -8.02863      -2.86481      -2.67806
    13  C(13)             -0.01605     -18.04004      -6.43713      -6.01751
    14  C(13)              0.00544       6.11587       2.18230       2.04004
    15  C(13)              0.00544       6.11469       2.18187       2.03964
    16  C(13)             -0.00550      -6.18831      -2.20814      -2.06420
    17  C(13)             -0.00550      -6.18456      -2.20680      -2.06295
    18  C(13)              0.00378       4.24949       1.51632       1.41748
    19  H(1)              -0.00118      -5.29278      -1.88860      -1.76548
    20  H(1)              -0.00118      -5.29436      -1.88916      -1.76601
    21  H(1)               0.00079       3.54382       1.26452       1.18209
    22  H(1)               0.00079       3.54303       1.26424       1.18183
    23  H(1)              -0.00179      -8.00931      -2.85792      -2.67162
    24  C(13)             -0.01605     -18.03765      -6.43628      -6.01671
    25  C(13)              0.00543       6.10973       2.18010       2.03799
    26  C(13)              0.00545       6.12312       2.18488       2.04245
    27  C(13)             -0.00550      -6.18529      -2.20706      -2.06319
    28  C(13)             -0.00550      -6.18404      -2.20662      -2.06277
    29  C(13)              0.00378       4.24839       1.51593       1.41711
    30  H(1)              -0.00118      -5.28916      -1.88730      -1.76427
    31  H(1)              -0.00118      -5.29356      -1.88887      -1.76574
    32  H(1)               0.00079       3.54400       1.26459       1.18215
    33  H(1)               0.00079       3.54105       1.26354       1.18117
    34  H(1)              -0.00179      -8.00629      -2.85684      -2.67061
 --------------------------------------------------------
       Center         ----  Spin Dipole Couplings  ----
                      3XX-RR        3YY-RR        3ZZ-RR
 --------------------------------------------------------
     1   Atom       -0.514324     -0.514327      1.028652
     2   Atom       -0.020266      0.005861      0.014405
     3   Atom        0.058558     -0.055001     -0.003556
     4   Atom        0.037808     -0.034277     -0.003531
     5   Atom       -0.000668      0.018956     -0.018288
     6   Atom       -0.002888      0.021179     -0.018291
     7   Atom       -0.004462     -0.060776      0.065238
     8   Atom        0.001264     -0.001511      0.000247
     9   Atom        0.002519     -0.002769      0.000251
    10   Atom       -0.000847      0.001683     -0.000836
    11   Atom       -0.000506      0.001343     -0.000838
    12   Atom       -0.004709      0.008890     -0.004181
    13   Atom       -0.008195     -0.006240      0.014435
    14   Atom        0.024301     -0.020386     -0.003915
    15   Atom       -0.013160      0.017097     -0.003937
    16   Atom        0.010226      0.007910     -0.018136
    17   Atom        0.006219      0.011928     -0.018147
    18   Atom       -0.030196     -0.034466      0.064661
    19   Atom       -0.001082      0.000819      0.000264
    20   Atom        0.001143     -0.001400      0.000257
    21   Atom        0.000026      0.000804     -0.000830
    22   Atom        0.000632      0.000197     -0.000829
    23   Atom        0.001562      0.002628     -0.004189
    24   Atom        0.006825     -0.021265      0.014440
    25   Atom       -0.039775      0.043731     -0.003956
    26   Atom       -0.056390      0.060300     -0.003910
    27   Atom        0.021756     -0.003616     -0.018140
    28   Atom        0.019980     -0.001844     -0.018135
    29   Atom       -0.062747     -0.001913      0.064660
    30   Atom       -0.002786      0.002524      0.000262
    31   Atom       -0.001804      0.001547      0.000257
    32   Atom        0.001462     -0.000633     -0.000829
    33   Atom        0.001732     -0.000902     -0.000830
    34   Atom        0.009402     -0.005215     -0.004187
 --------------------------------------------------------
                        XY            XZ            YZ
 --------------------------------------------------------
     1   Atom       -0.000001     -0.000159     -0.000003
     2   Atom       -0.008667     -0.003193     -0.000872
     3   Atom        0.015416      0.076053      0.014194
     4   Atom        0.046489      0.071187      0.030407
     5   Atom       -0.008947     -0.025933     -0.010756
     6   Atom       -0.005628     -0.027564     -0.005440
     7   Atom        0.018771      0.096982      0.029370
     8   Atom        0.002288     -0.004791     -0.003328
     9   Atom        0.000415     -0.005833      0.000102
    10   Atom       -0.000475     -0.001466     -0.000721
    11   Atom       -0.000987     -0.001619     -0.000212
    12   Atom       -0.004544      0.003800      0.001157
    13   Atom        0.015661      0.002315     -0.002303
    14   Atom       -0.054500     -0.061699      0.046233
    15   Atom       -0.056931     -0.050089      0.058539
    16   Atom        0.013279      0.018477     -0.021130
    17   Atom        0.013000      0.022246     -0.017065
    18   Atom       -0.033893     -0.073795      0.069274
    19   Atom       -0.002482      0.002836     -0.005092
    20   Atom       -0.002335      0.005270     -0.002491
    21   Atom        0.001298      0.000992     -0.001293
    22   Atom        0.001335      0.001354     -0.000908
    23   Atom        0.008135     -0.002901      0.002705
    24   Atom       -0.006978      0.000822      0.003150
    25   Atom        0.041551     -0.025635     -0.072641
    26   Atom        0.007892     -0.009186     -0.076514
    27   Atom       -0.004025      0.003650      0.027796
    28   Atom       -0.007640      0.009054      0.026552
    29   Atom        0.015045     -0.023027     -0.098514
    30   Atom        0.000064     -0.000475      0.005808
    31   Atom        0.002063      0.002992      0.005001
    32   Atom       -0.000857      0.000110      0.001626
    33   Atom       -0.000312      0.000624      0.001505
    34   Atom       -0.003606     -0.000898     -0.003862
 --------------------------------------------------------


 ---------------------------------------------------------------------------------
              Anisotropic Spin Dipole Couplings in Principal Axis System
 ---------------------------------------------------------------------------------

       Atom             a.u.   MegaHertz   Gauss  10(-4) cm-1        Axes

              Baa    -0.5143   -19.836    -7.078    -6.617  0.2822  0.9594  0.0000
     1 N(14)  Bbb    -0.5143   -19.836    -7.078    -6.617  0.9594 -0.2822  0.0001
              Bcc     1.0287    39.673    14.156    13.233 -0.0001 -0.0000  1.0000
 
              Baa    -0.0232    -3.109    -1.109    -1.037  0.9538  0.2874  0.0877
     2 C(13)  Bbb     0.0085     1.137     0.406     0.379 -0.2873  0.9577 -0.0139
              Bcc     0.0147     1.972     0.704     0.658 -0.0880 -0.0119  0.9960
 
              Baa    -0.0596    -7.996    -2.853    -2.667  0.2157  0.8360 -0.5045
     3 C(13)  Bbb    -0.0526    -7.062    -2.520    -2.356 -0.5263  0.5347  0.6611
              Bcc     0.1122    15.058     5.373     5.023  0.8225  0.1230  0.5554
 
              Baa    -0.0596    -7.998    -2.854    -2.668  0.6437 -0.5743 -0.5058
     4 C(13)  Bbb    -0.0526    -7.064    -2.521    -2.356  0.1400  0.7381 -0.6600
              Bcc     0.1122    15.063     5.375     5.024  0.7524  0.3540  0.5556
 
              Baa    -0.0402    -5.389    -1.923    -1.798  0.5700  0.2298  0.7888
     5 C(13)  Bbb     0.0177     2.375     0.848     0.792  0.7642  0.2044 -0.6118
              Bcc     0.0225     3.014     1.075     1.005 -0.3018  0.9515 -0.0591
 
              Baa    -0.0402    -5.392    -1.924    -1.799  0.6018  0.1251  0.7888
     6 C(13)  Bbb     0.0177     2.377     0.848     0.793  0.7487  0.2555 -0.6117
              Bcc     0.0225     3.015     1.076     1.006 -0.2780  0.9587  0.0601
 
              Baa    -0.0730    -9.801    -3.497    -3.269  0.7718  0.2343 -0.5911
     7 C(13)  Bbb    -0.0665    -8.918    -3.182    -2.975 -0.2903  0.9569  0.0003
              Bcc     0.1395    18.719     6.679     6.244  0.5657  0.1713  0.8066
 
              Baa    -0.0046    -2.466    -0.880    -0.822  0.4218  0.4995  0.7567
     8 H(1)   Bbb    -0.0027    -1.447    -0.516    -0.483 -0.6264  0.7639 -0.1551
              Bcc     0.0073     3.913     1.396     1.305  0.6555  0.4086 -0.6351
 
              Baa    -0.0046    -2.466    -0.880    -0.822  0.6284 -0.1823  0.7562
     9 H(1)   Bbb    -0.0027    -1.447    -0.516    -0.483  0.0967  0.9829  0.1566
              Bcc     0.0073     3.913     1.396     1.305  0.7718  0.0253 -0.6353
 
              Baa    -0.0025    -1.323    -0.472    -0.441  0.6862  0.1994  0.6995
    10 H(1)   Bbb     0.0006     0.321     0.114     0.107  0.7261 -0.1312 -0.6749
              Bcc     0.0019     1.002     0.358     0.334 -0.0428  0.9711 -0.2348
 
              Baa    -0.0025    -1.323    -0.472    -0.441  0.6814  0.2146  0.6997
    11 H(1)   Bbb     0.0006     0.319     0.114     0.107 -0.5314 -0.5124  0.6746
              Bcc     0.0019     1.003     0.358     0.335 -0.5033  0.8315  0.2351
 
              Baa    -0.0092    -4.919    -1.755    -1.641  0.7514  0.2281 -0.6191
    12 H(1)   Bbb    -0.0010    -0.560    -0.200    -0.187  0.5925  0.1795  0.7853
              Bcc     0.0103     5.479     1.955     1.828 -0.2903  0.9569  0.0003
 
              Baa    -0.0232    -3.112    -1.110    -1.038  0.7259 -0.6824 -0.0864
    13 C(13)  Bbb     0.0085     1.137     0.406     0.379  0.6858  0.7277  0.0148
              Bcc     0.0147     1.975     0.705     0.659  0.0528 -0.0700  0.9961
 
              Baa    -0.0595    -7.984    -2.849    -2.663  0.1753  0.8438 -0.5072
    14 C(13)  Bbb    -0.0525    -7.049    -2.515    -2.351  0.7079  0.2501  0.6606
              Bcc     0.1120    15.033     5.364     5.015  0.6842 -0.4749 -0.5535
 
              Baa    -0.0595    -7.982    -2.848    -2.662  0.8311  0.2312  0.5058
    15 C(13)  Bbb    -0.0525    -7.045    -2.514    -2.350  0.2019  0.7219 -0.6619
              Bcc     0.1120    15.027     5.362     5.013 -0.5182  0.6522  0.5533
 
              Baa    -0.0401    -5.382    -1.921    -1.795 -0.4104  0.4600  0.7874
    16 C(13)  Bbb     0.0177     2.371     0.846     0.791  0.5933 -0.5210  0.6136
              Bcc     0.0224     3.011     1.074     1.004  0.6925  0.7190 -0.0591
 
              Baa    -0.0401    -5.378    -1.919    -1.794 -0.4851  0.3797  0.7877
    17 C(13)  Bbb     0.0177     2.369     0.845     0.790  0.5597 -0.5572  0.6134
              Bcc     0.0224     3.009     1.074     1.004  0.6719  0.7384  0.0578
 
              Baa    -0.0729    -9.778    -3.489    -3.261  0.5880 -0.5504  0.5927
    18 C(13)  Bbb    -0.0663    -8.896    -3.174    -2.967  0.6838  0.7297 -0.0007
              Bcc     0.1392    18.673     6.663     6.229 -0.4321  0.4057  0.8054
 
              Baa    -0.0046    -2.463    -0.879    -0.822 -0.1606  0.6348  0.7558
    19 H(1)   Bbb    -0.0027    -1.442    -0.515    -0.481  0.8987  0.4107 -0.1540
              Bcc     0.0073     3.905     1.393     1.303 -0.4082  0.6545 -0.6365
 
              Baa    -0.0046    -2.464    -0.879    -0.822 -0.6436  0.1184  0.7561
    20 H(1)   Bbb    -0.0027    -1.441    -0.514    -0.481  0.3505  0.9239  0.1537
              Bcc     0.0073     3.905     1.393     1.303  0.6804 -0.3640  0.6361
 
              Baa    -0.0025    -1.321    -0.471    -0.441 -0.5278  0.4840  0.6980
    21 H(1)   Bbb     0.0006     0.319     0.114     0.106  0.7068 -0.2055  0.6769
              Bcc     0.0019     1.002     0.357     0.334  0.4710  0.8506 -0.2336
 
              Baa    -0.0025    -1.321    -0.471    -0.441 -0.5169  0.4954  0.6981
    22 H(1)   Bbb     0.0006     0.321     0.114     0.107 -0.2505  0.6923 -0.6767
              Bcc     0.0019     1.000     0.357     0.334  0.8186  0.5247  0.2338
 
              Baa    -0.0092    -4.908    -1.751    -1.637  0.5724 -0.5357  0.6208
    23 H(1)   Bbb    -0.0010    -0.559    -0.200    -0.187 -0.4527  0.4248  0.7840
              Bcc     0.0102     5.467     1.951     1.824  0.6837  0.7298 -0.0006
 
              Baa    -0.0232    -3.111    -1.110    -1.038  0.2279  0.9699 -0.0862
    24 C(13)  Bbb     0.0085     1.136     0.405     0.379  0.9732 -0.2298 -0.0127
              Bcc     0.0147     1.976     0.705     0.659  0.0321  0.0810  0.9962
 
              Baa    -0.0595    -7.981    -2.848    -2.662  0.6155 -0.6041 -0.5062
    25 C(13)  Bbb    -0.0525    -7.045    -2.514    -2.350  0.7265  0.1858  0.6616
              Bcc     0.1120    15.025     5.361     5.012  0.3057  0.7750 -0.5532
 
              Baa    -0.0595    -7.981    -2.848    -2.662  0.8185  0.2700  0.5071
    26 C(13)  Bbb    -0.0525    -7.045    -2.514    -2.350 -0.5703  0.4881  0.6607
              Bcc     0.1120    15.026     5.362     5.012  0.0691  0.8300 -0.5535
 
              Baa    -0.0401    -5.377    -1.919    -1.794 -0.0862 -0.6101  0.7876
    27 C(13)  Bbb     0.0177     2.369     0.845     0.790  0.2030  0.7632  0.6134
              Bcc     0.0224     3.008     1.073     1.003  0.9754 -0.2128 -0.0580
 
              Baa    -0.0401    -5.380    -1.920    -1.795 -0.1931 -0.5853  0.7875
    28 C(13)  Bbb     0.0177     2.370     0.846     0.791  0.1554  0.7742  0.6135
              Bcc     0.0224     3.009     1.074     1.004  0.9688 -0.2409  0.0586
 
              Baa    -0.0728    -9.774    -3.488    -3.260  0.1829  0.7844  0.5927
    29 C(13)  Bbb    -0.0663    -8.892    -3.173    -2.966  0.9738 -0.2273  0.0003
              Bcc     0.1391    18.666     6.660     6.226 -0.1349 -0.5771  0.8055
 
              Baa    -0.0046    -2.462    -0.879    -0.821  0.2177 -0.6171  0.7561
    30 H(1)   Bbb    -0.0027    -1.441    -0.514    -0.481  0.9757  0.1575 -0.1524
              Bcc     0.0073     3.903     1.393     1.302 -0.0250  0.7709  0.6364
 
              Baa    -0.0046    -2.464    -0.879    -0.822 -0.4695 -0.4561  0.7560
    31 H(1)   Bbb    -0.0027    -1.440    -0.514    -0.480  0.8050 -0.5729  0.1543
              Bcc     0.0073     3.904     1.393     1.302  0.3627  0.6810  0.6361
 
              Baa    -0.0025    -1.321    -0.471    -0.441 -0.1707 -0.6954  0.6980
    32 H(1)   Bbb     0.0006     0.320     0.114     0.107  0.4740  0.5631  0.6769
              Bcc     0.0019     1.000     0.357     0.334  0.8638 -0.4464 -0.2335
 
              Baa    -0.0025    -1.320    -0.471    -0.440  0.1554  0.6988 -0.6982
    33 H(1)   Bbb     0.0006     0.319     0.114     0.107 -0.1755  0.7151  0.6767
              Bcc     0.0019     1.001     0.357     0.334  0.9721  0.0174  0.2338
 
              Baa    -0.0092    -4.906    -1.751    -1.636  0.1780  0.7636  0.6207
    34 H(1)   Bbb    -0.0010    -0.559    -0.200    -0.187 -0.1412 -0.6045  0.7840
              Bcc     0.0102     5.465     1.950     1.823  0.9738 -0.2272  0.0002
 

 ---------------------------------------------------------------------------------

 No NMR shielding tensors so no spin-rotation constants.
 Leave Link  601 at Sun Jan 17 20:15:44 2021, MaxMem=  4026531840 cpu:               3.5 elap:               0.5
 (Enter /opt/ohpc/pub/libs/gaussian/g16-A.03/sandybridge/g16/l9999.exe)

 Test job not archived.
 1\1\GINC-CASCADEB040\SP\ULC-wHPBE\TZVP\C18H15N1(1+,2)\RDU230\17-Jan-20
 21\0\\#P LC-wHPBE/TZVP iop(3/107=0156200000, 3/108=0156200000) scf=(co
 nver=6,fermi,ndamp=35,noincfock,novaracc,vshift=500,xqc)\\H15 C18 N1\\
 1,2\N,0,0.000022,-0.000126,-0.001279\C,0,0.411521,-1.356839,-0.000484\
 C,0,1.495533,-1.769287,0.781179\C,0,-0.26032,-2.302689,-0.781717\C,0,1
 .901218,-3.097977,0.77159\C,0,0.140608,-3.632811,-0.770872\C,0,1.22528
 2,-4.03895,0.000666\H,0,2.020108,-1.039002,1.394849\H,0,-1.101816,-1.9
 87296,-1.396157\H,0,2.748094,-3.402056,1.385878\H,0,-0.394485,-4.35669
 ,-1.384611\H,0,1.541424,-5.08084,0.001027\C,0,0.969124,1.03471,-0.0004
 88\C,0,2.123037,0.926935,-0.78345\C,0,0.785335,2.178692,0.782922\C,0,3
 .074444,1.939229,-0.772694\C,0,1.733248,3.194302,0.773528\C,0,2.885092
 ,3.080453,0.000886\H,0,2.269922,0.041314,-1.399284\H,0,-0.10857,2.2669
 02,1.398014\H,0,3.967862,1.838651,-1.388087\H,0,1.574087,4.078874,1.38
 9358\H,0,3.629424,3.875076,0.001646\C,0,-1.380731,0.321945,-0.000436\C
 ,0,-2.279686,-0.409002,0.782988\C,0,-1.864017,1.375244,-0.783483\C,0,-
 3.633185,-0.0958,0.773256\C,0,-3.216365,1.693293,-0.772877\C,0,-4.1102
 12,0.958658,0.000466\H,0,-1.909274,-1.227214,1.398174\H,0,-1.170181,1.
 945112,-1.399095\H,0,-4.319851,-0.675761,1.389003\H,0,-3.575887,2.5172
 71,-1.388348\H,0,-5.170565,1.205911,0.000686\\Version=EM64L-G16RevA.03
 \State=2-A\HF=-748.9251629\S2=0.764199\S2-1=0.\S2A=0.75019\RMSD=8.382e
 -07\Dipole=0.0003986,-0.0008387,0.0002438\Quadrupole=8.7709375,8.76576
 36,-17.5367011,0.0014997,-0.0004148,0.0002064\PG=C01 [X(C18H15N1)]\\@


 WHEN A MATHEMATICIAN ENGAGED IN INVESTIGATING
 PHYSICAL ACTIONS AND RESULTS HAS ARRIVED AT HIS
 CONCLUSIONS, MAY THEY NOT BE EXPRESSED IN COMMON
 LANGUAGE AS FULLY, CLEARLY, AND DEFINITELY AS IN
 MATHEMATICAL FORMULAE?
           - LETTER FROM M. FARADAY TO J.C. MAXWELL, 1857.
 Job cpu time:       0 days  0 hours 54 minutes 56.5 seconds.
 Elapsed time:       0 days  0 hours  6 minutes 53.6 seconds.
 File lengths (MBytes):  RWF=    152 Int=      0 D2E=      0 Chk=     20 Scr=      8
 Normal termination of Gaussian 16 at Sun Jan 17 20:15:44 2021.
