 Entering Gaussian System, Link 0=g16
 Input=mol_NN_pa_frag_tune_c8.gjf
 Output=mol_NN_pa_frag_tune_c8.log
 Initial command:
 /opt/ohpc/pub/libs/gaussian/g16-A.03/sandybridge/g16/l1.exe "/mnt/gpfs2_4m/scratch/rdu230/ondemand/projects/init_structures/wtuning/mol_NN_pa_frag/tuning_mol_NN_pa_frag_ocycle0/Gau-327677.inp" -scrdir="/mnt/gpfs2_4m/scratch/rdu230/ondemand/projects/init_structures/wtuning/mol_NN_pa_frag/tuning_mol_NN_pa_frag_ocycle0/"
 Entering Link 1 = /opt/ohpc/pub/libs/gaussian/g16-A.03/sandybridge/g16/l1.exe PID=    327678.
  
 Copyright (c) 1988,1990,1992,1993,1995,1998,2003,2009,2016,
            Gaussian, Inc.  All Rights Reserved.
  
 This is part of the Gaussian(R) 16 program.  It is based on
 the Gaussian(R) 09 system (copyright 2009, Gaussian, Inc.),
 the Gaussian(R) 03 system (copyright 2003, Gaussian, Inc.),
 the Gaussian(R) 98 system (copyright 1998, Gaussian, Inc.),
 the Gaussian(R) 94 system (copyright 1995, Gaussian, Inc.),
 the Gaussian 92(TM) system (copyright 1992, Gaussian, Inc.),
 the Gaussian 90(TM) system (copyright 1990, Gaussian, Inc.),
 the Gaussian 88(TM) system (copyright 1988, Gaussian, Inc.),
 the Gaussian 86(TM) system (copyright 1986, Carnegie Mellon
 University), and the Gaussian 82(TM) system (copyright 1983,
 Carnegie Mellon University). Gaussian is a federally registered
 trademark of Gaussian, Inc.
  
 This software contains proprietary and confidential information,
 including trade secrets, belonging to Gaussian, Inc.
  
 This software is provided under written license and may be
 used, copied, transmitted, or stored only in accord with that
 written license.
  
 The following legend is applicable only to US Government
 contracts under FAR:
  
                    RESTRICTED RIGHTS LEGEND
  
 Use, reproduction and disclosure by the US Government is
 subject to restrictions as set forth in subparagraphs (a)
 and (c) of the Commercial Computer Software - Restricted
 Rights clause in FAR 52.227-19.
  
 Gaussian, Inc.
 340 Quinnipiac St., Bldg. 40, Wallingford CT 06492
  
  
 ---------------------------------------------------------------
 Warning -- This program may not be used in any manner that
 competes with the business of Gaussian, Inc. or will provide
 assistance to any competitor of Gaussian, Inc.  The licensee
 of this program is prohibited from giving any competitor of
 Gaussian, Inc. access to this program.  By using this program,
 the user acknowledges that Gaussian, Inc. is engaged in the
 business of creating and licensing software in the field of
 computational chemistry and represents and warrants to the
 licensee that it is not a competitor of Gaussian, Inc. and that
 it will not use this program in any manner prohibited above.
 ---------------------------------------------------------------
  

 Cite this work as:
 Gaussian 16, Revision A.03,
 M. J. Frisch, G. W. Trucks, H. B. Schlegel, G. E. Scuseria, 
 M. A. Robb, J. R. Cheeseman, G. Scalmani, V. Barone, 
 G. A. Petersson, H. Nakatsuji, X. Li, M. Caricato, A. V. Marenich, 
 J. Bloino, B. G. Janesko, R. Gomperts, B. Mennucci, H. P. Hratchian, 
 J. V. Ortiz, A. F. Izmaylov, J. L. Sonnenberg, D. Williams-Young, 
 F. Ding, F. Lipparini, F. Egidi, J. Goings, B. Peng, A. Petrone, 
 T. Henderson, D. Ranasinghe, V. G. Zakrzewski, J. Gao, N. Rega, 
 G. Zheng, W. Liang, M. Hada, M. Ehara, K. Toyota, R. Fukuda, 
 J. Hasegawa, M. Ishida, T. Nakajima, Y. Honda, O. Kitao, H. Nakai, 
 T. Vreven, K. Throssell, J. A. Montgomery, Jr., J. E. Peralta, 
 F. Ogliaro, M. J. Bearpark, J. J. Heyd, E. N. Brothers, K. N. Kudin, 
 V. N. Staroverov, T. A. Keith, R. Kobayashi, J. Normand, 
 K. Raghavachari, A. P. Rendell, J. C. Burant, S. S. Iyengar, 
 J. Tomasi, M. Cossi, J. M. Millam, M. Klene, C. Adamo, R. Cammi, 
 J. W. Ochterski, R. L. Martin, K. Morokuma, O. Farkas, 
 J. B. Foresman, and D. J. Fox, Gaussian, Inc., Wallingford CT, 2016.
 
 ******************************************
 Gaussian 16:  EM64L-G16RevA.03 25-Dec-2016
                17-Jan-2021 
 ******************************************
 %mem=30GB
 %nproc=8
 Will use up to    8 processors via shared memory.
 ----------------------------------------------------------------------
 #P LC-wHPBE/TZVP iop(3/107=0196600000, 3/108=0196600000) scf=(conver=6
 ,fermi,ndamp=35,noincfock,novaracc,vshift=500,xqc)
 ----------------------------------------------------------------------
 1/38=1,172=1/1;
 2/12=2,17=6,18=5,40=1/2;
 3/5=19,7=101,11=2,25=1,30=1,74=-71,107=196600000,108=196600000/1,2,3;
 4//1;
 5/5=100002,6=6,8=3,10=500,13=1,18=-1,22=13,38=1,93=35/2,8;
 6/7=2,8=2,9=2,10=2,28=1/1;
 99/5=1,9=1/99;
 Leave Link    1 at Sun Jan 17 21:18:55 2021, MaxMem=  4026531840 cpu:               1.8 elap:               0.3
 (Enter /opt/ohpc/pub/libs/gaussian/g16-A.03/sandybridge/g16/l101.exe)
 ----------
 H15 C18 N1
 ----------
 Symbolic Z-matrix:
 Charge =  1 Multiplicity = 2
 N                     0.00002  -0.00013  -0.00128 
 C                     0.41152  -1.35684  -0.00048 
 C                     1.49553  -1.76929   0.78118 
 C                    -0.26032  -2.30269  -0.78172 
 C                     1.90122  -3.09798   0.77159 
 C                     0.14061  -3.63281  -0.77087 
 C                     1.22528  -4.03895   0.00067 
 H                     2.02011  -1.039     1.39485 
 H                    -1.10182  -1.9873   -1.39616 
 H                     2.74809  -3.40206   1.38588 
 H                    -0.39449  -4.35669  -1.38461 
 H                     1.54142  -5.08084   0.00103 
 C                     0.96912   1.03471  -0.00049 
 C                     2.12304   0.92694  -0.78345 
 C                     0.78534   2.17869   0.78292 
 C                     3.07444   1.93923  -0.77269 
 C                     1.73325   3.1943    0.77353 
 C                     2.88509   3.08045   0.00089 
 H                     2.26992   0.04131  -1.39928 
 H                    -0.10857   2.2669    1.39801 
 H                     3.96786   1.83865  -1.38809 
 H                     1.57409   4.07887   1.38936 
 H                     3.62942   3.87508   0.00165 
 C                    -1.38073   0.32195  -0.00044 
 C                    -2.27969  -0.409     0.78299 
 C                    -1.86402   1.37524  -0.78348 
 C                    -3.63319  -0.0958    0.77326 
 C                    -3.21637   1.69329  -0.77288 
 C                    -4.11021   0.95866   0.00047 
 H                    -1.90927  -1.22721   1.39817 
 H                    -1.17018   1.94511  -1.3991 
 H                    -4.31985  -0.67576   1.389 
 H                    -3.57589   2.51727  -1.38835 
 H                    -5.17056   1.20591   0.00069 
 
 ITRead=  0  0  0  0  0  0  0  0  0  0  0  0  0  0  0  0  0  0  0  0
 ITRead=  0  0  0  0  0  0  0  0  0  0  0  0  0  0
 MicOpt= -1 -1 -1 -1 -1 -1 -1 -1 -1 -1 -1 -1 -1 -1 -1 -1 -1 -1 -1 -1
 MicOpt= -1 -1 -1 -1 -1 -1 -1 -1 -1 -1 -1 -1 -1 -1
 NAtoms=     34 NQM=       34 NQMF=       0 NMMI=      0 NMMIF=      0
                NMic=       0 NMicF=      0.
                    Isotopes and Nuclear Properties:
 (Nuclear quadrupole moments (NQMom) in fm**2, nuclear magnetic moments (NMagM)
  in nuclear magnetons)

  Atom         1           2           3           4           5           6           7           8           9          10
 IAtWgt=          14          12          12          12          12          12          12           1           1           1
 AtmWgt=  14.0030740  12.0000000  12.0000000  12.0000000  12.0000000  12.0000000  12.0000000   1.0078250   1.0078250   1.0078250
 NucSpn=           2           0           0           0           0           0           0           1           1           1
 AtZEff=  -0.0000000  -0.0000000  -0.0000000  -0.0000000  -0.0000000  -0.0000000  -0.0000000  -0.0000000  -0.0000000  -0.0000000
 NQMom=    2.0440000   0.0000000   0.0000000   0.0000000   0.0000000   0.0000000   0.0000000   0.0000000   0.0000000   0.0000000
 NMagM=    0.4037610   0.0000000   0.0000000   0.0000000   0.0000000   0.0000000   0.0000000   2.7928460   2.7928460   2.7928460
 AtZNuc=   7.0000000   6.0000000   6.0000000   6.0000000   6.0000000   6.0000000   6.0000000   1.0000000   1.0000000   1.0000000

  Atom        11          12          13          14          15          16          17          18          19          20
 IAtWgt=           1           1          12          12          12          12          12          12           1           1
 AtmWgt=   1.0078250   1.0078250  12.0000000  12.0000000  12.0000000  12.0000000  12.0000000  12.0000000   1.0078250   1.0078250
 NucSpn=           1           1           0           0           0           0           0           0           1           1
 AtZEff=  -0.0000000  -0.0000000  -0.0000000  -0.0000000  -0.0000000  -0.0000000  -0.0000000  -0.0000000  -0.0000000  -0.0000000
 NQMom=    0.0000000   0.0000000   0.0000000   0.0000000   0.0000000   0.0000000   0.0000000   0.0000000   0.0000000   0.0000000
 NMagM=    2.7928460   2.7928460   0.0000000   0.0000000   0.0000000   0.0000000   0.0000000   0.0000000   2.7928460   2.7928460
 AtZNuc=   1.0000000   1.0000000   6.0000000   6.0000000   6.0000000   6.0000000   6.0000000   6.0000000   1.0000000   1.0000000

  Atom        21          22          23          24          25          26          27          28          29          30
 IAtWgt=           1           1           1          12          12          12          12          12          12           1
 AtmWgt=   1.0078250   1.0078250   1.0078250  12.0000000  12.0000000  12.0000000  12.0000000  12.0000000  12.0000000   1.0078250
 NucSpn=           1           1           1           0           0           0           0           0           0           1
 AtZEff=  -0.0000000  -0.0000000  -0.0000000  -0.0000000  -0.0000000  -0.0000000  -0.0000000  -0.0000000  -0.0000000  -0.0000000
 NQMom=    0.0000000   0.0000000   0.0000000   0.0000000   0.0000000   0.0000000   0.0000000   0.0000000   0.0000000   0.0000000
 NMagM=    2.7928460   2.7928460   2.7928460   0.0000000   0.0000000   0.0000000   0.0000000   0.0000000   0.0000000   2.7928460
 AtZNuc=   1.0000000   1.0000000   1.0000000   6.0000000   6.0000000   6.0000000   6.0000000   6.0000000   6.0000000   1.0000000

  Atom        31          32          33          34
 IAtWgt=           1           1           1           1
 AtmWgt=   1.0078250   1.0078250   1.0078250   1.0078250
 NucSpn=           1           1           1           1
 AtZEff=  -0.0000000  -0.0000000  -0.0000000  -0.0000000
 NQMom=    0.0000000   0.0000000   0.0000000   0.0000000
 NMagM=    2.7928460   2.7928460   2.7928460   2.7928460
 AtZNuc=   1.0000000   1.0000000   1.0000000   1.0000000
 Leave Link  101 at Sun Jan 17 21:18:56 2021, MaxMem=  4026531840 cpu:               0.7 elap:               0.1
 (Enter /opt/ohpc/pub/libs/gaussian/g16-A.03/sandybridge/g16/l202.exe)
                          Input orientation:                          
 ---------------------------------------------------------------------
 Center     Atomic      Atomic             Coordinates (Angstroms)
 Number     Number       Type             X           Y           Z
 ---------------------------------------------------------------------
      1          7           0        0.000022   -0.000126   -0.001279
      2          6           0        0.411521   -1.356839   -0.000484
      3          6           0        1.495533   -1.769287    0.781179
      4          6           0       -0.260320   -2.302689   -0.781717
      5          6           0        1.901218   -3.097977    0.771590
      6          6           0        0.140608   -3.632811   -0.770872
      7          6           0        1.225282   -4.038950    0.000666
      8          1           0        2.020108   -1.039002    1.394849
      9          1           0       -1.101816   -1.987296   -1.396157
     10          1           0        2.748094   -3.402056    1.385878
     11          1           0       -0.394485   -4.356690   -1.384611
     12          1           0        1.541424   -5.080840    0.001027
     13          6           0        0.969124    1.034710   -0.000488
     14          6           0        2.123037    0.926935   -0.783450
     15          6           0        0.785335    2.178692    0.782922
     16          6           0        3.074444    1.939229   -0.772694
     17          6           0        1.733248    3.194302    0.773528
     18          6           0        2.885092    3.080453    0.000886
     19          1           0        2.269922    0.041314   -1.399284
     20          1           0       -0.108570    2.266902    1.398014
     21          1           0        3.967862    1.838651   -1.388087
     22          1           0        1.574087    4.078874    1.389358
     23          1           0        3.629424    3.875076    0.001646
     24          6           0       -1.380731    0.321945   -0.000436
     25          6           0       -2.279686   -0.409002    0.782988
     26          6           0       -1.864017    1.375244   -0.783483
     27          6           0       -3.633185   -0.095800    0.773256
     28          6           0       -3.216365    1.693293   -0.772877
     29          6           0       -4.110212    0.958658    0.000466
     30          1           0       -1.909274   -1.227214    1.398174
     31          1           0       -1.170181    1.945112   -1.399095
     32          1           0       -4.319851   -0.675761    1.389003
     33          1           0       -3.575887    2.517271   -1.388348
     34          1           0       -5.170565    1.205911    0.000686
 ---------------------------------------------------------------------
                    Distance matrix (angstroms):
                    1          2          3          4          5
     1  N    0.000000
     2  C    1.417745   0.000000
     3  C    2.445143   1.398639   0.000000
     4  C    2.445129   1.398688   2.410432   0.000000
     5  C    3.715986   2.418027   1.389277   2.778037   0.000000
     6  C    3.715971   2.418045   2.778022   1.389275   2.401038
     7  C    4.220588   2.802843   2.415286   2.415313   1.391633
     8  H    2.666305   2.153027   1.088617   3.396277   2.154522
     9  H    2.666191   2.153037   3.396254   1.088634   3.866646
    10  H    4.587944   3.400660   2.144879   3.867510   1.089501
    11  H    4.587907   3.400670   3.867489   2.144855   3.391727
    12  H    5.309386   3.891641   3.402518   3.402513   2.157537
    13  C    1.417761   2.455693   2.958126   3.641440   4.306275
    14  C    2.445082   2.959383   3.179849   4.013834   4.320564
    15  C    2.445186   3.640528   4.011349   4.860480   5.393381
    16  C    3.715945   4.307149   4.319788   5.395795   5.397658
    17  C    3.716015   4.801973   4.969284   6.050621   6.294521
    18  C    4.220616   5.080169   5.104871   6.283654   6.303570
    19  H    2.666192   2.713877   2.938090   3.503978   3.834551
    20  H    2.666314   3.918902   4.386850   5.065118   5.763123
    21  H    4.587820   4.978369   4.882145   5.949446   5.771093
    22  H    4.588005   5.729764   5.880224   6.985912   7.210814
    23  H    5.309403   6.142299   6.084406   7.342244   7.225163
    24  C    1.417818   2.455704   3.641026   2.958788   4.802404
    25  C    2.445265   2.958854   4.012812   3.179967   4.970983
    26  C    2.445021   3.640802   4.860331   4.012361   6.050203
    27  C    3.716080   4.306802   5.394847   4.320245   6.296244
    28  C    3.715936   4.802234   6.050333   4.970528   7.178531
    29  C    4.220580   5.080118   6.282959   5.105866   7.293025
    30  H    2.666388   2.712773   3.502462   2.937281   4.290945
    31  H    2.665936   3.919282   5.065213   4.387803   6.291114
    32  H    4.588101   4.977994   5.948440   4.882490   6.704478
    33  H    4.587851   5.730124   6.985752   5.881581   8.136032
    34  H    5.309378   6.142261   7.341514   6.085469   8.314317
                    6          7          8          9         10
     6  C    0.000000
     7  C    1.391667   0.000000
     8  H    3.866615   3.402232   0.000000
     9  H    2.154604   3.402320   4.293645   0.000000
    10  H    3.391725   2.154856   2.472664   4.956115   0.000000
    11  H    1.089496   2.154901   4.956078   2.472747   4.296829
    12  H    2.157522   1.088798   4.302131   4.302192   2.488409
    13  C    4.802675   5.080122   2.711423   3.920358   4.977111
    14  C    4.972069   5.106938   2.936067   4.389514   4.882299
    15  C    6.050084   6.282082   3.500382   5.066081   5.946489
    16  C    6.297224   6.305245   3.831413   5.766060   5.770205
    17  C    7.178520   7.292138   4.288262   6.292383   6.702001
    18  C    7.293539   7.310326   4.434100   6.597670   6.630226
    19  H    4.292793   4.438433   3.006105   3.934957   4.454500
    20  H    6.290689   6.595113   3.931956   5.185762   6.348052
    21  H    6.705649   6.632991   4.451895   6.351344   6.053737
    22  H    8.135818   8.243130   5.137277   7.191521   7.572491
    23  H    8.314866   8.271137   5.355285   7.661977   7.459859
    24  C    4.306755   5.080227   3.919784   2.712642   5.730379
    25  C    4.320330   5.106207   4.388565   2.937186   5.882212
    26  C    5.394376   6.282687   5.065584   3.501856   6.985720
    27  C    5.397804   6.304762   5.765044   3.833007   7.212999
    28  C    6.295765   7.292819   6.291671   4.290283   8.136189
    29  C    6.304445   7.310512   6.596649   4.436175   8.244486
    30  H    3.833233   4.436703   3.933888   3.006326   5.140152
    31  H    5.764205   6.595951   5.185461   3.933003   7.190352
    32  H    5.771040   6.632271   6.350359   4.453424   7.575522
    33  H    7.212290   8.244066   7.190857   5.139281   9.095466
    34  H    7.226139   8.271362   7.660881   5.357468   9.265920
                   11         12         13         14         15
    11  H    0.000000
    12  H    2.488399   0.000000
    13  C    5.730831   6.142270   0.000000
    14  C    5.883537   6.086628   1.398628   0.000000
    15  C    6.985799   7.340561   1.398644   2.410366   0.000000
    16  C    7.214327   7.227044   2.418022   1.389255   2.778004
    17  C    8.136479   8.313334   2.418021   2.777961   1.389277
    18  C    8.245382   8.271164   2.802856   2.415274   2.415312
    19  H    5.142151   5.359855   2.153031   1.088647   3.396234
    20  H    7.190043   7.659201   2.153028   3.396228   1.088662
    21  H    7.577093   7.463015   3.400615   2.144806   3.867478
    22  H    9.095544   9.264388   3.400674   3.867449   2.144898
    23  H    9.266905   9.196096   3.891642   3.402516   3.402492
    24  C    4.977775   6.142400   2.455576   3.640812   2.958547
    25  C    4.882285   6.085919   3.640454   4.860291   4.011298
    26  C    5.947768   7.341220   2.959009   4.012179   3.180915
    27  C    5.770680   7.226586   4.801873   6.050075   4.969580
    28  C    6.703694   8.314106   4.306813   5.394129   4.320848
    29  C    6.631590   8.271428   5.079905   6.282430   5.105595
    30  H    4.453324   5.358150   3.918894   5.065508   4.386302
    31  H    6.349380   7.660101   2.713219   3.501569   2.939354
    32  H    6.053980   7.462288   5.729717   6.985628   5.880320
    33  H    7.574475   9.265448   4.978079   5.947504   4.883575
    34  H    7.461402   9.196414   6.142076   7.340935   6.085305
                   16         17         18         19         20
    16  C    0.000000
    17  C    2.401003   0.000000
    18  C    1.391644   1.391647   0.000000
    19  H    2.154519   3.866583   3.402246   0.000000
    20  H    3.866642   2.154611   3.402329   4.293640   0.000000
    21  H    1.089505   3.391735   2.154927   2.472559   4.956113
    22  H    3.391699   1.089517   2.154863   4.956067   2.472782
    23  H    2.157570   2.157484   1.088787   4.302160   4.302170
    24  C    4.802143   4.306544   5.080021   3.919540   2.712363
    25  C    6.049880   5.393286   6.281951   5.065968   3.500352
    26  C    4.970573   4.321293   5.106565   4.387258   2.938635
    27  C    7.177994   6.294710   7.291987   6.291693   4.289009
    28  C    6.295615   5.398432   6.304816   5.763746   3.834082
    29  C    7.292364   6.304106   7.310013   6.595978   4.435965
    30  H    6.290984   5.762634   6.595025   5.186580   3.930825
    31  H    4.290601   3.835449   4.437813   3.931762   3.009051
    32  H    8.135521   7.210839   8.243010   7.191234   5.137532
    33  H    6.703735   5.772261   6.632601   6.348540   4.455198
    34  H    8.313606   7.225899   8.270884   7.660095   5.357427
                   21         22         23         24         25
    21  H    0.000000
    22  H    4.296854   0.000000
    23  H    2.488559   2.488310   0.000000
    24  C    5.730045   4.977649   6.142182   0.000000
    25  C    6.985511   5.946451   7.340395   1.398627   0.000000
    26  C    5.881420   4.883791   6.086336   1.398630   2.410424
    27  C    8.135688   6.702475   8.313166   2.417987   1.389298
    28  C    7.211985   5.771888   7.226679   2.418018   2.778080
    29  C    8.243649   6.631442   8.270880   2.802761   2.415297
    30  H    7.190515   6.347318   7.659036   2.152989   1.088637
    31  H    5.139158   4.456391   5.359388   2.152963   3.396224
    32  H    9.095091   7.572652   9.264224   3.400645   2.144921
    33  H    7.574211   6.056112   7.462722   3.400657   3.867546
    34  H    9.264982   7.461411   9.195882   3.891560   3.402517
                   26         27         28         29         30
    26  C    0.000000
    27  C    2.778014   0.000000
    28  C    1.389285   2.401066   0.000000
    29  C    2.415266   1.391632   1.391657   0.000000
    30  H    3.396242   2.154644   3.866692   3.402316   0.000000
    31  H    1.088640   3.866629   2.154630   3.402300   4.293556
    32  H    3.867485   1.089500   3.391729   2.154834   2.472866
    33  H    2.144898   3.391748   1.089495   2.154897   4.956155
    34  H    3.402478   2.157511   2.157507   1.088799   4.302219
                   31         32         33         34
    31  H    0.000000
    32  H    4.956096   0.000000
    33  H    2.472833   4.296814   0.000000
    34  H    4.302194   2.488338   2.488389   0.000000
 Stoichiometry    C18H15N(1+,2)
 Framework group  C1[X(C18H15N)]
 Deg. of freedom    96
 Full point group                 C1      NOp   1
 Largest Abelian subgroup         C1      NOp   1
 Largest concise Abelian subgroup C1      NOp   1
                         Standard orientation:                         
 ---------------------------------------------------------------------
 Center     Atomic      Atomic             Coordinates (Angstroms)
 Number     Number       Type             X           Y           Z
 ---------------------------------------------------------------------
      1          7           0       -0.000022    0.000126   -0.001279
      2          6           0       -0.411410    1.356873   -0.000484
      3          6           0       -1.495388    1.769410    0.781179
      4          6           0        0.260509    2.302668   -0.781717
      5          6           0       -1.900964    3.098133    0.771590
      6          6           0       -0.140310    3.632823   -0.770872
      7          6           0       -1.224951    4.039050    0.000666
      8          1           0       -2.020023    1.039168    1.394849
      9          1           0        1.101979    1.987206   -1.396157
     10          1           0       -2.747815    3.402281    1.385878
     11          1           0        0.394842    4.356658   -1.384611
     12          1           0       -1.541008    5.080966    0.001027
     13          6           0       -0.969209   -1.034631   -0.000488
     14          6           0       -2.123113   -0.926761   -0.783450
     15          6           0       -0.785513   -2.178628    0.782922
     16          6           0       -3.074603   -1.938977   -0.772694
     17          6           0       -1.733510   -3.194160    0.773528
     18          6           0       -2.885344   -3.080217    0.000886
     19          1           0       -2.269925   -0.041128   -1.399284
     20          1           0        0.108384   -2.266911    1.398014
     21          1           0       -3.968013   -1.838326   -1.388087
     22          1           0       -1.574421   -4.078745    1.389358
     23          1           0       -3.629741   -3.874779    0.001646
     24          6           0        1.380705   -0.322058   -0.000436
     25          6           0        2.279720    0.408815    0.782988
     26          6           0        1.863904   -1.375397   -0.783483
     27          6           0        3.633193    0.095502    0.773256
     28          6           0        3.216226   -1.693556   -0.772877
     29          6           0        4.110133   -0.958995    0.000466
     30          1           0        1.909375    1.227058    1.398174
     31          1           0        1.170022   -1.945208   -1.399095
     32          1           0        4.319906    0.675407    1.389003
     33          1           0        3.575681   -2.517564   -1.388348
     34          1           0        5.170466   -1.206335    0.000686
 ---------------------------------------------------------------------
 Rotational constants (GHZ):           0.4036067           0.4035965           0.2213359
 Leave Link  202 at Sun Jan 17 21:18:56 2021, MaxMem=  4026531840 cpu:               0.2 elap:               0.0
 (Enter /opt/ohpc/pub/libs/gaussian/g16-A.03/sandybridge/g16/l301.exe)
 Standard basis: TZVP (5D, 7F)
 Ernie: Thresh=  0.10000D-02 Tol=  0.10000D-05 Strict=F.
 There are   470 symmetry adapted cartesian basis functions of A   symmetry.
 There are   451 symmetry adapted basis functions of A   symmetry.
   451 basis functions,   785 primitive gaussians,   470 cartesian basis functions
    65 alpha electrons       64 beta electrons
       nuclear repulsion energy      1298.2205480218 Hartrees.
 IExCor=33909 DFT=T Ex+Corr=LC-wHPBE ExCW=0 ScaHFX=  1.000000
 ScaDFX=  1.000000  1.000000  1.000000  1.000000 ScalE2=  1.000000  1.000000
 IRadAn=      5 IRanWt=     -1 IRanGd=            0 ICorTp=0 IEmpDi=  4
 HFx  wShort=  0.000000 wLong=  0.196600 cFull=  0.000000 cShort=  0.000000 cLong=  1.000000
 DFx  wShort=  0.000000 wLong=  0.196600 cFull=  0.000000 cShort=  1.000000 cLong=  0.000000
 NAtoms=   34 NActive=   34 NUniq=   34 SFac= 1.00D+00 NAtFMM=   60 NAOKFM=F Big=F
 Integral buffers will be    131072 words long.
 Raffenetti 2 integral format.
 Two-electron integral symmetry is turned on.
 Leave Link  301 at Sun Jan 17 21:18:56 2021, MaxMem=  4026531840 cpu:               0.4 elap:               0.1
 (Enter /opt/ohpc/pub/libs/gaussian/g16-A.03/sandybridge/g16/l302.exe)
 NPDir=0 NMtPBC=     1 NCelOv=     1 NCel=       1 NClECP=     1 NCelD=      1
         NCelK=      1 NCelE2=     1 NClLst=     1 CellRange=     0.0.
 One-electron integrals computed using PRISM.
 One-electron integral symmetry used in STVInt
 NBasis=   451 RedAO= T EigKep=  8.44D-06  NBF=   451
 NBsUse=   451 1.00D-06 EigRej= -1.00D+00 NBFU=   451
 Precomputing XC quadrature grid using
 IXCGrd= 4 IRadAn=           5 IRanWt=          -1 IRanGd=           0 AccXCQ= 0.00D+00.
 Generated NRdTot=       0 NPtTot=           0 NUsed=           0 NTot=          32
 NSgBfM=   462   462   462   462   462 MxSgAt=    34 MxSgA2=    34.
 Leave Link  302 at Sun Jan 17 21:18:56 2021, MaxMem=  4026531840 cpu:               4.4 elap:               0.6
 (Enter /opt/ohpc/pub/libs/gaussian/g16-A.03/sandybridge/g16/l303.exe)
 DipDrv:  MaxL=1.
 Leave Link  303 at Sun Jan 17 21:18:56 2021, MaxMem=  4026531840 cpu:               0.4 elap:               0.1
 (Enter /opt/ohpc/pub/libs/gaussian/g16-A.03/sandybridge/g16/l401.exe)
 ExpMin= 9.52D-02 ExpMax= 1.97D+04 ExpMxC= 6.73D+02 IAcc=3 IRadAn=         5 AccDes= 0.00D+00
 Harris functional with IExCor=33909 and IRadAn=       5 diagonalized for initial guess.
 HarFok:  IExCor=33909 AccDes= 0.00D+00 IRadAn=         5 IDoV= 1 UseB2=F ITyADJ=14
 ICtDFT=  3500011 ScaDFX=  1.000000  1.000000  1.000000  1.000000
 FoFCou: FMM=F IPFlag=           0 FMFlag=      100000 FMFlg1=           0
         NFxFlg=           0 DoJE=T BraDBF=F KetDBF=T FulRan=T
         wScrn=  0.000000 ICntrl=       500 IOpCl=  0 I1Cent=   200000004 NGrid=           0
         NMat0=    1 NMatS0=      1 NMatT0=    0 NMatD0=    1 NMtDS0=    0 NMtDT0=    0
 Petite list used in FoFCou.
 Harris En= -735.490372513391    
 JPrj=0 DoOrth=F DoCkMO=F.
 Initial guess <Sx>= 0.0000 <Sy>= 0.0000 <Sz>= 0.5000 <S**2>= 0.7500 S= 0.5000
 Leave Link  401 at Sun Jan 17 21:19:00 2021, MaxMem=  4026531840 cpu:              27.5 elap:               3.5
 (Enter /opt/ohpc/pub/libs/gaussian/g16-A.03/sandybridge/g16/l502.exe)
 Integral symmetry usage will be decided dynamically.
 UHF open shell SCF:
 Using DIIS extrapolation, IDIIS=    10.
 NGot=  4026531840 LenX=  4026081620 LenY=  4025860250
 Requested convergence on RMS density matrix=1.00D-06 within  32 cycles.
 Requested convergence on MAX density matrix=1.00D-04.
 Requested convergence on             energy=1.00D-04.
 Virtual orbitals will be shifted by   0.500 hartree.
 No special actions if energy rises.
 Dynamic level shift is on during FON iterations.

 Cycle   1  Pass 1  IDiag  1:
 FoFJK:  IHMeth= 1 ICntrl=       0 DoSepK=T KAlg= 0 I1Cent=           0 FoldK=F
 IRaf=         1 NMat=       1 IRICut=       1 DoRegI=T DoRafI=F ISym2E= 0 IDoP0=0 IntGTp=1.
 FoFCou: FMM=F IPFlag=           0 FMFlag=      100000 FMFlg1=           0
         NFxFlg=           0 DoJE=T BraDBF=F KetDBF=F FulRan=T
         wScrn=  0.000000 ICntrl=       500 IOpCl=  0 I1Cent=           0 NGrid=           0
         NMat0=    1 NMatS0=      1 NMatT0=    0 NMatD0=    1 NMtDS0=    0 NMtDT0=    0
 Symmetry not used in FoFCou.
 E= -748.638658338867    
 DIIS: error= 3.57D-02 at cycle   1 NSaved=   1.
 NSaved= 1 IEnMin= 1 EnMin= -748.638658338867     IErMin= 1 ErrMin= 3.57D-02
 ErrMax= 3.57D-02  0.00D+00 EMaxC= 1.00D+00 BMatC= 1.32D+00 BMatP= 1.32D+00
 IDIUse=1 WtCom= 1.00D+00 WtEn= 0.00D+00
 Coeff-Com:  0.100D+01
 Coeff:      0.100D+01
 Gap=     0.405 Goal=   None    Shift=    0.500
 T= 1600. Gap= 0.763 NK=0 IS=   66 IE=  451 IFin=   65
          NO(<0.9)=   0  NV(>0.1)=   0     65.00e < EF      0.00e >EF  Err=0.0D+00
 Gap=     0.116 Goal=   None    Shift=    0.500
 T= 1600. Gap= 0.574 NK=0 IS=   65 IE=  451 IFin=   64
          NO(<0.9)=   0  NV(>0.1)=   0     64.00e < EF      0.00e >EF  Err=0.0D+00
 GapD=    0.116 DampG=1.000 DampE=0.500 DampFc=0.5000 IDamp=-1.
 Damping current iteration by 5.00D-01
 RMSDP=2.80D-03 MaxDP=6.60D-02              OVMax= 1.04D-01

 Cycle   2  Pass 1  IDiag  1:
 E= -748.846220423416     Delta-E=       -0.207562084549 Rises=F Damp=T
 DIIS: error= 1.40D-02 at cycle   2 NSaved=   2.
 NSaved= 2 IEnMin= 2 EnMin= -748.846220423416     IErMin= 2 ErrMin= 1.40D-02
 ErrMax= 1.40D-02  0.00D+00 EMaxC= 1.00D+00 BMatC= 1.82D-01 BMatP= 1.32D+00
 IDIUse=1 WtCom= 1.00D+00 WtEn= 0.00D+00
 Coeff-Com: -0.402D+00 0.140D+01
 Coeff:     -0.402D+00 0.140D+01
 Gap=     0.337 Goal=   None    Shift=    0.500
 T= 1464. Gap= 0.792 NK=0 IS=   66 IE=  451 IFin=   65
          NO(<0.9)=   0  NV(>0.1)=   0     65.00e < EF      0.00e >EF  Err=0.0D+00
 Gap=     0.240 Goal=   None    Shift=    0.500
 T= 1464. Gap= 0.708 NK=0 IS=   65 IE=  451 IFin=   64
          NO(<0.9)=   0  NV(>0.1)=   0     64.00e < EF      0.00e >EF  Err=0.0D+00
 GapD=    0.240 DampG=1.000 DampE=0.500 DampFc=0.5000 IDamp=-1.
 Damping current iteration by 5.00D-01
 RMSDP=1.45D-03 MaxDP=4.33D-02 DE=-2.08D-01 OVMax= 3.16D-02

 Cycle   3  Pass 1  IDiag  1:
 E= -748.909528968212     Delta-E=       -0.063308544796 Rises=F Damp=T
 DIIS: error= 7.06D-03 at cycle   3 NSaved=   3.
 NSaved= 3 IEnMin= 3 EnMin= -748.909528968212     IErMin= 3 ErrMin= 7.06D-03
 ErrMax= 7.06D-03  0.00D+00 EMaxC= 1.00D+00 BMatC= 3.09D-02 BMatP= 1.82D-01
 IDIUse=1 WtCom= 1.00D+00 WtEn= 0.00D+00
 Coeff-Com:  0.119D+00-0.969D+00 0.185D+01
 Coeff:      0.119D+00-0.969D+00 0.185D+01
 Gap=     0.303 Goal=   None    Shift=    0.500
 T= 1219. Gap= 0.802 NK=4 IS=   66 IE=   74 IFin=   65
          NO(<0.9)=   0  NV(>0.1)=   0     65.00e < EF      0.00e >EF  Err=0.0D+00
 Gap=     0.200 Goal=   None    Shift=    0.500
 T= 1219. Gap= 0.699 NK=4 IS=   65 IE=   72 IFin=   64
          NO(<0.9)=   0  NV(>0.1)=   0     64.00e < EF      0.00e >EF  Err=0.0D+00
 GapD=    0.200 DampG=1.000 DampE=1.000 DampFc=1.0000 IDamp=-1.
 RMSDP=8.03D-04 MaxDP=2.87D-02 DE=-6.33D-02 OVMax= 9.72D-03

 Cycle   4  Pass 1  IDiag  1:
 E= -748.963490431735     Delta-E=       -0.053961463522 Rises=F Damp=F
 DIIS: error= 1.84D-03 at cycle   4 NSaved=   4.
 NSaved= 4 IEnMin= 4 EnMin= -748.963490431735     IErMin= 4 ErrMin= 1.84D-03
 ErrMax= 1.84D-03  0.00D+00 EMaxC= 1.00D+00 BMatC= 3.40D-03 BMatP= 3.09D-02
 IDIUse=1 WtCom= 1.00D+00 WtEn= 0.00D+00
 Coeff-Com:  0.845D-01-0.180D+00 0.113D+00 0.982D+00
 Coeff:      0.845D-01-0.180D+00 0.113D+00 0.982D+00
 Gap=     0.301 Goal=   None    Shift=    0.500
 T=  674. Gap= 0.801 NK=4 IS=   66 IE=   74 IFin=   65
          NO(<0.9)=   0  NV(>0.1)=   0     65.00e < EF      0.00e >EF  Err=0.0D+00
 Gap=     0.202 Goal=   None    Shift=    0.500
 T=  674. Gap= 0.702 NK=4 IS=   65 IE=   72 IFin=   64
          NO(<0.9)=   0  NV(>0.1)=   0     64.00e < EF      0.00e >EF  Err=0.0D+00
 GapD=    0.202 DampG=1.000 DampE=1.000 DampFc=1.0000 IDamp=-1.
 RMSDP=1.48D-04 MaxDP=3.23D-03 DE=-5.40D-02 OVMax= 7.69D-03

 Cycle   5  Pass 1  IDiag  1:
 E= -748.964478004385     Delta-E=       -0.000987572651 Rises=F Damp=F
 DIIS: error= 1.64D-03 at cycle   5 NSaved=   5.
 NSaved= 5 IEnMin= 5 EnMin= -748.964478004385     IErMin= 5 ErrMin= 1.64D-03
 ErrMax= 1.64D-03  0.00D+00 EMaxC= 1.00D+00 BMatC= 5.87D-04 BMatP= 3.40D-03
 IDIUse=1 WtCom= 1.00D+00 WtEn= 0.00D+00
 Coeff-Com:  0.841D-03 0.883D-01-0.208D+00-0.249D+00 0.137D+01
 Coeff:      0.841D-03 0.883D-01-0.208D+00-0.249D+00 0.137D+01
 Gap=     0.303 Goal=   None    Shift=    0.500
 T=  209. Gap= 0.803 NK=4 IS=   66 IE=   74 IFin=   65
          NO(<0.9)=   0  NV(>0.1)=   0     65.00e < EF      0.00e >EF  Err=0.0D+00
 Gap=     0.204 Goal=   None    Shift=    0.500
 T=  209. Gap= 0.704 NK=4 IS=   65 IE=   72 IFin=   64
          NO(<0.9)=   0  NV(>0.1)=   0     64.00e < EF      0.00e >EF  Err=0.0D+00
 GapD=    0.204 DampG=1.000 DampE=1.000 DampFc=1.0000 IDamp=-1.
 RMSDP=1.08D-04 MaxDP=2.23D-03 DE=-9.88D-04 OVMax= 5.92D-03

 Cycle   6  Pass 1  IDiag  1:
 E= -748.964813752857     Delta-E=       -0.000335748472 Rises=F Damp=F
 DIIS: error= 1.36D-03 at cycle   6 NSaved=   6.
 NSaved= 6 IEnMin= 6 EnMin= -748.964813752857     IErMin= 6 ErrMin= 1.36D-03
 ErrMax= 1.36D-03  0.00D+00 EMaxC= 1.00D+00 BMatC= 1.49D-04 BMatP= 5.87D-04
 IDIUse=1 WtCom= 1.00D+00 WtEn= 0.00D+00
 Coeff-Com: -0.230D-01 0.666D-01-0.716D-01-0.309D+00-0.352D-01 0.137D+01
 Coeff:     -0.230D-01 0.666D-01-0.716D-01-0.309D+00-0.352D-01 0.137D+01
 Gap=     0.303 Goal=   None    Shift=    0.500
 Gap=     0.204 Goal=   None    Shift=    0.500
 GapD=    0.204 DampG=1.000 DampE=1.000 DampFc=1.0000 IDamp=-1.
 RMSDP=5.99D-05 MaxDP=1.18D-03 DE=-3.36D-04 OVMax= 4.92D-03

 Cycle   7  Pass 1  IDiag  1:
 E= -748.964968068762     Delta-E=       -0.000154315905 Rises=F Damp=F
 DIIS: error= 8.74D-04 at cycle   7 NSaved=   7.
 NSaved= 7 IEnMin= 7 EnMin= -748.964968068762     IErMin= 7 ErrMin= 8.74D-04
 ErrMax= 8.74D-04  0.00D+00 EMaxC= 1.00D+00 BMatC= 6.50D-05 BMatP= 1.49D-04
 IDIUse=1 WtCom= 1.00D+00 WtEn= 0.00D+00
 Coeff-Com: -0.365D-02-0.184D-01 0.508D-01 0.812D-01-0.476D+00-0.835D+00
 Coeff-Com:  0.220D+01
 Coeff:     -0.365D-02-0.184D-01 0.508D-01 0.812D-01-0.476D+00-0.835D+00
 Coeff:      0.220D+01
 Gap=     0.304 Goal=   None    Shift=    0.500
 Gap=     0.205 Goal=   None    Shift=    0.500
 RMSDP=4.08D-05 MaxDP=9.24D-04 DE=-1.54D-04 OVMax= 3.42D-03

 Cycle   8  Pass 1  IDiag  1:
 E= -748.965063420670     Delta-E=       -0.000095351908 Rises=F Damp=F
 DIIS: error= 5.40D-04 at cycle   8 NSaved=   8.
 NSaved= 8 IEnMin= 8 EnMin= -748.965063420670     IErMin= 8 ErrMin= 5.40D-04
 ErrMax= 5.40D-04  0.00D+00 EMaxC= 1.00D+00 BMatC= 3.10D-05 BMatP= 6.50D-05
 IDIUse=1 WtCom= 1.00D+00 WtEn= 0.00D+00
 Coeff-Com:  0.603D-02-0.109D-01 0.481D-02 0.867D-01 0.166D+00-0.683D+00
 Coeff-Com: -0.113D+01 0.256D+01
 Coeff:      0.603D-02-0.109D-01 0.481D-02 0.867D-01 0.166D+00-0.683D+00
 Coeff:     -0.113D+01 0.256D+01
 Gap=     0.304 Goal=   None    Shift=    0.500
 Gap=     0.205 Goal=   None    Shift=    0.500
 RMSDP=2.32D-05 MaxDP=5.43D-04 DE=-9.54D-05 OVMax= 2.71D-03

 Cycle   9  Pass 1  IDiag  1:
 E= -748.965118638778     Delta-E=       -0.000055218108 Rises=F Damp=F
 DIIS: error= 2.96D-04 at cycle   9 NSaved=   9.
 NSaved= 9 IEnMin= 9 EnMin= -748.965118638778     IErMin= 9 ErrMin= 2.96D-04
 ErrMax= 2.96D-04  0.00D+00 EMaxC= 1.00D+00 BMatC= 1.55D-05 BMatP= 3.10D-05
 IDIUse=1 WtCom= 1.00D+00 WtEn= 0.00D+00
 Coeff-Com:  0.209D-02 0.194D-02-0.995D-02-0.323D-02 0.221D+00-0.118D+00
 Coeff-Com: -0.879D+00 0.278D-01 0.176D+01
 Coeff:      0.209D-02 0.194D-02-0.995D-02-0.323D-02 0.221D+00-0.118D+00
 Coeff:     -0.879D+00 0.278D-01 0.176D+01
 Gap=     0.304 Goal=   None    Shift=    0.500
 Gap=     0.206 Goal=   None    Shift=    0.500
 RMSDP=1.34D-05 MaxDP=3.37D-04 DE=-5.52D-05 OVMax= 1.91D-03

 Cycle  10  Pass 1  IDiag  1:
 E= -748.965145580369     Delta-E=       -0.000026941590 Rises=F Damp=F
 DIIS: error= 2.21D-04 at cycle  10 NSaved=  10.
 NSaved=10 IEnMin=10 EnMin= -748.965145580369     IErMin=10 ErrMin= 2.21D-04
 ErrMax= 2.21D-04  0.00D+00 EMaxC= 1.00D+00 BMatC= 7.86D-06 BMatP= 1.55D-05
 IDIUse=1 WtCom= 1.00D+00 WtEn= 0.00D+00
 Coeff-Com: -0.267D-02 0.412D-02 0.603D-04-0.567D-01-0.359D-02 0.312D+00
 Coeff-Com:  0.415D+00-0.179D+01-0.224D+00 0.235D+01
 Coeff:     -0.267D-02 0.412D-02 0.603D-04-0.567D-01-0.359D-02 0.312D+00
 Coeff:      0.415D+00-0.179D+01-0.224D+00 0.235D+01
 Gap=     0.305 Goal=   None    Shift=    0.500
 Gap=     0.206 Goal=   None    Shift=    0.500
 RMSDP=1.05D-05 MaxDP=2.60D-04 DE=-2.69D-05 OVMax= 1.58D-03

 Cycle  11  Pass 1  IDiag  1:
 E= -748.965160787804     Delta-E=       -0.000015207436 Rises=F Damp=F
 DIIS: error= 1.60D-04 at cycle  11 NSaved=  11.
 NSaved=11 IEnMin=11 EnMin= -748.965160787804     IErMin=11 ErrMin= 1.60D-04
 ErrMax= 1.60D-04  0.00D+00 EMaxC= 1.00D+00 BMatC= 4.06D-06 BMatP= 7.86D-06
 IDIUse=1 WtCom= 1.00D+00 WtEn= 0.00D+00
 Coeff-Com:  0.968D-04-0.804D-02 0.155D-01 0.974D-02-0.148D+00-0.528D-02
 Coeff-Com:  0.547D+00 0.252D+00-0.188D+01-0.295D+00 0.252D+01
 Coeff:      0.968D-04-0.804D-02 0.155D-01 0.974D-02-0.148D+00-0.528D-02
 Coeff:      0.547D+00 0.252D+00-0.188D+01-0.295D+00 0.252D+01
 Gap=     0.305 Goal=   None    Shift=    0.500
 Gap=     0.206 Goal=   None    Shift=    0.500
 RMSDP=7.90D-06 MaxDP=1.62D-04 DE=-1.52D-05 OVMax= 1.20D-03

 Cycle  12  Pass 1  IDiag  1:
 E= -748.965168180726     Delta-E=       -0.000007392922 Rises=F Damp=F
 DIIS: error= 1.05D-04 at cycle  12 NSaved=  12.
 NSaved=12 IEnMin=12 EnMin= -748.965168180726     IErMin=12 ErrMin= 1.05D-04
 ErrMax= 1.05D-04  0.00D+00 EMaxC= 1.00D+00 BMatC= 1.87D-06 BMatP= 4.06D-06
 IDIUse=1 WtCom= 1.00D+00 WtEn= 0.00D+00
 Coeff-Com:  0.105D-02-0.295D-02 0.257D-02 0.206D-01-0.854D-02-0.133D+00
 Coeff-Com: -0.109D+00 0.820D+00-0.323D+00-0.733D+00-0.136D+01 0.283D+01
 Coeff:      0.105D-02-0.295D-02 0.257D-02 0.206D-01-0.854D-02-0.133D+00
 Coeff:     -0.109D+00 0.820D+00-0.323D+00-0.733D+00-0.136D+01 0.283D+01
 Gap=     0.305 Goal=   None    Shift=    0.500
 Gap=     0.206 Goal=   None    Shift=    0.500
 RMSDP=5.73D-06 MaxDP=1.22D-04 DE=-7.39D-06 OVMax= 8.23D-04

 Cycle  13  Pass 1  IDiag  1:
 E= -748.965171303822     Delta-E=       -0.000003123097 Rises=F Damp=F
 DIIS: error= 6.70D-05 at cycle  13 NSaved=  13.
 NSaved=13 IEnMin=13 EnMin= -748.965171303822     IErMin=13 ErrMin= 6.70D-05
 ErrMax= 6.70D-05  0.00D+00 EMaxC= 1.00D+00 BMatC= 8.17D-07 BMatP= 1.87D-06
 IDIUse=1 WtCom= 1.00D+00 WtEn= 0.00D+00
 Coeff-Com: -0.173D-04 0.934D-03-0.194D-02-0.858D-02 0.310D-01 0.266D-01
 Coeff-Com: -0.871D-01-0.197D+00 0.503D+00 0.169D+00-0.523D+00-0.203D+01
 Coeff-Com:  0.312D+01
 Coeff:     -0.173D-04 0.934D-03-0.194D-02-0.858D-02 0.310D-01 0.266D-01
 Coeff:     -0.871D-01-0.197D+00 0.503D+00 0.169D+00-0.523D+00-0.203D+01
 Coeff:      0.312D+01
 Gap=     0.305 Goal=   None    Shift=    0.500
 Gap=     0.206 Goal=   None    Shift=    0.500
 RMSDP=3.89D-06 MaxDP=9.10D-05 DE=-3.12D-06 OVMax= 5.30D-04

 Cycle  14  Pass 1  IDiag  1:
 E= -748.965172519257     Delta-E=       -0.000001215435 Rises=F Damp=F
 DIIS: error= 3.99D-05 at cycle  14 NSaved=  14.
 NSaved=14 IEnMin=14 EnMin= -748.965172519257     IErMin=14 ErrMin= 3.99D-05
 ErrMax= 3.99D-05  0.00D+00 EMaxC= 1.00D+00 BMatC= 3.35D-07 BMatP= 8.17D-07
 IDIUse=1 WtCom= 1.00D+00 WtEn= 0.00D+00
 Coeff-Com: -0.236D-03 0.350D-03-0.150D-04-0.753D-02 0.160D-02 0.390D-01
 Coeff-Com:  0.462D-01-0.298D+00 0.182D+00 0.285D+00 0.348D+00-0.187D+01
 Coeff-Com:  0.467D+00 0.181D+01
 Coeff:     -0.236D-03 0.350D-03-0.150D-04-0.753D-02 0.160D-02 0.390D-01
 Coeff:      0.462D-01-0.298D+00 0.182D+00 0.285D+00 0.348D+00-0.187D+01
 Coeff:      0.467D+00 0.181D+01
 Gap=     0.305 Goal=   None    Shift=    0.500
 Gap=     0.206 Goal=   None    Shift=    0.500
 RMSDP=2.49D-06 MaxDP=5.89D-05 DE=-1.22D-06 OVMax= 3.06D-04

 Cycle  15  Pass 1  IDiag  1:
 E= -748.965172957656     Delta-E=       -0.000000438399 Rises=F Damp=F
 DIIS: error= 2.58D-05 at cycle  15 NSaved=  15.
 NSaved=15 IEnMin=15 EnMin= -748.965172957656     IErMin=15 ErrMin= 2.58D-05
 ErrMax= 2.58D-05  0.00D+00 EMaxC= 1.00D+00 BMatC= 1.26D-07 BMatP= 3.35D-07
 IDIUse=1 WtCom= 1.00D+00 WtEn= 0.00D+00
 Coeff-Com: -0.248D-04-0.533D-03 0.123D-02 0.232D-02-0.163D-01-0.297D-02
 Coeff-Com:  0.633D-01 0.167D-01-0.210D+00-0.256D-02 0.335D+00 0.297D+00
 Coeff-Com: -0.146D+01 0.194D+00 0.178D+01
 Coeff:     -0.248D-04-0.533D-03 0.123D-02 0.232D-02-0.163D-01-0.297D-02
 Coeff:      0.633D-01 0.167D-01-0.210D+00-0.256D-02 0.335D+00 0.297D+00
 Coeff:     -0.146D+01 0.194D+00 0.178D+01
 Gap=     0.305 Goal=   None    Shift=    0.500
 Gap=     0.206 Goal=   None    Shift=    0.500
 RMSDP=1.58D-06 MaxDP=3.89D-05 DE=-4.38D-07 OVMax= 1.81D-04

 Cycle  16  Pass 1  IDiag  1:
 E= -748.965173119267     Delta-E=       -0.000000161611 Rises=F Damp=F
 DIIS: error= 1.85D-05 at cycle  16 NSaved=  16.
 NSaved=16 IEnMin=16 EnMin= -748.965173119267     IErMin=16 ErrMin= 1.85D-05
 ErrMax= 1.85D-05  0.00D+00 EMaxC= 1.00D+00 BMatC= 4.58D-08 BMatP= 1.26D-07
 IDIUse=1 WtCom= 1.00D+00 WtEn= 0.00D+00
 Coeff-Com:  0.936D-04-0.182D-03 0.668D-04 0.108D-02 0.317D-02-0.931D-02
 Coeff-Com: -0.311D-01 0.909D-01-0.675D-02-0.820D-01-0.169D+00 0.331D+00
 Coeff-Com:  0.139D+00-0.545D+00-0.107D+01 0.235D+01
 Coeff:      0.936D-04-0.182D-03 0.668D-04 0.108D-02 0.317D-02-0.931D-02
 Coeff:     -0.311D-01 0.909D-01-0.675D-02-0.820D-01-0.169D+00 0.331D+00
 Coeff:      0.139D+00-0.545D+00-0.107D+01 0.235D+01
 Gap=     0.305 Goal=   None    Shift=    0.500
 Gap=     0.206 Goal=   None    Shift=    0.500
 RMSDP=9.78D-07 MaxDP=2.06D-05 DE=-1.62D-07 OVMax= 1.35D-04

 SCF Done:  E(ULC-wHPBE) =  -748.965173119     A.U. after   16 cycles
            NFock= 16  Conv=0.98D-06     -V/T= 2.0049
 <Sx>= 0.0000 <Sy>= 0.0000 <Sz>= 0.5000 <S**2>= 0.7707 S= 0.5103
 <L.S>= 0.000000000000E+00
 KE= 7.453344824776D+02 PE=-4.316604080777D+03 EE= 1.524083877158D+03
 Annihilation of the first spin contaminant:
 S**2 before annihilation     0.7707,   after     0.7504
 Leave Link  502 at Sun Jan 17 21:25:37 2021, MaxMem=  4026531840 cpu:            3165.6 elap:             396.8
 (Enter /opt/ohpc/pub/libs/gaussian/g16-A.03/sandybridge/g16/l508.exe)
 QCSCF skips out because SCF is already converged.
 Leave Link  508 at Sun Jan 17 21:25:37 2021, MaxMem=  4026531840 cpu:               0.1 elap:               0.0
 (Enter /opt/ohpc/pub/libs/gaussian/g16-A.03/sandybridge/g16/l601.exe)
 Copying SCF densities to generalized density rwf, IOpCl= 1 IROHF=0.

 **********************************************************************

            Population analysis using the SCF density.

 **********************************************************************

 Orbital symmetries:
 Alpha Orbitals:
       Occupied  (A) (A) (A) (A) (A) (A) (A) (A) (A) (A) (A) (A)
                 (A) (A) (A) (A) (A) (A) (A) (A) (A) (A) (A) (A)
                 (A) (A) (A) (A) (A) (A) (A) (A) (A) (A) (A) (A)
                 (A) (A) (A) (A) (A) (A) (A) (A) (A) (A) (A) (A)
                 (A) (A) (A) (A) (A) (A) (A) (A) (A) (A) (A) (A)
                 (A) (A) (A) (A) (A)
       Virtual   (A) (A) (A) (A) (A) (A) (A) (A) (A) (A) (A) (A)
                 (A) (A) (A) (A) (A) (A) (A) (A) (A) (A) (A) (A)
                 (A) (A) (A) (A) (A) (A) (A) (A) (A) (A) (A) (A)
                 (A) (A) (A) (A) (A) (A) (A) (A) (A) (A) (A) (A)
                 (A) (A) (A) (A) (A) (A) (A) (A) (A) (A) (A) (A)
                 (A) (A) (A) (A) (A) (A) (A) (A) (A) (A) (A) (A)
                 (A) (A) (A) (A) (A) (A) (A) (A) (A) (A) (A) (A)
                 (A) (A) (A) (A) (A) (A) (A) (A) (A) (A) (A) (A)
                 (A) (A) (A) (A) (A) (A) (A) (A) (A) (A) (A) (A)
                 (A) (A) (A) (A) (A) (A) (A) (A) (A) (A) (A) (A)
                 (A) (A) (A) (A) (A) (A) (A) (A) (A) (A) (A) (A)
                 (A) (A) (A) (A) (A) (A) (A) (A) (A) (A) (A) (A)
                 (A) (A) (A) (A) (A) (A) (A) (A) (A) (A) (A) (A)
                 (A) (A) (A) (A) (A) (A) (A) (A) (A) (A) (A) (A)
                 (A) (A) (A) (A) (A) (A) (A) (A) (A) (A) (A) (A)
                 (A) (A) (A) (A) (A) (A) (A) (A) (A) (A) (A) (A)
                 (A) (A) (A) (A) (A) (A) (A) (A) (A) (A) (A) (A)
                 (A) (A) (A) (A) (A) (A) (A) (A) (A) (A) (A) (A)
                 (A) (A) (A) (A) (A) (A) (A) (A) (A) (A) (A) (A)
                 (A) (A) (A) (A) (A) (A) (A) (A) (A) (A) (A) (A)
                 (A) (A) (A) (A) (A) (A) (A) (A) (A) (A) (A) (A)
                 (A) (A) (A) (A) (A) (A) (A) (A) (A) (A) (A) (A)
                 (A) (A) (A) (A) (A) (A) (A) (A) (A) (A) (A) (A)
                 (A) (A) (A) (A) (A) (A) (A) (A) (A) (A) (A) (A)
                 (A) (A) (A) (A) (A) (A) (A) (A) (A) (A) (A) (A)
                 (A) (A) (A) (A) (A) (A) (A) (A) (A) (A) (A) (A)
                 (A) (A) (A) (A) (A) (A) (A) (A) (A) (A) (A) (A)
                 (A) (A) (A) (A) (A) (A) (A) (A) (A) (A) (A) (A)
                 (A) (A) (A) (A) (A) (A) (A) (A) (A) (A) (A) (A)
                 (A) (A) (A) (A) (A) (A) (A) (A) (A) (A) (A) (A)
                 (A) (A) (A) (A) (A) (A) (A) (A) (A) (A) (A) (A)
                 (A) (A) (A) (A) (A) (A) (A) (A) (A) (A) (A) (A)
                 (A) (A)
 Beta  Orbitals:
       Occupied  (A) (A) (A) (A) (A) (A) (A) (A) (A) (A) (A) (A)
                 (A) (A) (A) (A) (A) (A) (A) (A) (A) (A) (A) (A)
                 (A) (A) (A) (A) (A) (A) (A) (A) (A) (A) (A) (A)
                 (A) (A) (A) (A) (A) (A) (A) (A) (A) (A) (A) (A)
                 (A) (A) (A) (A) (A) (A) (A) (A) (A) (A) (A) (A)
                 (A) (A) (A) (A)
       Virtual   (A) (A) (A) (A) (A) (A) (A) (A) (A) (A) (A) (A)
                 (A) (A) (A) (A) (A) (A) (A) (A) (A) (A) (A) (A)
                 (A) (A) (A) (A) (A) (A) (A) (A) (A) (A) (A) (A)
                 (A) (A) (A) (A) (A) (A) (A) (A) (A) (A) (A) (A)
                 (A) (A) (A) (A) (A) (A) (A) (A) (A) (A) (A) (A)
                 (A) (A) (A) (A) (A) (A) (A) (A) (A) (A) (A) (A)
                 (A) (A) (A) (A) (A) (A) (A) (A) (A) (A) (A) (A)
                 (A) (A) (A) (A) (A) (A) (A) (A) (A) (A) (A) (A)
                 (A) (A) (A) (A) (A) (A) (A) (A) (A) (A) (A) (A)
                 (A) (A) (A) (A) (A) (A) (A) (A) (A) (A) (A) (A)
                 (A) (A) (A) (A) (A) (A) (A) (A) (A) (A) (A) (A)
                 (A) (A) (A) (A) (A) (A) (A) (A) (A) (A) (A) (A)
                 (A) (A) (A) (A) (A) (A) (A) (A) (A) (A) (A) (A)
                 (A) (A) (A) (A) (A) (A) (A) (A) (A) (A) (A) (A)
                 (A) (A) (A) (A) (A) (A) (A) (A) (A) (A) (A) (A)
                 (A) (A) (A) (A) (A) (A) (A) (A) (A) (A) (A) (A)
                 (A) (A) (A) (A) (A) (A) (A) (A) (A) (A) (A) (A)
                 (A) (A) (A) (A) (A) (A) (A) (A) (A) (A) (A) (A)
                 (A) (A) (A) (A) (A) (A) (A) (A) (A) (A) (A) (A)
                 (A) (A) (A) (A) (A) (A) (A) (A) (A) (A) (A) (A)
                 (A) (A) (A) (A) (A) (A) (A) (A) (A) (A) (A) (A)
                 (A) (A) (A) (A) (A) (A) (A) (A) (A) (A) (A) (A)
                 (A) (A) (A) (A) (A) (A) (A) (A) (A) (A) (A) (A)
                 (A) (A) (A) (A) (A) (A) (A) (A) (A) (A) (A) (A)
                 (A) (A) (A) (A) (A) (A) (A) (A) (A) (A) (A) (A)
                 (A) (A) (A) (A) (A) (A) (A) (A) (A) (A) (A) (A)
                 (A) (A) (A) (A) (A) (A) (A) (A) (A) (A) (A) (A)
                 (A) (A) (A) (A) (A) (A) (A) (A) (A) (A) (A) (A)
                 (A) (A) (A) (A) (A) (A) (A) (A) (A) (A) (A) (A)
                 (A) (A) (A) (A) (A) (A) (A) (A) (A) (A) (A) (A)
                 (A) (A) (A) (A) (A) (A) (A) (A) (A) (A) (A) (A)
                 (A) (A) (A) (A) (A) (A) (A) (A) (A) (A) (A) (A)
                 (A) (A) (A)
 The electronic state is 2-A.
 Alpha  occ. eigenvalues --  -14.34571 -10.19585 -10.19581 -10.19579 -10.14942
 Alpha  occ. eigenvalues --  -10.14940 -10.14939 -10.14939 -10.14938 -10.14937
 Alpha  occ. eigenvalues --  -10.14070 -10.14067 -10.14066 -10.13723 -10.13721
 Alpha  occ. eigenvalues --  -10.13721 -10.13720 -10.13718 -10.13718  -1.18834
 Alpha  occ. eigenvalues --   -1.04890  -1.04889  -1.02788  -0.95612  -0.95611
 Alpha  occ. eigenvalues --   -0.93388  -0.93336  -0.93335  -0.90488  -0.83245
 Alpha  occ. eigenvalues --   -0.83244  -0.80366  -0.79551  -0.79550  -0.76709
 Alpha  occ. eigenvalues --   -0.74145  -0.74142  -0.70154  -0.68179  -0.68178
 Alpha  occ. eigenvalues --   -0.68177  -0.65051  -0.65051  -0.63297  -0.63121
 Alpha  occ. eigenvalues --   -0.63118  -0.62174  -0.61713  -0.61710  -0.59767
 Alpha  occ. eigenvalues --   -0.58778  -0.58777  -0.56410  -0.55730  -0.55384
 Alpha  occ. eigenvalues --   -0.55384  -0.53836  -0.53835  -0.52822  -0.47826
 Alpha  occ. eigenvalues --   -0.47825  -0.47393  -0.46158  -0.46156  -0.41968
 Alpha virt. eigenvalues --   -0.11508  -0.11506  -0.11232  -0.08988  -0.08987
 Alpha virt. eigenvalues --   -0.07071  -0.01777  -0.00165  -0.00165   0.01761
 Alpha virt. eigenvalues --    0.01764   0.02351   0.02520   0.04082   0.04082
 Alpha virt. eigenvalues --    0.04785   0.04853   0.04856   0.05523   0.05524
 Alpha virt. eigenvalues --    0.05759   0.07269   0.07537   0.07537   0.08514
 Alpha virt. eigenvalues --    0.11714   0.12078   0.12081   0.12838   0.13141
 Alpha virt. eigenvalues --    0.13143   0.13212   0.14592   0.14593   0.15639
 Alpha virt. eigenvalues --    0.15644   0.15791   0.16963   0.16964   0.17305
 Alpha virt. eigenvalues --    0.17693   0.17696   0.17760   0.18284   0.18288
 Alpha virt. eigenvalues --    0.18844   0.20432   0.20433   0.21300   0.21300
 Alpha virt. eigenvalues --    0.21732   0.22924   0.22927   0.23664   0.23935
 Alpha virt. eigenvalues --    0.24949   0.24954   0.25481   0.26254   0.26258
 Alpha virt. eigenvalues --    0.28101   0.29337   0.29456   0.29463   0.29504
 Alpha virt. eigenvalues --    0.31123   0.31125   0.32023   0.32361   0.32362
 Alpha virt. eigenvalues --    0.32508   0.33145   0.33328   0.33337   0.34523
 Alpha virt. eigenvalues --    0.34523   0.36253   0.36652   0.36653   0.36944
 Alpha virt. eigenvalues --    0.36947   0.37365   0.38856   0.38857   0.39478
 Alpha virt. eigenvalues --    0.39479   0.39751   0.40723   0.41093   0.41098
 Alpha virt. eigenvalues --    0.42233   0.42526   0.42576   0.42578   0.43585
 Alpha virt. eigenvalues --    0.43595   0.43857   0.43871   0.45224   0.45226
 Alpha virt. eigenvalues --    0.47387   0.47395   0.47657   0.47974   0.50538
 Alpha virt. eigenvalues --    0.50539   0.52766   0.53218   0.54615   0.54616
 Alpha virt. eigenvalues --    0.58419   0.58423   0.59378   0.59382   0.61265
 Alpha virt. eigenvalues --    0.61591   0.61596   0.61634   0.62297   0.62300
 Alpha virt. eigenvalues --    0.62682   0.64079   0.64094   0.66702   0.66726
 Alpha virt. eigenvalues --    0.68508   0.70484   0.70490   0.72475   0.75507
 Alpha virt. eigenvalues --    0.76637   0.76650   0.77632   0.83952   0.83960
 Alpha virt. eigenvalues --    0.85170   1.03738   1.06180   1.06184   1.10297
 Alpha virt. eigenvalues --    1.10302   1.10459   1.13233   1.13234   1.14336
 Alpha virt. eigenvalues --    1.14567   1.14568   1.15946   1.16222   1.17313
 Alpha virt. eigenvalues --    1.17313   1.18093   1.18097   1.19366   1.19513
 Alpha virt. eigenvalues --    1.19515   1.20663   1.20863   1.21020   1.21023
 Alpha virt. eigenvalues --    1.22531   1.22532   1.22725   1.23678   1.24623
 Alpha virt. eigenvalues --    1.24633   1.24794   1.32003   1.32007   1.33405
 Alpha virt. eigenvalues --    1.33513   1.33862   1.33866   1.33935   1.33938
 Alpha virt. eigenvalues --    1.34883   1.34939   1.35412   1.35415   1.36019
 Alpha virt. eigenvalues --    1.36022   1.37303   1.37405   1.37469   1.37478
 Alpha virt. eigenvalues --    1.38891   1.38893   1.41165   1.41488   1.41503
 Alpha virt. eigenvalues --    1.41504   1.42595   1.42599   1.44478   1.44484
 Alpha virt. eigenvalues --    1.44717   1.44802   1.45273   1.45275   1.46599
 Alpha virt. eigenvalues --    1.46600   1.46775   1.47998   1.48093   1.48096
 Alpha virt. eigenvalues --    1.49720   1.49887   1.49893   1.56328   1.56330
 Alpha virt. eigenvalues --    1.56540   1.60027   1.60047   1.65127   1.65387
 Alpha virt. eigenvalues --    1.65398   1.66741   1.67699   1.67700   1.68074
 Alpha virt. eigenvalues --    1.68354   1.68540   1.69016   1.69017   1.71115
 Alpha virt. eigenvalues --    1.71128   1.71916   1.71923   1.72244   1.73690
 Alpha virt. eigenvalues --    1.76732   1.76733   1.77525   1.78282   1.78740
 Alpha virt. eigenvalues --    1.78744   1.80269   1.80931   1.80934   1.81609
 Alpha virt. eigenvalues --    1.81613   1.81696   1.81707   1.82273   1.82436
 Alpha virt. eigenvalues --    1.83157   1.83165   1.83848   1.87678   1.87724
 Alpha virt. eigenvalues --    1.87725   1.88545   1.88779   1.88780   1.92028
 Alpha virt. eigenvalues --    1.92036   1.93006   1.96624   1.96625   2.00318
 Alpha virt. eigenvalues --    2.00322   2.00671   2.03512   2.08337   2.08338
 Alpha virt. eigenvalues --    2.10721   2.12166   2.12170   2.14744   2.18438
 Alpha virt. eigenvalues --    2.18439   2.19244   2.19347   2.19973   2.19975
 Alpha virt. eigenvalues --    2.20111   2.20113   2.22609   2.22824   2.22826
 Alpha virt. eigenvalues --    2.23217   2.24477   2.24798   2.24801   2.25839
 Alpha virt. eigenvalues --    2.25841   2.26534   2.32440   2.32445   2.33911
 Alpha virt. eigenvalues --    2.38577   2.38585   2.40382   2.40383   2.41257
 Alpha virt. eigenvalues --    2.41260   2.41827   2.42604   2.44219   2.44229
 Alpha virt. eigenvalues --    2.44766   2.47901   2.52304   2.52309   2.53044
 Alpha virt. eigenvalues --    2.53526   2.53533   2.54121   2.54124   2.55353
 Alpha virt. eigenvalues --    2.55766   2.57101   2.57103   2.62754   2.62764
 Alpha virt. eigenvalues --    2.63379   2.65073   2.65076   2.66256   2.66463
 Alpha virt. eigenvalues --    2.71076   2.71086   2.73035   2.73713   2.73726
 Alpha virt. eigenvalues --    2.78061   2.83533   2.83546   2.86896   2.86900
 Alpha virt. eigenvalues --    2.90783   2.91535   2.91977   2.91981   2.92957
 Alpha virt. eigenvalues --    2.94278   2.94282   2.97033   2.98924   2.98929
 Alpha virt. eigenvalues --    3.00222   3.01523   3.04189   3.04192   3.05378
 Alpha virt. eigenvalues --    3.05379   3.07848   3.07851   3.08814   3.08819
 Alpha virt. eigenvalues --    3.09625   3.13590   3.21574   3.21577   3.22316
 Alpha virt. eigenvalues --    3.26509   3.29988   3.29995   3.32602   3.40627
 Alpha virt. eigenvalues --    3.43225   3.43240   3.47853   3.47859   3.69695
 Alpha virt. eigenvalues --    3.78927   3.78929  21.06081  21.08814  21.08821
 Alpha virt. eigenvalues --   21.54265  21.57613  21.57619  21.57627  21.65748
 Alpha virt. eigenvalues --   21.65757  21.76401  21.80306  21.82458  21.82464
 Alpha virt. eigenvalues --   21.87949  21.87952  21.94132  21.99951  21.99978
 Alpha virt. eigenvalues --   31.83844
  Beta  occ. eigenvalues --  -14.33688 -10.19634 -10.19630 -10.19628 -10.14792
  Beta  occ. eigenvalues --  -10.14790 -10.14789 -10.14789 -10.14788 -10.14787
  Beta  occ. eigenvalues --  -10.13899 -10.13897 -10.13896 -10.13788 -10.13786
  Beta  occ. eigenvalues --  -10.13786 -10.13781 -10.13779 -10.13779  -1.17693
  Beta  occ. eigenvalues --   -1.04668  -1.04667  -1.02469  -0.95392  -0.95391
  Beta  occ. eigenvalues --   -0.93229  -0.93173  -0.93172  -0.89890  -0.82963
  Beta  occ. eigenvalues --   -0.82962  -0.80082  -0.79406  -0.79405  -0.76534
  Beta  occ. eigenvalues --   -0.73975  -0.73973  -0.69972  -0.67977  -0.67977
  Beta  occ. eigenvalues --   -0.67272  -0.64945  -0.64944  -0.63216  -0.62960
  Beta  occ. eigenvalues --   -0.62958  -0.62043  -0.61633  -0.61631  -0.59067
  Beta  occ. eigenvalues --   -0.58278  -0.58277  -0.56289  -0.55274  -0.55273
  Beta  occ. eigenvalues --   -0.54743  -0.53724  -0.53723  -0.51657  -0.46990
  Beta  occ. eigenvalues --   -0.46641  -0.46640  -0.45538  -0.45536
  Beta virt. eigenvalues --   -0.24948  -0.10965  -0.10785  -0.10784  -0.08491
  Beta virt. eigenvalues --   -0.08491  -0.05835  -0.01674  -0.00090  -0.00090
  Beta virt. eigenvalues --    0.01826   0.01828   0.02443   0.02562   0.04145
  Beta virt. eigenvalues --    0.04145   0.05006   0.05137   0.05138   0.05599
  Beta virt. eigenvalues --    0.05601   0.05804   0.07575   0.07576   0.07735
  Beta virt. eigenvalues --    0.08878   0.11927   0.12212   0.12215   0.12991
  Beta virt. eigenvalues --    0.13264   0.13265   0.13449   0.14712   0.14713
  Beta virt. eigenvalues --    0.15793   0.15798   0.15928   0.17096   0.17097
  Beta virt. eigenvalues --    0.17481   0.17732   0.17736   0.17861   0.18405
  Beta virt. eigenvalues --    0.18409   0.18954   0.20506   0.20507   0.21336
  Beta virt. eigenvalues --    0.21337   0.21936   0.23202   0.23204   0.23792
  Beta virt. eigenvalues --    0.24165   0.25099   0.25104   0.25768   0.26454
  Beta virt. eigenvalues --    0.26458   0.28362   0.29537   0.29601   0.29608
  Beta virt. eigenvalues --    0.29693   0.31236   0.31239   0.32314   0.32513
  Beta virt. eigenvalues --    0.32514   0.32650   0.33418   0.33483   0.33492
  Beta virt. eigenvalues --    0.34732   0.34733   0.36251   0.36675   0.36677
  Beta virt. eigenvalues --    0.37042   0.37045   0.37416   0.38986   0.38986
  Beta virt. eigenvalues --    0.39641   0.39642   0.39901   0.40890   0.41172
  Beta virt. eigenvalues --    0.41177   0.42369   0.42657   0.42659   0.42740
  Beta virt. eigenvalues --    0.43688   0.43698   0.43953   0.44081   0.45366
  Beta virt. eigenvalues --    0.45368   0.47509   0.47517   0.47798   0.48086
  Beta virt. eigenvalues --    0.50656   0.50657   0.52935   0.53415   0.54705
  Beta virt. eigenvalues --    0.54706   0.58512   0.58516   0.59524   0.59526
  Beta virt. eigenvalues --    0.61366   0.61716   0.61720   0.61844   0.62414
  Beta virt. eigenvalues --    0.62416   0.62796   0.64209   0.64224   0.66872
  Beta virt. eigenvalues --    0.66897   0.68630   0.70578   0.70584   0.73044
  Beta virt. eigenvalues --    0.76225   0.76740   0.76753   0.77845   0.84051
  Beta virt. eigenvalues --    0.84059   0.85452   1.03871   1.06284   1.06288
  Beta virt. eigenvalues --    1.10440   1.10444   1.10561   1.13416   1.13416
  Beta virt. eigenvalues --    1.14585   1.14682   1.14683   1.16134   1.16437
  Beta virt. eigenvalues --    1.17486   1.17487   1.18368   1.18373   1.19481
  Beta virt. eigenvalues --    1.19624   1.19626   1.20839   1.21043   1.21189
  Beta virt. eigenvalues --    1.21192   1.22618   1.22619   1.22893   1.23981
  Beta virt. eigenvalues --    1.24798   1.24838   1.24848   1.32245   1.32248
  Beta virt. eigenvalues --    1.33547   1.33808   1.33813   1.34082   1.34564
  Beta virt. eigenvalues --    1.34564   1.34811   1.35415   1.35582   1.35584
  Beta virt. eigenvalues --    1.36077   1.36079   1.37373   1.37606   1.37816
  Beta virt. eigenvalues --    1.37824   1.39003   1.39005   1.41379   1.41505
  Beta virt. eigenvalues --    1.41768   1.41769   1.42642   1.42646   1.44552
  Beta virt. eigenvalues --    1.44558   1.44853   1.44887   1.45579   1.45580
  Beta virt. eigenvalues --    1.46858   1.46858   1.47066   1.48262   1.48267
  Beta virt. eigenvalues --    1.48305   1.49935   1.50082   1.50088   1.56528
  Beta virt. eigenvalues --    1.56529   1.56723   1.60174   1.60194   1.65343
  Beta virt. eigenvalues --    1.65659   1.65670   1.67098   1.67897   1.67898
  Beta virt. eigenvalues --    1.68359   1.68548   1.68608   1.69172   1.69173
  Beta virt. eigenvalues --    1.71340   1.71352   1.72055   1.72063   1.72603
  Beta virt. eigenvalues --    1.73970   1.76917   1.76918   1.77827   1.78540
  Beta virt. eigenvalues --    1.78929   1.78932   1.80434   1.81086   1.81090
  Beta virt. eigenvalues --    1.81792   1.81798   1.81881   1.81890   1.82452
  Beta virt. eigenvalues --    1.82511   1.83273   1.83280   1.84078   1.87853
  Beta virt. eigenvalues --    1.87905   1.87905   1.88975   1.88975   1.89017
  Beta virt. eigenvalues --    1.92234   1.92243   1.93305   1.96833   1.96835
  Beta virt. eigenvalues --    2.00558   2.00562   2.00780   2.03990   2.08666
  Beta virt. eigenvalues --    2.08667   2.11434   2.12815   2.12821   2.15343
  Beta virt. eigenvalues --    2.18603   2.18603   2.19577   2.19670   2.20222
  Beta virt. eigenvalues --    2.20224   2.20449   2.20451   2.22948   2.23085
  Beta virt. eigenvalues --    2.23087   2.23627   2.24709   2.25082   2.25085
  Beta virt. eigenvalues --    2.26063   2.26065   2.26845   2.32739   2.32743
  Beta virt. eigenvalues --    2.34471   2.38753   2.38760   2.40385   2.40386
  Beta virt. eigenvalues --    2.41556   2.41559   2.41959   2.42821   2.44421
  Beta virt. eigenvalues --    2.44430   2.45276   2.48411   2.52570   2.52574
  Beta virt. eigenvalues --    2.53358   2.53721   2.53728   2.54311   2.54315
  Beta virt. eigenvalues --    2.55875   2.56107   2.57303   2.57305   2.63361
  Beta virt. eigenvalues --    2.63369   2.63672   2.65334   2.65337   2.66699
  Beta virt. eigenvalues --    2.67276   2.71201   2.71210   2.73378   2.73864
  Beta virt. eigenvalues --    2.73876   2.78302   2.84103   2.84117   2.87081
  Beta virt. eigenvalues --    2.87086   2.90851   2.91692   2.92026   2.92031
  Beta virt. eigenvalues --    2.93001   2.94369   2.94373   2.97459   2.99164
  Beta virt. eigenvalues --    2.99168   3.00308   3.01825   3.04333   3.04336
  Beta virt. eigenvalues --    3.05552   3.05553   3.08001   3.08004   3.08996
  Beta virt. eigenvalues --    3.09001   3.09892   3.13776   3.21668   3.21670
  Beta virt. eigenvalues --    3.22410   3.27176   3.30197   3.30204   3.33838
  Beta virt. eigenvalues --    3.40740   3.43338   3.43353   3.48204   3.48210
  Beta virt. eigenvalues --    3.69977   3.79225   3.79227  21.06163  21.08899
  Beta virt. eigenvalues --   21.08907  21.54319  21.57675  21.57679  21.57758
  Beta virt. eigenvalues --   21.65924  21.65933  21.76473  21.80404  21.82534
  Beta virt. eigenvalues --   21.82540  21.88038  21.88042  21.94221  22.00010
  Beta virt. eigenvalues --   22.00037  31.85115
          Condensed to atoms (all electrons):
               1          2          3          4          5          6
     1  N    6.316365   0.191945  -0.004584  -0.004062   0.009430   0.009429
     2  C    0.191945   5.621233   0.299297   0.298970   0.022908   0.022929
     3  C   -0.004584   0.299297   5.221890  -0.032345   0.377732  -0.133831
     4  C   -0.004062   0.298970  -0.032345   5.221945  -0.133791   0.377589
     5  C    0.009430   0.022908   0.377732  -0.133791   5.029832   0.032899
     6  C    0.009429   0.022929  -0.133831   0.377589   0.032899   5.030029
     7  C    0.005457  -0.076200  -0.024597  -0.024530   0.433987   0.433911
     8  H   -0.005340  -0.043376   0.398013   0.009551  -0.023363  -0.001267
     9  H   -0.005309  -0.043391   0.009582   0.398032  -0.001277  -0.023401
    10  H   -0.000504   0.014845  -0.042294  -0.001289   0.411558   0.013178
    11  H   -0.000505   0.014851  -0.001288  -0.042313   0.013179   0.411573
    12  H   -0.000029  -0.006531   0.020645   0.020647  -0.057553  -0.057564
    13  C    0.191521  -0.148330   0.039441  -0.003491  -0.001000  -0.005488
    14  C   -0.004006   0.039336  -0.050249   0.012693  -0.003443   0.003021
    15  C   -0.004619  -0.003905   0.012811  -0.008811   0.000180  -0.000266
    16  C    0.009445  -0.000896  -0.003467   0.000179   0.000000   0.000056
    17  C    0.009456  -0.005437   0.003006  -0.000262   0.000055  -0.000031
    18  C    0.005460   0.003484  -0.001864   0.000081  -0.000126   0.000015
    19  H   -0.005280  -0.000980  -0.000441  -0.000140  -0.001852   0.000108
    20  H   -0.005344  -0.001472   0.000489  -0.000265  -0.000008  -0.000003
    21  H   -0.000506  -0.000192  -0.000040  -0.000029   0.000021   0.000000
    22  H   -0.000505  -0.000041   0.000003   0.000001  -0.000000   0.000000
    23  H   -0.000029   0.000019  -0.000016   0.000001  -0.000001  -0.000000
    24  C    0.191494  -0.148348  -0.003695   0.039336  -0.005449  -0.000959
    25  C   -0.004562   0.039411   0.012795  -0.050187   0.003003  -0.003470
    26  C   -0.004072  -0.003646  -0.008826   0.012717  -0.000264   0.000183
    27  C    0.009445  -0.000958   0.000187  -0.003456   0.000055  -0.000005
    28  C    0.009449  -0.005483  -0.000262   0.003014  -0.000031   0.000055
    29  C    0.005461   0.003516   0.000081  -0.001868   0.000015  -0.000125
    30  H   -0.005315  -0.000919  -0.000140  -0.000467   0.000112  -0.001854
    31  H   -0.005306  -0.001446  -0.000266   0.000483  -0.000003  -0.000008
    32  H   -0.000505  -0.000192  -0.000029  -0.000041   0.000000   0.000021
    33  H   -0.000506  -0.000041   0.000001   0.000003   0.000000  -0.000000
    34  H   -0.000029   0.000019   0.000001  -0.000016  -0.000000  -0.000001
               7          8          9         10         11         12
     1  N    0.005457  -0.005340  -0.005309  -0.000504  -0.000505  -0.000029
     2  C   -0.076200  -0.043376  -0.043391   0.014845   0.014851  -0.006531
     3  C   -0.024597   0.398013   0.009582  -0.042294  -0.001288   0.020645
     4  C   -0.024530   0.009551   0.398032  -0.001289  -0.042313   0.020647
     5  C    0.433987  -0.023363  -0.001277   0.411558   0.013179  -0.057553
     6  C    0.433911  -0.001267  -0.023401   0.013178   0.411573  -0.057564
     7  C    4.970977   0.007681   0.007695  -0.050971  -0.050983   0.425386
     8  H    0.007681   0.480720  -0.000100  -0.005460   0.000008  -0.000040
     9  H    0.007695  -0.000100   0.480742   0.000008  -0.005462  -0.000040
    10  H   -0.050971  -0.005460   0.000008   0.514534  -0.000106  -0.006276
    11  H   -0.050983   0.000008  -0.005462  -0.000106   0.514539  -0.006276
    12  H    0.425386  -0.000040  -0.000040  -0.006276  -0.006276   0.511168
    13  C    0.003527  -0.000851  -0.001441  -0.000192  -0.000041   0.000019
    14  C   -0.001873  -0.000488   0.000479  -0.000041   0.000003  -0.000016
    15  C    0.000084  -0.000148  -0.000266  -0.000029   0.000001   0.000001
    16  C   -0.000126  -0.001853  -0.000008   0.000021  -0.000000  -0.000001
    17  C    0.000015   0.000115  -0.000003   0.000000   0.000000  -0.000000
    18  C   -0.000013   0.000659  -0.000000  -0.000000   0.000000  -0.000000
    19  H    0.000661   0.001124  -0.000003  -0.000039  -0.000003   0.000004
    20  H   -0.000000  -0.000002  -0.000002  -0.000000  -0.000000   0.000000
    21  H   -0.000000  -0.000038  -0.000000   0.000000  -0.000000  -0.000000
    22  H    0.000000  -0.000002  -0.000000  -0.000000  -0.000000  -0.000000
    23  H   -0.000000   0.000004   0.000000  -0.000000  -0.000000  -0.000000
    24  C    0.003495  -0.001467  -0.000904  -0.000041  -0.000192   0.000019
    25  C   -0.001857   0.000488  -0.000449   0.000003  -0.000041  -0.000016
    26  C    0.000081  -0.000266  -0.000155   0.000001  -0.000029   0.000001
    27  C   -0.000125  -0.000008  -0.001849  -0.000000   0.000021  -0.000001
    28  C    0.000015  -0.000003   0.000111   0.000000   0.000000  -0.000000
    29  C   -0.000013  -0.000000   0.000660   0.000000  -0.000000  -0.000000
    30  H    0.000660  -0.000003   0.001124  -0.000002  -0.000039   0.000004
    31  H   -0.000000  -0.000002  -0.000002  -0.000000  -0.000000   0.000000
    32  H   -0.000000  -0.000000  -0.000039  -0.000000   0.000000  -0.000000
    33  H    0.000000  -0.000000  -0.000002  -0.000000  -0.000000  -0.000000
    34  H   -0.000000   0.000000   0.000004  -0.000000  -0.000000  -0.000000
              13         14         15         16         17         18
     1  N    0.191521  -0.004006  -0.004619   0.009445   0.009456   0.005460
     2  C   -0.148330   0.039336  -0.003905  -0.000896  -0.005437   0.003484
     3  C    0.039441  -0.050249   0.012811  -0.003467   0.003006  -0.001864
     4  C   -0.003491   0.012693  -0.008811   0.000179  -0.000262   0.000081
     5  C   -0.001000  -0.003443   0.000180   0.000000   0.000055  -0.000126
     6  C   -0.005488   0.003021  -0.000266   0.000056  -0.000031   0.000015
     7  C    0.003527  -0.001873   0.000084  -0.000126   0.000015  -0.000013
     8  H   -0.000851  -0.000488  -0.000148  -0.001853   0.000115   0.000659
     9  H   -0.001441   0.000479  -0.000266  -0.000008  -0.000003  -0.000000
    10  H   -0.000192  -0.000041  -0.000029   0.000021   0.000000  -0.000000
    11  H   -0.000041   0.000003   0.000001  -0.000000   0.000000   0.000000
    12  H    0.000019  -0.000016   0.000001  -0.000001  -0.000000  -0.000000
    13  C    5.623255   0.298452   0.299252   0.023029   0.023063  -0.076305
    14  C    0.298452   5.222015  -0.032028   0.377477  -0.133852  -0.024488
    15  C    0.299252  -0.032028   5.221009  -0.133844   0.377614  -0.024561
    16  C    0.023029   0.377477  -0.133844   5.030150   0.032946   0.433792
    17  C    0.023063  -0.133852   0.377614   0.032946   5.030076   0.433850
    18  C   -0.076305  -0.024488  -0.024561   0.433792   0.433850   4.971233
    19  H   -0.043465   0.398146   0.009605  -0.023459  -0.001285   0.007713
    20  H   -0.043407   0.009588   0.398128  -0.001279  -0.023498   0.007700
    21  H    0.014866  -0.042321  -0.001286   0.411578   0.013181  -0.051007
    22  H    0.014847  -0.001285  -0.042291   0.013184   0.411563  -0.050998
    23  H   -0.006530   0.020644   0.020641  -0.057555  -0.057547   0.425387
    24  C   -0.148790  -0.003506   0.039586  -0.005510  -0.001029   0.003535
    25  C   -0.003704  -0.008829   0.012708  -0.000262   0.000186   0.000081
    26  C    0.039493   0.012635  -0.050180   0.003027  -0.003422  -0.001875
    27  C   -0.005481  -0.000261   0.003020  -0.000031   0.000055   0.000015
    28  C   -0.000999   0.000183  -0.003436   0.000055   0.000000  -0.000125
    29  C    0.003511   0.000080  -0.001870   0.000015  -0.000125  -0.000013
    30  H   -0.001474  -0.000266   0.000493  -0.000003  -0.000008  -0.000000
    31  H   -0.000920  -0.000155  -0.000434   0.000108  -0.001851   0.000661
    32  H   -0.000041   0.000001   0.000003   0.000000  -0.000000   0.000000
    33  H   -0.000193  -0.000029  -0.000039   0.000000   0.000021  -0.000000
    34  H    0.000019   0.000001  -0.000016  -0.000000  -0.000001  -0.000000
              19         20         21         22         23         24
     1  N   -0.005280  -0.005344  -0.000506  -0.000505  -0.000029   0.191494
     2  C   -0.000980  -0.001472  -0.000192  -0.000041   0.000019  -0.148348
     3  C   -0.000441   0.000489  -0.000040   0.000003  -0.000016  -0.003695
     4  C   -0.000140  -0.000265  -0.000029   0.000001   0.000001   0.039336
     5  C   -0.001852  -0.000008   0.000021  -0.000000  -0.000001  -0.005449
     6  C    0.000108  -0.000003   0.000000   0.000000  -0.000000  -0.000959
     7  C    0.000661  -0.000000  -0.000000   0.000000  -0.000000   0.003495
     8  H    0.001124  -0.000002  -0.000038  -0.000002   0.000004  -0.001467
     9  H   -0.000003  -0.000002  -0.000000  -0.000000   0.000000  -0.000904
    10  H   -0.000039  -0.000000   0.000000  -0.000000  -0.000000  -0.000041
    11  H   -0.000003  -0.000000  -0.000000  -0.000000  -0.000000  -0.000192
    12  H    0.000004   0.000000  -0.000000  -0.000000  -0.000000   0.000019
    13  C   -0.043465  -0.043407   0.014866   0.014847  -0.006530  -0.148790
    14  C    0.398146   0.009588  -0.042321  -0.001285   0.020644  -0.003506
    15  C    0.009605   0.398128  -0.001286  -0.042291   0.020641   0.039586
    16  C   -0.023459  -0.001279   0.411578   0.013184  -0.057555  -0.005510
    17  C   -0.001285  -0.023498   0.013181   0.411563  -0.057547  -0.001029
    18  C    0.007713   0.007700  -0.051007  -0.050998   0.425387   0.003535
    19  H    0.480853  -0.000099  -0.005467   0.000008  -0.000040  -0.001449
    20  H   -0.000099   0.480907   0.000008  -0.005461  -0.000040  -0.000863
    21  H   -0.005467   0.000008   0.514575  -0.000106  -0.006275  -0.000042
    22  H    0.000008  -0.005461  -0.000106   0.514560  -0.006277  -0.000194
    23  H   -0.000040  -0.000040  -0.006275  -0.006277   0.511167   0.000019
    24  C   -0.001449  -0.000863  -0.000042  -0.000194   0.000019   5.623076
    25  C   -0.000266  -0.000153   0.000001  -0.000029   0.000001   0.299177
    26  C    0.000486  -0.000470   0.000003  -0.000039  -0.000016   0.298825
    27  C   -0.000003   0.000114   0.000000   0.000000  -0.000000   0.022955
    28  C   -0.000008  -0.001852  -0.000000   0.000021  -0.000001   0.022966
    29  C   -0.000000   0.000659   0.000000  -0.000000  -0.000000  -0.076240
    30  H   -0.000002  -0.000002  -0.000000  -0.000000   0.000000  -0.043423
    31  H   -0.000002   0.001122  -0.000003  -0.000039   0.000004  -0.043430
    32  H   -0.000000  -0.000002  -0.000000  -0.000000  -0.000000   0.014842
    33  H   -0.000000  -0.000039  -0.000000   0.000000  -0.000000   0.014856
    34  H    0.000000   0.000004  -0.000000  -0.000000  -0.000000  -0.006531
              25         26         27         28         29         30
     1  N   -0.004562  -0.004072   0.009445   0.009449   0.005461  -0.005315
     2  C    0.039411  -0.003646  -0.000958  -0.005483   0.003516  -0.000919
     3  C    0.012795  -0.008826   0.000187  -0.000262   0.000081  -0.000140
     4  C   -0.050187   0.012717  -0.003456   0.003014  -0.001868  -0.000467
     5  C    0.003003  -0.000264   0.000055  -0.000031   0.000015   0.000112
     6  C   -0.003470   0.000183  -0.000005   0.000055  -0.000125  -0.001854
     7  C   -0.001857   0.000081  -0.000125   0.000015  -0.000013   0.000660
     8  H    0.000488  -0.000266  -0.000008  -0.000003  -0.000000  -0.000003
     9  H   -0.000449  -0.000155  -0.001849   0.000111   0.000660   0.001124
    10  H    0.000003   0.000001  -0.000000   0.000000   0.000000  -0.000002
    11  H   -0.000041  -0.000029   0.000021   0.000000  -0.000000  -0.000039
    12  H   -0.000016   0.000001  -0.000001  -0.000000  -0.000000   0.000004
    13  C   -0.003704   0.039493  -0.005481  -0.000999   0.003511  -0.001474
    14  C   -0.008829   0.012635  -0.000261   0.000183   0.000080  -0.000266
    15  C    0.012708  -0.050180   0.003020  -0.003436  -0.001870   0.000493
    16  C   -0.000262   0.003027  -0.000031   0.000055   0.000015  -0.000003
    17  C    0.000186  -0.003422   0.000055   0.000000  -0.000125  -0.000008
    18  C    0.000081  -0.001875   0.000015  -0.000125  -0.000013  -0.000000
    19  H   -0.000266   0.000486  -0.000003  -0.000008  -0.000000  -0.000002
    20  H   -0.000153  -0.000470   0.000114  -0.001852   0.000659  -0.000002
    21  H    0.000001   0.000003   0.000000  -0.000000   0.000000  -0.000000
    22  H   -0.000029  -0.000039   0.000000   0.000021  -0.000000  -0.000000
    23  H    0.000001  -0.000016  -0.000000  -0.000001  -0.000000   0.000000
    24  C    0.299177   0.298825   0.022955   0.022966  -0.076240  -0.043423
    25  C    5.221507  -0.032141   0.377644  -0.133763  -0.024638   0.398115
    26  C   -0.032141   5.221118  -0.133759   0.377655  -0.024550   0.009577
    27  C    0.377644  -0.133759   5.029964   0.032923   0.433920  -0.023431
    28  C   -0.133763   0.377655   0.032923   5.030082   0.433790  -0.001274
    29  C   -0.024638  -0.024550   0.433920   0.433790   4.971246   0.007692
    30  H    0.398115   0.009577  -0.023431  -0.001274   0.007692   0.480831
    31  H    0.009598   0.398151  -0.001283  -0.023504   0.007710  -0.000099
    32  H   -0.042286  -0.001284   0.411550   0.013179  -0.050986  -0.005458
    33  H   -0.001282  -0.042305   0.013179   0.411568  -0.051006   0.000008
    34  H    0.020644   0.020641  -0.057548  -0.057555   0.425385  -0.000040
              31         32         33         34
     1  N   -0.005306  -0.000505  -0.000506  -0.000029
     2  C   -0.001446  -0.000192  -0.000041   0.000019
     3  C   -0.000266  -0.000029   0.000001   0.000001
     4  C    0.000483  -0.000041   0.000003  -0.000016
     5  C   -0.000003   0.000000   0.000000  -0.000000
     6  C   -0.000008   0.000021  -0.000000  -0.000001
     7  C   -0.000000  -0.000000   0.000000  -0.000000
     8  H   -0.000002  -0.000000  -0.000000   0.000000
     9  H   -0.000002  -0.000039  -0.000002   0.000004
    10  H   -0.000000  -0.000000  -0.000000  -0.000000
    11  H   -0.000000   0.000000  -0.000000  -0.000000
    12  H    0.000000  -0.000000  -0.000000  -0.000000
    13  C   -0.000920  -0.000041  -0.000193   0.000019
    14  C   -0.000155   0.000001  -0.000029   0.000001
    15  C   -0.000434   0.000003  -0.000039  -0.000016
    16  C    0.000108   0.000000   0.000000  -0.000000
    17  C   -0.001851  -0.000000   0.000021  -0.000001
    18  C    0.000661   0.000000  -0.000000  -0.000000
    19  H   -0.000002  -0.000000  -0.000000   0.000000
    20  H    0.001122  -0.000002  -0.000039   0.000004
    21  H   -0.000003  -0.000000  -0.000000  -0.000000
    22  H   -0.000039  -0.000000   0.000000  -0.000000
    23  H    0.000004  -0.000000  -0.000000  -0.000000
    24  C   -0.043430   0.014842   0.014856  -0.006531
    25  C    0.009598  -0.042286  -0.001282   0.020644
    26  C    0.398151  -0.001284  -0.042305   0.020641
    27  C   -0.001283   0.411550   0.013179  -0.057548
    28  C   -0.023504   0.013179   0.411568  -0.057555
    29  C    0.007710  -0.050986  -0.051006   0.425385
    30  H   -0.000099  -0.005458   0.000008  -0.000040
    31  H    0.480914   0.000008  -0.005462  -0.000040
    32  H    0.000008   0.514558  -0.000106  -0.006277
    33  H   -0.005462  -0.000106   0.514562  -0.006276
    34  H   -0.000040  -0.006277  -0.006276   0.511179
          Atomic-Atomic Spin Densities.
               1          2          3          4          5          6
     1  N    0.636700  -0.076394  -0.004850  -0.004870   0.002173   0.002177
     2  C   -0.076394  -0.041251   0.021685   0.021706  -0.004459  -0.004458
     3  C   -0.004850   0.021685   0.113821   0.005873  -0.007337  -0.002118
     4  C   -0.004870   0.021706   0.005873   0.113887  -0.002122  -0.007318
     5  C    0.002173  -0.004459  -0.007337  -0.002122  -0.054216  -0.002980
     6  C    0.002177  -0.004458  -0.002118  -0.007318  -0.002980  -0.054272
     7  C   -0.000033  -0.007837  -0.002376  -0.002393   0.004429   0.004428
     8  H    0.000819  -0.003445   0.003229   0.000018   0.000975  -0.000315
     9  H    0.000821  -0.003448   0.000009   0.003235  -0.000313   0.000986
    10  H   -0.000001   0.000738   0.000215  -0.000202  -0.000158   0.000076
    11  H   -0.000001   0.000734  -0.000202   0.000222   0.000075  -0.000165
[...]
 Charge=              1.0000 electrons
 Dipole moment (field-independent basis, Debye):
    X=             -0.0011    Y=              0.0023    Z=              0.0006  Tot=              0.0027
 Quadrupole moment (field-independent basis, Debye-Ang):
   XX=            -67.6518   YY=            -67.6583   ZZ=           -102.9605
   XY=              0.0019   XZ=              0.0005   YZ=             -0.0003
 Traceless Quadrupole moment (field-independent basis, Debye-Ang):
   XX=             11.7717   YY=             11.7653   ZZ=            -23.5370
   XY=              0.0019   XZ=              0.0005   YZ=             -0.0003
 Octapole moment (field-independent basis, Debye-Ang**2):
  XXX=             50.7370  YYY=             41.8010  ZZZ=             -0.0079  XYY=            -50.7760
  XXY=            -41.6926  XXZ=              0.0202  XZZ=              0.0169  YZZ=             -0.0588
  YYZ=              0.0328  XYZ=              0.0128
 Hexadecapole moment (field-independent basis, Debye-Ang**3):
 XXXX=          -2467.4987 YYYY=          -2467.2514 ZZZZ=           -435.6702 XXXY=             -0.1434
 XXXZ=             69.1998 YYYX=              0.0963 YYYZ=            -84.3004 ZZZX=              0.0773
 ZZZY=              0.0271 XXYY=           -822.3795 XXZZ=           -563.6367 YYZZ=           -563.7754
 XXYZ=             84.2454 YYXZ=            -69.3154 ZZXY=              0.0499
 N-N= 1.298220548022D+03 E-N=-4.316603975642D+03  KE= 7.453344824776D+02
                          Isotropic Fermi Contact Couplings
        Atom                 a.u.       MegaHertz       Gauss      10(-4) cm-1
     1  N(14)              0.04253      13.74107       4.90315       4.58353
     2  C(13)             -0.01766     -19.84914      -7.08267      -6.62096
     3  C(13)              0.00607       6.82781       2.43633       2.27751
     4  C(13)              0.00608       6.83509       2.43893       2.27994
     5  C(13)             -0.00594      -6.67498      -2.38180      -2.22653
     6  C(13)             -0.00594      -6.67658      -2.38237      -2.22707
     7  C(13)              0.00410       4.61178       1.64560       1.53833
     8  H(1)              -0.00132      -5.89691      -2.10416      -1.96700
     9  H(1)              -0.00132      -5.89769      -2.10444      -1.96726
    10  H(1)               0.00090       4.01827       1.43382       1.34035
    11  H(1)               0.00090       4.01540       1.43280       1.33939
    12  H(1)              -0.00188      -8.41771      -3.00365      -2.80784
    13  C(13)             -0.01765     -19.83644      -7.07813      -6.61672
    14  C(13)              0.00609       6.85053       2.44444       2.28509
    15  C(13)              0.00609       6.84923       2.44397       2.28466
    16  C(13)             -0.00592      -6.65785      -2.37569      -2.22082
    17  C(13)             -0.00592      -6.65414      -2.37436      -2.21958
    18  C(13)              0.00409       4.59943       1.64119       1.53420
    19  H(1)              -0.00132      -5.88522      -2.09999      -1.96310
    20  H(1)              -0.00132      -5.88715      -2.10068      -1.96374
    21  H(1)               0.00090       4.01512       1.43269       1.33930
    22  H(1)               0.00090       4.01429       1.43240       1.33902
    23  H(1)              -0.00188      -8.39679      -2.99618      -2.80087
    24  C(13)             -0.01764     -19.83380      -7.07719      -6.61584
    25  C(13)              0.00609       6.84407       2.44213       2.28293
    26  C(13)              0.00610       6.85765       2.44698       2.28746
    27  C(13)             -0.00592      -6.65470      -2.37456      -2.21977
    28  C(13)             -0.00592      -6.65340      -2.37410      -2.21933
    29  C(13)              0.00409       4.59826       1.64077       1.53381
    30  H(1)              -0.00132      -5.88172      -2.09874      -1.96193
    31  H(1)              -0.00132      -5.88591      -2.10024      -1.96333
    32  H(1)               0.00090       4.01515       1.43271       1.33931
    33  H(1)               0.00090       4.01215       1.43164       1.33831
    34  H(1)              -0.00188      -8.39349      -2.99500      -2.79977
 --------------------------------------------------------
       Center         ----  Spin Dipole Couplings  ----
                      3XX-RR        3YY-RR        3ZZ-RR
 --------------------------------------------------------
     1   Atom       -0.541839     -0.541843      1.083682
     2   Atom       -0.020222      0.011351      0.008871
     3   Atom        0.060268     -0.058856     -0.001411
     4   Atom        0.038961     -0.037573     -0.001389
     5   Atom       -0.001612      0.022969     -0.021357
     6   Atom       -0.003919      0.025280     -0.021360
     7   Atom       -0.003921     -0.062753      0.066674
     8   Atom        0.001340     -0.001705      0.000365
     9   Atom        0.002776     -0.003144      0.000368
    10   Atom       -0.001149      0.002142     -0.000993
    11   Atom       -0.000472      0.001465     -0.000993
    12   Atom       -0.004829      0.009108     -0.004279
    13   Atom       -0.005654     -0.003280      0.008934
    14   Atom        0.023942     -0.022138     -0.001804
    15   Atom       -0.014527      0.016350     -0.001822
    16   Atom        0.011625      0.009543     -0.021168
    17   Atom        0.007464      0.013719     -0.021182
    18   Atom       -0.030805     -0.035267      0.066071
    19   Atom       -0.001285      0.000904      0.000381
    20   Atom        0.001264     -0.001638      0.000375
    21   Atom       -0.000213      0.001199     -0.000986
    22   Atom        0.000994     -0.000009     -0.000986
    23   Atom        0.001597      0.002690     -0.004288
    24   Atom        0.012514     -0.021455      0.008941
    25   Atom       -0.043307      0.045151     -0.001844
    26   Atom       -0.060367      0.062164     -0.001798
    27   Atom        0.026031     -0.004857     -0.021174
    28   Atom        0.024184     -0.003016     -0.021168
    29   Atom       -0.064808     -0.001260      0.066069
    30   Atom       -0.003158      0.002779      0.000379
    31   Atom       -0.002033      0.001658      0.000374
    32   Atom        0.001635     -0.000650     -0.000985
    33   Atom        0.002171     -0.001185     -0.000986
    34   Atom        0.009632     -0.005347     -0.004286
 --------------------------------------------------------
                        XY            XZ            YZ
 --------------------------------------------------------
     1   Atom       -0.000001     -0.000162     -0.000001
     2   Atom       -0.010479     -0.011640     -0.003422
     3   Atom        0.016667      0.081784      0.015589
     4   Atom        0.048575      0.076728      0.032424
     5   Atom       -0.010694     -0.032024     -0.012866
     6   Atom       -0.007242     -0.033801     -0.007061
     7   Atom        0.019610      0.100723      0.030504
     8   Atom        0.002575     -0.004865     -0.003561
     9   Atom        0.000429     -0.006024      0.000254
    10   Atom       -0.000365     -0.001267     -0.000958
    11   Atom       -0.001380     -0.001586      0.000096
    12   Atom       -0.004657      0.003979      0.001211
    13   Atom        0.018936      0.008749     -0.008340
    14   Atom       -0.057473     -0.066203      0.050012
    15   Atom       -0.059968     -0.054150      0.062791
    16   Atom        0.016317      0.022991     -0.025712
    17   Atom        0.016027      0.027107     -0.021278
    18   Atom       -0.035405     -0.076633      0.071936
    19   Atom       -0.002762      0.002800     -0.005333
    20   Atom       -0.002593      0.005508     -0.002439
    21   Atom        0.001532      0.000708     -0.001418
    22   Atom        0.001608      0.001460     -0.000617
    23   Atom        0.008336     -0.003038      0.002833
    24   Atom       -0.008437      0.002838      0.011738
    25   Atom        0.043338     -0.027285     -0.078282
    26   Atom        0.008774     -0.010207     -0.082301
    27   Atom       -0.005301      0.004866      0.034112
    28   Atom       -0.009057      0.010764      0.032751
    29   Atom        0.015716     -0.023912     -0.102301
    30   Atom        0.000037     -0.000639      0.005988
    31   Atom        0.002327      0.003219      0.005090
    32   Atom       -0.001239     -0.000195      0.001572
    33   Atom       -0.000155      0.000874      0.001322
    34   Atom       -0.003695     -0.000941     -0.004044
 --------------------------------------------------------


 ---------------------------------------------------------------------------------
              Anisotropic Spin Dipole Couplings in Principal Axis System
 ---------------------------------------------------------------------------------

       Atom             a.u.   MegaHertz   Gauss  10(-4) cm-1        Axes

              Baa    -0.5418   -20.898    -7.457    -6.971  0.2446  0.9696  0.0000
     1 N(14)  Bbb    -0.5418   -20.898    -7.457    -6.971  0.9696 -0.2446  0.0001
              Bcc     1.0837    41.795    14.914    13.941 -0.0001 -0.0000  1.0000
 
              Baa    -0.0274    -3.682    -1.314    -1.228  0.9082  0.2733  0.3169
     2 C(13)  Bbb     0.0129     1.734     0.619     0.578 -0.2883 -0.1403  0.9472
              Bcc     0.0145     1.948     0.695     0.650 -0.3034  0.9516  0.0486
 
              Baa    -0.0636    -8.541    -3.048    -2.849  0.1989  0.8567 -0.4760
     3 C(13)  Bbb    -0.0560    -7.520    -2.683    -2.508 -0.5448  0.5004  0.6729
              Bcc     0.1197    16.061     5.731     5.357  0.8146  0.1255  0.5663
 
              Baa    -0.0637    -8.543    -3.048    -2.849  0.6413 -0.6008 -0.4773
     4 C(13)  Bbb    -0.0561    -7.523    -2.684    -2.509  0.1744  0.7199 -0.6718
              Bcc     0.1197    16.065     5.732     5.359  0.7472  0.3475  0.5665
 
              Baa    -0.0489    -6.559    -2.340    -2.188  0.5809  0.2265  0.7818
     5 C(13)  Bbb     0.0219     2.932     1.046     0.978  0.7642  0.1789 -0.6197
              Bcc     0.0270     3.627     1.294     1.210 -0.2802  0.9574 -0.0691
 
              Baa    -0.0489    -6.562    -2.342    -2.189  0.6090  0.1339  0.7818
     6 C(13)  Bbb     0.0219     2.934     1.047     0.979  0.7346  0.2766 -0.6196
              Bcc     0.0270     3.628     1.295     1.210 -0.2992  0.9516  0.0701
 
              Baa    -0.0757   -10.165    -3.627    -3.391  0.7696  0.2337 -0.5943
     7 C(13)  Bbb    -0.0687    -9.218    -3.289    -3.075 -0.2903  0.9569  0.0004
              Bcc     0.1444    19.382     6.916     6.465  0.5688  0.1722  0.8043
 
              Baa    -0.0047    -2.513    -0.897    -0.838  0.3488  0.5765  0.7389
     8 H(1)   Bbb    -0.0030    -1.604    -0.572    -0.535 -0.6736  0.7024 -0.2301
              Bcc     0.0077     4.118     1.469     1.374  0.6517  0.4174 -0.6333
 
              Baa    -0.0047    -2.514    -0.897    -0.838  0.6105 -0.2867  0.7383
     9 H(1)   Bbb    -0.0030    -1.604    -0.572    -0.535  0.1700  0.9579  0.2314
              Bcc     0.0077     4.118     1.469     1.374  0.7736  0.0158 -0.6335
 
              Baa    -0.0025    -1.347    -0.481    -0.449  0.6918  0.1967  0.6947
    10 H(1)   Bbb     0.0001     0.061     0.022     0.020  0.7220 -0.1849 -0.6667
              Bcc     0.0024     1.287     0.459     0.429 -0.0027  0.9629 -0.2700
 
              Baa    -0.0025    -1.347    -0.481    -0.449  0.6846  0.2200  0.6950
    11 H(1)   Bbb     0.0001     0.060     0.021     0.020 -0.4980 -0.5550  0.6663
              Bcc     0.0024     1.288     0.459     0.430 -0.5323  0.8022  0.2704
 
              Baa    -0.0095    -5.087    -1.815    -1.697  0.7503  0.2278 -0.6206
    12 H(1)   Bbb    -0.0010    -0.527    -0.188    -0.176  0.5940  0.1800  0.7841
              Bcc     0.0105     5.614     2.003     1.872 -0.2903  0.9569  0.0003
 
              Baa    -0.0275    -3.684    -1.315    -1.229  0.6913 -0.6502 -0.3152
    13 C(13)  Bbb     0.0129     1.737     0.620     0.579  0.2666 -0.1760  0.9476
              Bcc     0.0145     1.947     0.695     0.650  0.6716  0.7391 -0.0517
 
              Baa    -0.0635    -8.527    -3.043    -2.844  0.1993  0.8550 -0.4788
    14 C(13)  Bbb    -0.0559    -7.505    -2.678    -2.504  0.7094  0.2112  0.6724
              Bcc     0.1195    16.033     5.721     5.348  0.6761 -0.4737 -0.5644
 
              Baa    -0.0635    -8.525    -3.042    -2.844  0.8406  0.2559  0.4773
    15 C(13)  Bbb    -0.0559    -7.501    -2.677    -2.502  0.1631  0.7208 -0.6737
              Bcc     0.1194    16.026     5.719     5.346 -0.5164  0.6442  0.5642
 
              Baa    -0.0488    -6.549    -2.337    -2.185 -0.4216  0.4618  0.7804
    16 C(13)  Bbb     0.0218     2.927     1.044     0.976  0.6047 -0.4981  0.6215
              Bcc     0.0270     3.622     1.292     1.208  0.6757  0.7339 -0.0692
 
              Baa    -0.0488    -6.545    -2.335    -2.183 -0.4877  0.3909  0.7806
    17 C(13)  Bbb     0.0218     2.925     1.044     0.976  0.5375 -0.5702  0.6213
              Bcc     0.0270     3.620     1.292     1.207  0.6879  0.7226  0.0680
 
              Baa    -0.0756   -10.140    -3.618    -3.382  0.5862 -0.5488  0.5959
    18 C(13)  Bbb    -0.0685    -9.194    -3.280    -3.067  0.6838  0.7297 -0.0007
              Bcc     0.1441    19.333     6.899     6.449 -0.4345  0.4079  0.8030
 
              Baa    -0.0047    -2.510    -0.896    -0.837 -0.0623  0.6715  0.7384
    19 H(1)   Bbb    -0.0030    -1.599    -0.571    -0.533  0.9141  0.3355 -0.2280
              Bcc     0.0077     4.109     1.466     1.371 -0.4008  0.6607 -0.6347
 
              Baa    -0.0047    -2.511    -0.896    -0.838 -0.6737  0.0179  0.7388
    20 H(1)   Bbb    -0.0030    -1.598    -0.570    -0.533  0.2745  0.9343  0.2277
              Bcc     0.0077     4.109     1.466     1.371  0.6861 -0.3562  0.6343
 
              Baa    -0.0025    -1.345    -0.480    -0.449 -0.5340  0.4840  0.6932
    21 H(1)   Bbb     0.0001     0.060     0.021     0.020  0.7277 -0.1543  0.6683
              Bcc     0.0024     1.285     0.459     0.429  0.4304  0.8613 -0.2698
 
              Baa    -0.0025    -1.345    -0.480    -0.449 -0.5174  0.5015  0.6934
    22 H(1)   Bbb     0.0001     0.062     0.022     0.021 -0.2011  0.7163 -0.6682
              Bcc     0.0024     1.284     0.458     0.428  0.8318  0.4852  0.2697
 
              Baa    -0.0095    -5.075    -1.811    -1.693  0.5715 -0.5349  0.6223
    23 H(1)   Bbb    -0.0010    -0.526    -0.188    -0.175 -0.4538  0.4259  0.7828
              Bcc     0.0105     5.601     1.999     1.868  0.6837  0.7298 -0.0006
 
              Baa    -0.0274    -3.683    -1.314    -1.228  0.2174  0.9238 -0.3150
    24 C(13)  Bbb     0.0129     1.737     0.620     0.579  0.0236  0.3177  0.9479
              Bcc     0.0145     1.946     0.694     0.649  0.9758 -0.2136  0.0472
 
              Baa    -0.0635    -8.524    -3.041    -2.843  0.6417 -0.6000 -0.4777
    25 C(13)  Bbb    -0.0559    -7.501    -2.676    -2.502  0.7061  0.2189  0.6734
              Bcc     0.1194    16.024     5.718     5.345  0.2995  0.7694 -0.5641
 
              Baa    -0.0635    -8.524    -3.042    -2.843  0.8402  0.2548  0.4787
    26 C(13)  Bbb    -0.0559    -7.501    -2.677    -2.502 -0.5375  0.5088  0.6725
              Bcc     0.1194    16.025     5.718     5.345  0.0722  0.8223 -0.5644
 
              Baa    -0.0488    -6.544    -2.335    -2.183 -0.0946 -0.6179  0.7806
    27 C(13)  Bbb     0.0218     2.924     1.044     0.975  0.2253  0.7505  0.6213
              Bcc     0.0270     3.619     1.291     1.207  0.9697 -0.2346 -0.0682
 
              Baa    -0.0488    -6.546    -2.336    -2.184 -0.1891 -0.5959  0.7805
    28 C(13)  Bbb     0.0218     2.926     1.044     0.976  0.1298  0.7727  0.6214
              Bcc     0.0270     3.620     1.292     1.208  0.9733 -0.2188  0.0687
 
              Baa    -0.0755   -10.136    -3.617    -3.381  0.1824  0.7821  0.5958
    29 C(13)  Bbb    -0.0685    -9.190    -3.279    -3.065  0.9738 -0.2273  0.0003
              Bcc     0.1440    19.325     6.896     6.446 -0.1356 -0.5802  0.8031
 
              Baa    -0.0047    -2.509    -0.895    -0.837  0.3199 -0.5930  0.7389
    30 H(1)   Bbb    -0.0030    -1.599    -0.570    -0.533  0.9468  0.2286 -0.2264
              Bcc     0.0077     4.108     1.466     1.370 -0.0347  0.7721  0.6346
 
              Baa    -0.0047    -2.511    -0.896    -0.838 -0.5501 -0.3895  0.7387
    31 H(1)   Bbb    -0.0030    -1.597    -0.570    -0.533  0.7477 -0.6236  0.2280
              Bcc     0.0077     4.108     1.466     1.370  0.3719  0.6777  0.6343
 
              Baa    -0.0025    -1.345    -0.480    -0.449  0.1758  0.6989 -0.6933
    32 H(1)   Bbb     0.0001     0.061     0.022     0.020  0.5196  0.5323  0.6684
              Bcc     0.0024     1.284     0.458     0.428  0.8361 -0.4777 -0.2696
 
              Baa    -0.0025    -1.345    -0.480    -0.449  0.1524  0.7042 -0.6935
    33 H(1)   Bbb     0.0001     0.060     0.022     0.020 -0.2302  0.7077  0.6680
              Bcc     0.0024     1.284     0.458     0.428  0.9611  0.0579  0.2700
 
              Baa    -0.0095    -5.073    -1.810    -1.692  0.1777  0.7624  0.6222
    34 H(1)   Bbb    -0.0010    -0.526    -0.188    -0.175 -0.1415 -0.6059  0.7828
              Bcc     0.0105     5.599     1.998     1.868  0.9738 -0.2272  0.0002
 

 ---------------------------------------------------------------------------------

 No NMR shielding tensors so no spin-rotation constants.
 Leave Link  601 at Sun Jan 17 21:25:38 2021, MaxMem=  4026531840 cpu:               5.9 elap:               0.9
 (Enter /opt/ohpc/pub/libs/gaussian/g16-A.03/sandybridge/g16/l9999.exe)

 Test job not archived.
 1\1\GINC-CASCADEB040\SP\ULC-wHPBE\TZVP\C18H15N1(1+,2)\RDU230\17-Jan-20
 21\0\\#P LC-wHPBE/TZVP iop(3/107=0196600000, 3/108=0196600000) scf=(co
 nver=6,fermi,ndamp=35,noincfock,novaracc,vshift=500,xqc)\\H15 C18 N1\\
 1,2\N,0,0.000022,-0.000126,-0.001279\C,0,0.411521,-1.356839,-0.000484\
 C,0,1.495533,-1.769287,0.781179\C,0,-0.26032,-2.302689,-0.781717\C,0,1
 .901218,-3.097977,0.77159\C,0,0.140608,-3.632811,-0.770872\C,0,1.22528
 2,-4.03895,0.000666\H,0,2.020108,-1.039002,1.394849\H,0,-1.101816,-1.9
 87296,-1.396157\H,0,2.748094,-3.402056,1.385878\H,0,-0.394485,-4.35669
 ,-1.384611\H,0,1.541424,-5.08084,0.001027\C,0,0.969124,1.03471,-0.0004
 88\C,0,2.123037,0.926935,-0.78345\C,0,0.785335,2.178692,0.782922\C,0,3
 .074444,1.939229,-0.772694\C,0,1.733248,3.194302,0.773528\C,0,2.885092
 ,3.080453,0.000886\H,0,2.269922,0.041314,-1.399284\H,0,-0.10857,2.2669
 02,1.398014\H,0,3.967862,1.838651,-1.388087\H,0,1.574087,4.078874,1.38
 9358\H,0,3.629424,3.875076,0.001646\C,0,-1.380731,0.321945,-0.000436\C
 ,0,-2.279686,-0.409002,0.782988\C,0,-1.864017,1.375244,-0.783483\C,0,-
 3.633185,-0.0958,0.773256\C,0,-3.216365,1.693293,-0.772877\C,0,-4.1102
 12,0.958658,0.000466\H,0,-1.909274,-1.227214,1.398174\H,0,-1.170181,1.
 945112,-1.399095\H,0,-4.319851,-0.675761,1.389003\H,0,-3.575887,2.5172
 71,-1.388348\H,0,-5.170565,1.205911,0.000686\\Version=EM64L-G16RevA.03
 \State=2-A\HF=-748.9651731\S2=0.770675\S2-1=0.\S2A=0.750403\RMSD=9.777
 e-07\Dipole=0.0004394,-0.0009223,0.0002326\Quadrupole=8.751964,8.74719
 46,-17.4991586,0.0014161,-0.0003758,0.0002441\PG=C01 [X(C18H15N1)]\\@


 KNOWING HOW CONTENTED, FREE, AND JOYFUL IS LIFE IN
 THE REALMS OF SCIENCE, ONE FERVENTLY WISHES THAT
 MANY WOULD ENTER HER PORTALS.
   --  DMITRI IVANOVICH MENDELEEV
 "FIRST PRINCIPLES OF CHEMISTRY", LONGMANS, GREEN,
 AND CO.  LONDON, 1891
 Job cpu time:       0 days  0 hours 53 minutes 27.6 seconds.
 Elapsed time:       0 days  0 hours  6 minutes 42.4 seconds.
 File lengths (MBytes):  RWF=    152 Int=      0 D2E=      0 Chk=     20 Scr=      8
 Normal termination of Gaussian 16 at Sun Jan 17 21:25:38 2021.
