 Entering Gaussian System, Link 0=g16
 Input=mol_NN_pa_frag_tune_n1.gjf
 Output=mol_NN_pa_frag_tune_n1.log
 Initial command:
 /opt/ohpc/pub/libs/gaussian/g16-A.03/sandybridge/g16/l1.exe "/mnt/gpfs2_4m/scratch/rdu230/ondemand/projects/init_structures/wtuning/mol_NN_pa_frag/tuning_mol_NN_pa_frag_ocycle0/Gau-311575.inp" -scrdir="/mnt/gpfs2_4m/scratch/rdu230/ondemand/projects/init_structures/wtuning/mol_NN_pa_frag/tuning_mol_NN_pa_frag_ocycle0/"
 Entering Link 1 = /opt/ohpc/pub/libs/gaussian/g16-A.03/sandybridge/g16/l1.exe PID=    311576.
  
 Copyright (c) 1988,1990,1992,1993,1995,1998,2003,2009,2016,
            Gaussian, Inc.  All Rights Reserved.
  
 This is part of the Gaussian(R) 16 program.  It is based on
 the Gaussian(R) 09 system (copyright 2009, Gaussian, Inc.),
 the Gaussian(R) 03 system (copyright 2003, Gaussian, Inc.),
 the Gaussian(R) 98 system (copyright 1998, Gaussian, Inc.),
 the Gaussian(R) 94 system (copyright 1995, Gaussian, Inc.),
 the Gaussian 92(TM) system (copyright 1992, Gaussian, Inc.),
 the Gaussian 90(TM) system (copyright 1990, Gaussian, Inc.),
 the Gaussian 88(TM) system (copyright 1988, Gaussian, Inc.),
 the Gaussian 86(TM) system (copyright 1986, Carnegie Mellon
 University), and the Gaussian 82(TM) system (copyright 1983,
 Carnegie Mellon University). Gaussian is a federally registered
 trademark of Gaussian, Inc.
  
 This software contains proprietary and confidential information,
 including trade secrets, belonging to Gaussian, Inc.
  
 This software is provided under written license and may be
 used, copied, transmitted, or stored only in accord with that
 written license.
  
 The following legend is applicable only to US Government
 contracts under FAR:
  
                    RESTRICTED RIGHTS LEGEND
  
 Use, reproduction and disclosure by the US Government is
 subject to restrictions as set forth in subparagraphs (a)
 and (c) of the Commercial Computer Software - Restricted
 Rights clause in FAR 52.227-19.
  
 Gaussian, Inc.
 340 Quinnipiac St., Bldg. 40, Wallingford CT 06492
  
  
 ---------------------------------------------------------------
 Warning -- This program may not be used in any manner that
 competes with the business of Gaussian, Inc. or will provide
 assistance to any competitor of Gaussian, Inc.  The licensee
 of this program is prohibited from giving any competitor of
 Gaussian, Inc. access to this program.  By using this program,
 the user acknowledges that Gaussian, Inc. is engaged in the
 business of creating and licensing software in the field of
 computational chemistry and represents and warrants to the
 licensee that it is not a competitor of Gaussian, Inc. and that
 it will not use this program in any manner prohibited above.
 ---------------------------------------------------------------
  

 Cite this work as:
 Gaussian 16, Revision A.03,
 M. J. Frisch, G. W. Trucks, H. B. Schlegel, G. E. Scuseria, 
 M. A. Robb, J. R. Cheeseman, G. Scalmani, V. Barone, 
 G. A. Petersson, H. Nakatsuji, X. Li, M. Caricato, A. V. Marenich, 
 J. Bloino, B. G. Janesko, R. Gomperts, B. Mennucci, H. P. Hratchian, 
 J. V. Ortiz, A. F. Izmaylov, J. L. Sonnenberg, D. Williams-Young, 
 F. Ding, F. Lipparini, F. Egidi, J. Goings, B. Peng, A. Petrone, 
 T. Henderson, D. Ranasinghe, V. G. Zakrzewski, J. Gao, N. Rega, 
 G. Zheng, W. Liang, M. Hada, M. Ehara, K. Toyota, R. Fukuda, 
 J. Hasegawa, M. Ishida, T. Nakajima, Y. Honda, O. Kitao, H. Nakai, 
 T. Vreven, K. Throssell, J. A. Montgomery, Jr., J. E. Peralta, 
 F. Ogliaro, M. J. Bearpark, J. J. Heyd, E. N. Brothers, K. N. Kudin, 
 V. N. Staroverov, T. A. Keith, R. Kobayashi, J. Normand, 
 K. Raghavachari, A. P. Rendell, J. C. Burant, S. S. Iyengar, 
 J. Tomasi, M. Cossi, J. M. Millam, M. Klene, C. Adamo, R. Cammi, 
 J. W. Ochterski, R. L. Martin, K. Morokuma, O. Farkas, 
 J. B. Foresman, and D. J. Fox, Gaussian, Inc., Wallingford CT, 2016.
 
 ******************************************
 Gaussian 16:  EM64L-G16RevA.03 25-Dec-2016
                17-Jan-2021 
 ******************************************
 %mem=30GB
 %nproc=8
 Will use up to    8 processors via shared memory.
 ----------------------------------------------------------------------
 #P LC-wHPBE/TZVP iop(3/107=0328100000, 3/108=0328100000) scf=(conver=6
 ,fermi,ndamp=35,noincfock,novaracc,vshift=500,xqc)
 ----------------------------------------------------------------------
 1/38=1,172=1/1;
 2/12=2,17=6,18=5,40=1/2;
 3/5=19,7=101,11=2,25=1,30=1,74=-71,107=328100000,108=328100000/1,2,3;
 4//1;
 5/5=100002,6=6,8=3,10=500,13=1,18=-1,22=13,38=1,93=35/2,8;
 6/7=2,8=2,9=2,10=2,28=1/1;
 99/5=1,9=1/99;
 Leave Link    1 at Sun Jan 17 19:51:52 2021, MaxMem=  4026531840 cpu:               1.4 elap:               0.2
 (Enter /opt/ohpc/pub/libs/gaussian/g16-A.03/sandybridge/g16/l101.exe)
 ----------
 H15 C18 N1
 ----------
 Symbolic Z-matrix:
 Charge =  0 Multiplicity = 1
 N                     0.00002  -0.00013  -0.00128 
 C                     0.41152  -1.35684  -0.00048 
 C                     1.49553  -1.76929   0.78118 
 C                    -0.26032  -2.30269  -0.78172 
 C                     1.90122  -3.09798   0.77159 
 C                     0.14061  -3.63281  -0.77087 
 C                     1.22528  -4.03895   0.00067 
 H                     2.02011  -1.039     1.39485 
 H                    -1.10182  -1.9873   -1.39616 
 H                     2.74809  -3.40206   1.38588 
 H                    -0.39449  -4.35669  -1.38461 
 H                     1.54142  -5.08084   0.00103 
 C                     0.96912   1.03471  -0.00049 
 C                     2.12304   0.92694  -0.78345 
 C                     0.78534   2.17869   0.78292 
 C                     3.07444   1.93923  -0.77269 
 C                     1.73325   3.1943    0.77353 
 C                     2.88509   3.08045   0.00089 
 H                     2.26992   0.04131  -1.39928 
 H                    -0.10857   2.2669    1.39801 
 H                     3.96786   1.83865  -1.38809 
 H                     1.57409   4.07887   1.38936 
 H                     3.62942   3.87508   0.00165 
 C                    -1.38073   0.32195  -0.00044 
 C                    -2.27969  -0.409     0.78299 
 C                    -1.86402   1.37524  -0.78348 
 C                    -3.63319  -0.0958    0.77326 
 C                    -3.21637   1.69329  -0.77288 
 C                    -4.11021   0.95866   0.00047 
 H                    -1.90927  -1.22721   1.39817 
 H                    -1.17018   1.94511  -1.3991 
 H                    -4.31985  -0.67576   1.389 
 H                    -3.57589   2.51727  -1.38835 
 H                    -5.17056   1.20591   0.00069 
 
 ITRead=  0  0  0  0  0  0  0  0  0  0  0  0  0  0  0  0  0  0  0  0
 ITRead=  0  0  0  0  0  0  0  0  0  0  0  0  0  0
 MicOpt= -1 -1 -1 -1 -1 -1 -1 -1 -1 -1 -1 -1 -1 -1 -1 -1 -1 -1 -1 -1
 MicOpt= -1 -1 -1 -1 -1 -1 -1 -1 -1 -1 -1 -1 -1 -1
 NAtoms=     34 NQM=       34 NQMF=       0 NMMI=      0 NMMIF=      0
                NMic=       0 NMicF=      0.
                    Isotopes and Nuclear Properties:
 (Nuclear quadrupole moments (NQMom) in fm**2, nuclear magnetic moments (NMagM)
  in nuclear magnetons)

  Atom         1           2           3           4           5           6           7           8           9          10
 IAtWgt=          14          12          12          12          12          12          12           1           1           1
 AtmWgt=  14.0030740  12.0000000  12.0000000  12.0000000  12.0000000  12.0000000  12.0000000   1.0078250   1.0078250   1.0078250
 NucSpn=           2           0           0           0           0           0           0           1           1           1
 AtZEff=  -0.0000000  -0.0000000  -0.0000000  -0.0000000  -0.0000000  -0.0000000  -0.0000000  -0.0000000  -0.0000000  -0.0000000
 NQMom=    2.0440000   0.0000000   0.0000000   0.0000000   0.0000000   0.0000000   0.0000000   0.0000000   0.0000000   0.0000000
 NMagM=    0.4037610   0.0000000   0.0000000   0.0000000   0.0000000   0.0000000   0.0000000   2.7928460   2.7928460   2.7928460
 AtZNuc=   7.0000000   6.0000000   6.0000000   6.0000000   6.0000000   6.0000000   6.0000000   1.0000000   1.0000000   1.0000000

  Atom        11          12          13          14          15          16          17          18          19          20
 IAtWgt=           1           1          12          12          12          12          12          12           1           1
 AtmWgt=   1.0078250   1.0078250  12.0000000  12.0000000  12.0000000  12.0000000  12.0000000  12.0000000   1.0078250   1.0078250
 NucSpn=           1           1           0           0           0           0           0           0           1           1
 AtZEff=  -0.0000000  -0.0000000  -0.0000000  -0.0000000  -0.0000000  -0.0000000  -0.0000000  -0.0000000  -0.0000000  -0.0000000
 NQMom=    0.0000000   0.0000000   0.0000000   0.0000000   0.0000000   0.0000000   0.0000000   0.0000000   0.0000000   0.0000000
 NMagM=    2.7928460   2.7928460   0.0000000   0.0000000   0.0000000   0.0000000   0.0000000   0.0000000   2.7928460   2.7928460
 AtZNuc=   1.0000000   1.0000000   6.0000000   6.0000000   6.0000000   6.0000000   6.0000000   6.0000000   1.0000000   1.0000000

  Atom        21          22          23          24          25          26          27          28          29          30
 IAtWgt=           1           1           1          12          12          12          12          12          12           1
 AtmWgt=   1.0078250   1.0078250   1.0078250  12.0000000  12.0000000  12.0000000  12.0000000  12.0000000  12.0000000   1.0078250
 NucSpn=           1           1           1           0           0           0           0           0           0           1
 AtZEff=  -0.0000000  -0.0000000  -0.0000000  -0.0000000  -0.0000000  -0.0000000  -0.0000000  -0.0000000  -0.0000000  -0.0000000
 NQMom=    0.0000000   0.0000000   0.0000000   0.0000000   0.0000000   0.0000000   0.0000000   0.0000000   0.0000000   0.0000000
 NMagM=    2.7928460   2.7928460   2.7928460   0.0000000   0.0000000   0.0000000   0.0000000   0.0000000   0.0000000   2.7928460
 AtZNuc=   1.0000000   1.0000000   1.0000000   6.0000000   6.0000000   6.0000000   6.0000000   6.0000000   6.0000000   1.0000000

  Atom        31          32          33          34
 IAtWgt=           1           1           1           1
 AtmWgt=   1.0078250   1.0078250   1.0078250   1.0078250
 NucSpn=           1           1           1           1
 AtZEff=  -0.0000000  -0.0000000  -0.0000000  -0.0000000
 NQMom=    0.0000000   0.0000000   0.0000000   0.0000000
 NMagM=    2.7928460   2.7928460   2.7928460   2.7928460
 AtZNuc=   1.0000000   1.0000000   1.0000000   1.0000000
 Leave Link  101 at Sun Jan 17 19:51:53 2021, MaxMem=  4026531840 cpu:               0.7 elap:               0.1
 (Enter /opt/ohpc/pub/libs/gaussian/g16-A.03/sandybridge/g16/l202.exe)
                          Input orientation:                          
 ---------------------------------------------------------------------
 Center     Atomic      Atomic             Coordinates (Angstroms)
 Number     Number       Type             X           Y           Z
 ---------------------------------------------------------------------
      1          7           0        0.000022   -0.000126   -0.001279
      2          6           0        0.411521   -1.356839   -0.000484
      3          6           0        1.495533   -1.769287    0.781179
      4          6           0       -0.260320   -2.302689   -0.781717
      5          6           0        1.901218   -3.097977    0.771590
      6          6           0        0.140608   -3.632811   -0.770872
      7          6           0        1.225282   -4.038950    0.000666
      8          1           0        2.020108   -1.039002    1.394849
      9          1           0       -1.101816   -1.987296   -1.396157
     10          1           0        2.748094   -3.402056    1.385878
     11          1           0       -0.394485   -4.356690   -1.384611
     12          1           0        1.541424   -5.080840    0.001027
     13          6           0        0.969124    1.034710   -0.000488
     14          6           0        2.123037    0.926935   -0.783450
     15          6           0        0.785335    2.178692    0.782922
     16          6           0        3.074444    1.939229   -0.772694
     17          6           0        1.733248    3.194302    0.773528
     18          6           0        2.885092    3.080453    0.000886
     19          1           0        2.269922    0.041314   -1.399284
     20          1           0       -0.108570    2.266902    1.398014
     21          1           0        3.967862    1.838651   -1.388087
     22          1           0        1.574087    4.078874    1.389358
     23          1           0        3.629424    3.875076    0.001646
     24          6           0       -1.380731    0.321945   -0.000436
     25          6           0       -2.279686   -0.409002    0.782988
     26          6           0       -1.864017    1.375244   -0.783483
     27          6           0       -3.633185   -0.095800    0.773256
     28          6           0       -3.216365    1.693293   -0.772877
     29          6           0       -4.110212    0.958658    0.000466
     30          1           0       -1.909274   -1.227214    1.398174
     31          1           0       -1.170181    1.945112   -1.399095
     32          1           0       -4.319851   -0.675761    1.389003
     33          1           0       -3.575887    2.517271   -1.388348
     34          1           0       -5.170565    1.205911    0.000686
 ---------------------------------------------------------------------
                    Distance matrix (angstroms):
                    1          2          3          4          5
     1  N    0.000000
     2  C    1.417745   0.000000
     3  C    2.445143   1.398639   0.000000
     4  C    2.445129   1.398688   2.410432   0.000000
     5  C    3.715986   2.418027   1.389277   2.778037   0.000000
     6  C    3.715971   2.418045   2.778022   1.389275   2.401038
     7  C    4.220588   2.802843   2.415286   2.415313   1.391633
     8  H    2.666305   2.153027   1.088617   3.396277   2.154522
     9  H    2.666191   2.153037   3.396254   1.088634   3.866646
    10  H    4.587944   3.400660   2.144879   3.867510   1.089501
    11  H    4.587907   3.400670   3.867489   2.144855   3.391727
    12  H    5.309386   3.891641   3.402518   3.402513   2.157537
    13  C    1.417761   2.455693   2.958126   3.641440   4.306275
    14  C    2.445082   2.959383   3.179849   4.013834   4.320564
    15  C    2.445186   3.640528   4.011349   4.860480   5.393381
    16  C    3.715945   4.307149   4.319788   5.395795   5.397658
    17  C    3.716015   4.801973   4.969284   6.050621   6.294521
    18  C    4.220616   5.080169   5.104871   6.283654   6.303570
    19  H    2.666192   2.713877   2.938090   3.503978   3.834551
    20  H    2.666314   3.918902   4.386850   5.065118   5.763123
    21  H    4.587820   4.978369   4.882145   5.949446   5.771093
    22  H    4.588005   5.729764   5.880224   6.985912   7.210814
    23  H    5.309403   6.142299   6.084406   7.342244   7.225163
    24  C    1.417818   2.455704   3.641026   2.958788   4.802404
    25  C    2.445265   2.958854   4.012812   3.179967   4.970983
    26  C    2.445021   3.640802   4.860331   4.012361   6.050203
    27  C    3.716080   4.306802   5.394847   4.320245   6.296244
    28  C    3.715936   4.802234   6.050333   4.970528   7.178531
    29  C    4.220580   5.080118   6.282959   5.105866   7.293025
    30  H    2.666388   2.712773   3.502462   2.937281   4.290945
    31  H    2.665936   3.919282   5.065213   4.387803   6.291114
    32  H    4.588101   4.977994   5.948440   4.882490   6.704478
    33  H    4.587851   5.730124   6.985752   5.881581   8.136032
    34  H    5.309378   6.142261   7.341514   6.085469   8.314317
                    6          7          8          9         10
     6  C    0.000000
     7  C    1.391667   0.000000
     8  H    3.866615   3.402232   0.000000
     9  H    2.154604   3.402320   4.293645   0.000000
    10  H    3.391725   2.154856   2.472664   4.956115   0.000000
    11  H    1.089496   2.154901   4.956078   2.472747   4.296829
    12  H    2.157522   1.088798   4.302131   4.302192   2.488409
    13  C    4.802675   5.080122   2.711423   3.920358   4.977111
    14  C    4.972069   5.106938   2.936067   4.389514   4.882299
    15  C    6.050084   6.282082   3.500382   5.066081   5.946489
    16  C    6.297224   6.305245   3.831413   5.766060   5.770205
    17  C    7.178520   7.292138   4.288262   6.292383   6.702001
    18  C    7.293539   7.310326   4.434100   6.597670   6.630226
    19  H    4.292793   4.438433   3.006105   3.934957   4.454500
    20  H    6.290689   6.595113   3.931956   5.185762   6.348052
    21  H    6.705649   6.632991   4.451895   6.351344   6.053737
    22  H    8.135818   8.243130   5.137277   7.191521   7.572491
    23  H    8.314866   8.271137   5.355285   7.661977   7.459859
    24  C    4.306755   5.080227   3.919784   2.712642   5.730379
    25  C    4.320330   5.106207   4.388565   2.937186   5.882212
    26  C    5.394376   6.282687   5.065584   3.501856   6.985720
    27  C    5.397804   6.304762   5.765044   3.833007   7.212999
    28  C    6.295765   7.292819   6.291671   4.290283   8.136189
    29  C    6.304445   7.310512   6.596649   4.436175   8.244486
    30  H    3.833233   4.436703   3.933888   3.006326   5.140152
    31  H    5.764205   6.595951   5.185461   3.933003   7.190352
    32  H    5.771040   6.632271   6.350359   4.453424   7.575522
    33  H    7.212290   8.244066   7.190857   5.139281   9.095466
    34  H    7.226139   8.271362   7.660881   5.357468   9.265920
                   11         12         13         14         15
    11  H    0.000000
    12  H    2.488399   0.000000
    13  C    5.730831   6.142270   0.000000
    14  C    5.883537   6.086628   1.398628   0.000000
    15  C    6.985799   7.340561   1.398644   2.410366   0.000000
    16  C    7.214327   7.227044   2.418022   1.389255   2.778004
    17  C    8.136479   8.313334   2.418021   2.777961   1.389277
    18  C    8.245382   8.271164   2.802856   2.415274   2.415312
    19  H    5.142151   5.359855   2.153031   1.088647   3.396234
    20  H    7.190043   7.659201   2.153028   3.396228   1.088662
    21  H    7.577093   7.463015   3.400615   2.144806   3.867478
    22  H    9.095544   9.264388   3.400674   3.867449   2.144898
    23  H    9.266905   9.196096   3.891642   3.402516   3.402492
    24  C    4.977775   6.142400   2.455576   3.640812   2.958547
    25  C    4.882285   6.085919   3.640454   4.860291   4.011298
    26  C    5.947768   7.341220   2.959009   4.012179   3.180915
    27  C    5.770680   7.226586   4.801873   6.050075   4.969580
    28  C    6.703694   8.314106   4.306813   5.394129   4.320848
    29  C    6.631590   8.271428   5.079905   6.282430   5.105595
    30  H    4.453324   5.358150   3.918894   5.065508   4.386302
    31  H    6.349380   7.660101   2.713219   3.501569   2.939354
    32  H    6.053980   7.462288   5.729717   6.985628   5.880320
    33  H    7.574475   9.265448   4.978079   5.947504   4.883575
    34  H    7.461402   9.196414   6.142076   7.340935   6.085305
                   16         17         18         19         20
    16  C    0.000000
    17  C    2.401003   0.000000
    18  C    1.391644   1.391647   0.000000
    19  H    2.154519   3.866583   3.402246   0.000000
    20  H    3.866642   2.154611   3.402329   4.293640   0.000000
    21  H    1.089505   3.391735   2.154927   2.472559   4.956113
    22  H    3.391699   1.089517   2.154863   4.956067   2.472782
    23  H    2.157570   2.157484   1.088787   4.302160   4.302170
    24  C    4.802143   4.306544   5.080021   3.919540   2.712363
    25  C    6.049880   5.393286   6.281951   5.065968   3.500352
    26  C    4.970573   4.321293   5.106565   4.387258   2.938635
    27  C    7.177994   6.294710   7.291987   6.291693   4.289009
    28  C    6.295615   5.398432   6.304816   5.763746   3.834082
    29  C    7.292364   6.304106   7.310013   6.595978   4.435965
    30  H    6.290984   5.762634   6.595025   5.186580   3.930825
    31  H    4.290601   3.835449   4.437813   3.931762   3.009051
    32  H    8.135521   7.210839   8.243010   7.191234   5.137532
    33  H    6.703735   5.772261   6.632601   6.348540   4.455198
    34  H    8.313606   7.225899   8.270884   7.660095   5.357427
                   21         22         23         24         25
    21  H    0.000000
    22  H    4.296854   0.000000
    23  H    2.488559   2.488310   0.000000
    24  C    5.730045   4.977649   6.142182   0.000000
    25  C    6.985511   5.946451   7.340395   1.398627   0.000000
    26  C    5.881420   4.883791   6.086336   1.398630   2.410424
    27  C    8.135688   6.702475   8.313166   2.417987   1.389298
    28  C    7.211985   5.771888   7.226679   2.418018   2.778080
    29  C    8.243649   6.631442   8.270880   2.802761   2.415297
    30  H    7.190515   6.347318   7.659036   2.152989   1.088637
    31  H    5.139158   4.456391   5.359388   2.152963   3.396224
    32  H    9.095091   7.572652   9.264224   3.400645   2.144921
    33  H    7.574211   6.056112   7.462722   3.400657   3.867546
    34  H    9.264982   7.461411   9.195882   3.891560   3.402517
                   26         27         28         29         30
    26  C    0.000000
    27  C    2.778014   0.000000
    28  C    1.389285   2.401066   0.000000
    29  C    2.415266   1.391632   1.391657   0.000000
    30  H    3.396242   2.154644   3.866692   3.402316   0.000000
    31  H    1.088640   3.866629   2.154630   3.402300   4.293556
    32  H    3.867485   1.089500   3.391729   2.154834   2.472866
    33  H    2.144898   3.391748   1.089495   2.154897   4.956155
    34  H    3.402478   2.157511   2.157507   1.088799   4.302219
                   31         32         33         34
    31  H    0.000000
    32  H    4.956096   0.000000
    33  H    2.472833   4.296814   0.000000
    34  H    4.302194   2.488338   2.488389   0.000000
 Stoichiometry    C18H15N
 Framework group  C1[X(C18H15N)]
 Deg. of freedom    96
 Full point group                 C1      NOp   1
 Largest Abelian subgroup         C1      NOp   1
 Largest concise Abelian subgroup C1      NOp   1
                         Standard orientation:                         
 ---------------------------------------------------------------------
 Center     Atomic      Atomic             Coordinates (Angstroms)
 Number     Number       Type             X           Y           Z
 ---------------------------------------------------------------------
      1          7           0       -0.000022    0.000126   -0.001279
      2          6           0       -0.411410    1.356873   -0.000484
      3          6           0       -1.495388    1.769410    0.781179
      4          6           0        0.260509    2.302668   -0.781717
      5          6           0       -1.900964    3.098133    0.771590
      6          6           0       -0.140310    3.632823   -0.770872
      7          6           0       -1.224951    4.039050    0.000666
      8          1           0       -2.020023    1.039168    1.394849
      9          1           0        1.101979    1.987206   -1.396157
     10          1           0       -2.747815    3.402281    1.385878
     11          1           0        0.394842    4.356658   -1.384611
     12          1           0       -1.541008    5.080966    0.001027
     13          6           0       -0.969209   -1.034631   -0.000488
     14          6           0       -2.123113   -0.926761   -0.783450
     15          6           0       -0.785513   -2.178628    0.782922
     16          6           0       -3.074603   -1.938977   -0.772694
     17          6           0       -1.733510   -3.194160    0.773528
     18          6           0       -2.885344   -3.080217    0.000886
     19          1           0       -2.269925   -0.041128   -1.399284
     20          1           0        0.108384   -2.266911    1.398014
     21          1           0       -3.968013   -1.838326   -1.388087
     22          1           0       -1.574421   -4.078745    1.389358
     23          1           0       -3.629741   -3.874779    0.001646
     24          6           0        1.380705   -0.322058   -0.000436
     25          6           0        2.279720    0.408815    0.782988
     26          6           0        1.863904   -1.375397   -0.783483
     27          6           0        3.633193    0.095502    0.773256
     28          6           0        3.216226   -1.693556   -0.772877
     29          6           0        4.110133   -0.958995    0.000466
     30          1           0        1.909375    1.227058    1.398174
     31          1           0        1.170022   -1.945208   -1.399095
     32          1           0        4.319906    0.675407    1.389003
     33          1           0        3.575681   -2.517564   -1.388348
     34          1           0        5.170466   -1.206335    0.000686
 ---------------------------------------------------------------------
 Rotational constants (GHZ):           0.4036067           0.4035965           0.2213359
 Leave Link  202 at Sun Jan 17 19:51:53 2021, MaxMem=  4026531840 cpu:               0.2 elap:               0.1
 (Enter /opt/ohpc/pub/libs/gaussian/g16-A.03/sandybridge/g16/l301.exe)
 Standard basis: TZVP (5D, 7F)
 Ernie: Thresh=  0.10000D-02 Tol=  0.10000D-05 Strict=F.
 There are   470 symmetry adapted cartesian basis functions of A   symmetry.
 There are   451 symmetry adapted basis functions of A   symmetry.
   451 basis functions,   785 primitive gaussians,   470 cartesian basis functions
    65 alpha electrons       65 beta electrons
       nuclear repulsion energy      1298.2205480218 Hartrees.
 IExCor=33909 DFT=T Ex+Corr=LC-wHPBE ExCW=0 ScaHFX=  1.000000
 ScaDFX=  1.000000  1.000000  1.000000  1.000000 ScalE2=  1.000000  1.000000
 IRadAn=      5 IRanWt=     -1 IRanGd=            0 ICorTp=0 IEmpDi=  4
 HFx  wShort=  0.000000 wLong=  0.328100 cFull=  0.000000 cShort=  0.000000 cLong=  1.000000
 DFx  wShort=  0.000000 wLong=  0.328100 cFull=  0.000000 cShort=  1.000000 cLong=  0.000000
 NAtoms=   34 NActive=   34 NUniq=   34 SFac= 1.00D+00 NAtFMM=   60 NAOKFM=F Big=F
 Integral buffers will be    131072 words long.
 Raffenetti 2 integral format.
 Two-electron integral symmetry is turned on.
 Leave Link  301 at Sun Jan 17 19:51:53 2021, MaxMem=  4026531840 cpu:               0.4 elap:               0.1
 (Enter /opt/ohpc/pub/libs/gaussian/g16-A.03/sandybridge/g16/l302.exe)
 NPDir=0 NMtPBC=     1 NCelOv=     1 NCel=       1 NClECP=     1 NCelD=      1
         NCelK=      1 NCelE2=     1 NClLst=     1 CellRange=     0.0.
 One-electron integrals computed using PRISM.
 One-electron integral symmetry used in STVInt
 NBasis=   451 RedAO= T EigKep=  8.44D-06  NBF=   451
 NBsUse=   451 1.00D-06 EigRej= -1.00D+00 NBFU=   451
 Precomputing XC quadrature grid using
 IXCGrd= 4 IRadAn=           5 IRanWt=          -1 IRanGd=           0 AccXCQ= 0.00D+00.
 Generated NRdTot=       0 NPtTot=           0 NUsed=           0 NTot=          32
 NSgBfM=   462   462   462   462   462 MxSgAt=    34 MxSgA2=    34.
 Leave Link  302 at Sun Jan 17 19:51:53 2021, MaxMem=  4026531840 cpu:               5.1 elap:               0.7
 (Enter /opt/ohpc/pub/libs/gaussian/g16-A.03/sandybridge/g16/l303.exe)
 DipDrv:  MaxL=1.
 Leave Link  303 at Sun Jan 17 19:51:54 2021, MaxMem=  4026531840 cpu:               0.5 elap:               0.1
 (Enter /opt/ohpc/pub/libs/gaussian/g16-A.03/sandybridge/g16/l401.exe)
 ExpMin= 9.52D-02 ExpMax= 1.97D+04 ExpMxC= 6.73D+02 IAcc=3 IRadAn=         5 AccDes= 0.00D+00
 Harris functional with IExCor=33909 and IRadAn=       5 diagonalized for initial guess.
 HarFok:  IExCor=33909 AccDes= 0.00D+00 IRadAn=         5 IDoV= 1 UseB2=F ITyADJ=14
 ICtDFT=  3500011 ScaDFX=  1.000000  1.000000  1.000000  1.000000
 FoFCou: FMM=F IPFlag=           0 FMFlag=      100000 FMFlg1=           0
         NFxFlg=           0 DoJE=T BraDBF=F KetDBF=T FulRan=T
         wScrn=  0.000000 ICntrl=       500 IOpCl=  0 I1Cent=   200000004 NGrid=           0
         NMat0=    1 NMatS0=      1 NMatT0=    0 NMatD0=    1 NMtDS0=    0 NMtDT0=    0
 Petite list used in FoFCou.
 Harris En= -727.731409472901    
 JPrj=0 DoOrth=F DoCkMO=F.
 Leave Link  401 at Sun Jan 17 19:51:57 2021, MaxMem=  4026531840 cpu:              28.6 elap:               3.6
 (Enter /opt/ohpc/pub/libs/gaussian/g16-A.03/sandybridge/g16/l502.exe)
 Integral symmetry usage will be decided dynamically.
 Closed shell SCF:
 Using DIIS extrapolation, IDIIS=    10.
 NGot=  4026531840 LenX=  4026081620 LenY=  4025860250
 Requested convergence on RMS density matrix=1.00D-06 within  32 cycles.
 Requested convergence on MAX density matrix=1.00D-04.
 Requested convergence on             energy=1.00D-04.
 Virtual orbitals will be shifted by   0.500 hartree.
 No special actions if energy rises.
 Dynamic level shift is on during FON iterations.

 Cycle   1  Pass 1  IDiag  1:
 FoFJK:  IHMeth= 1 ICntrl=       0 DoSepK=T KAlg= 0 I1Cent=           0 FoldK=F
 IRaf=         1 NMat=       1 IRICut=       1 DoRegI=T DoRafI=F ISym2E= 0 IDoP0=0 IntGTp=1.
 FoFCou: FMM=F IPFlag=           0 FMFlag=      100000 FMFlg1=           0
         NFxFlg=           0 DoJE=T BraDBF=F KetDBF=F FulRan=T
         wScrn=  0.000000 ICntrl=       500 IOpCl=  0 I1Cent=           0 NGrid=           0
         NMat0=    1 NMatS0=      1 NMatT0=    0 NMatD0=    1 NMtDS0=    0 NMtDT0=    0
 Symmetry not used in FoFCou.
 E= -749.066410576915    
 DIIS: error= 2.83D-02 at cycle   1 NSaved=   1.
 NSaved= 1 IEnMin= 1 EnMin= -749.066410576915     IErMin= 1 ErrMin= 2.83D-02
 ErrMax= 2.83D-02  0.00D+00 EMaxC= 1.00D+00 BMatC= 2.65D-01 BMatP= 2.65D-01
 IDIUse=1 WtCom= 1.00D+00 WtEn= 0.00D+00
 Coeff-Com:  0.100D+01
 Coeff:      0.100D+01
 Gap=     0.369 Goal=   None    Shift=    0.500
 T= 1461. Gap= 0.813 NK=0 IS=   66 IE=  451 IFin=   65
          NO(<0.9)=   0  NV(>0.1)=   0     65.00e < EF      0.00e >EF  Err=0.0D+00
 GapD=    0.369 DampG=1.000 DampE=0.500 DampFc=0.5000 IDamp=-1.
 Damping current iteration by 5.00D-01
 RMSDP=2.41D-03 MaxDP=6.58D-02              OVMax= 8.29D-02

 Cycle   2  Pass 1  IDiag  1:
 E= -749.220797785957     Delta-E=       -0.154387209042 Rises=F Damp=T
 DIIS: error= 1.30D-02 at cycle   2 NSaved=   2.
 NSaved= 2 IEnMin= 2 EnMin= -749.220797785957     IErMin= 2 ErrMin= 1.30D-02
 ErrMax= 1.30D-02  0.00D+00 EMaxC= 1.00D+00 BMatC= 4.96D-02 BMatP= 2.65D-01
 IDIUse=1 WtCom= 1.00D+00 WtEn= 0.00D+00
 Coeff-Com: -0.617D+00 0.162D+01
 Coeff:     -0.617D+00 0.162D+01
 Gap=     0.334 Goal=   None    Shift=    0.500
 T= 1342. Gap= 0.807 NK=0 IS=   66 IE=  451 IFin=   65
          NO(<0.9)=   0  NV(>0.1)=   0     65.00e < EF      0.00e >EF  Err=0.0D+00
 GapD=    0.334 DampG=1.000 DampE=0.500 DampFc=0.5000 IDamp=-1.
 Damping current iteration by 5.00D-01
 RMSDP=1.77D-03 MaxDP=5.87D-02 DE=-1.54D-01 OVMax= 1.50D-02

 Cycle   3  Pass 1  IDiag  1:
 E= -749.275677673430     Delta-E=       -0.054879887473 Rises=F Damp=T
 DIIS: error= 6.73D-03 at cycle   3 NSaved=   3.
 NSaved= 3 IEnMin= 3 EnMin= -749.275677673430     IErMin= 3 ErrMin= 6.73D-03
 ErrMax= 6.73D-03  0.00D+00 EMaxC= 1.00D+00 BMatC= 1.06D-02 BMatP= 4.96D-02
 IDIUse=1 WtCom= 1.00D+00 WtEn= 0.00D+00
 Coeff-Com:  0.376D-01-0.926D+00 0.189D+01
 Coeff:      0.376D-01-0.926D+00 0.189D+01
 Gap=     0.323 Goal=   None    Shift=    0.500
 T= 1119. Gap= 0.822 NK=0 IS=   66 IE=  451 IFin=   65
          NO(<0.9)=   0  NV(>0.1)=   0     65.00e < EF      0.00e >EF  Err=0.0D+00
 GapD=    0.323 DampG=1.000 DampE=1.000 DampFc=1.0000 IDamp=-1.
 RMSDP=1.12D-03 MaxDP=3.84D-02 DE=-5.49D-02 OVMax= 1.32D-02

 Cycle   4  Pass 1  IDiag  1:
 E= -749.323058290634     Delta-E=       -0.047380617204 Rises=F Damp=F
 DIIS: error= 2.28D-03 at cycle   4 NSaved=   4.
 NSaved= 4 IEnMin= 4 EnMin= -749.323058290634     IErMin= 4 ErrMin= 2.28D-03
 ErrMax= 2.28D-03  0.00D+00 EMaxC= 1.00D+00 BMatC= 2.97D-04 BMatP= 1.06D-02
 IDIUse=1 WtCom= 1.00D+00 WtEn= 0.00D+00
 Coeff-Com:  0.717D-01-0.163D+00 0.620D-01 0.103D+01
 Coeff:      0.717D-01-0.163D+00 0.620D-01 0.103D+01
 Gap=     0.320 Goal=   None    Shift=    0.500
 T=  650. Gap= 0.820 NK=0 IS=   66 IE=  451 IFin=   65
          NO(<0.9)=   0  NV(>0.1)=   0     65.00e < EF      0.00e >EF  Err=0.0D+00
 GapD=    0.320 DampG=1.000 DampE=1.000 DampFc=1.0000 IDamp=-1.
 RMSDP=1.29D-04 MaxDP=4.36D-03 DE=-4.74D-02 OVMax= 8.58D-03

 Cycle   5  Pass 1  IDiag  1:
 E= -749.323581690934     Delta-E=       -0.000523400300 Rises=F Damp=F
 DIIS: error= 1.79D-03 at cycle   5 NSaved=   5.
 NSaved= 5 IEnMin= 5 EnMin= -749.323581690934     IErMin= 5 ErrMin= 1.79D-03
 ErrMax= 1.79D-03  0.00D+00 EMaxC= 1.00D+00 BMatC= 7.23D-05 BMatP= 2.97D-04
 IDIUse=1 WtCom= 1.00D+00 WtEn= 0.00D+00
 Coeff-Com:  0.376D-02 0.735D-01-0.185D+00-0.420D+00 0.153D+01
 Coeff:      0.376D-02 0.735D-01-0.185D+00-0.420D+00 0.153D+01
 Gap=     0.321 Goal=   None    Shift=    0.500
 T=  224. Gap= 0.821 NK=0 IS=   66 IE=  451 IFin=   65
          NO(<0.9)=   0  NV(>0.1)=   0     65.00e < EF      0.00e >EF  Err=0.0D+00
 GapD=    0.321 DampG=1.000 DampE=1.000 DampFc=1.0000 IDamp=-1.
 RMSDP=8.09D-05 MaxDP=2.59D-03 DE=-5.23D-04 OVMax= 6.99D-03

 Cycle   6  Pass 1  IDiag  1:
 E= -749.323804337431     Delta-E=       -0.000222646498 Rises=F Damp=F
 DIIS: error= 1.37D-03 at cycle   6 NSaved=   6.
 NSaved= 6 IEnMin= 6 EnMin= -749.323804337431     IErMin= 6 ErrMin= 1.37D-03
 ErrMax= 1.37D-03  0.00D+00 EMaxC= 1.00D+00 BMatC= 2.29D-05 BMatP= 7.23D-05
 IDIUse=1 WtCom= 1.00D+00 WtEn= 0.00D+00
 Coeff-Com: -0.198D-01 0.691D-01-0.752D-01-0.347D+00 0.323D-01 0.134D+01
 Coeff:     -0.198D-01 0.691D-01-0.752D-01-0.347D+00 0.323D-01 0.134D+01
 Gap=     0.321 Goal=   None    Shift=    0.500
 GapD=    0.321 DampG=1.000 DampE=1.000 DampFc=1.0000 IDamp=-1.
 RMSDP=4.51D-05 MaxDP=1.61D-03 DE=-2.23D-04 OVMax= 5.51D-03

 Cycle   7  Pass 1  IDiag  1:
 E= -749.323897839247     Delta-E=       -0.000093501815 Rises=F Damp=F
 DIIS: error= 8.99D-04 at cycle   7 NSaved=   7.
 NSaved= 7 IEnMin= 7 EnMin= -749.323897839247     IErMin= 7 ErrMin= 8.99D-04
 ErrMax= 8.99D-04  0.00D+00 EMaxC= 1.00D+00 BMatC= 8.36D-06 BMatP= 2.29D-05
 IDIUse=1 WtCom= 1.00D+00 WtEn= 0.00D+00
 Coeff-Com: -0.641D-02 0.195D-02 0.232D-01 0.128D+00-0.546D+00-0.622D+00
 Coeff-Com:  0.202D+01
 Coeff:     -0.641D-02 0.195D-02 0.232D-01 0.128D+00-0.546D+00-0.622D+00
 Coeff:      0.202D+01
 Gap=     0.321 Goal=   None    Shift=    0.500
 RMSDP=3.34D-05 MaxDP=1.02D-03 DE=-9.35D-05 OVMax= 4.09D-03

 Cycle   8  Pass 1  IDiag  1:
 E= -749.323939538147     Delta-E=       -0.000041698900 Rises=F Damp=F
 DIIS: error= 5.87D-04 at cycle   8 NSaved=   8.
 NSaved= 8 IEnMin= 8 EnMin= -749.323939538147     IErMin= 8 ErrMin= 5.87D-04
 ErrMax= 5.87D-04  0.00D+00 EMaxC= 1.00D+00 BMatC= 3.21D-06 BMatP= 8.36D-06
 IDIUse=1 WtCom= 1.00D+00 WtEn= 0.00D+00
 Coeff-Com:  0.247D-02 0.117D-01-0.316D-01 0.922D-01 0.110D+00-0.472D+00
 Coeff-Com: -0.107D+01 0.236D+01
 Coeff:      0.247D-02 0.117D-01-0.316D-01 0.922D-01 0.110D+00-0.472D+00
 Coeff:     -0.107D+01 0.236D+01
 Gap=     0.321 Goal=   None    Shift=    0.500
 RMSDP=2.04D-05 MaxDP=5.83D-04 DE=-4.17D-05 OVMax= 2.75D-03

 Cycle   9  Pass 1  IDiag  1:
 E= -749.323955762497     Delta-E=       -0.000016224351 Rises=F Damp=F
 DIIS: error= 3.62D-04 at cycle   9 NSaved=   9.
 NSaved= 9 IEnMin= 9 EnMin= -749.323955762497     IErMin= 9 ErrMin= 3.62D-04
 ErrMax= 3.62D-04  0.00D+00 EMaxC= 1.00D+00 BMatC= 1.35D-06 BMatP= 3.21D-06
 IDIUse=1 WtCom= 1.00D+00 WtEn= 0.00D+00
 Coeff-Com:  0.242D-03 0.176D-01-0.370D-01 0.176D-01 0.187D+00-0.137D+00
 Coeff-Com: -0.782D+00 0.121D+00 0.161D+01
 Coeff:      0.242D-03 0.176D-01-0.370D-01 0.176D-01 0.187D+00-0.137D+00
 Coeff:     -0.782D+00 0.121D+00 0.161D+01
 Gap=     0.321 Goal=   None    Shift=    0.500
 RMSDP=1.12D-05 MaxDP=3.05D-04 DE=-1.62D-05 OVMax= 1.67D-03

 Cycle  10  Pass 1  IDiag  1:
 E= -749.323961609112     Delta-E=       -0.000005846614 Rises=F Damp=F
 DIIS: error= 2.21D-04 at cycle  10 NSaved=  10.
 NSaved=10 IEnMin=10 EnMin= -749.323961609112     IErMin=10 ErrMin= 2.21D-04
 ErrMax= 2.21D-04  0.00D+00 EMaxC= 1.00D+00 BMatC= 5.28D-07 BMatP= 1.35D-06
 IDIUse=1 WtCom= 1.00D+00 WtEn= 0.00D+00
 Coeff-Com: -0.192D-02 0.762D-02-0.895D-02-0.180D-01 0.322D-01 0.609D-01
 Coeff-Com:  0.181D+00-0.903D+00-0.352D+00 0.200D+01
 Coeff:     -0.192D-02 0.762D-02-0.895D-02-0.180D-01 0.322D-01 0.609D-01
 Coeff:      0.181D+00-0.903D+00-0.352D+00 0.200D+01
 Gap=     0.321 Goal=   None    Shift=    0.500
 RMSDP=6.64D-06 MaxDP=1.84D-04 DE=-5.85D-06 OVMax= 1.02D-03

 Cycle  11  Pass 1  IDiag  1:
 E= -749.323963702740     Delta-E=       -0.000002093629 Rises=F Damp=F
 DIIS: error= 1.29D-04 at cycle  11 NSaved=  11.
 NSaved=11 IEnMin=11 EnMin= -749.323963702740     IErMin=11 ErrMin= 1.29D-04
 ErrMax= 1.29D-04  0.00D+00 EMaxC= 1.00D+00 BMatC= 2.08D-07 BMatP= 5.28D-07
 IDIUse=1 WtCom= 1.00D+00 WtEn= 0.00D+00
 Coeff-Com: -0.872D-03 0.337D-03 0.244D-02 0.282D-03-0.358D-01 0.174D-01
 Coeff-Com:  0.197D+00-0.746D-01-0.833D+00-0.106D+00 0.183D+01
 Coeff:     -0.872D-03 0.337D-03 0.244D-02 0.282D-03-0.358D-01 0.174D-01
 Coeff:      0.197D+00-0.746D-01-0.833D+00-0.106D+00 0.183D+01
 Gap=     0.321 Goal=   None    Shift=    0.500
 RMSDP=3.93D-06 MaxDP=1.11D-04 DE=-2.09D-06 OVMax= 5.96D-04

 Cycle  12  Pass 1  IDiag  1:
 E= -749.323964416327     Delta-E=       -0.000000713587 Rises=F Damp=F
 DIIS: error= 7.43D-05 at cycle  12 NSaved=  12.
 NSaved=12 IEnMin=12 EnMin= -749.323964416327     IErMin=12 ErrMin= 7.43D-05
 ErrMax= 7.43D-05  0.00D+00 EMaxC= 1.00D+00 BMatC= 7.75D-08 BMatP= 2.08D-07
 IDIUse=1 WtCom= 1.00D+00 WtEn= 0.00D+00
 Coeff-Com: -0.405D-04 0.867D-03-0.154D-02 0.658D-02-0.648D-02-0.157D-01
 Coeff-Com: -0.305D-01 0.217D+00-0.205D+00-0.252D+00-0.794D+00 0.208D+01
 Coeff:     -0.405D-04 0.867D-03-0.154D-02 0.658D-02-0.648D-02-0.157D-01
 Coeff:     -0.305D-01 0.217D+00-0.205D+00-0.252D+00-0.794D+00 0.208D+01
 Gap=     0.321 Goal=   None    Shift=    0.500
 RMSDP=2.17D-06 MaxDP=6.49D-05 DE=-7.14D-07 OVMax= 3.38D-04

 Cycle  13  Pass 1  IDiag  1:
 E= -749.323964651656     Delta-E=       -0.000000235329 Rises=F Damp=F
 DIIS: error= 4.31D-05 at cycle  13 NSaved=  13.
 NSaved=13 IEnMin=13 EnMin= -749.323964651656     IErMin=13 ErrMin= 4.31D-05
 ErrMax= 4.31D-05  0.00D+00 EMaxC= 1.00D+00 BMatC= 2.88D-08 BMatP= 7.75D-08
 IDIUse=1 WtCom= 1.00D+00 WtEn= 0.00D+00
 Coeff-Com:  0.107D-03 0.103D-02-0.243D-02 0.342D-02 0.741D-02-0.113D-01
 Coeff-Com: -0.687D-01 0.135D+00 0.932D-01-0.892D-01-0.112D+01 0.749D+00
 Coeff-Com:  0.130D+01
 Coeff:      0.107D-03 0.103D-02-0.243D-02 0.342D-02 0.741D-02-0.113D-01
 Coeff:     -0.687D-01 0.135D+00 0.932D-01-0.892D-01-0.112D+01 0.749D+00
 Coeff:      0.130D+01
 Gap=     0.321 Goal=   None    Shift=    0.500
 RMSDP=1.21D-06 MaxDP=3.69D-05 DE=-2.35D-07 OVMax= 1.94D-04

 Cycle  14  Pass 1  IDiag  1:
 E= -749.323964730431     Delta-E=       -0.000000078775 Rises=F Damp=F
 DIIS: error= 2.47D-05 at cycle  14 NSaved=  14.
 NSaved=14 IEnMin=14 EnMin= -749.323964730431     IErMin=14 ErrMin= 2.47D-05
 ErrMax= 2.47D-05  0.00D+00 EMaxC= 1.00D+00 BMatC= 9.63D-09 BMatP= 2.88D-08
 IDIUse=1 WtCom= 1.00D+00 WtEn= 0.00D+00
 Coeff-Com: -0.719D-04 0.751D-04 0.101D-03-0.119D-02-0.497D-04 0.269D-02
 Coeff-Com:  0.211D-01-0.610D-01-0.188D-02 0.845D-01 0.207D+00-0.264D+00
 Coeff-Com: -0.181D+01 0.282D+01
 Coeff:     -0.719D-04 0.751D-04 0.101D-03-0.119D-02-0.497D-04 0.269D-02
 Coeff:      0.211D-01-0.610D-01-0.188D-02 0.845D-01 0.207D+00-0.264D+00
 Coeff:     -0.181D+01 0.282D+01
 Gap=     0.321 Goal=   None    Shift=    0.500
 RMSDP=6.38D-07 MaxDP=2.07D-05 DE=-7.88D-08 OVMax= 1.09D-04

 SCF Done:  E(RLC-wHPBE) =  -749.323964730     A.U. after   14 cycles
            NFock= 14  Conv=0.64D-06     -V/T= 2.0055
 KE= 7.452430118595D+02 PE=-4.335560498447D+03 EE= 1.542772973835D+03
 Leave Link  502 at Sun Jan 17 19:56:36 2021, MaxMem=  4026531840 cpu:            2221.9 elap:             278.5
 (Enter /opt/ohpc/pub/libs/gaussian/g16-A.03/sandybridge/g16/l508.exe)
 QCSCF skips out because SCF is already converged.
 Leave Link  508 at Sun Jan 17 19:56:36 2021, MaxMem=  4026531840 cpu:               0.0 elap:               0.0
 (Enter /opt/ohpc/pub/libs/gaussian/g16-A.03/sandybridge/g16/l601.exe)
 Copying SCF densities to generalized density rwf, IOpCl= 0 IROHF=0.

 **********************************************************************

            Population analysis using the SCF density.

 **********************************************************************

 Orbital symmetries:
       Occupied  (A) (A) (A) (A) (A) (A) (A) (A) (A) (A) (A) (A)
                 (A) (A) (A) (A) (A) (A) (A) (A) (A) (A) (A) (A)
                 (A) (A) (A) (A) (A) (A) (A) (A) (A) (A) (A) (A)
                 (A) (A) (A) (A) (A) (A) (A) (A) (A) (A) (A) (A)
                 (A) (A) (A) (A) (A) (A) (A) (A) (A) (A) (A) (A)
                 (A) (A) (A) (A) (A)
       Virtual   (A) (A) (A) (A) (A) (A) (A) (A) (A) (A) (A) (A)
                 (A) (A) (A) (A) (A) (A) (A) (A) (A) (A) (A) (A)
                 (A) (A) (A) (A) (A) (A) (A) (A) (A) (A) (A) (A)
                 (A) (A) (A) (A) (A) (A) (A) (A) (A) (A) (A) (A)
                 (A) (A) (A) (A) (A) (A) (A) (A) (A) (A) (A) (A)
                 (A) (A) (A) (A) (A) (A) (A) (A) (A) (A) (A) (A)
                 (A) (A) (A) (A) (A) (A) (A) (A) (A) (A) (A) (A)
                 (A) (A) (A) (A) (A) (A) (A) (A) (A) (A) (A) (A)
                 (A) (A) (A) (A) (A) (A) (A) (A) (A) (A) (A) (A)
                 (A) (A) (A) (A) (A) (A) (A) (A) (A) (A) (A) (A)
                 (A) (A) (A) (A) (A) (A) (A) (A) (A) (A) (A) (A)
                 (A) (A) (A) (A) (A) (A) (A) (A) (A) (A) (A) (A)
                 (A) (A) (A) (A) (A) (A) (A) (A) (A) (A) (A) (A)
                 (A) (A) (A) (A) (A) (A) (A) (A) (A) (A) (A) (A)
                 (A) (A) (A) (A) (A) (A) (A) (A) (A) (A) (A) (A)
                 (A) (A) (A) (A) (A) (A) (A) (A) (A) (A) (A) (A)
                 (A) (A) (A) (A) (A) (A) (A) (A) (A) (A) (A) (A)
                 (A) (A) (A) (A) (A) (A) (A) (A) (A) (A) (A) (A)
                 (A) (A) (A) (A) (A) (A) (A) (A) (A) (A) (A) (A)
                 (A) (A) (A) (A) (A) (A) (A) (A) (A) (A) (A) (A)
                 (A) (A) (A) (A) (A) (A) (A) (A) (A) (A) (A) (A)
                 (A) (A) (A) (A) (A) (A) (A) (A) (A) (A) (A) (A)
                 (A) (A) (A) (A) (A) (A) (A) (A) (A) (A) (A) (A)
                 (A) (A) (A) (A) (A) (A) (A) (A) (A) (A) (A) (A)
                 (A) (A) (A) (A) (A) (A) (A) (A) (A) (A) (A) (A)
                 (A) (A) (A) (A) (A) (A) (A) (A) (A) (A) (A) (A)
                 (A) (A) (A) (A) (A) (A) (A) (A) (A) (A) (A) (A)
                 (A) (A) (A) (A) (A) (A) (A) (A) (A) (A) (A) (A)
                 (A) (A) (A) (A) (A) (A) (A) (A) (A) (A) (A) (A)
                 (A) (A) (A) (A) (A) (A) (A) (A) (A) (A) (A) (A)
                 (A) (A) (A) (A) (A) (A) (A) (A) (A) (A) (A) (A)
                 (A) (A) (A) (A) (A) (A) (A) (A) (A) (A) (A) (A)
                 (A) (A)
 The electronic state is 1-A.
 Alpha  occ. eigenvalues --  -14.19864 -10.11552 -10.11552 -10.11548 -10.07418
 Alpha  occ. eigenvalues --  -10.07418 -10.07418 -10.07417 -10.07415 -10.07414
 Alpha  occ. eigenvalues --  -10.07074 -10.07073 -10.07072 -10.07071 -10.07070
 Alpha  occ. eigenvalues --  -10.07068 -10.06908 -10.06907 -10.06903  -1.07947
 Alpha  occ. eigenvalues --   -0.97613  -0.97611  -0.95472  -0.87605  -0.87603
 Alpha  occ. eigenvalues --   -0.86079  -0.85931  -0.85930  -0.82124  -0.74183
 Alpha  occ. eigenvalues --   -0.74181  -0.71828  -0.71181  -0.71180  -0.68276
 Alpha  occ. eigenvalues --   -0.64918  -0.64918  -0.61461  -0.58802  -0.58800
 Alpha  occ. eigenvalues --   -0.57712  -0.55760  -0.55759  -0.54578  -0.53612
 Alpha  occ. eigenvalues --   -0.53611  -0.52892  -0.52545  -0.52544  -0.49303
 Alpha  occ. eigenvalues --   -0.48979  -0.48977  -0.47009  -0.45686  -0.45684
 Alpha  occ. eigenvalues --   -0.45275  -0.43975  -0.43973  -0.41523  -0.36134
 Alpha  occ. eigenvalues --   -0.36132  -0.36102  -0.34808  -0.34807  -0.27461
 Alpha virt. eigenvalues --    0.04655   0.05054   0.05055   0.07346   0.07348
 Alpha virt. eigenvalues --    0.10156   0.12718   0.13655   0.13657   0.15955
 Alpha virt. eigenvalues --    0.15956   0.15992   0.16487   0.17677   0.17678
 Alpha virt. eigenvalues --    0.18725   0.18725   0.18924   0.19400   0.20332
 Alpha virt. eigenvalues --    0.20332   0.22584   0.22584   0.24628   0.24821
 Alpha virt. eigenvalues --    0.27003   0.27003   0.27554   0.28317   0.28500
 Alpha virt. eigenvalues --    0.28910   0.28912   0.29655   0.29659   0.30654
 Alpha virt. eigenvalues --    0.30660   0.31015   0.32301   0.32304   0.32394
 Alpha virt. eigenvalues --    0.32746   0.32840   0.32840   0.33989   0.34795
 Alpha virt. eigenvalues --    0.34798   0.35582   0.35583   0.37182   0.37182
 Alpha virt. eigenvalues --    0.38124   0.38656   0.38656   0.39897   0.39974
 Alpha virt. eigenvalues --    0.40950   0.41635   0.41638   0.42539   0.42541
 Alpha virt. eigenvalues --    0.43900   0.46230   0.46238   0.46283   0.46990
 Alpha virt. eigenvalues --    0.46993   0.47023   0.48104   0.48105   0.48149
 Alpha virt. eigenvalues --    0.48460   0.49027   0.49037   0.49754   0.50444
 Alpha virt. eigenvalues --    0.50444   0.51483   0.51662   0.51664   0.52119
 Alpha virt. eigenvalues --    0.52121   0.52126   0.53657   0.53658   0.54893
 Alpha virt. eigenvalues --    0.56360   0.56364   0.57378   0.57545   0.57547
 Alpha virt. eigenvalues --    0.58418   0.58540   0.58894   0.58899   0.59428
 Alpha virt. eigenvalues --    0.59873   0.59884   0.60637   0.62757   0.62761
 Alpha virt. eigenvalues --    0.63981   0.64140   0.64418   0.64426   0.67279
 Alpha virt. eigenvalues --    0.67281   0.69497   0.70129   0.72131   0.72134
 Alpha virt. eigenvalues --    0.75570   0.75570   0.76833   0.76840   0.78581
 Alpha virt. eigenvalues --    0.78740   0.78746   0.79334   0.79336   0.79634
 Alpha virt. eigenvalues --    0.80461   0.81583   0.81592   0.84734   0.84760
 Alpha virt. eigenvalues --    0.84933   0.86474   0.86479   0.89849   0.93318
 Alpha virt. eigenvalues --    0.93328   0.94631   0.94770   1.00845   1.00852
 Alpha virt. eigenvalues --    1.02797   1.22670   1.25192   1.25194   1.29013
 Alpha virt. eigenvalues --    1.29019   1.29334   1.32422   1.32426   1.32935
 Alpha virt. eigenvalues --    1.33296   1.33301   1.35012   1.35874   1.36068
 Alpha virt. eigenvalues --    1.36071   1.37425   1.37431   1.37881   1.37884
 Alpha virt. eigenvalues --    1.37967   1.39128   1.39703   1.39705   1.39958
 Alpha virt. eigenvalues --    1.40859   1.40861   1.41739   1.42956   1.43356
 Alpha virt. eigenvalues --    1.44219   1.44228   1.51579   1.51582   1.52150
 Alpha virt. eigenvalues --    1.52756   1.52759   1.53392   1.53396   1.53562
 Alpha virt. eigenvalues --    1.53774   1.53991   1.54183   1.54188   1.55415
 Alpha virt. eigenvalues --    1.55419   1.56319   1.56966   1.56974   1.57084
 Alpha virt. eigenvalues --    1.57962   1.57967   1.59738   1.60444   1.60938
 Alpha virt. eigenvalues --    1.60943   1.62101   1.62105   1.64076   1.64078
 Alpha virt. eigenvalues --    1.64508   1.64551   1.64986   1.64988   1.66147
 Alpha virt. eigenvalues --    1.66341   1.66342   1.67562   1.67566   1.68022
 Alpha virt. eigenvalues --    1.68664   1.69229   1.69237   1.75503   1.76255
 Alpha virt. eigenvalues --    1.76256   1.80052   1.80069   1.85140   1.85150
 Alpha virt. eigenvalues --    1.85717   1.85735   1.86255   1.86257   1.86931
 Alpha virt. eigenvalues --    1.88417   1.88433   1.88435   1.89099   1.90605
 Alpha virt. eigenvalues --    1.90619   1.91117   1.91125   1.91717   1.93377
 Alpha virt. eigenvalues --    1.95902   1.95903   1.97206   1.97294   1.97613
 Alpha virt. eigenvalues --    1.97614   1.99965   2.00217   2.00221   2.01109
 Alpha virt. eigenvalues --    2.01117   2.01343   2.01450   2.01458   2.02034
 Alpha virt. eigenvalues --    2.02681   2.02690   2.03832   2.06681   2.06686
 Alpha virt. eigenvalues --    2.06689   2.08819   2.09030   2.09031   2.11807
 Alpha virt. eigenvalues --    2.11820   2.12972   2.16612   2.16614   2.20694
 Alpha virt. eigenvalues --    2.20802   2.20804   2.24693   2.29117   2.29119
 Alpha virt. eigenvalues --    2.32369   2.33478   2.33485   2.35821   2.38676
 Alpha virt. eigenvalues --    2.38678   2.39880   2.39883   2.40672   2.40672
 Alpha virt. eigenvalues --    2.41107   2.41111   2.43288   2.43432   2.43435
 Alpha virt. eigenvalues --    2.44076   2.45024   2.45705   2.45709   2.46165
 Alpha virt. eigenvalues --    2.46169   2.47292   2.54265   2.54270   2.55189
 Alpha virt. eigenvalues --    2.58700   2.58706   2.59993   2.59995   2.61035
 Alpha virt. eigenvalues --    2.61036   2.61308   2.61963   2.64246   2.64252
 Alpha virt. eigenvalues --    2.65278   2.68606   2.72475   2.72477   2.73501
 Alpha virt. eigenvalues --    2.73736   2.73740   2.73931   2.73932   2.75489
 Alpha virt. eigenvalues --    2.75897   2.76856   2.76857   2.82972   2.83555
 Alpha virt. eigenvalues --    2.83556   2.85943   2.85953   2.87134   2.88224
 Alpha virt. eigenvalues --    2.91090   2.91093   2.93324   2.93682   2.93688
 Alpha virt. eigenvalues --    2.98376   3.05733   3.05747   3.06378   3.06385
 Alpha virt. eigenvalues --    3.09648   3.10950   3.10953   3.11212   3.12237
 Alpha virt. eigenvalues --    3.13681   3.13687   3.17503   3.19074   3.19076
 Alpha virt. eigenvalues --    3.20262   3.22069   3.24029   3.24035   3.26266
 Alpha virt. eigenvalues --    3.26268   3.28449   3.28450   3.29313   3.29314
 Alpha virt. eigenvalues --    3.30208   3.33703   3.41716   3.41721   3.42467
 Alpha virt. eigenvalues --    3.46945   3.49612   3.49616   3.55308   3.61112
 Alpha virt. eigenvalues --    3.63940   3.63952   3.70052   3.70056   3.90637
 Alpha virt. eigenvalues --    4.01192   4.01195  21.27805  21.30449  21.30453
 Alpha virt. eigenvalues --   21.75878  21.79247  21.79249  21.79841  21.87730
 Alpha virt. eigenvalues --   21.87736  21.98691  22.02159  22.04274  22.04279
 Alpha virt. eigenvalues --   22.09986  22.09988  22.15897  22.22325  22.22350
 Alpha virt. eigenvalues --   32.13052
          Condensed to atoms (all electrons):
               1          2          3          4          5          6
     1  N    6.565195   0.149088  -0.002477  -0.002120   0.012609   0.012601
     2  C    0.149088   5.309050   0.417129   0.417151  -0.031013  -0.031014
     3  C   -0.002477   0.417129   5.182594  -0.074489   0.436645  -0.106749
     4  C   -0.002120   0.417151  -0.074489   5.182407  -0.106645   0.436539
     5  C    0.012609  -0.031013   0.436645  -0.106645   5.001585  -0.011909
     6  C    0.012601  -0.031014  -0.106749   0.436539  -0.011909   5.001859
     7  C    0.004983  -0.062499  -0.059533  -0.059524   0.499077   0.498980
     8  H   -0.005134  -0.018877   0.385580   0.008645  -0.027648  -0.000299
     9  H   -0.005110  -0.018880   0.008676   0.385606  -0.000309  -0.027704
    10  H   -0.000478   0.012851  -0.036383  -0.001286   0.405799   0.011156
    11  H   -0.000478   0.012851  -0.001284  -0.036397   0.011154   0.405808
    12  H   -0.000037  -0.005984   0.018200   0.018200  -0.053755  -0.053768
    13  C    0.148695  -0.058456   0.026394  -0.008556  -0.000321  -0.005495
    14  C   -0.002084   0.026373  -0.072102   0.015942  -0.006917   0.003930
    15  C   -0.002435  -0.008777   0.016018  -0.009245   0.000705  -0.000440
    16  C    0.012614  -0.000239  -0.006943   0.000707  -0.000400   0.000106
    17  C    0.012645  -0.005479   0.003929  -0.000437   0.000105  -0.000038
    18  C    0.004982   0.002073  -0.001070   0.000129  -0.000055   0.000014
    19  H   -0.005085   0.001256  -0.000581  -0.000964  -0.001289   0.000154
    20  H   -0.005144  -0.000854   0.000307  -0.000232  -0.000004   0.000004
    21  H   -0.000479  -0.000140   0.000097  -0.000032   0.000023  -0.000001
    22  H   -0.000479   0.000009  -0.000022   0.000001  -0.000001   0.000000
    23  H   -0.000038   0.000017  -0.000014   0.000001  -0.000001  -0.000000
    24  C    0.148642  -0.058456  -0.008655   0.026319  -0.005481  -0.000285
    25  C   -0.002475   0.026401   0.016022  -0.072026   0.003916  -0.006949
    26  C   -0.002059  -0.008647  -0.009260   0.015959  -0.000437   0.000711
    27  C    0.012634  -0.000295   0.000711  -0.006936   0.000105  -0.000404
    28  C    0.012632  -0.005494  -0.000438   0.003927  -0.000038   0.000105
    29  C    0.004980   0.002092   0.000129  -0.001071   0.000015  -0.000054
    30  H   -0.005119   0.001302  -0.000953  -0.000606   0.000155  -0.001291
    31  H   -0.005112  -0.000838  -0.000232   0.000302   0.000004  -0.000004
    32  H   -0.000479  -0.000140  -0.000033   0.000096  -0.000001   0.000023
    33  H   -0.000479   0.000009   0.000001  -0.000022   0.000000  -0.000001
    34  H   -0.000038   0.000017   0.000001  -0.000014  -0.000000  -0.000001
               7          8          9         10         11         12
     1  N    0.004983  -0.005134  -0.005110  -0.000478  -0.000478  -0.000037
     2  C   -0.062499  -0.018877  -0.018880   0.012851   0.012851  -0.005984
     3  C   -0.059533   0.385580   0.008676  -0.036383  -0.001284   0.018200
     4  C   -0.059524   0.008645   0.385606  -0.001286  -0.036397   0.018200
     5  C    0.499077  -0.027648  -0.000309   0.405799   0.011154  -0.053755
     6  C    0.498980  -0.000299  -0.027704   0.011156   0.405808  -0.053768
     7  C    4.972099   0.005425   0.005438  -0.049674  -0.049675   0.420296
     8  H    0.005425   0.484072  -0.000203  -0.004636   0.000008  -0.000070
     9  H    0.005438  -0.000203   0.484135   0.000007  -0.004638  -0.000070
    10  H   -0.049674  -0.004636   0.000007   0.543768  -0.000168  -0.005939
    11  H   -0.049675   0.000008  -0.004638  -0.000168   0.543773  -0.005938
    12  H    0.420296  -0.000070  -0.000070  -0.005939  -0.005938   0.544717
    13  C    0.002096   0.001341  -0.000835  -0.000140   0.000009   0.000017
    14  C   -0.001078  -0.000628   0.000300   0.000096  -0.000022  -0.000014
    15  C    0.000131  -0.000960  -0.000232  -0.000033   0.000001   0.000001
    16  C   -0.000055  -0.001290  -0.000004   0.000023  -0.000001  -0.000001
    17  C    0.000015   0.000156   0.000004  -0.000001   0.000000  -0.000000
    18  C   -0.000009   0.000405  -0.000002  -0.000000   0.000000  -0.000000
    19  H    0.000406   0.000910   0.000004  -0.000033   0.000001   0.000004
    20  H   -0.000002   0.000005  -0.000006  -0.000000  -0.000000   0.000000
    21  H   -0.000000  -0.000032  -0.000000  -0.000000   0.000000  -0.000000
    22  H    0.000000   0.000001  -0.000000   0.000000  -0.000000  -0.000000
    23  H   -0.000000   0.000004   0.000000  -0.000000  -0.000000   0.000000
    24  C    0.002078  -0.000851   0.001303   0.000009  -0.000139   0.000017
    25  C   -0.001064   0.000307  -0.000586  -0.000022   0.000096  -0.000014
    26  C    0.000129  -0.000233  -0.000976   0.000001  -0.000033   0.000001
    27  C   -0.000054  -0.000004  -0.001288  -0.000001   0.000023  -0.000001
    28  C    0.000015   0.000004   0.000155   0.000000  -0.000001  -0.000000
    29  C   -0.000009  -0.000002   0.000405   0.000000  -0.000000  -0.000000
    30  H    0.000405   0.000004   0.000910   0.000001  -0.000032   0.000004
    31  H   -0.000002  -0.000006   0.000005  -0.000000  -0.000000   0.000000
    32  H   -0.000000  -0.000000  -0.000032   0.000000  -0.000000  -0.000000
    33  H    0.000000  -0.000000   0.000001  -0.000000   0.000000  -0.000000
    34  H   -0.000000   0.000000   0.000004  -0.000000  -0.000000   0.000000
              13         14         15         16         17         18
     1  N    0.148695  -0.002084  -0.002435   0.012614   0.012645   0.004982
     2  C   -0.058456   0.026373  -0.008777  -0.000239  -0.005479   0.002073
     3  C    0.026394  -0.072102   0.016018  -0.006943   0.003929  -0.001070
     4  C   -0.008556   0.015942  -0.009245   0.000707  -0.000437   0.000129
     5  C   -0.000321  -0.006917   0.000705  -0.000400   0.000105  -0.000055
     6  C   -0.005495   0.003930  -0.000440   0.000106  -0.000038   0.000014
     7  C    0.002096  -0.001078   0.000131  -0.000055   0.000015  -0.000009
     8  H    0.001341  -0.000628  -0.000960  -0.001290   0.000156   0.000405
     9  H   -0.000835   0.000300  -0.000232  -0.000004   0.000004  -0.000002
    10  H   -0.000140   0.000096  -0.000033   0.000023  -0.000001  -0.000000
    11  H    0.000009  -0.000022   0.000001  -0.000001   0.000000   0.000000
    12  H    0.000017  -0.000014   0.000001  -0.000001  -0.000000  -0.000000
    13  C    5.310517   0.417138   0.417176  -0.031024  -0.030987  -0.062521
    14  C    0.417138   5.181797  -0.074268   0.436549  -0.106603  -0.059536
    15  C    0.417176  -0.074268   5.181494  -0.106710   0.436503  -0.059489
    16  C   -0.031024   0.436549  -0.106710   5.001953  -0.011929   0.498885
    17  C   -0.030987  -0.106603   0.436503  -0.011929   5.001904   0.498976
    18  C   -0.062521  -0.059536  -0.059489   0.498885   0.498976   4.972183
    19  H   -0.018911   0.385709   0.008691  -0.027780  -0.000317   0.005455
    20  H   -0.018860   0.008677   0.385656  -0.000308  -0.027789   0.005439
    21  H    0.012857  -0.036390  -0.001284   0.405811   0.011155  -0.049687
    22  H    0.012851  -0.001282  -0.036365   0.011158   0.405792  -0.049686
    23  H   -0.005981   0.018190   0.018191  -0.053742  -0.053736   0.420283
    24  C   -0.058604  -0.008626   0.026497  -0.005509  -0.000340   0.002100
    25  C   -0.008714  -0.009244   0.015935  -0.000437   0.000710   0.000129
    26  C    0.026412   0.015898  -0.071954   0.003934  -0.006904  -0.001078
    27  C   -0.005498  -0.000436   0.003935  -0.000038   0.000106   0.000015
    28  C   -0.000314   0.000709  -0.006906   0.000105  -0.000399  -0.000054
    29  C    0.002085   0.000129  -0.001077   0.000015  -0.000054  -0.000010
    30  H   -0.000857  -0.000233   0.000311   0.000004  -0.000004  -0.000002
    31  H    0.001305  -0.000979  -0.000574   0.000153  -0.001290   0.000406
    32  H    0.000009   0.000001  -0.000022   0.000000  -0.000001   0.000000
    33  H   -0.000140  -0.000033   0.000098  -0.000001   0.000023  -0.000000
    34  H    0.000017   0.000001  -0.000014  -0.000000  -0.000001  -0.000000
              19         20         21         22         23         24
     1  N   -0.005085  -0.005144  -0.000479  -0.000479  -0.000038   0.148642
     2  C    0.001256  -0.000854  -0.000140   0.000009   0.000017  -0.058456
     3  C   -0.000581   0.000307   0.000097  -0.000022  -0.000014  -0.008655
     4  C   -0.000964  -0.000232  -0.000032   0.000001   0.000001   0.026319
     5  C   -0.001289  -0.000004   0.000023  -0.000001  -0.000001  -0.005481
     6  C    0.000154   0.000004  -0.000001   0.000000  -0.000000  -0.000285
     7  C    0.000406  -0.000002  -0.000000   0.000000  -0.000000   0.002078
     8  H    0.000910   0.000005  -0.000032   0.000001   0.000004  -0.000851
     9  H    0.000004  -0.000006  -0.000000  -0.000000   0.000000   0.001303
    10  H   -0.000033  -0.000000  -0.000000   0.000000  -0.000000   0.000009
    11  H    0.000001  -0.000000   0.000000  -0.000000  -0.000000  -0.000139
    12  H    0.000004   0.000000  -0.000000  -0.000000   0.000000   0.000017
    13  C   -0.018911  -0.018860   0.012857   0.012851  -0.005981  -0.058604
    14  C    0.385709   0.008677  -0.036390  -0.001282   0.018190  -0.008626
    15  C    0.008691   0.385656  -0.001284  -0.036365   0.018191   0.026497
    16  C   -0.027780  -0.000308   0.405811   0.011158  -0.053742  -0.005509
    17  C   -0.000317  -0.027789   0.011155   0.405792  -0.053736  -0.000340
    18  C    0.005455   0.005439  -0.049687  -0.049686   0.420283   0.002100
    19  H    0.484202  -0.000203  -0.004643   0.000007  -0.000070  -0.000841
    20  H   -0.000203   0.484234   0.000008  -0.004637  -0.000070   0.001349
    21  H   -0.004643   0.000008   0.543765  -0.000168  -0.005936   0.000009
    22  H    0.000007  -0.004637  -0.000168   0.543755  -0.005938  -0.000141
    23  H   -0.000070  -0.000070  -0.005936  -0.005938   0.544671   0.000017
    24  C   -0.000841   0.001349   0.000009  -0.000141   0.000017   5.310435
    25  C   -0.000233  -0.000967   0.000001  -0.000033   0.000001   0.417330
    26  C    0.000305  -0.000606  -0.000022   0.000097  -0.000014   0.417105
    27  C    0.000004   0.000157   0.000000  -0.000001  -0.000000  -0.030996
    28  C   -0.000004  -0.001292  -0.000001   0.000023  -0.000001  -0.031046
    29  C   -0.000002   0.000404   0.000000  -0.000000  -0.000000  -0.062517
    30  H   -0.000006   0.000005  -0.000000  -0.000000   0.000000  -0.018884
    31  H    0.000005   0.000908   0.000001  -0.000032   0.000004  -0.018877
    32  H   -0.000000   0.000001  -0.000000   0.000000  -0.000000   0.012843
    33  H   -0.000000  -0.000032   0.000000  -0.000000  -0.000000   0.012858
    34  H    0.000000   0.000004  -0.000000  -0.000000   0.000000  -0.005982
              25         26         27         28         29         30
     1  N   -0.002475  -0.002059   0.012634   0.012632   0.004980  -0.005119
     2  C    0.026401  -0.008647  -0.000295  -0.005494   0.002092   0.001302
     3  C    0.016022  -0.009260   0.000711  -0.000438   0.000129  -0.000953
     4  C   -0.072026   0.015959  -0.006936   0.003927  -0.001071  -0.000606
     5  C    0.003916  -0.000437   0.000105  -0.000038   0.000015   0.000155
     6  C   -0.006949   0.000711  -0.000404   0.000105  -0.000054  -0.001291
     7  C   -0.001064   0.000129  -0.000054   0.000015  -0.000009   0.000405
     8  H    0.000307  -0.000233  -0.000004   0.000004  -0.000002   0.000004
     9  H   -0.000586  -0.000976  -0.001288   0.000155   0.000405   0.000910
    10  H   -0.000022   0.000001  -0.000001   0.000000   0.000000   0.000001
    11  H    0.000096  -0.000033   0.000023  -0.000001  -0.000000  -0.000032
    12  H   -0.000014   0.000001  -0.000001  -0.000000  -0.000000   0.000004
    13  C   -0.008714   0.026412  -0.005498  -0.000314   0.002085  -0.000857
    14  C   -0.009244   0.015898  -0.000436   0.000709   0.000129  -0.000233
    15  C    0.015935  -0.071954   0.003935  -0.006906  -0.001077   0.000311
    16  C   -0.000437   0.003934  -0.000038   0.000105   0.000015   0.000004
    17  C    0.000710  -0.006904   0.000106  -0.000399  -0.000054  -0.000004
    18  C    0.000129  -0.001078   0.000015  -0.000054  -0.000010  -0.000002
    19  H   -0.000233   0.000305   0.000004  -0.000004  -0.000002  -0.000006
    20  H   -0.000967  -0.000606   0.000157  -0.001292   0.000404   0.000005
    21  H    0.000001  -0.000022   0.000000  -0.000001   0.000000  -0.000000
    22  H   -0.000033   0.000097  -0.000001   0.000023  -0.000000  -0.000000
    23  H    0.000001  -0.000014  -0.000000  -0.000001  -0.000000   0.000000
    24  C    0.417330   0.417105  -0.030996  -0.031046  -0.062517  -0.018884
    25  C    5.181799  -0.074306   0.436479  -0.106654  -0.059526   0.385669
    26  C   -0.074306   5.181323  -0.106615   0.436565  -0.059508   0.008671
    27  C    0.436479  -0.106615   5.001903  -0.011887   0.498938  -0.027735
    28  C   -0.106654   0.436565  -0.011887   5.002013   0.498836  -0.000308
    29  C   -0.059526  -0.059508   0.498938   0.498836   4.972256   0.005437
    30  H    0.385669   0.008671  -0.027735  -0.000308   0.005437   0.484140
    31  H    0.008689   0.385703  -0.000315  -0.027823   0.005452  -0.000203
    32  H   -0.036363  -0.001282   0.405793   0.011154  -0.049676  -0.004633
    33  H   -0.001282  -0.036379   0.011156   0.405805  -0.049697   0.000008
    34  H    0.018196   0.018189  -0.053738  -0.053748   0.420285  -0.000070
              31         32         33         34
     1  N   -0.005112  -0.000479  -0.000479  -0.000038
     2  C   -0.000838  -0.000140   0.000009   0.000017
     3  C   -0.000232  -0.000033   0.000001   0.000001
     4  C    0.000302   0.000096  -0.000022  -0.000014
     5  C    0.000004  -0.000001   0.000000  -0.000000
     6  C   -0.000004   0.000023  -0.000001  -0.000001
     7  C   -0.000002  -0.000000   0.000000  -0.000000
     8  H   -0.000006  -0.000000  -0.000000   0.000000
     9  H    0.000005  -0.000032   0.000001   0.000004
    10  H   -0.000000   0.000000  -0.000000  -0.000000
    11  H   -0.000000  -0.000000   0.000000  -0.000000
    12  H    0.000000  -0.000000  -0.000000   0.000000
    13  C    0.001305   0.000009  -0.000140   0.000017
    14  C   -0.000979   0.000001  -0.000033   0.000001
    15  C   -0.000574  -0.000022   0.000098  -0.000014
    16  C    0.000153   0.000000  -0.000001  -0.000000
    17  C   -0.001290  -0.000001   0.000023  -0.000001
    18  C    0.000406   0.000000  -0.000000  -0.000000
    19  H    0.000005  -0.000000  -0.000000   0.000000
    20  H    0.000908   0.000001  -0.000032   0.000004
    21  H    0.000001  -0.000000   0.000000  -0.000000
    22  H   -0.000032   0.000000  -0.000000  -0.000000
    23  H    0.000004  -0.000000  -0.000000   0.000000
    24  C   -0.018877   0.012843   0.012858  -0.005982
    25  C    0.008689  -0.036363  -0.001282   0.018196
    26  C    0.385703  -0.001282  -0.036379   0.018189
    27  C   -0.000315   0.405793   0.011156  -0.053738
    28  C   -0.027823   0.011154   0.405805  -0.053748
    29  C    0.005452  -0.049676  -0.049697   0.420285
    30  H   -0.000203  -0.004633   0.000008  -0.000070
    31  H    0.484266   0.000007  -0.004638  -0.000070
    32  H    0.000007   0.543742  -0.000168  -0.005938
    33  H   -0.004638  -0.000168   0.543753  -0.005937
    34  H   -0.000070  -0.005938  -0.005937   0.544681
 Mulliken charges:
               1
     1  N   -0.054958
     2  C   -0.061588
     3  C   -0.131214
     4  C   -0.131330
     5  C   -0.125674
     6  C   -0.125584
     7  C   -0.128392
     8  H    0.174007
     9  H    0.173924
    10  H    0.125081
    11  H    0.125085
    12  H    0.124135
    13  C   -0.062705
    14  C   -0.130964
    15  C   -0.130557
    16  C   -0.125606
    17  C   -0.125713
    18  C   -0.128273
    19  H    0.173848
    20  H    0.173849
    21  H    0.125091
    22  H    0.125091
    23  H    0.124161
    24  C   -0.062681
    25  C   -0.130789
    26  C   -0.130692
    27  C   -0.125715
    28  C   -0.125640
    29  C   -0.128254
    30  H    0.173914
    31  H    0.173787
    32  H    0.125099
    33  H    0.125100
    34  H    0.124157
 Sum of Mulliken charges =  -0.00000
 Mulliken charges with hydrogens summed into heavy atoms:
               1
     1  N   -0.054958
     2  C   -0.061588
     3  C    0.042794
     4  C    0.042594
     5  C   -0.000593
     6  C   -0.000499
     7  C   -0.004257
    13  C   -0.062705
    14  C    0.042884
    15  C    0.043292
    16  C   -0.000516
    17  C   -0.000622
    18  C   -0.004112
    24  C   -0.062681
    25  C    0.043125
    26  C    0.043095
    27  C   -0.000616
    28  C   -0.000540
    29  C   -0.004097
 Electronic spatial extent (au):  <R**2>=           4958.2957
 Charge=             -0.0000 electrons
 Dipole moment (field-independent basis, Debye):
    X=              0.0011    Y=             -0.0027    Z=              0.0007  Tot=              0.0030
 Quadrupole moment (field-independent basis, Debye-Ang):
   XX=           -102.5926   YY=           -102.6170   ZZ=           -110.7607
   XY=              0.0068   XZ=              0.0020   YZ=              0.0003
 Traceless Quadrupole moment (field-independent basis, Debye-Ang):
   XX=              2.7308   YY=              2.7064   ZZ=             -5.4372
   XY=              0.0068   XZ=              0.0020   YZ=              0.0003
 Octapole moment (field-independent basis, Debye-Ang**2):
  XXX=             12.9558  YYY=             10.6671  ZZZ=             -0.0092  XYY=            -12.9516
  XXY=            -10.6626  XXZ=              0.0079  XZZ=              0.0161  YZZ=             -0.0527
  YYZ=              0.0188  XYZ=              0.0117
 Hexadecapole moment (field-independent basis, Debye-Ang**3):
 XXXX=          -3036.2480 YYYY=          -3036.4379 ZZZZ=           -463.5972 XXXY=             -0.0795
 XXXZ=             54.8902 YYYX=              0.1598 YYYZ=            -66.8785 ZZZX=              0.0747
 ZZZY=              0.0269 XXYY=          -1012.0441 XXZZ=           -614.9593 YYZZ=           -615.0881
 XXYZ=             66.8361 YYXZ=            -54.9750 ZZXY=              0.0456
 N-N= 1.298220548022D+03 E-N=-4.335560999468D+03  KE= 7.452430118595D+02
 No NMR shielding tensors so no spin-rotation constants.
 Leave Link  601 at Sun Jan 17 19:56:36 2021, MaxMem=  4026531840 cpu:               2.0 elap:               0.3
 (Enter /opt/ohpc/pub/libs/gaussian/g16-A.03/sandybridge/g16/l9999.exe)

 Test job not archived.
 1\1\GINC-CASCADEB040\SP\RLC-wHPBE\TZVP\C18H15N1\RDU230\17-Jan-2021\0\\
 #P LC-wHPBE/TZVP iop(3/107=0328100000, 3/108=0328100000) scf=(conver=6
 ,fermi,ndamp=35,noincfock,novaracc,vshift=500,xqc)\\H15 C18 N1\\0,1\N,
 0,0.000022,-0.000126,-0.001279\C,0,0.411521,-1.356839,-0.000484\C,0,1.
 495533,-1.769287,0.781179\C,0,-0.26032,-2.302689,-0.781717\C,0,1.90121
 8,-3.097977,0.77159\C,0,0.140608,-3.632811,-0.770872\C,0,1.225282,-4.0
 3895,0.000666\H,0,2.020108,-1.039002,1.394849\H,0,-1.101816,-1.987296,
 -1.396157\H,0,2.748094,-3.402056,1.385878\H,0,-0.394485,-4.35669,-1.38
 4611\H,0,1.541424,-5.08084,0.001027\C,0,0.969124,1.03471,-0.000488\C,0
 ,2.123037,0.926935,-0.78345\C,0,0.785335,2.178692,0.782922\C,0,3.07444
 4,1.939229,-0.772694\C,0,1.733248,3.194302,0.773528\C,0,2.885092,3.080
 453,0.000886\H,0,2.269922,0.041314,-1.399284\H,0,-0.10857,2.266902,1.3
 98014\H,0,3.967862,1.838651,-1.388087\H,0,1.574087,4.078874,1.389358\H
 ,0,3.629424,3.875076,0.001646\C,0,-1.380731,0.321945,-0.000436\C,0,-2.
 279686,-0.409002,0.782988\C,0,-1.864017,1.375244,-0.783483\C,0,-3.6331
 85,-0.0958,0.773256\C,0,-3.216365,1.693293,-0.772877\C,0,-4.110212,0.9
 58658,0.000466\H,0,-1.909274,-1.227214,1.398174\H,0,-1.170181,1.945112
 ,-1.399095\H,0,-4.319851,-0.675761,1.389003\H,0,-3.575887,2.517271,-1.
 388348\H,0,-5.170565,1.205911,0.000686\\Version=EM64L-G16RevA.03\State
 =1-A\HF=-749.3239647\RMSD=6.385e-07\Dipole=-0.0004354,0.0010676,0.0002
 797\Quadrupole=2.030278,2.0121767,-4.0424547,0.0050859,-0.0014541,-0.0
 002519\PG=C01 [X(C18H15N1)]\\@


 A leading authority is anyone who has guessed right more than once.
 -- Frank A. Clark
 Job cpu time:       0 days  0 hours 37 minutes 41.9 seconds.
 Elapsed time:       0 days  0 hours  4 minutes 44.0 seconds.
 File lengths (MBytes):  RWF=    116 Int=      0 D2E=      0 Chk=     20 Scr=      8
 Normal termination of Gaussian 16 at Sun Jan 17 19:56:36 2021.
