 Entering Gaussian System, Link 0=g16
 Input=mol_NN_pa_frag_tune_n3.gjf
 Output=mol_NN_pa_frag_tune_n3.log
 Initial command:
 /opt/ohpc/pub/libs/gaussian/g16-A.03/sandybridge/g16/l1.exe "/mnt/gpfs2_4m/scratch/rdu230/ondemand/projects/init_structures/wtuning/mol_NN_pa_frag/tuning_mol_NN_pa_frag_ocycle0/Gau-316028.inp" -scrdir="/mnt/gpfs2_4m/scratch/rdu230/ondemand/projects/init_structures/wtuning/mol_NN_pa_frag/tuning_mol_NN_pa_frag_ocycle0/"
 Entering Link 1 = /opt/ohpc/pub/libs/gaussian/g16-A.03/sandybridge/g16/l1.exe PID=    316029.
  
 Copyright (c) 1988,1990,1992,1993,1995,1998,2003,2009,2016,
            Gaussian, Inc.  All Rights Reserved.
  
 This is part of the Gaussian(R) 16 program.  It is based on
 the Gaussian(R) 09 system (copyright 2009, Gaussian, Inc.),
 the Gaussian(R) 03 system (copyright 2003, Gaussian, Inc.),
 the Gaussian(R) 98 system (copyright 1998, Gaussian, Inc.),
 the Gaussian(R) 94 system (copyright 1995, Gaussian, Inc.),
 the Gaussian 92(TM) system (copyright 1992, Gaussian, Inc.),
 the Gaussian 90(TM) system (copyright 1990, Gaussian, Inc.),
 the Gaussian 88(TM) system (copyright 1988, Gaussian, Inc.),
 the Gaussian 86(TM) system (copyright 1986, Carnegie Mellon
 University), and the Gaussian 82(TM) system (copyright 1983,
 Carnegie Mellon University). Gaussian is a federally registered
 trademark of Gaussian, Inc.
  
 This software contains proprietary and confidential information,
 including trade secrets, belonging to Gaussian, Inc.
  
 This software is provided under written license and may be
 used, copied, transmitted, or stored only in accord with that
 written license.
  
 The following legend is applicable only to US Government
 contracts under FAR:
  
                    RESTRICTED RIGHTS LEGEND
  
 Use, reproduction and disclosure by the US Government is
 subject to restrictions as set forth in subparagraphs (a)
 and (c) of the Commercial Computer Software - Restricted
 Rights clause in FAR 52.227-19.
  
 Gaussian, Inc.
 340 Quinnipiac St., Bldg. 40, Wallingford CT 06492
  
  
 ---------------------------------------------------------------
 Warning -- This program may not be used in any manner that
 competes with the business of Gaussian, Inc. or will provide
 assistance to any competitor of Gaussian, Inc.  The licensee
 of this program is prohibited from giving any competitor of
 Gaussian, Inc. access to this program.  By using this program,
 the user acknowledges that Gaussian, Inc. is engaged in the
 business of creating and licensing software in the field of
 computational chemistry and represents and warrants to the
 licensee that it is not a competitor of Gaussian, Inc. and that
 it will not use this program in any manner prohibited above.
 ---------------------------------------------------------------
  

 Cite this work as:
 Gaussian 16, Revision A.03,
 M. J. Frisch, G. W. Trucks, H. B. Schlegel, G. E. Scuseria, 
 M. A. Robb, J. R. Cheeseman, G. Scalmani, V. Barone, 
 G. A. Petersson, H. Nakatsuji, X. Li, M. Caricato, A. V. Marenich, 
 J. Bloino, B. G. Janesko, R. Gomperts, B. Mennucci, H. P. Hratchian, 
 J. V. Ortiz, A. F. Izmaylov, J. L. Sonnenberg, D. Williams-Young, 
 F. Ding, F. Lipparini, F. Egidi, J. Goings, B. Peng, A. Petrone, 
 T. Henderson, D. Ranasinghe, V. G. Zakrzewski, J. Gao, N. Rega, 
 G. Zheng, W. Liang, M. Hada, M. Ehara, K. Toyota, R. Fukuda, 
 J. Hasegawa, M. Ishida, T. Nakajima, Y. Honda, O. Kitao, H. Nakai, 
 T. Vreven, K. Throssell, J. A. Montgomery, Jr., J. E. Peralta, 
 F. Ogliaro, M. J. Bearpark, J. J. Heyd, E. N. Brothers, K. N. Kudin, 
 V. N. Staroverov, T. A. Keith, R. Kobayashi, J. Normand, 
 K. Raghavachari, A. P. Rendell, J. C. Burant, S. S. Iyengar, 
 J. Tomasi, M. Cossi, J. M. Millam, M. Klene, C. Adamo, R. Cammi, 
 J. W. Ochterski, R. L. Martin, K. Morokuma, O. Farkas, 
 J. B. Foresman, and D. J. Fox, Gaussian, Inc., Wallingford CT, 2016.
 
 ******************************************
 Gaussian 16:  EM64L-G16RevA.03 25-Dec-2016
                17-Jan-2021 
 ******************************************
 %mem=30GB
 %nproc=8
 Will use up to    8 processors via shared memory.
 ----------------------------------------------------------------------
 #P LC-wHPBE/TZVP iop(3/107=0218600000, 3/108=0218600000) scf=(conver=6
 ,fermi,ndamp=35,noincfock,novaracc,vshift=500,xqc)
 ----------------------------------------------------------------------
 1/38=1,172=1/1;
 2/12=2,17=6,18=5,40=1/2;
 3/5=19,7=101,11=2,25=1,30=1,74=-71,107=218600000,108=218600000/1,2,3;
 4//1;
 5/5=100002,6=6,8=3,10=500,13=1,18=-1,22=13,38=1,93=35/2,8;
 6/7=2,8=2,9=2,10=2,28=1/1;
 99/5=1,9=1/99;
 Leave Link    1 at Sun Jan 17 20:15:44 2021, MaxMem=  4026531840 cpu:               1.2 elap:               0.2
 (Enter /opt/ohpc/pub/libs/gaussian/g16-A.03/sandybridge/g16/l101.exe)
 ----------
 H15 C18 N1
 ----------
 Symbolic Z-matrix:
 Charge =  0 Multiplicity = 1
 N                     0.00002  -0.00013  -0.00128 
 C                     0.41152  -1.35684  -0.00048 
 C                     1.49553  -1.76929   0.78118 
 C                    -0.26032  -2.30269  -0.78172 
 C                     1.90122  -3.09798   0.77159 
 C                     0.14061  -3.63281  -0.77087 
 C                     1.22528  -4.03895   0.00067 
 H                     2.02011  -1.039     1.39485 
 H                    -1.10182  -1.9873   -1.39616 
 H                     2.74809  -3.40206   1.38588 
 H                    -0.39449  -4.35669  -1.38461 
 H                     1.54142  -5.08084   0.00103 
 C                     0.96912   1.03471  -0.00049 
 C                     2.12304   0.92694  -0.78345 
 C                     0.78534   2.17869   0.78292 
 C                     3.07444   1.93923  -0.77269 
 C                     1.73325   3.1943    0.77353 
 C                     2.88509   3.08045   0.00089 
 H                     2.26992   0.04131  -1.39928 
 H                    -0.10857   2.2669    1.39801 
 H                     3.96786   1.83865  -1.38809 
 H                     1.57409   4.07887   1.38936 
 H                     3.62942   3.87508   0.00165 
 C                    -1.38073   0.32195  -0.00044 
 C                    -2.27969  -0.409     0.78299 
 C                    -1.86402   1.37524  -0.78348 
 C                    -3.63319  -0.0958    0.77326 
 C                    -3.21637   1.69329  -0.77288 
 C                    -4.11021   0.95866   0.00047 
 H                    -1.90927  -1.22721   1.39817 
 H                    -1.17018   1.94511  -1.3991 
 H                    -4.31985  -0.67576   1.389 
 H                    -3.57589   2.51727  -1.38835 
 H                    -5.17056   1.20591   0.00069 
 
 ITRead=  0  0  0  0  0  0  0  0  0  0  0  0  0  0  0  0  0  0  0  0
 ITRead=  0  0  0  0  0  0  0  0  0  0  0  0  0  0
 MicOpt= -1 -1 -1 -1 -1 -1 -1 -1 -1 -1 -1 -1 -1 -1 -1 -1 -1 -1 -1 -1
 MicOpt= -1 -1 -1 -1 -1 -1 -1 -1 -1 -1 -1 -1 -1 -1
 NAtoms=     34 NQM=       34 NQMF=       0 NMMI=      0 NMMIF=      0
                NMic=       0 NMicF=      0.
                    Isotopes and Nuclear Properties:
 (Nuclear quadrupole moments (NQMom) in fm**2, nuclear magnetic moments (NMagM)
  in nuclear magnetons)

  Atom         1           2           3           4           5           6           7           8           9          10
 IAtWgt=          14          12          12          12          12          12          12           1           1           1
 AtmWgt=  14.0030740  12.0000000  12.0000000  12.0000000  12.0000000  12.0000000  12.0000000   1.0078250   1.0078250   1.0078250
 NucSpn=           2           0           0           0           0           0           0           1           1           1
 AtZEff=  -0.0000000  -0.0000000  -0.0000000  -0.0000000  -0.0000000  -0.0000000  -0.0000000  -0.0000000  -0.0000000  -0.0000000
 NQMom=    2.0440000   0.0000000   0.0000000   0.0000000   0.0000000   0.0000000   0.0000000   0.0000000   0.0000000   0.0000000
 NMagM=    0.4037610   0.0000000   0.0000000   0.0000000   0.0000000   0.0000000   0.0000000   2.7928460   2.7928460   2.7928460
 AtZNuc=   7.0000000   6.0000000   6.0000000   6.0000000   6.0000000   6.0000000   6.0000000   1.0000000   1.0000000   1.0000000

  Atom        11          12          13          14          15          16          17          18          19          20
 IAtWgt=           1           1          12          12          12          12          12          12           1           1
 AtmWgt=   1.0078250   1.0078250  12.0000000  12.0000000  12.0000000  12.0000000  12.0000000  12.0000000   1.0078250   1.0078250
 NucSpn=           1           1           0           0           0           0           0           0           1           1
 AtZEff=  -0.0000000  -0.0000000  -0.0000000  -0.0000000  -0.0000000  -0.0000000  -0.0000000  -0.0000000  -0.0000000  -0.0000000
 NQMom=    0.0000000   0.0000000   0.0000000   0.0000000   0.0000000   0.0000000   0.0000000   0.0000000   0.0000000   0.0000000
 NMagM=    2.7928460   2.7928460   0.0000000   0.0000000   0.0000000   0.0000000   0.0000000   0.0000000   2.7928460   2.7928460
 AtZNuc=   1.0000000   1.0000000   6.0000000   6.0000000   6.0000000   6.0000000   6.0000000   6.0000000   1.0000000   1.0000000

  Atom        21          22          23          24          25          26          27          28          29          30
 IAtWgt=           1           1           1          12          12          12          12          12          12           1
 AtmWgt=   1.0078250   1.0078250   1.0078250  12.0000000  12.0000000  12.0000000  12.0000000  12.0000000  12.0000000   1.0078250
 NucSpn=           1           1           1           0           0           0           0           0           0           1
 AtZEff=  -0.0000000  -0.0000000  -0.0000000  -0.0000000  -0.0000000  -0.0000000  -0.0000000  -0.0000000  -0.0000000  -0.0000000
 NQMom=    0.0000000   0.0000000   0.0000000   0.0000000   0.0000000   0.0000000   0.0000000   0.0000000   0.0000000   0.0000000
 NMagM=    2.7928460   2.7928460   2.7928460   0.0000000   0.0000000   0.0000000   0.0000000   0.0000000   0.0000000   2.7928460
 AtZNuc=   1.0000000   1.0000000   1.0000000   6.0000000   6.0000000   6.0000000   6.0000000   6.0000000   6.0000000   1.0000000

  Atom        31          32          33          34
 IAtWgt=           1           1           1           1
 AtmWgt=   1.0078250   1.0078250   1.0078250   1.0078250
 NucSpn=           1           1           1           1
 AtZEff=  -0.0000000  -0.0000000  -0.0000000  -0.0000000
 NQMom=    0.0000000   0.0000000   0.0000000   0.0000000
 NMagM=    2.7928460   2.7928460   2.7928460   2.7928460
 AtZNuc=   1.0000000   1.0000000   1.0000000   1.0000000
 Leave Link  101 at Sun Jan 17 20:15:44 2021, MaxMem=  4026531840 cpu:               0.7 elap:               0.1
 (Enter /opt/ohpc/pub/libs/gaussian/g16-A.03/sandybridge/g16/l202.exe)
                          Input orientation:                          
 ---------------------------------------------------------------------
 Center     Atomic      Atomic             Coordinates (Angstroms)
 Number     Number       Type             X           Y           Z
 ---------------------------------------------------------------------
      1          7           0        0.000022   -0.000126   -0.001279
      2          6           0        0.411521   -1.356839   -0.000484
      3          6           0        1.495533   -1.769287    0.781179
      4          6           0       -0.260320   -2.302689   -0.781717
      5          6           0        1.901218   -3.097977    0.771590
      6          6           0        0.140608   -3.632811   -0.770872
      7          6           0        1.225282   -4.038950    0.000666
      8          1           0        2.020108   -1.039002    1.394849
      9          1           0       -1.101816   -1.987296   -1.396157
     10          1           0        2.748094   -3.402056    1.385878
     11          1           0       -0.394485   -4.356690   -1.384611
     12          1           0        1.541424   -5.080840    0.001027
     13          6           0        0.969124    1.034710   -0.000488
     14          6           0        2.123037    0.926935   -0.783450
     15          6           0        0.785335    2.178692    0.782922
     16          6           0        3.074444    1.939229   -0.772694
     17          6           0        1.733248    3.194302    0.773528
     18          6           0        2.885092    3.080453    0.000886
     19          1           0        2.269922    0.041314   -1.399284
     20          1           0       -0.108570    2.266902    1.398014
     21          1           0        3.967862    1.838651   -1.388087
     22          1           0        1.574087    4.078874    1.389358
     23          1           0        3.629424    3.875076    0.001646
     24          6           0       -1.380731    0.321945   -0.000436
     25          6           0       -2.279686   -0.409002    0.782988
     26          6           0       -1.864017    1.375244   -0.783483
     27          6           0       -3.633185   -0.095800    0.773256
     28          6           0       -3.216365    1.693293   -0.772877
     29          6           0       -4.110212    0.958658    0.000466
     30          1           0       -1.909274   -1.227214    1.398174
     31          1           0       -1.170181    1.945112   -1.399095
     32          1           0       -4.319851   -0.675761    1.389003
     33          1           0       -3.575887    2.517271   -1.388348
     34          1           0       -5.170565    1.205911    0.000686
 ---------------------------------------------------------------------
                    Distance matrix (angstroms):
                    1          2          3          4          5
     1  N    0.000000
     2  C    1.417745   0.000000
     3  C    2.445143   1.398639   0.000000
     4  C    2.445129   1.398688   2.410432   0.000000
     5  C    3.715986   2.418027   1.389277   2.778037   0.000000
     6  C    3.715971   2.418045   2.778022   1.389275   2.401038
     7  C    4.220588   2.802843   2.415286   2.415313   1.391633
     8  H    2.666305   2.153027   1.088617   3.396277   2.154522
     9  H    2.666191   2.153037   3.396254   1.088634   3.866646
    10  H    4.587944   3.400660   2.144879   3.867510   1.089501
    11  H    4.587907   3.400670   3.867489   2.144855   3.391727
    12  H    5.309386   3.891641   3.402518   3.402513   2.157537
    13  C    1.417761   2.455693   2.958126   3.641440   4.306275
    14  C    2.445082   2.959383   3.179849   4.013834   4.320564
    15  C    2.445186   3.640528   4.011349   4.860480   5.393381
    16  C    3.715945   4.307149   4.319788   5.395795   5.397658
    17  C    3.716015   4.801973   4.969284   6.050621   6.294521
    18  C    4.220616   5.080169   5.104871   6.283654   6.303570
    19  H    2.666192   2.713877   2.938090   3.503978   3.834551
    20  H    2.666314   3.918902   4.386850   5.065118   5.763123
    21  H    4.587820   4.978369   4.882145   5.949446   5.771093
    22  H    4.588005   5.729764   5.880224   6.985912   7.210814
    23  H    5.309403   6.142299   6.084406   7.342244   7.225163
    24  C    1.417818   2.455704   3.641026   2.958788   4.802404
    25  C    2.445265   2.958854   4.012812   3.179967   4.970983
    26  C    2.445021   3.640802   4.860331   4.012361   6.050203
    27  C    3.716080   4.306802   5.394847   4.320245   6.296244
    28  C    3.715936   4.802234   6.050333   4.970528   7.178531
    29  C    4.220580   5.080118   6.282959   5.105866   7.293025
    30  H    2.666388   2.712773   3.502462   2.937281   4.290945
    31  H    2.665936   3.919282   5.065213   4.387803   6.291114
    32  H    4.588101   4.977994   5.948440   4.882490   6.704478
    33  H    4.587851   5.730124   6.985752   5.881581   8.136032
    34  H    5.309378   6.142261   7.341514   6.085469   8.314317
                    6          7          8          9         10
     6  C    0.000000
     7  C    1.391667   0.000000
     8  H    3.866615   3.402232   0.000000
     9  H    2.154604   3.402320   4.293645   0.000000
    10  H    3.391725   2.154856   2.472664   4.956115   0.000000
    11  H    1.089496   2.154901   4.956078   2.472747   4.296829
    12  H    2.157522   1.088798   4.302131   4.302192   2.488409
    13  C    4.802675   5.080122   2.711423   3.920358   4.977111
    14  C    4.972069   5.106938   2.936067   4.389514   4.882299
    15  C    6.050084   6.282082   3.500382   5.066081   5.946489
    16  C    6.297224   6.305245   3.831413   5.766060   5.770205
    17  C    7.178520   7.292138   4.288262   6.292383   6.702001
    18  C    7.293539   7.310326   4.434100   6.597670   6.630226
    19  H    4.292793   4.438433   3.006105   3.934957   4.454500
    20  H    6.290689   6.595113   3.931956   5.185762   6.348052
    21  H    6.705649   6.632991   4.451895   6.351344   6.053737
    22  H    8.135818   8.243130   5.137277   7.191521   7.572491
    23  H    8.314866   8.271137   5.355285   7.661977   7.459859
    24  C    4.306755   5.080227   3.919784   2.712642   5.730379
    25  C    4.320330   5.106207   4.388565   2.937186   5.882212
    26  C    5.394376   6.282687   5.065584   3.501856   6.985720
    27  C    5.397804   6.304762   5.765044   3.833007   7.212999
    28  C    6.295765   7.292819   6.291671   4.290283   8.136189
    29  C    6.304445   7.310512   6.596649   4.436175   8.244486
    30  H    3.833233   4.436703   3.933888   3.006326   5.140152
    31  H    5.764205   6.595951   5.185461   3.933003   7.190352
    32  H    5.771040   6.632271   6.350359   4.453424   7.575522
    33  H    7.212290   8.244066   7.190857   5.139281   9.095466
    34  H    7.226139   8.271362   7.660881   5.357468   9.265920
                   11         12         13         14         15
    11  H    0.000000
    12  H    2.488399   0.000000
    13  C    5.730831   6.142270   0.000000
    14  C    5.883537   6.086628   1.398628   0.000000
    15  C    6.985799   7.340561   1.398644   2.410366   0.000000
    16  C    7.214327   7.227044   2.418022   1.389255   2.778004
    17  C    8.136479   8.313334   2.418021   2.777961   1.389277
    18  C    8.245382   8.271164   2.802856   2.415274   2.415312
    19  H    5.142151   5.359855   2.153031   1.088647   3.396234
    20  H    7.190043   7.659201   2.153028   3.396228   1.088662
    21  H    7.577093   7.463015   3.400615   2.144806   3.867478
    22  H    9.095544   9.264388   3.400674   3.867449   2.144898
    23  H    9.266905   9.196096   3.891642   3.402516   3.402492
    24  C    4.977775   6.142400   2.455576   3.640812   2.958547
    25  C    4.882285   6.085919   3.640454   4.860291   4.011298
    26  C    5.947768   7.341220   2.959009   4.012179   3.180915
    27  C    5.770680   7.226586   4.801873   6.050075   4.969580
    28  C    6.703694   8.314106   4.306813   5.394129   4.320848
    29  C    6.631590   8.271428   5.079905   6.282430   5.105595
    30  H    4.453324   5.358150   3.918894   5.065508   4.386302
    31  H    6.349380   7.660101   2.713219   3.501569   2.939354
    32  H    6.053980   7.462288   5.729717   6.985628   5.880320
    33  H    7.574475   9.265448   4.978079   5.947504   4.883575
    34  H    7.461402   9.196414   6.142076   7.340935   6.085305
                   16         17         18         19         20
    16  C    0.000000
    17  C    2.401003   0.000000
    18  C    1.391644   1.391647   0.000000
    19  H    2.154519   3.866583   3.402246   0.000000
    20  H    3.866642   2.154611   3.402329   4.293640   0.000000
    21  H    1.089505   3.391735   2.154927   2.472559   4.956113
    22  H    3.391699   1.089517   2.154863   4.956067   2.472782
    23  H    2.157570   2.157484   1.088787   4.302160   4.302170
    24  C    4.802143   4.306544   5.080021   3.919540   2.712363
    25  C    6.049880   5.393286   6.281951   5.065968   3.500352
    26  C    4.970573   4.321293   5.106565   4.387258   2.938635
    27  C    7.177994   6.294710   7.291987   6.291693   4.289009
    28  C    6.295615   5.398432   6.304816   5.763746   3.834082
    29  C    7.292364   6.304106   7.310013   6.595978   4.435965
    30  H    6.290984   5.762634   6.595025   5.186580   3.930825
    31  H    4.290601   3.835449   4.437813   3.931762   3.009051
    32  H    8.135521   7.210839   8.243010   7.191234   5.137532
    33  H    6.703735   5.772261   6.632601   6.348540   4.455198
    34  H    8.313606   7.225899   8.270884   7.660095   5.357427
                   21         22         23         24         25
    21  H    0.000000
    22  H    4.296854   0.000000
    23  H    2.488559   2.488310   0.000000
    24  C    5.730045   4.977649   6.142182   0.000000
    25  C    6.985511   5.946451   7.340395   1.398627   0.000000
    26  C    5.881420   4.883791   6.086336   1.398630   2.410424
    27  C    8.135688   6.702475   8.313166   2.417987   1.389298
    28  C    7.211985   5.771888   7.226679   2.418018   2.778080
    29  C    8.243649   6.631442   8.270880   2.802761   2.415297
    30  H    7.190515   6.347318   7.659036   2.152989   1.088637
    31  H    5.139158   4.456391   5.359388   2.152963   3.396224
    32  H    9.095091   7.572652   9.264224   3.400645   2.144921
    33  H    7.574211   6.056112   7.462722   3.400657   3.867546
    34  H    9.264982   7.461411   9.195882   3.891560   3.402517
                   26         27         28         29         30
    26  C    0.000000
    27  C    2.778014   0.000000
    28  C    1.389285   2.401066   0.000000
    29  C    2.415266   1.391632   1.391657   0.000000
    30  H    3.396242   2.154644   3.866692   3.402316   0.000000
    31  H    1.088640   3.866629   2.154630   3.402300   4.293556
    32  H    3.867485   1.089500   3.391729   2.154834   2.472866
    33  H    2.144898   3.391748   1.089495   2.154897   4.956155
    34  H    3.402478   2.157511   2.157507   1.088799   4.302219
                   31         32         33         34
    31  H    0.000000
    32  H    4.956096   0.000000
    33  H    2.472833   4.296814   0.000000
    34  H    4.302194   2.488338   2.488389   0.000000
 Stoichiometry    C18H15N
 Framework group  C1[X(C18H15N)]
 Deg. of freedom    96
 Full point group                 C1      NOp   1
 Largest Abelian subgroup         C1      NOp   1
 Largest concise Abelian subgroup C1      NOp   1
                         Standard orientation:                         
 ---------------------------------------------------------------------
 Center     Atomic      Atomic             Coordinates (Angstroms)
 Number     Number       Type             X           Y           Z
 ---------------------------------------------------------------------
      1          7           0       -0.000022    0.000126   -0.001279
      2          6           0       -0.411410    1.356873   -0.000484
      3          6           0       -1.495388    1.769410    0.781179
      4          6           0        0.260509    2.302668   -0.781717
      5          6           0       -1.900964    3.098133    0.771590
      6          6           0       -0.140310    3.632823   -0.770872
      7          6           0       -1.224951    4.039050    0.000666
      8          1           0       -2.020023    1.039168    1.394849
      9          1           0        1.101979    1.987206   -1.396157
     10          1           0       -2.747815    3.402281    1.385878
     11          1           0        0.394842    4.356658   -1.384611
     12          1           0       -1.541008    5.080966    0.001027
     13          6           0       -0.969209   -1.034631   -0.000488
     14          6           0       -2.123113   -0.926761   -0.783450
     15          6           0       -0.785513   -2.178628    0.782922
     16          6           0       -3.074603   -1.938977   -0.772694
     17          6           0       -1.733510   -3.194160    0.773528
     18          6           0       -2.885344   -3.080217    0.000886
     19          1           0       -2.269925   -0.041128   -1.399284
     20          1           0        0.108384   -2.266911    1.398014
     21          1           0       -3.968013   -1.838326   -1.388087
     22          1           0       -1.574421   -4.078745    1.389358
     23          1           0       -3.629741   -3.874779    0.001646
     24          6           0        1.380705   -0.322058   -0.000436
     25          6           0        2.279720    0.408815    0.782988
     26          6           0        1.863904   -1.375397   -0.783483
     27          6           0        3.633193    0.095502    0.773256
     28          6           0        3.216226   -1.693556   -0.772877
     29          6           0        4.110133   -0.958995    0.000466
     30          1           0        1.909375    1.227058    1.398174
     31          1           0        1.170022   -1.945208   -1.399095
     32          1           0        4.319906    0.675407    1.389003
     33          1           0        3.575681   -2.517564   -1.388348
     34          1           0        5.170466   -1.206335    0.000686
 ---------------------------------------------------------------------
 Rotational constants (GHZ):           0.4036067           0.4035965           0.2213359
 Leave Link  202 at Sun Jan 17 20:15:45 2021, MaxMem=  4026531840 cpu:               0.2 elap:               0.1
 (Enter /opt/ohpc/pub/libs/gaussian/g16-A.03/sandybridge/g16/l301.exe)
 Standard basis: TZVP (5D, 7F)
 Ernie: Thresh=  0.10000D-02 Tol=  0.10000D-05 Strict=F.
 There are   470 symmetry adapted cartesian basis functions of A   symmetry.
 There are   451 symmetry adapted basis functions of A   symmetry.
   451 basis functions,   785 primitive gaussians,   470 cartesian basis functions
    65 alpha electrons       65 beta electrons
       nuclear repulsion energy      1298.2205480218 Hartrees.
 IExCor=33909 DFT=T Ex+Corr=LC-wHPBE ExCW=0 ScaHFX=  1.000000
 ScaDFX=  1.000000  1.000000  1.000000  1.000000 ScalE2=  1.000000  1.000000
 IRadAn=      5 IRanWt=     -1 IRanGd=            0 ICorTp=0 IEmpDi=  4
 HFx  wShort=  0.000000 wLong=  0.218600 cFull=  0.000000 cShort=  0.000000 cLong=  1.000000
 DFx  wShort=  0.000000 wLong=  0.218600 cFull=  0.000000 cShort=  1.000000 cLong=  0.000000
 NAtoms=   34 NActive=   34 NUniq=   34 SFac= 1.00D+00 NAtFMM=   60 NAOKFM=F Big=F
 Integral buffers will be    131072 words long.
 Raffenetti 2 integral format.
 Two-electron integral symmetry is turned on.
 Leave Link  301 at Sun Jan 17 20:15:45 2021, MaxMem=  4026531840 cpu:               0.5 elap:               0.1
 (Enter /opt/ohpc/pub/libs/gaussian/g16-A.03/sandybridge/g16/l302.exe)
 NPDir=0 NMtPBC=     1 NCelOv=     1 NCel=       1 NClECP=     1 NCelD=      1
         NCelK=      1 NCelE2=     1 NClLst=     1 CellRange=     0.0.
 One-electron integrals computed using PRISM.
 One-electron integral symmetry used in STVInt
 NBasis=   451 RedAO= T EigKep=  8.44D-06  NBF=   451
 NBsUse=   451 1.00D-06 EigRej= -1.00D+00 NBFU=   451
 Precomputing XC quadrature grid using
 IXCGrd= 4 IRadAn=           5 IRanWt=          -1 IRanGd=           0 AccXCQ= 0.00D+00.
 Generated NRdTot=       0 NPtTot=           0 NUsed=           0 NTot=          32
 NSgBfM=   462   462   462   462   462 MxSgAt=    34 MxSgA2=    34.
 Leave Link  302 at Sun Jan 17 20:15:45 2021, MaxMem=  4026531840 cpu:               4.5 elap:               0.6
 (Enter /opt/ohpc/pub/libs/gaussian/g16-A.03/sandybridge/g16/l303.exe)
 DipDrv:  MaxL=1.
 Leave Link  303 at Sun Jan 17 20:15:45 2021, MaxMem=  4026531840 cpu:               0.6 elap:               0.1
 (Enter /opt/ohpc/pub/libs/gaussian/g16-A.03/sandybridge/g16/l401.exe)
 ExpMin= 9.52D-02 ExpMax= 1.97D+04 ExpMxC= 6.73D+02 IAcc=3 IRadAn=         5 AccDes= 0.00D+00
 Harris functional with IExCor=33909 and IRadAn=       5 diagonalized for initial guess.
 HarFok:  IExCor=33909 AccDes= 0.00D+00 IRadAn=         5 IDoV= 1 UseB2=F ITyADJ=14
 ICtDFT=  3500011 ScaDFX=  1.000000  1.000000  1.000000  1.000000
 FoFCou: FMM=F IPFlag=           0 FMFlag=      100000 FMFlg1=           0
         NFxFlg=           0 DoJE=T BraDBF=F KetDBF=T FulRan=T
         wScrn=  0.000000 ICntrl=       500 IOpCl=  0 I1Cent=   200000004 NGrid=           0
         NMat0=    1 NMatS0=      1 NMatT0=    0 NMatD0=    1 NMtDS0=    0 NMtDT0=    0
 Petite list used in FoFCou.
 Harris En= -734.264565422019    
 JPrj=0 DoOrth=F DoCkMO=F.
 Leave Link  401 at Sun Jan 17 20:15:49 2021, MaxMem=  4026531840 cpu:              28.6 elap:               3.7
 (Enter /opt/ohpc/pub/libs/gaussian/g16-A.03/sandybridge/g16/l502.exe)
 Integral symmetry usage will be decided dynamically.
 Closed shell SCF:
 Using DIIS extrapolation, IDIIS=    10.
 NGot=  4026531840 LenX=  4026081620 LenY=  4025860250
 Requested convergence on RMS density matrix=1.00D-06 within  32 cycles.
 Requested convergence on MAX density matrix=1.00D-04.
 Requested convergence on             energy=1.00D-04.
 Virtual orbitals will be shifted by   0.500 hartree.
 No special actions if energy rises.
 Dynamic level shift is on during FON iterations.

 Cycle   1  Pass 1  IDiag  1:
 FoFJK:  IHMeth= 1 ICntrl=       0 DoSepK=T KAlg= 0 I1Cent=           0 FoldK=F
 IRaf=         1 NMat=       1 IRICut=       1 DoRegI=T DoRafI=F ISym2E= 0 IDoP0=0 IntGTp=1.
 FoFCou: FMM=F IPFlag=           0 FMFlag=      100000 FMFlg1=           0
         NFxFlg=           0 DoJE=T BraDBF=F KetDBF=F FulRan=T
         wScrn=  0.000000 ICntrl=       500 IOpCl=  0 I1Cent=           0 NGrid=           0
         NMat0=    1 NMatS0=      1 NMatT0=    0 NMatD0=    1 NMtDS0=    0 NMtDT0=    0
 Symmetry not used in FoFCou.
 E= -748.911434500628    
 DIIS: error= 3.41D-02 at cycle   1 NSaved=   1.
 NSaved= 1 IEnMin= 1 EnMin= -748.911434500628     IErMin= 1 ErrMin= 3.41D-02
 ErrMax= 3.41D-02  0.00D+00 EMaxC= 1.00D+00 BMatC= 3.18D-01 BMatP= 3.18D-01
 IDIUse=1 WtCom= 1.00D+00 WtEn= 0.00D+00
 Coeff-Com:  0.100D+01
 Coeff:      0.100D+01
 Gap=     0.334 Goal=   None    Shift=    0.500
 T= 1573. Gap= 0.778 NK=0 IS=   66 IE=  451 IFin=   65
          NO(<0.9)=   0  NV(>0.1)=   0     65.00e < EF      0.00e >EF  Err=0.0D+00
 GapD=    0.334 DampG=1.000 DampE=0.500 DampFc=0.5000 IDamp=-1.
 Damping current iteration by 5.00D-01
 RMSDP=2.35D-03 MaxDP=6.18D-02              OVMax= 8.47D-02

 Cycle   2  Pass 1  IDiag  1:
 E= -749.110406553823     Delta-E=       -0.198972053196 Rises=F Damp=T
 DIIS: error= 1.58D-02 at cycle   2 NSaved=   2.
 NSaved= 2 IEnMin= 2 EnMin= -749.110406553823     IErMin= 2 ErrMin= 1.58D-02
 ErrMax= 1.58D-02  0.00D+00 EMaxC= 1.00D+00 BMatC= 5.52D-02 BMatP= 3.18D-01
 IDIUse=1 WtCom= 1.00D+00 WtEn= 0.00D+00
 Coeff-Com: -0.568D+00 0.157D+01
 Coeff:     -0.568D+00 0.157D+01
 Gap=     0.303 Goal=   None    Shift=    0.500
 T= 1455. Gap= 0.772 NK=0 IS=   66 IE=  451 IFin=   65
          NO(<0.9)=   0  NV(>0.1)=   0     65.00e < EF      0.00e >EF  Err=0.0D+00
 GapD=    0.303 DampG=1.000 DampE=0.500 DampFc=0.5000 IDamp=-1.
 Damping current iteration by 5.00D-01
 RMSDP=1.51D-03 MaxDP=5.21D-02 DE=-1.99D-01 OVMax= 1.80D-02

 Cycle   3  Pass 1  IDiag  1:
 E= -749.178944049599     Delta-E=       -0.068537495776 Rises=F Damp=T
 DIIS: error= 7.23D-03 at cycle   3 NSaved=   3.
 NSaved= 3 IEnMin= 3 EnMin= -749.178944049599     IErMin= 3 ErrMin= 7.23D-03
 ErrMax= 7.23D-03  0.00D+00 EMaxC= 1.00D+00 BMatC= 1.08D-02 BMatP= 5.52D-02
 IDIUse=1 WtCom= 1.00D+00 WtEn= 0.00D+00
 Coeff-Com:  0.474D-01-0.881D+00 0.183D+01
 Coeff:      0.474D-01-0.881D+00 0.183D+01
 Gap=     0.291 Goal=   None    Shift=    0.500
 T= 1224. Gap= 0.789 NK=0 IS=   66 IE=  451 IFin=   65
          NO(<0.9)=   0  NV(>0.1)=   0     65.00e < EF      0.00e >EF  Err=0.0D+00
 GapD=    0.291 DampG=1.000 DampE=1.000 DampFc=1.0000 IDamp=-1.
 RMSDP=8.32D-04 MaxDP=2.89D-02 DE=-6.85D-02 OVMax= 1.14D-02

 Cycle   4  Pass 1  IDiag  1:
 E= -749.236196423886     Delta-E=       -0.057252374287 Rises=F Damp=F
 DIIS: error= 1.27D-03 at cycle   4 NSaved=   4.
 NSaved= 4 IEnMin= 4 EnMin= -749.236196423886     IErMin= 4 ErrMin= 1.27D-03
 ErrMax= 1.27D-03  0.00D+00 EMaxC= 1.00D+00 BMatC= 4.28D-04 BMatP= 1.08D-02
 IDIUse=1 WtCom= 1.00D+00 WtEn= 0.00D+00
 Coeff-Com:  0.785D-01-0.223D+00 0.194D+00 0.950D+00
 Coeff:      0.785D-01-0.223D+00 0.194D+00 0.950D+00
 Gap=     0.286 Goal=   None    Shift=    0.500
 T=  711. Gap= 0.786 NK=0 IS=   66 IE=  451 IFin=   65
          NO(<0.9)=   0  NV(>0.1)=   0     65.00e < EF      0.00e >EF  Err=0.0D+00
 GapD=    0.286 DampG=1.000 DampE=1.000 DampFc=1.0000 IDamp=-1.
 RMSDP=1.44D-04 MaxDP=2.08D-03 DE=-5.73D-02 OVMax= 5.92D-03

 Cycle   5  Pass 1  IDiag  1:
 E= -749.236690940505     Delta-E=       -0.000494516619 Rises=F Damp=F
 DIIS: error= 1.16D-03 at cycle   5 NSaved=   5.
 NSaved= 5 IEnMin= 5 EnMin= -749.236690940505     IErMin= 5 ErrMin= 1.16D-03
 ErrMax= 1.16D-03  0.00D+00 EMaxC= 1.00D+00 BMatC= 7.02D-05 BMatP= 4.28D-04
 IDIUse=1 WtCom= 1.00D+00 WtEn= 0.00D+00
 Coeff-Com:  0.141D-01 0.960D-02-0.824D-01-0.236D+00 0.129D+01
 Coeff:      0.141D-01 0.960D-02-0.824D-01-0.236D+00 0.129D+01
 Gap=     0.286 Goal=   None    Shift=    0.500
 T=  157. Gap= 0.786 NK=0 IS=   66 IE=  451 IFin=   65
          NO(<0.9)=   0  NV(>0.1)=   0     65.00e < EF      0.00e >EF  Err=0.0D+00
 GapD=    0.286 DampG=1.000 DampE=1.000 DampFc=1.0000 IDamp=-1.
 RMSDP=1.16D-04 MaxDP=1.97D-03 DE=-4.95D-04 OVMax= 4.59D-03

 Cycle   6  Pass 1  IDiag  1:
 E= -749.236835086068     Delta-E=       -0.000144145563 Rises=F Damp=F
 DIIS: error= 9.82D-04 at cycle   6 NSaved=   6.
 NSaved= 6 IEnMin= 6 EnMin= -749.236835086068     IErMin= 6 ErrMin= 9.82D-04
 ErrMax= 9.82D-04  0.00D+00 EMaxC= 1.00D+00 BMatC= 1.60D-05 BMatP= 7.02D-05
 IDIUse=1 WtCom= 1.00D+00 WtEn= 0.00D+00
 Coeff-Com: -0.128D-01 0.462D-01-0.576D-01-0.269D+00 0.653D-01 0.123D+01
 Coeff:     -0.128D-01 0.462D-01-0.576D-01-0.269D+00 0.653D-01 0.123D+01
 Gap=     0.286 Goal=   None    Shift=    0.500
 RMSDP=7.46D-05 MaxDP=1.52D-03 DE=-1.44D-04 OVMax= 3.86D-03

 Cycle   7  Pass 1  IDiag  1:
 E= -749.236889100958     Delta-E=       -0.000054014889 Rises=F Damp=F
 DIIS: error= 6.78D-04 at cycle   7 NSaved=   7.
 NSaved= 7 IEnMin= 7 EnMin= -749.236889100958     IErMin= 7 ErrMin= 6.78D-04
 ErrMax= 6.78D-04  0.00D+00 EMaxC= 1.00D+00 BMatC= 5.23D-06 BMatP= 1.60D-05
 IDIUse=1 WtCom= 1.00D+00 WtEn= 0.00D+00
 Coeff-Com: -0.624D-02 0.462D-02 0.118D-01 0.577D-01-0.403D+00-0.532D+00
 Coeff-Com:  0.187D+01
 Coeff:     -0.624D-02 0.462D-02 0.118D-01 0.577D-01-0.403D+00-0.532D+00
 Coeff:      0.187D+01
 Gap=     0.286 Goal=   None    Shift=    0.500
 RMSDP=4.58D-05 MaxDP=9.58D-04 DE=-5.40D-05 OVMax= 2.96D-03

 Cycle   8  Pass 1  IDiag  1:
 E= -749.236913609128     Delta-E=       -0.000024508171 Rises=F Damp=F
 DIIS: error= 4.66D-04 at cycle   8 NSaved=   8.
 NSaved= 8 IEnMin= 8 EnMin= -749.236913609128     IErMin= 8 ErrMin= 4.66D-04
 ErrMax= 4.66D-04  0.00D+00 EMaxC= 1.00D+00 BMatC= 2.02D-06 BMatP= 5.23D-06
 IDIUse=1 WtCom= 1.00D+00 WtEn= 0.00D+00
 Coeff-Com:  0.263D-02-0.146D-02-0.567D-02 0.858D-01 0.168D-01-0.427D+00
 Coeff-Com: -0.946D+00 0.227D+01
 Coeff:      0.263D-02-0.146D-02-0.567D-02 0.858D-01 0.168D-01-0.427D+00
 Coeff:     -0.946D+00 0.227D+01
 Gap=     0.286 Goal=   None    Shift=    0.500
 RMSDP=2.18D-05 MaxDP=3.95D-04 DE=-2.45D-05 OVMax= 2.13D-03

 Cycle   9  Pass 1  IDiag  1:
 E= -749.236924084106     Delta-E=       -0.000010474978 Rises=F Damp=F
 DIIS: error= 3.05D-04 at cycle   9 NSaved=   9.
 NSaved= 9 IEnMin= 9 EnMin= -749.236924084106     IErMin= 9 ErrMin= 3.05D-04
 ErrMax= 3.05D-04  0.00D+00 EMaxC= 1.00D+00 BMatC= 8.82D-07 BMatP= 2.02D-06
 IDIUse=1 WtCom= 1.00D+00 WtEn= 0.00D+00
 Coeff-Com:  0.132D-02 0.766D-02-0.196D-01 0.338D-01 0.123D+00-0.129D+00
 Coeff-Com: -0.867D+00 0.357D+00 0.149D+01
 Coeff:      0.132D-02 0.766D-02-0.196D-01 0.338D-01 0.123D+00-0.129D+00
 Coeff:     -0.867D+00 0.357D+00 0.149D+01
 Gap=     0.286 Goal=   None    Shift=    0.500
 RMSDP=9.88D-06 MaxDP=2.24D-04 DE=-1.05D-05 OVMax= 1.37D-03

 Cycle  10  Pass 1  IDiag  1:
 E= -749.236928214938     Delta-E=       -0.000004130831 Rises=F Damp=F
 DIIS: error= 1.96D-04 at cycle  10 NSaved=  10.
 NSaved=10 IEnMin=10 EnMin= -749.236928214938     IErMin=10 ErrMin= 1.96D-04
 ErrMax= 1.96D-04  0.00D+00 EMaxC= 1.00D+00 BMatC= 3.70D-07 BMatP= 8.82D-07
 IDIUse=1 WtCom= 1.00D+00 WtEn= 0.00D+00
 Coeff-Com: -0.107D-02 0.857D-02-0.132D-01-0.729D-02 0.589D-01 0.476D-01
 Coeff-Com: -0.236D-01-0.714D+00-0.258D+00 0.190D+01
 Coeff:     -0.107D-02 0.857D-02-0.132D-01-0.729D-02 0.589D-01 0.476D-01
 Coeff:     -0.236D-01-0.714D+00-0.258D+00 0.190D+01
 Gap=     0.286 Goal=   None    Shift=    0.500
 RMSDP=5.49D-06 MaxDP=1.45D-04 DE=-4.13D-06 OVMax= 8.95D-04

 Cycle  11  Pass 1  IDiag  1:
 E= -749.236929844269     Delta-E=       -0.000001629331 Rises=F Damp=F
 DIIS: error= 1.20D-04 at cycle  11 NSaved=  11.
 NSaved=11 IEnMin=11 EnMin= -749.236929844269     IErMin=11 ErrMin= 1.20D-04
 ErrMax= 1.20D-04  0.00D+00 EMaxC= 1.00D+00 BMatC= 1.60D-07 BMatP= 3.70D-07
 IDIUse=1 WtCom= 1.00D+00 WtEn= 0.00D+00
 Coeff-Com: -0.803D-03 0.180D-02-0.643D-03-0.105D-02-0.228D-01 0.149D-01
 Coeff-Com:  0.202D+00-0.703D-01-0.921D+00-0.203D+00 0.200D+01
 Coeff:     -0.803D-03 0.180D-02-0.643D-03-0.105D-02-0.228D-01 0.149D-01
 Coeff:      0.202D+00-0.703D-01-0.921D+00-0.203D+00 0.200D+01
 Gap=     0.286 Goal=   None    Shift=    0.500
 RMSDP=3.40D-06 MaxDP=8.94D-05 DE=-1.63D-06 OVMax= 5.56D-04

 Cycle  12  Pass 1  IDiag  1:
 E= -749.236930458342     Delta-E=       -0.000000614073 Rises=F Damp=F
 DIIS: error= 7.30D-05 at cycle  12 NSaved=  12.
 NSaved=12 IEnMin=12 EnMin= -749.236930458342     IErMin=12 ErrMin= 7.30D-05
 ErrMax= 7.30D-05  0.00D+00 EMaxC= 1.00D+00 BMatC= 6.88D-08 BMatP= 1.60D-07
 IDIUse=1 WtCom= 1.00D+00 WtEn= 0.00D+00
 Coeff-Com: -0.113D-03 0.684D-03-0.900D-03 0.617D-02-0.120D-01-0.110D-01
 Coeff-Com: -0.457D-02 0.212D+00-0.285D+00-0.235D+00-0.837D+00 0.217D+01
 Coeff:     -0.113D-03 0.684D-03-0.900D-03 0.617D-02-0.120D-01-0.110D-01
 Coeff:     -0.457D-02 0.212D+00-0.285D+00-0.235D+00-0.837D+00 0.217D+01
 Gap=     0.286 Goal=   None    Shift=    0.500
 RMSDP=1.88D-06 MaxDP=5.25D-05 DE=-6.14D-07 OVMax= 3.31D-04

 Cycle  13  Pass 1  IDiag  1:
 E= -749.236930681525     Delta-E=       -0.000000223184 Rises=F Damp=F
 DIIS: error= 4.45D-05 at cycle  13 NSaved=  13.
 NSaved=13 IEnMin=13 EnMin= -749.236930681525     IErMin=13 ErrMin= 4.45D-05
 ErrMax= 4.45D-05  0.00D+00 EMaxC= 1.00D+00 BMatC= 2.85D-08 BMatP= 6.88D-08
 IDIUse=1 WtCom= 1.00D+00 WtEn= 0.00D+00
 Coeff-Com:  0.128D-03 0.424D-03-0.129D-02 0.502D-02 0.109D-02-0.108D-01
 Coeff-Com: -0.794D-01 0.178D+00 0.113D+00-0.787D-01-0.142D+01 0.903D+00
 Coeff-Com:  0.139D+01
 Coeff:      0.128D-03 0.424D-03-0.129D-02 0.502D-02 0.109D-02-0.108D-01
 Coeff:     -0.794D-01 0.178D+00 0.113D+00-0.787D-01-0.142D+01 0.903D+00
 Coeff:      0.139D+01
 Gap=     0.286 Goal=   None    Shift=    0.500
 RMSDP=1.10D-06 MaxDP=3.17D-05 DE=-2.23D-07 OVMax= 1.99D-04

 Cycle  14  Pass 1  IDiag  1:
 E= -749.236930763444     Delta-E=       -0.000000081918 Rises=F Damp=F
 DIIS: error= 2.66D-05 at cycle  14 NSaved=  14.
 NSaved=14 IEnMin=14 EnMin= -749.236930763444     IErMin=14 ErrMin= 2.66D-05
 ErrMax= 2.66D-05  0.00D+00 EMaxC= 1.00D+00 BMatC= 1.06D-08 BMatP= 2.85D-08
 IDIUse=1 WtCom= 1.00D+00 WtEn= 0.00D+00
 Coeff-Com: -0.443D-04 0.282D-03-0.415D-03-0.757D-03 0.242D-02 0.184D-02
 Coeff-Com:  0.545D-02-0.406D-01 0.244D-01 0.372D-01 0.198D+00-0.410D+00
 Coeff-Com: -0.152D+01 0.271D+01
 Coeff:     -0.443D-04 0.282D-03-0.415D-03-0.757D-03 0.242D-02 0.184D-02
 Coeff:      0.545D-02-0.406D-01 0.244D-01 0.372D-01 0.198D+00-0.410D+00
 Coeff:     -0.152D+01 0.271D+01
 Gap=     0.286 Goal=   None    Shift=    0.500
 RMSDP=6.32D-07 MaxDP=1.97D-05 DE=-8.19D-08 OVMax= 1.17D-04

 SCF Done:  E(RLC-wHPBE) =  -749.236930763     A.U. after   14 cycles
            NFock= 14  Conv=0.63D-06     -V/T= 2.0050
 KE= 7.455224219191D+02 PE=-4.335797699381D+03 EE= 1.542817798677D+03
 Leave Link  502 at Sun Jan 17 20:20:26 2021, MaxMem=  4026531840 cpu:            2207.6 elap:             276.7
 (Enter /opt/ohpc/pub/libs/gaussian/g16-A.03/sandybridge/g16/l508.exe)
 QCSCF skips out because SCF is already converged.
 Leave Link  508 at Sun Jan 17 20:20:26 2021, MaxMem=  4026531840 cpu:               0.2 elap:               0.1
 (Enter /opt/ohpc/pub/libs/gaussian/g16-A.03/sandybridge/g16/l601.exe)
 Copying SCF densities to generalized density rwf, IOpCl= 0 IROHF=0.

 **********************************************************************

            Population analysis using the SCF density.

 **********************************************************************

 Orbital symmetries:
       Occupied  (A) (A) (A) (A) (A) (A) (A) (A) (A) (A) (A) (A)
                 (A) (A) (A) (A) (A) (A) (A) (A) (A) (A) (A) (A)
                 (A) (A) (A) (A) (A) (A) (A) (A) (A) (A) (A) (A)
                 (A) (A) (A) (A) (A) (A) (A) (A) (A) (A) (A) (A)
                 (A) (A) (A) (A) (A) (A) (A) (A) (A) (A) (A) (A)
                 (A) (A) (A) (A) (A)
       Virtual   (A) (A) (A) (A) (A) (A) (A) (A) (A) (A) (A) (A)
                 (A) (A) (A) (A) (A) (A) (A) (A) (A) (A) (A) (A)
                 (A) (A) (A) (A) (A) (A) (A) (A) (A) (A) (A) (A)
                 (A) (A) (A) (A) (A) (A) (A) (A) (A) (A) (A) (A)
                 (A) (A) (A) (A) (A) (A) (A) (A) (A) (A) (A) (A)
                 (A) (A) (A) (A) (A) (A) (A) (A) (A) (A) (A) (A)
                 (A) (A) (A) (A) (A) (A) (A) (A) (A) (A) (A) (A)
                 (A) (A) (A) (A) (A) (A) (A) (A) (A) (A) (A) (A)
                 (A) (A) (A) (A) (A) (A) (A) (A) (A) (A) (A) (A)
                 (A) (A) (A) (A) (A) (A) (A) (A) (A) (A) (A) (A)
                 (A) (A) (A) (A) (A) (A) (A) (A) (A) (A) (A) (A)
                 (A) (A) (A) (A) (A) (A) (A) (A) (A) (A) (A) (A)
                 (A) (A) (A) (A) (A) (A) (A) (A) (A) (A) (A) (A)
                 (A) (A) (A) (A) (A) (A) (A) (A) (A) (A) (A) (A)
                 (A) (A) (A) (A) (A) (A) (A) (A) (A) (A) (A) (A)
                 (A) (A) (A) (A) (A) (A) (A) (A) (A) (A) (A) (A)
                 (A) (A) (A) (A) (A) (A) (A) (A) (A) (A) (A) (A)
                 (A) (A) (A) (A) (A) (A) (A) (A) (A) (A) (A) (A)
                 (A) (A) (A) (A) (A) (A) (A) (A) (A) (A) (A) (A)
                 (A) (A) (A) (A) (A) (A) (A) (A) (A) (A) (A) (A)
                 (A) (A) (A) (A) (A) (A) (A) (A) (A) (A) (A) (A)
                 (A) (A) (A) (A) (A) (A) (A) (A) (A) (A) (A) (A)
                 (A) (A) (A) (A) (A) (A) (A) (A) (A) (A) (A) (A)
                 (A) (A) (A) (A) (A) (A) (A) (A) (A) (A) (A) (A)
                 (A) (A) (A) (A) (A) (A) (A) (A) (A) (A) (A) (A)
                 (A) (A) (A) (A) (A) (A) (A) (A) (A) (A) (A) (A)
                 (A) (A) (A) (A) (A) (A) (A) (A) (A) (A) (A) (A)
                 (A) (A) (A) (A) (A) (A) (A) (A) (A) (A) (A) (A)
                 (A) (A) (A) (A) (A) (A) (A) (A) (A) (A) (A) (A)
                 (A) (A) (A) (A) (A) (A) (A) (A) (A) (A) (A) (A)
                 (A) (A) (A) (A) (A) (A) (A) (A) (A) (A) (A) (A)
                 (A) (A) (A) (A) (A) (A) (A) (A) (A) (A) (A) (A)
                 (A) (A)
 The electronic state is 1-A.
 Alpha  occ. eigenvalues --  -14.14149 -10.05291 -10.05291 -10.05288 -10.01236
 Alpha  occ. eigenvalues --  -10.01236 -10.01236 -10.01235 -10.01233 -10.01233
 Alpha  occ. eigenvalues --  -10.00940 -10.00939 -10.00939 -10.00938 -10.00936
 Alpha  occ. eigenvalues --  -10.00934 -10.00761 -10.00760 -10.00756  -1.01698
 Alpha  occ. eigenvalues --   -0.91285  -0.91283  -0.89284  -0.81793  -0.81791
 Alpha  occ. eigenvalues --   -0.80279  -0.80158  -0.80157  -0.76627  -0.69184
 Alpha  occ. eigenvalues --   -0.69182  -0.66829  -0.66258  -0.66256  -0.63541
 Alpha  occ. eigenvalues --   -0.60446  -0.60446  -0.57082  -0.54640  -0.54638
 Alpha  occ. eigenvalues --   -0.53469  -0.51703  -0.51702  -0.50567  -0.49713
 Alpha  occ. eigenvalues --   -0.49711  -0.48955  -0.48645  -0.48644  -0.45376
 Alpha  occ. eigenvalues --   -0.45103  -0.45101  -0.43466  -0.42219  -0.42216
 Alpha  occ. eigenvalues --   -0.41765  -0.40597  -0.40595  -0.38289  -0.33786
 Alpha  occ. eigenvalues --   -0.33784  -0.33744  -0.32513  -0.32511  -0.25482
 Alpha virt. eigenvalues --    0.03150   0.03502   0.03504   0.05626   0.05628
 Alpha virt. eigenvalues --    0.08391   0.11106   0.12055   0.12057   0.14446
 Alpha virt. eigenvalues --    0.14447   0.14584   0.14970   0.16166   0.16167
 Alpha virt. eigenvalues --    0.17233   0.17233   0.17400   0.17876   0.18933
 Alpha virt. eigenvalues --    0.18933   0.19669   0.19669   0.21994   0.22814
 Alpha virt. eigenvalues --    0.25153   0.25153   0.25603   0.26029   0.26585
 Alpha virt. eigenvalues --    0.26944   0.26946   0.27784   0.27787   0.28933
 Alpha virt. eigenvalues --    0.28939   0.28963   0.30245   0.30246   0.30551
 Alpha virt. eigenvalues --    0.30839   0.30868   0.30870   0.31817   0.32458
 Alpha virt. eigenvalues --    0.32463   0.33498   0.33498   0.34858   0.34860
 Alpha virt. eigenvalues --    0.35605   0.36380   0.36382   0.37464   0.37738
 Alpha virt. eigenvalues --    0.38815   0.39156   0.39159   0.39977   0.39980
 Alpha virt. eigenvalues --    0.41508   0.43406   0.43641   0.43647   0.44275
 Alpha virt. eigenvalues --    0.44410   0.44412   0.45592   0.45594   0.45732
 Alpha virt. eigenvalues --    0.45850   0.46617   0.46625   0.47118   0.47827
 Alpha virt. eigenvalues --    0.47828   0.48995   0.49172   0.49174   0.49890
 Alpha virt. eigenvalues --    0.49895   0.50029   0.51404   0.51405   0.52340
 Alpha virt. eigenvalues --    0.53684   0.53686   0.54709   0.54711   0.54714
 Alpha virt. eigenvalues --    0.55705   0.55992   0.56144   0.56149   0.56840
 Alpha virt. eigenvalues --    0.57254   0.57266   0.57912   0.59533   0.59536
 Alpha virt. eigenvalues --    0.61400   0.61488   0.61539   0.61547   0.64458
 Alpha virt. eigenvalues --    0.64459   0.66722   0.67326   0.68915   0.68918
 Alpha virt. eigenvalues --    0.72649   0.72649   0.73868   0.73873   0.75495
 Alpha virt. eigenvalues --    0.75656   0.75662   0.76071   0.76074   0.76106
 Alpha virt. eigenvalues --    0.76526   0.78235   0.78246   0.81764   0.81790
 Alpha virt. eigenvalues --    0.82102   0.83765   0.83770   0.86963   0.90522
 Alpha virt. eigenvalues --    0.90532   0.91534   0.91730   0.97754   0.97761
 Alpha virt. eigenvalues --    0.99893   1.18896   1.21406   1.21407   1.24874
 Alpha virt. eigenvalues --    1.24879   1.25293   1.28257   1.28260   1.28762
 Alpha virt. eigenvalues --    1.29231   1.29235   1.30784   1.31584   1.31941
 Alpha virt. eigenvalues --    1.31944   1.33130   1.33137   1.33768   1.33772
 Alpha virt. eigenvalues --    1.34019   1.35065   1.35617   1.35618   1.35678
 Alpha virt. eigenvalues --    1.36876   1.36878   1.37599   1.38998   1.39093
 Alpha virt. eigenvalues --    1.39953   1.39962   1.47193   1.47196   1.47780
 Alpha virt. eigenvalues --    1.48344   1.48347   1.48955   1.48958   1.49114
 Alpha virt. eigenvalues --    1.49354   1.49635   1.49894   1.49900   1.51011
 Alpha virt. eigenvalues --    1.51014   1.52066   1.52611   1.52619   1.52696
 Alpha virt. eigenvalues --    1.53618   1.53622   1.55457   1.56255   1.56665
 Alpha virt. eigenvalues --    1.56670   1.57731   1.57735   1.59653   1.59655
 Alpha virt. eigenvalues --    1.59955   1.60188   1.60620   1.60622   1.61827
 Alpha virt. eigenvalues --    1.62128   1.62128   1.63184   1.63188   1.63641
 Alpha virt. eigenvalues --    1.64466   1.65000   1.65008   1.71380   1.71926
 Alpha virt. eigenvalues --    1.71927   1.75711   1.75727   1.80634   1.80643
 Alpha virt. eigenvalues --    1.81148   1.81201   1.81710   1.81712   1.82387
 Alpha virt. eigenvalues --    1.83780   1.83923   1.83925   1.84536   1.85991
 Alpha virt. eigenvalues --    1.86005   1.86559   1.86567   1.87105   1.88782
 Alpha virt. eigenvalues --    1.91347   1.91348   1.92684   1.92702   1.93067
 Alpha virt. eigenvalues --    1.93068   1.95313   1.95626   1.95630   1.96535
 Alpha virt. eigenvalues --    1.96543   1.96796   1.96842   1.96850   1.97436
 Alpha virt. eigenvalues --    1.98070   1.98080   1.99209   2.01974   2.01988
 Alpha virt. eigenvalues --    2.01991   2.04023   2.04377   2.04378   2.07087
 Alpha virt. eigenvalues --    2.07100   2.08257   2.11978   2.11981   2.15926
 Alpha virt. eigenvalues --    2.16088   2.16091   2.19817   2.24214   2.24216
 Alpha virt. eigenvalues --    2.27377   2.28563   2.28571   2.30820   2.33671
 Alpha virt. eigenvalues --    2.33673   2.34999   2.35008   2.35718   2.35719
 Alpha virt. eigenvalues --    2.36122   2.36127   2.38266   2.38454   2.38457
 Alpha virt. eigenvalues --    2.39067   2.40070   2.40796   2.40800   2.41186
 Alpha virt. eigenvalues --    2.41190   2.42282   2.49393   2.49399   2.50241
 Alpha virt. eigenvalues --    2.53687   2.53693   2.55071   2.55073   2.56208
 Alpha virt. eigenvalues --    2.56210   2.56420   2.57149   2.59284   2.59291
 Alpha virt. eigenvalues --    2.60301   2.63790   2.67608   2.67610   2.68449
 Alpha virt. eigenvalues --    2.68765   2.68771   2.68918   2.68920   2.70552
 Alpha virt. eigenvalues --    2.71153   2.72006   2.72007   2.77987   2.78565
 Alpha virt. eigenvalues --    2.78566   2.80827   2.80837   2.82195   2.83340
 Alpha virt. eigenvalues --    2.86175   2.86178   2.88395   2.88821   2.88827
 Alpha virt. eigenvalues --    2.93428   3.00743   3.00757   3.01753   3.01760
 Alpha virt. eigenvalues --    3.04882   3.06183   3.06185   3.06538   3.07452
 Alpha virt. eigenvalues --    3.08884   3.08890   3.12738   3.14258   3.14259
 Alpha virt. eigenvalues --    3.15340   3.17077   3.19226   3.19231   3.21204
 Alpha virt. eigenvalues --    3.21205   3.23456   3.23457   3.24332   3.24333
 Alpha virt. eigenvalues --    3.25242   3.28920   3.36613   3.36618   3.37374
 Alpha virt. eigenvalues --    3.42104   3.44857   3.44862   3.50239   3.56110
 Alpha virt. eigenvalues --    3.58878   3.58890   3.64773   3.64778   3.85374
 Alpha virt. eigenvalues --    3.95896   3.95899  21.21766  21.24407  21.24410
 Alpha virt. eigenvalues --   21.69827  21.73201  21.73204  21.73814  21.81676
 Alpha virt. eigenvalues --   21.81682  21.92672  21.96091  21.98225  21.98230
 Alpha virt. eigenvalues --   22.03935  22.03938  22.09837  22.16302  22.16326
 Alpha virt. eigenvalues --   32.06544
          Condensed to atoms (all electrons):
               1          2          3          4          5          6
     1  N    6.517657   0.170249  -0.010155  -0.009742   0.013074   0.013062
     2  C    0.170249   5.373379   0.375633   0.375583   0.007036   0.007021
     3  C   -0.010155   0.375633   5.231641  -0.057247   0.381041  -0.128967
     4  C   -0.009742   0.375583  -0.057247   5.231464  -0.128871   0.380971
     5  C    0.013074   0.007036   0.381041  -0.128871   5.061692   0.022368
     6  C    0.013062   0.007021  -0.128967   0.380971   0.022368   5.061930
     7  C    0.005487  -0.088380  -0.029951  -0.029943   0.447816   0.447730
     8  H   -0.006975  -0.031264   0.394608   0.011871  -0.039358  -0.001055
     9  H   -0.006941  -0.031284   0.011903   0.394642  -0.001066  -0.039416
    10  H   -0.000554   0.017030  -0.050055  -0.002349   0.415433   0.015654
    11  H   -0.000554   0.017032  -0.002347  -0.050069   0.015653   0.415441
    12  H   -0.000041  -0.007779   0.023624   0.023623  -0.069000  -0.069013
    13  C    0.169838  -0.079226   0.025979  -0.006515  -0.000782  -0.005170
    14  C   -0.009704   0.025913  -0.060606   0.014204  -0.007085   0.003579
    15  C   -0.010128  -0.006760   0.014274  -0.008828   0.000725  -0.000310
    16  C    0.013075  -0.000681  -0.007118   0.000727  -0.000535   0.000099
    17  C    0.013113  -0.005143   0.003576  -0.000307   0.000099  -0.000048
    18  C    0.005486   0.002285  -0.000923   0.000090  -0.000060   0.000017
    19  H   -0.006912   0.002162   0.001098  -0.000724  -0.001413   0.000341
    20  H   -0.006983  -0.001074   0.000296  -0.000245  -0.000005   0.000010
    21  H   -0.000555  -0.000177   0.000058  -0.000032   0.000025  -0.000001
    22  H   -0.000555   0.000011  -0.000024   0.000001  -0.000001   0.000000
    23  H   -0.000041   0.000018  -0.000015   0.000001  -0.000001  -0.000000
    24  C    0.169800  -0.079262  -0.006613   0.025897  -0.005153  -0.000747
    25  C   -0.010154   0.026002   0.014276  -0.060539   0.003565  -0.007115
    26  C   -0.009708  -0.006612  -0.008843   0.014214  -0.000307   0.000732
    27  C    0.013106  -0.000752   0.000731  -0.007109   0.000098  -0.000540
    28  C    0.013093  -0.005171  -0.000307   0.003576  -0.000048   0.000098
    29  C    0.005483   0.002313   0.000090  -0.000925   0.000017  -0.000060
    30  H   -0.006957   0.002225  -0.000714   0.001069   0.000344  -0.001412
    31  H   -0.006939  -0.001054  -0.000245   0.000291   0.000010  -0.000005
    32  H   -0.000555  -0.000178  -0.000032   0.000057  -0.000001   0.000025
    33  H   -0.000555   0.000011   0.000001  -0.000024   0.000000  -0.000001
    34  H   -0.000041   0.000018   0.000001  -0.000015  -0.000000  -0.000001
               7          8          9         10         11         12
     1  N    0.005487  -0.006975  -0.006941  -0.000554  -0.000554  -0.000041
     2  C   -0.088380  -0.031264  -0.031284   0.017030   0.017032  -0.007779
     3  C   -0.029951   0.394608   0.011903  -0.050055  -0.002347   0.023624
     4  C   -0.029943   0.011871   0.394642  -0.002349  -0.050069   0.023623
     5  C    0.447816  -0.039358  -0.001066   0.415433   0.015653  -0.069000
     6  C    0.447730  -0.001055  -0.039416   0.015654   0.415441  -0.069013
     7  C    5.029598   0.008970   0.008985  -0.064237  -0.064241   0.430825
     8  H    0.008970   0.514441  -0.000253  -0.006865   0.000010  -0.000090
     9  H    0.008985  -0.000253   0.514516   0.000010  -0.006868  -0.000090
    10  H   -0.064237  -0.006865   0.000010   0.576498  -0.000217  -0.008387
    11  H   -0.064241   0.000010  -0.006868  -0.000217   0.576504  -0.008387
    12  H    0.430825  -0.000090  -0.000090  -0.008387  -0.008387   0.577654
    13  C    0.002316   0.002275  -0.001052  -0.000177   0.000011   0.000018
    14  C   -0.000933   0.001046   0.000289   0.000057  -0.000024  -0.000015
    15  C    0.000092  -0.000719  -0.000244  -0.000033   0.000001   0.000001
    16  C   -0.000061  -0.001412  -0.000005   0.000026  -0.000001  -0.000001
    17  C    0.000017   0.000347   0.000010  -0.000001   0.000000  -0.000000
    18  C   -0.000009   0.000431  -0.000004  -0.000001   0.000000  -0.000000
    19  H    0.000433   0.000945   0.000027  -0.000043   0.000003   0.000003
    20  H   -0.000004   0.000027  -0.000006  -0.000000  -0.000000   0.000000
    21  H   -0.000001  -0.000043  -0.000000  -0.000000   0.000000  -0.000000
    22  H    0.000000   0.000003  -0.000000   0.000000  -0.000000  -0.000000
    23  H   -0.000000   0.000003   0.000000  -0.000000  -0.000000  -0.000000
    24  C    0.002296  -0.001071   0.002230   0.000011  -0.000177   0.000018
    25  C   -0.000919   0.000296   0.001088  -0.000024   0.000057  -0.000015
    26  C    0.000090  -0.000245  -0.000738   0.000001  -0.000032   0.000001
    27  C   -0.000060  -0.000005  -0.001411  -0.000001   0.000025  -0.000001
    28  C    0.000017   0.000010   0.000344   0.000000  -0.000001  -0.000000
    29  C   -0.000009  -0.000004   0.000431   0.000000  -0.000001  -0.000000
    30  H    0.000431   0.000027   0.000945   0.000003  -0.000043   0.000003
    31  H   -0.000004  -0.000006   0.000027  -0.000000  -0.000000   0.000000
    32  H   -0.000001  -0.000000  -0.000043   0.000000  -0.000000  -0.000000
    33  H    0.000000  -0.000000   0.000003  -0.000000   0.000000  -0.000000
    34  H   -0.000000   0.000000   0.000003  -0.000000  -0.000000  -0.000000
              13         14         15         16         17         18
     1  N    0.169838  -0.009704  -0.010128   0.013075   0.013113   0.005486
     2  C   -0.079226   0.025913  -0.006760  -0.000681  -0.005143   0.002285
     3  C    0.025979  -0.060606   0.014274  -0.007118   0.003576  -0.000923
     4  C   -0.006515   0.014204  -0.008828   0.000727  -0.000307   0.000090
     5  C   -0.000782  -0.007085   0.000725  -0.000535   0.000099  -0.000060
     6  C   -0.005170   0.003579  -0.000310   0.000099  -0.000048   0.000017
     7  C    0.002316  -0.000933   0.000092  -0.000061   0.000017  -0.000009
     8  H    0.002275   0.001046  -0.000719  -0.001412   0.000347   0.000431
     9  H   -0.001052   0.000289  -0.000244  -0.000005   0.000010  -0.000004
    10  H   -0.000177   0.000057  -0.000033   0.000026  -0.000001  -0.000001
    11  H    0.000011  -0.000024   0.000001  -0.000001   0.000000   0.000000
    12  H    0.000018  -0.000015   0.000001  -0.000001  -0.000000  -0.000000
    13  C    5.375004   0.375510   0.375589   0.007018   0.007097  -0.088421
    14  C    0.375510   5.230854  -0.056969   0.380986  -0.128832  -0.029963
    15  C    0.375589  -0.056969   5.230643  -0.128950   0.380838  -0.029892
    16  C    0.007018   0.380986  -0.128950   5.062041   0.022346   0.447626
    17  C    0.007097  -0.128832   0.380838   0.022346   5.062043   0.447709
    18  C   -0.088421  -0.029963  -0.029892   0.447626   0.447709   5.029717
    19  H   -0.031338   0.394767   0.011923  -0.039499  -0.001076   0.009007
    20  H   -0.031266   0.011906   0.394706  -0.001066  -0.039513   0.008986
    21  H    0.017041  -0.050057  -0.002347   0.415441   0.015652  -0.064259
    22  H    0.017031  -0.002345  -0.050036   0.015655   0.415423  -0.064249
    23  H   -0.007776   0.023612   0.023613  -0.068985  -0.068977   0.430812
    24  C   -0.079447  -0.006575   0.026122  -0.005187  -0.000800   0.002321
    25  C   -0.006682  -0.008830   0.014186  -0.000306   0.000729   0.000090
    26  C    0.026011   0.014153  -0.060500   0.003585  -0.007072  -0.000933
    27  C   -0.005167  -0.000306   0.003585  -0.000048   0.000099   0.000017
    28  C   -0.000769   0.000730  -0.007074   0.000099  -0.000533  -0.000060
    29  C    0.002301   0.000090  -0.000933   0.000017  -0.000060  -0.000009
    30  H   -0.001075  -0.000246   0.000299   0.000010  -0.000005  -0.000004
    31  H    0.002221  -0.000740   0.001100   0.000342  -0.001415   0.000432
    32  H    0.000011   0.000001  -0.000024   0.000000  -0.000001   0.000000
    33  H   -0.000178  -0.000032   0.000059  -0.000001   0.000025  -0.000001
    34  H    0.000018   0.000001  -0.000015  -0.000000  -0.000001  -0.000000
              19         20         21         22         23         24
     1  N   -0.006912  -0.006983  -0.000555  -0.000555  -0.000041   0.169800
     2  C    0.002162  -0.001074  -0.000177   0.000011   0.000018  -0.079262
     3  C    0.001098   0.000296   0.000058  -0.000024  -0.000015  -0.006613
     4  C   -0.000724  -0.000245  -0.000032   0.000001   0.000001   0.025897
     5  C   -0.001413  -0.000005   0.000025  -0.000001  -0.000001  -0.005153
     6  C    0.000341   0.000010  -0.000001   0.000000  -0.000000  -0.000747
     7  C    0.000433  -0.000004  -0.000001   0.000000  -0.000000   0.002296
     8  H    0.000945   0.000027  -0.000043   0.000003   0.000003  -0.001071
     9  H    0.000027  -0.000006  -0.000000  -0.000000   0.000000   0.002230
    10  H   -0.000043  -0.000000  -0.000000   0.000000  -0.000000   0.000011
    11  H    0.000003  -0.000000   0.000000  -0.000000  -0.000000  -0.000177
    12  H    0.000003   0.000000  -0.000000  -0.000000  -0.000000   0.000018
    13  C   -0.031338  -0.031266   0.017041   0.017031  -0.007776  -0.079447
    14  C    0.394767   0.011906  -0.050057  -0.002345   0.023612  -0.006575
    15  C    0.011923   0.394706  -0.002347  -0.050036   0.023613   0.026122
    16  C   -0.039499  -0.001066   0.415441   0.015655  -0.068985  -0.005187
    17  C   -0.001076  -0.039513   0.015652   0.415423  -0.068977  -0.000800
    18  C    0.009007   0.008986  -0.064259  -0.064249   0.430812   0.002321
    19  H    0.514594  -0.000253  -0.006873   0.000010  -0.000090  -0.001055
    20  H   -0.000253   0.514623   0.000010  -0.006865  -0.000090   0.002275
    21  H   -0.006873   0.000010   0.576498  -0.000216  -0.008384   0.000010
    22  H    0.000010  -0.006865  -0.000216   0.576483  -0.008386  -0.000178
    23  H   -0.000090  -0.000090  -0.008384  -0.008386   0.577602   0.000018
    24  C   -0.001055   0.002275   0.000010  -0.000178   0.000018   5.374882
    25  C   -0.000246  -0.000726   0.000001  -0.000033   0.000001   0.375743
    26  C    0.000294   0.001066  -0.000024   0.000058  -0.000015   0.375487
    27  C    0.000010   0.000347   0.000000  -0.000001  -0.000000   0.007094
    28  C   -0.000005  -0.001414  -0.000001   0.000025  -0.000001   0.007020
    29  C   -0.000004   0.000430   0.000000  -0.000001  -0.000000  -0.088428
    30  H   -0.000006   0.000028  -0.000000  -0.000000   0.000000  -0.031290
    31  H    0.000028   0.000944   0.000003  -0.000043   0.000003  -0.031287
    32  H   -0.000000   0.000003  -0.000000   0.000000  -0.000000   0.017021
    33  H   -0.000000  -0.000043   0.000000  -0.000000  -0.000000   0.017041
    34  H    0.000000   0.000003  -0.000000  -0.000000  -0.000000  -0.007778
              25         26         27         28         29         30
     1  N   -0.010154  -0.009708   0.013106   0.013093   0.005483  -0.006957
     2  C    0.026002  -0.006612  -0.000752  -0.005171   0.002313   0.002225
     3  C    0.014276  -0.008843   0.000731  -0.000307   0.000090  -0.000714
     4  C   -0.060539   0.014214  -0.007109   0.003576  -0.000925   0.001069
     5  C    0.003565  -0.000307   0.000098  -0.000048   0.000017   0.000344
     6  C   -0.007115   0.000732  -0.000540   0.000098  -0.000060  -0.001412
     7  C   -0.000919   0.000090  -0.000060   0.000017  -0.000009   0.000431
     8  H    0.000296  -0.000245  -0.000005   0.000010  -0.000004   0.000027
     9  H    0.001088  -0.000738  -0.001411   0.000344   0.000431   0.000945
    10  H   -0.000024   0.000001  -0.000001   0.000000   0.000000   0.000003
    11  H    0.000057  -0.000032   0.000025  -0.000001  -0.000001  -0.000043
    12  H   -0.000015   0.000001  -0.000001  -0.000000  -0.000000   0.000003
    13  C   -0.006682   0.026011  -0.005167  -0.000769   0.002301  -0.001075
    14  C   -0.008830   0.014153  -0.000306   0.000730   0.000090  -0.000246
    15  C    0.014186  -0.060500   0.003585  -0.007074  -0.000933   0.000299
    16  C   -0.000306   0.003585  -0.000048   0.000099   0.000017   0.000010
    17  C    0.000729  -0.007072   0.000099  -0.000533  -0.000060  -0.000005
    18  C    0.000090  -0.000933   0.000017  -0.000060  -0.000009  -0.000004
    19  H   -0.000246   0.000294   0.000010  -0.000005  -0.000004  -0.000006
    20  H   -0.000726   0.001066   0.000347  -0.001414   0.000430   0.000028
    21  H    0.000001  -0.000024   0.000000  -0.000001   0.000000  -0.000000
    22  H   -0.000033   0.000058  -0.000001   0.000025  -0.000001  -0.000000
    23  H    0.000001  -0.000015  -0.000000  -0.000001  -0.000000   0.000000
    24  C    0.375743   0.375487   0.007094   0.007020  -0.088428  -0.031290
    25  C    5.230941  -0.056996   0.380788  -0.128909  -0.029906   0.394720
    26  C   -0.056996   5.230433  -0.128876   0.380952  -0.029895   0.011899
    27  C    0.380788  -0.128876   5.062108   0.022430   0.447623  -0.039455
    28  C   -0.128909   0.380952   0.022430   5.062141   0.447527  -0.001065
    29  C   -0.029906  -0.029895   0.447623   0.447527   5.029841   0.008984
    30  H    0.394720   0.011899  -0.039455  -0.001065   0.008984   0.514519
    31  H    0.011917   0.394747  -0.001073  -0.039538   0.009000  -0.000253
    32  H   -0.050029  -0.002344   0.415420   0.015651  -0.064238  -0.006861
    33  H   -0.002346  -0.050051   0.015655   0.415440  -0.064267   0.000010
    34  H    0.023621   0.023612  -0.068981  -0.068992   0.430815  -0.000090
              31         32         33         34
     1  N   -0.006939  -0.000555  -0.000555  -0.000041
     2  C   -0.001054  -0.000178   0.000011   0.000018
     3  C   -0.000245  -0.000032   0.000001   0.000001
     4  C    0.000291   0.000057  -0.000024  -0.000015
     5  C    0.000010  -0.000001   0.000000  -0.000000
     6  C   -0.000005   0.000025  -0.000001  -0.000001
     7  C   -0.000004  -0.000001   0.000000  -0.000000
     8  H   -0.000006  -0.000000  -0.000000   0.000000
     9  H    0.000027  -0.000043   0.000003   0.000003
    10  H   -0.000000   0.000000  -0.000000  -0.000000
    11  H   -0.000000  -0.000000   0.000000  -0.000000
    12  H    0.000000  -0.000000  -0.000000  -0.000000
    13  C    0.002221   0.000011  -0.000178   0.000018
    14  C   -0.000740   0.000001  -0.000032   0.000001
    15  C    0.001100  -0.000024   0.000059  -0.000015
    16  C    0.000342   0.000000  -0.000001  -0.000000
    17  C   -0.001415  -0.000001   0.000025  -0.000001
    18  C    0.000432   0.000000  -0.000001  -0.000000
    19  H    0.000028  -0.000000  -0.000000   0.000000
    20  H    0.000944   0.000003  -0.000043   0.000003
    21  H    0.000003  -0.000000   0.000000  -0.000000
    22  H   -0.000043   0.000000  -0.000000  -0.000000
    23  H    0.000003  -0.000000  -0.000000  -0.000000
    24  C   -0.031287   0.017021   0.017041  -0.007778
    25  C    0.011917  -0.050029  -0.002346   0.023621
    26  C    0.394747  -0.002344  -0.050051   0.023612
    27  C   -0.001073   0.415420   0.015655  -0.068981
    28  C   -0.039538   0.015651   0.415440  -0.068992
    29  C    0.009000  -0.064238  -0.064267   0.430815
    30  H   -0.000253  -0.006861   0.000010  -0.000090
    31  H    0.514651   0.000010  -0.006867  -0.000090
    32  H    0.000010   0.576468  -0.000216  -0.008386
    33  H   -0.006867  -0.000216   0.576482  -0.008386
    34  H   -0.000090  -0.008386  -0.008386   0.577612
 Mulliken charges:
               1
     1  N   -0.017775
     2  C   -0.059124
     3  C   -0.114668
     4  C   -0.114800
     5  C   -0.115311
     6  C   -0.115217
     7  C   -0.106348
     8  H    0.154055
     9  H    0.153967
    10  H    0.108222
    11  H    0.108227
    12  H    0.107049
    13  C   -0.060247
    14  C   -0.114437
    15  C   -0.113995
    16  C   -0.115237
    17  C   -0.115341
    18  C   -0.106238
    19  H    0.153893
    20  H    0.153893
    21  H    0.108232
    22  H    0.108233
    23  H    0.107078
    24  C   -0.060238
    25  C   -0.114246
    26  C   -0.114140
    27  C   -0.115352
    28  C   -0.115267
    29  C   -0.106220
    30  H    0.153962
    31  H    0.153833
    32  H    0.108242
    33  H    0.108243
    34  H    0.107074
 Sum of Mulliken charges =  -0.00000
 Mulliken charges with hydrogens summed into heavy atoms:
               1
     1  N   -0.017775
     2  C   -0.059124
     3  C    0.039387
     4  C    0.039167
     5  C   -0.007089
     6  C   -0.006991
     7  C    0.000701
    13  C   -0.060247
    14  C    0.039456
    15  C    0.039897
    16  C   -0.007005
    17  C   -0.007108
    18  C    0.000840
    24  C   -0.060238
    25  C    0.039716
    26  C    0.039692
    27  C   -0.007109
    28  C   -0.007024
    29  C    0.000854
 Electronic spatial extent (au):  <R**2>=           4959.6766
 Charge=             -0.0000 electrons
 Dipole moment (field-independent basis, Debye):
    X=              0.0011    Y=             -0.0028    Z=              0.0006  Tot=              0.0031
 Quadrupole moment (field-independent basis, Debye-Ang):
   XX=           -103.3392   YY=           -103.3633   ZZ=           -111.1251
   XY=              0.0068   XZ=              0.0020   YZ=              0.0004
 Traceless Quadrupole moment (field-independent basis, Debye-Ang):
   XX=              2.6033   YY=              2.5792   ZZ=             -5.1826
   XY=              0.0068   XZ=              0.0020   YZ=              0.0004
 Octapole moment (field-independent basis, Debye-Ang**2):
  XXX=             12.4157  YYY=             10.2191  ZZZ=             -0.0093  XYY=            -12.4103
  XXY=            -10.2182  XXZ=              0.0075  XZZ=              0.0156  YZZ=             -0.0512
  YYZ=              0.0182  XYZ=              0.0116
 Hexadecapole moment (field-independent basis, Debye-Ang**3):
 XXXX=          -3060.8389 YYYY=          -3061.0285 ZZZZ=           -466.6070 XXXY=             -0.0751
 XXXZ=             52.9026 YYYX=              0.1560 YYYZ=            -64.4548 ZZZX=              0.0727
 ZZZY=              0.0263 XXYY=          -1020.2434 XXZZ=           -618.4998 YYZZ=           -618.6242
 XXYZ=             64.4146 YYXZ=            -52.9834 ZZXY=              0.0444
 N-N= 1.298220548022D+03 E-N=-4.335798138274D+03  KE= 7.455224219191D+02
 No NMR shielding tensors so no spin-rotation constants.
 Leave Link  601 at Sun Jan 17 20:20:26 2021, MaxMem=  4026531840 cpu:               2.7 elap:               0.4
 (Enter /opt/ohpc/pub/libs/gaussian/g16-A.03/sandybridge/g16/l9999.exe)

 Test job not archived.
 1\1\GINC-CASCADEB040\SP\RLC-wHPBE\TZVP\C18H15N1\RDU230\17-Jan-2021\0\\
 #P LC-wHPBE/TZVP iop(3/107=0218600000, 3/108=0218600000) scf=(conver=6
 ,fermi,ndamp=35,noincfock,novaracc,vshift=500,xqc)\\H15 C18 N1\\0,1\N,
 0,0.000022,-0.000126,-0.001279\C,0,0.411521,-1.356839,-0.000484\C,0,1.
 495533,-1.769287,0.781179\C,0,-0.26032,-2.302689,-0.781717\C,0,1.90121
 8,-3.097977,0.77159\C,0,0.140608,-3.632811,-0.770872\C,0,1.225282,-4.0
 3895,0.000666\H,0,2.020108,-1.039002,1.394849\H,0,-1.101816,-1.987296,
 -1.396157\H,0,2.748094,-3.402056,1.385878\H,0,-0.394485,-4.35669,-1.38
 4611\H,0,1.541424,-5.08084,0.001027\C,0,0.969124,1.03471,-0.000488\C,0
 ,2.123037,0.926935,-0.78345\C,0,0.785335,2.178692,0.782922\C,0,3.07444
 4,1.939229,-0.772694\C,0,1.733248,3.194302,0.773528\C,0,2.885092,3.080
 453,0.000886\H,0,2.269922,0.041314,-1.399284\H,0,-0.10857,2.266902,1.3
 98014\H,0,3.967862,1.838651,-1.388087\H,0,1.574087,4.078874,1.389358\H
 ,0,3.629424,3.875076,0.001646\C,0,-1.380731,0.321945,-0.000436\C,0,-2.
 279686,-0.409002,0.782988\C,0,-1.864017,1.375244,-0.783483\C,0,-3.6331
 85,-0.0958,0.773256\C,0,-3.216365,1.693293,-0.772877\C,0,-4.110212,0.9
 58658,0.000466\H,0,-1.909274,-1.227214,1.398174\H,0,-1.170181,1.945112
 ,-1.399095\H,0,-4.319851,-0.675761,1.389003\H,0,-3.575887,2.517271,-1.
 388348\H,0,-5.170565,1.205911,0.000686\\Version=EM64L-G16RevA.03\State
 =1-A\HF=-749.2369308\RMSD=6.319e-07\Dipole=-0.0004509,0.0011116,0.0002
 441\Quadrupole=1.9355193,1.9175857,-3.853105,0.0050433,-0.0014815,-0.0
 002883\PG=C01 [X(C18H15N1)]\\@


 CLIMB THE MOUNTAINS AND GET THEIR GOOD TIDINGS.
 NATURE'S PEACE WILL FLOW INTO YOU AS SUNSHINE FLOWS INTO TREES.
 THE WINDS WILL BLOW THEIR OWN FRESHNESS INTO YOU, 
 AND CARES WILL DROP OFF LIKE AUTUMN LEAVES.

                                         -- JOHN MUIR
 Job cpu time:       0 days  0 hours 37 minutes 27.5 seconds.
 Elapsed time:       0 days  0 hours  4 minutes 42.2 seconds.
 File lengths (MBytes):  RWF=    116 Int=      0 D2E=      0 Chk=     20 Scr=      8
 Normal termination of Gaussian 16 at Sun Jan 17 20:20:26 2021.
