 Entering Gaussian System, Link 0=g16
 Input=mol_NN_pa_frag_tune_n7.gjf
 Output=mol_NN_pa_frag_tune_n7.log
 Initial command:
 /opt/ohpc/pub/libs/gaussian/g16-A.03/sandybridge/g16/l1.exe "/mnt/gpfs2_4m/scratch/rdu230/ondemand/projects/init_structures/wtuning/mol_NN_pa_frag/tuning_mol_NN_pa_frag_ocycle0/Gau-324739.inp" -scrdir="/mnt/gpfs2_4m/scratch/rdu230/ondemand/projects/init_structures/wtuning/mol_NN_pa_frag/tuning_mol_NN_pa_frag_ocycle0/"
 Entering Link 1 = /opt/ohpc/pub/libs/gaussian/g16-A.03/sandybridge/g16/l1.exe PID=    324740.
  
 Copyright (c) 1988,1990,1992,1993,1995,1998,2003,2009,2016,
            Gaussian, Inc.  All Rights Reserved.
  
 This is part of the Gaussian(R) 16 program.  It is based on
 the Gaussian(R) 09 system (copyright 2009, Gaussian, Inc.),
 the Gaussian(R) 03 system (copyright 2003, Gaussian, Inc.),
 the Gaussian(R) 98 system (copyright 1998, Gaussian, Inc.),
 the Gaussian(R) 94 system (copyright 1995, Gaussian, Inc.),
 the Gaussian 92(TM) system (copyright 1992, Gaussian, Inc.),
 the Gaussian 90(TM) system (copyright 1990, Gaussian, Inc.),
 the Gaussian 88(TM) system (copyright 1988, Gaussian, Inc.),
 the Gaussian 86(TM) system (copyright 1986, Carnegie Mellon
 University), and the Gaussian 82(TM) system (copyright 1983,
 Carnegie Mellon University). Gaussian is a federally registered
 trademark of Gaussian, Inc.
  
 This software contains proprietary and confidential information,
 including trade secrets, belonging to Gaussian, Inc.
  
 This software is provided under written license and may be
 used, copied, transmitted, or stored only in accord with that
 written license.
  
 The following legend is applicable only to US Government
 contracts under FAR:
  
                    RESTRICTED RIGHTS LEGEND
  
 Use, reproduction and disclosure by the US Government is
 subject to restrictions as set forth in subparagraphs (a)
 and (c) of the Commercial Computer Software - Restricted
 Rights clause in FAR 52.227-19.
  
 Gaussian, Inc.
 340 Quinnipiac St., Bldg. 40, Wallingford CT 06492
  
  
 ---------------------------------------------------------------
 Warning -- This program may not be used in any manner that
 competes with the business of Gaussian, Inc. or will provide
 assistance to any competitor of Gaussian, Inc.  The licensee
 of this program is prohibited from giving any competitor of
 Gaussian, Inc. access to this program.  By using this program,
 the user acknowledges that Gaussian, Inc. is engaged in the
 business of creating and licensing software in the field of
 computational chemistry and represents and warrants to the
 licensee that it is not a competitor of Gaussian, Inc. and that
 it will not use this program in any manner prohibited above.
 ---------------------------------------------------------------
  

 Cite this work as:
 Gaussian 16, Revision A.03,
 M. J. Frisch, G. W. Trucks, H. B. Schlegel, G. E. Scuseria, 
 M. A. Robb, J. R. Cheeseman, G. Scalmani, V. Barone, 
 G. A. Petersson, H. Nakatsuji, X. Li, M. Caricato, A. V. Marenich, 
 J. Bloino, B. G. Janesko, R. Gomperts, B. Mennucci, H. P. Hratchian, 
 J. V. Ortiz, A. F. Izmaylov, J. L. Sonnenberg, D. Williams-Young, 
 F. Ding, F. Lipparini, F. Egidi, J. Goings, B. Peng, A. Petrone, 
 T. Henderson, D. Ranasinghe, V. G. Zakrzewski, J. Gao, N. Rega, 
 G. Zheng, W. Liang, M. Hada, M. Ehara, K. Toyota, R. Fukuda, 
 J. Hasegawa, M. Ishida, T. Nakajima, Y. Honda, O. Kitao, H. Nakai, 
 T. Vreven, K. Throssell, J. A. Montgomery, Jr., J. E. Peralta, 
 F. Ogliaro, M. J. Bearpark, J. J. Heyd, E. N. Brothers, K. N. Kudin, 
 V. N. Staroverov, T. A. Keith, R. Kobayashi, J. Normand, 
 K. Raghavachari, A. P. Rendell, J. C. Burant, S. S. Iyengar, 
 J. Tomasi, M. Cossi, J. M. Millam, M. Klene, C. Adamo, R. Cammi, 
 J. W. Ochterski, R. L. Martin, K. Morokuma, O. Farkas, 
 J. B. Foresman, and D. J. Fox, Gaussian, Inc., Wallingford CT, 2016.
 
 ******************************************
 Gaussian 16:  EM64L-G16RevA.03 25-Dec-2016
                17-Jan-2021 
 ******************************************
 %mem=30GB
 %nproc=8
 Will use up to    8 processors via shared memory.
 ----------------------------------------------------------------------
 #P LC-wHPBE/TZVP iop(3/107=0194300000, 3/108=0194300000) scf=(conver=6
 ,fermi,ndamp=35,noincfock,novaracc,vshift=500,xqc)
 ----------------------------------------------------------------------
 1/38=1,172=1/1;
 2/12=2,17=6,18=5,40=1/2;
 3/5=19,7=101,11=2,25=1,30=1,74=-71,107=194300000,108=194300000/1,2,3;
 4//1;
 5/5=100002,6=6,8=3,10=500,13=1,18=-1,22=13,38=1,93=35/2,8;
 6/7=2,8=2,9=2,10=2,28=1/1;
 99/5=1,9=1/99;
 Leave Link    1 at Sun Jan 17 21:02:50 2021, MaxMem=  4026531840 cpu:               1.1 elap:               0.2
 (Enter /opt/ohpc/pub/libs/gaussian/g16-A.03/sandybridge/g16/l101.exe)
 ----------
 H15 C18 N1
 ----------
 Symbolic Z-matrix:
 Charge =  0 Multiplicity = 1
 N                     0.00002  -0.00013  -0.00128 
 C                     0.41152  -1.35684  -0.00048 
 C                     1.49553  -1.76929   0.78118 
 C                    -0.26032  -2.30269  -0.78172 
 C                     1.90122  -3.09798   0.77159 
 C                     0.14061  -3.63281  -0.77087 
 C                     1.22528  -4.03895   0.00067 
 H                     2.02011  -1.039     1.39485 
 H                    -1.10182  -1.9873   -1.39616 
 H                     2.74809  -3.40206   1.38588 
 H                    -0.39449  -4.35669  -1.38461 
 H                     1.54142  -5.08084   0.00103 
 C                     0.96912   1.03471  -0.00049 
 C                     2.12304   0.92694  -0.78345 
 C                     0.78534   2.17869   0.78292 
 C                     3.07444   1.93923  -0.77269 
 C                     1.73325   3.1943    0.77353 
 C                     2.88509   3.08045   0.00089 
 H                     2.26992   0.04131  -1.39928 
 H                    -0.10857   2.2669    1.39801 
 H                     3.96786   1.83865  -1.38809 
 H                     1.57409   4.07887   1.38936 
 H                     3.62942   3.87508   0.00165 
 C                    -1.38073   0.32195  -0.00044 
 C                    -2.27969  -0.409     0.78299 
 C                    -1.86402   1.37524  -0.78348 
 C                    -3.63319  -0.0958    0.77326 
 C                    -3.21637   1.69329  -0.77288 
 C                    -4.11021   0.95866   0.00047 
 H                    -1.90927  -1.22721   1.39817 
 H                    -1.17018   1.94511  -1.3991 
 H                    -4.31985  -0.67576   1.389 
 H                    -3.57589   2.51727  -1.38835 
 H                    -5.17056   1.20591   0.00069 
 
 ITRead=  0  0  0  0  0  0  0  0  0  0  0  0  0  0  0  0  0  0  0  0
 ITRead=  0  0  0  0  0  0  0  0  0  0  0  0  0  0
 MicOpt= -1 -1 -1 -1 -1 -1 -1 -1 -1 -1 -1 -1 -1 -1 -1 -1 -1 -1 -1 -1
 MicOpt= -1 -1 -1 -1 -1 -1 -1 -1 -1 -1 -1 -1 -1 -1
 NAtoms=     34 NQM=       34 NQMF=       0 NMMI=      0 NMMIF=      0
                NMic=       0 NMicF=      0.
                    Isotopes and Nuclear Properties:
 (Nuclear quadrupole moments (NQMom) in fm**2, nuclear magnetic moments (NMagM)
  in nuclear magnetons)

  Atom         1           2           3           4           5           6           7           8           9          10
 IAtWgt=          14          12          12          12          12          12          12           1           1           1
 AtmWgt=  14.0030740  12.0000000  12.0000000  12.0000000  12.0000000  12.0000000  12.0000000   1.0078250   1.0078250   1.0078250
 NucSpn=           2           0           0           0           0           0           0           1           1           1
 AtZEff=  -0.0000000  -0.0000000  -0.0000000  -0.0000000  -0.0000000  -0.0000000  -0.0000000  -0.0000000  -0.0000000  -0.0000000
 NQMom=    2.0440000   0.0000000   0.0000000   0.0000000   0.0000000   0.0000000   0.0000000   0.0000000   0.0000000   0.0000000
 NMagM=    0.4037610   0.0000000   0.0000000   0.0000000   0.0000000   0.0000000   0.0000000   2.7928460   2.7928460   2.7928460
 AtZNuc=   7.0000000   6.0000000   6.0000000   6.0000000   6.0000000   6.0000000   6.0000000   1.0000000   1.0000000   1.0000000

  Atom        11          12          13          14          15          16          17          18          19          20
 IAtWgt=           1           1          12          12          12          12          12          12           1           1
 AtmWgt=   1.0078250   1.0078250  12.0000000  12.0000000  12.0000000  12.0000000  12.0000000  12.0000000   1.0078250   1.0078250
 NucSpn=           1           1           0           0           0           0           0           0           1           1
 AtZEff=  -0.0000000  -0.0000000  -0.0000000  -0.0000000  -0.0000000  -0.0000000  -0.0000000  -0.0000000  -0.0000000  -0.0000000
 NQMom=    0.0000000   0.0000000   0.0000000   0.0000000   0.0000000   0.0000000   0.0000000   0.0000000   0.0000000   0.0000000
 NMagM=    2.7928460   2.7928460   0.0000000   0.0000000   0.0000000   0.0000000   0.0000000   0.0000000   2.7928460   2.7928460
 AtZNuc=   1.0000000   1.0000000   6.0000000   6.0000000   6.0000000   6.0000000   6.0000000   6.0000000   1.0000000   1.0000000

  Atom        21          22          23          24          25          26          27          28          29          30
 IAtWgt=           1           1           1          12          12          12          12          12          12           1
 AtmWgt=   1.0078250   1.0078250   1.0078250  12.0000000  12.0000000  12.0000000  12.0000000  12.0000000  12.0000000   1.0078250
 NucSpn=           1           1           1           0           0           0           0           0           0           1
 AtZEff=  -0.0000000  -0.0000000  -0.0000000  -0.0000000  -0.0000000  -0.0000000  -0.0000000  -0.0000000  -0.0000000  -0.0000000
 NQMom=    0.0000000   0.0000000   0.0000000   0.0000000   0.0000000   0.0000000   0.0000000   0.0000000   0.0000000   0.0000000
 NMagM=    2.7928460   2.7928460   2.7928460   0.0000000   0.0000000   0.0000000   0.0000000   0.0000000   0.0000000   2.7928460
 AtZNuc=   1.0000000   1.0000000   1.0000000   6.0000000   6.0000000   6.0000000   6.0000000   6.0000000   6.0000000   1.0000000

  Atom        31          32          33          34
 IAtWgt=           1           1           1           1
 AtmWgt=   1.0078250   1.0078250   1.0078250   1.0078250
 NucSpn=           1           1           1           1
 AtZEff=  -0.0000000  -0.0000000  -0.0000000  -0.0000000
 NQMom=    0.0000000   0.0000000   0.0000000   0.0000000
 NMagM=    2.7928460   2.7928460   2.7928460   2.7928460
 AtZNuc=   1.0000000   1.0000000   1.0000000   1.0000000
 Leave Link  101 at Sun Jan 17 21:02:51 2021, MaxMem=  4026531840 cpu:               0.7 elap:               0.1
 (Enter /opt/ohpc/pub/libs/gaussian/g16-A.03/sandybridge/g16/l202.exe)
                          Input orientation:                          
 ---------------------------------------------------------------------
 Center     Atomic      Atomic             Coordinates (Angstroms)
 Number     Number       Type             X           Y           Z
 ---------------------------------------------------------------------
      1          7           0        0.000022   -0.000126   -0.001279
      2          6           0        0.411521   -1.356839   -0.000484
      3          6           0        1.495533   -1.769287    0.781179
      4          6           0       -0.260320   -2.302689   -0.781717
      5          6           0        1.901218   -3.097977    0.771590
      6          6           0        0.140608   -3.632811   -0.770872
      7          6           0        1.225282   -4.038950    0.000666
      8          1           0        2.020108   -1.039002    1.394849
      9          1           0       -1.101816   -1.987296   -1.396157
     10          1           0        2.748094   -3.402056    1.385878
     11          1           0       -0.394485   -4.356690   -1.384611
     12          1           0        1.541424   -5.080840    0.001027
     13          6           0        0.969124    1.034710   -0.000488
     14          6           0        2.123037    0.926935   -0.783450
     15          6           0        0.785335    2.178692    0.782922
     16          6           0        3.074444    1.939229   -0.772694
     17          6           0        1.733248    3.194302    0.773528
     18          6           0        2.885092    3.080453    0.000886
     19          1           0        2.269922    0.041314   -1.399284
     20          1           0       -0.108570    2.266902    1.398014
     21          1           0        3.967862    1.838651   -1.388087
     22          1           0        1.574087    4.078874    1.389358
     23          1           0        3.629424    3.875076    0.001646
     24          6           0       -1.380731    0.321945   -0.000436
     25          6           0       -2.279686   -0.409002    0.782988
     26          6           0       -1.864017    1.375244   -0.783483
     27          6           0       -3.633185   -0.095800    0.773256
     28          6           0       -3.216365    1.693293   -0.772877
     29          6           0       -4.110212    0.958658    0.000466
     30          1           0       -1.909274   -1.227214    1.398174
     31          1           0       -1.170181    1.945112   -1.399095
     32          1           0       -4.319851   -0.675761    1.389003
     33          1           0       -3.575887    2.517271   -1.388348
     34          1           0       -5.170565    1.205911    0.000686
 ---------------------------------------------------------------------
                    Distance matrix (angstroms):
                    1          2          3          4          5
     1  N    0.000000
     2  C    1.417745   0.000000
     3  C    2.445143   1.398639   0.000000
     4  C    2.445129   1.398688   2.410432   0.000000
     5  C    3.715986   2.418027   1.389277   2.778037   0.000000
     6  C    3.715971   2.418045   2.778022   1.389275   2.401038
     7  C    4.220588   2.802843   2.415286   2.415313   1.391633
     8  H    2.666305   2.153027   1.088617   3.396277   2.154522
     9  H    2.666191   2.153037   3.396254   1.088634   3.866646
    10  H    4.587944   3.400660   2.144879   3.867510   1.089501
    11  H    4.587907   3.400670   3.867489   2.144855   3.391727
    12  H    5.309386   3.891641   3.402518   3.402513   2.157537
    13  C    1.417761   2.455693   2.958126   3.641440   4.306275
    14  C    2.445082   2.959383   3.179849   4.013834   4.320564
    15  C    2.445186   3.640528   4.011349   4.860480   5.393381
    16  C    3.715945   4.307149   4.319788   5.395795   5.397658
    17  C    3.716015   4.801973   4.969284   6.050621   6.294521
    18  C    4.220616   5.080169   5.104871   6.283654   6.303570
    19  H    2.666192   2.713877   2.938090   3.503978   3.834551
    20  H    2.666314   3.918902   4.386850   5.065118   5.763123
    21  H    4.587820   4.978369   4.882145   5.949446   5.771093
    22  H    4.588005   5.729764   5.880224   6.985912   7.210814
    23  H    5.309403   6.142299   6.084406   7.342244   7.225163
    24  C    1.417818   2.455704   3.641026   2.958788   4.802404
    25  C    2.445265   2.958854   4.012812   3.179967   4.970983
    26  C    2.445021   3.640802   4.860331   4.012361   6.050203
    27  C    3.716080   4.306802   5.394847   4.320245   6.296244
    28  C    3.715936   4.802234   6.050333   4.970528   7.178531
    29  C    4.220580   5.080118   6.282959   5.105866   7.293025
    30  H    2.666388   2.712773   3.502462   2.937281   4.290945
    31  H    2.665936   3.919282   5.065213   4.387803   6.291114
    32  H    4.588101   4.977994   5.948440   4.882490   6.704478
    33  H    4.587851   5.730124   6.985752   5.881581   8.136032
    34  H    5.309378   6.142261   7.341514   6.085469   8.314317
                    6          7          8          9         10
     6  C    0.000000
     7  C    1.391667   0.000000
     8  H    3.866615   3.402232   0.000000
     9  H    2.154604   3.402320   4.293645   0.000000
    10  H    3.391725   2.154856   2.472664   4.956115   0.000000
    11  H    1.089496   2.154901   4.956078   2.472747   4.296829
    12  H    2.157522   1.088798   4.302131   4.302192   2.488409
    13  C    4.802675   5.080122   2.711423   3.920358   4.977111
    14  C    4.972069   5.106938   2.936067   4.389514   4.882299
    15  C    6.050084   6.282082   3.500382   5.066081   5.946489
    16  C    6.297224   6.305245   3.831413   5.766060   5.770205
    17  C    7.178520   7.292138   4.288262   6.292383   6.702001
    18  C    7.293539   7.310326   4.434100   6.597670   6.630226
    19  H    4.292793   4.438433   3.006105   3.934957   4.454500
    20  H    6.290689   6.595113   3.931956   5.185762   6.348052
    21  H    6.705649   6.632991   4.451895   6.351344   6.053737
    22  H    8.135818   8.243130   5.137277   7.191521   7.572491
    23  H    8.314866   8.271137   5.355285   7.661977   7.459859
    24  C    4.306755   5.080227   3.919784   2.712642   5.730379
    25  C    4.320330   5.106207   4.388565   2.937186   5.882212
    26  C    5.394376   6.282687   5.065584   3.501856   6.985720
    27  C    5.397804   6.304762   5.765044   3.833007   7.212999
    28  C    6.295765   7.292819   6.291671   4.290283   8.136189
    29  C    6.304445   7.310512   6.596649   4.436175   8.244486
    30  H    3.833233   4.436703   3.933888   3.006326   5.140152
    31  H    5.764205   6.595951   5.185461   3.933003   7.190352
    32  H    5.771040   6.632271   6.350359   4.453424   7.575522
    33  H    7.212290   8.244066   7.190857   5.139281   9.095466
    34  H    7.226139   8.271362   7.660881   5.357468   9.265920
                   11         12         13         14         15
    11  H    0.000000
    12  H    2.488399   0.000000
    13  C    5.730831   6.142270   0.000000
    14  C    5.883537   6.086628   1.398628   0.000000
    15  C    6.985799   7.340561   1.398644   2.410366   0.000000
    16  C    7.214327   7.227044   2.418022   1.389255   2.778004
    17  C    8.136479   8.313334   2.418021   2.777961   1.389277
    18  C    8.245382   8.271164   2.802856   2.415274   2.415312
    19  H    5.142151   5.359855   2.153031   1.088647   3.396234
    20  H    7.190043   7.659201   2.153028   3.396228   1.088662
    21  H    7.577093   7.463015   3.400615   2.144806   3.867478
    22  H    9.095544   9.264388   3.400674   3.867449   2.144898
    23  H    9.266905   9.196096   3.891642   3.402516   3.402492
    24  C    4.977775   6.142400   2.455576   3.640812   2.958547
    25  C    4.882285   6.085919   3.640454   4.860291   4.011298
    26  C    5.947768   7.341220   2.959009   4.012179   3.180915
    27  C    5.770680   7.226586   4.801873   6.050075   4.969580
    28  C    6.703694   8.314106   4.306813   5.394129   4.320848
    29  C    6.631590   8.271428   5.079905   6.282430   5.105595
    30  H    4.453324   5.358150   3.918894   5.065508   4.386302
    31  H    6.349380   7.660101   2.713219   3.501569   2.939354
    32  H    6.053980   7.462288   5.729717   6.985628   5.880320
    33  H    7.574475   9.265448   4.978079   5.947504   4.883575
    34  H    7.461402   9.196414   6.142076   7.340935   6.085305
                   16         17         18         19         20
    16  C    0.000000
    17  C    2.401003   0.000000
    18  C    1.391644   1.391647   0.000000
    19  H    2.154519   3.866583   3.402246   0.000000
    20  H    3.866642   2.154611   3.402329   4.293640   0.000000
    21  H    1.089505   3.391735   2.154927   2.472559   4.956113
    22  H    3.391699   1.089517   2.154863   4.956067   2.472782
    23  H    2.157570   2.157484   1.088787   4.302160   4.302170
    24  C    4.802143   4.306544   5.080021   3.919540   2.712363
    25  C    6.049880   5.393286   6.281951   5.065968   3.500352
    26  C    4.970573   4.321293   5.106565   4.387258   2.938635
    27  C    7.177994   6.294710   7.291987   6.291693   4.289009
    28  C    6.295615   5.398432   6.304816   5.763746   3.834082
    29  C    7.292364   6.304106   7.310013   6.595978   4.435965
    30  H    6.290984   5.762634   6.595025   5.186580   3.930825
    31  H    4.290601   3.835449   4.437813   3.931762   3.009051
    32  H    8.135521   7.210839   8.243010   7.191234   5.137532
    33  H    6.703735   5.772261   6.632601   6.348540   4.455198
    34  H    8.313606   7.225899   8.270884   7.660095   5.357427
                   21         22         23         24         25
    21  H    0.000000
    22  H    4.296854   0.000000
    23  H    2.488559   2.488310   0.000000
    24  C    5.730045   4.977649   6.142182   0.000000
    25  C    6.985511   5.946451   7.340395   1.398627   0.000000
    26  C    5.881420   4.883791   6.086336   1.398630   2.410424
    27  C    8.135688   6.702475   8.313166   2.417987   1.389298
    28  C    7.211985   5.771888   7.226679   2.418018   2.778080
    29  C    8.243649   6.631442   8.270880   2.802761   2.415297
    30  H    7.190515   6.347318   7.659036   2.152989   1.088637
    31  H    5.139158   4.456391   5.359388   2.152963   3.396224
    32  H    9.095091   7.572652   9.264224   3.400645   2.144921
    33  H    7.574211   6.056112   7.462722   3.400657   3.867546
    34  H    9.264982   7.461411   9.195882   3.891560   3.402517
                   26         27         28         29         30
    26  C    0.000000
    27  C    2.778014   0.000000
    28  C    1.389285   2.401066   0.000000
    29  C    2.415266   1.391632   1.391657   0.000000
    30  H    3.396242   2.154644   3.866692   3.402316   0.000000
    31  H    1.088640   3.866629   2.154630   3.402300   4.293556
    32  H    3.867485   1.089500   3.391729   2.154834   2.472866
    33  H    2.144898   3.391748   1.089495   2.154897   4.956155
    34  H    3.402478   2.157511   2.157507   1.088799   4.302219
                   31         32         33         34
    31  H    0.000000
    32  H    4.956096   0.000000
    33  H    2.472833   4.296814   0.000000
    34  H    4.302194   2.488338   2.488389   0.000000
 Stoichiometry    C18H15N
 Framework group  C1[X(C18H15N)]
 Deg. of freedom    96
 Full point group                 C1      NOp   1
 Largest Abelian subgroup         C1      NOp   1
 Largest concise Abelian subgroup C1      NOp   1
                         Standard orientation:                         
 ---------------------------------------------------------------------
 Center     Atomic      Atomic             Coordinates (Angstroms)
 Number     Number       Type             X           Y           Z
 ---------------------------------------------------------------------
      1          7           0       -0.000022    0.000126   -0.001279
      2          6           0       -0.411410    1.356873   -0.000484
      3          6           0       -1.495388    1.769410    0.781179
      4          6           0        0.260509    2.302668   -0.781717
      5          6           0       -1.900964    3.098133    0.771590
      6          6           0       -0.140310    3.632823   -0.770872
      7          6           0       -1.224951    4.039050    0.000666
      8          1           0       -2.020023    1.039168    1.394849
      9          1           0        1.101979    1.987206   -1.396157
     10          1           0       -2.747815    3.402281    1.385878
     11          1           0        0.394842    4.356658   -1.384611
     12          1           0       -1.541008    5.080966    0.001027
     13          6           0       -0.969209   -1.034631   -0.000488
     14          6           0       -2.123113   -0.926761   -0.783450
     15          6           0       -0.785513   -2.178628    0.782922
     16          6           0       -3.074603   -1.938977   -0.772694
     17          6           0       -1.733510   -3.194160    0.773528
     18          6           0       -2.885344   -3.080217    0.000886
     19          1           0       -2.269925   -0.041128   -1.399284
     20          1           0        0.108384   -2.266911    1.398014
     21          1           0       -3.968013   -1.838326   -1.388087
     22          1           0       -1.574421   -4.078745    1.389358
     23          1           0       -3.629741   -3.874779    0.001646
     24          6           0        1.380705   -0.322058   -0.000436
     25          6           0        2.279720    0.408815    0.782988
     26          6           0        1.863904   -1.375397   -0.783483
     27          6           0        3.633193    0.095502    0.773256
     28          6           0        3.216226   -1.693556   -0.772877
     29          6           0        4.110133   -0.958995    0.000466
     30          1           0        1.909375    1.227058    1.398174
     31          1           0        1.170022   -1.945208   -1.399095
     32          1           0        4.319906    0.675407    1.389003
     33          1           0        3.575681   -2.517564   -1.388348
     34          1           0        5.170466   -1.206335    0.000686
 ---------------------------------------------------------------------
 Rotational constants (GHZ):           0.4036067           0.4035965           0.2213359
 Leave Link  202 at Sun Jan 17 21:02:51 2021, MaxMem=  4026531840 cpu:               0.3 elap:               0.1
 (Enter /opt/ohpc/pub/libs/gaussian/g16-A.03/sandybridge/g16/l301.exe)
 Standard basis: TZVP (5D, 7F)
 Ernie: Thresh=  0.10000D-02 Tol=  0.10000D-05 Strict=F.
 There are   470 symmetry adapted cartesian basis functions of A   symmetry.
 There are   451 symmetry adapted basis functions of A   symmetry.
   451 basis functions,   785 primitive gaussians,   470 cartesian basis functions
    65 alpha electrons       65 beta electrons
       nuclear repulsion energy      1298.2205480218 Hartrees.
 IExCor=33909 DFT=T Ex+Corr=LC-wHPBE ExCW=0 ScaHFX=  1.000000
 ScaDFX=  1.000000  1.000000  1.000000  1.000000 ScalE2=  1.000000  1.000000
 IRadAn=      5 IRanWt=     -1 IRanGd=            0 ICorTp=0 IEmpDi=  4
 HFx  wShort=  0.000000 wLong=  0.194300 cFull=  0.000000 cShort=  0.000000 cLong=  1.000000
 DFx  wShort=  0.000000 wLong=  0.194300 cFull=  0.000000 cShort=  1.000000 cLong=  0.000000
 NAtoms=   34 NActive=   34 NUniq=   34 SFac= 1.00D+00 NAtFMM=   60 NAOKFM=F Big=F
 Integral buffers will be    131072 words long.
 Raffenetti 2 integral format.
 Two-electron integral symmetry is turned on.
 Leave Link  301 at Sun Jan 17 21:02:51 2021, MaxMem=  4026531840 cpu:               0.4 elap:               0.1
 (Enter /opt/ohpc/pub/libs/gaussian/g16-A.03/sandybridge/g16/l302.exe)
 NPDir=0 NMtPBC=     1 NCelOv=     1 NCel=       1 NClECP=     1 NCelD=      1
         NCelK=      1 NCelE2=     1 NClLst=     1 CellRange=     0.0.
 One-electron integrals computed using PRISM.
 One-electron integral symmetry used in STVInt
 NBasis=   451 RedAO= T EigKep=  8.44D-06  NBF=   451
 NBsUse=   451 1.00D-06 EigRej= -1.00D+00 NBFU=   451
 Precomputing XC quadrature grid using
 IXCGrd= 4 IRadAn=           5 IRanWt=          -1 IRanGd=           0 AccXCQ= 0.00D+00.
 Generated NRdTot=       0 NPtTot=           0 NUsed=           0 NTot=          32
 NSgBfM=   462   462   462   462   462 MxSgAt=    34 MxSgA2=    34.
 Leave Link  302 at Sun Jan 17 21:02:51 2021, MaxMem=  4026531840 cpu:               4.5 elap:               0.6
 (Enter /opt/ohpc/pub/libs/gaussian/g16-A.03/sandybridge/g16/l303.exe)
 DipDrv:  MaxL=1.
 Leave Link  303 at Sun Jan 17 21:02:52 2021, MaxMem=  4026531840 cpu:               0.6 elap:               0.1
 (Enter /opt/ohpc/pub/libs/gaussian/g16-A.03/sandybridge/g16/l401.exe)
 ExpMin= 9.52D-02 ExpMax= 1.97D+04 ExpMxC= 6.73D+02 IAcc=3 IRadAn=         5 AccDes= 0.00D+00
 Harris functional with IExCor=33909 and IRadAn=       5 diagonalized for initial guess.
 HarFok:  IExCor=33909 AccDes= 0.00D+00 IRadAn=         5 IDoV= 1 UseB2=F ITyADJ=14
 ICtDFT=  3500011 ScaDFX=  1.000000  1.000000  1.000000  1.000000
 FoFCou: FMM=F IPFlag=           0 FMFlag=      100000 FMFlg1=           0
         NFxFlg=           0 DoJE=T BraDBF=F KetDBF=T FulRan=T
         wScrn=  0.000000 ICntrl=       500 IOpCl=  0 I1Cent=   200000004 NGrid=           0
         NMat0=    1 NMatS0=      1 NMatT0=    0 NMatD0=    1 NMtDS0=    0 NMtDT0=    0
 Petite list used in FoFCou.
 Harris En= -735.816652188567    
 JPrj=0 DoOrth=F DoCkMO=F.
 Leave Link  401 at Sun Jan 17 21:02:55 2021, MaxMem=  4026531840 cpu:              28.6 elap:               3.6
 (Enter /opt/ohpc/pub/libs/gaussian/g16-A.03/sandybridge/g16/l502.exe)
 Integral symmetry usage will be decided dynamically.
 Closed shell SCF:
 Using DIIS extrapolation, IDIIS=    10.
 NGot=  4026531840 LenX=  4026081620 LenY=  4025860250
 Requested convergence on RMS density matrix=1.00D-06 within  32 cycles.
 Requested convergence on MAX density matrix=1.00D-04.
 Requested convergence on             energy=1.00D-04.
 Virtual orbitals will be shifted by   0.500 hartree.
 No special actions if energy rises.
 Dynamic level shift is on during FON iterations.

 Cycle   1  Pass 1  IDiag  1:
 FoFJK:  IHMeth= 1 ICntrl=       0 DoSepK=T KAlg= 0 I1Cent=           0 FoldK=F
 IRaf=         1 NMat=       1 IRICut=       1 DoRegI=T DoRafI=F ISym2E= 0 IDoP0=0 IntGTp=1.
 FoFCou: FMM=F IPFlag=           0 FMFlag=      100000 FMFlg1=           0
         NFxFlg=           0 DoJE=T BraDBF=F KetDBF=F FulRan=T
         wScrn=  0.000000 ICntrl=       500 IOpCl=  0 I1Cent=           0 NGrid=           0
         NMat0=    1 NMatS0=      1 NMatT0=    0 NMatD0=    1 NMtDS0=    0 NMtDT0=    0
 Symmetry not used in FoFCou.
 E= -748.873069601412    
 DIIS: error= 3.52D-02 at cycle   1 NSaved=   1.
 NSaved= 1 IEnMin= 1 EnMin= -748.873069601412     IErMin= 1 ErrMin= 3.52D-02
 ErrMax= 3.52D-02  0.00D+00 EMaxC= 1.00D+00 BMatC= 3.29D-01 BMatP= 3.29D-01
 IDIUse=1 WtCom= 1.00D+00 WtEn= 0.00D+00
 Coeff-Com:  0.100D+01
 Coeff:      0.100D+01
 Gap=     0.323 Goal=   None    Shift=    0.500
 T= 1591. Gap= 0.767 NK=0 IS=   66 IE=  451 IFin=   65
          NO(<0.9)=   0  NV(>0.1)=   0     65.00e < EF      0.00e >EF  Err=0.0D+00
 GapD=    0.323 DampG=1.000 DampE=0.500 DampFc=0.5000 IDamp=-1.
 Damping current iteration by 5.00D-01
 RMSDP=2.34D-03 MaxDP=6.02D-02              OVMax= 8.54D-02

 Cycle   2  Pass 1  IDiag  1:
 E= -749.081676481866     Delta-E=       -0.208606880454 Rises=F Damp=T
 DIIS: error= 1.63D-02 at cycle   2 NSaved=   2.
 NSaved= 2 IEnMin= 2 EnMin= -749.081676481866     IErMin= 2 ErrMin= 1.63D-02
 ErrMax= 1.63D-02  0.00D+00 EMaxC= 1.00D+00 BMatC= 5.56D-02 BMatP= 3.29D-01
 IDIUse=1 WtCom= 1.00D+00 WtEn= 0.00D+00
 Coeff-Com: -0.553D+00 0.155D+01
 Coeff:     -0.553D+00 0.155D+01
 Gap=     0.292 Goal=   None    Shift=    0.500
 T= 1473. Gap= 0.761 NK=0 IS=   66 IE=  451 IFin=   65
          NO(<0.9)=   0  NV(>0.1)=   0     65.00e < EF      0.00e >EF  Err=0.0D+00
 GapD=    0.292 DampG=1.000 DampE=0.500 DampFc=0.5000 IDamp=-1.
 Damping current iteration by 5.00D-01
 RMSDP=1.46D-03 MaxDP=5.03D-02 DE=-2.09D-01 OVMax= 1.91D-02

 Cycle   3  Pass 1  IDiag  1:
 E= -749.152736955012     Delta-E=       -0.071060473147 Rises=F Damp=T
 DIIS: error= 7.42D-03 at cycle   3 NSaved=   3.
 NSaved= 3 IEnMin= 3 EnMin= -749.152736955012     IErMin= 3 ErrMin= 7.42D-03
 ErrMax= 7.42D-03  0.00D+00 EMaxC= 1.00D+00 BMatC= 1.06D-02 BMatP= 5.56D-02
 IDIUse=1 WtCom= 1.00D+00 WtEn= 0.00D+00
 Coeff-Com:  0.516D-01-0.872D+00 0.182D+01
 Coeff:      0.516D-01-0.872D+00 0.182D+01
 Gap=     0.280 Goal=   None    Shift=    0.500
 T= 1241. Gap= 0.778 NK=0 IS=   66 IE=  451 IFin=   65
          NO(<0.9)=   0  NV(>0.1)=   0     65.00e < EF      0.00e >EF  Err=0.0D+00
 GapD=    0.280 DampG=1.000 DampE=1.000 DampFc=1.0000 IDamp=-1.
 RMSDP=7.84D-04 MaxDP=2.69D-02 DE=-7.11D-02 OVMax= 1.08D-02

 Cycle   4  Pass 1  IDiag  1:
 E= -749.211721851970     Delta-E=       -0.058984896957 Rises=F Damp=F
 DIIS: error= 1.20D-03 at cycle   4 NSaved=   4.
 NSaved= 4 IEnMin= 4 EnMin= -749.211721851970     IErMin= 4 ErrMin= 1.20D-03
 ErrMax= 1.20D-03  0.00D+00 EMaxC= 1.00D+00 BMatC= 4.84D-04 BMatP= 1.06D-02
 IDIUse=1 WtCom= 1.00D+00 WtEn= 0.00D+00
 Coeff-Com:  0.809D-01-0.234D+00 0.216D+00 0.937D+00
 Coeff:      0.809D-01-0.234D+00 0.216D+00 0.937D+00
 Gap=     0.275 Goal=   None    Shift=    0.500
 T=  725. Gap= 0.775 NK=0 IS=   66 IE=  451 IFin=   65
          NO(<0.9)=   0  NV(>0.1)=   0     65.00e < EF      0.00e >EF  Err=0.0D+00
 GapD=    0.275 DampG=1.000 DampE=1.000 DampFc=1.0000 IDamp=-1.
 RMSDP=1.73D-04 MaxDP=2.85D-03 DE=-5.90D-02 OVMax= 5.23D-03

 Cycle   5  Pass 1  IDiag  1:
 E= -749.212240066993     Delta-E=       -0.000518215023 Rises=F Damp=F
 DIIS: error= 9.75D-04 at cycle   5 NSaved=   5.
 NSaved= 5 IEnMin= 5 EnMin= -749.212240066993     IErMin= 5 ErrMin= 9.75D-04
 ErrMax= 9.75D-04  0.00D+00 EMaxC= 1.00D+00 BMatC= 7.33D-05 BMatP= 4.84D-04
 IDIUse=1 WtCom= 1.00D+00 WtEn= 0.00D+00
 Coeff-Com:  0.161D-01-0.108D-03-0.674D-01-0.203D+00 0.125D+01
 Coeff:      0.161D-01-0.108D-03-0.674D-01-0.203D+00 0.125D+01
 Gap=     0.275 Goal=   None    Shift=    0.500
 RMSDP=1.34D-04 MaxDP=2.70D-03 DE=-5.18D-04 OVMax= 3.99D-03

 Cycle   6  Pass 1  IDiag  1:
 E= -749.212373455418     Delta-E=       -0.000133388425 Rises=F Damp=F
 DIIS: error= 8.65D-04 at cycle   6 NSaved=   6.
 NSaved= 6 IEnMin= 6 EnMin= -749.212373455418     IErMin= 6 ErrMin= 8.65D-04
 ErrMax= 8.65D-04  0.00D+00 EMaxC= 1.00D+00 BMatC= 1.48D-05 BMatP= 7.33D-05
 IDIUse=1 WtCom= 1.00D+00 WtEn= 0.00D+00
 Coeff-Com: -0.111D-01 0.421D-01-0.555D-01-0.248D+00 0.907D-01 0.118D+01
 Coeff:     -0.111D-01 0.421D-01-0.555D-01-0.248D+00 0.907D-01 0.118D+01
 Gap=     0.275 Goal=   None    Shift=    0.500
 RMSDP=8.35D-05 MaxDP=1.91D-03 DE=-1.33D-04 OVMax= 3.39D-03

 Cycle   7  Pass 1  IDiag  1:
 E= -749.212419146031     Delta-E=       -0.000045690612 Rises=F Damp=F
 DIIS: error= 6.06D-04 at cycle   7 NSaved=   7.
 NSaved= 7 IEnMin= 7 EnMin= -749.212419146031     IErMin= 7 ErrMin= 6.06D-04
 ErrMax= 6.06D-04  0.00D+00 EMaxC= 1.00D+00 BMatC= 4.46D-06 BMatP= 1.48D-05
 IDIUse=1 WtCom= 1.00D+00 WtEn= 0.00D+00
 Coeff-Com: -0.592D-02 0.521D-02 0.871D-02 0.409D-01-0.350D+00-0.495D+00
 Coeff-Com:  0.180D+01
 Coeff:     -0.592D-02 0.521D-02 0.871D-02 0.409D-01-0.350D+00-0.495D+00
 Coeff:      0.180D+01
 Gap=     0.275 Goal=   None    Shift=    0.500
 RMSDP=4.89D-05 MaxDP=1.14D-03 DE=-4.57D-05 OVMax= 2.60D-03

 Cycle   8  Pass 1  IDiag  1:
 E= -749.212439244709     Delta-E=       -0.000020098679 Rises=F Damp=F
 DIIS: error= 4.23D-04 at cycle   8 NSaved=   8.
 NSaved= 8 IEnMin= 8 EnMin= -749.212439244709     IErMin= 8 ErrMin= 4.23D-04
 ErrMax= 4.23D-04  0.00D+00 EMaxC= 1.00D+00 BMatC= 1.72D-06 BMatP= 4.46D-06
 IDIUse=1 WtCom= 1.00D+00 WtEn= 0.00D+00
 Coeff-Com:  0.261D-02-0.456D-02 0.539D-03 0.771D-01-0.212D-02-0.391D+00
 Coeff-Com: -0.929D+00 0.225D+01
 Coeff:      0.261D-02-0.456D-02 0.539D-03 0.771D-01-0.212D-02-0.391D+00
 Coeff:     -0.929D+00 0.225D+01
 Gap=     0.275 Goal=   None    Shift=    0.500
 RMSDP=2.26D-05 MaxDP=4.61D-04 DE=-2.01D-05 OVMax= 1.91D-03

 Cycle   9  Pass 1  IDiag  1:
 E= -749.212448028004     Delta-E=       -0.000008783295 Rises=F Damp=F
 DIIS: error= 2.82D-04 at cycle   9 NSaved=   9.
 NSaved= 9 IEnMin= 9 EnMin= -749.212448028004     IErMin= 9 ErrMin= 2.82D-04
 ErrMax= 2.82D-04  0.00D+00 EMaxC= 1.00D+00 BMatC= 7.44D-07 BMatP= 1.72D-06
 IDIUse=1 WtCom= 1.00D+00 WtEn= 0.00D+00
 Coeff-Com:  0.153D-02 0.462D-02-0.142D-01 0.328D-01 0.105D+00-0.109D+00
 Coeff-Com: -0.881D+00 0.367D+00 0.149D+01
 Coeff:      0.153D-02 0.462D-02-0.142D-01 0.328D-01 0.105D+00-0.109D+00
 Coeff:     -0.881D+00 0.367D+00 0.149D+01
 Gap=     0.275 Goal=   None    Shift=    0.500
 RMSDP=9.75D-06 MaxDP=1.93D-04 DE=-8.78D-06 OVMax= 1.25D-03

 Cycle  10  Pass 1  IDiag  1:
 E= -749.212451588755     Delta-E=       -0.000003560751 Rises=F Damp=F
 DIIS: error= 1.85D-04 at cycle  10 NSaved=  10.
 NSaved=10 IEnMin=10 EnMin= -749.212451588755     IErMin=10 ErrMin= 1.85D-04
 ErrMax= 1.85D-04  0.00D+00 EMaxC= 1.00D+00 BMatC= 3.20D-07 BMatP= 7.44D-07
 IDIUse=1 WtCom= 1.00D+00 WtEn= 0.00D+00
 Coeff-Com: -0.818D-03 0.804D-02-0.130D-01-0.454D-02 0.630D-01 0.471D-01
 Coeff-Com: -0.757D-01-0.696D+00-0.181D+00 0.185D+01
 Coeff:     -0.818D-03 0.804D-02-0.130D-01-0.454D-02 0.630D-01 0.471D-01
 Coeff:     -0.757D-01-0.696D+00-0.181D+00 0.185D+01
 Gap=     0.275 Goal=   None    Shift=    0.500
 RMSDP=5.17D-06 MaxDP=1.31D-04 DE=-3.56D-06 OVMax= 8.38D-04

 Cycle  11  Pass 1  IDiag  1:
 E= -749.212453038635     Delta-E=       -0.000001449880 Rises=F Damp=F
 DIIS: error= 1.15D-04 at cycle  11 NSaved=  11.
 NSaved=11 IEnMin=11 EnMin= -749.212453038635     IErMin=11 ErrMin= 1.15D-04
 ErrMax= 1.15D-04  0.00D+00 EMaxC= 1.00D+00 BMatC= 1.42D-07 BMatP= 3.20D-07
 IDIUse=1 WtCom= 1.00D+00 WtEn= 0.00D+00
 Coeff-Com: -0.781D-03 0.217D-02-0.145D-02-0.680D-03-0.185D-01 0.978D-02
 Coeff-Com:  0.202D+00-0.526D-01-0.938D+00-0.297D+00 0.210D+01
 Coeff:     -0.781D-03 0.217D-02-0.145D-02-0.680D-03-0.185D-01 0.978D-02
 Coeff:      0.202D+00-0.526D-01-0.938D+00-0.297D+00 0.210D+01
 Gap=     0.275 Goal=   None    Shift=    0.500
 RMSDP=3.22D-06 MaxDP=8.31D-05 DE=-1.45D-06 OVMax= 5.31D-04

 Cycle  12  Pass 1  IDiag  1:
 E= -749.212453603323     Delta-E=       -0.000000564688 Rises=F Damp=F
 DIIS: error= 7.12D-05 at cycle  12 NSaved=  12.
 NSaved=12 IEnMin=12 EnMin= -749.212453603323     IErMin=12 ErrMin= 7.12D-05
 ErrMax= 7.12D-05  0.00D+00 EMaxC= 1.00D+00 BMatC= 6.38D-08 BMatP= 1.42D-07
 IDIUse=1 WtCom= 1.00D+00 WtEn= 0.00D+00
 Coeff-Com: -0.113D-03 0.685D-03-0.886D-03 0.610D-02-0.125D-01-0.112D-01
 Coeff-Com: -0.453D-02 0.229D+00-0.300D+00-0.232D+00-0.944D+00 0.227D+01
 Coeff:     -0.113D-03 0.685D-03-0.886D-03 0.610D-02-0.125D-01-0.112D-01
 Coeff:     -0.453D-02 0.229D+00-0.300D+00-0.232D+00-0.944D+00 0.227D+01
 Gap=     0.275 Goal=   None    Shift=    0.500
 RMSDP=1.79D-06 MaxDP=4.89D-05 DE=-5.65D-07 OVMax= 3.22D-04

 Cycle  13  Pass 1  IDiag  1:
 E= -749.212453814898     Delta-E=       -0.000000211575 Rises=F Damp=F
 DIIS: error= 4.41D-05 at cycle  13 NSaved=  13.
 NSaved=13 IEnMin=13 EnMin= -749.212453814898     IErMin=13 ErrMin= 4.41D-05
 ErrMax= 4.41D-05  0.00D+00 EMaxC= 1.00D+00 BMatC= 2.75D-08 BMatP= 6.38D-08
 IDIUse=1 WtCom= 1.00D+00 WtEn= 0.00D+00
 Coeff-Com:  0.119D-03 0.281D-03-0.954D-03 0.518D-02-0.165D-02-0.983D-02
 Coeff-Com: -0.779D-01 0.194D+00 0.879D-01-0.568D-01-0.152D+01 0.103D+01
 Coeff-Com:  0.135D+01
 Coeff:      0.119D-03 0.281D-03-0.954D-03 0.518D-02-0.165D-02-0.983D-02
 Coeff:     -0.779D-01 0.194D+00 0.879D-01-0.568D-01-0.152D+01 0.103D+01
 Coeff:      0.135D+01
 Gap=     0.275 Goal=   None    Shift=    0.500
 RMSDP=1.06D-06 MaxDP=2.97D-05 DE=-2.12D-07 OVMax= 1.97D-04

 Cycle  14  Pass 1  IDiag  1:
 E= -749.212453894971     Delta-E=       -0.000000080073 Rises=F Damp=F
 DIIS: error= 2.68D-05 at cycle  14 NSaved=  14.
 NSaved=14 IEnMin=14 EnMin= -749.212453894971     IErMin=14 ErrMin= 2.68D-05
 ErrMax= 2.68D-05  0.00D+00 EMaxC= 1.00D+00 BMatC= 1.06D-08 BMatP= 2.75D-08
 IDIUse=1 WtCom= 1.00D+00 WtEn= 0.00D+00
 Coeff-Com: -0.296D-04 0.276D-03-0.455D-03-0.520D-03 0.288D-02 0.142D-02
 Coeff-Com: -0.652D-03-0.343D-01 0.426D-01 0.260D-01 0.170D+00-0.479D+00
 Coeff-Com: -0.137D+01 0.264D+01
 Coeff:     -0.296D-04 0.276D-03-0.455D-03-0.520D-03 0.288D-02 0.142D-02
 Coeff:     -0.652D-03-0.343D-01 0.426D-01 0.260D-01 0.170D+00-0.479D+00
 Coeff:     -0.137D+01 0.264D+01
 Gap=     0.275 Goal=   None    Shift=    0.500
 RMSDP=6.24D-07 MaxDP=1.89D-05 DE=-8.01D-08 OVMax= 1.18D-04

 SCF Done:  E(RLC-wHPBE) =  -749.212453895     A.U. after   14 cycles
            NFock= 14  Conv=0.62D-06     -V/T= 2.0049
 KE= 7.455841076276D+02 PE=-4.335841298801D+03 EE= 1.542824189256D+03
 Leave Link  502 at Sun Jan 17 21:07:32 2021, MaxMem=  4026531840 cpu:            2209.8 elap:             277.0
 (Enter /opt/ohpc/pub/libs/gaussian/g16-A.03/sandybridge/g16/l508.exe)
 QCSCF skips out because SCF is already converged.
 Leave Link  508 at Sun Jan 17 21:07:32 2021, MaxMem=  4026531840 cpu:               0.1 elap:               0.0
 (Enter /opt/ohpc/pub/libs/gaussian/g16-A.03/sandybridge/g16/l601.exe)
 Copying SCF densities to generalized density rwf, IOpCl= 0 IROHF=0.

 **********************************************************************

            Population analysis using the SCF density.

 **********************************************************************

 Orbital symmetries:
       Occupied  (A) (A) (A) (A) (A) (A) (A) (A) (A) (A) (A) (A)
                 (A) (A) (A) (A) (A) (A) (A) (A) (A) (A) (A) (A)
                 (A) (A) (A) (A) (A) (A) (A) (A) (A) (A) (A) (A)
                 (A) (A) (A) (A) (A) (A) (A) (A) (A) (A) (A) (A)
                 (A) (A) (A) (A) (A) (A) (A) (A) (A) (A) (A) (A)
                 (A) (A) (A) (A) (A)
       Virtual   (A) (A) (A) (A) (A) (A) (A) (A) (A) (A) (A) (A)
                 (A) (A) (A) (A) (A) (A) (A) (A) (A) (A) (A) (A)
                 (A) (A) (A) (A) (A) (A) (A) (A) (A) (A) (A) (A)
                 (A) (A) (A) (A) (A) (A) (A) (A) (A) (A) (A) (A)
                 (A) (A) (A) (A) (A) (A) (A) (A) (A) (A) (A) (A)
                 (A) (A) (A) (A) (A) (A) (A) (A) (A) (A) (A) (A)
                 (A) (A) (A) (A) (A) (A) (A) (A) (A) (A) (A) (A)
                 (A) (A) (A) (A) (A) (A) (A) (A) (A) (A) (A) (A)
                 (A) (A) (A) (A) (A) (A) (A) (A) (A) (A) (A) (A)
                 (A) (A) (A) (A) (A) (A) (A) (A) (A) (A) (A) (A)
                 (A) (A) (A) (A) (A) (A) (A) (A) (A) (A) (A) (A)
                 (A) (A) (A) (A) (A) (A) (A) (A) (A) (A) (A) (A)
                 (A) (A) (A) (A) (A) (A) (A) (A) (A) (A) (A) (A)
                 (A) (A) (A) (A) (A) (A) (A) (A) (A) (A) (A) (A)
                 (A) (A) (A) (A) (A) (A) (A) (A) (A) (A) (A) (A)
                 (A) (A) (A) (A) (A) (A) (A) (A) (A) (A) (A) (A)
                 (A) (A) (A) (A) (A) (A) (A) (A) (A) (A) (A) (A)
                 (A) (A) (A) (A) (A) (A) (A) (A) (A) (A) (A) (A)
                 (A) (A) (A) (A) (A) (A) (A) (A) (A) (A) (A) (A)
                 (A) (A) (A) (A) (A) (A) (A) (A) (A) (A) (A) (A)
                 (A) (A) (A) (A) (A) (A) (A) (A) (A) (A) (A) (A)
                 (A) (A) (A) (A) (A) (A) (A) (A) (A) (A) (A) (A)
                 (A) (A) (A) (A) (A) (A) (A) (A) (A) (A) (A) (A)
                 (A) (A) (A) (A) (A) (A) (A) (A) (A) (A) (A) (A)
                 (A) (A) (A) (A) (A) (A) (A) (A) (A) (A) (A) (A)
                 (A) (A) (A) (A) (A) (A) (A) (A) (A) (A) (A) (A)
                 (A) (A) (A) (A) (A) (A) (A) (A) (A) (A) (A) (A)
                 (A) (A) (A) (A) (A) (A) (A) (A) (A) (A) (A) (A)
                 (A) (A) (A) (A) (A) (A) (A) (A) (A) (A) (A) (A)
                 (A) (A) (A) (A) (A) (A) (A) (A) (A) (A) (A) (A)
                 (A) (A) (A) (A) (A) (A) (A) (A) (A) (A) (A) (A)
                 (A) (A) (A) (A) (A) (A) (A) (A) (A) (A) (A) (A)
                 (A) (A)
 The electronic state is 1-A.
 Alpha  occ. eigenvalues --  -14.12888 -10.03905 -10.03905 -10.03903  -9.99866
 Alpha  occ. eigenvalues --   -9.99865  -9.99865  -9.99865  -9.99862  -9.99862
 Alpha  occ. eigenvalues --   -9.99580  -9.99579  -9.99579  -9.99578  -9.99576
 Alpha  occ. eigenvalues --   -9.99575  -9.99395  -9.99394  -9.99390  -1.00289
 Alpha  occ. eigenvalues --   -0.89838  -0.89836  -0.87857  -0.80420  -0.80418
 Alpha  occ. eigenvalues --   -0.78908  -0.78792  -0.78790  -0.75306  -0.67946
 Alpha  occ. eigenvalues --   -0.67944  -0.65593  -0.65035  -0.65033  -0.62348
 Alpha  occ. eigenvalues --   -0.59291  -0.59291  -0.55945  -0.53560  -0.53557
 Alpha  occ. eigenvalues --   -0.52372  -0.50643  -0.50643  -0.49518  -0.48688
 Alpha  occ. eigenvalues --   -0.48686  -0.47919  -0.47624  -0.47622  -0.44313
 Alpha  occ. eigenvalues --   -0.44024  -0.44022  -0.42522  -0.41296  -0.41293
 Alpha  occ. eigenvalues --   -0.40824  -0.39695  -0.39692  -0.37385  -0.33064
 Alpha  occ. eigenvalues --   -0.33061  -0.33019  -0.31805  -0.31804  -0.24896
 Alpha virt. eigenvalues --    0.02615   0.02971   0.02973   0.05038   0.05040
 Alpha virt. eigenvalues --    0.07789   0.10556   0.11506   0.11508   0.13914
 Alpha virt. eigenvalues --    0.13916   0.14080   0.14436   0.15635   0.15636
 Alpha virt. eigenvalues --    0.16705   0.16705   0.16870   0.17338   0.18434
 Alpha virt. eigenvalues --    0.18435   0.18807   0.18807   0.21163   0.22158
 Alpha virt. eigenvalues --    0.24528   0.24528   0.24914   0.25392   0.25948
 Alpha virt. eigenvalues --    0.26294   0.26297   0.27155   0.27158   0.28316
 Alpha virt. eigenvalues --    0.28339   0.28345   0.29574   0.29575   0.29932
 Alpha virt. eigenvalues --    0.30193   0.30237   0.30240   0.31130   0.31738
 Alpha virt. eigenvalues --    0.31742   0.32843   0.32843   0.34137   0.34139
 Alpha virt. eigenvalues --    0.34855   0.35687   0.35689   0.36722   0.37055
 Alpha virt. eigenvalues --    0.38127   0.38411   0.38414   0.39208   0.39211
 Alpha virt. eigenvalues --    0.40782   0.42578   0.42851   0.42857   0.43480
 Alpha virt. eigenvalues --    0.43664   0.43665   0.44880   0.44881   0.44982
 Alpha virt. eigenvalues --    0.45150   0.45891   0.45899   0.46352   0.47084
 Alpha virt. eigenvalues --    0.47085   0.48275   0.48459   0.48461   0.49217
 Alpha virt. eigenvalues --    0.49222   0.49382   0.50710   0.50711   0.51600
 Alpha virt. eigenvalues --    0.52910   0.52911   0.53897   0.53913   0.53915
 Alpha virt. eigenvalues --    0.54972   0.55229   0.55349   0.55354   0.56078
 Alpha virt. eigenvalues --    0.56488   0.56500   0.57123   0.58651   0.58654
 Alpha virt. eigenvalues --    0.60603   0.60709   0.60718   0.60757   0.63636
 Alpha virt. eigenvalues --    0.63637   0.65917   0.66533   0.68020   0.68023
 Alpha virt. eigenvalues --    0.71818   0.71818   0.73014   0.73019   0.74543
 Alpha virt. eigenvalues --    0.74742   0.74747   0.75258   0.75261   0.75277
 Alpha virt. eigenvalues --    0.75495   0.77347   0.77359   0.80934   0.80960
 Alpha virt. eigenvalues --    0.81300   0.82990   0.82995   0.86151   0.89730
 Alpha virt. eigenvalues --    0.89740   0.90676   0.90908   0.96926   0.96933
 Alpha virt. eigenvalues --    0.99087   1.17915   1.20414   1.20416   1.23819
 Alpha virt. eigenvalues --    1.23824   1.24255   1.27193   1.27195   1.27701
 Alpha virt. eigenvalues --    1.28194   1.28197   1.29711   1.30489   1.30884
 Alpha virt. eigenvalues --    1.30887   1.32043   1.32050   1.32728   1.32733
 Alpha virt. eigenvalues --    1.33002   1.34040   1.34581   1.34583   1.34596
 Alpha virt. eigenvalues --    1.35862   1.35864   1.36553   1.37958   1.38050
 Alpha virt. eigenvalues --    1.38873   1.38882   1.46107   1.46110   1.46702
 Alpha virt. eigenvalues --    1.47255   1.47257   1.47863   1.47866   1.48020
 Alpha virt. eigenvalues --    1.48269   1.48551   1.48831   1.48837   1.49919
 Alpha virt. eigenvalues --    1.49922   1.51006   1.51530   1.51538   1.51608
 Alpha virt. eigenvalues --    1.52537   1.52541   1.54394   1.55203   1.55601
 Alpha virt. eigenvalues --    1.55606   1.56645   1.56649   1.58555   1.58557
 Alpha virt. eigenvalues --    1.58832   1.59104   1.59532   1.59535   1.60752
 Alpha virt. eigenvalues --    1.61069   1.61070   1.62102   1.62105   1.62556
 Alpha virt. eigenvalues --    1.63418   1.63945   1.63952   1.70345   1.70848
 Alpha virt. eigenvalues --    1.70849   1.74630   1.74647   1.79520   1.79529
 Alpha virt. eigenvalues --    1.80023   1.80083   1.80590   1.80592   1.81267
 Alpha virt. eigenvalues --    1.82639   1.82811   1.82813   1.83406   1.84854
 Alpha virt. eigenvalues --    1.84868   1.85436   1.85444   1.85971   1.87651
 Alpha virt. eigenvalues --    1.90222   1.90223   1.91564   1.91572   1.91943
 Alpha virt. eigenvalues --    1.91944   1.94172   1.94495   1.94499   1.95408
 Alpha virt. eigenvalues --    1.95416   1.95675   1.95707   1.95716   1.96308
 Alpha virt. eigenvalues --    1.96938   1.96948   1.98072   2.00821   2.00837
 Alpha virt. eigenvalues --    2.00840   2.02854   2.03240   2.03241   2.05932
 Alpha virt. eigenvalues --    2.05945   2.07106   2.10846   2.10849   2.14770
 Alpha virt. eigenvalues --    2.14942   2.14944   2.18640   2.23032   2.23034
 Alpha virt. eigenvalues --    2.26179   2.27377   2.27385   2.29619   2.32473
 Alpha virt. eigenvalues --    2.32476   2.33825   2.33836   2.34531   2.34531
 Alpha virt. eigenvalues --    2.34929   2.34933   2.37064   2.37262   2.37265
 Alpha virt. eigenvalues --    2.37869   2.38884   2.39619   2.39622   2.39992
 Alpha virt. eigenvalues --    2.39996   2.41083   2.48218   2.48224   2.49052
 Alpha virt. eigenvalues --    2.52489   2.52495   2.53889   2.53891   2.55041
 Alpha virt. eigenvalues --    2.55042   2.55244   2.55985   2.58096   2.58102
 Alpha virt. eigenvalues --    2.59110   2.62627   2.66432   2.66434   2.67246
 Alpha virt. eigenvalues --    2.67579   2.67584   2.67723   2.67725   2.69372
 Alpha virt. eigenvalues --    2.70002   2.70838   2.70839   2.76794   2.77372
 Alpha virt. eigenvalues --    2.77373   2.79608   2.79617   2.81010   2.82160
 Alpha virt. eigenvalues --    2.84994   2.84997   2.87209   2.87651   2.87657
 Alpha virt. eigenvalues --    2.92239   2.99547   2.99560   3.00623   3.00630
 Alpha virt. eigenvalues --    3.03726   3.05026   3.05029   3.05401   3.06289
 Alpha virt. eigenvalues --    3.07720   3.07726   3.11581   3.13093   3.13095
 Alpha virt. eigenvalues --    3.14158   3.15882   3.18064   3.18069   3.19996
 Alpha virt. eigenvalues --    3.19997   3.22261   3.22262   3.23138   3.23140
 Alpha virt. eigenvalues --    3.24048   3.27763   3.35395   3.35400   3.36157
 Alpha virt. eigenvalues --    3.40936   3.43708   3.43713   3.49029   3.54912
 Alpha virt. eigenvalues --    3.57670   3.57682   3.63524   3.63528   3.84129
 Alpha virt. eigenvalues --    3.94643   3.94646  21.20410  21.23050  21.23053
 Alpha virt. eigenvalues --   21.68468  21.71843  21.71846  21.72460  21.80317
 Alpha virt. eigenvalues --   21.80323  21.91319  21.94728  21.96867  21.96872
 Alpha virt. eigenvalues --   22.02577  22.02579  22.08477  22.14949  22.14973
 Alpha virt. eigenvalues --   32.05083
          Condensed to atoms (all electrons):
               1          2          3          4          5          6
     1  N    6.510333   0.173567  -0.011818  -0.011388   0.013260   0.013247
     2  C    0.173567   5.394939   0.365091   0.365018   0.015739   0.015721
     3  C   -0.011818   0.365091   5.247749  -0.053938   0.367049  -0.134661
     4  C   -0.011388   0.365018  -0.053938   5.247576  -0.134566   0.366988
     5  C    0.013260   0.015739   0.367049  -0.134566   5.078639   0.030240
     6  C    0.013247   0.015721  -0.134661   0.366988   0.030240   5.078867
     7  C    0.005614  -0.095060  -0.022981  -0.022975   0.435092   0.435009
     8  H   -0.007347  -0.033884   0.395979   0.012588  -0.041848  -0.001178
     9  H   -0.007310  -0.033909   0.012620   0.396016  -0.001190  -0.041906
    10  H   -0.000573   0.017880  -0.052600  -0.002489   0.416599   0.016577
    11  H   -0.000573   0.017882  -0.002488  -0.052614   0.016576   0.416606
    12  H   -0.000041  -0.008048   0.024727   0.024725  -0.071890  -0.071903
    13  C    0.173149  -0.084999   0.026087  -0.005958  -0.000891  -0.005082
    14  C   -0.011349   0.026010  -0.058447   0.013968  -0.007204   0.003484
    15  C   -0.011797  -0.006212   0.014038  -0.008871   0.000740  -0.000280
    16  C    0.013260  -0.000783  -0.007239   0.000743  -0.000575   0.000098
    17  C    0.013300  -0.005051   0.003481  -0.000276   0.000097  -0.000050
    18  C    0.005614   0.002340  -0.000891   0.000080  -0.000062   0.000017
    19  H   -0.007280   0.002358   0.001439  -0.000663  -0.001417   0.000391
    20  H   -0.007354  -0.001137   0.000295  -0.000248  -0.000005   0.000012
    21  H   -0.000574  -0.000187   0.000051  -0.000033   0.000026  -0.000001
    22  H   -0.000573   0.000012  -0.000025   0.000001  -0.000001   0.000000
    23  H   -0.000041   0.000018  -0.000016   0.000001  -0.000001  -0.000000
    24  C    0.173115  -0.085046  -0.006058   0.026002  -0.005063  -0.000855
    25  C   -0.011818   0.026115   0.014038  -0.058381   0.003470  -0.007234
    26  C   -0.011362  -0.006058  -0.008885   0.013977  -0.000277   0.000747
    27  C    0.013294  -0.000860   0.000746  -0.007230   0.000097  -0.000579
    28  C    0.013278  -0.005084  -0.000277   0.003481  -0.000050   0.000097
    29  C    0.005610   0.002370   0.000080  -0.000893   0.000017  -0.000061
    30  H   -0.007328   0.002425  -0.000653   0.001409   0.000395  -0.001416
    31  H   -0.007308  -0.001115  -0.000248   0.000290   0.000012  -0.000005
    32  H   -0.000573  -0.000189  -0.000033   0.000051  -0.000001   0.000026
    33  H   -0.000574   0.000011   0.000001  -0.000025   0.000000  -0.000001
    34  H   -0.000041   0.000018   0.000001  -0.000015  -0.000000  -0.000001
               7          8          9         10         11         12
     1  N    0.005614  -0.007347  -0.007310  -0.000573  -0.000573  -0.000041
     2  C   -0.095060  -0.033884  -0.033909   0.017880   0.017882  -0.008048
     3  C   -0.022981   0.395979   0.012620  -0.052600  -0.002488   0.024727
     4  C   -0.022975   0.012588   0.396016  -0.002489  -0.052614   0.024725
     5  C    0.435092  -0.041848  -0.001190   0.416599   0.016576  -0.071890
     6  C    0.435009  -0.001178  -0.041906   0.016577   0.416606  -0.071903
     7  C    5.046415   0.009772   0.009787  -0.067043  -0.067048   0.432171
     8  H    0.009772   0.520503  -0.000269  -0.007298   0.000013  -0.000102
     9  H    0.009787  -0.000269   0.520580   0.000012  -0.007302  -0.000102
    10  H   -0.067043  -0.007298   0.000012   0.582713  -0.000237  -0.008835
    11  H   -0.067048   0.000013  -0.007302  -0.000237   0.582719  -0.008835
    12  H    0.432171  -0.000102  -0.000102  -0.008835  -0.008835   0.583869
    13  C    0.002374   0.002478  -0.001114  -0.000188   0.000011   0.000018
    14  C   -0.000901   0.001386   0.000288   0.000051  -0.000025  -0.000015
    15  C    0.000082  -0.000658  -0.000248  -0.000033   0.000001   0.000001
    16  C   -0.000062  -0.001416  -0.000005   0.000027  -0.000001  -0.000001
    17  C    0.000017   0.000398   0.000012  -0.000001   0.000000  -0.000000
    18  C   -0.000009   0.000431  -0.000004  -0.000002   0.000000  -0.000000
    19  H    0.000433   0.000946   0.000030  -0.000046   0.000003   0.000003
    20  H   -0.000004   0.000031  -0.000006  -0.000000  -0.000000   0.000000
    21  H   -0.000002  -0.000045  -0.000000  -0.000000   0.000000  -0.000000
    22  H    0.000000   0.000003  -0.000000   0.000000  -0.000000  -0.000000
    23  H   -0.000000   0.000003   0.000000  -0.000000  -0.000000   0.000000
    24  C    0.002352  -0.001133   0.002432   0.000012  -0.000188   0.000018
    25  C   -0.000887   0.000296   0.001428  -0.000025   0.000051  -0.000015
    26  C    0.000080  -0.000249  -0.000677   0.000001  -0.000033   0.000001
    27  C   -0.000061  -0.000005  -0.001415  -0.000001   0.000026  -0.000001
    28  C    0.000017   0.000012   0.000396   0.000000  -0.000001  -0.000000
    29  C   -0.000009  -0.000004   0.000431   0.000000  -0.000002  -0.000000
    30  H    0.000431   0.000030   0.000945   0.000003  -0.000045   0.000003
    31  H   -0.000004  -0.000006   0.000031  -0.000000  -0.000000   0.000000
    32  H   -0.000002  -0.000000  -0.000045   0.000000  -0.000000  -0.000000
    33  H    0.000000  -0.000000   0.000003  -0.000000   0.000000  -0.000000
    34  H   -0.000000   0.000000   0.000003  -0.000000  -0.000000  -0.000000
              13         14         15         16         17         18
     1  N    0.173149  -0.011349  -0.011797   0.013260   0.013300   0.005614
     2  C   -0.084999   0.026010  -0.006212  -0.000783  -0.005051   0.002340
     3  C    0.026087  -0.058447   0.014038  -0.007239   0.003481  -0.000891
     4  C   -0.005958   0.013968  -0.008871   0.000743  -0.000276   0.000080
     5  C   -0.000891  -0.007204   0.000740  -0.000575   0.000097  -0.000062
     6  C   -0.005082   0.003484  -0.000280   0.000098  -0.000050   0.000017
     7  C    0.002374  -0.000901   0.000082  -0.000062   0.000017  -0.000009
     8  H    0.002478   0.001386  -0.000658  -0.001416   0.000398   0.000431
     9  H   -0.001114   0.000288  -0.000248  -0.000005   0.000012  -0.000004
    10  H   -0.000188   0.000051  -0.000033   0.000027  -0.000001  -0.000002
    11  H    0.000011  -0.000025   0.000001  -0.000001   0.000000   0.000000
    12  H    0.000018  -0.000015   0.000001  -0.000001  -0.000000  -0.000000
    13  C    5.396596   0.364931   0.365033   0.015718   0.015805  -0.095104
    14  C    0.364931   5.246966  -0.053648   0.367006  -0.134525  -0.022998
    15  C    0.365033  -0.053648   5.246767  -0.134646   0.366835  -0.022921
    16  C    0.015718   0.367006  -0.134646   5.078976   0.030214   0.434906
    17  C    0.015805  -0.134525   0.366835   0.030214   5.078992   0.434988
    18  C   -0.095104  -0.022998  -0.022921   0.434906   0.434988   5.046538
    19  H   -0.033968   0.396145   0.012641  -0.041991  -0.001200   0.009811
    20  H   -0.033891   0.012623   0.396083  -0.001190  -0.042005   0.009789
    21  H    0.017892  -0.052600  -0.002487   0.416606   0.016575  -0.067067
    22  H    0.017881  -0.002485  -0.052579   0.016578   0.416588  -0.067054
    23  H   -0.008045   0.024713   0.024715  -0.071874  -0.071865   0.432158
    24  C   -0.085241  -0.006015   0.026240  -0.005100  -0.000909   0.002379
    25  C   -0.006129  -0.008874   0.013948  -0.000276   0.000744   0.000080
    26  C    0.026122   0.013915  -0.058352   0.003491  -0.007191  -0.000901
    27  C   -0.005077  -0.000275   0.003491  -0.000051   0.000098   0.000017
    28  C   -0.000875   0.000746  -0.007193   0.000097  -0.000572  -0.000061
    29  C    0.002357   0.000079  -0.000900   0.000018  -0.000061  -0.000009
    30  H   -0.001137  -0.000249   0.000299   0.000012  -0.000005  -0.000004
    31  H    0.002420  -0.000679   0.001439   0.000393  -0.001419   0.000433
    32  H    0.000011   0.000001  -0.000025   0.000000  -0.000001   0.000000
    33  H   -0.000188  -0.000033   0.000052  -0.000001   0.000026  -0.000002
    34  H    0.000018   0.000001  -0.000016  -0.000000  -0.000001  -0.000000
              19         20         21         22         23         24
     1  N   -0.007280  -0.007354  -0.000574  -0.000573  -0.000041   0.173115
     2  C    0.002358  -0.001137  -0.000187   0.000012   0.000018  -0.085046
     3  C    0.001439   0.000295   0.000051  -0.000025  -0.000016  -0.006058
     4  C   -0.000663  -0.000248  -0.000033   0.000001   0.000001   0.026002
     5  C   -0.001417  -0.000005   0.000026  -0.000001  -0.000001  -0.005063
     6  C    0.000391   0.000012  -0.000001   0.000000  -0.000000  -0.000855
     7  C    0.000433  -0.000004  -0.000002   0.000000  -0.000000   0.002352
     8  H    0.000946   0.000031  -0.000045   0.000003   0.000003  -0.001133
     9  H    0.000030  -0.000006  -0.000000  -0.000000   0.000000   0.002432
    10  H   -0.000046  -0.000000  -0.000000   0.000000  -0.000000   0.000012
    11  H    0.000003  -0.000000   0.000000  -0.000000  -0.000000  -0.000188
    12  H    0.000003   0.000000  -0.000000  -0.000000   0.000000   0.000018
    13  C   -0.033968  -0.033891   0.017892   0.017881  -0.008045  -0.085241
    14  C    0.396145   0.012623  -0.052600  -0.002485   0.024713  -0.006015
    15  C    0.012641   0.396083  -0.002487  -0.052579   0.024715   0.026240
    16  C   -0.041991  -0.001190   0.416606   0.016578  -0.071874  -0.005100
    17  C   -0.001200  -0.042005   0.016575   0.416588  -0.071865  -0.000909
    18  C    0.009811   0.009789  -0.067067  -0.067054   0.432158   0.002379
    19  H    0.520660  -0.000269  -0.007307   0.000012  -0.000101  -0.001116
    20  H   -0.000269   0.520688   0.000013  -0.007299  -0.000102   0.002477
    21  H   -0.007307   0.000013   0.582713  -0.000237  -0.008831   0.000011
    22  H    0.000012  -0.007299  -0.000237   0.582697  -0.008834  -0.000189
    23  H   -0.000101  -0.000102  -0.008831  -0.008834   0.583815   0.000018
    24  C   -0.001116   0.002477   0.000011  -0.000189   0.000018   5.396461
    25  C   -0.000249  -0.000665   0.000001  -0.000033   0.000001   0.365183
    26  C    0.000293   0.001405  -0.000025   0.000052  -0.000015   0.364919
    27  C    0.000012   0.000398   0.000000  -0.000001  -0.000000   0.015808
    28  C   -0.000005  -0.001418  -0.000001   0.000026  -0.000001   0.015723
    29  C   -0.000004   0.000430   0.000000  -0.000002  -0.000000  -0.095114
    30  H   -0.000006   0.000031  -0.000000  -0.000000   0.000000  -0.033916
    31  H    0.000031   0.000944   0.000003  -0.000046   0.000003  -0.033913
    32  H   -0.000000   0.000003  -0.000000   0.000000  -0.000000   0.017871
    33  H   -0.000000  -0.000045   0.000000  -0.000000  -0.000000   0.017892
    34  H    0.000000   0.000003  -0.000000  -0.000000   0.000000  -0.008048
              25         26         27         28         29         30
     1  N   -0.011818  -0.011362   0.013294   0.013278   0.005610  -0.007328
     2  C    0.026115  -0.006058  -0.000860  -0.005084   0.002370   0.002425
     3  C    0.014038  -0.008885   0.000746  -0.000277   0.000080  -0.000653
     4  C   -0.058381   0.013977  -0.007230   0.003481  -0.000893   0.001409
     5  C    0.003470  -0.000277   0.000097  -0.000050   0.000017   0.000395
     6  C   -0.007234   0.000747  -0.000579   0.000097  -0.000061  -0.001416
     7  C   -0.000887   0.000080  -0.000061   0.000017  -0.000009   0.000431
     8  H    0.000296  -0.000249  -0.000005   0.000012  -0.000004   0.000030
     9  H    0.001428  -0.000677  -0.001415   0.000396   0.000431   0.000945
    10  H   -0.000025   0.000001  -0.000001   0.000000   0.000000   0.000003
    11  H    0.000051  -0.000033   0.000026  -0.000001  -0.000002  -0.000045
    12  H   -0.000015   0.000001  -0.000001  -0.000000  -0.000000   0.000003
    13  C   -0.006129   0.026122  -0.005077  -0.000875   0.002357  -0.001137
    14  C   -0.008874   0.013915  -0.000275   0.000746   0.000079  -0.000249
    15  C    0.013948  -0.058352   0.003491  -0.007193  -0.000900   0.000299
    16  C   -0.000276   0.003491  -0.000051   0.000097   0.000018   0.000012
    17  C    0.000744  -0.007191   0.000098  -0.000572  -0.000061  -0.000005
    18  C    0.000080  -0.000901   0.000017  -0.000061  -0.000009  -0.000004
    19  H   -0.000249   0.000293   0.000012  -0.000005  -0.000004  -0.000006
    20  H   -0.000665   0.001405   0.000398  -0.001418   0.000430   0.000031
    21  H    0.000001  -0.000025   0.000000  -0.000001   0.000000  -0.000000
    22  H   -0.000033   0.000052  -0.000001   0.000026  -0.000002  -0.000000
    23  H    0.000001  -0.000015  -0.000000  -0.000001  -0.000000   0.000000
    24  C    0.365183   0.364919   0.015808   0.015723  -0.095114  -0.033916
    25  C    5.247071  -0.053673   0.366771  -0.134609  -0.022927   0.396097
    26  C   -0.053673   5.246549  -0.134579   0.366964  -0.022920   0.012616
    27  C    0.366771  -0.134579   5.079080   0.030311   0.434883  -0.041947
    28  C   -0.134609   0.366964   0.030311   5.079085   0.434793  -0.001189
    29  C   -0.022927  -0.022920   0.434883   0.434793   5.046680   0.009786
    30  H    0.396097   0.012616  -0.041947  -0.001189   0.009786   0.520583
    31  H    0.012633   0.396122  -0.001197  -0.042027   0.009803  -0.000269
    32  H   -0.052572  -0.002484   0.416584   0.016574  -0.067044  -0.007294
    33  H   -0.002487  -0.052596   0.016579   0.416606  -0.067076   0.000012
    34  H    0.024723   0.024713  -0.071871  -0.071882   0.432161  -0.000102
              31         32         33         34
     1  N   -0.007308  -0.000573  -0.000574  -0.000041
     2  C   -0.001115  -0.000189   0.000011   0.000018
     3  C   -0.000248  -0.000033   0.000001   0.000001
     4  C    0.000290   0.000051  -0.000025  -0.000015
     5  C    0.000012  -0.000001   0.000000  -0.000000
     6  C   -0.000005   0.000026  -0.000001  -0.000001
     7  C   -0.000004  -0.000002   0.000000  -0.000000
     8  H   -0.000006  -0.000000  -0.000000   0.000000
     9  H    0.000031  -0.000045   0.000003   0.000003
    10  H   -0.000000   0.000000  -0.000000  -0.000000
    11  H   -0.000000  -0.000000   0.000000  -0.000000
    12  H    0.000000  -0.000000  -0.000000  -0.000000
    13  C    0.002420   0.000011  -0.000188   0.000018
    14  C   -0.000679   0.000001  -0.000033   0.000001
    15  C    0.001439  -0.000025   0.000052  -0.000016
    16  C    0.000393   0.000000  -0.000001  -0.000000
    17  C   -0.001419  -0.000001   0.000026  -0.000001
    18  C    0.000433   0.000000  -0.000002  -0.000000
    19  H    0.000031  -0.000000  -0.000000   0.000000
    20  H    0.000944   0.000003  -0.000045   0.000003
    21  H    0.000003  -0.000000   0.000000  -0.000000
    22  H   -0.000046   0.000000  -0.000000  -0.000000
    23  H    0.000003  -0.000000  -0.000000   0.000000
    24  C   -0.033913   0.017871   0.017892  -0.008048
    25  C    0.012633  -0.052572  -0.002487   0.024723
    26  C    0.396122  -0.002484  -0.052596   0.024713
    27  C   -0.001197   0.416584   0.016579  -0.071871
    28  C   -0.042027   0.016574   0.416606  -0.071882
    29  C    0.009803  -0.067044  -0.067076   0.432161
    30  H   -0.000269  -0.007294   0.000012  -0.000102
    31  H    0.520715   0.000012  -0.007301  -0.000102
    32  H    0.000012   0.582682  -0.000236  -0.008834
    33  H   -0.007301  -0.000236   0.582697  -0.008834
    34  H   -0.000102  -0.008834  -0.008834   0.583825
 Mulliken charges:
               1
     1  N   -0.009620
     2  C   -0.059893
     3  C   -0.112214
     4  C   -0.112352
     5  C   -0.113009
     6  C   -0.112916
     7  C   -0.102598
     8  H    0.150576
     9  H    0.150487
    10  H    0.105497
    11  H    0.105502
    12  H    0.104253
    13  C   -0.061013
    14  C   -0.111994
    15  C   -0.111541
    16  C   -0.112933
    17  C   -0.113035
    18  C   -0.102491
    19  H    0.150414
    20  H    0.150413
    21  H    0.105507
    22  H    0.105508
    23  H    0.104281
    24  C   -0.061010
    25  C   -0.111797
    26  C   -0.111690
    27  C   -0.113047
    28  C   -0.112962
    29  C   -0.102473
    30  H    0.150483
    31  H    0.150354
    32  H    0.105518
    33  H    0.105518
    34  H    0.104278
 Sum of Mulliken charges =  -0.00000
 Mulliken charges with hydrogens summed into heavy atoms:
               1
     1  N   -0.009620
     2  C   -0.059893
     3  C    0.038363
     4  C    0.038135
     5  C   -0.007512
     6  C   -0.007414
     7  C    0.001654
    13  C   -0.061013
    14  C    0.038420
    15  C    0.038872
    16  C   -0.007426
    17  C   -0.007527
    18  C    0.001790
    24  C   -0.061010
    25  C    0.038686
    26  C    0.038665
    27  C   -0.007530
    28  C   -0.007444
    29  C    0.001804
 Electronic spatial extent (au):  <R**2>=           4959.9829
 Charge=             -0.0000 electrons
 Dipole moment (field-independent basis, Debye):
    X=              0.0012    Y=             -0.0028    Z=              0.0006  Tot=              0.0031
 Quadrupole moment (field-independent basis, Debye-Ang):
   XX=           -103.5004   YY=           -103.5244   ZZ=           -111.2150
   XY=              0.0068   XZ=              0.0020   YZ=              0.0004
 Traceless Quadrupole moment (field-independent basis, Debye-Ang):
   XX=              2.5796   YY=              2.5555   ZZ=             -5.1350
   XY=              0.0068   XZ=              0.0020   YZ=              0.0004
 Octapole moment (field-independent basis, Debye-Ang**2):
  XXX=             12.3174  YYY=             10.1375  ZZZ=             -0.0093  XYY=            -12.3118
  XXY=            -10.1373  XXZ=              0.0074  XZZ=              0.0156  YZZ=             -0.0510
  YYZ=              0.0181  XYZ=              0.0116
 Hexadecapole moment (field-independent basis, Debye-Ang**3):
 XXXX=          -3065.8753 YYYY=          -3066.0649 ZZZZ=           -467.3126 XXXY=             -0.0743
 XXXZ=             52.5711 YYYX=              0.1553 YYYZ=            -64.0504 ZZZX=              0.0724
 ZZZY=              0.0262 XXYY=          -1021.9226 XXZZ=           -619.2743 YYZZ=           -619.3981
 XXYZ=             64.0107 YYXZ=            -52.6511 ZZXY=              0.0441
 N-N= 1.298220548022D+03 E-N=-4.335841711264D+03  KE= 7.455841076276D+02
 No NMR shielding tensors so no spin-rotation constants.
 Leave Link  601 at Sun Jan 17 21:07:33 2021, MaxMem=  4026531840 cpu:               2.2 elap:               0.4
 (Enter /opt/ohpc/pub/libs/gaussian/g16-A.03/sandybridge/g16/l9999.exe)

 Test job not archived.
 1\1\GINC-CASCADEB040\SP\RLC-wHPBE\TZVP\C18H15N1\RDU230\17-Jan-2021\0\\
 #P LC-wHPBE/TZVP iop(3/107=0194300000, 3/108=0194300000) scf=(conver=6
 ,fermi,ndamp=35,noincfock,novaracc,vshift=500,xqc)\\H15 C18 N1\\0,1\N,
 0,0.000022,-0.000126,-0.001279\C,0,0.411521,-1.356839,-0.000484\C,0,1.
 495533,-1.769287,0.781179\C,0,-0.26032,-2.302689,-0.781717\C,0,1.90121
 8,-3.097977,0.77159\C,0,0.140608,-3.632811,-0.770872\C,0,1.225282,-4.0
 3895,0.000666\H,0,2.020108,-1.039002,1.394849\H,0,-1.101816,-1.987296,
 -1.396157\H,0,2.748094,-3.402056,1.385878\H,0,-0.394485,-4.35669,-1.38
 4611\H,0,1.541424,-5.08084,0.001027\C,0,0.969124,1.03471,-0.000488\C,0
 ,2.123037,0.926935,-0.78345\C,0,0.785335,2.178692,0.782922\C,0,3.07444
 4,1.939229,-0.772694\C,0,1.733248,3.194302,0.773528\C,0,2.885092,3.080
 453,0.000886\H,0,2.269922,0.041314,-1.399284\H,0,-0.10857,2.266902,1.3
 98014\H,0,3.967862,1.838651,-1.388087\H,0,1.574087,4.078874,1.389358\H
 ,0,3.629424,3.875076,0.001646\C,0,-1.380731,0.321945,-0.000436\C,0,-2.
 279686,-0.409002,0.782988\C,0,-1.864017,1.375244,-0.783483\C,0,-3.6331
 85,-0.0958,0.773256\C,0,-3.216365,1.693293,-0.772877\C,0,-4.110212,0.9
 58658,0.000466\H,0,-1.909274,-1.227214,1.398174\H,0,-1.170181,1.945112
 ,-1.399095\H,0,-4.319851,-0.675761,1.389003\H,0,-3.575887,2.517271,-1.
 388348\H,0,-5.170565,1.205911,0.000686\\Version=EM64L-G16RevA.03\State
 =1-A\HF=-749.2124539\RMSD=6.241e-07\Dipole=-0.0004541,0.0011203,0.0002
 352\Quadrupole=1.9178381,1.8999404,-3.8177784,0.0050351,-0.0014902,-0.
 0003002\PG=C01 [X(C18H15N1)]\\@


 Once you get people laughing, they're
 listening and you can tell them almost anything.
                                 -- Herb Gardner
 Job cpu time:       0 days  0 hours 37 minutes 28.8 seconds.
 Elapsed time:       0 days  0 hours  4 minutes 42.3 seconds.
 File lengths (MBytes):  RWF=    116 Int=      0 D2E=      0 Chk=     20 Scr=      8
 Normal termination of Gaussian 16 at Sun Jan 17 21:07:33 2021.
