 Entering Gaussian System, Link 0=g16
 Input=mol_bp_NN_frag_opt_0.gjf
 Output=mol_bp_NN_frag_opt_0.log
 Initial command:
 /opt/ohpc/pub/libs/gaussian/g16-A.03/sandybridge/g16/l1.exe "/mnt/gpfs2_4m/scratch/rdu230/ondemand/projects/init_structures/wtuning/mol_bp_NN_frag/Gau-290295.inp" -scrdir="/mnt/gpfs2_4m/scratch/rdu230/ondemand/projects/init_structures/wtuning/mol_bp_NN_frag/"
 Entering Link 1 = /opt/ohpc/pub/libs/gaussian/g16-A.03/sandybridge/g16/l1.exe PID=    290296.
  
 Copyright (c) 1988,1990,1992,1993,1995,1998,2003,2009,2016,
            Gaussian, Inc.  All Rights Reserved.
  
 This is part of the Gaussian(R) 16 program.  It is based on
 the Gaussian(R) 09 system (copyright 2009, Gaussian, Inc.),
 the Gaussian(R) 03 system (copyright 2003, Gaussian, Inc.),
 the Gaussian(R) 98 system (copyright 1998, Gaussian, Inc.),
 the Gaussian(R) 94 system (copyright 1995, Gaussian, Inc.),
 the Gaussian 92(TM) system (copyright 1992, Gaussian, Inc.),
 the Gaussian 90(TM) system (copyright 1990, Gaussian, Inc.),
 the Gaussian 88(TM) system (copyright 1988, Gaussian, Inc.),
 the Gaussian 86(TM) system (copyright 1986, Carnegie Mellon
 University), and the Gaussian 82(TM) system (copyright 1983,
 Carnegie Mellon University). Gaussian is a federally registered
 trademark of Gaussian, Inc.
  
 This software contains proprietary and confidential information,
 including trade secrets, belonging to Gaussian, Inc.
  
 This software is provided under written license and may be
 used, copied, transmitted, or stored only in accord with that
 written license.
  
 The following legend is applicable only to US Government
 contracts under FAR:
  
                    RESTRICTED RIGHTS LEGEND
  
 Use, reproduction and disclosure by the US Government is
 subject to restrictions as set forth in subparagraphs (a)
 and (c) of the Commercial Computer Software - Restricted
 Rights clause in FAR 52.227-19.
  
 Gaussian, Inc.
 340 Quinnipiac St., Bldg. 40, Wallingford CT 06492
  
  
 ---------------------------------------------------------------
 Warning -- This program may not be used in any manner that
 competes with the business of Gaussian, Inc. or will provide
 assistance to any competitor of Gaussian, Inc.  The licensee
 of this program is prohibited from giving any competitor of
 Gaussian, Inc. access to this program.  By using this program,
 the user acknowledges that Gaussian, Inc. is engaged in the
 business of creating and licensing software in the field of
 computational chemistry and represents and warrants to the
 licensee that it is not a competitor of Gaussian, Inc. and that
 it will not use this program in any manner prohibited above.
 ---------------------------------------------------------------
  

 Cite this work as:
 Gaussian 16, Revision A.03,
 M. J. Frisch, G. W. Trucks, H. B. Schlegel, G. E. Scuseria, 
 M. A. Robb, J. R. Cheeseman, G. Scalmani, V. Barone, 
 G. A. Petersson, H. Nakatsuji, X. Li, M. Caricato, A. V. Marenich, 
 J. Bloino, B. G. Janesko, R. Gomperts, B. Mennucci, H. P. Hratchian, 
 J. V. Ortiz, A. F. Izmaylov, J. L. Sonnenberg, D. Williams-Young, 
 F. Ding, F. Lipparini, F. Egidi, J. Goings, B. Peng, A. Petrone, 
 T. Henderson, D. Ranasinghe, V. G. Zakrzewski, J. Gao, N. Rega, 
 G. Zheng, W. Liang, M. Hada, M. Ehara, K. Toyota, R. Fukuda, 
 J. Hasegawa, M. Ishida, T. Nakajima, Y. Honda, O. Kitao, H. Nakai, 
 T. Vreven, K. Throssell, J. A. Montgomery, Jr., J. E. Peralta, 
 F. Ogliaro, M. J. Bearpark, J. J. Heyd, E. N. Brothers, K. N. Kudin, 
 V. N. Staroverov, T. A. Keith, R. Kobayashi, J. Normand, 
 K. Raghavachari, A. P. Rendell, J. C. Burant, S. S. Iyengar, 
 J. Tomasi, M. Cossi, J. M. Millam, M. Klene, C. Adamo, R. Cammi, 
 J. W. Ochterski, R. L. Martin, K. Morokuma, O. Farkas, 
 J. B. Foresman, and D. J. Fox, Gaussian, Inc., Wallingford CT, 2016.
 
 ******************************************
 Gaussian 16:  EM64L-G16RevA.03 25-Dec-2016
                17-Jan-2021 
 ******************************************
 %mem=30GB
 %nproc=8
 Will use up to    8 processors via shared memory.
 ------------------------------------------------------------
 #P LC-wHPBE/TZVP iop(3/107=0117500000, 3/108=0117500000) opt
 ------------------------------------------------------------
 1/18=20,19=15,26=3,38=1/1,3;
 2/9=110,12=2,17=6,18=5,40=1/2;
 3/5=19,7=101,11=2,25=1,30=1,71=1,74=-71,107=117500000,108=117500000/1,2,3;
 4//1;
 5/5=2,38=5/2;
 6/7=2,8=2,9=2,10=2,28=1/1;
 7//1,2,3,16;
 1/18=20,19=15,26=3/3(2);
 2/9=110/2;
 99//99;
 2/9=110/2;
 3/5=19,7=101,11=2,25=1,30=1,71=1,74=-71,107=117500000,108=117500000/1,2,3;
 4/5=5,16=3,69=1/1;
 5/5=2,38=5/2;
 7//1,2,3,16;
 1/18=20,19=15,26=3/3(-5);
 2/9=110/2;
 6/7=2,8=2,9=2,10=2,19=2,28=1/1;
 99/9=1/99;
 Leave Link    1 at Sun Jan 17 09:09:36 2021, MaxMem=  4026531840 cpu:               1.3 elap:               0.2
 (Enter /opt/ohpc/pub/libs/gaussian/g16-A.03/sandybridge/g16/l101.exe)
 -------
 H10 C12
 -------
 Symbolic Z-matrix:
 Charge =  0 Multiplicity = 1
 C                    -0.01346  -0.04758  -1.50904 
 C                    -1.23308   0.03455  -0.77106 
 C                     1.24692   0.0172   -0.81535 
 C                    -1.17292  -0.02589   0.62767 
 C                     1.1934   -0.04721   0.58865 
 C                     0.04553   0.01448   1.28879 
 H                    -2.14255   0.04776  -1.345 
 H                     2.19672   0.01128  -1.33699 
 H                    -2.13465   0.00397   1.0896 
 H                     0.02147   0.03535   2.36143 
 C                     2.53519   0.04003   1.33291 
 C                     2.53194   0.02405   2.7676 
 C                     3.76855  -0.04121   0.64325 
 C                     3.80348   0.00881   3.40964 
 C                     5.00302  -0.04174   1.37494 
 C                     5.02992   0.03528   2.76101 
 H                     1.64759   0.0039    3.36984 
 H                     3.76207  -0.025    -0.457 
 H                     3.77544   0.04061   4.51553 
 H                     5.89755   0.04735   0.80862 
 H                     5.91555  -0.04432   3.29226 
 H                     0.02347  -0.03383  -2.56811 
 
 ITRead=  0  0  0  0  0  0  0  0  0  0  0  0  0  0  0  0  0  0  0  0
 ITRead=  0  0
 MicOpt= -1 -1 -1 -1 -1 -1 -1 -1 -1 -1 -1 -1 -1 -1 -1 -1 -1 -1 -1 -1
 MicOpt= -1 -1
 NAtoms=     22 NQM=       22 NQMF=       0 NMMI=      0 NMMIF=      0
                NMic=       0 NMicF=      0.
                    Isotopes and Nuclear Properties:
 (Nuclear quadrupole moments (NQMom) in fm**2, nuclear magnetic moments (NMagM)
  in nuclear magnetons)

  Atom         1           2           3           4           5           6           7           8           9          10
 IAtWgt=          12          12          12          12          12          12           1           1           1           1
 AtmWgt=  12.0000000  12.0000000  12.0000000  12.0000000  12.0000000  12.0000000   1.0078250   1.0078250   1.0078250   1.0078250
 NucSpn=           0           0           0           0           0           0           1           1           1           1
 AtZEff=  -0.0000000  -0.0000000  -0.0000000  -0.0000000  -0.0000000  -0.0000000  -0.0000000  -0.0000000  -0.0000000  -0.0000000
 NQMom=    0.0000000   0.0000000   0.0000000   0.0000000   0.0000000   0.0000000   0.0000000   0.0000000   0.0000000   0.0000000
 NMagM=    0.0000000   0.0000000   0.0000000   0.0000000   0.0000000   0.0000000   2.7928460   2.7928460   2.7928460   2.7928460
 AtZNuc=   6.0000000   6.0000000   6.0000000   6.0000000   6.0000000   6.0000000   1.0000000   1.0000000   1.0000000   1.0000000

  Atom        11          12          13          14          15          16          17          18          19          20
 IAtWgt=          12          12          12          12          12          12           1           1           1           1
 AtmWgt=  12.0000000  12.0000000  12.0000000  12.0000000  12.0000000  12.0000000   1.0078250   1.0078250   1.0078250   1.0078250
 NucSpn=           0           0           0           0           0           0           1           1           1           1
 AtZEff=  -0.0000000  -0.0000000  -0.0000000  -0.0000000  -0.0000000  -0.0000000  -0.0000000  -0.0000000  -0.0000000  -0.0000000
 NQMom=    0.0000000   0.0000000   0.0000000   0.0000000   0.0000000   0.0000000   0.0000000   0.0000000   0.0000000   0.0000000
 NMagM=    0.0000000   0.0000000   0.0000000   0.0000000   0.0000000   0.0000000   2.7928460   2.7928460   2.7928460   2.7928460
 AtZNuc=   6.0000000   6.0000000   6.0000000   6.0000000   6.0000000   6.0000000   1.0000000   1.0000000   1.0000000   1.0000000

  Atom        21          22
 IAtWgt=           1           1
 AtmWgt=   1.0078250   1.0078250
 NucSpn=           1           1
 AtZEff=  -0.0000000  -0.0000000
 NQMom=    0.0000000   0.0000000
 NMagM=    2.7928460   2.7928460
 AtZNuc=   1.0000000   1.0000000
 Leave Link  101 at Sun Jan 17 09:09:36 2021, MaxMem=  4026531840 cpu:               2.4 elap:               0.4
 (Enter /opt/ohpc/pub/libs/gaussian/g16-A.03/sandybridge/g16/l103.exe)

 GradGradGradGradGradGradGradGradGradGradGradGradGradGradGradGradGradGrad
 Berny optimization.
 Initialization pass.
                           ----------------------------
                           !    Initial Parameters    !
                           ! (Angstroms and Degrees)  !
 --------------------------                            --------------------------
 ! Name  Definition              Value          Derivative Info.                !
 --------------------------------------------------------------------------------
 ! R1    R(1,2)                  1.4279         estimate D2E/DX2                !
 ! R2    R(1,3)                  1.4401         estimate D2E/DX2                !
 ! R3    R(1,22)                 1.0598         estimate D2E/DX2                !
 ! R4    R(2,4)                  1.4013         estimate D2E/DX2                !
 ! R5    R(2,7)                  1.0755         estimate D2E/DX2                !
 ! R6    R(3,5)                  1.4065         estimate D2E/DX2                !
 ! R7    R(3,8)                  1.0836         estimate D2E/DX2                !
 ! R8    R(4,6)                  1.3868         estimate D2E/DX2                !
 ! R9    R(4,9)                  1.0673         estimate D2E/DX2                !
 ! R10   R(5,6)                  1.346          estimate D2E/DX2                !
 ! R11   R(5,11)                 1.5369         estimate D2E/DX2                !
 ! R12   R(6,10)                 1.0731         estimate D2E/DX2                !
 ! R13   R(11,12)                1.4348         estimate D2E/DX2                !
 ! R14   R(11,13)                1.4154         estimate D2E/DX2                !
 ! R15   R(12,14)                1.4245         estimate D2E/DX2                !
 ! R16   R(12,17)                1.0701         estimate D2E/DX2                !
 ! R17   R(13,15)                1.435          estimate D2E/DX2                !
 ! R18   R(13,18)                1.1004         estimate D2E/DX2                !
 ! R19   R(14,16)                1.3876         estimate D2E/DX2                !
 ! R20   R(14,19)                1.1067         estimate D2E/DX2                !
 ! R21   R(15,16)                1.3885         estimate D2E/DX2                !
 ! R22   R(15,20)                1.0625         estimate D2E/DX2                !
 ! R23   R(16,21)                1.0358         estimate D2E/DX2                !
 ! A1    A(2,1,3)              119.7359         estimate D2E/DX2                !
 ! A2    A(2,1,22)             123.0586         estimate D2E/DX2                !
 ! A3    A(3,1,22)             116.7612         estimate D2E/DX2                !
 ! A4    A(1,2,4)              118.4722         estimate D2E/DX2                !
 ! A5    A(1,2,7)              116.5635         estimate D2E/DX2                !
 ! A6    A(4,2,7)              124.7141         estimate D2E/DX2                !
 ! A7    A(1,3,5)              116.4534         estimate D2E/DX2                !
 ! A8    A(1,3,8)              122.3429         estimate D2E/DX2                !
 ! A9    A(5,3,8)              120.9053         estimate D2E/DX2                !
 ! A10   A(2,4,6)              120.8163         estimate D2E/DX2                !
 ! A11   A(2,4,9)              113.0856         estimate D2E/DX2                !
 ! A12   A(6,4,9)              125.769          estimate D2E/DX2                !
 ! A13   A(3,5,6)              123.3403         estimate D2E/DX2                !
 ! A14   A(3,5,11)             116.5895         estimate D2E/DX2                !
 ! A15   A(6,5,11)             119.3449         estimate D2E/DX2                !
 ! A16   A(4,6,5)              119.9975         estimate D2E/DX2                !
 ! A17   A(4,6,10)             117.217          estimate D2E/DX2                !
 ! A18   A(5,6,10)             122.6816         estimate D2E/DX2                !
 ! A19   A(5,11,12)            118.7923         estimate D2E/DX2                !
 ! A20   A(5,11,13)            121.4369         estimate D2E/DX2                !
 ! A21   A(12,11,13)           119.245          estimate D2E/DX2                !
 ! A22   A(11,12,14)           116.6652         estimate D2E/DX2                !
 ! A23   A(11,12,17)           124.3894         estimate D2E/DX2                !
 ! A24   A(14,12,17)           118.9341         estimate D2E/DX2                !
 ! A25   A(11,13,15)           120.0781         estimate D2E/DX2                !
 ! A26   A(11,13,18)           118.764          estimate D2E/DX2                !
 ! A27   A(15,13,18)           120.9902         estimate D2E/DX2                !
 ! A28   A(12,14,16)           125.3119         estimate D2E/DX2                !
 ! A29   A(12,14,19)           115.3058         estimate D2E/DX2                !
 ! A30   A(16,14,19)           119.2709         estimate D2E/DX2                !
 ! A31   A(13,15,16)           121.7119         estimate D2E/DX2                !
 ! A32   A(13,15,20)           116.9014         estimate D2E/DX2                !
 ! A33   A(16,15,20)           120.7399         estimate D2E/DX2                !
 ! A34   A(14,16,15)           116.644          estimate D2E/DX2                !
 ! A35   A(14,16,21)           120.9619         estimate D2E/DX2                !
 ! A36   A(15,16,21)           121.6212         estimate D2E/DX2                !
 ! D1    D(3,1,2,4)             -9.4753         estimate D2E/DX2                !
 ! D2    D(3,1,2,7)            175.9981         estimate D2E/DX2                !
 ! D3    D(22,1,2,4)           178.427          estimate D2E/DX2                !
 ! D4    D(22,1,2,7)             3.9004         estimate D2E/DX2                !
 ! D5    D(2,1,3,5)              9.5011         estimate D2E/DX2                !
 ! D6    D(2,1,3,8)           -176.7248         estimate D2E/DX2                !
 ! D7    D(22,1,3,5)          -177.9136         estimate D2E/DX2                !
 ! D8    D(22,1,3,8)            -4.1395         estimate D2E/DX2                !
 ! D9    D(1,2,4,6)              8.5218         estimate D2E/DX2                !
 ! D10   D(1,2,4,9)           -177.6992         estimate D2E/DX2                !
 ! D11   D(7,2,4,6)           -177.4356         estimate D2E/DX2                !
 ! D12   D(7,2,4,9)             -3.6565         estimate D2E/DX2                !
 ! D13   D(1,3,5,6)             -9.0724         estimate D2E/DX2                !
 ! D14   D(1,3,5,11)          -179.2306         estimate D2E/DX2                !
 ! D15   D(8,3,5,6)            177.0576         estimate D2E/DX2                !
 ! D16   D(8,3,5,11)             6.8994         estimate D2E/DX2                !
 ! D17   D(2,4,6,5)             -7.8766         estimate D2E/DX2                !
 ! D18   D(2,4,6,10)           175.7276         estimate D2E/DX2                !
 ! D19   D(9,4,6,5)            179.1805         estimate D2E/DX2                !
 ! D20   D(9,4,6,10)             2.7847         estimate D2E/DX2                !
 ! D21   D(3,5,6,4)              8.3264         estimate D2E/DX2                !
 ! D22   D(3,5,6,10)          -175.4819         estimate D2E/DX2                !
 ! D23   D(11,5,6,4)           178.2273         estimate D2E/DX2                !
 ! D24   D(11,5,6,10)           -5.581          estimate D2E/DX2                !
 ! D25   D(3,5,11,12)          177.9461         estimate D2E/DX2                !
 ! D26   D(3,5,11,13)          -10.4361         estimate D2E/DX2                !
 ! D27   D(6,5,11,12)            7.3747         estimate D2E/DX2                !
 ! D28   D(6,5,11,13)          178.9925         estimate D2E/DX2                !
 ! D29   D(5,11,12,14)         175.5691         estimate D2E/DX2                !
 ! D30   D(5,11,12,17)          -3.1949         estimate D2E/DX2                !
 ! D31   D(13,11,12,14)          3.7643         estimate D2E/DX2                !
 ! D32   D(13,11,12,17)       -174.9996         estimate D2E/DX2                !
 ! D33   D(5,11,13,15)        -176.0421         estimate D2E/DX2                !
 ! D34   D(5,11,13,18)           8.6157         estimate D2E/DX2                !
 ! D35   D(12,11,13,15)         -4.4614         estimate D2E/DX2                !
 ! D36   D(12,11,13,18)       -179.8036         estimate D2E/DX2                !
 ! D37   D(11,12,14,16)          1.3683         estimate D2E/DX2                !
 ! D38   D(11,12,14,19)        177.4823         estimate D2E/DX2                !
 ! D39   D(17,12,14,16)       -179.7972         estimate D2E/DX2                !
 ! D40   D(17,12,14,19)         -3.6831         estimate D2E/DX2                !
 ! D41   D(11,13,15,16)          0.039          estimate D2E/DX2                !
 ! D42   D(11,13,15,20)       -170.8035         estimate D2E/DX2                !
 ! D43   D(18,13,15,16)        175.2758         estimate D2E/DX2                !
 ! D44   D(18,13,15,20)          4.4333         estimate D2E/DX2                !
 ! D45   D(12,14,16,15)         -5.6349         estimate D2E/DX2                !
 ! D46   D(12,14,16,21)       -175.7241         estimate D2E/DX2                !
 ! D47   D(19,14,16,15)        178.3925         estimate D2E/DX2                !
 ! D48   D(19,14,16,21)          8.3034         estimate D2E/DX2                !
 ! D49   D(13,15,16,14)          4.8154         estimate D2E/DX2                !
 ! D50   D(13,15,16,21)        174.8342         estimate D2E/DX2                !
 ! D51   D(20,15,16,14)        175.3107         estimate D2E/DX2                !
 ! D52   D(20,15,16,21)        -14.6704         estimate D2E/DX2                !
 --------------------------------------------------------------------------------
 Trust Radius=3.00D-01 FncErr=1.00D-07 GrdErr=1.00D-06 EigMax=2.50D+02 EigMin=1.00D-04
 Number of steps in this run=    121 maximum allowed number of steps=    132.
 GradGradGradGradGradGradGradGradGradGradGradGradGradGradGradGradGradGrad

 Leave Link  103 at Sun Jan 17 09:09:36 2021, MaxMem=  4026531840 cpu:               0.1 elap:               0.0
 (Enter /opt/ohpc/pub/libs/gaussian/g16-A.03/sandybridge/g16/l202.exe)
                          Input orientation:                          
 ---------------------------------------------------------------------
 Center     Atomic      Atomic             Coordinates (Angstroms)
 Number     Number       Type             X           Y           Z
 ---------------------------------------------------------------------
      1          6           0       -0.013461   -0.047576   -1.509037
      2          6           0       -1.233075    0.034550   -0.771062
      3          6           0        1.246916    0.017199   -0.815351
      4          6           0       -1.172920   -0.025891    0.627666
      5          6           0        1.193398   -0.047209    0.588647
      6          6           0        0.045532    0.014476    1.288790
      7          1           0       -2.142548    0.047760   -1.344996
      8          1           0        2.196723    0.011278   -1.336985
      9          1           0       -2.134655    0.003973    1.089604
     10          1           0        0.021465    0.035346    2.361426
     11          6           0        2.535186    0.040026    1.332907
     12          6           0        2.531940    0.024048    2.767601
     13          6           0        3.768552   -0.041212    0.643252
     14          6           0        3.803484    0.008806    3.409643
     15          6           0        5.003017   -0.041738    1.374944
     16          6           0        5.029916    0.035284    2.761009
     17          1           0        1.647588    0.003903    3.369839
     18          1           0        3.762070   -0.024996   -0.456996
     19          1           0        3.775441    0.040605    4.515525
     20          1           0        5.897553    0.047347    0.808617
     21          1           0        5.915547   -0.044324    3.292264
     22          1           0        0.023469   -0.033829   -2.568108
 ---------------------------------------------------------------------
                    Distance matrix (angstroms):
                    1          2          3          4          5
     1  C    0.000000
     2  C    1.427869   0.000000
     3  C    1.440120   2.480447   0.000000
     4  C    2.431114   1.401325   2.817758   0.000000
     5  C    2.420080   2.782672   1.406493   2.366736   0.000000
     6  C    2.799137   2.424506   2.422961   1.386845   1.345958
     7  H    2.137524   1.075507   3.430732   2.199318   3.857011
     8  H    2.217652   3.476252   1.083638   3.900734   2.172128
     9  H    3.354856   2.067815   3.881243   1.067339   3.365934
    10  H    3.871509   3.374367   3.404992   2.106236   2.126732
    11  C    3.818366   4.315844   2.505030   3.775150   1.536857
    12  C    4.977331   5.166970   3.806426   4.278762   2.558244
    13  C    4.351553   5.198297   2.913689   4.941520   2.575740
    14  C    6.226208   6.545677   4.938288   5.701333   3.843658
    15  C    5.786401   6.595453   4.348466   6.221003   3.889922
    16  C    6.608768   7.190312   5.205936   6.559731   4.409629
    17  H    5.154141   5.044425   4.204347   3.933912   2.818498
    18  H    3.919430   5.005363   2.540905   5.052783   2.773434
    19  H    7.117507   7.282395   5.900189   6.293341   4.700535
    20  H    6.349852   7.303520   4.926115   7.073167   4.710244
    21  H    7.629262   8.223116   6.218714   7.572766   5.441346
    22  H    1.059804   2.193844   2.138126   3.412386   3.366603
                    6          7          8          9         10
     6  C    0.000000
     7  H    3.424271   0.000000
     8  H    3.394455   4.339432   0.000000
     9  H    2.189292   2.435007   4.964798   0.000000
    10  H    1.073109   4.291931   4.290754   2.503471   0.000000
    11  C    2.490176   5.390030   2.691414   4.676314   2.716002
    12  C    2.892957   6.226143   4.118271   4.959152   2.543146
    13  C    3.778981   6.237159   2.528782   5.920230   4.122941
    14  C    4.315119   7.613370   5.011204   6.375272   3.924682
    15  C    4.958552   7.646253   3.902903   7.143519   5.078873
    16  C    5.197302   8.264604   4.982079   7.357014   5.024365
    17  H    2.626302   6.049523   4.738755   4.416428   1.913677
    18  H    4.106334   5.971461   1.796109   6.096243   4.683937
    19  H    4.932010   8.328766   6.061772   6.831362   4.328107
    20  H    5.871780   8.323537   4.277973   8.037238   6.077810
    21  H    6.202777   9.297610   5.938240   8.346244   5.967664
    22  H    3.857264   2.488833   2.498146   4.247091   4.930020
                   11         12         13         14         15
    11  C    0.000000
    12  C    1.434787   0.000000
    13  C    1.415421   2.458928   0.000000
    14  C    2.433595   1.424526   2.767064   0.000000
    15  C    2.469543   2.837260   1.435018   2.362506   0.000000
    16  C    2.874574   2.498010   2.466128   1.387646   1.388464
    17  H    2.222212   1.070128   3.454678   2.156269   3.903920
    18  H    2.170996   3.451616   1.100387   3.867009   2.212744
    19  H    3.415742   2.145182   3.873143   1.106694   3.372977
    20  H    3.403005   3.894292   2.137249   3.339453   1.062477
    21  H    3.908073   3.424725   3.409818   2.115989   2.123401
    22  H    4.640269   5.896233   4.933410   7.072753   6.351663
                   16         17         18         19         20
    16  C    0.000000
    17  H    3.436830   0.000000
    18  H    3.459281   4.372246   0.000000
    19  H    2.156864   2.416961   4.972972   0.000000
    20  H    2.136533   4.962252   2.483404   4.271366   0.000000
    21  H    1.035814   4.268936   4.323747   2.466502   2.485403
    22  H    7.312235   6.156168   4.293485   8.016277   6.775967
                   21         22
    21  H    0.000000
    22  H    8.310274   0.000000
 Stoichiometry    C12H10
 Framework group  C1[X(C12H10)]
 Deg. of freedom    60
 Full point group                 C1      NOp   1
 Largest Abelian subgroup         C1      NOp   1
 Largest concise Abelian subgroup C1      NOp   1
                         Standard orientation:                         
 ---------------------------------------------------------------------
 Center     Atomic      Atomic             Coordinates (Angstroms)
 Number     Number       Type             X           Y           Z
 ---------------------------------------------------------------------
      1          6           0       -2.887066    1.215477   -0.029986
      2          6           0       -3.582119   -0.029866    0.039526
      3          6           0       -1.448471    1.235094    0.033310
      4          6           0       -2.838251   -1.215143   -0.034584
      5          6           0       -0.800805   -0.010927   -0.045309
      6          6           0       -1.452227   -1.187692    0.004450
      7          1           0       -4.656406    0.019107    0.054530
      8          1           0       -0.880862    2.158176    0.036680
      9          1           0       -3.445719   -2.092497   -0.013469
     10          1           0       -0.942717   -2.132075    0.014531
     11          6           0        0.733586    0.004748    0.040293
     12          6           0        1.440183   -1.243618    0.010013
     13          6           0        1.464487    1.214885   -0.028753
     14          6           0        2.862853   -1.172730   -0.006141
     15          6           0        2.899276    1.189362   -0.031244
     16          6           0        3.608138   -0.002836    0.032084
     17          1           0        0.969294   -2.204107   -0.019943
     18          1           0        0.914814    2.167761   -0.001607
     19          1           0        3.385360   -2.148092    0.014521
     20          1           0        3.396856    2.122932    0.067333
     21          1           0        4.640520   -0.025788   -0.048992
     22          1           0       -3.378647    2.154058   -0.005533
 ---------------------------------------------------------------------
 Rotational constants (GHZ):           2.8427030           0.5522066           0.4625125
 Leave Link  202 at Sun Jan 17 09:09:36 2021, MaxMem=  4026531840 cpu:               0.3 elap:               0.1
 (Enter /opt/ohpc/pub/libs/gaussian/g16-A.03/sandybridge/g16/l301.exe)
 Standard basis: TZVP (5D, 7F)
 Ernie: Thresh=  0.10000D-02 Tol=  0.10000D-05 Strict=F.
 There are   300 symmetry adapted cartesian basis functions of A   symmetry.
 There are   288 symmetry adapted basis functions of A   symmetry.
   288 basis functions,   500 primitive gaussians,   300 cartesian basis functions
    41 alpha electrons       41 beta electrons
       nuclear repulsion energy       597.0072804526 Hartrees.
 IExCor=33909 DFT=T Ex+Corr=LC-wHPBE ExCW=0 ScaHFX=  1.000000
 ScaDFX=  1.000000  1.000000  1.000000  1.000000 ScalE2=  1.000000  1.000000
 IRadAn=      5 IRanWt=     -1 IRanGd=            0 ICorTp=0 IEmpDi=  4
 HFx  wShort=  0.000000 wLong=  0.117500 cFull=  0.000000 cShort=  0.000000 cLong=  1.000000
 DFx  wShort=  0.000000 wLong=  0.117500 cFull=  0.000000 cShort=  1.000000 cLong=  0.000000
 NAtoms=   22 NActive=   22 NUniq=   22 SFac= 1.00D+00 NAtFMM=   60 NAOKFM=F Big=F
 Integral buffers will be    131072 words long.
 Raffenetti 2 integral format.
 Two-electron integral symmetry is turned on.
 Leave Link  301 at Sun Jan 17 09:09:36 2021, MaxMem=  4026531840 cpu:               0.3 elap:               0.1
 (Enter /opt/ohpc/pub/libs/gaussian/g16-A.03/sandybridge/g16/l302.exe)
 NPDir=0 NMtPBC=     1 NCelOv=     1 NCel=       1 NClECP=     1 NCelD=      1
         NCelK=      1 NCelE2=     1 NClLst=     1 CellRange=     0.0.
 One-electron integrals computed using PRISM.
 One-electron integral symmetry used in STVInt
 NBasis=   288 RedAO= T EigKep=  2.09D-05  NBF=   288
 NBsUse=   288 1.00D-06 EigRej= -1.00D+00 NBFU=   288
 Precomputing XC quadrature grid using
 IXCGrd= 4 IRadAn=           5 IRanWt=          -1 IRanGd=           0 AccXCQ= 0.00D+00.
 Generated NRdTot=       0 NPtTot=           0 NUsed=           0 NTot=          32
 NSgBfM=   295   295   295   295   295 MxSgAt=    22 MxSgA2=    22.
 Leave Link  302 at Sun Jan 17 09:09:37 2021, MaxMem=  4026531840 cpu:               2.3 elap:               0.4
 (Enter /opt/ohpc/pub/libs/gaussian/g16-A.03/sandybridge/g16/l303.exe)
 DipDrv:  MaxL=1.
 Leave Link  303 at Sun Jan 17 09:09:37 2021, MaxMem=  4026531840 cpu:               0.3 elap:               0.1
 (Enter /opt/ohpc/pub/libs/gaussian/g16-A.03/sandybridge/g16/l401.exe)
 ExpMin= 9.52D-02 ExpMax= 1.36D+04 ExpMxC= 4.63D+02 IAcc=3 IRadAn=         5 AccDes= 0.00D+00
 Harris functional with IExCor=33909 and IRadAn=       5 diagonalized for initial guess.
 HarFok:  IExCor=33909 AccDes= 0.00D+00 IRadAn=         5 IDoV= 1 UseB2=F ITyADJ=14
 ICtDFT=  3500011 ScaDFX=  1.000000  1.000000  1.000000  1.000000
 FoFCou: FMM=F IPFlag=           0 FMFlag=      100000 FMFlg1=           0
         NFxFlg=           0 DoJE=T BraDBF=F KetDBF=T FulRan=T
         wScrn=  0.000000 ICntrl=       500 IOpCl=  0 I1Cent=   200000004 NGrid=           0
         NMat0=    1 NMatS0=      1 NMatT0=    0 NMatD0=    1 NMtDS0=    0 NMtDT0=    0
 Petite list used in FoFCou.
 Harris En= -457.769958689626    
 JPrj=0 DoOrth=F DoCkMO=F.
 Leave Link  401 at Sun Jan 17 09:09:39 2021, MaxMem=  4026531840 cpu:              13.9 elap:               1.8
 (Enter /opt/ohpc/pub/libs/gaussian/g16-A.03/sandybridge/g16/l502.exe)
 Integral symmetry usage will be decided dynamically.
 Closed shell SCF:
 Using DIIS extrapolation, IDIIS=  1040.
 NGot=  4026531840 LenX=  4026346394 LenY=  4026255953
 Requested convergence on RMS density matrix=1.00D-08 within 128 cycles.
 Requested convergence on MAX density matrix=1.00D-06.
 Requested convergence on             energy=1.00D-06.
 No special actions if energy rises.
 Fock matrices will be formed incrementally for  20 cycles.
 Integral accuracy reduced to 1.0D-05 until final iterations.

 Cycle   1  Pass 0  IDiag  1:
 FoFJK:  IHMeth= 1 ICntrl=       0 DoSepK=T KAlg= 0 I1Cent=           0 FoldK=F
 IRaf=         1 NMat=       1 IRICut=       1 DoRegI=T DoRafI=F ISym2E= 0 IDoP0=0 IntGTp=1.
 FoFCou: FMM=F IPFlag=           0 FMFlag=      100000 FMFlg1=           0
         NFxFlg=           0 DoJE=T BraDBF=F KetDBF=F FulRan=T
         wScrn=  0.000000 ICntrl=       500 IOpCl=  0 I1Cent=           0 NGrid=           0
         NMat0=    1 NMatS0=      1 NMatT0=    0 NMatD0=    1 NMtDS0=    0 NMtDT0=    0
 Symmetry not used in FoFCou.
 E= -462.700193266088    
 DIIS: error= 3.44D-02 at cycle   1 NSaved=   1.
 NSaved= 1 IEnMin= 1 EnMin= -462.700193266088     IErMin= 1 ErrMin= 3.44D-02
 ErrMax= 3.44D-02  0.00D+00 EMaxC= 1.00D-01 BMatC= 1.96D-01 BMatP= 1.96D-01
 IDIUse=3 WtCom= 6.56D-01 WtEn= 3.44D-01
 Coeff-Com:  0.100D+01
 Coeff-En:   0.100D+01
 Coeff:      0.100D+01
 Gap=     0.249 Goal=   None    Shift=    0.000
 GapD=    0.249 DampG=1.000 DampE=0.500 DampFc=0.5000 IDamp=-1.
 Damping current iteration by 5.00D-01
 RMSDP=1.65D-02 MaxDP=6.16D-01              OVMax= 1.31D-01

 Cycle   2  Pass 0  IDiag  1:
 RMSU=  8.05D-03    CP:  1.12D+00
 E= -462.806675660600     Delta-E=       -0.106482394512 Rises=F Damp=T
 DIIS: error= 4.39D-03 at cycle   2 NSaved=   2.
 NSaved= 2 IEnMin= 2 EnMin= -462.806675660600     IErMin= 2 ErrMin= 4.39D-03
 ErrMax= 4.39D-03  0.00D+00 EMaxC= 1.00D-01 BMatC= 9.32D-03 BMatP= 1.96D-01
 IDIUse=3 WtCom= 9.56D-01 WtEn= 4.39D-02
 Coeff-Com: -0.249D-01 0.102D+01
 Coeff-En:   0.000D+00 0.100D+01
 Coeff:     -0.238D-01 0.102D+01
 Gap=     0.260 Goal=   None    Shift=    0.000
 RMSDP=6.85D-03 MaxDP=2.57D-01 DE=-1.06D-01 OVMax= 6.68D-02

 Cycle   3  Pass 0  IDiag  1:
 RMSU=  2.59D-03    CP:  9.25D-01  3.16D-01
 E= -462.913570533233     Delta-E=       -0.106894872633 Rises=F Damp=F
 DIIS: error= 3.63D-03 at cycle   3 NSaved=   3.
 NSaved= 3 IEnMin= 3 EnMin= -462.913570533233     IErMin= 3 ErrMin= 3.63D-03
 ErrMax= 3.63D-03  0.00D+00 EMaxC= 1.00D-01 BMatC= 3.23D-03 BMatP= 9.32D-03
 IDIUse=3 WtCom= 9.64D-01 WtEn= 3.63D-02
 Coeff-Com: -0.432D-01 0.366D+00 0.677D+00
 Coeff-En:   0.000D+00 0.000D+00 0.100D+01
 Coeff:     -0.416D-01 0.352D+00 0.689D+00
 Gap=     0.254 Goal=   None    Shift=    0.000
 RMSDP=1.58D-03 MaxDP=5.58D-02 DE=-1.07D-01 OVMax= 2.50D-02

 Cycle   4  Pass 0  IDiag  1:
 RMSU=  1.38D-03    CP:  8.95D-01  3.85D-01  1.10D+00
 E= -462.915175319288     Delta-E=       -0.001604786055 Rises=F Damp=F
 DIIS: error= 3.16D-03 at cycle   4 NSaved=   4.
 NSaved= 4 IEnMin= 4 EnMin= -462.915175319288     IErMin= 4 ErrMin= 3.16D-03
 ErrMax= 3.16D-03  0.00D+00 EMaxC= 1.00D-01 BMatC= 1.46D-03 BMatP= 3.23D-03
 IDIUse=3 WtCom= 9.68D-01 WtEn= 3.16D-02
 Coeff-Com: -0.214D-01 0.130D+00 0.426D+00 0.465D+00
 Coeff-En:   0.000D+00 0.000D+00 0.344D+00 0.656D+00
 Coeff:     -0.207D-01 0.125D+00 0.424D+00 0.471D+00
 Gap=     0.253 Goal=   None    Shift=    0.000
 RMSDP=6.10D-04 MaxDP=1.81D-02 DE=-1.60D-03 OVMax= 1.27D-02

 Cycle   5  Pass 0  IDiag  1:
 RMSU=  3.25D-04    CP:  9.03D-01  4.29D-01  1.11D+00  7.46D-01
 E= -462.916723524729     Delta-E=       -0.001548205441 Rises=F Damp=F
 DIIS: error= 5.93D-04 at cycle   5 NSaved=   5.
 NSaved= 5 IEnMin= 5 EnMin= -462.916723524729     IErMin= 5 ErrMin= 5.93D-04
 ErrMax= 5.93D-04  0.00D+00 EMaxC= 1.00D-01 BMatC= 3.85D-05 BMatP= 1.46D-03
 IDIUse=3 WtCom= 9.94D-01 WtEn= 5.93D-03
 Coeff-Com: -0.460D-02 0.239D-01 0.112D+00 0.198D+00 0.670D+00
 Coeff-En:   0.000D+00 0.000D+00 0.000D+00 0.000D+00 0.100D+01
 Coeff:     -0.457D-02 0.238D-01 0.112D+00 0.196D+00 0.672D+00
 Gap=     0.253 Goal=   None    Shift=    0.000
 RMSDP=1.59D-04 MaxDP=4.29D-03 DE=-1.55D-03 OVMax= 2.21D-03

 Cycle   6  Pass 0  IDiag  1:
 RMSU=  9.00D-05    CP:  9.01D-01  4.16D-01  1.11D+00  7.88D-01  8.67D-01
 E= -462.916760519649     Delta-E=       -0.000036994920 Rises=F Damp=F
 DIIS: error= 1.33D-04 at cycle   6 NSaved=   6.
 NSaved= 6 IEnMin= 6 EnMin= -462.916760519649     IErMin= 6 ErrMin= 1.33D-04
 ErrMax= 1.33D-04  0.00D+00 EMaxC= 1.00D-01 BMatC= 5.11D-06 BMatP= 3.85D-05
 IDIUse=3 WtCom= 9.99D-01 WtEn= 1.33D-03
 Coeff-Com: -0.182D-02 0.918D-02 0.495D-01 0.967D-01 0.391D+00 0.455D+00
 Coeff-En:   0.000D+00 0.000D+00 0.000D+00 0.000D+00 0.000D+00 0.100D+01
 Coeff:     -0.181D-02 0.917D-02 0.494D-01 0.966D-01 0.391D+00 0.456D+00
 Gap=     0.253 Goal=   None    Shift=    0.000
 RMSDP=3.03D-05 MaxDP=1.75D-03 DE=-3.70D-05 OVMax= 8.03D-04

 Cycle   7  Pass 0  IDiag  1:
 RMSU=  2.45D-05    CP:  9.02D-01  4.16D-01  1.10D+00  7.82D-01  9.02D-01
                    CP:  1.01D+00
 E= -462.916765678776     Delta-E=       -0.000005159127 Rises=F Damp=F
 DIIS: error= 2.82D-05 at cycle   7 NSaved=   7.
 NSaved= 7 IEnMin= 7 EnMin= -462.916765678776     IErMin= 7 ErrMin= 2.82D-05
 ErrMax= 2.82D-05  0.00D+00 EMaxC= 1.00D-01 BMatC= 1.41D-07 BMatP= 5.11D-06
 IDIUse=1 WtCom= 1.00D+00 WtEn= 0.00D+00
 Coeff-Com:  0.233D-03-0.919D-03-0.291D-02-0.222D-02 0.176D-01 0.139D+00
 Coeff-Com:  0.849D+00
 Coeff:      0.233D-03-0.919D-03-0.291D-02-0.222D-02 0.176D-01 0.139D+00
 Coeff:      0.849D+00
 Gap=     0.253 Goal=   None    Shift=    0.000
 RMSDP=5.59D-05 MaxDP=1.48D-03 DE=-5.16D-06 OVMax= 1.67D-04

 Cycle   8  Pass 0  IDiag  1:
 RMSU=  3.02D-05    CP:  9.04D-01  4.19D-01  1.10D+00  7.68D-01  8.72D-01
                    CP:  1.12D+00  1.22D+00
 E= -462.916765380885     Delta-E=        0.000000297891 Rises=F Damp=F
 DIIS: error= 1.26D-05 at cycle   8 NSaved=   8.
 NSaved= 8 IEnMin= 7 EnMin= -462.916765678776     IErMin= 8 ErrMin= 1.26D-05
 ErrMax= 1.26D-05  0.00D+00 EMaxC= 1.00D-01 BMatC= 3.14D-08 BMatP= 1.41D-07
 IDIUse=1 WtCom= 1.00D+00 WtEn= 0.00D+00
 Coeff-Com:  0.199D-03-0.855D-03-0.348D-02-0.507D-02-0.523D-02 0.566D-01
 Coeff-Com:  0.455D+00 0.503D+00
 Coeff:      0.199D-03-0.855D-03-0.348D-02-0.507D-02-0.523D-02 0.566D-01
 Coeff:      0.455D+00 0.503D+00
 Gap=     0.253 Goal=   None    Shift=    0.000
 RMSDP=2.68D-05 MaxDP=7.49D-04 DE= 2.98D-07 OVMax= 5.36D-05

 Cycle   9  Pass 0  IDiag  1:
 RMSU=  1.03D-05    CP:  9.04D-01  4.19D-01  1.10D+00  7.57D-01  8.45D-01
                    CP:  1.01D+00  1.33D+00  1.41D+00
 E= -462.916764259338     Delta-E=        0.000001121547 Rises=F Damp=F
 DIIS: error= 7.78D-06 at cycle   9 NSaved=   9.
 NSaved= 9 IEnMin= 7 EnMin= -462.916765678776     IErMin= 9 ErrMin= 7.78D-06
 ErrMax= 7.78D-06  0.00D+00 EMaxC= 1.00D-01 BMatC= 6.72D-09 BMatP= 3.14D-08
 IDIUse=1 WtCom= 1.00D+00 WtEn= 0.00D+00
 Coeff-Com:  0.689D-04-0.285D-03-0.109D-02-0.153D-02 0.432D-03 0.243D-01
 Coeff-Com:  0.178D+00 0.234D+00 0.566D+00
 Coeff:      0.689D-04-0.285D-03-0.109D-02-0.153D-02 0.432D-03 0.243D-01
 Coeff:      0.178D+00 0.234D+00 0.566D+00
 Gap=     0.253 Goal=   None    Shift=    0.000
 RMSDP=2.86D-05 MaxDP=8.34D-04 DE= 1.12D-06 OVMax= 2.29D-05

 Cycle  10  Pass 0  IDiag  1:
 RMSU=  6.58D-06    CP:  9.04D-01  4.18D-01  1.10D+00  7.45D-01  8.16D-01
                    CP:  8.85D-01  1.32D+00  1.72D+00  2.05D+00
 E= -462.916763527616     Delta-E=        0.000000731721 Rises=F Damp=F
 DIIS: error= 8.12D-06 at cycle  10 NSaved=  10.
 NSaved=10 IEnMin= 7 EnMin= -462.916765678776     IErMin= 9 ErrMin= 7.78D-06
 ErrMax= 8.12D-06  0.00D+00 EMaxC= 1.00D-01 BMatC= 4.38D-09 BMatP= 6.72D-09
 IDIUse=1 WtCom= 1.00D+00 WtEn= 0.00D+00
 Coeff-Com:  0.400D-04-0.155D-03-0.462D-03-0.347D-03 0.355D-02 0.239D-01
 Coeff-Com:  0.144D+00 0.256D-01-0.871D-01 0.891D+00
 Coeff:      0.400D-04-0.155D-03-0.462D-03-0.347D-03 0.355D-02 0.239D-01
 Coeff:      0.144D+00 0.256D-01-0.871D-01 0.891D+00
 Gap=     0.253 Goal=   None    Shift=    0.000
 RMSDP=3.16D-05 MaxDP=1.09D-03 DE= 7.32D-07 OVMax= 1.49D-05

 Problem detected with inexpensive integrals.
 Switching to full accuracy and repeating last cycle.
 Cycle  11  Pass 1  IDiag  1:
 E= -462.916762084534     Delta-E=        0.000001443083 Rises=F Damp=F
 DIIS: error= 2.02D-04 at cycle   1 NSaved=   1.
 NSaved= 1 IEnMin= 1 EnMin= -462.916762084534     IErMin= 1 ErrMin= 2.02D-04
 ErrMax= 2.02D-04  0.00D+00 EMaxC= 1.00D-01 BMatC= 3.78D-06 BMatP= 3.78D-06
 IDIUse=3 WtCom= 9.98D-01 WtEn= 2.02D-03
 Coeff-Com:  0.100D+01
 Coeff-En:   0.100D+01
 Coeff:      0.100D+01
 Gap=     0.253 Goal=   None    Shift=    0.000
 RMSDP=9.36D-04 MaxDP=2.81D-02 DE= 1.44D-06 OVMax= 4.60D-04

 Cycle  12  Pass 1  IDiag  1:
 RMSU=  8.78D-04    CP:  9.79D-01
 E= -462.916765989212     Delta-E=       -0.000003904679 Rises=F Damp=F
 DIIS: error= 1.35D-05 at cycle   2 NSaved=   2.
 NSaved= 2 IEnMin= 2 EnMin= -462.916765989212     IErMin= 2 ErrMin= 1.35D-05
 ErrMax= 1.35D-05  0.00D+00 EMaxC= 1.00D-01 BMatC= 1.14D-08 BMatP= 3.78D-06
 IDIUse=1 WtCom= 1.00D+00 WtEn= 0.00D+00
 Coeff-Com: -0.399D-01 0.104D+01
 Coeff:     -0.399D-01 0.104D+01
 Gap=     0.253 Goal=   None    Shift=    0.000
 RMSDP=9.47D-05 MaxDP=2.89D-03 DE=-3.90D-06 OVMax= 6.05D-05

 Cycle  13  Pass 1  IDiag  1:
 RMSU=  2.00D-05    CP:  9.77D-01  1.10D+00
 E= -462.916766012151     Delta-E=       -0.000000022939 Rises=F Damp=F
 DIIS: error= 3.04D-06 at cycle   3 NSaved=   3.
 NSaved= 3 IEnMin= 3 EnMin= -462.916766012151     IErMin= 3 ErrMin= 3.04D-06
 ErrMax= 3.04D-06  0.00D+00 EMaxC= 1.00D-01 BMatC= 1.79D-09 BMatP= 1.14D-08
 IDIUse=1 WtCom= 1.00D+00 WtEn= 0.00D+00
 Coeff-Com: -0.123D-01 0.288D+00 0.724D+00
 Coeff:     -0.123D-01 0.288D+00 0.724D+00
 Gap=     0.253 Goal=   None    Shift=    0.000
 RMSDP=6.59D-06 MaxDP=1.81D-04 DE=-2.29D-08 OVMax= 2.40D-05

 Cycle  14  Pass 1  IDiag  1:
 RMSU=  1.61D-06    CP:  9.76D-01  1.10D+00  1.12D+00
 E= -462.916766012518     Delta-E=       -0.000000000367 Rises=F Damp=F
 DIIS: error= 3.10D-06 at cycle   4 NSaved=   4.
 NSaved= 4 IEnMin= 4 EnMin= -462.916766012518     IErMin= 3 ErrMin= 3.04D-06
 ErrMax= 3.10D-06  0.00D+00 EMaxC= 1.00D-01 BMatC= 1.52D-09 BMatP= 1.79D-09
 IDIUse=1 WtCom= 1.00D+00 WtEn= 0.00D+00
 Coeff-Com:  0.685D-03-0.389D-01 0.487D+00 0.551D+00
 Coeff:      0.685D-03-0.389D-01 0.487D+00 0.551D+00
 Gap=     0.253 Goal=   None    Shift=    0.000
 RMSDP=3.07D-06 MaxDP=9.08D-05 DE=-3.67D-10 OVMax= 1.27D-05

 Cycle  15  Pass 1  IDiag  1:
 RMSU=  5.24D-07    CP:  9.76D-01  1.10D+00  1.18D+00  1.15D+00
 E= -462.916766014139     Delta-E=       -0.000000001620 Rises=F Damp=F
 DIIS: error= 3.65D-07 at cycle   5 NSaved=   5.
 NSaved= 5 IEnMin= 5 EnMin= -462.916766014139     IErMin= 5 ErrMin= 3.65D-07
 ErrMax= 3.65D-07  0.00D+00 EMaxC= 1.00D-01 BMatC= 2.62D-11 BMatP= 1.52D-09
 IDIUse=1 WtCom= 1.00D+00 WtEn= 0.00D+00
 Coeff-Com:  0.616D-03-0.259D-01 0.225D+00 0.275D+00 0.526D+00
 Coeff:      0.616D-03-0.259D-01 0.225D+00 0.275D+00 0.526D+00
 Gap=     0.253 Goal=   None    Shift=    0.000
 RMSDP=1.99D-07 MaxDP=6.76D-06 DE=-1.62D-09 OVMax= 1.61D-06

 Cycle  16  Pass 1  IDiag  1:
 RMSU=  8.09D-08    CP:  9.76D-01  1.10D+00  1.18D+00  1.15D+00  1.01D+00
 E= -462.916766014169     Delta-E=       -0.000000000030 Rises=F Damp=F
 DIIS: error= 7.36D-08 at cycle   6 NSaved=   6.
 NSaved= 6 IEnMin= 6 EnMin= -462.916766014169     IErMin= 6 ErrMin= 7.36D-08
 ErrMax= 7.36D-08  0.00D+00 EMaxC= 1.00D-01 BMatC= 1.79D-12 BMatP= 2.62D-11
 IDIUse=1 WtCom= 1.00D+00 WtEn= 0.00D+00
 Coeff-Com:  0.208D-03-0.762D-02 0.496D-01 0.657D-01 0.233D+00 0.659D+00
 Coeff:      0.208D-03-0.762D-02 0.496D-01 0.657D-01 0.233D+00 0.659D+00
 Gap=     0.253 Goal=   None    Shift=    0.000
 RMSDP=1.90D-07 MaxDP=5.19D-06 DE=-3.02D-11 OVMax= 5.22D-07

 Cycle  17  Pass 1  IDiag  1:
 RMSU=  2.52D-08    CP:  9.76D-01  1.11D+00  1.19D+00  1.18D+00  1.09D+00
                    CP:  1.09D+00
 E= -462.916766014161     Delta-E=        0.000000000008 Rises=F Damp=F
 DIIS: error= 3.67D-08 at cycle   7 NSaved=   7.
 NSaved= 7 IEnMin= 6 EnMin= -462.916766014169     IErMin= 7 ErrMin= 3.67D-08
 ErrMax= 3.67D-08  0.00D+00 EMaxC= 1.00D-01 BMatC= 3.43D-13 BMatP= 1.79D-12
 IDIUse=1 WtCom= 1.00D+00 WtEn= 0.00D+00
 Coeff-Com:  0.116D-04 0.121D-03-0.950D-02-0.920D-02 0.417D-01 0.343D+00
 Coeff-Com:  0.634D+00
 Coeff:      0.116D-04 0.121D-03-0.950D-02-0.920D-02 0.417D-01 0.343D+00
 Coeff:      0.634D+00
 Gap=     0.253 Goal=   None    Shift=    0.000
 RMSDP=7.61D-08 MaxDP=1.91D-06 DE= 7.50D-12 OVMax= 2.52D-07

 Cycle  18  Pass 1  IDiag  1:
 RMSU=  8.43D-09    CP:  9.76D-01  1.11D+00  1.19D+00  1.20D+00  1.11D+00
                    CP:  1.08D+00  1.01D+00
 E= -462.916766014153     Delta-E=        0.000000000008 Rises=F Damp=F
 DIIS: error= 1.84D-08 at cycle   8 NSaved=   8.
 NSaved= 8 IEnMin= 6 EnMin= -462.916766014169     IErMin= 8 ErrMin= 1.84D-08
 ErrMax= 1.84D-08  0.00D+00 EMaxC= 1.00D-01 BMatC= 4.98D-14 BMatP= 3.43D-13
 IDIUse=1 WtCom= 1.00D+00 WtEn= 0.00D+00
 Coeff-Com: -0.150D-04 0.848D-03-0.102D-01-0.119D-01-0.771D-03 0.118D+00
 Coeff-Com:  0.354D+00 0.550D+00
 Coeff:     -0.150D-04 0.848D-03-0.102D-01-0.119D-01-0.771D-03 0.118D+00
 Coeff:      0.354D+00 0.550D+00
 Gap=     0.253 Goal=   None    Shift=    0.000
 RMSDP=1.39D-08 MaxDP=4.23D-07 DE= 8.41D-12 OVMax= 8.90D-08

 Cycle  19  Pass 1  IDiag  1:
 RMSU=  3.65D-09    CP:  9.76D-01  1.11D+00  1.19D+00  1.20D+00  1.12D+00
                    CP:  1.10D+00  1.10D+00  6.99D-01
 E= -462.916766014169     Delta-E=       -0.000000000016 Rises=F Damp=F
 DIIS: error= 3.41D-09 at cycle   9 NSaved=   9.
 NSaved= 9 IEnMin= 6 EnMin= -462.916766014169     IErMin= 9 ErrMin= 3.41D-09
 ErrMax= 3.41D-09  0.00D+00 EMaxC= 1.00D-01 BMatC= 2.42D-15 BMatP= 4.98D-14
 IDIUse=1 WtCom= 1.00D+00 WtEn= 0.00D+00
 Coeff-Com: -0.755D-05 0.361D-03-0.366D-02-0.442D-02-0.326D-02 0.238D-01
 Coeff-Com:  0.102D+00 0.235D+00 0.650D+00
 Coeff:     -0.755D-05 0.361D-03-0.366D-02-0.442D-02-0.326D-02 0.238D-01
 Coeff:      0.102D+00 0.235D+00 0.650D+00
 Gap=     0.253 Goal=   None    Shift=    0.000
 RMSDP=2.06D-09 MaxDP=7.81D-08 DE=-1.59D-11 OVMax= 2.68D-08

 SCF Done:  E(RLC-wHPBE) =  -462.916766014     A.U. after   19 cycles
            NFock= 19  Conv=0.21D-08     -V/T= 2.0049
 KE= 4.606391569297D+02 PE=-2.268081871659D+03 EE= 7.475186682622D+02
 Leave Link  502 at Sun Jan 17 09:10:59 2021, MaxMem=  4026531840 cpu:             642.2 elap:              80.6
 (Enter /opt/ohpc/pub/libs/gaussian/g16-A.03/sandybridge/g16/l601.exe)
 Copying SCF densities to generalized density rwf, IOpCl= 0 IROHF=0.

 **********************************************************************

            Population analysis using the SCF density.

 **********************************************************************

 Orbital symmetries:
       Occupied  (A) (A) (A) (A) (A) (A) (A) (A) (A) (A) (A) (A)
                 (A) (A) (A) (A) (A) (A) (A) (A) (A) (A) (A) (A)
                 (A) (A) (A) (A) (A) (A) (A) (A) (A) (A) (A) (A)
                 (A) (A) (A) (A) (A)
       Virtual   (A) (A) (A) (A) (A) (A) (A) (A) (A) (A) (A) (A)
                 (A) (A) (A) (A) (A) (A) (A) (A) (A) (A) (A) (A)
                 (A) (A) (A) (A) (A) (A) (A) (A) (A) (A) (A) (A)
                 (A) (A) (A) (A) (A) (A) (A) (A) (A) (A) (A) (A)
                 (A) (A) (A) (A) (A) (A) (A) (A) (A) (A) (A) (A)
                 (A) (A) (A) (A) (A) (A) (A) (A) (A) (A) (A) (A)
                 (A) (A) (A) (A) (A) (A) (A) (A) (A) (A) (A) (A)
                 (A) (A) (A) (A) (A) (A) (A) (A) (A) (A) (A) (A)
                 (A) (A) (A) (A) (A) (A) (A) (A) (A) (A) (A) (A)
                 (A) (A) (A) (A) (A) (A) (A) (A) (A) (A) (A) (A)
                 (A) (A) (A) (A) (A) (A) (A) (A) (A) (A) (A) (A)
                 (A) (A) (A) (A) (A) (A) (A) (A) (A) (A) (A) (A)
                 (A) (A) (A) (A) (A) (A) (A) (A) (A) (A) (A) (A)
                 (A) (A) (A) (A) (A) (A) (A) (A) (A) (A) (A) (A)
                 (A) (A) (A) (A) (A) (A) (A) (A) (A) (A) (A) (A)
                 (A) (A) (A) (A) (A) (A) (A) (A) (A) (A) (A) (A)
                 (A) (A) (A) (A) (A) (A) (A) (A) (A) (A) (A) (A)
                 (A) (A) (A) (A) (A) (A) (A) (A) (A) (A) (A) (A)
                 (A) (A) (A) (A) (A) (A) (A) (A) (A) (A) (A) (A)
                 (A) (A) (A) (A) (A) (A) (A) (A) (A) (A) (A) (A)
                 (A) (A) (A) (A) (A) (A) (A)
 The electronic state is 1-A.
 Alpha  occ. eigenvalues --   -9.97533  -9.96648  -9.96279  -9.96174  -9.96130
 Alpha  occ. eigenvalues --   -9.96099  -9.95934  -9.95880  -9.95860  -9.95636
 Alpha  occ. eigenvalues --   -9.95146  -9.95063  -0.85990  -0.83706  -0.77331
 Alpha  occ. eigenvalues --   -0.74984  -0.73601  -0.72355  -0.63507  -0.62909
 Alpha  occ. eigenvalues --   -0.59913  -0.58660  -0.55399  -0.51701  -0.49669
 Alpha  occ. eigenvalues --   -0.48198  -0.46077  -0.45579  -0.44556  -0.44334
 Alpha  occ. eigenvalues --   -0.42575  -0.41527  -0.39024  -0.38526  -0.38006
 Alpha  occ. eigenvalues --   -0.36037  -0.34919  -0.32234  -0.29467  -0.28649
 Alpha  occ. eigenvalues --   -0.26664
 Alpha virt. eigenvalues --   -0.01323  -0.00183   0.02072   0.04905   0.08103
 Alpha virt. eigenvalues --    0.09816   0.10420   0.12020   0.13112   0.13248
 Alpha virt. eigenvalues --    0.14287   0.14574   0.15910   0.16635   0.18825
 Alpha virt. eigenvalues --    0.20138   0.20293   0.21200   0.22301   0.23387
 Alpha virt. eigenvalues --    0.23826   0.23991   0.24596   0.25222   0.25759
 Alpha virt. eigenvalues --    0.25813   0.26921   0.27065   0.27750   0.28420
 Alpha virt. eigenvalues --    0.28844   0.30259   0.31113   0.31289   0.32134
 Alpha virt. eigenvalues --    0.32803   0.33979   0.34312   0.34619   0.35380
 Alpha virt. eigenvalues --    0.36668   0.37342   0.38407   0.39241   0.40309
 Alpha virt. eigenvalues --    0.40481   0.41071   0.42264   0.42413   0.44098
 Alpha virt. eigenvalues --    0.44611   0.45595   0.45779   0.46363   0.47045
 Alpha virt. eigenvalues --    0.47600   0.47888   0.48581   0.49418   0.50187
 Alpha virt. eigenvalues --    0.50640   0.51556   0.52844   0.53594   0.54292
 Alpha virt. eigenvalues --    0.54747   0.55871   0.58683   0.59322   0.62577
 Alpha virt. eigenvalues --    0.63360   0.64205   0.64883   0.65708   0.66683
 Alpha virt. eigenvalues --    0.67721   0.70929   0.71484   0.72165   0.72640
 Alpha virt. eigenvalues --    0.76110   0.77209   0.78807   0.81023   0.82029
 Alpha virt. eigenvalues --    0.82668   0.86057   1.10381   1.21390   1.23361
 Alpha virt. eigenvalues --    1.24009   1.24512   1.25112   1.25713   1.26326
 Alpha virt. eigenvalues --    1.27067   1.28071   1.28345   1.29401   1.29781
 Alpha virt. eigenvalues --    1.30853   1.31581   1.31735   1.32376   1.32649
 Alpha virt. eigenvalues --    1.33093   1.34644   1.36569   1.38985   1.39878
 Alpha virt. eigenvalues --    1.41088   1.41459   1.43611   1.43814   1.44256
 Alpha virt. eigenvalues --    1.44428   1.44618   1.44689   1.45099   1.45368
 Alpha virt. eigenvalues --    1.46353   1.47107   1.47823   1.48279   1.49589
 Alpha virt. eigenvalues --    1.50173   1.50504   1.51501   1.51729   1.52837
 Alpha virt. eigenvalues --    1.53737   1.54362   1.55427   1.57052   1.57501
 Alpha virt. eigenvalues --    1.59146   1.60026   1.62185   1.64304   1.72286
 Alpha virt. eigenvalues --    1.74231   1.76969   1.77766   1.78202   1.79136
 Alpha virt. eigenvalues --    1.79749   1.80477   1.82963   1.83381   1.84633
 Alpha virt. eigenvalues --    1.85017   1.85815   1.86496   1.87650   1.88116
 Alpha virt. eigenvalues --    1.90137   1.90568   1.92003   1.92351   1.92750
 Alpha virt. eigenvalues --    1.95900   1.97389   1.98992   1.99807   2.00223
 Alpha virt. eigenvalues --    2.00685   2.02078   2.02937   2.05133   2.11727
 Alpha virt. eigenvalues --    2.14098   2.16822   2.21672   2.24183   2.24685
 Alpha virt. eigenvalues --    2.25571   2.25975   2.27059   2.27854   2.28955
 Alpha virt. eigenvalues --    2.30422   2.30774   2.33076   2.33201   2.36072
 Alpha virt. eigenvalues --    2.36830   2.39247   2.42993   2.45385   2.48121
 Alpha virt. eigenvalues --    2.49079   2.49617   2.51629   2.53088   2.54965
 Alpha virt. eigenvalues --    2.56832   2.58057   2.58868   2.59728   2.61377
 Alpha virt. eigenvalues --    2.62490   2.63942   2.66177   2.69051   2.71543
 Alpha virt. eigenvalues --    2.73270   2.73843   2.78909   2.79818   2.86256
 Alpha virt. eigenvalues --    2.89031   2.95299   3.01969   3.03372   3.03838
 Alpha virt. eigenvalues --    3.04698   3.05231   3.08157   3.10586   3.11784
 Alpha virt. eigenvalues --    3.12316   3.13475   3.15652   3.19089   3.21215
 Alpha virt. eigenvalues --    3.23461   3.26606   3.28038   3.30025   3.32785
 Alpha virt. eigenvalues --    3.36840   3.46196   3.55891   3.69027   3.78983
 Alpha virt. eigenvalues --   20.99410  21.23010  21.53182  21.62541  21.68076
 Alpha virt. eigenvalues --   21.68945  21.80279  21.85172  21.88429  21.91015
 Alpha virt. eigenvalues --   22.00075  22.06722
          Condensed to atoms (all electrons):
               1          2          3          4          5          6
     1  C    5.214265   0.241381   0.234535   0.183612   0.193319  -0.282894
     2  C    0.241381   5.278635   0.155456   0.184543  -0.296864   0.247057
     3  C    0.234535   0.155456   5.331123  -0.240925   0.190292   0.110556
     4  C    0.183612   0.184543  -0.240925   5.376066   0.263601   0.007590
     5  C    0.193319  -0.296864   0.190292   0.263601   6.242973  -0.053264
     6  C   -0.282894   0.247057   0.110556   0.007590  -0.053264   5.682209
     7  H   -0.069208   0.415836   0.017783  -0.066328  -0.003133   0.025192
     8  H   -0.047610   0.013648   0.397543  -0.002456  -0.051637   0.020501
     9  H    0.022510  -0.088596  -0.003028   0.434669   0.026453  -0.072735
    10  H   -0.002317   0.014729   0.015434  -0.056274  -0.053232   0.418527
    11  C   -0.006770   0.033065  -0.039911  -0.017715  -0.118435   0.007135
    12  C    0.002920  -0.003266   0.024462   0.013304  -0.171853  -0.075413
    13  C    0.009294  -0.002669  -0.041552   0.003067  -0.174097   0.016007
    14  C   -0.001021   0.000626  -0.000003  -0.003417   0.069123   0.014367
    15  C   -0.002272   0.000467   0.003404  -0.001107   0.081711   0.003895
    16  C    0.000769  -0.000242  -0.001227   0.000989  -0.024481  -0.005102
    17  H    0.000354  -0.000514  -0.000021   0.005158  -0.041181  -0.000460
    18  H    0.003720  -0.000142   0.007104   0.000121  -0.058736  -0.000604
    19  H   -0.000012   0.000008   0.000126  -0.000047  -0.001876   0.000379
    20  H   -0.000049   0.000008   0.000097  -0.000019  -0.001269   0.000193
    21  H    0.000003  -0.000001   0.000002   0.000004  -0.000415  -0.000020
    22  H    0.413993  -0.073713  -0.062534   0.021467   0.021337  -0.004374
               7          8          9         10         11         12
     1  C   -0.069208  -0.047610   0.022510  -0.002317  -0.006770   0.002920
     2  C    0.415836   0.013648  -0.088596   0.014729   0.033065  -0.003266
     3  C    0.017783   0.397543  -0.003028   0.015434  -0.039911   0.024462
     4  C   -0.066328  -0.002456   0.434669  -0.056274  -0.017715   0.013304
     5  C   -0.003133  -0.051637   0.026453  -0.053232  -0.118435  -0.171853
     6  C    0.025192   0.020501  -0.072735   0.418527   0.007135  -0.075413
     7  H    0.583260  -0.000429  -0.010364  -0.000412   0.000394  -0.000012
     8  H   -0.000429   0.589749   0.000041   0.000153  -0.043299  -0.003222
     9  H   -0.010364   0.000041   0.599465  -0.007072  -0.002998   0.000239
    10  H   -0.000412   0.000153  -0.007072   0.592151  -0.045576   0.002451
    11  C    0.000394  -0.043299  -0.002998  -0.045576   5.933762   0.063217
    12  C   -0.000012  -0.003222   0.000239   0.002451   0.063217   5.670089
    13  C   -0.000016   0.003752   0.000086  -0.002376   0.177463   0.211210
    14  C    0.000002   0.001133  -0.000025   0.008773   0.291438  -0.024733
    15  C    0.000001   0.008473  -0.000005   0.001090   0.284911  -0.396130
    16  C   -0.000000  -0.001647   0.000005  -0.001591  -0.338537   0.319407
    17  H   -0.000003  -0.000159   0.000006   0.003693  -0.075821   0.439072
    18  H    0.000001   0.006622   0.000001  -0.000164  -0.062422   0.028090
    19  H    0.000000   0.000011  -0.000001   0.000248   0.024363  -0.060642
    20  H    0.000000   0.000239  -0.000000   0.000010   0.016909  -0.003365
    21  H   -0.000000  -0.000015   0.000000  -0.000015  -0.009782   0.030129
    22  H   -0.008165  -0.005809  -0.000217   0.000072  -0.003274   0.000125
              13         14         15         16         17         18
     1  C    0.009294  -0.001021  -0.002272   0.000769   0.000354   0.003720
     2  C   -0.002669   0.000626   0.000467  -0.000242  -0.000514  -0.000142
     3  C   -0.041552  -0.000003   0.003404  -0.001227  -0.000021   0.007104
     4  C    0.003067  -0.003417  -0.001107   0.000989   0.005158   0.000121
     5  C   -0.174097   0.069123   0.081711  -0.024481  -0.041181  -0.058736
     6  C    0.016007   0.014367   0.003895  -0.005102  -0.000460  -0.000604
     7  H   -0.000016   0.000002   0.000001  -0.000000  -0.000003   0.000001
     8  H    0.003752   0.001133   0.008473  -0.001647  -0.000159   0.006622
     9  H    0.000086  -0.000025  -0.000005   0.000005   0.000006   0.000001
    10  H   -0.002376   0.008773   0.001090  -0.001591   0.003693  -0.000164
    11  C    0.177463   0.291438   0.284911  -0.338537  -0.075821  -0.062422
    12  C    0.211210  -0.024733  -0.396130   0.319407   0.439072   0.028090
    13  C    5.528418  -0.366241  -0.011428   0.291429   0.022307   0.422589
    14  C   -0.366241   5.527983   0.345454   0.018740  -0.070686  -0.009121
    15  C   -0.011428   0.345454   5.570124  -0.000485  -0.010335  -0.068207
    16  C    0.291429   0.018740  -0.000485   5.451792   0.027504   0.024300
    17  H    0.022307  -0.070686  -0.010335   0.027504   0.592283   0.000251
    18  H    0.422589  -0.009121  -0.068207   0.024300   0.000251   0.613995
    19  H   -0.004178   0.410919   0.024707  -0.081811  -0.010168   0.000004
    20  H   -0.055356   0.022958   0.414753  -0.073909   0.000005  -0.007013
    21  H    0.029913  -0.090097  -0.093400   0.456085   0.000025  -0.000083
    22  H    0.000192  -0.000008  -0.000009   0.000005   0.000003  -0.000026
              19         20         21         22
     1  C   -0.000012  -0.000049   0.000003   0.413993
     2  C    0.000008   0.000008  -0.000001  -0.073713
     3  C    0.000126   0.000097   0.000002  -0.062534
     4  C   -0.000047  -0.000019   0.000004   0.021467
     5  C   -0.001876  -0.001269  -0.000415   0.021337
     6  C    0.000379   0.000193  -0.000020  -0.004374
     7  H    0.000000   0.000000  -0.000000  -0.008165
     8  H    0.000011   0.000239  -0.000015  -0.005809
     9  H   -0.000001  -0.000000   0.000000  -0.000217
    10  H    0.000248   0.000010  -0.000015   0.000072
    11  C    0.024363   0.016909  -0.009782  -0.003274
    12  C   -0.060642  -0.003365   0.030129   0.000125
    13  C   -0.004178  -0.055356   0.029913   0.000192
    14  C    0.410919   0.022958  -0.090097  -0.000008
    15  C    0.024707   0.414753  -0.093400  -0.000009
    16  C   -0.081811  -0.073909   0.456085   0.000005
    17  H   -0.010168   0.000005   0.000025   0.000003
    18  H    0.000004  -0.007013  -0.000083  -0.000026
    19  H    0.614298  -0.000298  -0.010648  -0.000000
    20  H   -0.000298   0.586230  -0.009163  -0.000001
    21  H   -0.010648  -0.009163   0.582678   0.000000
    22  H   -0.000000  -0.000001   0.000000   0.595623
 Mulliken charges:
               1
     1  C   -0.108523
     2  C   -0.119451
     3  C   -0.098716
     4  C   -0.105904
     5  C   -0.038336
     6  C   -0.058745
     7  H    0.115601
     8  H    0.114417
     9  H    0.101566
    10  H    0.111697
    11  C   -0.068117
    12  C   -0.066081
    13  C   -0.057816
    14  C   -0.146164
    15  C   -0.155614
    16  C   -0.061992
    17  H    0.118687
    18  H    0.099721
    19  H    0.094619
    20  H    0.109039
    21  H    0.114800
    22  H    0.105312
 Sum of Mulliken charges =  -0.00000
 Mulliken charges with hydrogens summed into heavy atoms:
               1
     1  C   -0.003211
     2  C   -0.003849
     3  C    0.015702
     4  C   -0.004338
     5  C   -0.038336
     6  C    0.052952
    11  C   -0.068117
    12  C    0.052605
    13  C    0.041905
    14  C   -0.051545
    15  C   -0.046576
    16  C    0.052808
 Electronic spatial extent (au):  <R**2>=           2331.0122
 Charge=             -0.0000 electrons
 Dipole moment (field-independent basis, Debye):
    X=             -0.1365    Y=             -0.0149    Z=              0.0632  Tot=              0.1511
 Quadrupole moment (field-independent basis, Debye-Ang):
   XX=            -62.0105   YY=            -61.9039   ZZ=            -77.4024
   XY=              0.2320   XZ=             -0.1283   YZ=              0.2329
 Traceless Quadrupole moment (field-independent basis, Debye-Ang):
   XX=              5.0951   YY=              5.2017   ZZ=            -10.2968
   XY=              0.2320   XZ=             -0.1283   YZ=              0.2329
 Octapole moment (field-independent basis, Debye-Ang**2):
  XXX=             -1.3120  YYY=              0.1325  ZZZ=              0.0986  XYY=             -0.9521
  XXY=              0.2432  XXZ=              0.3799  XZZ=             -0.0484  YZZ=             -0.2843
  YYZ=              0.5705  XYZ=              0.5724
 Hexadecapole moment (field-independent basis, Debye-Ang**3):
 XXXX=          -2332.6700 YYYY=           -546.8269 ZZZZ=            -91.4855 XXXY=              5.6302
 XXXZ=             -6.3572 YYYX=             -0.1390 YYYZ=              1.4719 ZZZX=             -0.1328
 ZZZY=              0.3063 XXYY=           -489.4402 XXZZ=           -503.1448 YYZZ=           -127.3929
 XXYZ=              1.8880 YYXZ=              1.3009 ZZXY=              0.9389
 N-N= 5.970072804526D+02 E-N=-2.268081871303D+03  KE= 4.606391569297D+02
 No NMR shielding tensors so no spin-rotation constants.
 Leave Link  601 at Sun Jan 17 09:11:00 2021, MaxMem=  4026531840 cpu:               2.8 elap:               0.5
 (Enter /opt/ohpc/pub/libs/gaussian/g16-A.03/sandybridge/g16/l701.exe)
 ... and contract with generalized density number  0.
 Compute integral first derivatives.
 Leave Link  701 at Sun Jan 17 09:11:00 2021, MaxMem=  4026531840 cpu:               2.1 elap:               0.3
 (Enter /opt/ohpc/pub/libs/gaussian/g16-A.03/sandybridge/g16/l702.exe)
 L702 exits ... SP integral derivatives will be done elsewhere.
 Leave Link  702 at Sun Jan 17 09:11:00 2021, MaxMem=  4026531840 cpu:               0.2 elap:               0.0
 (Enter /opt/ohpc/pub/libs/gaussian/g16-A.03/sandybridge/g16/l703.exe)
 Integral derivatives from FoFJK, PRISM(SPDF).
 Compute integral first derivatives, UseDBF=F ICtDFT=           0.
 Calling FoFJK, ICntrl=      2127 FMM=F ISym2X=0 I1Cent= 0 IOpClX= 0 NMat=1 NMatS=1 NMatT=0.
 FoFJK:  IHMeth= 1 ICntrl=    2127 DoSepK=T KAlg= 0 I1Cent=           0 FoldK=F
 IRaf=         1 NMat=       1 IRICut=       1 DoRegI=T DoRafI=F ISym2E= 0 IDoP0=0 IntGTp=1.
 FoFCou: FMM=F IPFlag=           0 FMFlag=      100000 FMFlg1=         800
         NFxFlg=           0 DoJE=F BraDBF=F KetDBF=F FulRan=T
         wScrn=  0.000000 ICntrl=      2527 IOpCl=  0 I1Cent=           0 NGrid=           0
         NMat0=    1 NMatS0=      1 NMatT0=    0 NMatD0=    1 NMtDS0=    0 NMtDT0=    0
 Symmetry not used in FoFCou.
 Leave Link  703 at Sun Jan 17 09:11:19 2021, MaxMem=  4026531840 cpu:             149.6 elap:              18.9
 (Enter /opt/ohpc/pub/libs/gaussian/g16-A.03/sandybridge/g16/l716.exe)
 Dipole        =-5.36900887D-02-5.84713009D-03 2.48607752D-02
 ***** Axes restored to original set *****
 -------------------------------------------------------------------
 Center     Atomic                   Forces (Hartrees/Bohr)
 Number     Number              X              Y              Z
 -------------------------------------------------------------------
      1        6           0.020660933    0.016486066    0.042318978
      2        6           0.041755674   -0.015629841   -0.011408882
      3        6          -0.054350336   -0.017084448   -0.004169848
      4        6          -0.008268473    0.012394018   -0.029745454
      5        6           0.081786480    0.022833091   -0.011646863
      6        6          -0.046126025   -0.010259375    0.009406814
      7        1          -0.012484042   -0.000161023    0.000702356
      8        1          -0.002030529    0.000231642   -0.004703937
      9        1          -0.010334815    0.000110271    0.019089070
     10        1           0.002232738   -0.000393231    0.010550576
     11        6          -0.017578165   -0.018888009    0.010381403
     12        6           0.055142758    0.001146036   -0.027125962
     13        6           0.009305176    0.008329062    0.024219344
     14        6          -0.031508964    0.006841746    0.023589976
     15        6          -0.034081154    0.010978057   -0.018129821
     16        6          -0.043426882   -0.011120927   -0.028151422
     17        1          -0.009922663    0.000770574    0.004719709
     18        1           0.006273096   -0.002158378    0.009042062
     19        1           0.002932551   -0.002218121   -0.007007592
     20        1           0.019428496   -0.004567515   -0.010085650
     21        1           0.036012342    0.002377292    0.021140436
     22        1          -0.005418195   -0.000016986   -0.022985295
 -------------------------------------------------------------------
 Cartesian Forces:  Max     0.081786480 RMS     0.022641813
 Leave Link  716 at Sun Jan 17 09:11:19 2021, MaxMem=  4026531840 cpu:               0.2 elap:               0.0
 (Enter /opt/ohpc/pub/libs/gaussian/g16-A.03/sandybridge/g16/l103.exe)

 GradGradGradGradGradGradGradGradGradGradGradGradGradGradGradGradGradGrad
 Berny optimization.
 FormGI is forming the generalized inverse of G from B-inverse, IUseBI=4.
 Internal  Forces:  Max     0.048051664 RMS     0.010788591
 Search for a local minimum.
 Step number   1 out of a maximum of  121
 All quantities printed in internal units (Hartrees-Bohrs-Radians)
 RMS Force = .10789D-01 SwitMx=.10000D-02 MixMth= 1
 Mixed Optimization -- RFO/linear search
 Second derivative matrix not updated -- first step.
 ITU=  0
     Eigenvalues ---    0.00278   0.01343   0.01657   0.01689   0.01722
     Eigenvalues ---    0.01752   0.01777   0.01812   0.01835   0.01841
     Eigenvalues ---    0.01933   0.01985   0.02039   0.02079   0.02146
     Eigenvalues ---    0.02198   0.02288   0.02455   0.02591   0.15700
     Eigenvalues ---    0.15816   0.15845   0.15884   0.15918   0.15942
     Eigenvalues ---    0.15953   0.15973   0.15973   0.15996   0.21724
     Eigenvalues ---    0.21893   0.21979   0.21991   0.23265   0.23411
     Eigenvalues ---    0.24684   0.24724   0.28799   0.32953   0.33639
     Eigenvalues ---    0.35558   0.36543   0.36840   0.37214   0.37568
     Eigenvalues ---    0.37806   0.37955   0.38197   0.38549   0.39102
     Eigenvalues ---    0.39743   0.41085   0.41908   0.42217   0.42578
     Eigenvalues ---    0.45019   0.46190   0.46709   0.47094   0.54293
 RFO step:  Lambda=-3.74131568D-02 EMin= 2.78406568D-03
 Linear search not attempted -- first point.
 Maximum step size (   0.300) exceeded in Quadratic search.
    -- Step size scaled by   0.965
 Iteration  1 RMS(Cart)=  0.03667149 RMS(Int)=  0.00131179
 Iteration  2 RMS(Cart)=  0.00162177 RMS(Int)=  0.00073610
 Iteration  3 RMS(Cart)=  0.00000133 RMS(Int)=  0.00073610
 Iteration  4 RMS(Cart)=  0.00000000 RMS(Int)=  0.00073610
 ITry= 1 IFail=0 DXMaxC= 1.38D-01 DCOld= 1.00D+10 DXMaxT= 3.00D-01 DXLimC= 3.00D+00 Rises=F
 Variable       Old X    -DE/DX   Delta X   Delta X   Delta X     New X
                                 (Linear)    (Quad)   (Total)
    R1        2.69828  -0.02115   0.00000  -0.05073  -0.05102   2.64726
    R2        2.72143  -0.02936   0.00000  -0.06983  -0.06966   2.65178
    R3        2.00274   0.02278   0.00000   0.05198   0.05198   2.05471
    R4        2.64812  -0.00491   0.00000  -0.01053  -0.01098   2.63714
    R5        2.03241   0.01018   0.00000   0.02438   0.02438   2.05680
    R6        2.65789   0.00286   0.00000   0.00703   0.00748   2.66536
    R7        2.04778   0.00048   0.00000   0.00119   0.00119   2.04896
    R8        2.62076   0.00712   0.00000   0.01706   0.01689   2.63765
    R9        2.01698   0.01758   0.00000   0.04106   0.04106   2.05803
   R10        2.54349   0.04805   0.00000   0.08183   0.08212   2.62561
   R11        2.90424  -0.00571   0.00000  -0.01693  -0.01693   2.88731
   R12        2.02788   0.01049   0.00000   0.02494   0.02494   2.05282
   R13        2.71135  -0.01708   0.00000  -0.03901  -0.03882   2.67253
   R14        2.67476  -0.00885   0.00000  -0.01988  -0.01981   2.65495
   R15        2.69196  -0.02481   0.00000  -0.05230  -0.05221   2.63975
   R16        2.02225   0.01084   0.00000   0.02554   0.02554   2.04779
   R17        2.71179  -0.02958   0.00000  -0.06501  -0.06510   2.64669
   R18        2.07943  -0.00911   0.00000  -0.02351  -0.02351   2.05591
   R19        2.62227   0.00346   0.00000   0.00799   0.00790   2.63017
   R20        2.09135  -0.00714   0.00000  -0.01878  -0.01878   2.07257
   R21        2.62382   0.00373   0.00000   0.00838   0.00821   2.63203
   R22        2.00779   0.02135   0.00000   0.04912   0.04912   2.05691
   R23        1.95741   0.04145   0.00000   0.08762   0.08762   2.04502
    A1        2.08978   0.00647   0.00000   0.00810   0.00737   2.09716
    A2        2.14778  -0.00934   0.00000  -0.03138  -0.03163   2.11615
    A3        2.03787   0.00322   0.00000   0.02959   0.02931   2.06718
    A4        2.06773   0.00733   0.00000   0.01582   0.01436   2.08209
    A5        2.03442   0.00382   0.00000   0.03002   0.03031   2.06473
    A6        2.17667  -0.01086   0.00000  -0.04189  -0.04166   2.13501
    A7        2.03250   0.01792   0.00000   0.06235   0.06247   2.09497
    A8        2.13529  -0.01399   0.00000  -0.05482  -0.05540   2.07989
    A9        2.11020  -0.00366   0.00000  -0.00338  -0.00377   2.10642
   A10        2.10864  -0.00389   0.00000  -0.00817  -0.00929   2.09935
   A11        1.97372   0.01481   0.00000   0.06886   0.06915   2.04286
   A12        2.19508  -0.01069   0.00000  -0.05638  -0.05633   2.13876
   A13        2.15270  -0.02649   0.00000  -0.07695  -0.07740   2.07529
   A14        2.03487   0.02062   0.00000   0.06726   0.06661   2.10148
   A15        2.08296   0.00646   0.00000   0.01940   0.01860   2.10157
   A16        2.09435  -0.00025   0.00000   0.01635   0.01621   2.11056
   A17        2.04582   0.00266   0.00000   0.00459   0.00456   2.05038
   A18        2.14120  -0.00235   0.00000  -0.01976  -0.01976   2.12144
   A19        2.07332   0.00520   0.00000   0.02266   0.02199   2.09531
   A20        2.11947   0.00304   0.00000   0.01539   0.01473   2.13420
   A21        2.08122  -0.00782   0.00000  -0.03054  -0.03078   2.05044
   A22        2.03619   0.01668   0.00000   0.05906   0.05942   2.09562
   A23        2.17100  -0.01005   0.00000  -0.03785  -0.03805   2.13296
   A24        2.07579  -0.00663   0.00000  -0.02109  -0.02128   2.05451
   A25        2.09576   0.00779   0.00000   0.02523   0.02518   2.12094
   A26        2.07282   0.00272   0.00000   0.02068   0.02055   2.09338
   A27        2.11168  -0.01039   0.00000  -0.04371  -0.04394   2.06774
   A28        2.18711  -0.01581   0.00000  -0.05656  -0.05655   2.13055
   A29        2.01247   0.01081   0.00000   0.04303   0.04292   2.05539
   A30        2.08167   0.00507   0.00000   0.01491   0.01478   2.09645
   A31        2.12427  -0.00568   0.00000  -0.01803  -0.01869   2.10559
   A32        2.04032   0.00458   0.00000   0.02067   0.02034   2.06066
   A33        2.10731   0.00156   0.00000   0.00558   0.00508   2.11239
   A34        2.03582   0.00513   0.00000   0.02623   0.02560   2.06143
   A35        2.11118  -0.00220   0.00000  -0.00803  -0.00844   2.10275
   A36        2.12269  -0.00237   0.00000  -0.00906  -0.00956   2.11313
    D1       -0.16538   0.00464   0.00000   0.07597   0.07544  -0.08993
    D2        3.07175   0.00214   0.00000   0.03530   0.03460   3.10635
    D3        3.11414   0.00128   0.00000   0.01776   0.01764   3.13178
    D4        0.06807  -0.00122   0.00000  -0.02290  -0.02320   0.04487
    D5        0.16582  -0.00292   0.00000  -0.06812  -0.06965   0.09617
    D6       -3.08443  -0.00028   0.00000  -0.02482  -0.02679  -3.11122
    D7       -3.10518  -0.00077   0.00000  -0.01815  -0.01814  -3.12332
    D8       -0.07225   0.00187   0.00000   0.02515   0.02473  -0.04752
    D9        0.14873  -0.00418   0.00000  -0.06589  -0.06544   0.08329
   D10       -3.10144  -0.00267   0.00000  -0.02885  -0.02648  -3.12792
   D11       -3.09683  -0.00046   0.00000  -0.01701  -0.01845  -3.11528
   D12       -0.06382   0.00104   0.00000   0.02004   0.02051  -0.04331
   D13       -0.15834   0.00449   0.00000   0.06503   0.06410  -0.09424
   D14       -3.12816  -0.00038   0.00000  -0.00314  -0.00249  -3.13066
   D15        3.09024   0.00261   0.00000   0.02591   0.02393   3.11416
   D16        0.12042  -0.00226   0.00000  -0.04226  -0.04267   0.07775
   D17       -0.13747   0.00301   0.00000   0.05298   0.05356  -0.08392
   D18        3.06703   0.00204   0.00000   0.03329   0.03318   3.10020
   D19        3.12729  -0.00043   0.00000   0.00225   0.00394   3.13123
   D20        0.04860  -0.00141   0.00000  -0.01744  -0.01644   0.03217
   D21        0.14532  -0.00452   0.00000  -0.05854  -0.05702   0.08830
   D22       -3.06274  -0.00329   0.00000  -0.03673  -0.03483  -3.09756
   D23        3.11065   0.00168   0.00000   0.01550   0.01406   3.12471
   D24       -0.09741   0.00290   0.00000   0.03731   0.03626  -0.06115
   D25        3.10575  -0.00085   0.00000  -0.00342  -0.00243   3.10331
   D26       -0.18214   0.00181   0.00000   0.05348   0.05526  -0.12689
   D27        0.12871  -0.00202   0.00000  -0.05845  -0.06023   0.06849
   D28        3.12401   0.00064   0.00000  -0.00155  -0.00254   3.12147
   D29        3.06426   0.00159   0.00000   0.02792   0.02758   3.09184
   D30       -0.05576   0.00113   0.00000   0.02184   0.02169  -0.03407
   D31        0.06570  -0.00192   0.00000  -0.03151  -0.03102   0.03468
   D32       -3.05432  -0.00238   0.00000  -0.03759  -0.03691  -3.09123
   D33       -3.07251  -0.00173   0.00000  -0.02642  -0.02581  -3.09833
   D34        0.15037  -0.00297   0.00000  -0.05490  -0.05522   0.09515
   D35       -0.07787   0.00202   0.00000   0.03511   0.03469  -0.04318
   D36       -3.13817   0.00078   0.00000   0.00664   0.00528  -3.13289
   D37        0.02388  -0.00089   0.00000  -0.01037  -0.00990   0.01398
   D38        3.09765   0.00068   0.00000   0.01485   0.01512   3.11277
   D39       -3.13805  -0.00052   0.00000  -0.00492  -0.00454   3.14059
   D40       -0.06428   0.00104   0.00000   0.02030   0.02047  -0.04381
   D41        0.00068   0.00047   0.00000   0.00290   0.00236   0.00305
   D42       -2.98108  -0.00293   0.00000  -0.05550  -0.05614  -3.03722
   D43        3.05914   0.00238   0.00000   0.03515   0.03435   3.09349
   D44        0.07738  -0.00102   0.00000  -0.02325  -0.02415   0.05322
   D45       -0.09835   0.00265   0.00000   0.04401   0.04403  -0.05432
   D46       -3.06696  -0.00069   0.00000  -0.01329  -0.01385  -3.08081
   D47        3.11354   0.00087   0.00000   0.01702   0.01753   3.13107
   D48        0.14492  -0.00248   0.00000  -0.04027  -0.04035   0.10457
   D49        0.08404  -0.00199   0.00000  -0.03782  -0.03850   0.04554
   D50        3.05143   0.00140   0.00000   0.02002   0.01989   3.07132
   D51        3.05975   0.00177   0.00000   0.02403   0.02303   3.08278
   D52       -0.25605   0.00516   0.00000   0.08188   0.08142  -0.17463
         Item               Value     Threshold  Converged?
 Maximum Force            0.048052     0.000450     NO 
 RMS     Force            0.010789     0.000300     NO 
 Maximum Displacement     0.137731     0.001800     NO 
 RMS     Displacement     0.036294     0.001200     NO 
 Predicted change in Energy=-2.165748D-02
 Lowest energy point so far.  Saving SCF results.
 GradGradGradGradGradGradGradGradGradGradGradGradGradGradGradGradGradGrad

 Leave Link  103 at Sun Jan 17 09:11:19 2021, MaxMem=  4026531840 cpu:               1.1 elap:               0.2
 (Enter /opt/ohpc/pub/libs/gaussian/g16-A.03/sandybridge/g16/l202.exe)
                          Input orientation:                          
 ---------------------------------------------------------------------
 Center     Atomic      Atomic             Coordinates (Angstroms)
 Number     Number       Type             X           Y           Z
 ---------------------------------------------------------------------
      1          6           0       -0.024393   -0.022303   -1.505050
      2          6           0       -1.227606    0.015554   -0.788612
      3          6           0        1.202504    0.014200   -0.824955
      4          6           0       -1.193295   -0.019645    0.606037
      5          6           0        1.229822   -0.028163    0.584593
      6          6           0        0.028107    0.008529    1.281013
      7          1           0       -2.161297    0.019369   -1.347936
      8          1           0        2.123839    0.012779   -1.396595
      9          1           0       -2.150280   -0.001605    1.125570
     10          1           0        0.000560    0.019007    2.366918
     11          6           0        2.560106    0.025471    1.334222
     12          6           0        2.576514    0.029283    2.748365
     13          6           0        3.797621   -0.032874    0.671653
     14          6           0        3.793380    0.018180    3.434250
     15          6           0        5.007036   -0.033940    1.377982
     16          6           0        5.016324    0.019696    2.769726
     17          1           0        1.666411    0.026316    3.336575
     18          1           0        3.832048   -0.029729   -0.415741
     19          1           0        3.762490    0.049574    4.530124
     20          1           0        5.932922    0.019525    0.808206
     21          1           0        5.942852   -0.045721    3.325042
     22          1           0       -0.014529   -0.005678   -2.592186
 ---------------------------------------------------------------------
                    Distance matrix (angstroms):
                    1          2          3          4          5
     1  C    0.000000
     2  C    1.400871   0.000000
     3  C    1.403260   2.430383   0.000000
     4  C    2.413095   1.395515   2.790831   0.000000
     5  C    2.437150   2.815415   1.410450   2.423227   0.000000
     6  C    2.786728   2.420788   2.411295   1.395783   1.389412
     7  H    2.143078   1.088410   3.404218   2.180954   3.903412
     8  H    2.151254   3.406147   1.084266   3.874915   2.173948
     9  H    3.382305   2.125022   3.878913   1.089065   3.423223
    10  H    3.872269   3.386115   3.410682   2.127789   2.165639
    11  C    3.839711   4.342037   2.550540   3.823651   1.527899
    12  C    4.985872   5.194394   3.828413   4.336292   2.549272
    13  C    4.398401   5.233319   2.996111   4.991365   2.569278
    14  C    6.242893   6.560707   4.985327   5.732988   3.833343
    15  C    5.798903   6.600556   4.396556   6.248216   3.859642
    16  C    6.609410   7.186686   5.240895   6.575900   4.372035
    17  H    5.128597   5.039109   4.187325   3.954222   2.786930
    18  H    4.007342   5.073577   2.661557   5.128178   2.787876
    19  H    7.125235   7.293228   5.935625   6.321634   4.689100
    20  H    6.390814   7.336416   5.004407   7.129192   4.708654
    21  H    7.677131   8.266884   6.300553   7.636640   5.451882
    22  H    1.087308   2.173680   2.145849   3.408565   3.411868
                    6          7          8          9         10
     6  C    0.000000
     7  H    3.421255   0.000000
     8  H    3.400249   4.285418   0.000000
     9  H    2.183950   2.473620   4.962824   0.000000
    10  H    1.086305   4.298112   4.321156   2.483442   0.000000
    11  C    2.532614   5.430070   2.765476   4.715083   2.760032
    12  C    2.940736   6.263117   4.169638   4.997700   2.604064
    13  C    3.818674   6.292072   2.661067   5.965279   4.158641
    14  C    4.337488   7.637244   5.111210   6.376323   3.940137
    15  C    4.980054   7.669320   4.001660   7.161838   5.103489
    16  C    5.205641   8.274865   5.071957   7.352817   5.031913
    17  H    2.628629   6.049466   4.755242   4.410947   1.927524
    18  H    4.165382   6.065607   1.970244   6.177758   4.735597
    19  H    4.950154   8.345284   6.149189   6.823083   4.339644
    20  H    5.923724   8.376475   4.401171   8.089458   6.133719
    21  H    6.258211   9.355116   6.073067   8.386800   6.019388
    22  H    3.873460   2.481411   2.449978   4.287559   4.959189
                   11         12         13         14         15
    11  C    0.000000
    12  C    1.414243   0.000000
    13  C    1.404937   2.409917   0.000000
[...]
 Framework group  C1[X(C12H10)]
 Deg. of freedom    60
 Full point group                 C1      NOp   1
 RotChk:  IX=1 Diff= 1.16D-15
 Largest Abelian subgroup         C1      NOp   1
 Largest concise Abelian subgroup C1      NOp   1
                         Standard orientation:                         
 ---------------------------------------------------------------------
 Center     Atomic      Atomic             Coordinates (Angstroms)
 Number     Number       Type             X           Y           Z
 ---------------------------------------------------------------------
      1          6           0       -2.858500    1.132993    0.413690
      2          6           0       -3.561927   -0.000084   -0.000146
      3          6           0       -1.463685    1.132747    0.413534
      4          6           0       -2.858269   -1.133176   -0.413741
      5          6           0       -0.742381    0.000123    0.000091
      6          6           0       -1.463491   -1.132675   -0.413489
      7          1           0       -4.653174   -0.000160   -0.000261
      8          1           0       -0.922222    2.014213    0.762301
      9          1           0       -3.398792   -2.020986   -0.747134
     10          1           0       -0.921754   -2.014027   -0.762095
     11          6           0        0.742385    0.000142    0.000197
     12          6           0        1.463539   -1.132637    0.413582
     13          6           0        1.463636    1.132765   -0.413477
     14          6           0        2.858357   -1.133114    0.413660
     15          6           0        2.858412    1.133073   -0.413706
     16          6           0        3.561931   -0.000095   -0.000087
     17          1           0        0.921935   -2.014039    0.762261
     18          1           0        0.922017    2.014128   -0.762265
     19          1           0        3.398826   -2.021000    0.746938
     20          1           0        3.399026    2.020805   -0.747168
     21          1           0        4.653184   -0.000117   -0.000198
     22          1           0       -3.399078    2.020813    0.746974
 ---------------------------------------------------------------------
 Rotational constants (GHZ):           2.8545349           0.5449545           0.4756989
 Leave Link  202 at Sun Jan 17 09:35:28 2021, MaxMem=  4026531840 cpu:               0.2 elap:               0.1
 (Enter /opt/ohpc/pub/libs/gaussian/g16-A.03/sandybridge/g16/l601.exe)
 Copying SCF densities to generalized density rwf, IOpCl= 0 IROHF=0.

 **********************************************************************

            Population analysis using the SCF density.

 **********************************************************************

 Orbital symmetries:
       Occupied  (A) (A) (A) (A) (A) (A) (A) (A) (A) (A) (A) (A)
                 (A) (A) (A) (A) (A) (A) (A) (A) (A) (A) (A) (A)
                 (A) (A) (A) (A) (A) (A) (A) (A) (A) (A) (A) (A)
                 (A) (A) (A) (A) (A)
       Virtual   (A) (A) (A) (A) (A) (A) (A) (A) (A) (A) (A) (A)
                 (A) (A) (A) (A) (A) (A) (A) (A) (A) (A) (A) (A)
                 (A) (A) (A) (A) (A) (A) (A) (A) (A) (A) (A) (A)
                 (A) (A) (A) (A) (A) (A) (A) (A) (A) (A) (A) (A)
                 (A) (A) (A) (A) (A) (A) (A) (A) (A) (A) (A) (A)
                 (A) (A) (A) (A) (A) (A) (A) (A) (A) (A) (A) (A)
                 (A) (A) (A) (A) (A) (A) (A) (A) (A) (A) (A) (A)
                 (A) (A) (A) (A) (A) (A) (A) (A) (A) (A) (A) (A)
                 (A) (A) (A) (A) (A) (A) (A) (A) (A) (A) (A) (A)
                 (A) (A) (A) (A) (A) (A) (A) (A) (A) (A) (A) (A)
                 (A) (A) (A) (A) (A) (A) (A) (A) (A) (A) (A) (A)
                 (A) (A) (A) (A) (A) (A) (A) (A) (A) (A) (A) (A)
                 (A) (A) (A) (A) (A) (A) (A) (A) (A) (A) (A) (A)
                 (A) (A) (A) (A) (A) (A) (A) (A) (A) (A) (A) (A)
                 (A) (A) (A) (A) (A) (A) (A) (A) (A) (A) (A) (A)
                 (A) (A) (A) (A) (A) (A) (A) (A) (A) (A) (A) (A)
                 (A) (A) (A) (A) (A) (A) (A) (A) (A) (A) (A) (A)
                 (A) (A) (A) (A) (A) (A) (A) (A) (A) (A) (A) (A)
                 (A) (A) (A) (A) (A) (A) (A) (A) (A) (A) (A) (A)
                 (A) (A) (A) (A) (A) (A) (A) (A) (A) (A) (A) (A)
                 (A) (A) (A) (A) (A) (A) (A)
 The electronic state is 1-A.
 Alpha  occ. eigenvalues --   -9.96834  -9.96821  -9.95747  -9.95746  -9.95743
 Alpha  occ. eigenvalues --   -9.95743  -9.95686  -9.95685  -9.95684  -9.95684
 Alpha  occ. eigenvalues --   -9.95644  -9.95644  -0.86194  -0.84096  -0.77520
 Alpha  occ. eigenvalues --   -0.74883  -0.74173  -0.72108  -0.63183  -0.62638
 Alpha  occ. eigenvalues --   -0.60022  -0.58803  -0.54839  -0.51530  -0.48496
 Alpha  occ. eigenvalues --   -0.48307  -0.45798  -0.45788  -0.44337  -0.44010
 Alpha  occ. eigenvalues --   -0.43681  -0.40665  -0.39121  -0.38737  -0.37341
 Alpha  occ. eigenvalues --   -0.36033  -0.35829  -0.31519  -0.29424  -0.29416
 Alpha  occ. eigenvalues --   -0.26906
 Alpha virt. eigenvalues --   -0.00816   0.01311   0.01564   0.04290   0.08581
 Alpha virt. eigenvalues --    0.09093   0.10772   0.12141   0.12544   0.14091
 Alpha virt. eigenvalues --    0.14442   0.14662   0.15434   0.16205   0.17320
 Alpha virt. eigenvalues --    0.17714   0.18667   0.19140   0.23260   0.23575
 Alpha virt. eigenvalues --    0.23778   0.23900   0.25770   0.25817   0.26052
 Alpha virt. eigenvalues --    0.26125   0.26966   0.27109   0.28199   0.28204
 Alpha virt. eigenvalues --    0.29133   0.30348   0.31104   0.31273   0.32119
 Alpha virt. eigenvalues --    0.32663   0.34210   0.35039   0.36698   0.37486
 Alpha virt. eigenvalues --    0.37777   0.38165   0.38989   0.39597   0.39850
 Alpha virt. eigenvalues --    0.40599   0.41757   0.43379   0.44043   0.44060
 Alpha virt. eigenvalues --    0.44204   0.44780   0.44953   0.45290   0.45682
 Alpha virt. eigenvalues --    0.47970   0.48555   0.48875   0.50759   0.50823
 Alpha virt. eigenvalues --    0.51263   0.51669   0.52502   0.53136   0.54814
 Alpha virt. eigenvalues --    0.55163   0.55205   0.55237   0.57258   0.60664
 Alpha virt. eigenvalues --    0.61377   0.64172   0.65719   0.67996   0.68627
 Alpha virt. eigenvalues --    0.70656   0.70909   0.71663   0.71875   0.72109
 Alpha virt. eigenvalues --    0.73401   0.77215   0.79454   0.82749   0.84874
 Alpha virt. eigenvalues --    0.90743   0.92003   1.10379   1.19526   1.20353
 Alpha virt. eigenvalues --    1.23706   1.23923   1.24301   1.24869   1.25128
 Alpha virt. eigenvalues --    1.25559   1.26750   1.28588   1.29047   1.29808
 Alpha virt. eigenvalues --    1.29913   1.30794   1.31374   1.31915   1.32125
 Alpha virt. eigenvalues --    1.32496   1.33038   1.34142   1.35921   1.40829
 Alpha virt. eigenvalues --    1.40946   1.42254   1.42427   1.44080   1.44337
 Alpha virt. eigenvalues --    1.44353   1.44537   1.46075   1.46635   1.47157
 Alpha virt. eigenvalues --    1.47740   1.47763   1.49249   1.49264   1.49396
 Alpha virt. eigenvalues --    1.51583   1.51828   1.52169   1.53186   1.53391
 Alpha virt. eigenvalues --    1.55684   1.56725   1.57080   1.57594   1.58745
 Alpha virt. eigenvalues --    1.58823   1.64812   1.65941   1.69325   1.73308
 Alpha virt. eigenvalues --    1.76008   1.77073   1.77233   1.77330   1.78563
 Alpha virt. eigenvalues --    1.79583   1.80391   1.80972   1.85751   1.86833
 Alpha virt. eigenvalues --    1.86904   1.87442   1.87481   1.87851   1.89710
 Alpha virt. eigenvalues --    1.90012   1.90274   1.90743   1.91238   1.93452
 Alpha virt. eigenvalues --    1.93930   1.94220   1.96986   1.98143   1.98933
 Alpha virt. eigenvalues --    2.00042   2.00809   2.01028   2.07956   2.08825
 Alpha virt. eigenvalues --    2.10743   2.23160   2.24889   2.25319   2.27393
 Alpha virt. eigenvalues --    2.27790   2.28029   2.29627   2.29713   2.32551
 Alpha virt. eigenvalues --    2.32886   2.33013   2.33019   2.34026   2.34927
 Alpha virt. eigenvalues --    2.35305   2.43136   2.46397   2.47518   2.47591
 Alpha virt. eigenvalues --    2.49357   2.50900   2.51720   2.52120   2.56803
 Alpha virt. eigenvalues --    2.58695   2.61913   2.62166   2.62819   2.62921
 Alpha virt. eigenvalues --    2.64943   2.66910   2.67461   2.68054   2.68985
 Alpha virt. eigenvalues --    2.72455   2.78120   2.78143   2.78569   2.81464
 Alpha virt. eigenvalues --    2.96280   2.96934   2.98800   3.01684   3.01860
 Alpha virt. eigenvalues --    3.02200   3.04565   3.06996   3.08828   3.09862
 Alpha virt. eigenvalues --    3.12997   3.13386   3.15795   3.16072   3.18343
 Alpha virt. eigenvalues --    3.19610   3.28242   3.30980   3.31522   3.37873
 Alpha virt. eigenvalues --    3.38529   3.49577   3.52865   3.70386   3.79720
 Alpha virt. eigenvalues --   20.97581  21.25490  21.52846  21.62462  21.65375
 Alpha virt. eigenvalues --   21.72609  21.85106  21.87278  21.90121  21.92682
 Alpha virt. eigenvalues --   22.01822  22.04837
          Condensed to atoms (all electrons):
               1          2          3          4          5          6
     1  C    5.043331   0.439155   0.361204   0.008713   0.016699  -0.122227
     2  C    0.439155   5.025869  -0.009184   0.439129  -0.093984  -0.009139
     3  C    0.361204  -0.009184   5.258319  -0.122157   0.378786  -0.040966
     4  C    0.008713   0.439129  -0.122157   5.043333   0.016669   0.361171
     5  C    0.016699  -0.093984   0.378786   0.016669   5.433177   0.378678
     6  C   -0.122227  -0.009139  -0.040966   0.361171   0.378678   5.258464
     7  H   -0.065712   0.418967   0.020460  -0.065719  -0.004298   0.020463
     8  H   -0.039940   0.012894   0.400985  -0.001795  -0.061397   0.017716
     9  H    0.015245  -0.063442  -0.000280   0.411766   0.016687  -0.056818
    10  H   -0.001792   0.012886   0.017714  -0.039902  -0.061368   0.400950
    11  C    0.022460   0.005636  -0.090627   0.022451   0.138459  -0.090583
    12  C   -0.000381  -0.000302   0.027330   0.003037  -0.090573  -0.025098
    13  C    0.002992  -0.000283  -0.025062  -0.000398  -0.090695   0.027409
    14  C    0.000150   0.000000  -0.000394  -0.000286   0.022477   0.002994
    15  C   -0.000288   0.000001   0.003027   0.000146   0.022473  -0.000395
    16  C    0.000001  -0.000010  -0.000295   0.000001   0.005623  -0.000285
    17  H   -0.000051  -0.000012  -0.000656   0.000686  -0.019224   0.006139
    18  H    0.000687  -0.000012   0.006123  -0.000050  -0.019213  -0.000658
    19  H   -0.000002   0.000001   0.000025  -0.000007  -0.001576   0.000007
    20  H   -0.000007   0.000001   0.000007  -0.000002  -0.001575   0.000025
    21  H    0.000000  -0.000000  -0.000006   0.000000  -0.000128  -0.000006
    22  H    0.411767  -0.063441  -0.056824   0.015245   0.016689  -0.000281
               7          8          9         10         11         12
     1  C   -0.065712  -0.039940   0.015245  -0.001792   0.022460  -0.000381
     2  C    0.418967   0.012894  -0.063442   0.012886   0.005636  -0.000302
     3  C    0.020460   0.400985  -0.000280   0.017714  -0.090627   0.027330
     4  C   -0.065719  -0.001795   0.411766  -0.039902   0.022451   0.003037
     5  C   -0.004298  -0.061397   0.016687  -0.061368   0.138459  -0.090573
     6  C    0.020463   0.017716  -0.056818   0.400950  -0.090583  -0.025098
     7  H    0.590984  -0.000295  -0.009003  -0.000295  -0.000127  -0.000006
     8  H   -0.000295   0.566172   0.000056  -0.000217  -0.019212  -0.000654
     9  H   -0.009003   0.000056   0.593876  -0.007554  -0.001576   0.000007
    10  H   -0.000295  -0.000217  -0.007554   0.566151  -0.019229   0.006130
    11  C   -0.000127  -0.019212  -0.001576  -0.019229   5.432959   0.378913
    12  C   -0.000006  -0.000654   0.000007   0.006130   0.378913   5.258131
    13  C   -0.000006   0.006139   0.000025  -0.000657   0.378825  -0.041047
    14  C    0.000000  -0.000052  -0.000007   0.000684   0.016599   0.361346
    15  C    0.000000   0.000684  -0.000002  -0.000050   0.016611  -0.122107
    16  C   -0.000000  -0.000011   0.000001  -0.000011  -0.093910  -0.009287
    17  H   -0.000003  -0.000051   0.000020   0.001542  -0.061384   0.400968
    18  H   -0.000003   0.001541   0.000001  -0.000052  -0.061353   0.017709
    19  H   -0.000000   0.000001  -0.000000   0.000020   0.016684  -0.056807
    20  H   -0.000000   0.000020   0.000000   0.000001   0.016687  -0.000279
    21  H   -0.000000  -0.000003  -0.000000  -0.000003  -0.004298   0.020459
    22  H   -0.009004  -0.007555  -0.000335   0.000056  -0.001575   0.000025
              13         14         15         16         17         18
     1  C    0.002992   0.000150  -0.000288   0.000001  -0.000051   0.000687
     2  C   -0.000283   0.000000   0.000001  -0.000010  -0.000012  -0.000012
     3  C   -0.025062  -0.000394   0.003027  -0.000295  -0.000656   0.006123
     4  C   -0.000398  -0.000286   0.000146   0.000001   0.000686  -0.000050
     5  C   -0.090695   0.022477   0.022473   0.005623  -0.019224  -0.019213
     6  C    0.027409   0.002994  -0.000395  -0.000285   0.006139  -0.000658
     7  H   -0.000006   0.000000   0.000000  -0.000000  -0.000003  -0.000003
     8  H    0.006139  -0.000052   0.000684  -0.000011  -0.000051   0.001541
     9  H    0.000025  -0.000007  -0.000002   0.000001   0.000020   0.000001
    10  H   -0.000657   0.000684  -0.000050  -0.000011   0.001542  -0.000052
    11  C    0.378825   0.016599   0.016611  -0.093910  -0.061384  -0.061353
    12  C   -0.041047   0.361346  -0.122107  -0.009287   0.400968   0.017709
    13  C    5.258429  -0.122154   0.361184  -0.009174   0.017713   0.400942
    14  C   -0.122154   5.043217   0.008646   0.439238  -0.039919  -0.001789
    15  C    0.361184   0.008646   5.043292   0.439208  -0.001792  -0.039906
    16  C   -0.009174   0.439238   0.439208   5.025771   0.012890   0.012882
    17  H    0.017713  -0.039919  -0.001792   0.012890   0.566163  -0.000217
    18  H    0.400942  -0.001789  -0.039906   0.012882  -0.000217   0.566148
    19  H   -0.000280   0.411755   0.015242  -0.063436  -0.007554   0.000056
    20  H   -0.056826   0.015243   0.411767  -0.063436   0.000056  -0.007553
    21  H    0.020460  -0.065709  -0.065715   0.418963  -0.000295  -0.000295
    22  H    0.000006  -0.000002  -0.000008   0.000001   0.000001   0.000020
              19         20         21         22
     1  C   -0.000002  -0.000007   0.000000   0.411767
     2  C    0.000001   0.000001  -0.000000  -0.063441
     3  C    0.000025   0.000007  -0.000006  -0.056824
     4  C   -0.000007  -0.000002   0.000000   0.015245
     5  C   -0.001576  -0.001575  -0.000128   0.016689
     6  C    0.000007   0.000025  -0.000006  -0.000281
     7  H   -0.000000  -0.000000  -0.000000  -0.009004
     8  H    0.000001   0.000020  -0.000003  -0.007555
     9  H   -0.000000   0.000000  -0.000000  -0.000335
    10  H    0.000020   0.000001  -0.000003   0.000056
    11  C    0.016684   0.016687  -0.004298  -0.001575
    12  C   -0.056807  -0.000279   0.020459   0.000025
    13  C   -0.000280  -0.056826   0.020460   0.000006
    14  C    0.411755   0.015243  -0.065709  -0.000002
    15  C    0.015242   0.411767  -0.065715  -0.000008
    16  C   -0.063436  -0.063436   0.418963   0.000001
    17  H   -0.007554   0.000056  -0.000295   0.000001
    18  H    0.000056  -0.007553  -0.000295   0.000020
    19  H    0.593877  -0.000335  -0.009003   0.000000
    20  H   -0.000335   0.593877  -0.009002  -0.000000
    21  H   -0.009003  -0.009002   0.590983  -0.000000
    22  H    0.000000  -0.000000  -0.000000   0.593881
 Mulliken charges:
               1
     1  C   -0.092003
     2  C   -0.114731
     3  C   -0.127528
     4  C   -0.092031
     5  C   -0.002386
     6  C   -0.127558
     7  H    0.103598
     8  H    0.124975
     9  H    0.101333
    10  H    0.124997
    11  C   -0.002407
    12  C   -0.127515
    13  C   -0.127542
    14  C   -0.092037
    15  C   -0.092017
    16  C   -0.114723
    17  H    0.124983
    18  H    0.124995
    19  H    0.101333
    20  H    0.101332
    21  H    0.103598
    22  H    0.101333
 Sum of Mulliken charges =  -0.00000
 Mulliken charges with hydrogens summed into heavy atoms:
               1
     1  C    0.009330
     2  C   -0.011133
     3  C   -0.002553
     4  C    0.009302
     5  C   -0.002386
     6  C   -0.002561
    11  C   -0.002407
    12  C   -0.002532
    13  C   -0.002547
    14  C    0.009296
    15  C    0.009315
    16  C   -0.011124
 Electronic spatial extent (au):  <R**2>=           2314.5877
 Charge=             -0.0000 electrons
 Dipole moment (field-independent basis, Debye):
    X=             -0.0000    Y=             -0.0001    Z=             -0.0003  Tot=              0.0003
 Quadrupole moment (field-independent basis, Debye-Ang):
   XX=            -62.2066   YY=            -63.9161   ZZ=            -75.3161
   XY=             -0.0005   XZ=             -0.0005   YZ=             -0.0002
 Traceless Quadrupole moment (field-independent basis, Debye-Ang):
   XX=              4.9397   YY=              3.2302   ZZ=             -8.1698
   XY=             -0.0005   XZ=             -0.0005   YZ=             -0.0002
 Octapole moment (field-independent basis, Debye-Ang**2):
  XXX=             -0.0003  YYY=             -0.0015  ZZZ=             -0.0005  XYY=             -0.0004
  XXY=             -0.0009  XXZ=             -0.0075  XZZ=              0.0002  YZZ=              0.0009
  YYZ=             -0.0003  XYZ=            -11.6560
 Hexadecapole moment (field-independent basis, Debye-Ang**3):
 XXXX=          -2331.1026 YYYY=           -507.5689 ZZZZ=           -157.7859 XXXY=              0.0034
 XXXZ=             -0.0047 YYYX=             -0.0079 YYYZ=             -0.0007 ZZZX=             -0.0017
 ZZZY=             -0.0007 XXYY=           -482.6621 XXZZ=           -497.0351 YYZZ=           -113.4971
 XXYZ=             -0.0003 YYXZ=             -0.0020 ZZXY=              0.0020
 N-N= 5.984723284030D+02 E-N=-2.271133689377D+03  KE= 4.606515521645D+02
 No NMR shielding tensors so no spin-rotation constants.
 Leave Link  601 at Sun Jan 17 09:35:29 2021, MaxMem=  4026531840 cpu:               1.7 elap:               0.3
 (Enter /opt/ohpc/pub/libs/gaussian/g16-A.03/sandybridge/g16/l9999.exe)

 Test job not archived.
 1\1\GINC-CASCADEB028\FOpt\RLC-wHPBE\TZVP\C12H10\RDU230\17-Jan-2021\0\\
 #P LC-wHPBE/TZVP iop(3/107=0117500000, 3/108=0117500000) opt\\H10 C12\
 \0,1\C,-0.0092119914,0.4723302793,-1.4295492825\C,-1.1932301848,0.0861
 508212,-0.7979639962\C,1.2001656509,0.4394221241,-0.7354076594\C,-1.15
 71055809,-0.3328292319,0.5336683078\C,1.2518274638,0.0201759741,0.6045
 979844\C,0.0526217431,-0.3653344536,1.2271445288\H,-2.1395380032,0.111
 6617326,-1.3407996906\H,2.1169415577,0.7668001096,-1.2295224884\H,-2.0
 758346663,-0.6447985697,1.0338037753\H,0.0751957603,-0.7179894092,2.26
 00593331\C,2.5393442499,-0.0145851355,1.3432609852\C,2.6116367734,0.39
 2734393,2.686020949\C,3.7177377493,-0.4560625237,0.7182412789\C,3.8209
 080347,0.3600636427,3.3803650411\C,4.9273552473,-0.4890472748,1.411882
 3235\C,4.9841684754,-0.0810770035,2.7462058027\H,1.7123479349,0.762579
 9955,3.1822821638\H,3.6776957047,-0.8005800971,-0.3168967764\H,3.85631
 76785,0.6891654041,4.4205379284\H,5.829317201,-0.8437196794,0.90968646
 69\H,5.9304267675,-0.1068128054,3.2891293266\H,-0.0279495659,0.8095777
 076,-2.4675473022\\Version=EM64L-G16RevA.03\State=1-A\HF=-462.9467769\
 RMSD=8.904e-09\RMSF=1.254e-05\Dipole=-0.0000332,-0.0001164,0.0000288\Q
 uadrupole=3.3515215,-6.0678582,2.7163367,-0.2398188,0.5477879,-0.04254
 23\PG=C01 [X(C12H10)]\\@


 IF MATHEMATICALLY YOU END UP WITH THE INCORRECT ANSWER,
 TRY MULTIPLYING BY THE PAGE NUMBER.
 Job cpu time:       0 days  3 hours 25 minutes 13.6 seconds.
 Elapsed time:       0 days  0 hours 25 minutes 52.3 seconds.
 File lengths (MBytes):  RWF=    108 Int=      0 D2E=      0 Chk=     12 Scr=      8
 Normal termination of Gaussian 16 at Sun Jan 17 09:35:29 2021.
