 Entering Gaussian System, Link 0=g16
 Input=mol_bp_ma_whol_tune_c1.gjf
 Output=mol_bp_ma_whol_tune_c1.log
 Initial command:
 /opt/ohpc/pub/libs/gaussian/g16-A.03/sandybridge/g16/l1.exe "/mnt/gpfs2_4m/scratch/rdu230/ondemand/projects/init_structures/wtuning/mol_bp_ma_whol/tuning_mol_bp_ma_whol_ocycle0/Gau-424995.inp" -scrdir="/mnt/gpfs2_4m/scratch/rdu230/ondemand/projects/init_structures/wtuning/mol_bp_ma_whol/tuning_mol_bp_ma_whol_ocycle0/"
 Entering Link 1 = /opt/ohpc/pub/libs/gaussian/g16-A.03/sandybridge/g16/l1.exe PID=    424996.
  
 Copyright (c) 1988,1990,1992,1993,1995,1998,2003,2009,2016,
            Gaussian, Inc.  All Rights Reserved.
  
 This is part of the Gaussian(R) 16 program.  It is based on
 the Gaussian(R) 09 system (copyright 2009, Gaussian, Inc.),
 the Gaussian(R) 03 system (copyright 2003, Gaussian, Inc.),
 the Gaussian(R) 98 system (copyright 1998, Gaussian, Inc.),
 the Gaussian(R) 94 system (copyright 1995, Gaussian, Inc.),
 the Gaussian 92(TM) system (copyright 1992, Gaussian, Inc.),
 the Gaussian 90(TM) system (copyright 1990, Gaussian, Inc.),
 the Gaussian 88(TM) system (copyright 1988, Gaussian, Inc.),
 the Gaussian 86(TM) system (copyright 1986, Carnegie Mellon
 University), and the Gaussian 82(TM) system (copyright 1983,
 Carnegie Mellon University). Gaussian is a federally registered
 trademark of Gaussian, Inc.
  
 This software contains proprietary and confidential information,
 including trade secrets, belonging to Gaussian, Inc.
  
 This software is provided under written license and may be
 used, copied, transmitted, or stored only in accord with that
 written license.
  
 The following legend is applicable only to US Government
 contracts under FAR:
  
                    RESTRICTED RIGHTS LEGEND
  
 Use, reproduction and disclosure by the US Government is
 subject to restrictions as set forth in subparagraphs (a)
 and (c) of the Commercial Computer Software - Restricted
 Rights clause in FAR 52.227-19.
  
 Gaussian, Inc.
 340 Quinnipiac St., Bldg. 40, Wallingford CT 06492
  
  
 ---------------------------------------------------------------
 Warning -- This program may not be used in any manner that
 competes with the business of Gaussian, Inc. or will provide
 assistance to any competitor of Gaussian, Inc.  The licensee
 of this program is prohibited from giving any competitor of
 Gaussian, Inc. access to this program.  By using this program,
 the user acknowledges that Gaussian, Inc. is engaged in the
 business of creating and licensing software in the field of
 computational chemistry and represents and warrants to the
 licensee that it is not a competitor of Gaussian, Inc. and that
 it will not use this program in any manner prohibited above.
 ---------------------------------------------------------------
  

 Cite this work as:
 Gaussian 16, Revision A.03,
 M. J. Frisch, G. W. Trucks, H. B. Schlegel, G. E. Scuseria, 
 M. A. Robb, J. R. Cheeseman, G. Scalmani, V. Barone, 
 G. A. Petersson, H. Nakatsuji, X. Li, M. Caricato, A. V. Marenich, 
 J. Bloino, B. G. Janesko, R. Gomperts, B. Mennucci, H. P. Hratchian, 
 J. V. Ortiz, A. F. Izmaylov, J. L. Sonnenberg, D. Williams-Young, 
 F. Ding, F. Lipparini, F. Egidi, J. Goings, B. Peng, A. Petrone, 
 T. Henderson, D. Ranasinghe, V. G. Zakrzewski, J. Gao, N. Rega, 
 G. Zheng, W. Liang, M. Hada, M. Ehara, K. Toyota, R. Fukuda, 
 J. Hasegawa, M. Ishida, T. Nakajima, Y. Honda, O. Kitao, H. Nakai, 
 T. Vreven, K. Throssell, J. A. Montgomery, Jr., J. E. Peralta, 
 F. Ogliaro, M. J. Bearpark, J. J. Heyd, E. N. Brothers, K. N. Kudin, 
 V. N. Staroverov, T. A. Keith, R. Kobayashi, J. Normand, 
 K. Raghavachari, A. P. Rendell, J. C. Burant, S. S. Iyengar, 
 J. Tomasi, M. Cossi, J. M. Millam, M. Klene, C. Adamo, R. Cammi, 
 J. W. Ochterski, R. L. Martin, K. Morokuma, O. Farkas, 
 J. B. Foresman, and D. J. Fox, Gaussian, Inc., Wallingford CT, 2016.
 
 ******************************************
 Gaussian 16:  EM64L-G16RevA.03 25-Dec-2016
                18-Jan-2021 
 ******************************************
 %mem=30GB
 %nproc=8
 Will use up to    8 processors via shared memory.
 ----------------------------------------------------------------------
 #P LC-wHPBE/TZVP iop(3/107=0328100000, 3/108=0328100000) scf=(conver=6
 ,fermi,ndamp=35,noincfock,novaracc,vshift=500,xqc)
 ----------------------------------------------------------------------
 1/38=1,172=1/1;
 2/12=2,17=6,18=5,40=1/2;
 3/5=19,7=101,11=2,25=1,30=1,74=-71,107=328100000,108=328100000/1,2,3;
 4//1;
 5/5=100002,6=6,8=3,10=500,13=1,18=-1,22=13,38=1,93=35/2,8;
 6/7=2,8=2,9=2,10=2,28=1/1;
 99/5=1,9=1/99;
 Leave Link    1 at Mon Jan 18 04:53:00 2021, MaxMem=  4026531840 cpu:               2.0 elap:               0.3
 (Enter /opt/ohpc/pub/libs/gaussian/g16-A.03/sandybridge/g16/l101.exe)
 -------------
 H28 C36 N2 O4
 -------------
 Symbolic Z-matrix:
 Charge =  1 Multiplicity = 2
 C                     2.8585    1.1421   -0.37424 
 C                     3.57931  -0.00109   0.00336 
 C                     1.46911   1.13831  -0.36294 
 C                     2.85888  -1.14343   0.38426 
 C                     0.7391    0.00051   0.00982 
 C                     1.46948  -1.13813   0.37936 
 H                     0.93719   2.03347  -0.68882 
 H                     3.39776  -2.0378    0.69627 
 H                     0.93807  -2.0325    0.70814 
 C                    -0.74288   0.00138   0.01297 
 C                    -1.47451  -1.13086  -0.37299 
 C                    -1.47149   1.13472   0.4025 
 C                    -2.8641   -1.13432  -0.37822 
 C                    -2.86074   1.14001   0.41329 
 C                    -3.58294   0.00335   0.01872 
 H                    -0.94411  -2.02123  -0.71407 
 H                    -0.93835   2.02371   0.74295 
 H                    -3.40426  -2.02363  -0.70227 
 H                    -3.3988    2.02906   0.74164 
 H                     3.39702   2.03591  -0.68846 
 N                    -4.99531   0.0057    0.02272 
 C                    -5.71392   1.18551  -0.3155 
 C                    -6.82475   1.58622   0.43968 
 C                    -5.3365    1.96457  -1.4144 
 C                    -7.54337   2.72659   0.10361 
 C                    -6.03755   3.12258  -1.7397 
 C                    -7.14884   3.50571  -0.98601 
 H                    -7.12955   0.98754   1.29812 
 H                    -4.47781   1.6644   -2.01483 
 H                    -8.40828   3.03605   0.6898 
 H                    -5.72457   3.72092  -2.59898 
 C                    -5.71706  -1.17893   0.3363 
 C                    -6.82181  -1.56585  -0.42905 
 C                    -5.34676  -1.97594   1.42879 
 C                    -7.54392  -2.7123   -0.10728 
 C                    -6.0478   -3.13419   1.73803 
 C                    -7.15565  -3.50639   0.97322 
 H                    -7.12443  -0.95603  -1.28024 
 H                    -4.49152  -1.68251   2.03756 
 H                    -8.40755  -2.99553  -0.71408 
 H                    -5.75737  -3.75451   2.58555 
 N                     4.99142  -0.002     0.00006 
 C                     5.71055  -1.18376  -0.33063 
 C                     6.81265  -1.58428   0.43161 
 C                     5.3406   -1.96403  -1.4351 
 C                     7.53257  -2.72778   0.09518 
 C                     6.03955  -3.11956  -1.75953 
 C                     7.14463  -3.50537  -0.99761 
 H                     7.1136   -0.98775   1.29281 
 H                     4.48656  -1.66032  -2.04054 
 H                     8.39336  -3.02271   0.70046 
 H                     5.74902  -3.72753  -2.61593 
 C                     5.71396   1.17869   0.32678 
 C                     6.81446   1.57586  -0.43955 
 C                     5.34931   1.96129   1.43141 
 C                     7.53789   2.71832  -0.10706 
 C                     6.05176   3.1158    1.75191 
 C                     7.15515   3.49826   0.98587 
 H                     7.11151   0.97744  -1.30079 
 H                     4.49683   1.66012   2.0403 
 H                     8.39743   3.01047  -0.71546 
 H                     5.76544   3.72535   2.6086 
 O                     7.82051   4.64102   1.35551 
 H                     8.55525   4.78867   0.73931 
 O                     7.80638  -4.64895  -1.37102 
 H                     8.5417   -4.80006  -0.75635 
 O                    -7.8874    4.62897  -1.26564 
 H                    -7.50341   5.07148  -2.03899 
 O                    -7.81955  -4.65345   1.33202 
 H                    -8.56035  -4.79055   0.72067 
 
 ITRead=  0  0  0  0  0  0  0  0  0  0  0  0  0  0  0  0  0  0  0  0
 ITRead=  0  0  0  0  0  0  0  0  0  0  0  0  0  0  0  0  0  0  0  0
 ITRead=  0  0  0  0  0  0  0  0  0  0  0  0  0  0  0  0  0  0  0  0
 ITRead=  0  0  0  0  0  0  0  0  0  0
 MicOpt= -1 -1 -1 -1 -1 -1 -1 -1 -1 -1 -1 -1 -1 -1 -1 -1 -1 -1 -1 -1
 MicOpt= -1 -1 -1 -1 -1 -1 -1 -1 -1 -1 -1 -1 -1 -1 -1 -1 -1 -1 -1 -1
 MicOpt= -1 -1 -1 -1 -1 -1 -1 -1 -1 -1 -1 -1 -1 -1 -1 -1 -1 -1 -1 -1
 MicOpt= -1 -1 -1 -1 -1 -1 -1 -1 -1 -1
 NAtoms=     70 NQM=       70 NQMF=       0 NMMI=      0 NMMIF=      0
                NMic=       0 NMicF=      0.
                    Isotopes and Nuclear Properties:
 (Nuclear quadrupole moments (NQMom) in fm**2, nuclear magnetic moments (NMagM)
  in nuclear magnetons)

  Atom         1           2           3           4           5           6           7           8           9          10
 IAtWgt=          12          12          12          12          12          12           1           1           1          12
 AtmWgt=  12.0000000  12.0000000  12.0000000  12.0000000  12.0000000  12.0000000   1.0078250   1.0078250   1.0078250  12.0000000
 NucSpn=           0           0           0           0           0           0           1           1           1           0
 AtZEff=  -0.0000000  -0.0000000  -0.0000000  -0.0000000  -0.0000000  -0.0000000  -0.0000000  -0.0000000  -0.0000000  -0.0000000
 NQMom=    0.0000000   0.0000000   0.0000000   0.0000000   0.0000000   0.0000000   0.0000000   0.0000000   0.0000000   0.0000000
 NMagM=    0.0000000   0.0000000   0.0000000   0.0000000   0.0000000   0.0000000   2.7928460   2.7928460   2.7928460   0.0000000
 AtZNuc=   6.0000000   6.0000000   6.0000000   6.0000000   6.0000000   6.0000000   1.0000000   1.0000000   1.0000000   6.0000000

  Atom        11          12          13          14          15          16          17          18          19          20
 IAtWgt=          12          12          12          12          12           1           1           1           1           1
 AtmWgt=  12.0000000  12.0000000  12.0000000  12.0000000  12.0000000   1.0078250   1.0078250   1.0078250   1.0078250   1.0078250
 NucSpn=           0           0           0           0           0           1           1           1           1           1
 AtZEff=  -0.0000000  -0.0000000  -0.0000000  -0.0000000  -0.0000000  -0.0000000  -0.0000000  -0.0000000  -0.0000000  -0.0000000
 NQMom=    0.0000000   0.0000000   0.0000000   0.0000000   0.0000000   0.0000000   0.0000000   0.0000000   0.0000000   0.0000000
 NMagM=    0.0000000   0.0000000   0.0000000   0.0000000   0.0000000   2.7928460   2.7928460   2.7928460   2.7928460   2.7928460
 AtZNuc=   6.0000000   6.0000000   6.0000000   6.0000000   6.0000000   1.0000000   1.0000000   1.0000000   1.0000000   1.0000000

  Atom        21          22          23          24          25          26          27          28          29          30
 IAtWgt=          14          12          12          12          12          12          12           1           1           1
 AtmWgt=  14.0030740  12.0000000  12.0000000  12.0000000  12.0000000  12.0000000  12.0000000   1.0078250   1.0078250   1.0078250
 NucSpn=           2           0           0           0           0           0           0           1           1           1
 AtZEff=  -0.0000000  -0.0000000  -0.0000000  -0.0000000  -0.0000000  -0.0000000  -0.0000000  -0.0000000  -0.0000000  -0.0000000
 NQMom=    2.0440000   0.0000000   0.0000000   0.0000000   0.0000000   0.0000000   0.0000000   0.0000000   0.0000000   0.0000000
 NMagM=    0.4037610   0.0000000   0.0000000   0.0000000   0.0000000   0.0000000   0.0000000   2.7928460   2.7928460   2.7928460
 AtZNuc=   7.0000000   6.0000000   6.0000000   6.0000000   6.0000000   6.0000000   6.0000000   1.0000000   1.0000000   1.0000000

  Atom        31          32          33          34          35          36          37          38          39          40
 IAtWgt=           1          12          12          12          12          12          12           1           1           1
 AtmWgt=   1.0078250  12.0000000  12.0000000  12.0000000  12.0000000  12.0000000  12.0000000   1.0078250   1.0078250   1.0078250
 NucSpn=           1           0           0           0           0           0           0           1           1           1
 AtZEff=  -0.0000000  -0.0000000  -0.0000000  -0.0000000  -0.0000000  -0.0000000  -0.0000000  -0.0000000  -0.0000000  -0.0000000
 NQMom=    0.0000000   0.0000000   0.0000000   0.0000000   0.0000000   0.0000000   0.0000000   0.0000000   0.0000000   0.0000000
 NMagM=    2.7928460   0.0000000   0.0000000   0.0000000   0.0000000   0.0000000   0.0000000   2.7928460   2.7928460   2.7928460
 AtZNuc=   1.0000000   6.0000000   6.0000000   6.0000000   6.0000000   6.0000000   6.0000000   1.0000000   1.0000000   1.0000000

  Atom        41          42          43          44          45          46          47          48          49          50
 IAtWgt=           1          14          12          12          12          12          12          12           1           1
 AtmWgt=   1.0078250  14.0030740  12.0000000  12.0000000  12.0000000  12.0000000  12.0000000  12.0000000   1.0078250   1.0078250
 NucSpn=           1           2           0           0           0           0           0           0           1           1
 AtZEff=  -0.0000000  -0.0000000  -0.0000000  -0.0000000  -0.0000000  -0.0000000  -0.0000000  -0.0000000  -0.0000000  -0.0000000
 NQMom=    0.0000000   2.0440000   0.0000000   0.0000000   0.0000000   0.0000000   0.0000000   0.0000000   0.0000000   0.0000000
 NMagM=    2.7928460   0.4037610   0.0000000   0.0000000   0.0000000   0.0000000   0.0000000   0.0000000   2.7928460   2.7928460
 AtZNuc=   1.0000000   7.0000000   6.0000000   6.0000000   6.0000000   6.0000000   6.0000000   6.0000000   1.0000000   1.0000000

  Atom        51          52          53          54          55          56          57          58          59          60
 IAtWgt=           1           1          12          12          12          12          12          12           1           1
 AtmWgt=   1.0078250   1.0078250  12.0000000  12.0000000  12.0000000  12.0000000  12.0000000  12.0000000   1.0078250   1.0078250
 NucSpn=           1           1           0           0           0           0           0           0           1           1
 AtZEff=  -0.0000000  -0.0000000  -0.0000000  -0.0000000  -0.0000000  -0.0000000  -0.0000000  -0.0000000  -0.0000000  -0.0000000
 NQMom=    0.0000000   0.0000000   0.0000000   0.0000000   0.0000000   0.0000000   0.0000000   0.0000000   0.0000000   0.0000000
 NMagM=    2.7928460   2.7928460   0.0000000   0.0000000   0.0000000   0.0000000   0.0000000   0.0000000   2.7928460   2.7928460
 AtZNuc=   1.0000000   1.0000000   6.0000000   6.0000000   6.0000000   6.0000000   6.0000000   6.0000000   1.0000000   1.0000000

  Atom        61          62          63          64          65          66          67          68          69          70
 IAtWgt=           1           1          16           1          16           1          16           1          16           1
 AtmWgt=   1.0078250   1.0078250  15.9949146   1.0078250  15.9949146   1.0078250  15.9949146   1.0078250  15.9949146   1.0078250
 NucSpn=           1           1           0           1           0           1           0           1           0           1
 AtZEff=  -0.0000000  -0.0000000  -0.0000000  -0.0000000  -0.0000000  -0.0000000  -0.0000000  -0.0000000  -0.0000000  -0.0000000
 NQMom=    0.0000000   0.0000000   0.0000000   0.0000000   0.0000000   0.0000000   0.0000000   0.0000000   0.0000000   0.0000000
 NMagM=    2.7928460   2.7928460   0.0000000   2.7928460   0.0000000   2.7928460   0.0000000   2.7928460   0.0000000   2.7928460
 AtZNuc=   1.0000000   1.0000000   8.0000000   1.0000000   8.0000000   1.0000000   8.0000000   1.0000000   8.0000000   1.0000000
 Leave Link  101 at Mon Jan 18 04:53:00 2021, MaxMem=  4026531840 cpu:               0.8 elap:               0.1
 (Enter /opt/ohpc/pub/libs/gaussian/g16-A.03/sandybridge/g16/l202.exe)
 Stoichiometry    C36H28N2O4(1+,2)
 Framework group  C1[X(C36H28N2O4)]
 Deg. of freedom   204
 Full point group                 C1      NOp   1
 Largest Abelian subgroup         C1      NOp   1
 Largest concise Abelian subgroup C1      NOp   1
                         Standard orientation:                         
 ---------------------------------------------------------------------
 Center     Atomic      Atomic             Coordinates (Angstroms)
 Number     Number       Type             X           Y           Z
 ---------------------------------------------------------------------
      1          6           0        2.858499   -1.142103    0.374244
      2          6           0        3.579312    0.001087   -0.003359
      3          6           0        1.469111   -1.138314    0.362939
      4          6           0        2.858875    1.143435   -0.384264
      5          6           0        0.739097   -0.000512   -0.009817
      6          6           0        1.469477    1.138129   -0.379362
      7          1           0        0.937192   -2.033473    0.688815
      8          1           0        3.397761    2.037798   -0.696269
      9          1           0        0.938071    2.032504   -0.708142
     10          6           0       -0.742883   -0.001384   -0.012974
     11          6           0       -1.474511    1.130858    0.372988
     12          6           0       -1.471490   -1.134716   -0.402503
     13          6           0       -2.864100    1.134318    0.378218
     14          6           0       -2.860735   -1.140009   -0.413286
     15          6           0       -3.582937   -0.003346   -0.018716
     16          1           0       -0.944110    2.021230    0.714069
     17          1           0       -0.938347   -2.023708   -0.742945
     18          1           0       -3.404263    2.023625    0.702274
     19          1           0       -3.398798   -2.029064   -0.741639
     20          1           0        3.397024   -2.035914    0.688457
     21          7           0       -4.995311   -0.005703   -0.022721
     22          6           0       -5.713915   -1.185510    0.315496
     23          6           0       -6.824749   -1.586223   -0.439679
     24          6           0       -5.336499   -1.964565    1.414395
     25          6           0       -7.543368   -2.726588   -0.103607
     26          6           0       -6.037549   -3.122582    1.739703
     27          6           0       -7.148838   -3.505710    0.986012
     28          1           0       -7.129554   -0.987536   -1.298124
     29          1           0       -4.477812   -1.664402    2.014832
     30          1           0       -8.408278   -3.036049   -0.689802
     31          1           0       -5.724570   -3.720924    2.598980
     32          6           0       -5.717056    1.178925   -0.336296
     33          6           0       -6.821807    1.565845    0.429047
     34          6           0       -5.346761    1.975943   -1.428789
     35          6           0       -7.543924    2.712298    0.107280
     36          6           0       -6.047800    3.134194   -1.738027
     37          6           0       -7.155651    3.506391   -0.973222
     38          1           0       -7.124426    0.956025    1.280239
     39          1           0       -4.491517    1.682511   -2.037555
     40          1           0       -8.407549    2.995534    0.714075
     41          1           0       -5.757368    3.754511   -2.585554
     42          7           0        4.991423    0.001999   -0.000060
     43          6           0        5.710552    1.183762    0.330631
     44          6           0        6.812654    1.584277   -0.431608
     45          6           0        5.340603    1.964026    1.435102
     46          6           0        7.532572    2.727778   -0.095183
     47          6           0        6.039551    3.119564    1.759528
     48          6           0        7.144632    3.505373    0.997606
     49          1           0        7.113605    0.987752   -1.292811
     50          1           0        4.486562    1.660323    2.040543
     51          1           0        8.393358    3.022713   -0.700462
     52          1           0        5.749024    3.727528    2.615933
     53          6           0        5.713955   -1.178690   -0.326778
     54          6           0        6.814458   -1.575861    0.439552
     55          6           0        5.349314   -1.961286   -1.431414
     56          6           0        7.537888   -2.718318    0.107058
     57          6           0        6.051756   -3.115796   -1.751909
     58          6           0        7.155153   -3.498257   -0.985865
     59          1           0        7.111509   -0.977436    1.300789
     60          1           0        4.496830   -1.660119   -2.040298
     61          1           0        8.397429   -3.010471    0.715458
     62          1           0        5.765438   -3.725350   -2.608604
     63          8           0        7.820509   -4.641023   -1.355507
     64          1           0        8.555246   -4.788670   -0.739309
     65          8           0        7.806379    4.648952    1.371018
     66          1           0        8.541702    4.800061    0.756350
     67          8           0       -7.887404   -4.628973    1.265636
     68          1           0       -7.503413   -5.071476    2.038990
     69          8           0       -7.819547    4.653451   -1.332021
     70          1           0       -8.560354    4.790553   -0.720672
 ---------------------------------------------------------------------
 Rotational constants (GHZ):           0.1256812           0.0264942           0.0228634
 Leave Link  202 at Mon Jan 18 04:53:00 2021, MaxMem=  4026531840 cpu:               0.1 elap:               0.0
 (Enter /opt/ohpc/pub/libs/gaussian/g16-A.03/sandybridge/g16/l301.exe)
 Standard basis: TZVP (5D, 7F)
 Ernie: Thresh=  0.10000D-02 Tol=  0.10000D-05 Strict=F.
 There are  1008 symmetry adapted cartesian basis functions of A   symmetry.
 There are   966 symmetry adapted basis functions of A   symmetry.
   966 basis functions,  1694 primitive gaussians,  1008 cartesian basis functions
   145 alpha electrons      144 beta electrons
       nuclear repulsion energy      4158.5104167158 Hartrees.
 IExCor=33909 DFT=T Ex+Corr=LC-wHPBE ExCW=0 ScaHFX=  1.000000
 ScaDFX=  1.000000  1.000000  1.000000  1.000000 ScalE2=  1.000000  1.000000
 IRadAn=      5 IRanWt=     -1 IRanGd=            0 ICorTp=0 IEmpDi=  4
 HFx  wShort=  0.000000 wLong=  0.328100 cFull=  0.000000 cShort=  0.000000 cLong=  1.000000
 DFx  wShort=  0.000000 wLong=  0.328100 cFull=  0.000000 cShort=  1.000000 cLong=  0.000000
 NAtoms=   70 NActive=   70 NUniq=   70 SFac= 1.00D+00 NAtFMM=   60 NAOKFM=T Big=T
 Integral buffers will be    131072 words long.
 Raffenetti 2 integral format.
 Two-electron integral symmetry is turned on.
 Leave Link  301 at Mon Jan 18 04:53:01 2021, MaxMem=  4026531840 cpu:               0.4 elap:               0.1
 (Enter /opt/ohpc/pub/libs/gaussian/g16-A.03/sandybridge/g16/l302.exe)
 NPDir=0 NMtPBC=     1 NCelOv=     1 NCel=       1 NClECP=     1 NCelD=      1
         NCelK=      1 NCelE2=     1 NClLst=     1 CellRange=     0.0.
 One-electron integrals computed using PRISM.
 One-electron integral symmetry used in STVInt
 NBasis=   966 RedAO= T EigKep=  7.09D-06  NBF=   966
 NBsUse=   966 1.00D-06 EigRej= -1.00D+00 NBFU=   966
 Precomputing XC quadrature grid using
 IXCGrd= 4 IRadAn=           5 IRanWt=          -1 IRanGd=           0 AccXCQ= 0.00D+00.
 Generated NRdTot=       0 NPtTot=           0 NUsed=           0 NTot=          32
 NSgBfM=   893   890   890   891   893 MxSgAt=    70 MxSgA2=    70.
 Leave Link  302 at Mon Jan 18 04:53:03 2021, MaxMem=  4026531840 cpu:              20.0 elap:               2.6
 (Enter /opt/ohpc/pub/libs/gaussian/g16-A.03/sandybridge/g16/l303.exe)
 DipDrv:  MaxL=1.
 Leave Link  303 at Mon Jan 18 04:53:03 2021, MaxMem=  4026531840 cpu:               1.3 elap:               0.3
 (Enter /opt/ohpc/pub/libs/gaussian/g16-A.03/sandybridge/g16/l401.exe)
 ExpMin= 9.52D-02 ExpMax= 2.70D+04 ExpMxC= 9.22D+02 IAcc=3 IRadAn=         5 AccDes= 0.00D+00
 Harris functional with IExCor=33909 and IRadAn=       5 diagonalized for initial guess.
 HarFok:  IExCor=33909 AccDes= 0.00D+00 IRadAn=         5 IDoV= 1 UseB2=F ITyADJ=14
 ICtDFT=  3500011 ScaDFX=  1.000000  1.000000  1.000000  1.000000
 FoFCou: FMM=F IPFlag=           0 FMFlag=      100000 FMFlg1=        2001
         NFxFlg=           0 DoJE=T BraDBF=F KetDBF=T FulRan=T
         wScrn=  0.000000 ICntrl=       500 IOpCl=  0 I1Cent=   200000004 NGrid=           0
         NMat0=    1 NMatS0=      1 NMatT0=    0 NMatD0=    1 NMtDS0=    0 NMtDT0=    0
 Petite list used in FoFCou.
 Harris En= -1749.69954694965    
 JPrj=0 DoOrth=F DoCkMO=F.
 Initial guess <Sx>= 0.0000 <Sy>= 0.0000 <Sz>= 0.5000 <S**2>= 0.7500 S= 0.5000
 Leave Link  401 at Mon Jan 18 04:53:15 2021, MaxMem=  4026531840 cpu:              88.9 elap:              11.2
 (Enter /opt/ohpc/pub/libs/gaussian/g16-A.03/sandybridge/g16/l502.exe)
 Integral symmetry usage will be decided dynamically.
 UHF open shell SCF:
 Using DIIS extrapolation, IDIIS=    10.
 NGot=  4026531840 LenX=  4024481942 LenY=  4023464870
 Requested convergence on RMS density matrix=1.00D-06 within  32 cycles.
 Requested convergence on MAX density matrix=1.00D-04.
 Requested convergence on             energy=1.00D-04.
 Virtual orbitals will be shifted by   0.500 hartree.
 No special actions if energy rises.
 Dynamic level shift is on during FON iterations.

 Cycle   1  Pass 1  IDiag  1:
 FoFJK:  IHMeth= 1 ICntrl=       0 DoSepK=T KAlg= 0 I1Cent=           0 FoldK=F
 IRaf=         1 NMat=       1 IRICut=       1 DoRegI=T DoRafI=F ISym2E= 0 IDoP0=0 IntGTp=1.
 FoFCou: FMM=T IPFlag=           0 FMFlag=      100000 FMFlg1=        2001
         NFxFlg=           0 DoJE=T BraDBF=F KetDBF=F FulRan=T
         wScrn=  0.000000 ICntrl=       500 IOpCl=  0 I1Cent=           0 NGrid=           0
         NMat0=    1 NMatS0=      1 NMatT0=    0 NMatD0=    1 NMtDS0=    0 NMtDT0=    0
 Symmetry not used in FoFCou.
 FMM levels:  10  Number of levels for PrismC:   9
 E= -1797.55569385586    
 DIIS: error= 2.38D-02 at cycle   1 NSaved=   1.
 NSaved= 1 IEnMin= 1 EnMin= -1797.55569385586     IErMin= 1 ErrMin= 2.38D-02
 ErrMax= 2.38D-02  0.00D+00 EMaxC= 1.00D+00 BMatC= 2.14D+00 BMatP= 2.14D+00
 IDIUse=1 WtCom= 1.00D+00 WtEn= 0.00D+00
 Coeff-Com:  0.100D+01
 Coeff:      0.100D+01
 Gap=     0.361 Goal=   None    Shift=    0.500
 T= 1356. Gap= 0.776 NK=0 IS=  146 IE=  966 IFin=  145
          NO(<0.9)=   0  NV(>0.1)=   0    145.00e < EF      0.00e >EF  Err=0.0D+00
 Gap=     0.076 Goal=   None    Shift=    0.500
 T= 1356. Gap= 0.557 NK=0 IS=  145 IE=  966 IFin=  144
          NO(<0.9)=   0  NV(>0.1)=   0    144.00e < EF      0.00e >EF  Err=0.0D+00
 GapD=    0.076 DampG=0.500 DampE=0.500 DampFc=0.2500 IDamp=-1.
 Damping current iteration by 2.50D-01
 RMSDP=1.89D-03 MaxDP=1.11D-01              OVMax= 7.43D-02

 Cycle   2  Pass 1  IDiag  1:
 E= -1797.71644391790     Delta-E=       -0.160750062038 Rises=F Damp=T
 DIIS: error= 1.71D-02 at cycle   2 NSaved=   2.
 NSaved= 2 IEnMin= 2 EnMin= -1797.71644391790     IErMin= 2 ErrMin= 1.71D-02
 ErrMax= 1.71D-02  0.00D+00 EMaxC= 1.00D+00 BMatC= 1.04D+00 BMatP= 2.14D+00
 IDIUse=1 WtCom= 1.00D+00 WtEn= 0.00D+00
 Coeff-Com: -0.207D+01 0.307D+01
 Coeff:     -0.207D+01 0.307D+01
 Gap=     0.299 Goal=   None    Shift=    0.500
 T= 1297. Gap= 0.779 NK=0 IS=  146 IE=  966 IFin=  145
          NO(<0.9)=   0  NV(>0.1)=   0    145.00e < EF      0.00e >EF  Err=0.0D+00
 Gap=     0.097 Goal=   None    Shift=    0.500
 T= 1297. Gap= 0.578 NK=0 IS=  145 IE=  966 IFin=  144
          NO(<0.9)=   0  NV(>0.1)=   0    144.00e < EF      0.00e >EF  Err=0.0D+00
 GapD=    0.097 DampG=0.500 DampE=0.500 DampFc=0.2500 IDamp=-1.
 Damping current iteration by 2.50D-01
 RMSDP=1.63D-03 MaxDP=1.16D-01 DE=-1.61D-01 OVMax= 2.22D-02

 Cycle   3  Pass 1  IDiag  1:
 E= -1797.81064772283     Delta-E=       -0.094203804932 Rises=F Damp=T
 DIIS: error= 1.23D-02 at cycle   3 NSaved=   3.
 NSaved= 3 IEnMin= 3 EnMin= -1797.81064772283     IErMin= 3 ErrMin= 1.23D-02
 ErrMax= 1.23D-02  0.00D+00 EMaxC= 1.00D+00 BMatC= 5.56D-01 BMatP= 1.04D+00
 IDIUse=1 WtCom= 1.00D+00 WtEn= 0.00D+00
 Coeff-Com:  0.177D-01-0.275D+01 0.373D+01
 Coeff:      0.177D-01-0.275D+01 0.373D+01
 Gap=     0.287 Goal=   None    Shift=    0.500
 T= 1180. Gap= 0.786 NK=0 IS=  146 IE=  966 IFin=  145
          NO(<0.9)=   0  NV(>0.1)=   0    145.00e < EF      0.00e >EF  Err=0.0D+00
 Gap=     0.081 Goal=   None    Shift=    0.500
 T= 1180. Gap= 0.581 NK=0 IS=  145 IE=  966 IFin=  144
          NO(<0.9)=   0  NV(>0.1)=   0    144.00e < EF      0.00e >EF  Err=0.0D+00
 GapD=    0.081 DampG=0.500 DampE=0.500 DampFc=0.2500 IDamp=-1.
 Damping current iteration by 2.50D-01
 RMSDP=1.35D-03 MaxDP=9.96D-02 DE=-9.42D-02 OVMax= 1.60D-02

 Cycle   4  Pass 1  IDiag  1:
 E= -1797.87277140927     Delta-E=       -0.062123686438 Rises=F Damp=T
 DIIS: error= 9.08D-03 at cycle   4 NSaved=   4.
 NSaved= 4 IEnMin= 4 EnMin= -1797.87277140927     IErMin= 4 ErrMin= 9.08D-03
 ErrMax= 9.08D-03  0.00D+00 EMaxC= 1.00D+00 BMatC= 3.07D-01 BMatP= 5.56D-01
 IDIUse=1 WtCom= 1.00D+00 WtEn= 0.00D+00
 Coeff-Com:  0.179D+00-0.238D+00-0.315D+01 0.421D+01
 Coeff:      0.179D+00-0.238D+00-0.315D+01 0.421D+01
 Gap=     0.288 Goal=   None    Shift=    0.500
 T=  986. Gap= 0.788 NK=0 IS=  146 IE=  966 IFin=  145
          NO(<0.9)=   0  NV(>0.1)=   0    145.00e < EF      0.00e >EF  Err=0.0D+00
 Gap=     0.082 Goal=   None    Shift=    0.500
 T=  986. Gap= 0.583 NK=0 IS=  145 IE=  966 IFin=  144
          NO(<0.9)=   0  NV(>0.1)=   0    144.00e < EF      0.00e >EF  Err=0.0D+00
 GapD=    0.082 DampG=0.500 DampE=1.000 DampFc=0.5000 IDamp=-1.
 Damping current iteration by 5.00D-01
 RMSDP=1.08D-03 MaxDP=8.08D-02 DE=-6.21D-02 OVMax= 1.54D-02

 Cycle   5  Pass 1  IDiag  1:
 E= -1797.95551006913     Delta-E=       -0.082738659867 Rises=F Damp=T
 DIIS: error= 4.37D-03 at cycle   5 NSaved=   5.
 NSaved= 5 IEnMin= 5 EnMin= -1797.95551006913     IErMin= 5 ErrMin= 4.37D-03
 ErrMax= 4.37D-03  0.00D+00 EMaxC= 1.00D+00 BMatC= 7.62D-02 BMatP= 3.07D-01
 IDIUse=1 WtCom= 1.00D+00 WtEn= 0.00D+00
 Coeff-Com:  0.417D-01 0.312D+00-0.114D+00-0.180D+01 0.256D+01
 Coeff:      0.417D-01 0.312D+00-0.114D+00-0.180D+01 0.256D+01
 Gap=     0.289 Goal=   None    Shift=    0.500
 T=  746. Gap= 0.789 NK=0 IS=  146 IE=  966 IFin=  145
          NO(<0.9)=   0  NV(>0.1)=   0    145.00e < EF      0.00e >EF  Err=0.0D+00
 Gap=     0.084 Goal=   None    Shift=    0.500
 T=  746. Gap= 0.584 NK=0 IS=  145 IE=  966 IFin=  144
          NO(<0.9)=   0  NV(>0.1)=   0    144.00e < EF      0.00e >EF  Err=0.0D+00
 GapD=    0.084 DampG=0.500 DampE=1.000 DampFc=0.5000 IDamp=-1.
 Damping current iteration by 5.00D-01
 RMSDP=5.82D-04 MaxDP=4.39D-02 DE=-8.27D-02 OVMax= 1.49D-02

 Cycle   6  Pass 1  IDiag  1:
 E= -1797.99280307254     Delta-E=       -0.037293003405 Rises=F Damp=T
 DIIS: error= 2.39D-03 at cycle   6 NSaved=   6.
 NSaved= 6 IEnMin= 6 EnMin= -1797.99280307254     IErMin= 6 ErrMin= 2.39D-03
 ErrMax= 2.39D-03  0.00D+00 EMaxC= 1.00D+00 BMatC= 1.94D-02 BMatP= 7.62D-02
 IDIUse=1 WtCom= 1.00D+00 WtEn= 0.00D+00
 Coeff-Com: -0.547D-01 0.193D+00 0.948D+00-0.149D+01-0.140D+01 0.280D+01
 Coeff:     -0.547D-01 0.193D+00 0.948D+00-0.149D+01-0.140D+01 0.280D+01
 Gap=     0.291 Goal=   None    Shift=    0.500
 T=  454. Gap= 0.791 NK=0 IS=  146 IE=  966 IFin=  145
          NO(<0.9)=   0  NV(>0.1)=   0    145.00e < EF      0.00e >EF  Err=0.0D+00
 Gap=     0.086 Goal=   None    Shift=    0.500
 T=  454. Gap= 0.586 NK=0 IS=  145 IE=  966 IFin=  144
          NO(<0.9)=   0  NV(>0.1)=   0    144.00e < EF      0.00e >EF  Err=0.0D+00
 GapD=    0.086 DampG=0.500 DampE=1.000 DampFc=0.5000 IDamp=-1.
 Damping current iteration by 5.00D-01
 RMSDP=3.18D-04 MaxDP=2.35D-02 DE=-3.73D-02 OVMax= 1.48D-02

 Cycle   7  Pass 1  IDiag  1:
 E= -1798.01075021745     Delta-E=       -0.017947144909 Rises=F Damp=T
 DIIS: error= 2.17D-03 at cycle   7 NSaved=   7.
 NSaved= 7 IEnMin= 7 EnMin= -1798.01075021745     IErMin= 7 ErrMin= 2.17D-03
 ErrMax= 2.17D-03  0.00D+00 EMaxC= 1.00D+00 BMatC= 5.15D-03 BMatP= 1.94D-02
 IDIUse=1 WtCom= 1.00D+00 WtEn= 0.00D+00
 Coeff-Com: -0.344D-01-0.495D-01 0.315D+00 0.182D+00-0.394D+00-0.286D+01
 Coeff-Com:  0.384D+01
 Coeff:     -0.344D-01-0.495D-01 0.315D+00 0.182D+00-0.394D+00-0.286D+01
 Coeff:      0.384D+01
 Gap=     0.292 Goal=   None    Shift=    0.500
 T=  109. Gap= 0.792 NK=0 IS=  146 IE=  966 IFin=  145
          NO(<0.9)=   0  NV(>0.1)=   0    145.00e < EF      0.00e >EF  Err=0.0D+00
 Gap=     0.088 Goal=   None    Shift=    0.500
 T=  109. Gap= 0.589 NK=0 IS=  145 IE=  966 IFin=  144
          NO(<0.9)=   0  NV(>0.1)=   0    144.00e < EF      0.00e >EF  Err=0.0D+00
 GapD=    0.088 DampG=0.500 DampE=1.000 DampFc=0.5000 IDamp=-1.
 Damping current iteration by 5.00D-01
 RMSDP=1.85D-04 MaxDP=1.29D-02 DE=-1.79D-02 OVMax= 1.48D-02

 Cycle   8  Pass 1  IDiag  1:
 E= -1798.01970820539     Delta-E=       -0.008957987938 Rises=F Damp=T
 DIIS: error= 1.96D-03 at cycle   8 NSaved=   8.
 NSaved= 8 IEnMin= 8 EnMin= -1798.01970820539     IErMin= 8 ErrMin= 1.96D-03
 ErrMax= 1.96D-03  0.00D+00 EMaxC= 1.00D+00 BMatC= 1.45D-03 BMatP= 5.15D-03
 IDIUse=1 WtCom= 1.00D+00 WtEn= 0.00D+00
 Coeff-Com:  0.851D-02-0.899D-01-0.255D+00 0.577D+00 0.908D+00-0.252D+01
 Coeff-Com: -0.102D+01 0.340D+01
 Coeff:      0.851D-02-0.899D-01-0.255D+00 0.577D+00 0.908D+00-0.252D+01
 Coeff:     -0.102D+01 0.340D+01
 Gap=     0.292 Goal=   None    Shift=    0.500
 Gap=     0.090 Goal=   None    Shift=    0.500
 GapD=    0.090 DampG=0.500 DampE=1.000 DampFc=0.5000 IDamp=-1.
 Damping current iteration by 5.00D-01
 RMSDP=1.23D-04 MaxDP=9.69D-03 DE=-8.96D-03 OVMax= 1.43D-02

 Cycle   9  Pass 1  IDiag  1:
 E= -1798.02429905478     Delta-E=       -0.004590849395 Rises=F Damp=T
 DIIS: error= 1.75D-03 at cycle   9 NSaved=   9.
 NSaved= 9 IEnMin= 9 EnMin= -1798.02429905478     IErMin= 9 ErrMin= 1.75D-03
 ErrMax= 1.75D-03  0.00D+00 EMaxC= 1.00D+00 BMatC= 4.68D-04 BMatP= 1.45D-03
 IDIUse=1 WtCom= 1.00D+00 WtEn= 0.00D+00
 Coeff-Com:  0.139D-01 0.430D-01-0.105D+00-0.295D+00 0.568D+00 0.135D+01
 Coeff-Com: -0.116D+01-0.536D+01 0.595D+01
 Coeff:      0.139D-01 0.430D-01-0.105D+00-0.295D+00 0.568D+00 0.135D+01
 Coeff:     -0.116D+01-0.536D+01 0.595D+01
 Gap=     0.292 Goal=   None    Shift=    0.500
 Gap=     0.093 Goal=   None    Shift=    0.500
 GapD=    0.093 DampG=0.500 DampE=1.000 DampFc=0.5000 IDamp=-1.
 Damping current iteration by 5.00D-01
 RMSDP=1.04D-04 MaxDP=1.03D-02 DE=-4.59D-03 OVMax= 1.48D-02

 Cycle  10  Pass 1  IDiag  1:
 E= -1798.02671163921     Delta-E=       -0.002412584426 Rises=F Damp=T
 DIIS: error= 1.55D-03 at cycle  10 NSaved=  10.
 NSaved=10 IEnMin=10 EnMin= -1798.02671163921     IErMin=10 ErrMin= 1.55D-03
 ErrMax= 1.55D-03  0.00D+00 EMaxC= 1.00D+00 BMatC= 1.93D-04 BMatP= 4.68D-04
 IDIUse=1 WtCom= 1.00D+00 WtEn= 0.00D+00
 Coeff-Com: -0.548D-03 0.296D-01 0.114D+00-0.325D+00-0.157D+00 0.124D+01
 Coeff-Com:  0.363D+00-0.294D+01-0.991D+00 0.367D+01
 Coeff:     -0.548D-03 0.296D-01 0.114D+00-0.325D+00-0.157D+00 0.124D+01
 Coeff:      0.363D+00-0.294D+01-0.991D+00 0.367D+01
 Gap=     0.292 Goal=   None    Shift=    0.500
 Gap=     0.094 Goal=   None    Shift=    0.500
 GapD=    0.094 DampG=0.500 DampE=1.000 DampFc=0.5000 IDamp=-1.
 Damping current iteration by 5.00D-01
 RMSDP=8.54D-05 MaxDP=8.90D-03 DE=-2.41D-03 OVMax= 1.25D-02

 Cycle  11  Pass 1  IDiag  1:
 E= -1798.02801734194     Delta-E=       -0.001305702734 Rises=F Damp=T
 DIIS: error= 1.36D-03 at cycle  11 NSaved=  11.
 NSaved=11 IEnMin=11 EnMin= -1798.02801734194     IErMin=11 ErrMin= 1.36D-03
 ErrMax= 1.36D-03  0.00D+00 EMaxC= 1.00D+00 BMatC= 1.03D-04 BMatP= 1.93D-04
 IDIUse=1 WtCom= 1.00D+00 WtEn= 0.00D+00
 Coeff-Com: -0.154D-01-0.376D-01 0.245D+00 0.497D-01-0.833D+00-0.296D+00
 Coeff-Com:  0.182D+01 0.220D+01-0.404D+01-0.465D+01 0.655D+01
 Coeff:     -0.154D-01-0.376D-01 0.245D+00 0.497D-01-0.833D+00-0.296D+00
 Coeff:      0.182D+01 0.220D+01-0.404D+01-0.465D+01 0.655D+01
 Gap=     0.291 Goal=   None    Shift=    0.500
 Gap=     0.096 Goal=   None    Shift=    0.500
 GapD=    0.096 DampG=0.500 DampE=1.000 DampFc=0.5000 IDamp=-1.
 Damping current iteration by 5.00D-01
 RMSDP=8.54D-05 MaxDP=9.32D-03 DE=-1.31D-03 OVMax= 1.31D-02

 Cycle  12  Pass 1  IDiag  1:
 E= -1798.02874284550     Delta-E=       -0.000725503561 Rises=F Damp=T
 DIIS: error= 1.20D-03 at cycle  12 NSaved=  12.
 NSaved=12 IEnMin=12 EnMin= -1798.02874284550     IErMin=12 ErrMin= 1.20D-03
 ErrMax= 1.20D-03  0.00D+00 EMaxC= 1.00D+00 BMatC= 6.80D-05 BMatP= 1.03D-04
 IDIUse=1 WtCom= 1.00D+00 WtEn= 0.00D+00
 Coeff-Com: -0.742D-02-0.492D-01 0.140D+00 0.146D+00-0.475D+00-0.730D+00
 Coeff-Com:  0.120D+01 0.191D+01-0.158D-01-0.753D+01 0.418D+01 0.222D+01
 Coeff:     -0.742D-02-0.492D-01 0.140D+00 0.146D+00-0.475D+00-0.730D+00
 Coeff:      0.120D+01 0.191D+01-0.158D-01-0.753D+01 0.418D+01 0.222D+01
 Gap=     0.291 Goal=   None    Shift=    0.500
 Gap=     0.097 Goal=   None    Shift=    0.500
 GapD=    0.097 DampG=0.500 DampE=1.000 DampFc=0.5000 IDamp=-1.
 Damping current iteration by 5.00D-01
 RMSDP=6.90D-05 MaxDP=7.45D-03 DE=-7.26D-04 OVMax= 1.07D-02

 Cycle  13  Pass 1  IDiag  1:
 E= -1798.02916878670     Delta-E=       -0.000425941202 Rises=F Damp=T
 DIIS: error= 1.04D-03 at cycle  13 NSaved=  13.
 NSaved=13 IEnMin=13 EnMin= -1798.02916878670     IErMin=13 ErrMin= 1.04D-03
 ErrMax= 1.04D-03  0.00D+00 EMaxC= 1.00D+00 BMatC= 5.00D-05 BMatP= 6.80D-05
 IDIUse=1 WtCom= 1.00D+00 WtEn= 0.00D+00
 Coeff-Com:  0.101D-01-0.119D-01-0.811D-01 0.493D-01 0.299D+00-0.146D+00
 Coeff-Com: -0.610D+00-0.136D+01 0.602D+01-0.607D+01 0.342D+01-0.699D+01
 Coeff-Com:  0.645D+01
 Coeff:      0.101D-01-0.119D-01-0.811D-01 0.493D-01 0.299D+00-0.146D+00
 Coeff:     -0.610D+00-0.136D+01 0.602D+01-0.607D+01 0.342D+01-0.699D+01
 Coeff:      0.645D+01
 Gap=     0.290 Goal=   None    Shift=    0.500
 Gap=     0.098 Goal=   None    Shift=    0.500
 GapD=    0.098 DampG=0.500 DampE=1.000 DampFc=0.5000 IDamp=-1.
 Damping current iteration by 5.00D-01
 RMSDP=6.11D-05 MaxDP=6.89D-03 DE=-4.26D-04 OVMax= 9.92D-03

 Cycle  14  Pass 1  IDiag  1:
 E= -1798.02942618129     Delta-E=       -0.000257394586 Rises=F Damp=T
 DIIS: error= 8.87D-04 at cycle  14 NSaved=  14.
 NSaved=14 IEnMin=14 EnMin= -1798.02942618129     IErMin=14 ErrMin= 8.87D-04
 ErrMax= 8.87D-04  0.00D+00 EMaxC= 1.00D+00 BMatC= 3.95D-05 BMatP= 5.00D-05
 IDIUse=1 WtCom= 1.00D+00 WtEn= 0.00D+00
 Large coefficients: NSaved= 14 BigCof=   10.26 CofMax=   10.00 Det=-6.59D-08
 Inversion failed.  Reducing to 13 matrices.
 Large coefficients: NSaved= 13 BigCof=   10.13 CofMax=   10.00 Det=-9.78D-08
 Inversion failed.  Reducing to 12 matrices.
 Coeff-Com:  0.776D-03-0.187D-01 0.249D-01 0.181D+00-0.416D-01-0.130D+01
 Coeff-Com:  0.136D+01-0.605D-01 0.458D+01-0.963D+01 0.220D+01 0.372D+01
 Coeff:      0.776D-03-0.187D-01 0.249D-01 0.181D+00-0.416D-01-0.130D+01
 Coeff:      0.136D+01-0.605D-01 0.458D+01-0.963D+01 0.220D+01 0.372D+01
 Gap=     0.290 Goal=   None    Shift=    0.500
 Gap=     0.099 Goal=   None    Shift=    0.500
 RMSDP=4.92D-05 MaxDP=5.52D-03 DE=-2.57D-04 OVMax= 8.25D-03

 Cycle  15  Pass 1  IDiag  1:
 E= -1798.02980997640     Delta-E=       -0.000383795106 Rises=F Damp=F
 DIIS: error= 6.17D-04 at cycle  15 NSaved=  13.
 NSaved=13 IEnMin=13 EnMin= -1798.02980997640     IErMin=13 ErrMin= 6.17D-04
 ErrMax= 6.17D-04  0.00D+00 EMaxC= 1.00D+00 BMatC= 2.52D-05 BMatP= 3.95D-05
 IDIUse=1 WtCom= 1.00D+00 WtEn= 0.00D+00
 Coeff-Com:  0.653D-02-0.187D-01-0.449D-01 0.180D+00 0.215D+00-0.552D+00
 Coeff-Com: -0.126D+01 0.182D+01 0.304D+01-0.540D+01 0.248D+01-0.209D+01
 Coeff-Com:  0.261D+01
 Coeff:      0.653D-02-0.187D-01-0.449D-01 0.180D+00 0.215D+00-0.552D+00
 Coeff:     -0.126D+01 0.182D+01 0.304D+01-0.540D+01 0.248D+01-0.209D+01
 Coeff:      0.261D+01
 Gap=     0.290 Goal=   None    Shift=    0.500
 Gap=     0.099 Goal=   None    Shift=    0.500
 RMSDP=1.47D-05 MaxDP=1.59D-03 DE=-3.84D-04 OVMax= 6.87D-03

 Cycle  16  Pass 1  IDiag  1:
 E= -1798.02984489885     Delta-E=       -0.000034922450 Rises=F Damp=F
 DIIS: error= 5.11D-04 at cycle  16 NSaved=  14.
 NSaved=14 IEnMin=14 EnMin= -1798.02984489885     IErMin=14 ErrMin= 5.11D-04
 ErrMax= 5.11D-04  0.00D+00 EMaxC= 1.00D+00 BMatC= 1.89D-05 BMatP= 2.52D-05
 IDIUse=1 WtCom= 1.00D+00 WtEn= 0.00D+00
 Coeff-Com:  0.642D-02 0.476D-03-0.400D-01-0.583D-01 0.287D+00 0.130D+00
 Coeff-Com: -0.579D+00-0.775D+00 0.129D+01 0.154D-01 0.297D+01-0.519D+01
 Coeff-Com:  0.606D+00 0.233D+01
 Coeff:      0.642D-02 0.476D-03-0.400D-01-0.583D-01 0.287D+00 0.130D+00
 Coeff:     -0.579D+00-0.775D+00 0.129D+01 0.154D-01 0.297D+01-0.519D+01
 Coeff:      0.606D+00 0.233D+01
 Gap=     0.289 Goal=   None    Shift=    0.500
 Gap=     0.100 Goal=   None    Shift=    0.500
 RMSDP=1.26D-05 MaxDP=1.33D-03 DE=-3.49D-05 OVMax= 5.74D-03

 Cycle  17  Pass 1  IDiag  1:
 E= -1798.02987095186     Delta-E=       -0.000026053018 Rises=F Damp=F
 DIIS: error= 4.26D-04 at cycle  17 NSaved=  15.
 NSaved=15 IEnMin=15 EnMin= -1798.02987095186     IErMin=15 ErrMin= 4.26D-04
 ErrMax= 4.26D-04  0.00D+00 EMaxC= 1.00D+00 BMatC= 1.44D-05 BMatP= 1.89D-05
 IDIUse=1 WtCom= 1.00D+00 WtEn= 0.00D+00
 Coeff-Com: -0.400D-01 0.699D-01 0.876D-01-0.399D+00 0.153D+00 0.305D-01
 Coeff-Com:  0.225D+01-0.419D+01 0.110D+01 0.446D+00 0.208D+01-0.108D+01
 Coeff-Com: -0.234D+01 0.222D+00 0.260D+01
 Coeff:     -0.400D-01 0.699D-01 0.876D-01-0.399D+00 0.153D+00 0.305D-01
 Coeff:      0.225D+01-0.419D+01 0.110D+01 0.446D+00 0.208D+01-0.108D+01
 Coeff:     -0.234D+01 0.222D+00 0.260D+01
 Gap=     0.289 Goal=   None    Shift=    0.500
 Gap=     0.100 Goal=   None    Shift=    0.500
 RMSDP=1.10D-05 MaxDP=1.09D-03 DE=-2.61D-05 OVMax= 4.93D-03

 Cycle  18  Pass 1  IDiag  1:
 E= -1798.02989186474     Delta-E=       -0.000020912873 Rises=F Damp=F
 DIIS: error= 3.54D-04 at cycle  18 NSaved=  16.
 NSaved=16 IEnMin=16 EnMin= -1798.02989186474     IErMin=16 ErrMin= 3.54D-04
 ErrMax= 3.54D-04  0.00D+00 EMaxC= 1.00D+00 BMatC= 1.16D-05 BMatP= 1.44D-05
 IDIUse=1 WtCom= 1.00D+00 WtEn= 0.00D+00
 Coeff-Com: -0.257D-01 0.394D-01 0.802D-01-0.263D+00 0.114D+00-0.360D+00
 Coeff-Com:  0.227D+01-0.340D+01 0.188D+01-0.194D+01 0.173D+01 0.941D+00
 Coeff-Com: -0.179D+01-0.752D+00 0.923D+00 0.155D+01
 Coeff:     -0.257D-01 0.394D-01 0.802D-01-0.263D+00 0.114D+00-0.360D+00
 Coeff:      0.227D+01-0.340D+01 0.188D+01-0.194D+01 0.173D+01 0.941D+00
 Coeff:     -0.179D+01-0.752D+00 0.923D+00 0.155D+01
 Gap=     0.289 Goal=   None    Shift=    0.500
 Gap=     0.100 Goal=   None    Shift=    0.500
 RMSDP=7.85D-06 MaxDP=6.86D-04 DE=-2.09D-05 OVMax= 3.92D-03

 Cycle  19  Pass 1  IDiag  1:
 E= -1798.02990763176     Delta-E=       -0.000015767023 Rises=F Damp=F
 DIIS: error= 2.93D-04 at cycle  19 NSaved=  17.
 NSaved=17 IEnMin=17 EnMin= -1798.02990763176     IErMin=17 ErrMin= 2.93D-04
 ErrMax= 2.93D-04  0.00D+00 EMaxC= 1.00D+00 BMatC= 8.41D-06 BMatP= 1.16D-05
 IDIUse=1 WtCom= 1.00D+00 WtEn= 0.00D+00
 Coeff-Com:  0.514D-01-0.835D-01-0.797D-01 0.322D+00 0.225D-01-0.483D+00
 Coeff-Com: -0.739D+00 0.163D+01 0.136D+01-0.339D+01 0.779D+00 0.221D+00
 Coeff-Com:  0.176D+01-0.175D+00-0.243D+01-0.173D+01 0.397D+01
 Coeff:      0.514D-01-0.835D-01-0.797D-01 0.322D+00 0.225D-01-0.483D+00
 Coeff:     -0.739D+00 0.163D+01 0.136D+01-0.339D+01 0.779D+00 0.221D+00
 Coeff:      0.176D+01-0.175D+00-0.243D+01-0.173D+01 0.397D+01
 Gap=     0.289 Goal=   None    Shift=    0.500
 Gap=     0.101 Goal=   None    Shift=    0.500
 RMSDP=8.77D-06 MaxDP=7.59D-04 DE=-1.58D-05 OVMax= 3.63D-03

 Cycle  20  Pass 1  IDiag  1:
 E= -1798.02992223131     Delta-E=       -0.000014599546 Rises=F Damp=F
 DIIS: error= 2.39D-04 at cycle  20 NSaved=  18.
 NSaved=18 IEnMin=18 EnMin= -1798.02992223131     IErMin=18 ErrMin= 2.39D-04
 ErrMax= 2.39D-04  0.00D+00 EMaxC= 1.00D+00 BMatC= 7.34D-06 BMatP= 8.41D-06
 IDIUse=1 WtCom= 1.00D+00 WtEn= 0.00D+00
 Coeff-Com:  0.356D-01-0.537D-01-0.792D-01 0.255D+00 0.317D-01-0.276D+00
 Coeff-Com: -0.869D+00 0.145D+01 0.114D+01-0.269D+01 0.107D+01-0.703D+00
 Coeff-Com:  0.187D+01 0.307D-01-0.178D+01-0.227D+01 0.302D+01 0.824D+00
 Coeff:      0.356D-01-0.537D-01-0.792D-01 0.255D+00 0.317D-01-0.276D+00
 Coeff:     -0.869D+00 0.145D+01 0.114D+01-0.269D+01 0.107D+01-0.703D+00
 Coeff:      0.187D+01 0.307D-01-0.178D+01-0.227D+01 0.302D+01 0.824D+00
 Gap=     0.289 Goal=   None    Shift=    0.500
 Gap=     0.101 Goal=   None    Shift=    0.500
 RMSDP=5.62D-06 MaxDP=3.94D-04 DE=-1.46D-05 OVMax= 2.75D-03

 Cycle  21  Pass 1  IDiag  1:
 E= -1798.02993272652     Delta-E=       -0.000010495213 Rises=F Damp=F
 DIIS: error= 2.27D-04 at cycle  21 NSaved=  19.
 NSaved=19 IEnMin=19 EnMin= -1798.02993272652     IErMin=19 ErrMin= 2.27D-04
 ErrMax= 2.27D-04  0.00D+00 EMaxC= 1.00D+00 BMatC= 5.20D-06 BMatP= 7.34D-06
 IDIUse=1 WtCom= 1.00D+00 WtEn= 0.00D+00
 Coeff-Com: -0.387D-01 0.706D-01 0.274D-01-0.209D+00-0.237D-02 0.410D+00
 Coeff-Com:  0.280D+00-0.107D+01-0.480D+00 0.162D+01 0.419D+00-0.124D+01
 Coeff-Com: -0.624D+00 0.500D+00 0.157D+01-0.775D+00-0.100D+01-0.250D+01
 Coeff-Com:  0.405D+01
 Coeff:     -0.387D-01 0.706D-01 0.274D-01-0.209D+00-0.237D-02 0.410D+00
 Coeff:      0.280D+00-0.107D+01-0.480D+00 0.162D+01 0.419D+00-0.124D+01
 Coeff:     -0.624D+00 0.500D+00 0.157D+01-0.775D+00-0.100D+01-0.250D+01
 Coeff:      0.405D+01
 Gap=     0.288 Goal=   None    Shift=    0.500
 Gap=     0.101 Goal=   None    Shift=    0.500
 RMSDP=7.47D-06 MaxDP=5.76D-04 DE=-1.05D-05 OVMax= 2.65D-03

 Cycle  22  Pass 1  IDiag  1:
 E= -1798.02994257928     Delta-E=       -0.000009852756 Rises=F Damp=F
 DIIS: error= 2.43D-04 at cycle  22 NSaved=  20.
 NSaved=20 IEnMin=20 EnMin= -1798.02994257928     IErMin=19 ErrMin= 2.27D-04
 ErrMax= 2.43D-04  0.00D+00 EMaxC= 1.00D+00 BMatC= 5.32D-06 BMatP= 5.20D-06
 IDIUse=1 WtCom= 1.00D+00 WtEn= 0.00D+00
 Coeff-Com: -0.101D-01 0.198D-01 0.231D-01-0.124D+00 0.349D-01 0.119D+00
 Coeff-Com:  0.480D+00-0.111D+01 0.150D+00 0.451D+00 0.541D+00-0.515D+00
 Coeff-Com: -0.643D+00 0.113D+00 0.115D+01-0.765D-01-0.295D+00-0.317D+01
 Coeff-Com:  0.266D+01 0.119D+01
 Coeff:     -0.101D-01 0.198D-01 0.231D-01-0.124D+00 0.349D-01 0.119D+00
 Coeff:      0.480D+00-0.111D+01 0.150D+00 0.451D+00 0.541D+00-0.515D+00
 Coeff:     -0.643D+00 0.113D+00 0.115D+01-0.765D-01-0.295D+00-0.317D+01
 Coeff:      0.266D+01 0.119D+01
 Gap=     0.288 Goal=   None    Shift=    0.500
 Gap=     0.101 Goal=   None    Shift=    0.500
 RMSDP=5.14D-06 MaxDP=2.87D-04 DE=-9.85D-06 OVMax= 2.42D-03

 Cycle  23  Pass 1  IDiag  1:
 E= -1798.02995037537     Delta-E=       -0.000007796099 Rises=F Damp=F
 DIIS: error= 2.44D-04 at cycle  23 NSaved=  20.
 NSaved=20 IEnMin=20 EnMin= -1798.02995037537     IErMin=18 ErrMin= 2.27D-04
 ErrMax= 2.44D-04  0.00D+00 EMaxC= 1.00D+00 BMatC= 4.23D-06 BMatP= 5.20D-06
 IDIUse=1 WtCom= 1.00D+00 WtEn= 0.00D+00
 Coeff-Com: -0.392D-04 0.102D-01-0.324D-01 0.192D-01-0.595D-01 0.374D+00
 Coeff-Com: -0.640D+00 0.441D+00-0.428D+00 0.449D+00-0.761D-02-0.302D+00
 Coeff-Com: -0.452D-02 0.230D+00 0.937D-01 0.357D+00-0.156D+01 0.109D+01
 Coeff-Com: -0.132D+01 0.228D+01
 Coeff:     -0.392D-04 0.102D-01-0.324D-01 0.192D-01-0.595D-01 0.374D+00
 Coeff:     -0.640D+00 0.441D+00-0.428D+00 0.449D+00-0.761D-02-0.302D+00
 Coeff:     -0.452D-02 0.230D+00 0.937D-01 0.357D+00-0.156D+01 0.109D+01
 Coeff:     -0.132D+01 0.228D+01
 Gap=     0.288 Goal=   None    Shift=    0.500
 Gap=     0.101 Goal=   None    Shift=    0.500
 RMSDP=4.49D-06 MaxDP=2.63D-04 DE=-7.80D-06 OVMax= 2.34D-03

 Cycle  24  Pass 1  IDiag  1:
 E= -1798.02995700968     Delta-E=       -0.000006634307 Rises=F Damp=F
 DIIS: error= 2.45D-04 at cycle  24 NSaved=  20.
 NSaved=20 IEnMin=20 EnMin= -1798.02995700968     IErMin=17 ErrMin= 2.27D-04
 ErrMax= 2.45D-04  0.00D+00 EMaxC= 1.00D+00 BMatC= 3.43D-06 BMatP= 4.23D-06
 IDIUse=1 WtCom= 1.00D+00 WtEn= 0.00D+00
 Coeff-Com: -0.316D-02 0.117D-01-0.157D-02-0.491D-01 0.108D+00-0.168D+00
 Coeff-Com:  0.313D+00-0.475D+00 0.322D+00-0.738D-01 0.699D-01 0.319D-01
 Coeff-Com: -0.178D+00-0.164D+00 0.525D+00-0.418D+00 0.558D+00-0.168D+01
 Coeff-Com:  0.823D+00 0.145D+01
 Coeff:     -0.316D-02 0.117D-01-0.157D-02-0.491D-01 0.108D+00-0.168D+00
 Coeff:      0.313D+00-0.475D+00 0.322D+00-0.738D-01 0.699D-01 0.319D-01
 Coeff:     -0.178D+00-0.164D+00 0.525D+00-0.418D+00 0.558D+00-0.168D+01
 Coeff:      0.823D+00 0.145D+01
 Gap=     0.288 Goal=   None    Shift=    0.500
 Gap=     0.101 Goal=   None    Shift=    0.500
 RMSDP=3.90D-06 MaxDP=2.39D-04 DE=-6.63D-06 OVMax= 2.21D-03

 Cycle  25  Pass 1  IDiag  1:
 E= -1798.02996275523     Delta-E=       -0.000005745547 Rises=F Damp=F
 DIIS: error= 2.44D-04 at cycle  25 NSaved=  20.
 NSaved=20 IEnMin=20 EnMin= -1798.02996275523     IErMin=16 ErrMin= 2.27D-04
 ErrMax= 2.44D-04  0.00D+00 EMaxC= 1.00D+00 BMatC= 2.84D-06 BMatP= 3.43D-06
 IDIUse=1 WtCom= 1.00D+00 WtEn= 0.00D+00
 Coeff-Com:  0.114D-02-0.133D-02-0.201D-01 0.909D-01-0.168D+00 0.188D+00
 Coeff-Com: -0.236D+00 0.262D+00-0.154D+00 0.109D-01 0.632D-01 0.679D-02
 Coeff-Com: -0.189D+00 0.303D+00-0.533D+00 0.672D+00-0.783D+00 0.177D+00
 Coeff-Com:  0.370D+00 0.940D+00
 Coeff:      0.114D-02-0.133D-02-0.201D-01 0.909D-01-0.168D+00 0.188D+00
 Coeff:     -0.236D+00 0.262D+00-0.154D+00 0.109D-01 0.632D-01 0.679D-02
 Coeff:     -0.189D+00 0.303D+00-0.533D+00 0.672D+00-0.783D+00 0.177D+00
 Coeff:      0.370D+00 0.940D+00
 Gap=     0.288 Goal=   None    Shift=    0.500
 Gap=     0.101 Goal=   None    Shift=    0.500
 RMSDP=3.05D-06 MaxDP=2.01D-04 DE=-5.75D-06 OVMax= 1.94D-03

 Cycle  26  Pass 1  IDiag  1:
 E= -1798.02996749537     Delta-E=       -0.000004740140 Rises=F Damp=F
 DIIS: error= 2.37D-04 at cycle  26 NSaved=  20.
 NSaved=20 IEnMin=20 EnMin= -1798.02996749537     IErMin=15 ErrMin= 2.27D-04
 ErrMax= 2.37D-04  0.00D+00 EMaxC= 1.00D+00 BMatC= 2.44D-06 BMatP= 2.84D-06
 IDIUse=1 WtCom= 1.00D+00 WtEn= 0.00D+00
 Coeff-Com: -0.425D-04-0.104D-01 0.654D-01-0.144D+00 0.176D+00-0.221D+00
 Coeff-Com:  0.268D+00-0.191D+00 0.501D-01 0.391D-01 0.228D-01-0.234D+00
 Coeff-Com:  0.366D+00-0.614D+00 0.778D+00-0.802D+00 0.467D-01 0.248D+00
 Coeff-Com:  0.151D+01-0.351D+00
 Coeff:     -0.425D-04-0.104D-01 0.654D-01-0.144D+00 0.176D+00-0.221D+00
 Coeff:      0.268D+00-0.191D+00 0.501D-01 0.391D-01 0.228D-01-0.234D+00
 Coeff:      0.366D+00-0.614D+00 0.778D+00-0.802D+00 0.467D-01 0.248D+00
 Coeff:      0.151D+01-0.351D+00
 Gap=     0.288 Goal=   None    Shift=    0.500
 Gap=     0.101 Goal=   None    Shift=    0.500
 RMSDP=2.28D-06 MaxDP=1.58D-04 DE=-4.74D-06 OVMax= 1.59D-03

 Cycle  27  Pass 1  IDiag  1:
 E= -1798.02997110962     Delta-E=       -0.000003614253 Rises=F Damp=F
 DIIS: error= 2.24D-04 at cycle  27 NSaved=  20.
 NSaved=20 IEnMin=20 EnMin= -1798.02997110962     IErMin=20 ErrMin= 2.24D-04
 ErrMax= 2.24D-04  0.00D+00 EMaxC= 1.00D+00 BMatC= 2.53D-06 BMatP= 2.44D-06
 IDIUse=1 WtCom= 1.00D+00 WtEn= 0.00D+00
 Coeff-Com: -0.110D-01 0.672D-01-0.146D+00 0.176D+00-0.225D+00 0.272D+00
 Coeff-Com: -0.193D+00 0.546D-01 0.562D-01-0.378D-02-0.244D+00 0.368D+00
 Coeff-Com: -0.541D+00 0.752D+00-0.909D+00-0.585D-04 0.266D+00 0.229D+01
 Coeff-Com: -0.145D+01 0.426D+00
 Coeff:     -0.110D-01 0.672D-01-0.146D+00 0.176D+00-0.225D+00 0.272D+00
 Coeff:     -0.193D+00 0.546D-01 0.562D-01-0.378D-02-0.244D+00 0.368D+00
 Coeff:     -0.541D+00 0.752D+00-0.909D+00-0.585D-04 0.266D+00 0.229D+01
 Coeff:     -0.145D+01 0.426D+00
 Gap=     0.288 Goal=   None    Shift=    0.500
 Gap=     0.101 Goal=   None    Shift=    0.500
 RMSDP=1.81D-06 MaxDP=1.25D-04 DE=-3.61D-06 OVMax= 1.30D-03

 Cycle  28  Pass 1  IDiag  1:
 E= -1798.02997380198     Delta-E=       -0.000002692357 Rises=F Damp=F
 DIIS: error= 2.12D-04 at cycle  28 NSaved=  20.
 NSaved=20 IEnMin=20 EnMin= -1798.02997380198     IErMin=20 ErrMin= 2.12D-04
 ErrMax= 2.12D-04  0.00D+00 EMaxC= 1.00D+00 BMatC= 3.19D-06 BMatP= 2.44D-06
 IDIUse=1 WtCom= 1.00D+00 WtEn= 0.00D+00
 Coeff-Com:  0.210D-01-0.926D-01 0.175D+00-0.233D+00 0.273D+00-0.225D+00
 Coeff-Com:  0.940D-01 0.443D-01 0.953D-03-0.269D+00 0.404D+00-0.597D+00
 Coeff-Com:  0.808D+00-0.891D+00-0.526D-01 0.150D+00 0.187D+01 0.140D+01
 Coeff-Com: -0.377D+01 0.188D+01
 Coeff:      0.210D-01-0.926D-01 0.175D+00-0.233D+00 0.273D+00-0.225D+00
 Coeff:      0.940D-01 0.443D-01 0.953D-03-0.269D+00 0.404D+00-0.597D+00
 Coeff:      0.808D+00-0.891D+00-0.526D-01 0.150D+00 0.187D+01 0.140D+01
 Coeff:     -0.377D+01 0.188D+01
 Gap=     0.288 Goal=   None    Shift=    0.500
 Gap=     0.101 Goal=   None    Shift=    0.500
 RMSDP=1.48D-06 MaxDP=1.01D-04 DE=-2.69D-06 OVMax= 1.09D-03

 Cycle  29  Pass 1  IDiag  1:
 E= -1798.02997587155     Delta-E=       -0.000002069571 Rises=F Damp=F
 DIIS: error= 2.00D-04 at cycle  29 NSaved=  20.
 NSaved=20 IEnMin=20 EnMin= -1798.02997587155     IErMin=20 ErrMin= 2.00D-04
 ErrMax= 2.00D-04  0.00D+00 EMaxC= 1.00D+00 BMatC= 4.14D-06 BMatP= 2.44D-06
 IDIUse=1 WtCom= 1.00D+00 WtEn= 0.00D+00
 Coeff-Com: -0.327D-01 0.145D+00-0.240D+00 0.250D+00-0.215D+00 0.112D+00
 Coeff-Com:  0.591D-01-0.859D-02-0.298D+00 0.384D+00-0.522D+00 0.787D+00
 Coeff-Com: -0.793D+00-0.298D+00 0.108D-01 0.269D+01 0.865D+00-0.552D+01
 Coeff-Com:  0.533D+01-0.170D+01
 Coeff:     -0.327D-01 0.145D+00-0.240D+00 0.250D+00-0.215D+00 0.112D+00
 Coeff:      0.591D-01-0.859D-02-0.298D+00 0.384D+00-0.522D+00 0.787D+00
 Coeff:     -0.793D+00-0.298D+00 0.108D-01 0.269D+01 0.865D+00-0.552D+01
 Coeff:      0.533D+01-0.170D+01
 Gap=     0.288 Goal=   None    Shift=    0.500
 Gap=     0.101 Goal=   None    Shift=    0.500
 RMSDP=1.23D-06 MaxDP=8.07D-05 DE=-2.07D-06 OVMax= 9.01D-04

 Cycle  30  Pass 1  IDiag  1:
 E= -1798.02997745025     Delta-E=       -0.000001578704 Rises=F Damp=F
 DIIS: error= 1.90D-04 at cycle  30 NSaved=  20.
 NSaved=20 IEnMin=20 EnMin= -1798.02997745025     IErMin=20 ErrMin= 1.90D-04
 ErrMax= 1.90D-04  0.00D+00 EMaxC= 1.00D+00 BMatC= 5.29D-06 BMatP= 2.44D-06
 IDIUse=1 WtCom= 1.00D+00 WtEn= 0.00D+00
 Coeff-Com:  0.153D-01-0.623D-01 0.224D+00-0.311D+00 0.120D+00 0.119D+00
 Coeff-Com:  0.257D-01-0.379D+00 0.290D+00-0.399D+00 0.838D+00-0.719D+00
 Coeff-Com: -0.588D+00-0.883D-01 0.383D+01-0.113D+01-0.371D+01 0.261D+01
 Coeff-Com:  0.233D+01-0.201D+01
 Coeff:      0.153D-01-0.623D-01 0.224D+00-0.311D+00 0.120D+00 0.119D+00
 Coeff:      0.257D-01-0.379D+00 0.290D+00-0.399D+00 0.838D+00-0.719D+00
 Coeff:     -0.588D+00-0.883D-01 0.383D+01-0.113D+01-0.371D+01 0.261D+01
 Coeff:      0.233D+01-0.201D+01
 Gap=     0.288 Goal=   None    Shift=    0.500
 Gap=     0.101 Goal=   None    Shift=    0.500
 RMSDP=1.04D-06 MaxDP=7.28D-05 DE=-1.58D-06 OVMax= 7.69D-04

 Cycle  31  Pass 1  IDiag  1:
 E= -1798.02997875209     Delta-E=       -0.000001301842 Rises=F Damp=F
 DIIS: error= 1.82D-04 at cycle  31 NSaved=  20.
 NSaved=20 IEnMin=20 EnMin= -1798.02997875209     IErMin=20 ErrMin= 1.82D-04
 ErrMax= 1.82D-04  0.00D+00 EMaxC= 1.00D+00 BMatC= 6.37D-06 BMatP= 2.44D-06
 IDIUse=1 WtCom= 1.00D+00 WtEn= 0.00D+00
 Coeff-Com: -0.156D-01 0.254D+00-0.416D+00 0.136D+00 0.174D+00 0.395D-01
 Coeff-Com: -0.435D+00 0.259D+00-0.294D+00 0.884D+00-0.976D+00-0.631D+00
 Coeff-Com:  0.202D-01 0.518D+01-0.373D+01-0.213D+01 0.124D+01 0.700D+01
 Coeff-Com: -0.788D+01 0.232D+01
 Coeff:     -0.156D-01 0.254D+00-0.416D+00 0.136D+00 0.174D+00 0.395D-01
 Coeff:     -0.435D+00 0.259D+00-0.294D+00 0.884D+00-0.976D+00-0.631D+00
 Coeff:      0.202D-01 0.518D+01-0.373D+01-0.213D+01 0.124D+01 0.700D+01
 Coeff:     -0.788D+01 0.232D+01
 Gap=     0.288 Goal=   None    Shift=    0.500
 Gap=     0.101 Goal=   None    Shift=    0.500
 RMSDP=8.38D-07 MaxDP=5.73D-05 DE=-1.30D-06 OVMax= 6.14D-04

 Density matrix is not changing but DIIS error= 1.82D-04 CofLast=-7.88D+00.
 Cycle  32  Pass 1  IDiag  1:
 E= -1798.02997964944     Delta-E=       -0.000000897345 Rises=F Damp=F
 DIIS: error= 1.75D-04 at cycle   1 NSaved=   1.
 NSaved= 1 IEnMin= 1 EnMin= -1798.02997964944     IErMin= 1 ErrMin= 1.75D-04
 ErrMax= 1.75D-04  0.00D+00 EMaxC= 1.00D+00 BMatC= 7.56D-06 BMatP= 7.56D-06
 IDIUse=1 WtCom= 1.00D+00 WtEn= 0.00D+00
 Coeff-Com:  0.100D+01
 Coeff:      0.100D+01
 Gap=     0.287 Goal=   None    Shift=    0.500
 Gap=     0.101 Goal=   None    Shift=    0.500
 RMSDP=6.24D-06 MaxDP=3.16D-04 DE=-8.97D-07 OVMax= 1.19D-03

 >>>>>>>>>> Convergence criterion not met.
 SCF Done:  E(ULC-wHPBE) =  -1798.02997965     A.U. after   33 cycles
            NFock= 32  Conv=0.62D-05     -V/T= 2.0054
 <Sx>= 0.0000 <Sy>= 0.0000 <Sz>= 0.5000 <S**2>= 0.8026 S= 0.5260
 <L.S>= 0.000000000000E+00
 KE= 1.788321070411D+03 PE=-1.247582680625D+04 EE= 4.730965339475D+03
 Annihilation of the first spin contaminant:
 S**2 before annihilation     0.8026,   after     0.7518
 Leave Link  502 at Mon Jan 18 05:43:10 2021, MaxMem=  4026531840 cpu:           23687.0 elap:            2995.6
 (Enter /opt/ohpc/pub/libs/gaussian/g16-A.03/sandybridge/g16/l508.exe)
 Integral symmetry usage will be decided dynamically.
 Tight linear equation convergence will be used.
 ULC-wHPBE wavefunction.
 Quadratic Convergence SCF Method.
 Line search only if initial step raises energy.
 FoFJK:  IHMeth= 1 ICntrl=       0 DoSepK=T KAlg= 0 I1Cent=           0 FoldK=F
 IRaf=         1 NMat=       1 IRICut=       1 DoRegI=T DoRafI=F ISym2E= 1 IDoP0=0 IntGTp=1.
 FoFCou: FMM=T IPFlag=           0 FMFlag=      100000 FMFlg1=        2001
         NFxFlg=           0 DoJE=T BraDBF=F KetDBF=F FulRan=T
         wScrn=  0.000000 ICntrl=       500 IOpCl=  0 I1Cent=           0 NGrid=           0
         NMat0=    1 NMatS0=      1 NMatT0=    0 NMatD0=    1 NMtDS0=    0 NMtDT0=    0
 Petite list used in FoFCou.
 FMM levels:  10  Number of levels for PrismC:   9
 Iteration   1 EE= -1798.02998435304                                    Grad=1.291D-03 Max rot=    0.0580 deg.
 QCNR:  CnvC1=1.29D-08 CnvC2=1.29D-07
 LinEq1:  Iter=  0 NonCon=     1 RMS=2.08D-05 Max=9.99D-03 NDo=     1
 AX will form     1 AO Fock derivatives at one time.
 LinEq1:  Iter=  1 NonCon=     1 RMS=9.07D-06 Max=1.31D-03 NDo=     1
 LinEq1:  Iter=  2 NonCon=     1 RMS=4.06D-06 Max=8.21D-04 NDo=     1
 LinEq1:  Iter=  3 NonCon=     1 RMS=2.43D-06 Max=3.85D-04 NDo=     1
 LinEq1:  Iter=  4 NonCon=     1 RMS=1.06D-06 Max=1.40D-04 NDo=     1
 LinEq1:  Iter=  5 NonCon=     1 RMS=6.16D-07 Max=5.24D-05 NDo=     1
 LinEq1:  Iter=  6 NonCon=     1 RMS=3.01D-07 Max=2.95D-05 NDo=     1
 LinEq1:  Iter=  7 NonCon=     1 RMS=2.28D-07 Max=3.42D-05 NDo=     1
 LinEq1:  Iter=  8 NonCon=     1 RMS=1.16D-07 Max=8.64D-06 NDo=     1
 LinEq1:  Iter=  9 NonCon=     1 RMS=7.30D-08 Max=9.31D-06 NDo=     1
 LinEq1:  Iter= 10 NonCon=     1 RMS=4.15D-08 Max=5.86D-06 NDo=     1
 LinEq1:  Iter= 11 NonCon=     1 RMS=2.03D-08 Max=2.34D-06 NDo=     1
 LinEq1:  Iter= 12 NonCon=     1 RMS=1.16D-08 Max=7.89D-07 NDo=     1
 LinEq1:  Iter= 13 NonCon=     1 RMS=4.87D-09 Max=3.04D-07 NDo=     1
 LinEq1:  Iter= 14 NonCon=     1 RMS=2.80D-09 Max=2.52D-07 NDo=     1
 LinEq1:  Iter= 15 NonCon=     1 RMS=1.57D-09 Max=1.77D-07 NDo=     1
 LinEq1:  Iter= 16 NonCon=     0 RMS=5.46D-10 Max=5.95D-08 NDo=     1
 Linear equations converged to 1.291D-08 1.291D-07 after    16 iterations.
 Angle between quadratic step and gradient= 148.76 degrees.
 Incorrect curvature in search direction -- initial direction reversed.
     ILin= 1 X=0.000D+00 Y=-1.798029984353D+03 DE= 0.00D+00 F= -1.75D-04
     ILin= 2 X=1.000D+00 Y=-1.798030242274D+03 DE=-2.58D-04 F= -3.35D-04
     ILin= 3 X=1.700D+00 Y=-1.798030507688D+03 DE=-5.23D-04 F= -4.18D-04
     ILin= 4 X=2.800D+00 Y=-1.798031005794D+03 DE=-1.02D-03 F= -4.68D-04
     ILin= 5 X=4.600D+00 Y=-1.798031704322D+03 DE=-1.72D-03 F= -2.28D-04
     ILin= 6 X=7.700D+00 Y=-1.798030053953D+03 DE=-6.96D-05 F=  1.67D-03
     An  expanding polynomial of degree  6 produced  5.2738
 Iteration   2 EE= -1798.03178586028     Delta-E=       -0.001801507249 Grad=1.833D-02 Max rot=    0.1494 deg.
 Gradient too large for Newton-Raphson -- use scaled steepest descent instead.
     ILin= 1 X=0.000D+00 Y=-1.798031785860D+03 DE= 0.00D+00 F= -4.65D-04
     ILin= 2 X=3.000D-01 Y=-1.798031899749D+03 DE=-1.14D-04 F= -2.94D-04
     ILin= 3 X=6.000D-01 Y=-1.798031962267D+03 DE=-1.76D-04 F= -1.23D-04
     ILin= 4 X=1.200D+00 Y=-1.798031933184D+03 DE=-1.47D-04 F=  2.20D-04
     An  expanding polynomial of degree  4 produced  0.8151
 Iteration   3 EE= -1798.03197547136     Delta-E=       -0.000189611072 Grad=6.029D-03 Max rot=    0.0973 deg.
 QCNR:  CnvC1=6.03D-08 CnvC2=6.03D-07
 LinEq1:  Iter=  0 NonCon=     1 RMS=3.00D-05 Max=8.09D-03 NDo=     1
 LinEq1:  Iter=  1 NonCon=     1 RMS=1.57D-05 Max=3.09D-03 NDo=     1
 LinEq1:  Iter=  2 NonCon=     1 RMS=1.28D-05 Max=3.21D-03 NDo=     1
 LinEq1:  Iter=  3 NonCon=     1 RMS=7.05D-06 Max=1.65D-03 NDo=     1
 LinEq1:  Iter=  4 NonCon=     1 RMS=3.43D-06 Max=6.68D-04 NDo=     1
 LinEq1:  Iter=  5 NonCon=     1 RMS=1.76D-06 Max=1.84D-04 NDo=     1
 LinEq1:  Iter=  6 NonCon=     1 RMS=9.70D-07 Max=1.20D-04 NDo=     1
 LinEq1:  Iter=  7 NonCon=     1 RMS=6.65D-07 Max=7.85D-05 NDo=     1
 LinEq1:  Iter=  8 NonCon=     1 RMS=4.55D-07 Max=5.88D-05 NDo=     1
 LinEq1:  Iter=  9 NonCon=     1 RMS=2.27D-07 Max=3.19D-05 NDo=     1
 LinEq1:  Iter= 10 NonCon=     1 RMS=1.32D-07 Max=1.59D-05 NDo=     1
 LinEq1:  Iter= 11 NonCon=     1 RMS=6.74D-08 Max=1.40D-05 NDo=     1
 LinEq1:  Iter= 12 NonCon=     1 RMS=3.44D-08 Max=3.42D-06 NDo=     1
 LinEq1:  Iter= 13 NonCon=     1 RMS=1.86D-08 Max=2.21D-06 NDo=     1
 LinEq1:  Iter= 14 NonCon=     1 RMS=6.96D-09 Max=7.38D-07 NDo=     1
 LinEq1:  Iter= 15 NonCon=     0 RMS=4.07D-09 Max=3.06D-07 NDo=     1
 Linear equations converged to 6.029D-08 6.029D-07 after    15 iterations.
 Angle between quadratic step and gradient=  63.15 degrees.
     ILin= 1 X=0.000D+00 Y=-1.798031975471D+03 DE= 0.00D+00 F= -5.54D-04
     ILin= 2 X=1.000D+00 Y=-1.798032231618D+03 DE=-2.56D-04
 Iteration   4 EE= -1798.03223161753     Delta-E=       -0.000256146174 Grad=1.326D-03 Max rot=    0.0102 deg.
 QCNR:  CnvC1=1.33D-08 CnvC2=1.33D-07
 LinEq1:  Iter=  0 NonCon=     1 RMS=4.82D-06 Max=1.33D-03 NDo=     1
 LinEq1:  Iter=  1 NonCon=     1 RMS=5.88D-06 Max=1.78D-03 NDo=     1
 LinEq1:  Iter=  2 NonCon=     1 RMS=1.88D-06 Max=2.16D-04 NDo=     1
 LinEq1:  Iter=  3 NonCon=     1 RMS=1.27D-06 Max=2.18D-04 NDo=     1
 LinEq1:  Iter=  4 NonCon=     1 RMS=4.72D-07 Max=7.33D-05 NDo=     1
 LinEq1:  Iter=  5 NonCon=     1 RMS=3.24D-07 Max=4.57D-05 NDo=     1
 LinEq1:  Iter=  6 NonCon=     1 RMS=1.65D-07 Max=1.85D-05 NDo=     1
 LinEq1:  Iter=  7 NonCon=     1 RMS=1.17D-07 Max=1.43D-05 NDo=     1
 LinEq1:  Iter=  8 NonCon=     1 RMS=6.08D-08 Max=7.81D-06 NDo=     1
 LinEq1:  Iter=  9 NonCon=     1 RMS=3.67D-08 Max=4.27D-06 NDo=     1
 LinEq1:  Iter= 10 NonCon=     1 RMS=2.06D-08 Max=3.39D-06 NDo=     1
 LinEq1:  Iter= 11 NonCon=     1 RMS=9.39D-09 Max=1.21D-06 NDo=     1
 LinEq1:  Iter= 12 NonCon=     1 RMS=5.82D-09 Max=8.07D-07 NDo=     1
 LinEq1:  Iter= 13 NonCon=     1 RMS=2.45D-09 Max=1.85D-07 NDo=     1
 LinEq1:  Iter= 14 NonCon=     1 RMS=1.65D-09 Max=1.37D-07 NDo=     1
 LinEq1:  Iter= 15 NonCon=     0 RMS=7.57D-10 Max=6.97D-08 NDo=     1
 Linear equations converged to 1.326D-08 1.326D-07 after    15 iterations.
 Angle between quadratic step and gradient=  69.16 degrees.
     ILin= 1 X=0.000D+00 Y=-1.798032231618D+03 DE= 0.00D+00 F= -1.22D-05
     ILin= 2 X=1.000D+00 Y=-1.798032237869D+03 DE=-6.25D-06
 Iteration   5 EE= -1798.03223786918     Delta-E=       -0.000006251647 Grad=3.580D-05 Max rot=    0.0005 deg.
 Rotation gradient small -- convergence achieved.
 SCF Done:  E(ULC-wHPBE) =  -1798.03223787     a.u. after    5 cycles
            Convg  =    0.3580D-04                    59 Fock formations.
              S**2 =  0.8038                  -V/T =  2.0054
 <Sx>= 0.0000 <Sy>= 0.0000 <Sz>= 0.5000 <S**2>= 0.8038 S= 0.5266
 <L.S>= 0.000000000000E+00
 Annihilation of the first spin contaminant:
 S**2 before annihilation     0.8038,   after     0.7527
 Leave Link  508 at Mon Jan 18 06:59:47 2021, MaxMem=  4026531840 cpu:           36254.5 elap:            4597.0
 (Enter /opt/ohpc/pub/libs/gaussian/g16-A.03/sandybridge/g16/l601.exe)
 Copying SCF densities to generalized density rwf, IOpCl= 1 IROHF=0.

 **********************************************************************

            Population analysis using the SCF density.

 **********************************************************************

 Orbital symmetries:
 Alpha Orbitals:
       Occupied  (A) (A) (A) (A) (A) (A) (A) (A) (A) (A) (A) (A)
                 (A) (A) (A) (A) (A) (A) (A) (A) (A) (A) (A) (A)
                 (A) (A) (A) (A) (A) (A) (A) (A) (A) (A) (A) (A)
                 (A) (A) (A) (A) (A) (A) (A) (A) (A) (A) (A) (A)
                 (A) (A) (A) (A) (A) (A) (A) (A) (A) (A) (A) (A)
                 (A) (A) (A) (A) (A) (A) (A) (A) (A) (A) (A) (A)
                 (A) (A) (A) (A) (A) (A) (A) (A) (A) (A) (A) (A)
                 (A) (A) (A) (A) (A) (A) (A) (A) (A) (A) (A) (A)
                 (A) (A) (A) (A) (A) (A) (A) (A) (A) (A) (A) (A)
                 (A) (A) (A) (A) (A) (A) (A) (A) (A) (A) (A) (A)
                 (A) (A) (A) (A) (A) (A) (A) (A) (A) (A) (A) (A)
                 (A) (A) (A) (A) (A) (A) (A) (A) (A) (A) (A) (A)
                 (A)
       Virtual   (A) (A) (A) (A) (A) (A) (A) (A) (A) (A) (A) (A)
                 (A) (A) (A) (A) (A) (A) (A) (A) (A) (A) (A) (A)
                 (A) (A) (A) (A) (A) (A) (A) (A) (A) (A) (A) (A)
                 (A) (A) (A) (A) (A) (A) (A) (A) (A) (A) (A) (A)
                 (A) (A) (A) (A) (A) (A) (A) (A) (A) (A) (A) (A)
                 (A) (A) (A) (A) (A) (A) (A) (A) (A) (A) (A) (A)
                 (A) (A) (A) (A) (A) (A) (A) (A) (A) (A) (A) (A)
                 (A) (A) (A) (A) (A) (A) (A) (A) (A) (A) (A) (A)
                 (A) (A) (A) (A) (A) (A) (A) (A) (A) (A) (A) (A)
                 (A) (A) (A) (A) (A) (A) (A) (A) (A) (A) (A) (A)
                 (A) (A) (A) (A) (A) (A) (A) (A) (A) (A) (A) (A)
                 (A) (A) (A) (A) (A) (A) (A) (A) (A) (A) (A) (A)
                 (A) (A) (A) (A) (A) (A) (A) (A) (A) (A) (A) (A)
                 (A) (A) (A) (A) (A) (A) (A) (A) (A) (A) (A) (A)
                 (A) (A) (A) (A) (A) (A) (A) (A) (A) (A) (A) (A)
                 (A) (A) (A) (A) (A) (A) (A) (A) (A) (A) (A) (A)
                 (A) (A) (A) (A) (A) (A) (A) (A) (A) (A) (A) (A)
                 (A) (A) (A) (A) (A) (A) (A) (A) (A) (A) (A) (A)
                 (A) (A) (A) (A) (A) (A) (A) (A) (A) (A) (A) (A)
                 (A) (A) (A) (A) (A) (A) (A) (A) (A) (A) (A) (A)
                 (A) (A) (A) (A) (A) (A) (A) (A) (A) (A) (A) (A)
                 (A) (A) (A) (A) (A) (A) (A) (A) (A) (A) (A) (A)
                 (A) (A) (A) (A) (A) (A) (A) (A) (A) (A) (A) (A)
                 (A) (A) (A) (A) (A) (A) (A) (A) (A) (A) (A) (A)
                 (A) (A) (A) (A) (A) (A) (A) (A) (A) (A) (A) (A)
                 (A) (A) (A) (A) (A) (A) (A) (A) (A) (A) (A) (A)
                 (A) (A) (A) (A) (A) (A) (A) (A) (A) (A) (A) (A)
                 (A) (A) (A) (A) (A) (A) (A) (A) (A) (A) (A) (A)
                 (A) (A) (A) (A) (A) (A) (A) (A) (A) (A) (A) (A)
                 (A) (A) (A) (A) (A) (A) (A) (A) (A) (A) (A) (A)
                 (A) (A) (A) (A) (A) (A) (A) (A) (A) (A) (A) (A)
                 (A) (A) (A) (A) (A) (A) (A) (A) (A) (A) (A) (A)
                 (A) (A) (A) (A) (A) (A) (A) (A) (A) (A) (A) (A)
                 (A) (A) (A) (A) (A) (A) (A) (A) (A) (A) (A) (A)
                 (A) (A) (A) (A) (A) (A) (A) (A) (A) (A) (A) (A)
                 (A) (A) (A) (A) (A) (A) (A) (A) (A) (A) (A) (A)
                 (A) (A) (A) (A) (A) (A) (A) (A) (A) (A) (A) (A)
                 (A) (A) (A) (A) (A) (A) (A) (A) (A) (A) (A) (A)
                 (A) (A) (A) (A) (A) (A) (A) (A) (A) (A) (A) (A)
                 (A) (A) (A) (A) (A) (A) (A) (A) (A) (A) (A) (A)
                 (A) (A) (A) (A) (A) (A) (A) (A) (A) (A) (A) (A)
                 (A) (A) (A) (A) (A) (A) (A) (A) (A) (A) (A) (A)
                 (A) (A) (A) (A) (A) (A) (A) (A) (A) (A) (A) (A)
                 (A) (A) (A) (A) (A) (A) (A) (A) (A) (A) (A) (A)
                 (A) (A) (A) (A) (A) (A) (A) (A) (A) (A) (A) (A)
                 (A) (A) (A) (A) (A) (A) (A) (A) (A) (A) (A) (A)
                 (A) (A) (A) (A) (A) (A) (A) (A) (A) (A) (A) (A)
                 (A) (A) (A) (A) (A) (A) (A) (A) (A) (A) (A) (A)
                 (A) (A) (A) (A) (A) (A) (A) (A) (A) (A) (A) (A)
                 (A) (A) (A) (A) (A) (A) (A) (A) (A) (A) (A) (A)
                 (A) (A) (A) (A) (A) (A) (A) (A) (A) (A) (A) (A)
                 (A) (A) (A) (A) (A) (A) (A) (A) (A) (A) (A) (A)
                 (A) (A) (A) (A) (A) (A) (A) (A) (A) (A) (A) (A)
                 (A) (A) (A) (A) (A) (A) (A) (A) (A) (A) (A) (A)
                 (A) (A) (A) (A) (A) (A) (A) (A) (A) (A) (A) (A)
                 (A) (A) (A) (A) (A) (A) (A) (A) (A) (A) (A) (A)
                 (A) (A) (A) (A) (A) (A) (A) (A) (A) (A) (A) (A)
                 (A) (A) (A) (A) (A) (A) (A) (A) (A) (A) (A) (A)
                 (A) (A) (A) (A) (A) (A) (A) (A) (A) (A) (A) (A)
                 (A) (A) (A) (A) (A) (A) (A) (A) (A) (A) (A) (A)
                 (A) (A) (A) (A) (A) (A) (A) (A) (A) (A) (A) (A)
                 (A) (A) (A) (A) (A) (A) (A) (A) (A) (A) (A) (A)
                 (A) (A) (A) (A) (A) (A) (A) (A) (A) (A) (A) (A)
                 (A) (A) (A) (A) (A) (A) (A) (A) (A) (A) (A) (A)
                 (A) (A) (A) (A) (A) (A) (A) (A) (A) (A) (A) (A)
                 (A) (A) (A) (A) (A) (A) (A) (A) (A) (A) (A) (A)
                 (A) (A) (A) (A) (A) (A) (A) (A) (A) (A) (A) (A)
                 (A) (A) (A) (A) (A) (A) (A) (A) (A) (A) (A) (A)
                 (A) (A) (A) (A) (A)
 Beta  Orbitals:
       Occupied  (A) (A) (A) (A) (A) (A) (A) (A) (A) (A) (A) (A)
                 (A) (A) (A) (A) (A) (A) (A) (A) (A) (A) (A) (A)
                 (A) (A) (A) (A) (A) (A) (A) (A) (A) (A) (A) (A)
                 (A) (A) (A) (A) (A) (A) (A) (A) (A) (A) (A) (A)
                 (A) (A) (A) (A) (A) (A) (A) (A) (A) (A) (A) (A)
                 (A) (A) (A) (A) (A) (A) (A) (A) (A) (A) (A) (A)
                 (A) (A) (A) (A) (A) (A) (A) (A) (A) (A) (A) (A)
                 (A) (A) (A) (A) (A) (A) (A) (A) (A) (A) (A) (A)
                 (A) (A) (A) (A) (A) (A) (A) (A) (A) (A) (A) (A)
                 (A) (A) (A) (A) (A) (A) (A) (A) (A) (A) (A) (A)
                 (A) (A) (A) (A) (A) (A) (A) (A) (A) (A) (A) (A)
                 (A) (A) (A) (A) (A) (A) (A) (A) (A) (A) (A) (A)
       Virtual   (A) (A) (A) (A) (A) (A) (A) (A) (A) (A) (A) (A)
                 (A) (A) (A) (A) (A) (A) (A) (A) (A) (A) (A) (A)
                 (A) (A) (A) (A) (A) (A) (A) (A) (A) (A) (A) (A)
                 (A) (A) (A) (A) (A) (A) (A) (A) (A) (A) (A) (A)
                 (A) (A) (A) (A) (A) (A) (A) (A) (A) (A) (A) (A)
                 (A) (A) (A) (A) (A) (A) (A) (A) (A) (A) (A) (A)
                 (A) (A) (A) (A) (A) (A) (A) (A) (A) (A) (A) (A)
                 (A) (A) (A) (A) (A) (A) (A) (A) (A) (A) (A) (A)
                 (A) (A) (A) (A) (A) (A) (A) (A) (A) (A) (A) (A)
                 (A) (A) (A) (A) (A) (A) (A) (A) (A) (A) (A) (A)
                 (A) (A) (A) (A) (A) (A) (A) (A) (A) (A) (A) (A)
                 (A) (A) (A) (A) (A) (A) (A) (A) (A) (A) (A) (A)
                 (A) (A) (A) (A) (A) (A) (A) (A) (A) (A) (A) (A)
                 (A) (A) (A) (A) (A) (A) (A) (A) (A) (A) (A) (A)
                 (A) (A) (A) (A) (A) (A) (A) (A) (A) (A) (A) (A)
                 (A) (A) (A) (A) (A) (A) (A) (A) (A) (A) (A) (A)
                 (A) (A) (A) (A) (A) (A) (A) (A) (A) (A) (A) (A)
                 (A) (A) (A) (A) (A) (A) (A) (A) (A) (A) (A) (A)
                 (A) (A) (A) (A) (A) (A) (A) (A) (A) (A) (A) (A)
                 (A) (A) (A) (A) (A) (A) (A) (A) (A) (A) (A) (A)
                 (A) (A) (A) (A) (A) (A) (A) (A) (A) (A) (A) (A)
                 (A) (A) (A) (A) (A) (A) (A) (A) (A) (A) (A) (A)
                 (A) (A) (A) (A) (A) (A) (A) (A) (A) (A) (A) (A)
                 (A) (A) (A) (A) (A) (A) (A) (A) (A) (A) (A) (A)
                 (A) (A) (A) (A) (A) (A) (A) (A) (A) (A) (A) (A)
                 (A) (A) (A) (A) (A) (A) (A) (A) (A) (A) (A) (A)
                 (A) (A) (A) (A) (A) (A) (A) (A) (A) (A) (A) (A)
                 (A) (A) (A) (A) (A) (A) (A) (A) (A) (A) (A) (A)
                 (A) (A) (A) (A) (A) (A) (A) (A) (A) (A) (A) (A)
                 (A) (A) (A) (A) (A) (A) (A) (A) (A) (A) (A) (A)
                 (A) (A) (A) (A) (A) (A) (A) (A) (A) (A) (A) (A)
                 (A) (A) (A) (A) (A) (A) (A) (A) (A) (A) (A) (A)
                 (A) (A) (A) (A) (A) (A) (A) (A) (A) (A) (A) (A)
                 (A) (A) (A) (A) (A) (A) (A) (A) (A) (A) (A) (A)
                 (A) (A) (A) (A) (A) (A) (A) (A) (A) (A) (A) (A)
                 (A) (A) (A) (A) (A) (A) (A) (A) (A) (A) (A) (A)
                 (A) (A) (A) (A) (A) (A) (A) (A) (A) (A) (A) (A)
                 (A) (A) (A) (A) (A) (A) (A) (A) (A) (A) (A) (A)
                 (A) (A) (A) (A) (A) (A) (A) (A) (A) (A) (A) (A)
                 (A) (A) (A) (A) (A) (A) (A) (A) (A) (A) (A) (A)
                 (A) (A) (A) (A) (A) (A) (A) (A) (A) (A) (A) (A)
                 (A) (A) (A) (A) (A) (A) (A) (A) (A) (A) (A) (A)
                 (A) (A) (A) (A) (A) (A) (A) (A) (A) (A) (A) (A)
                 (A) (A) (A) (A) (A) (A) (A) (A) (A) (A) (A) (A)
                 (A) (A) (A) (A) (A) (A) (A) (A) (A) (A) (A) (A)
                 (A) (A) (A) (A) (A) (A) (A) (A) (A) (A) (A) (A)
                 (A) (A) (A) (A) (A) (A) (A) (A) (A) (A) (A) (A)
                 (A) (A) (A) (A) (A) (A) (A) (A) (A) (A) (A) (A)
                 (A) (A) (A) (A) (A) (A) (A) (A) (A) (A) (A) (A)
                 (A) (A) (A) (A) (A) (A) (A) (A) (A) (A) (A) (A)
                 (A) (A) (A) (A) (A) (A) (A) (A) (A) (A) (A) (A)
                 (A) (A) (A) (A) (A) (A) (A) (A) (A) (A) (A) (A)
                 (A) (A) (A) (A) (A) (A) (A) (A) (A) (A) (A) (A)
                 (A) (A) (A) (A) (A) (A) (A) (A) (A) (A) (A) (A)
                 (A) (A) (A) (A) (A) (A) (A) (A) (A) (A) (A) (A)
                 (A) (A) (A) (A) (A) (A) (A) (A) (A) (A) (A) (A)
                 (A) (A) (A) (A) (A) (A) (A) (A) (A) (A) (A) (A)
                 (A) (A) (A) (A) (A) (A) (A) (A) (A) (A) (A) (A)
                 (A) (A) (A) (A) (A) (A) (A) (A) (A) (A) (A) (A)
                 (A) (A) (A) (A) (A) (A) (A) (A) (A) (A) (A) (A)
                 (A) (A) (A) (A) (A) (A) (A) (A) (A) (A) (A) (A)
                 (A) (A) (A) (A) (A) (A) (A) (A) (A) (A) (A) (A)
                 (A) (A) (A) (A) (A) (A) (A) (A) (A) (A) (A) (A)
                 (A) (A) (A) (A) (A) (A) (A) (A) (A) (A) (A) (A)
                 (A) (A) (A) (A) (A) (A) (A) (A) (A) (A) (A) (A)
                 (A) (A) (A) (A) (A) (A) (A) (A) (A) (A) (A) (A)
                 (A) (A) (A) (A) (A) (A) (A) (A) (A) (A) (A) (A)
                 (A) (A) (A) (A) (A) (A) (A) (A) (A) (A) (A) (A)
                 (A) (A) (A) (A) (A) (A)
 The electronic state is 2-A.
 Alpha  occ. eigenvalues --  -19.07467 -19.07421 -19.01765 -19.01760 -14.39293
 Alpha  occ. eigenvalues --  -14.27454 -10.26284 -10.26241 -10.25241 -10.24511
 Alpha  occ. eigenvalues --  -10.24486 -10.21174 -10.21093 -10.21054 -10.20837
 Alpha  occ. eigenvalues --  -10.20835 -10.20592 -10.20585 -10.20305 -10.19872
 Alpha  occ. eigenvalues --  -10.19829 -10.19652 -10.19650 -10.19275 -10.19272
 Alpha  occ. eigenvalues --  -10.19196 -10.19145 -10.17504 -10.17498 -10.17225
 Alpha  occ. eigenvalues --  -10.16548 -10.16533 -10.15317 -10.15307 -10.14156
 Alpha  occ. eigenvalues --  -10.14152 -10.14145 -10.14144 -10.13899 -10.13893
 Alpha  occ. eigenvalues --  -10.13351 -10.13350  -1.27238  -1.27191  -1.23916
 Alpha  occ. eigenvalues --   -1.21608  -1.21604  -1.15031  -1.10816  -1.10439
 Alpha  occ. eigenvalues --   -1.08604  -1.06016  -1.03788  -1.02541  -1.00844
 Alpha  occ. eigenvalues --   -1.00291  -0.99161  -0.99060  -0.98357  -0.96335
 Alpha  occ. eigenvalues --   -0.94981  -0.93877  -0.93167  -0.92800  -0.92561
 Alpha  occ. eigenvalues --   -0.89238  -0.87781  -0.87206  -0.85990  -0.85105
 Alpha  occ. eigenvalues --   -0.84313  -0.82164  -0.81345  -0.80905  -0.80088
 Alpha  occ. eigenvalues --   -0.78987  -0.78838  -0.78413  -0.78165  -0.77291
 Alpha  occ. eigenvalues --   -0.76337  -0.75701  -0.73457  -0.72704  -0.72245
 Alpha  occ. eigenvalues --   -0.71707  -0.71294  -0.70319  -0.70054  -0.68969
 Alpha  occ. eigenvalues --   -0.67358  -0.67310  -0.66887  -0.65910  -0.65719
 Alpha  occ. eigenvalues --   -0.65467  -0.65301  -0.64985  -0.64642  -0.64481
 Alpha  occ. eigenvalues --   -0.64290  -0.64078  -0.63512  -0.62912  -0.62231
 Alpha  occ. eigenvalues --   -0.61653  -0.61444  -0.61210  -0.60785  -0.60509
 Alpha  occ. eigenvalues --   -0.59753  -0.59444  -0.59310  -0.59125  -0.58714
 Alpha  occ. eigenvalues --   -0.58560  -0.58256  -0.58063  -0.57779  -0.56736
 Alpha  occ. eigenvalues --   -0.56697  -0.56239  -0.56128  -0.55377  -0.54703
 Alpha  occ. eigenvalues --   -0.54265  -0.53662  -0.52560  -0.52286  -0.51729
 Alpha  occ. eigenvalues --   -0.50377  -0.50282  -0.49237  -0.48833  -0.47856
 Alpha  occ. eigenvalues --   -0.47584  -0.46138  -0.45192  -0.44036  -0.42284
 Alpha  occ. eigenvalues --   -0.42234  -0.41561  -0.40149  -0.39051  -0.33353
 Alpha virt. eigenvalues --   -0.08215  -0.07789  -0.06518  -0.05515  -0.05195
 Alpha virt. eigenvalues --   -0.03345  -0.02975  -0.00666  -0.00326  -0.00051
 Alpha virt. eigenvalues --    0.00534   0.01493   0.01779   0.02162   0.03448
 Alpha virt. eigenvalues --    0.03849   0.03952   0.05113   0.05180   0.05827
 Alpha virt. eigenvalues --    0.05885   0.05945   0.06110   0.06869   0.07440
 Alpha virt. eigenvalues --    0.07537   0.08332   0.08775   0.09377   0.09648
 Alpha virt. eigenvalues --    0.09696   0.09986   0.10122   0.10359   0.10764
 Alpha virt. eigenvalues --    0.10838   0.11046   0.11666   0.11820   0.12477
 Alpha virt. eigenvalues --    0.13466   0.13547   0.13724   0.14134   0.14239
 Alpha virt. eigenvalues --    0.14582   0.15090   0.15239   0.15442   0.15871
 Alpha virt. eigenvalues --    0.16149   0.16743   0.17194   0.17368   0.17773
 Alpha virt. eigenvalues --    0.18061   0.18394   0.18636   0.18720   0.18822
 Alpha virt. eigenvalues --    0.19244   0.19557   0.19853   0.20098   0.20275
 Alpha virt. eigenvalues --    0.20655   0.20746   0.21071   0.21681   0.21812
 Alpha virt. eigenvalues --    0.21851   0.22238   0.22607   0.22906   0.23116
 Alpha virt. eigenvalues --    0.23286   0.23413   0.23612   0.24096   0.24224
 Alpha virt. eigenvalues --    0.24504   0.24693   0.24986   0.25347   0.25538
 Alpha virt. eigenvalues --    0.25819   0.25879   0.26185   0.26432   0.26752
 Alpha virt. eigenvalues --    0.26832   0.27200   0.27253   0.27733   0.27775
 Alpha virt. eigenvalues --    0.28012   0.28126   0.28729   0.29055   0.29210
 Alpha virt. eigenvalues --    0.29817   0.29905   0.30561   0.30703   0.30795
 Alpha virt. eigenvalues --    0.30939   0.31281   0.31388   0.31523   0.31729
 Alpha virt. eigenvalues --    0.32092   0.32541   0.32879   0.33007   0.33457
 Alpha virt. eigenvalues --    0.33643   0.33749   0.34024   0.34427   0.34763
[...]
              Bcc     0.0133     1.789     0.638     0.597  0.0003  0.8456 -0.5339
 
              Baa    -0.0233    -3.127    -1.116    -1.043 -0.5286  0.7915 -0.3069
     6 C(13)  Bbb    -0.0217    -2.907    -1.037    -0.970  0.8389  0.4319 -0.3312
              Bcc     0.0450     6.034     2.153     2.013  0.1296  0.4325  0.8923
 
              Baa    -0.0016    -0.859    -0.307    -0.287  0.6813 -0.0390  0.7309
     7 H(1)   Bbb    -0.0013    -0.701    -0.250    -0.234  0.6973 -0.2694 -0.6643
              Bcc     0.0029     1.560     0.557     0.520  0.2228  0.9622 -0.1564
 
              Baa    -0.0012    -0.621    -0.222    -0.207 -0.0559  0.3118  0.9485
     8 H(1)   Bbb    -0.0005    -0.258    -0.092    -0.086  0.5992  0.7704 -0.2179
              Bcc     0.0016     0.880     0.314     0.293  0.7987 -0.5561  0.2299
 
              Baa    -0.0016    -0.851    -0.304    -0.284 -0.6657 -0.0320  0.7455
     9 H(1)   Bbb    -0.0013    -0.707    -0.252    -0.236  0.7124  0.2701  0.6477
              Bcc     0.0029     1.558     0.556     0.520 -0.2221  0.9623 -0.1570
 
              Baa    -0.1006   -13.498    -4.816    -4.502  0.0010  0.9679  0.2514
    10 C(13)  Bbb    -0.0940   -12.618    -4.502    -4.209  1.0000 -0.0015  0.0018
              Bcc     0.1946    26.116     9.319     8.711 -0.0021 -0.2514  0.9679
 
              Baa    -0.0763   -10.243    -3.655    -3.417  0.0160 -0.3152  0.9489
    11 C(13)  Bbb     0.0360     4.829     1.723     1.611  0.2928  0.9089  0.2970
              Bcc     0.0403     5.414     1.932     1.806  0.9560 -0.2731 -0.1069
 
              Baa    -0.0776   -10.408    -3.714    -3.472 -0.0165 -0.3177  0.9481
    12 C(13)  Bbb     0.0366     4.906     1.750     1.636 -0.2994  0.9063  0.2984
              Bcc     0.0410     5.502     1.963     1.835  0.9540  0.2789  0.1101
 
              Baa    -0.0747   -10.021    -3.576    -3.343  0.9076 -0.3816 -0.1750
    13 C(13)  Bbb    -0.0674    -9.048    -3.229    -3.018  0.4170  0.7718  0.4800
              Bcc     0.1421    19.069     6.804     6.361 -0.0481 -0.5086  0.8596
 
              Baa    -0.0751   -10.072    -3.594    -3.360  0.9043  0.3863  0.1816
    14 C(13)  Bbb    -0.0680    -9.118    -3.254    -3.042 -0.4246  0.7709  0.4748
              Bcc     0.1430    19.190     6.848     6.401  0.0434 -0.5064  0.8612
 
              Baa    -0.0331    -4.447    -1.587    -1.483 -0.0319 -0.6384  0.7690
    15 C(13)  Bbb     0.0140     1.881     0.671     0.627 -0.1878  0.7595  0.6228
              Bcc     0.0191     2.566     0.916     0.856  0.9817  0.1245  0.1441
 
              Baa    -0.0029    -1.539    -0.549    -0.513  0.0211 -0.3739  0.9272
    16 H(1)   Bbb    -0.0016    -0.851    -0.304    -0.284  0.5472  0.7805  0.3023
              Bcc     0.0045     2.390     0.853     0.797  0.8368 -0.5010 -0.2211
 
              Baa    -0.0029    -1.538    -0.549    -0.513 -0.0185 -0.3778  0.9257
    17 H(1)   Bbb    -0.0017    -0.885    -0.316    -0.295 -0.5436  0.7809  0.3078
              Bcc     0.0045     2.423     0.865     0.808  0.8391  0.4975  0.2198
 
              Baa    -0.0061    -3.254    -1.161    -1.086  0.9292  0.1347  0.3441
    18 H(1)   Bbb    -0.0035    -1.887    -0.673    -0.629 -0.2601 -0.4230  0.8680
              Bcc     0.0096     5.141     1.834     1.715 -0.2625  0.8961  0.3580
 
              Baa    -0.0061    -3.252    -1.160    -1.085  0.9372 -0.1406 -0.3193
    19 H(1)   Bbb    -0.0035    -1.886    -0.673    -0.629  0.2360 -0.4187  0.8769
              Bcc     0.0096     5.138     1.834     1.714  0.2570  0.8972  0.3592
 
              Baa    -0.0012    -0.622    -0.222    -0.207  0.0529  0.3105  0.9491
    20 H(1)   Bbb    -0.0005    -0.257    -0.092    -0.086 -0.5995  0.7700 -0.2184
              Bcc     0.0016     0.878     0.313     0.293  0.7986  0.5574 -0.2269
 
              Baa    -0.5227   -20.160    -7.194    -6.725  0.8967  0.4259 -0.1206
    21 N(14)  Bbb    -0.5226   -20.154    -7.192    -6.723 -0.4426  0.8653 -0.2351
              Bcc     1.0453    40.315    14.385    13.448  0.0042  0.2641  0.9645
 
              Baa    -0.0424    -5.695    -2.032    -1.900  0.6740 -0.5898 -0.4449
    22 C(13)  Bbb     0.0164     2.200     0.785     0.734  0.5731  0.0373  0.8187
              Bcc     0.0260     3.495     1.247     1.166  0.4662  0.8067 -0.3631
 
              Baa    -0.0545    -7.307    -2.607    -2.437  0.0359  0.7174 -0.6957
    23 C(13)  Bbb    -0.0465    -6.240    -2.227    -2.082  0.6280  0.5254  0.5741
              Bcc     0.1010    13.547     4.834     4.519  0.7774 -0.4575 -0.4317
 
              Baa    -0.0606    -8.132    -2.902    -2.713  0.7423  0.5905  0.3167
    24 C(13)  Bbb    -0.0530    -7.109    -2.537    -2.371  0.0118 -0.4841  0.8749
              Bcc     0.1136    15.241     5.438     5.084  0.6700 -0.6457 -0.3663
 
              Baa    -0.0552    -7.410    -2.644    -2.472 -0.5430  0.5911  0.5965
    25 C(13)  Bbb     0.0253     3.391     1.210     1.131  0.6361 -0.1741  0.7517
              Bcc     0.0300     4.019     1.434     1.341  0.5481  0.7876 -0.2815
 
              Baa    -0.0561    -7.526    -2.685    -2.510 -0.6131  0.4832  0.6250
    26 C(13)  Bbb     0.0254     3.410     1.217     1.137  0.5993 -0.2310  0.7665
              Bcc     0.0307     4.116     1.469     1.373  0.5147  0.8445 -0.1480
 
              Baa    -0.0651    -8.734    -3.117    -2.913  0.6340 -0.2199  0.7414
    27 C(13)  Bbb    -0.0596    -8.003    -2.856    -2.669  0.5337  0.8182 -0.2138
              Bcc     0.1247    16.737     5.972     5.583 -0.5596  0.5312  0.6361
 
              Baa    -0.0039    -2.106    -0.752    -0.703 -0.1304  0.8856  0.4458
    28 H(1)   Bbb    -0.0028    -1.477    -0.527    -0.493  0.8102  0.3544 -0.4670
              Bcc     0.0067     3.583     1.279     1.195  0.5715 -0.3003  0.7637
 
              Baa    -0.0038    -2.035    -0.726    -0.679 -0.6876 -0.1086  0.7179
    29 H(1)   Bbb    -0.0032    -1.688    -0.602    -0.563 -0.0905  0.9939  0.0637
              Bcc     0.0070     3.723     1.329     1.242  0.7204  0.0212  0.6932
 
              Baa    -0.0023    -1.203    -0.429    -0.401  0.7062 -0.5182 -0.4825
    30 H(1)   Bbb    -0.0008    -0.441    -0.157    -0.147  0.6972  0.3901  0.6015
              Bcc     0.0031     1.643     0.586     0.548  0.1235  0.7612 -0.6367
 
              Baa    -0.0023    -1.252    -0.447    -0.417  0.6629 -0.5994 -0.4487
    31 H(1)   Bbb    -0.0009    -0.466    -0.166    -0.156  0.2021 -0.4337  0.8781
              Bcc     0.0032     1.718     0.613     0.573  0.7209  0.6727  0.1664
 
              Baa    -0.0425    -5.704    -2.035    -1.903  0.6923  0.5624  0.4520
    32 C(13)  Bbb     0.0167     2.241     0.800     0.747 -0.4891 -0.0947  0.8671
              Bcc     0.0258     3.463     1.236     1.155 -0.5305  0.8214 -0.2095
 
              Baa    -0.0598    -8.031    -2.866    -2.679 -0.0376  0.7240 -0.6887
    33 C(13)  Bbb    -0.0520    -6.984    -2.492    -2.330  0.6364 -0.5140 -0.5751
              Bcc     0.1119    15.015     5.358     5.009  0.7704  0.4599  0.4415
 
              Baa    -0.0562    -7.539    -2.690    -2.515  0.7409 -0.5949 -0.3118
    34 C(13)  Bbb    -0.0486    -6.519    -2.326    -2.175 -0.0156 -0.4794  0.8775
              Bcc     0.1048    14.058     5.016     4.689  0.6715  0.6452  0.3644
 
              Baa    -0.0525    -7.043    -2.513    -2.349  0.5409  0.5890  0.6004
    35 C(13)  Bbb     0.0237     3.176     1.133     1.060 -0.6587 -0.1472  0.7379
              Bcc     0.0288     3.866     1.380     1.290 -0.5230  0.7946 -0.3083
 
              Baa    -0.0595    -7.991    -2.851    -2.665  0.6132  0.4810  0.6266
    36 C(13)  Bbb     0.0274     3.677     1.312     1.227 -0.6121 -0.2123  0.7618
              Bcc     0.0321     4.314     1.539     1.439 -0.4994  0.8506 -0.1642
 
              Baa    -0.0659    -8.838    -3.154    -2.948 -0.6668 -0.1705  0.7254
    37 C(13)  Bbb    -0.0604    -8.104    -2.892    -2.703 -0.4897  0.8341 -0.2541
              Bcc     0.1263    16.942     6.045     5.651  0.5617  0.5247  0.6397
 
              Baa    -0.0043    -2.292    -0.818    -0.765 -0.0318  0.9192  0.3926
    38 H(1)   Bbb    -0.0030    -1.586    -0.566    -0.529  0.8453 -0.1848  0.5013
              Bcc     0.0073     3.878     1.384     1.294 -0.5333 -0.3478  0.7711
 
              Baa    -0.0036    -1.946    -0.694    -0.649  0.6985  0.1638  0.6966
    39 H(1)   Bbb    -0.0029    -1.544    -0.551    -0.515 -0.1304  0.9863 -0.1011
              Bcc     0.0065     3.490     1.245     1.164 -0.7036 -0.0202  0.7103
 
              Baa    -0.0023    -1.239    -0.442    -0.413  0.6688  0.5410  0.5099
    40 H(1)   Bbb    -0.0006    -0.327    -0.117    -0.109  0.7249 -0.3226 -0.6086
              Bcc     0.0029     1.566     0.559     0.522 -0.1648  0.7767 -0.6080
 
              Baa    -0.0023    -1.243    -0.444    -0.415  0.6636  0.6346  0.3960
    41 H(1)   Bbb    -0.0011    -0.574    -0.205    -0.191 -0.1155 -0.4361  0.8924
              Bcc     0.0034     1.816     0.648     0.606  0.7391 -0.6380 -0.2161
 
              Baa    -0.0467    -1.802    -0.643    -0.601 -0.0010  0.9727  0.2321
    42 N(14)  Bbb    -0.0461    -1.778    -0.635    -0.593  1.0000  0.0005  0.0025
              Bcc     0.0928     3.581     1.278     1.194 -0.0023 -0.2321  0.9727
 
              Baa    -0.0080    -1.077    -0.384    -0.359 -0.5231  0.6142 -0.5909
    43 C(13)  Bbb     0.0027     0.357     0.128     0.119 -0.5635  0.2709  0.7804
              Bcc     0.0054     0.719     0.257     0.240  0.6394  0.7412  0.2044
 
              Baa    -0.0053    -0.712    -0.254    -0.238 -0.2008  0.5425  0.8157
    44 C(13)  Bbb    -0.0045    -0.600    -0.214    -0.200  0.6534  0.6946 -0.3010
              Bcc     0.0098     1.312     0.468     0.438  0.7299 -0.4725  0.4939
 
              Baa    -0.0050    -0.672    -0.240    -0.224  0.6737  0.5401 -0.5045
    45 C(13)  Bbb    -0.0045    -0.601    -0.215    -0.201  0.1302  0.5852  0.8004
              Bcc     0.0095     1.273     0.454     0.425  0.7275 -0.6049  0.3239
 
              Baa    -0.0048    -0.649    -0.232    -0.217  0.5624 -0.5759  0.5934
    46 C(13)  Bbb     0.0022     0.292     0.104     0.097 -0.5602  0.2625  0.7857
              Bcc     0.0027     0.358     0.128     0.119  0.6082  0.7742  0.1750
 
              Baa    -0.0061    -0.816    -0.291    -0.272  0.5965 -0.5326  0.6004
    47 C(13)  Bbb     0.0027     0.359     0.128     0.120 -0.5012  0.3371  0.7970
              Bcc     0.0034     0.456     0.163     0.152  0.6268  0.7764  0.0658
 
              Baa    -0.0053    -0.716    -0.255    -0.239 -0.5639  0.3075  0.7665
    48 C(13)  Bbb    -0.0047    -0.636    -0.227    -0.212  0.6063  0.7843  0.1313
              Bcc     0.0101     1.351     0.482     0.451  0.5608 -0.5388  0.6287
 
              Baa    -0.0004    -0.237    -0.084    -0.079 -0.1294  0.8848 -0.4477
    49 H(1)   Bbb    -0.0002    -0.108    -0.039    -0.036  0.6624  0.4131  0.6249
              Bcc     0.0006     0.345     0.123     0.115  0.7379 -0.2157 -0.6396
 
              Baa    -0.0006    -0.329    -0.117    -0.110 -0.4376  0.7697 -0.4648
    50 H(1)   Bbb     0.0001     0.065     0.023     0.022 -0.1049  0.4697  0.8766
              Bcc     0.0005     0.263     0.094     0.088  0.8930  0.4323 -0.1248
 
              Baa    -0.0002    -0.129    -0.046    -0.043  0.3706 -0.6143  0.6966
    51 H(1)   Bbb    -0.0000    -0.012    -0.004    -0.004  0.8058 -0.1604 -0.5701
              Bcc     0.0003     0.141     0.050     0.047  0.4620  0.7726  0.4355
 
              Baa    -0.0003    -0.153    -0.055    -0.051 -0.5841  0.7342  0.3459
    52 H(1)   Bbb    -0.0002    -0.130    -0.046    -0.043  0.1862 -0.2936  0.9376
              Bcc     0.0005     0.282     0.101     0.094  0.7900  0.6121  0.0348
 
              Baa    -0.0080    -1.080    -0.385    -0.360  0.5240  0.6140 -0.5903
    53 C(13)  Bbb     0.0027     0.359     0.128     0.120  0.5603  0.2735  0.7818
              Bcc     0.0054     0.721     0.257     0.240 -0.6415  0.7404  0.2007
 
              Baa    -0.0053    -0.714    -0.255    -0.238  0.1973  0.5439  0.8156
    54 C(13)  Bbb    -0.0045    -0.602    -0.215    -0.201 -0.6545  0.6925 -0.3035
              Bcc     0.0098     1.317     0.470     0.439  0.7299  0.4740 -0.4926
 
              Baa    -0.0050    -0.674    -0.240    -0.225  0.6731 -0.5379  0.5075
    55 C(13)  Bbb    -0.0045    -0.603    -0.215    -0.201 -0.1334  0.5866  0.7988
              Bcc     0.0095     1.277     0.456     0.426  0.7274  0.6054 -0.3231
 
              Baa    -0.0049    -0.651    -0.232    -0.217 -0.5632 -0.5761  0.5924
    56 C(13)  Bbb     0.0022     0.293     0.104     0.098  0.5583  0.2633  0.7868
              Bcc     0.0027     0.359     0.128     0.120 -0.6092  0.7738  0.1733
 
              Baa    -0.0061    -0.818    -0.292    -0.273 -0.5974 -0.5332  0.5990
    57 C(13)  Bbb     0.0027     0.360     0.129     0.120  0.4972  0.3397  0.7983
              Bcc     0.0034     0.458     0.163     0.153 -0.6292  0.7748  0.0622
 
              Baa    -0.0053    -0.718    -0.256    -0.239  0.5611  0.3092  0.7678
    58 C(13)  Bbb    -0.0048    -0.638    -0.228    -0.213 -0.6080  0.7834  0.1289
              Bcc     0.0101     1.356     0.484     0.452 -0.5616 -0.5391  0.6276
 
              Baa    -0.0004    -0.237    -0.085    -0.079  0.1260  0.8857 -0.4467
    59 H(1)   Bbb    -0.0002    -0.108    -0.039    -0.036  0.6674 -0.4089 -0.6224
              Bcc     0.0006     0.345     0.123     0.115  0.7339  0.2197  0.6427
 
              Baa    -0.0006    -0.329    -0.117    -0.110  0.4391  0.7698 -0.4632
    60 H(1)   Bbb     0.0001     0.065     0.023     0.022  0.0994  0.4707  0.8767
              Bcc     0.0005     0.264     0.094     0.088  0.8929 -0.4310  0.1302
 
              Baa    -0.0002    -0.129    -0.046    -0.043 -0.3710 -0.6141  0.6966
    61 H(1)   Bbb    -0.0000    -0.012    -0.004    -0.004  0.8047  0.1618  0.5712
              Bcc     0.0003     0.141     0.050     0.047 -0.4635  0.7725  0.4342
 
              Baa    -0.0003    -0.153    -0.055    -0.051  0.5806  0.7342  0.3519
    62 H(1)   Bbb    -0.0002    -0.130    -0.046    -0.043 -0.1920 -0.2965  0.9355
              Bcc     0.0005     0.283     0.101     0.094  0.7912 -0.6108 -0.0312
 
              Baa    -0.0053     0.386     0.138     0.129 -0.0848  0.7653  0.6380
    63 O(17)  Bbb    -0.0049     0.354     0.126     0.118  0.7966 -0.3326  0.5048
              Bcc     0.0102    -0.740    -0.264    -0.247  0.5986  0.5511 -0.5814
 
              Baa    -0.0003    -0.162    -0.058    -0.054  0.0694  0.8451  0.5301
    64 H(1)   Bbb    -0.0002    -0.114    -0.041    -0.038 -0.5403 -0.4148  0.7321
              Bcc     0.0005     0.276     0.099     0.092  0.8386 -0.3372  0.4278
 
              Baa    -0.0053     0.385     0.137     0.128  0.0806  0.7641  0.6401
    65 O(17)  Bbb    -0.0049     0.353     0.126     0.118  0.7969  0.3363 -0.5018
              Bcc     0.0102    -0.738    -0.263    -0.246  0.5987 -0.5505  0.5818
 
              Baa    -0.0003    -0.162    -0.058    -0.054 -0.0726  0.8437  0.5319
    66 H(1)   Bbb    -0.0002    -0.114    -0.041    -0.038  0.5395 -0.4154  0.7324
              Bcc     0.0005     0.276     0.098     0.092  0.8389  0.3401 -0.4250
 
              Baa    -0.0780     5.643     2.014     1.882  0.7378  0.6626  0.1293
    67 O(17)  Bbb    -0.0731     5.287     1.887     1.764  0.3222 -0.5139  0.7951
              Bcc     0.1511   -10.931    -3.900    -3.646  0.5932 -0.5449 -0.5926
 
              Baa    -0.0040    -2.158    -0.770    -0.720  0.7626  0.6185  0.1892
    68 H(1)   Bbb    -0.0025    -1.348    -0.481    -0.450 -0.5893  0.5439  0.5974
              Bcc     0.0066     3.506     1.251     1.170  0.2666 -0.5671  0.7793
 
              Baa    -0.0793     5.736     2.047     1.913 -0.1838  0.8172 -0.5463
    69 O(17)  Bbb    -0.0743     5.377     1.919     1.793  0.7786 -0.2182 -0.5884
              Bcc     0.1536   -11.113    -3.965    -3.707  0.6000  0.5335  0.5962
 
              Baa    -0.0041    -2.186    -0.780    -0.729 -0.1125  0.8004 -0.5888
    70 H(1)   Bbb    -0.0026    -1.375    -0.491    -0.459  0.5980  0.5278  0.6032
              Bcc     0.0067     3.560     1.270     1.188  0.7936 -0.2842 -0.5380
 

 ---------------------------------------------------------------------------------

 No NMR shielding tensors so no spin-rotation constants.
 Leave Link  601 at Mon Jan 18 06:59:49 2021, MaxMem=  4026531840 cpu:              10.3 elap:               1.4
 (Enter /opt/ohpc/pub/libs/gaussian/g16-A.03/sandybridge/g16/l9999.exe)

 Test job not archived.
 1\1\GINC-CASCADEB037\SP\ULC-wHPBE\TZVP\C36H28N2O4(1+,2)\RDU230\18-Jan-
 2021\0\\#P LC-wHPBE/TZVP iop(3/107=0328100000, 3/108=0328100000) scf=(
 conver=6,fermi,ndamp=35,noincfock,novaracc,vshift=500,xqc)\\H28 C36 N2
  O4\\1,2\C,0,2.858499,1.142103,-0.374244\C,0,3.579312,-0.001087,0.0033
 59\C,0,1.469111,1.138314,-0.362939\C,0,2.858875,-1.143435,0.384264\C,0
 ,0.739097,0.000512,0.009817\C,0,1.469477,-1.138129,0.379362\H,0,0.9371
 92,2.033473,-0.688815\H,0,3.397761,-2.037798,0.696269\H,0,0.938071,-2.
 032504,0.708142\C,0,-0.742883,0.001384,0.012974\C,0,-1.474511,-1.13085
 8,-0.372988\C,0,-1.47149,1.134716,0.402503\C,0,-2.8641,-1.134318,-0.37
 8218\C,0,-2.860735,1.140009,0.413286\C,0,-3.582937,0.003346,0.018716\H
 ,0,-0.94411,-2.02123,-0.714069\H,0,-0.938347,2.023708,0.742945\H,0,-3.
 404263,-2.023625,-0.702274\H,0,-3.398798,2.029064,0.741639\H,0,3.39702
 4,2.035914,-0.688457\N,0,-4.995311,0.005703,0.022721\C,0,-5.713915,1.1
 8551,-0.315496\C,0,-6.824749,1.586223,0.439679\C,0,-5.336499,1.964565,
 -1.414395\C,0,-7.543368,2.726588,0.103607\C,0,-6.037549,3.122582,-1.73
 9703\C,0,-7.148838,3.50571,-0.986012\H,0,-7.129554,0.987536,1.298124\H
 ,0,-4.477812,1.664402,-2.014832\H,0,-8.408278,3.036049,0.689802\H,0,-5
 .72457,3.720924,-2.59898\C,0,-5.717056,-1.178925,0.336296\C,0,-6.82180
 7,-1.565845,-0.429047\C,0,-5.346761,-1.975943,1.428789\C,0,-7.543924,-
 2.712298,-0.10728\C,0,-6.0478,-3.134194,1.738027\C,0,-7.155651,-3.5063
 91,0.973222\H,0,-7.124426,-0.956025,-1.280239\H,0,-4.491517,-1.682511,
 2.037555\H,0,-8.407549,-2.995534,-0.714075\H,0,-5.757368,-3.754511,2.5
 85554\N,0,4.991423,-0.001999,0.00006\C,0,5.710552,-1.183762,-0.330631\
 C,0,6.812654,-1.584277,0.431608\C,0,5.340603,-1.964026,-1.435102\C,0,7
 .532572,-2.727778,0.095183\C,0,6.039551,-3.119564,-1.759528\C,0,7.1446
 32,-3.505373,-0.997606\H,0,7.113605,-0.987752,1.292811\H,0,4.486562,-1
 .660323,-2.040543\H,0,8.393358,-3.022713,0.700462\H,0,5.749024,-3.7275
 28,-2.615933\C,0,5.713955,1.17869,0.326778\C,0,6.814458,1.575861,-0.43
 9552\C,0,5.349314,1.961286,1.431414\C,0,7.537888,2.718318,-0.107058\C,
 0,6.051756,3.115796,1.751909\C,0,7.155153,3.498257,0.985865\H,0,7.1115
 09,0.977436,-1.300789\H,0,4.49683,1.660119,2.040298\H,0,8.397429,3.010
 471,-0.715458\H,0,5.765438,3.72535,2.608604\O,0,7.820509,4.641023,1.35
 5507\H,0,8.555246,4.78867,0.739309\O,0,7.806379,-4.648952,-1.371018\H,
 0,8.541702,-4.800061,-0.75635\O,0,-7.887404,4.628973,-1.265636\H,0,-7.
 503413,5.071476,-2.03899\O,0,-7.819547,-4.653451,1.332021\H,0,-8.56035
 4,-4.790553,0.720672\\Version=EM64L-G16RevA.03\State=2-A\HF=-1798.0322
 379\S2=0.803808\S2-1=0.\S2A=0.752679\RMSD=7.347e-08\Dipole=-5.5953105,
 0.1704192,-0.8493015\Quadrupole=95.0405191,-34.0821008,-60.9584183,4.2
 264735,11.5605046,-13.6194284\PG=C01 [X(C36H28N2O4)]\\@


 REFRAIN FROM ILLUSIONS, INSIST ON WORK AND NOT WORDS,
 PATIENTLY SEEK DIVINE AND SCIENTIFIC TRUTH.
 LAST WORDS OF MARIA MENDELEEVA TO HER SON DMITRI, C. 1850
 Job cpu time:       0 days 16 hours 41 minutes  6.4 seconds.
 Elapsed time:       0 days  2 hours  6 minutes 48.8 seconds.
 File lengths (MBytes):  RWF=    496 Int=      0 D2E=      0 Chk=     72 Scr=      8
 Normal termination of Gaussian 16 at Mon Jan 18 06:59:49 2021.
