 Entering Gaussian System, Link 0=g16
 Input=mol_bp_ma_whol_tune_n2.gjf
 Output=mol_bp_ma_whol_tune_n2.log
 Initial command:
 /opt/ohpc/pub/libs/gaussian/g16-A.03/sandybridge/g16/l1.exe "/mnt/gpfs2_4m/scratch/rdu230/ondemand/projects/init_structures/wtuning/mol_bp_ma_whol/tuning_mol_bp_ma_whol_ocycle0/Gau-447080.inp" -scrdir="/mnt/gpfs2_4m/scratch/rdu230/ondemand/projects/init_structures/wtuning/mol_bp_ma_whol/tuning_mol_bp_ma_whol_ocycle0/"
 Entering Link 1 = /opt/ohpc/pub/libs/gaussian/g16-A.03/sandybridge/g16/l1.exe PID=    447081.
  
 Copyright (c) 1988,1990,1992,1993,1995,1998,2003,2009,2016,
            Gaussian, Inc.  All Rights Reserved.
  
 This is part of the Gaussian(R) 16 program.  It is based on
 the Gaussian(R) 09 system (copyright 2009, Gaussian, Inc.),
 the Gaussian(R) 03 system (copyright 2003, Gaussian, Inc.),
 the Gaussian(R) 98 system (copyright 1998, Gaussian, Inc.),
 the Gaussian(R) 94 system (copyright 1995, Gaussian, Inc.),
 the Gaussian 92(TM) system (copyright 1992, Gaussian, Inc.),
 the Gaussian 90(TM) system (copyright 1990, Gaussian, Inc.),
 the Gaussian 88(TM) system (copyright 1988, Gaussian, Inc.),
 the Gaussian 86(TM) system (copyright 1986, Carnegie Mellon
 University), and the Gaussian 82(TM) system (copyright 1983,
 Carnegie Mellon University). Gaussian is a federally registered
 trademark of Gaussian, Inc.
  
 This software contains proprietary and confidential information,
 including trade secrets, belonging to Gaussian, Inc.
  
 This software is provided under written license and may be
 used, copied, transmitted, or stored only in accord with that
 written license.
  
 The following legend is applicable only to US Government
 contracts under FAR:
  
                    RESTRICTED RIGHTS LEGEND
  
 Use, reproduction and disclosure by the US Government is
 subject to restrictions as set forth in subparagraphs (a)
 and (c) of the Commercial Computer Software - Restricted
 Rights clause in FAR 52.227-19.
  
 Gaussian, Inc.
 340 Quinnipiac St., Bldg. 40, Wallingford CT 06492
  
  
 ---------------------------------------------------------------
 Warning -- This program may not be used in any manner that
 competes with the business of Gaussian, Inc. or will provide
 assistance to any competitor of Gaussian, Inc.  The licensee
 of this program is prohibited from giving any competitor of
 Gaussian, Inc. access to this program.  By using this program,
 the user acknowledges that Gaussian, Inc. is engaged in the
 business of creating and licensing software in the field of
 computational chemistry and represents and warrants to the
 licensee that it is not a competitor of Gaussian, Inc. and that
 it will not use this program in any manner prohibited above.
 ---------------------------------------------------------------
  

 Cite this work as:
 Gaussian 16, Revision A.03,
 M. J. Frisch, G. W. Trucks, H. B. Schlegel, G. E. Scuseria, 
 M. A. Robb, J. R. Cheeseman, G. Scalmani, V. Barone, 
 G. A. Petersson, H. Nakatsuji, X. Li, M. Caricato, A. V. Marenich, 
 J. Bloino, B. G. Janesko, R. Gomperts, B. Mennucci, H. P. Hratchian, 
 J. V. Ortiz, A. F. Izmaylov, J. L. Sonnenberg, D. Williams-Young, 
 F. Ding, F. Lipparini, F. Egidi, J. Goings, B. Peng, A. Petrone, 
 T. Henderson, D. Ranasinghe, V. G. Zakrzewski, J. Gao, N. Rega, 
 G. Zheng, W. Liang, M. Hada, M. Ehara, K. Toyota, R. Fukuda, 
 J. Hasegawa, M. Ishida, T. Nakajima, Y. Honda, O. Kitao, H. Nakai, 
 T. Vreven, K. Throssell, J. A. Montgomery, Jr., J. E. Peralta, 
 F. Ogliaro, M. J. Bearpark, J. J. Heyd, E. N. Brothers, K. N. Kudin, 
 V. N. Staroverov, T. A. Keith, R. Kobayashi, J. Normand, 
 K. Raghavachari, A. P. Rendell, J. C. Burant, S. S. Iyengar, 
 J. Tomasi, M. Cossi, J. M. Millam, M. Klene, C. Adamo, R. Cammi, 
 J. W. Ochterski, R. L. Martin, K. Morokuma, O. Farkas, 
 J. B. Foresman, and D. J. Fox, Gaussian, Inc., Wallingford CT, 2016.
 
 ******************************************
 Gaussian 16:  EM64L-G16RevA.03 25-Dec-2016
                18-Jan-2021 
 ******************************************
 %mem=30GB
 %nproc=8
 Will use up to    8 processors via shared memory.
 ----------------------------------------------------------------------
 #P LC-wHPBE/TZVP iop(3/107=0156200000, 3/108=0156200000) scf=(conver=6
 ,fermi,ndamp=35,noincfock,novaracc,vshift=500,xqc)
 ----------------------------------------------------------------------
 1/38=1,172=1/1;
 2/12=2,17=6,18=5,40=1/2;
 3/5=19,7=101,11=2,25=1,30=1,74=-71,107=156200000,108=156200000/1,2,3;
 4//1;
 5/5=100002,6=6,8=3,10=500,13=1,18=-1,22=13,38=1,93=35/2,8;
 6/7=2,8=2,9=2,10=2,28=1/1;
 99/5=1,9=1/99;
 Leave Link    1 at Mon Jan 18 06:59:49 2021, MaxMem=  4026531840 cpu:               1.8 elap:               0.3
 (Enter /opt/ohpc/pub/libs/gaussian/g16-A.03/sandybridge/g16/l101.exe)
 -------------
 H28 C36 N2 O4
 -------------
 Symbolic Z-matrix:
 Charge =  0 Multiplicity = 1
 C                     2.8585    1.1421   -0.37424 
 C                     3.57931  -0.00109   0.00336 
 C                     1.46911   1.13831  -0.36294 
 C                     2.85888  -1.14343   0.38426 
 C                     0.7391    0.00051   0.00982 
 C                     1.46948  -1.13813   0.37936 
 H                     0.93719   2.03347  -0.68882 
 H                     3.39776  -2.0378    0.69627 
 H                     0.93807  -2.0325    0.70814 
 C                    -0.74288   0.00138   0.01297 
 C                    -1.47451  -1.13086  -0.37299 
 C                    -1.47149   1.13472   0.4025 
 C                    -2.8641   -1.13432  -0.37822 
 C                    -2.86074   1.14001   0.41329 
 C                    -3.58294   0.00335   0.01872 
 H                    -0.94411  -2.02123  -0.71407 
 H                    -0.93835   2.02371   0.74295 
 H                    -3.40426  -2.02363  -0.70227 
 H                    -3.3988    2.02906   0.74164 
 H                     3.39702   2.03591  -0.68846 
 N                    -4.99531   0.0057    0.02272 
 C                    -5.71392   1.18551  -0.3155 
 C                    -6.82475   1.58622   0.43968 
 C                    -5.3365    1.96457  -1.4144 
 C                    -7.54337   2.72659   0.10361 
 C                    -6.03755   3.12258  -1.7397 
 C                    -7.14884   3.50571  -0.98601 
 H                    -7.12955   0.98754   1.29812 
 H                    -4.47781   1.6644   -2.01483 
 H                    -8.40828   3.03605   0.6898 
 H                    -5.72457   3.72092  -2.59898 
 C                    -5.71706  -1.17893   0.3363 
 C                    -6.82181  -1.56585  -0.42905 
 C                    -5.34676  -1.97594   1.42879 
 C                    -7.54392  -2.7123   -0.10728 
 C                    -6.0478   -3.13419   1.73803 
 C                    -7.15565  -3.50639   0.97322 
 H                    -7.12443  -0.95603  -1.28024 
 H                    -4.49152  -1.68251   2.03756 
 H                    -8.40755  -2.99553  -0.71408 
 H                    -5.75737  -3.75451   2.58555 
 N                     4.99142  -0.002     0.00006 
 C                     5.71055  -1.18376  -0.33063 
 C                     6.81265  -1.58428   0.43161 
 C                     5.3406   -1.96403  -1.4351 
 C                     7.53257  -2.72778   0.09518 
 C                     6.03955  -3.11956  -1.75953 
 C                     7.14463  -3.50537  -0.99761 
 H                     7.1136   -0.98775   1.29281 
 H                     4.48656  -1.66032  -2.04054 
 H                     8.39336  -3.02271   0.70046 
 H                     5.74902  -3.72753  -2.61593 
 C                     5.71396   1.17869   0.32678 
 C                     6.81446   1.57586  -0.43955 
 C                     5.34931   1.96129   1.43141 
 C                     7.53789   2.71832  -0.10706 
 C                     6.05176   3.1158    1.75191 
 C                     7.15515   3.49826   0.98587 
 H                     7.11151   0.97744  -1.30079 
 H                     4.49683   1.66012   2.0403 
 H                     8.39743   3.01047  -0.71546 
 H                     5.76544   3.72535   2.6086 
 O                     7.82051   4.64102   1.35551 
 H                     8.55525   4.78867   0.73931 
 O                     7.80638  -4.64895  -1.37102 
 H                     8.5417   -4.80006  -0.75635 
 O                    -7.8874    4.62897  -1.26564 
 H                    -7.50341   5.07148  -2.03899 
 O                    -7.81955  -4.65345   1.33202 
 H                    -8.56035  -4.79055   0.72067 
 
 ITRead=  0  0  0  0  0  0  0  0  0  0  0  0  0  0  0  0  0  0  0  0
 ITRead=  0  0  0  0  0  0  0  0  0  0  0  0  0  0  0  0  0  0  0  0
 ITRead=  0  0  0  0  0  0  0  0  0  0  0  0  0  0  0  0  0  0  0  0
 ITRead=  0  0  0  0  0  0  0  0  0  0
 MicOpt= -1 -1 -1 -1 -1 -1 -1 -1 -1 -1 -1 -1 -1 -1 -1 -1 -1 -1 -1 -1
 MicOpt= -1 -1 -1 -1 -1 -1 -1 -1 -1 -1 -1 -1 -1 -1 -1 -1 -1 -1 -1 -1
 MicOpt= -1 -1 -1 -1 -1 -1 -1 -1 -1 -1 -1 -1 -1 -1 -1 -1 -1 -1 -1 -1
 MicOpt= -1 -1 -1 -1 -1 -1 -1 -1 -1 -1
 NAtoms=     70 NQM=       70 NQMF=       0 NMMI=      0 NMMIF=      0
                NMic=       0 NMicF=      0.
                    Isotopes and Nuclear Properties:
 (Nuclear quadrupole moments (NQMom) in fm**2, nuclear magnetic moments (NMagM)
  in nuclear magnetons)

  Atom         1           2           3           4           5           6           7           8           9          10
 IAtWgt=          12          12          12          12          12          12           1           1           1          12
 AtmWgt=  12.0000000  12.0000000  12.0000000  12.0000000  12.0000000  12.0000000   1.0078250   1.0078250   1.0078250  12.0000000
 NucSpn=           0           0           0           0           0           0           1           1           1           0
 AtZEff=  -0.0000000  -0.0000000  -0.0000000  -0.0000000  -0.0000000  -0.0000000  -0.0000000  -0.0000000  -0.0000000  -0.0000000
 NQMom=    0.0000000   0.0000000   0.0000000   0.0000000   0.0000000   0.0000000   0.0000000   0.0000000   0.0000000   0.0000000
 NMagM=    0.0000000   0.0000000   0.0000000   0.0000000   0.0000000   0.0000000   2.7928460   2.7928460   2.7928460   0.0000000
 AtZNuc=   6.0000000   6.0000000   6.0000000   6.0000000   6.0000000   6.0000000   1.0000000   1.0000000   1.0000000   6.0000000

  Atom        11          12          13          14          15          16          17          18          19          20
 IAtWgt=          12          12          12          12          12           1           1           1           1           1
 AtmWgt=  12.0000000  12.0000000  12.0000000  12.0000000  12.0000000   1.0078250   1.0078250   1.0078250   1.0078250   1.0078250
 NucSpn=           0           0           0           0           0           1           1           1           1           1
 AtZEff=  -0.0000000  -0.0000000  -0.0000000  -0.0000000  -0.0000000  -0.0000000  -0.0000000  -0.0000000  -0.0000000  -0.0000000
 NQMom=    0.0000000   0.0000000   0.0000000   0.0000000   0.0000000   0.0000000   0.0000000   0.0000000   0.0000000   0.0000000
 NMagM=    0.0000000   0.0000000   0.0000000   0.0000000   0.0000000   2.7928460   2.7928460   2.7928460   2.7928460   2.7928460
 AtZNuc=   6.0000000   6.0000000   6.0000000   6.0000000   6.0000000   1.0000000   1.0000000   1.0000000   1.0000000   1.0000000

  Atom        21          22          23          24          25          26          27          28          29          30
 IAtWgt=          14          12          12          12          12          12          12           1           1           1
 AtmWgt=  14.0030740  12.0000000  12.0000000  12.0000000  12.0000000  12.0000000  12.0000000   1.0078250   1.0078250   1.0078250
 NucSpn=           2           0           0           0           0           0           0           1           1           1
 AtZEff=  -0.0000000  -0.0000000  -0.0000000  -0.0000000  -0.0000000  -0.0000000  -0.0000000  -0.0000000  -0.0000000  -0.0000000
 NQMom=    2.0440000   0.0000000   0.0000000   0.0000000   0.0000000   0.0000000   0.0000000   0.0000000   0.0000000   0.0000000
 NMagM=    0.4037610   0.0000000   0.0000000   0.0000000   0.0000000   0.0000000   0.0000000   2.7928460   2.7928460   2.7928460
 AtZNuc=   7.0000000   6.0000000   6.0000000   6.0000000   6.0000000   6.0000000   6.0000000   1.0000000   1.0000000   1.0000000

  Atom        31          32          33          34          35          36          37          38          39          40
 IAtWgt=           1          12          12          12          12          12          12           1           1           1
 AtmWgt=   1.0078250  12.0000000  12.0000000  12.0000000  12.0000000  12.0000000  12.0000000   1.0078250   1.0078250   1.0078250
 NucSpn=           1           0           0           0           0           0           0           1           1           1
 AtZEff=  -0.0000000  -0.0000000  -0.0000000  -0.0000000  -0.0000000  -0.0000000  -0.0000000  -0.0000000  -0.0000000  -0.0000000
 NQMom=    0.0000000   0.0000000   0.0000000   0.0000000   0.0000000   0.0000000   0.0000000   0.0000000   0.0000000   0.0000000
 NMagM=    2.7928460   0.0000000   0.0000000   0.0000000   0.0000000   0.0000000   0.0000000   2.7928460   2.7928460   2.7928460
 AtZNuc=   1.0000000   6.0000000   6.0000000   6.0000000   6.0000000   6.0000000   6.0000000   1.0000000   1.0000000   1.0000000

  Atom        41          42          43          44          45          46          47          48          49          50
 IAtWgt=           1          14          12          12          12          12          12          12           1           1
 AtmWgt=   1.0078250  14.0030740  12.0000000  12.0000000  12.0000000  12.0000000  12.0000000  12.0000000   1.0078250   1.0078250
 NucSpn=           1           2           0           0           0           0           0           0           1           1
 AtZEff=  -0.0000000  -0.0000000  -0.0000000  -0.0000000  -0.0000000  -0.0000000  -0.0000000  -0.0000000  -0.0000000  -0.0000000
 NQMom=    0.0000000   2.0440000   0.0000000   0.0000000   0.0000000   0.0000000   0.0000000   0.0000000   0.0000000   0.0000000
 NMagM=    2.7928460   0.4037610   0.0000000   0.0000000   0.0000000   0.0000000   0.0000000   0.0000000   2.7928460   2.7928460
 AtZNuc=   1.0000000   7.0000000   6.0000000   6.0000000   6.0000000   6.0000000   6.0000000   6.0000000   1.0000000   1.0000000

  Atom        51          52          53          54          55          56          57          58          59          60
 IAtWgt=           1           1          12          12          12          12          12          12           1           1
 AtmWgt=   1.0078250   1.0078250  12.0000000  12.0000000  12.0000000  12.0000000  12.0000000  12.0000000   1.0078250   1.0078250
 NucSpn=           1           1           0           0           0           0           0           0           1           1
 AtZEff=  -0.0000000  -0.0000000  -0.0000000  -0.0000000  -0.0000000  -0.0000000  -0.0000000  -0.0000000  -0.0000000  -0.0000000
 NQMom=    0.0000000   0.0000000   0.0000000   0.0000000   0.0000000   0.0000000   0.0000000   0.0000000   0.0000000   0.0000000
 NMagM=    2.7928460   2.7928460   0.0000000   0.0000000   0.0000000   0.0000000   0.0000000   0.0000000   2.7928460   2.7928460
 AtZNuc=   1.0000000   1.0000000   6.0000000   6.0000000   6.0000000   6.0000000   6.0000000   6.0000000   1.0000000   1.0000000

  Atom        61          62          63          64          65          66          67          68          69          70
 IAtWgt=           1           1          16           1          16           1          16           1          16           1
 AtmWgt=   1.0078250   1.0078250  15.9949146   1.0078250  15.9949146   1.0078250  15.9949146   1.0078250  15.9949146   1.0078250
 NucSpn=           1           1           0           1           0           1           0           1           0           1
 AtZEff=  -0.0000000  -0.0000000  -0.0000000  -0.0000000  -0.0000000  -0.0000000  -0.0000000  -0.0000000  -0.0000000  -0.0000000
 NQMom=    0.0000000   0.0000000   0.0000000   0.0000000   0.0000000   0.0000000   0.0000000   0.0000000   0.0000000   0.0000000
 NMagM=    2.7928460   2.7928460   0.0000000   2.7928460   0.0000000   2.7928460   0.0000000   2.7928460   0.0000000   2.7928460
 AtZNuc=   1.0000000   1.0000000   8.0000000   1.0000000   8.0000000   1.0000000   8.0000000   1.0000000   8.0000000   1.0000000
 Leave Link  101 at Mon Jan 18 06:59:49 2021, MaxMem=  4026531840 cpu:               0.8 elap:               0.1
 (Enter /opt/ohpc/pub/libs/gaussian/g16-A.03/sandybridge/g16/l202.exe)
 Stoichiometry    C36H28N2O4
 Framework group  C1[X(C36H28N2O4)]
 Deg. of freedom   204
 Full point group                 C1      NOp   1
 Largest Abelian subgroup         C1      NOp   1
 Largest concise Abelian subgroup C1      NOp   1
                         Standard orientation:                         
 ---------------------------------------------------------------------
 Center     Atomic      Atomic             Coordinates (Angstroms)
 Number     Number       Type             X           Y           Z
 ---------------------------------------------------------------------
      1          6           0        2.858499   -1.142103    0.374244
      2          6           0        3.579312    0.001087   -0.003359
      3          6           0        1.469111   -1.138314    0.362939
      4          6           0        2.858875    1.143435   -0.384264
      5          6           0        0.739097   -0.000512   -0.009817
      6          6           0        1.469477    1.138129   -0.379362
      7          1           0        0.937192   -2.033473    0.688815
      8          1           0        3.397761    2.037798   -0.696269
      9          1           0        0.938071    2.032504   -0.708142
     10          6           0       -0.742883   -0.001384   -0.012974
     11          6           0       -1.474511    1.130858    0.372988
     12          6           0       -1.471490   -1.134716   -0.402503
     13          6           0       -2.864100    1.134318    0.378218
     14          6           0       -2.860735   -1.140009   -0.413286
     15          6           0       -3.582937   -0.003346   -0.018716
     16          1           0       -0.944110    2.021230    0.714069
     17          1           0       -0.938347   -2.023708   -0.742945
     18          1           0       -3.404263    2.023625    0.702274
     19          1           0       -3.398798   -2.029064   -0.741639
     20          1           0        3.397024   -2.035914    0.688457
     21          7           0       -4.995311   -0.005703   -0.022721
     22          6           0       -5.713915   -1.185510    0.315496
     23          6           0       -6.824749   -1.586223   -0.439679
     24          6           0       -5.336499   -1.964565    1.414395
     25          6           0       -7.543368   -2.726588   -0.103607
     26          6           0       -6.037549   -3.122582    1.739703
     27          6           0       -7.148838   -3.505710    0.986012
     28          1           0       -7.129554   -0.987536   -1.298124
     29          1           0       -4.477812   -1.664402    2.014832
     30          1           0       -8.408278   -3.036049   -0.689802
     31          1           0       -5.724570   -3.720924    2.598980
     32          6           0       -5.717056    1.178925   -0.336296
     33          6           0       -6.821807    1.565845    0.429047
     34          6           0       -5.346761    1.975943   -1.428789
     35          6           0       -7.543924    2.712298    0.107280
     36          6           0       -6.047800    3.134194   -1.738027
     37          6           0       -7.155651    3.506391   -0.973222
     38          1           0       -7.124426    0.956025    1.280239
     39          1           0       -4.491517    1.682511   -2.037555
     40          1           0       -8.407549    2.995534    0.714075
     41          1           0       -5.757368    3.754511   -2.585554
     42          7           0        4.991423    0.001999   -0.000060
     43          6           0        5.710552    1.183762    0.330631
     44          6           0        6.812654    1.584277   -0.431608
     45          6           0        5.340603    1.964026    1.435102
     46          6           0        7.532572    2.727778   -0.095183
     47          6           0        6.039551    3.119564    1.759528
     48          6           0        7.144632    3.505373    0.997606
     49          1           0        7.113605    0.987752   -1.292811
     50          1           0        4.486562    1.660323    2.040543
     51          1           0        8.393358    3.022713   -0.700462
     52          1           0        5.749024    3.727528    2.615933
     53          6           0        5.713955   -1.178690   -0.326778
     54          6           0        6.814458   -1.575861    0.439552
     55          6           0        5.349314   -1.961286   -1.431414
     56          6           0        7.537888   -2.718318    0.107058
     57          6           0        6.051756   -3.115796   -1.751909
     58          6           0        7.155153   -3.498257   -0.985865
     59          1           0        7.111509   -0.977436    1.300789
     60          1           0        4.496830   -1.660119   -2.040298
     61          1           0        8.397429   -3.010471    0.715458
     62          1           0        5.765438   -3.725350   -2.608604
     63          8           0        7.820509   -4.641023   -1.355507
     64          1           0        8.555246   -4.788670   -0.739309
     65          8           0        7.806379    4.648952    1.371018
     66          1           0        8.541702    4.800061    0.756350
     67          8           0       -7.887404   -4.628973    1.265636
     68          1           0       -7.503413   -5.071476    2.038990
     69          8           0       -7.819547    4.653451   -1.332021
     70          1           0       -8.560354    4.790553   -0.720672
 ---------------------------------------------------------------------
 Rotational constants (GHZ):           0.1256812           0.0264942           0.0228634
 Leave Link  202 at Mon Jan 18 06:59:49 2021, MaxMem=  4026531840 cpu:               0.1 elap:               0.0
 (Enter /opt/ohpc/pub/libs/gaussian/g16-A.03/sandybridge/g16/l301.exe)
 Standard basis: TZVP (5D, 7F)
 Ernie: Thresh=  0.10000D-02 Tol=  0.10000D-05 Strict=F.
 There are  1008 symmetry adapted cartesian basis functions of A   symmetry.
 There are   966 symmetry adapted basis functions of A   symmetry.
   966 basis functions,  1694 primitive gaussians,  1008 cartesian basis functions
   145 alpha electrons      145 beta electrons
       nuclear repulsion energy      4158.5104167158 Hartrees.
 IExCor=33909 DFT=T Ex+Corr=LC-wHPBE ExCW=0 ScaHFX=  1.000000
 ScaDFX=  1.000000  1.000000  1.000000  1.000000 ScalE2=  1.000000  1.000000
 IRadAn=      5 IRanWt=     -1 IRanGd=            0 ICorTp=0 IEmpDi=  4
 HFx  wShort=  0.000000 wLong=  0.156200 cFull=  0.000000 cShort=  0.000000 cLong=  1.000000
 DFx  wShort=  0.000000 wLong=  0.156200 cFull=  0.000000 cShort=  1.000000 cLong=  0.000000
 NAtoms=   70 NActive=   70 NUniq=   70 SFac= 1.00D+00 NAtFMM=   60 NAOKFM=T Big=T
 Integral buffers will be    131072 words long.
 Raffenetti 2 integral format.
 Two-electron integral symmetry is turned on.
 Leave Link  301 at Mon Jan 18 06:59:49 2021, MaxMem=  4026531840 cpu:               0.4 elap:               0.1
 (Enter /opt/ohpc/pub/libs/gaussian/g16-A.03/sandybridge/g16/l302.exe)
 NPDir=0 NMtPBC=     1 NCelOv=     1 NCel=       1 NClECP=     1 NCelD=      1
         NCelK=      1 NCelE2=     1 NClLst=     1 CellRange=     0.0.
 One-electron integrals computed using PRISM.
 One-electron integral symmetry used in STVInt
 NBasis=   966 RedAO= T EigKep=  7.09D-06  NBF=   966
 NBsUse=   966 1.00D-06 EigRej= -1.00D+00 NBFU=   966
 Precomputing XC quadrature grid using
 IXCGrd= 4 IRadAn=           5 IRanWt=          -1 IRanGd=           0 AccXCQ= 0.00D+00.
 Generated NRdTot=       0 NPtTot=           0 NUsed=           0 NTot=          32
 NSgBfM=   893   890   890   891   893 MxSgAt=    70 MxSgA2=    70.
 Leave Link  302 at Mon Jan 18 06:59:52 2021, MaxMem=  4026531840 cpu:              20.0 elap:               2.6
 (Enter /opt/ohpc/pub/libs/gaussian/g16-A.03/sandybridge/g16/l303.exe)
 DipDrv:  MaxL=1.
 Leave Link  303 at Mon Jan 18 06:59:52 2021, MaxMem=  4026531840 cpu:               1.2 elap:               0.2
 (Enter /opt/ohpc/pub/libs/gaussian/g16-A.03/sandybridge/g16/l401.exe)
 ExpMin= 9.52D-02 ExpMax= 2.70D+04 ExpMxC= 9.22D+02 IAcc=3 IRadAn=         5 AccDes= 0.00D+00
 Harris functional with IExCor=33909 and IRadAn=       5 diagonalized for initial guess.
 HarFok:  IExCor=33909 AccDes= 0.00D+00 IRadAn=         5 IDoV= 1 UseB2=F ITyADJ=14
 ICtDFT=  3500011 ScaDFX=  1.000000  1.000000  1.000000  1.000000
 FoFCou: FMM=F IPFlag=           0 FMFlag=      100000 FMFlg1=        2001
         NFxFlg=           0 DoJE=T BraDBF=F KetDBF=T FulRan=T
         wScrn=  0.000000 ICntrl=       500 IOpCl=  0 I1Cent=   200000004 NGrid=           0
         NMat0=    1 NMatS0=      1 NMatT0=    0 NMatD0=    1 NMtDS0=    0 NMtDT0=    0
 Petite list used in FoFCou.
 Harris En= -1773.59448536100    
 JPrj=0 DoOrth=F DoCkMO=F.
 Leave Link  401 at Mon Jan 18 07:00:03 2021, MaxMem=  4026531840 cpu:              86.9 elap:              10.9
 (Enter /opt/ohpc/pub/libs/gaussian/g16-A.03/sandybridge/g16/l502.exe)
 Integral symmetry usage will be decided dynamically.
 Closed shell SCF:
 Using DIIS extrapolation, IDIIS=    10.
 NGot=  4026531840 LenX=  4024481942 LenY=  4023464870
 Requested convergence on RMS density matrix=1.00D-06 within  32 cycles.
 Requested convergence on MAX density matrix=1.00D-04.
 Requested convergence on             energy=1.00D-04.
 Virtual orbitals will be shifted by   0.500 hartree.
 No special actions if energy rises.
 Dynamic level shift is on during FON iterations.

 Cycle   1  Pass 1  IDiag  1:
 FoFJK:  IHMeth= 1 ICntrl=       0 DoSepK=T KAlg= 0 I1Cent=           0 FoldK=F
 IRaf=         1 NMat=       1 IRICut=       1 DoRegI=T DoRafI=F ISym2E= 0 IDoP0=0 IntGTp=1.
 FoFCou: FMM=T IPFlag=           0 FMFlag=      100000 FMFlg1=        2001
         NFxFlg=           0 DoJE=T BraDBF=F KetDBF=F FulRan=T
         wScrn=  0.000000 ICntrl=       500 IOpCl=  0 I1Cent=           0 NGrid=           0
         NMat0=    1 NMatS0=      1 NMatT0=    0 NMatD0=    1 NMtDS0=    0 NMtDT0=    0
 Symmetry not used in FoFCou.
 FMM levels:  10  Number of levels for PrismC:   9
 E= -1797.22556256112    
 DIIS: error= 3.31D-02 at cycle   1 NSaved=   1.
 NSaved= 1 IEnMin= 1 EnMin= -1797.22556256112     IErMin= 1 ErrMin= 3.31D-02
 ErrMax= 3.31D-02  0.00D+00 EMaxC= 1.00D+00 BMatC= 7.37D-01 BMatP= 7.37D-01
 IDIUse=1 WtCom= 1.00D+00 WtEn= 0.00D+00
 Coeff-Com:  0.100D+01
 Coeff:      0.100D+01
 Gap=     0.248 Goal=   None    Shift=    0.500
 T= 1555. Gap= 0.709 NK=0 IS=  146 IE=  966 IFin=  145
          NO(<0.9)=   0  NV(>0.1)=   0    145.00e < EF      0.00e >EF  Err=0.0D+00
 GapD=    0.248 DampG=1.000 DampE=0.500 DampFc=0.5000 IDamp=-1.
 Damping current iteration by 5.00D-01
 RMSDP=1.95D-03 MaxDP=1.13D-01              OVMax= 7.09D-02

 Cycle   2  Pass 1  IDiag  1:
 E= -1797.66570425293     Delta-E=       -0.440141691812 Rises=F Damp=T
 DIIS: error= 1.49D-02 at cycle   2 NSaved=   2.
 NSaved= 2 IEnMin= 2 EnMin= -1797.66570425293     IErMin= 2 ErrMin= 1.49D-02
 ErrMax= 1.49D-02  0.00D+00 EMaxC= 1.00D+00 BMatC= 1.11D-01 BMatP= 7.37D-01
 IDIUse=1 WtCom= 1.00D+00 WtEn= 0.00D+00
 Coeff-Com: -0.469D+00 0.147D+01
 Coeff:     -0.469D+00 0.147D+01
 Gap=     0.270 Goal=   None    Shift=    0.500
 T= 1434. Gap= 0.719 NK=0 IS=  146 IE=  966 IFin=  145
          NO(<0.9)=   0  NV(>0.1)=   0    145.00e < EF      0.00e >EF  Err=0.0D+00
 GapD=    0.270 DampG=1.000 DampE=0.500 DampFc=0.5000 IDamp=-1.
 Damping current iteration by 5.00D-01
 RMSDP=1.17D-03 MaxDP=1.00D-01 DE=-4.40D-01 OVMax= 1.83D-02

 Cycle   3  Pass 1  IDiag  1:
 E= -1797.81369139131     Delta-E=       -0.147987138374 Rises=F Damp=T
 DIIS: error= 6.34D-03 at cycle   3 NSaved=   3.
 NSaved= 3 IEnMin= 3 EnMin= -1797.81369139131     IErMin= 3 ErrMin= 6.34D-03
 ErrMax= 6.34D-03  0.00D+00 EMaxC= 1.00D+00 BMatC= 1.92D-02 BMatP= 1.11D-01
 IDIUse=1 WtCom= 1.00D+00 WtEn= 0.00D+00
 Coeff-Com:  0.258D-01-0.704D+00 0.168D+01
 Coeff:      0.258D-01-0.704D+00 0.168D+01
 Gap=     0.232 Goal=   None    Shift=    0.500
 T= 1194. Gap= 0.726 NK=0 IS=  146 IE=  966 IFin=  145
          NO(<0.9)=   0  NV(>0.1)=   0    145.00e < EF      0.00e >EF  Err=0.0D+00
 GapD=    0.232 DampG=1.000 DampE=1.000 DampFc=1.0000 IDamp=-1.
 RMSDP=7.67D-04 MaxDP=8.96D-02 DE=-1.48D-01 OVMax= 9.50D-03

 Cycle   4  Pass 1  IDiag  1:
 E= -1797.93597162928     Delta-E=       -0.122280237972 Rises=F Damp=F
 DIIS: error= 1.06D-03 at cycle   4 NSaved=   4.
 NSaved= 4 IEnMin= 4 EnMin= -1797.93597162928     IErMin= 4 ErrMin= 1.06D-03
 ErrMax= 1.06D-03  0.00D+00 EMaxC= 1.00D+00 BMatC= 1.27D-03 BMatP= 1.92D-02
 IDIUse=1 WtCom= 1.00D+00 WtEn= 0.00D+00
 Coeff-Com:  0.670D-01-0.158D+00 0.150D+00 0.942D+00
 Coeff:      0.670D-01-0.158D+00 0.150D+00 0.942D+00
 Gap=     0.225 Goal=   None    Shift=    0.500
 T=  660. Gap= 0.725 NK=0 IS=  146 IE=  966 IFin=  145
          NO(<0.9)=   0  NV(>0.1)=   0    145.00e < EF      0.00e >EF  Err=0.0D+00
 GapD=    0.225 DampG=1.000 DampE=1.000 DampFc=1.0000 IDamp=-1.
 RMSDP=1.59D-04 MaxDP=1.24D-02 DE=-1.22D-01 OVMax= 6.63D-03

 Cycle   5  Pass 1  IDiag  1:
 E= -1797.93710285407     Delta-E=       -0.001131224788 Rises=F Damp=F
 DIIS: error= 8.43D-04 at cycle   5 NSaved=   5.
 NSaved= 5 IEnMin= 5 EnMin= -1797.93710285407     IErMin= 5 ErrMin= 8.43D-04
 ErrMax= 8.43D-04  0.00D+00 EMaxC= 1.00D+00 BMatC= 1.74D-04 BMatP= 1.27D-03
 IDIUse=1 WtCom= 1.00D+00 WtEn= 0.00D+00
 Coeff-Com:  0.240D-01-0.947D-02-0.605D-01 0.880D-01 0.958D+00
 Coeff:      0.240D-01-0.947D-02-0.605D-01 0.880D-01 0.958D+00
 Gap=     0.225 Goal=   None    Shift=    0.500
 RMSDP=9.41D-05 MaxDP=5.64D-03 DE=-1.13D-03 OVMax= 4.81D-03

 Cycle   6  Pass 1  IDiag  1:
 E= -1797.93736969386     Delta-E=       -0.000266839791 Rises=F Damp=F
 DIIS: error= 7.12D-04 at cycle   6 NSaved=   6.
 NSaved= 6 IEnMin= 6 EnMin= -1797.93736969386     IErMin= 6 ErrMin= 7.12D-04
 ErrMax= 7.12D-04  0.00D+00 EMaxC= 1.00D+00 BMatC= 2.78D-05 BMatP= 1.74D-04
 IDIUse=1 WtCom= 1.00D+00 WtEn= 0.00D+00
 Coeff-Com: -0.845D-02 0.381D-01-0.574D-01-0.156D+00-0.477D-01 0.123D+01
 Coeff:     -0.845D-02 0.381D-01-0.574D-01-0.156D+00-0.477D-01 0.123D+01
 Gap=     0.225 Goal=   None    Shift=    0.500
 RMSDP=5.57D-05 MaxDP=3.15D-03 DE=-2.67D-04 OVMax= 4.40D-03

 Cycle   7  Pass 1  IDiag  1:
 E= -1797.93746023887     Delta-E=       -0.000090545016 Rises=F Damp=F
 DIIS: error= 5.34D-04 at cycle   7 NSaved=   7.
 NSaved= 7 IEnMin= 7 EnMin= -1797.93746023887     IErMin= 7 ErrMin= 5.34D-04
 ErrMax= 5.34D-04  0.00D+00 EMaxC= 1.00D+00 BMatC= 1.02D-05 BMatP= 2.78D-05
 IDIUse=1 WtCom= 1.00D+00 WtEn= 0.00D+00
 Coeff-Com: -0.759D-02 0.139D-01-0.749D-02-0.613D-01-0.200D+00-0.674D-01
 Coeff-Com:  0.133D+01
 Coeff:     -0.759D-02 0.139D-01-0.749D-02-0.613D-01-0.200D+00-0.674D-01
 Coeff:      0.133D+01
 Gap=     0.225 Goal=   None    Shift=    0.500
 RMSDP=2.95D-05 MaxDP=1.79D-03 DE=-9.05D-05 OVMax= 3.37D-03

 Cycle   8  Pass 1  IDiag  1:
 E= -1797.93750326009     Delta-E=       -0.000043021213 Rises=F Damp=F
 DIIS: error= 4.16D-04 at cycle   8 NSaved=   8.
 NSaved= 8 IEnMin= 8 EnMin= -1797.93750326009     IErMin= 8 ErrMin= 4.16D-04
 ErrMax= 4.16D-04  0.00D+00 EMaxC= 1.00D+00 BMatC= 4.62D-06 BMatP= 1.02D-05
 IDIUse=1 WtCom= 1.00D+00 WtEn= 0.00D+00
 Coeff-Com:  0.692D-03-0.125D-01 0.225D-01 0.412D-01-0.708D-01-0.619D+00
 Coeff-Com:  0.967D-01 0.154D+01
 Coeff:      0.692D-03-0.125D-01 0.225D-01 0.412D-01-0.708D-01-0.619D+00
 Coeff:      0.967D-01 0.154D+01
 Gap=     0.225 Goal=   None    Shift=    0.500
 RMSDP=1.58D-05 MaxDP=8.91D-04 DE=-4.30D-05 OVMax= 2.79D-03

 Cycle   9  Pass 1  IDiag  1:
 E= -1797.93752661985     Delta-E=       -0.000023359762 Rises=F Damp=F
 DIIS: error= 3.12D-04 at cycle   9 NSaved=   9.
 NSaved= 9 IEnMin= 9 EnMin= -1797.93752661985     IErMin= 9 ErrMin= 3.12D-04
 ErrMax= 3.12D-04  0.00D+00 EMaxC= 1.00D+00 BMatC= 2.15D-06 BMatP= 4.62D-06
 IDIUse=1 WtCom= 1.00D+00 WtEn= 0.00D+00
 Coeff-Com:  0.312D-02-0.797D-02 0.637D-02 0.300D-01 0.974D-01-0.209D+00
 Coeff-Com: -0.539D+00-0.497D+00 0.212D+01
 Coeff:      0.312D-02-0.797D-02 0.637D-02 0.300D-01 0.974D-01-0.209D+00
 Coeff:     -0.539D+00-0.497D+00 0.212D+01
 Gap=     0.226 Goal=   None    Shift=    0.500
 RMSDP=8.17D-06 MaxDP=3.24D-04 DE=-2.34D-05 OVMax= 2.26D-03

 Cycle  10  Pass 1  IDiag  1:
 E= -1797.93753913495     Delta-E=       -0.000012515104 Rises=F Damp=F
 DIIS: error= 2.25D-04 at cycle  10 NSaved=  10.
 NSaved=10 IEnMin=10 EnMin= -1797.93753913495     IErMin=10 ErrMin= 2.25D-04
 ErrMax= 2.25D-04  0.00D+00 EMaxC= 1.00D+00 BMatC= 1.09D-06 BMatP= 2.15D-06
 IDIUse=1 WtCom= 1.00D+00 WtEn= 0.00D+00
 Coeff-Com:  0.411D-03 0.325D-02-0.746D-02 0.585D-03 0.854D-01 0.169D-01
 Coeff-Com: -0.181D+00-0.779D+00 0.102D-01 0.185D+01
 Coeff:      0.411D-03 0.325D-02-0.746D-02 0.585D-03 0.854D-01 0.169D-01
 Coeff:     -0.181D+00-0.779D+00 0.102D-01 0.185D+01
 Gap=     0.226 Goal=   None    Shift=    0.500
 RMSDP=4.94D-06 MaxDP=1.84D-04 DE=-1.25D-05 OVMax= 1.65D-03

 Cycle  11  Pass 1  IDiag  1:
 E= -1797.93754527185     Delta-E=       -0.000006136897 Rises=F Damp=F
 DIIS: error= 1.62D-04 at cycle  11 NSaved=  11.
 NSaved=11 IEnMin=11 EnMin= -1797.93754527185     IErMin=11 ErrMin= 1.62D-04
 ErrMax= 1.62D-04  0.00D+00 EMaxC= 1.00D+00 BMatC= 5.59D-07 BMatP= 1.09D-06
 IDIUse=1 WtCom= 1.00D+00 WtEn= 0.00D+00
 Coeff-Com: -0.116D-02 0.614D-02-0.821D-02-0.840D-02 0.274D-01 0.401D-01
 Coeff-Com:  0.159D+00-0.373D+00-0.928D+00 0.492D+00 0.159D+01
 Coeff:     -0.116D-02 0.614D-02-0.821D-02-0.840D-02 0.274D-01 0.401D-01
 Coeff:      0.159D+00-0.373D+00-0.928D+00 0.492D+00 0.159D+01
 Gap=     0.226 Goal=   None    Shift=    0.500
 RMSDP=3.21D-06 MaxDP=1.09D-04 DE=-6.14D-06 OVMax= 1.20D-03

 Cycle  12  Pass 1  IDiag  1:
 E= -1797.93754826852     Delta-E=       -0.000002996667 Rises=F Damp=F
 DIIS: error= 1.15D-04 at cycle  12 NSaved=  12.
 NSaved=12 IEnMin=12 EnMin= -1797.93754826852     IErMin=12 ErrMin= 1.15D-04
 ErrMax= 1.15D-04  0.00D+00 EMaxC= 1.00D+00 BMatC= 2.65D-07 BMatP= 5.59D-07
 IDIUse=1 WtCom= 1.00D+00 WtEn= 0.00D+00
 Coeff-Com: -0.617D-03 0.978D-03 0.141D-03-0.212D-02-0.196D-01-0.279D-01
 Coeff-Com:  0.208D+00 0.133D+00-0.451D+00-0.811D+00-0.152D+00 0.212D+01
 Coeff:     -0.617D-03 0.978D-03 0.141D-03-0.212D-02-0.196D-01-0.279D-01
 Coeff:      0.208D+00 0.133D+00-0.451D+00-0.811D+00-0.152D+00 0.212D+01
 Gap=     0.226 Goal=   None    Shift=    0.500
 RMSDP=2.22D-06 MaxDP=7.47D-05 DE=-3.00D-06 OVMax= 8.56D-04

 Cycle  13  Pass 1  IDiag  1:
 E= -1797.93754968687     Delta-E=       -0.000001418354 Rises=F Damp=F
 DIIS: error= 7.95D-05 at cycle  13 NSaved=  13.
 NSaved=13 IEnMin=13 EnMin= -1797.93754968687     IErMin=13 ErrMin= 7.95D-05
 ErrMax= 7.95D-05  0.00D+00 EMaxC= 1.00D+00 BMatC= 1.33D-07 BMatP= 2.65D-07
 IDIUse=1 WtCom= 1.00D+00 WtEn= 0.00D+00
 Coeff-Com: -0.850D-05-0.124D-02 0.251D-02 0.100D-02-0.147D-01-0.427D-01
 Coeff-Com:  0.106D+00 0.138D+00 0.283D-01-0.642D+00-0.552D+00 0.205D+00
 Coeff-Com:  0.177D+01
 Coeff:     -0.850D-05-0.124D-02 0.251D-02 0.100D-02-0.147D-01-0.427D-01
 Coeff:      0.106D+00 0.138D+00 0.283D-01-0.642D+00-0.552D+00 0.205D+00
 Coeff:      0.177D+01
 Gap=     0.226 Goal=   None    Shift=    0.500
 RMSDP=1.46D-06 MaxDP=4.97D-05 DE=-1.42D-06 OVMax= 5.91D-04

 Cycle  14  Pass 1  IDiag  1:
 E= -1797.93755034227     Delta-E=       -0.000000655402 Rises=F Damp=F
 DIIS: error= 5.49D-05 at cycle  14 NSaved=  14.
 NSaved=14 IEnMin=14 EnMin= -1797.93755034227     IErMin=14 ErrMin= 5.49D-05
 ErrMax= 5.49D-05  0.00D+00 EMaxC= 1.00D+00 BMatC= 6.35D-08 BMatP= 1.33D-07
 IDIUse=1 WtCom= 1.00D+00 WtEn= 0.00D+00
 Coeff-Com:  0.235D-03-0.735D-03 0.696D-03 0.155D-02 0.532D-02-0.175D-01
 Coeff-Com: -0.253D-01-0.284D-01 0.241D+00 0.929D-01-0.226D+00-0.127D+01
 Coeff-Com:  0.340D-01 0.219D+01
 Coeff:      0.235D-03-0.735D-03 0.696D-03 0.155D-02 0.532D-02-0.175D-01
 Coeff:     -0.253D-01-0.284D-01 0.241D+00 0.929D-01-0.226D+00-0.127D+01
 Coeff:      0.340D-01 0.219D+01
 Gap=     0.226 Goal=   None    Shift=    0.500
 RMSDP=9.98D-07 MaxDP=3.32D-05 DE=-6.55D-07 OVMax= 4.04D-04

 SCF Done:  E(RLC-wHPBE) =  -1797.93755034     A.U. after   14 cycles
            NFock= 14  Conv=0.10D-05     -V/T= 2.0046
 KE= 1.789664533981D+03 PE=-1.250574820585D+04 EE= 4.759635704809D+03
 Leave Link  502 at Mon Jan 18 07:16:51 2021, MaxMem=  4026531840 cpu:            7951.4 elap:            1008.2
 (Enter /opt/ohpc/pub/libs/gaussian/g16-A.03/sandybridge/g16/l508.exe)
 QCSCF skips out because SCF is already converged.
 Leave Link  508 at Mon Jan 18 07:16:51 2021, MaxMem=  4026531840 cpu:               0.0 elap:               0.0
 (Enter /opt/ohpc/pub/libs/gaussian/g16-A.03/sandybridge/g16/l601.exe)
 Copying SCF densities to generalized density rwf, IOpCl= 0 IROHF=0.

 **********************************************************************

            Population analysis using the SCF density.

 **********************************************************************

 Orbital symmetries:
       Occupied  (A) (A) (A) (A) (A) (A) (A) (A) (A) (A) (A) (A)
                 (A) (A) (A) (A) (A) (A) (A) (A) (A) (A) (A) (A)
                 (A) (A) (A) (A) (A) (A) (A) (A) (A) (A) (A) (A)
                 (A) (A) (A) (A) (A) (A) (A) (A) (A) (A) (A) (A)
                 (A) (A) (A) (A) (A) (A) (A) (A) (A) (A) (A) (A)
                 (A) (A) (A) (A) (A) (A) (A) (A) (A) (A) (A) (A)
                 (A) (A) (A) (A) (A) (A) (A) (A) (A) (A) (A) (A)
                 (A) (A) (A) (A) (A) (A) (A) (A) (A) (A) (A) (A)
                 (A) (A) (A) (A) (A) (A) (A) (A) (A) (A) (A) (A)
                 (A) (A) (A) (A) (A) (A) (A) (A) (A) (A) (A) (A)
                 (A) (A) (A) (A) (A) (A) (A) (A) (A) (A) (A) (A)
                 (A) (A) (A) (A) (A) (A) (A) (A) (A) (A) (A) (A)
                 (A)
       Virtual   (A) (A) (A) (A) (A) (A) (A) (A) (A) (A) (A) (A)
                 (A) (A) (A) (A) (A) (A) (A) (A) (A) (A) (A) (A)
                 (A) (A) (A) (A) (A) (A) (A) (A) (A) (A) (A) (A)
                 (A) (A) (A) (A) (A) (A) (A) (A) (A) (A) (A) (A)
                 (A) (A) (A) (A) (A) (A) (A) (A) (A) (A) (A) (A)
                 (A) (A) (A) (A) (A) (A) (A) (A) (A) (A) (A) (A)
                 (A) (A) (A) (A) (A) (A) (A) (A) (A) (A) (A) (A)
                 (A) (A) (A) (A) (A) (A) (A) (A) (A) (A) (A) (A)
                 (A) (A) (A) (A) (A) (A) (A) (A) (A) (A) (A) (A)
                 (A) (A) (A) (A) (A) (A) (A) (A) (A) (A) (A) (A)
                 (A) (A) (A) (A) (A) (A) (A) (A) (A) (A) (A) (A)
                 (A) (A) (A) (A) (A) (A) (A) (A) (A) (A) (A) (A)
                 (A) (A) (A) (A) (A) (A) (A) (A) (A) (A) (A) (A)
                 (A) (A) (A) (A) (A) (A) (A) (A) (A) (A) (A) (A)
                 (A) (A) (A) (A) (A) (A) (A) (A) (A) (A) (A) (A)
                 (A) (A) (A) (A) (A) (A) (A) (A) (A) (A) (A) (A)
                 (A) (A) (A) (A) (A) (A) (A) (A) (A) (A) (A) (A)
                 (A) (A) (A) (A) (A) (A) (A) (A) (A) (A) (A) (A)
                 (A) (A) (A) (A) (A) (A) (A) (A) (A) (A) (A) (A)
                 (A) (A) (A) (A) (A) (A) (A) (A) (A) (A) (A) (A)
                 (A) (A) (A) (A) (A) (A) (A) (A) (A) (A) (A) (A)
                 (A) (A) (A) (A) (A) (A) (A) (A) (A) (A) (A) (A)
                 (A) (A) (A) (A) (A) (A) (A) (A) (A) (A) (A) (A)
                 (A) (A) (A) (A) (A) (A) (A) (A) (A) (A) (A) (A)
                 (A) (A) (A) (A) (A) (A) (A) (A) (A) (A) (A) (A)
                 (A) (A) (A) (A) (A) (A) (A) (A) (A) (A) (A) (A)
                 (A) (A) (A) (A) (A) (A) (A) (A) (A) (A) (A) (A)
                 (A) (A) (A) (A) (A) (A) (A) (A) (A) (A) (A) (A)
                 (A) (A) (A) (A) (A) (A) (A) (A) (A) (A) (A) (A)
                 (A) (A) (A) (A) (A) (A) (A) (A) (A) (A) (A) (A)
                 (A) (A) (A) (A) (A) (A) (A) (A) (A) (A) (A) (A)
                 (A) (A) (A) (A) (A) (A) (A) (A) (A) (A) (A) (A)
                 (A) (A) (A) (A) (A) (A) (A) (A) (A) (A) (A) (A)
                 (A) (A) (A) (A) (A) (A) (A) (A) (A) (A) (A) (A)
                 (A) (A) (A) (A) (A) (A) (A) (A) (A) (A) (A) (A)
                 (A) (A) (A) (A) (A) (A) (A) (A) (A) (A) (A) (A)
                 (A) (A) (A) (A) (A) (A) (A) (A) (A) (A) (A) (A)
                 (A) (A) (A) (A) (A) (A) (A) (A) (A) (A) (A) (A)
                 (A) (A) (A) (A) (A) (A) (A) (A) (A) (A) (A) (A)
                 (A) (A) (A) (A) (A) (A) (A) (A) (A) (A) (A) (A)
                 (A) (A) (A) (A) (A) (A) (A) (A) (A) (A) (A) (A)
                 (A) (A) (A) (A) (A) (A) (A) (A) (A) (A) (A) (A)
                 (A) (A) (A) (A) (A) (A) (A) (A) (A) (A) (A) (A)
                 (A) (A) (A) (A) (A) (A) (A) (A) (A) (A) (A) (A)
                 (A) (A) (A) (A) (A) (A) (A) (A) (A) (A) (A) (A)
                 (A) (A) (A) (A) (A) (A) (A) (A) (A) (A) (A) (A)
                 (A) (A) (A) (A) (A) (A) (A) (A) (A) (A) (A) (A)
                 (A) (A) (A) (A) (A) (A) (A) (A) (A) (A) (A) (A)
                 (A) (A) (A) (A) (A) (A) (A) (A) (A) (A) (A) (A)
                 (A) (A) (A) (A) (A) (A) (A) (A) (A) (A) (A) (A)
                 (A) (A) (A) (A) (A) (A) (A) (A) (A) (A) (A) (A)
                 (A) (A) (A) (A) (A) (A) (A) (A) (A) (A) (A) (A)
                 (A) (A) (A) (A) (A) (A) (A) (A) (A) (A) (A) (A)
                 (A) (A) (A) (A) (A) (A) (A) (A) (A) (A) (A) (A)
                 (A) (A) (A) (A) (A) (A) (A) (A) (A) (A) (A) (A)
                 (A) (A) (A) (A) (A) (A) (A) (A) (A) (A) (A) (A)
                 (A) (A) (A) (A) (A) (A) (A) (A) (A) (A) (A) (A)
                 (A) (A) (A) (A) (A) (A) (A) (A) (A) (A) (A) (A)
                 (A) (A) (A) (A) (A) (A) (A) (A) (A) (A) (A) (A)
                 (A) (A) (A) (A) (A) (A) (A) (A) (A) (A) (A) (A)
                 (A) (A) (A) (A) (A) (A) (A) (A) (A) (A) (A) (A)
                 (A) (A) (A) (A) (A) (A) (A) (A) (A) (A) (A) (A)
                 (A) (A) (A) (A) (A) (A) (A) (A) (A) (A) (A) (A)
                 (A) (A) (A) (A) (A) (A) (A) (A) (A) (A) (A) (A)
                 (A) (A) (A) (A) (A) (A) (A) (A) (A) (A) (A) (A)
                 (A) (A) (A) (A) (A) (A) (A) (A) (A) (A) (A) (A)
                 (A) (A) (A) (A) (A) (A) (A) (A) (A) (A) (A) (A)
                 (A) (A) (A) (A) (A) (A) (A) (A) (A) (A) (A) (A)
                 (A) (A) (A) (A) (A)
 The electronic state is 1-A.
 Alpha  occ. eigenvalues --  -18.87224 -18.87220 -18.87167 -18.87098 -14.10491
 Alpha  occ. eigenvalues --  -14.10437 -10.03610 -10.03609 -10.03550 -10.03482
 Alpha  occ. eigenvalues --  -10.01291 -10.01265 -10.01215 -10.01210 -10.01158
 Alpha  occ. eigenvalues --  -10.01118  -9.98213  -9.98208  -9.98156  -9.98087
 Alpha  occ. eigenvalues --   -9.98043  -9.98040  -9.97979  -9.97926  -9.97876
 Alpha  occ. eigenvalues --   -9.97875  -9.97822  -9.97762  -9.97706  -9.97692
 Alpha  occ. eigenvalues --   -9.97582  -9.97581  -9.97524  -9.97465  -9.97160
 Alpha  occ. eigenvalues --   -9.97153  -9.97148  -9.97146  -9.96932  -9.96927
 Alpha  occ. eigenvalues --   -9.96924  -9.96918  -1.06549  -1.06546  -1.06490
 Alpha  occ. eigenvalues --   -1.06422  -0.97524  -0.97467  -0.87910  -0.87469
 Alpha  occ. eigenvalues --   -0.87387  -0.86876  -0.85877  -0.84773  -0.79511
 Alpha  occ. eigenvalues --   -0.77853  -0.77803  -0.77692  -0.77319  -0.77247
 Alpha  occ. eigenvalues --   -0.77069  -0.76330  -0.75940  -0.75726  -0.73661
 Alpha  occ. eigenvalues --   -0.71668  -0.67428  -0.66736  -0.66164  -0.65956
 Alpha  occ. eigenvalues --   -0.65509  -0.64832  -0.64411  -0.63786  -0.62723
 Alpha  occ. eigenvalues --   -0.61940  -0.61276  -0.60126  -0.58572  -0.58489
 Alpha  occ. eigenvalues --   -0.58452  -0.58411  -0.57351  -0.56785  -0.56288
 Alpha  occ. eigenvalues --   -0.55886  -0.53582  -0.52225  -0.52014  -0.50843
 Alpha  occ. eigenvalues --   -0.50517  -0.50186  -0.48515  -0.48330  -0.48263
 Alpha  occ. eigenvalues --   -0.48213  -0.47719  -0.47609  -0.47377  -0.46571
 Alpha  occ. eigenvalues --   -0.46541  -0.46463  -0.46317  -0.45991  -0.45822
 Alpha  occ. eigenvalues --   -0.45693  -0.45447  -0.45330  -0.45220  -0.45126
 Alpha  occ. eigenvalues --   -0.44845  -0.43998  -0.43816  -0.43526  -0.42474
 Alpha  occ. eigenvalues --   -0.42387  -0.41972  -0.41662  -0.41366  -0.41298
 Alpha  occ. eigenvalues --   -0.39719  -0.39436  -0.39160  -0.39076  -0.38737
 Alpha  occ. eigenvalues --   -0.38530  -0.38414  -0.38199  -0.38133  -0.37990
 Alpha  occ. eigenvalues --   -0.37294  -0.35100  -0.33449  -0.31792  -0.31730
 Alpha  occ. eigenvalues --   -0.31277  -0.31048  -0.30408  -0.30319  -0.30274
 Alpha  occ. eigenvalues --   -0.28577  -0.28456  -0.28272  -0.23237  -0.21746
 Alpha virt. eigenvalues --    0.00812   0.01395   0.01484   0.03086   0.03176
 Alpha virt. eigenvalues --    0.03380   0.03480   0.03905   0.04303   0.04331
 Alpha virt. eigenvalues --    0.06817   0.07380   0.07436   0.07462   0.07536
 Alpha virt. eigenvalues --    0.08665   0.09841   0.10070   0.10853   0.10976
 Alpha virt. eigenvalues --    0.11217   0.11923   0.12330   0.13037   0.13061
 Alpha virt. eigenvalues --    0.13195   0.13357   0.13968   0.13993   0.14505
 Alpha virt. eigenvalues --    0.15279   0.15444   0.16149   0.16359   0.16563
 Alpha virt. eigenvalues --    0.16787   0.16879   0.16995   0.17185   0.17574
 Alpha virt. eigenvalues --    0.17654   0.18149   0.18204   0.18347   0.20038
 Alpha virt. eigenvalues --    0.20101   0.20123   0.20509   0.20701   0.21000
 Alpha virt. eigenvalues --    0.21166   0.21548   0.22189   0.22758   0.22831
 Alpha virt. eigenvalues --    0.23215   0.23344   0.23439   0.24242   0.24844
 Alpha virt. eigenvalues --    0.25029   0.25339   0.25478   0.25851   0.26129
 Alpha virt. eigenvalues --    0.26329   0.26518   0.26930   0.27115   0.27317
 Alpha virt. eigenvalues --    0.27445   0.27567   0.27735   0.27767   0.27960
 Alpha virt. eigenvalues --    0.28110   0.28126   0.28716   0.29126   0.29226
 Alpha virt. eigenvalues --    0.29470   0.29549   0.29657   0.29887   0.30276
 Alpha virt. eigenvalues --    0.30541   0.30798   0.31106   0.31350   0.31374
 Alpha virt. eigenvalues --    0.31474   0.32208   0.32380   0.32647   0.32924
 Alpha virt. eigenvalues --    0.33207   0.33327   0.33496   0.33761   0.33839
 Alpha virt. eigenvalues --    0.33930   0.34215   0.34340   0.34441   0.35172
 Alpha virt. eigenvalues --    0.35384   0.35712   0.36569   0.36735   0.36836
 Alpha virt. eigenvalues --    0.36899   0.37029   0.37224   0.37376   0.37777
 Alpha virt. eigenvalues --    0.37960   0.38260   0.38344   0.39132   0.39514
 Alpha virt. eigenvalues --    0.39704   0.39899   0.40086   0.40403   0.40541
 Alpha virt. eigenvalues --    0.40950   0.41043   0.41432   0.41520   0.41659
 Alpha virt. eigenvalues --    0.41723   0.41938   0.42063   0.42494   0.42662
 Alpha virt. eigenvalues --    0.42832   0.42883   0.43231   0.43302   0.43414
 Alpha virt. eigenvalues --    0.43504   0.43638   0.43805   0.43860   0.44283
 Alpha virt. eigenvalues --    0.44583   0.44726   0.44925   0.45008   0.45351
 Alpha virt. eigenvalues --    0.45497   0.45678   0.45766   0.46126   0.46908
 Alpha virt. eigenvalues --    0.47152   0.47481   0.47588   0.47684   0.48259
 Alpha virt. eigenvalues --    0.48513   0.48552   0.49170   0.49379   0.49512
 Alpha virt. eigenvalues --    0.49668   0.49921   0.49954   0.50202   0.50345
 Alpha virt. eigenvalues --    0.50475   0.50982   0.51650   0.51799   0.51866
 Alpha virt. eigenvalues --    0.51932   0.52250   0.52487   0.52616   0.52785
 Alpha virt. eigenvalues --    0.52953   0.53205   0.53283   0.53533   0.53865
 Alpha virt. eigenvalues --    0.54271   0.54409   0.54781   0.55400   0.55831
 Alpha virt. eigenvalues --    0.56106   0.56148   0.56570   0.56853   0.57146
 Alpha virt. eigenvalues --    0.58127   0.58259   0.58597   0.58700   0.59339
 Alpha virt. eigenvalues --    0.59462   0.59634   0.59774   0.60027   0.60693
 Alpha virt. eigenvalues --    0.61031   0.61159   0.61487   0.61537   0.61794
 Alpha virt. eigenvalues --    0.61907   0.62025   0.62172   0.62489   0.62742
 Alpha virt. eigenvalues --    0.63125   0.63276   0.64792   0.65482   0.65811
 Alpha virt. eigenvalues --    0.65953   0.66421   0.67139   0.67441   0.68267
 Alpha virt. eigenvalues --    0.68613   0.69228   0.70049   0.70266   0.70569
 Alpha virt. eigenvalues --    0.70802   0.70961   0.71220   0.71254   0.71376
 Alpha virt. eigenvalues --    0.71528   0.71900   0.72769   0.72890   0.72980
 Alpha virt. eigenvalues --    0.73236   0.73656   0.74096   0.74739   0.75030
 Alpha virt. eigenvalues --    0.75226   0.75455   0.75593   0.76161   0.76383
 Alpha virt. eigenvalues --    0.77574   0.77812   0.77989   0.78569   0.79060
 Alpha virt. eigenvalues --    0.79352   0.79801   0.80030   0.80286   0.80760
 Alpha virt. eigenvalues --    0.81326   0.81529   0.82627   0.83412   0.83643
 Alpha virt. eigenvalues --    0.84179   0.84525   0.85173   0.85394   0.86763
 Alpha virt. eigenvalues --    0.86996   0.87757   0.88318   0.88789   0.89114
 Alpha virt. eigenvalues --    0.90457   0.90691   0.91164   0.91640   0.91816
 Alpha virt. eigenvalues --    0.92044   0.93032   0.93364   0.95660   0.97182
 Alpha virt. eigenvalues --    0.97313   0.97371   0.99998   1.00179   1.16826
 Alpha virt. eigenvalues --    1.18413   1.19418   1.19468   1.19540   1.24329
 Alpha virt. eigenvalues --    1.24465   1.24951   1.25176   1.25739   1.25900
 Alpha virt. eigenvalues --    1.26019   1.26229   1.26577   1.27180   1.27210
 Alpha virt. eigenvalues --    1.27448   1.27609   1.27692   1.27926   1.28101
 Alpha virt. eigenvalues --    1.28234   1.28285   1.29568   1.30316   1.30449
 Alpha virt. eigenvalues --    1.30927   1.31198   1.31316   1.31554   1.32068
 Alpha virt. eigenvalues --    1.32290   1.32619   1.33252   1.33482   1.33784
 Alpha virt. eigenvalues --    1.34049   1.34910   1.35026   1.35330   1.35488
 Alpha virt. eigenvalues --    1.35633   1.35956   1.36189   1.36603   1.36751
 Alpha virt. eigenvalues --    1.37072   1.37306   1.37485   1.37712   1.37851
 Alpha virt. eigenvalues --    1.37948   1.38186   1.39314   1.40236   1.40444
 Alpha virt. eigenvalues --    1.41055   1.41188   1.43581   1.43631   1.43655
 Alpha virt. eigenvalues --    1.43763   1.44135   1.44325   1.44497   1.44555
 Alpha virt. eigenvalues --    1.44661   1.44747   1.44931   1.45081   1.45472
 Alpha virt. eigenvalues --    1.45632   1.46182   1.46495   1.46603   1.46761
 Alpha virt. eigenvalues --    1.46840   1.47089   1.47263   1.47505   1.47663
 Alpha virt. eigenvalues --    1.48027   1.48260   1.48787   1.49219   1.49515
 Alpha virt. eigenvalues --    1.49727   1.49799   1.49829   1.50192   1.50324
 Alpha virt. eigenvalues --    1.50523   1.50693   1.50966   1.51155   1.51269
 Alpha virt. eigenvalues --    1.51496   1.51859   1.53253   1.53403   1.54007
 Alpha virt. eigenvalues --    1.54087   1.54443   1.54594   1.54849   1.55015
 Alpha virt. eigenvalues --    1.55061   1.55172   1.55279   1.55345   1.55395
 Alpha virt. eigenvalues --    1.55477   1.55633   1.56230   1.56559   1.56657
 Alpha virt. eigenvalues --    1.56819   1.56882   1.57097   1.57261   1.57777
 Alpha virt. eigenvalues --    1.58112   1.58777   1.58844   1.58963   1.59029
 Alpha virt. eigenvalues --    1.59360   1.59782   1.60179   1.60704   1.60809
 Alpha virt. eigenvalues --    1.61147   1.61339   1.61431   1.62602   1.62949
 Alpha virt. eigenvalues --    1.63066   1.63232   1.63982   1.64734   1.64877
 Alpha virt. eigenvalues --    1.66862   1.67256   1.68068   1.68499   1.69346
 Alpha virt. eigenvalues --    1.69537   1.69819   1.70112   1.71779   1.72642
 Alpha virt. eigenvalues --    1.73948   1.74306   1.74348   1.74908   1.76673
 Alpha virt. eigenvalues --    1.77226   1.77436   1.77809   1.77991   1.78133
 Alpha virt. eigenvalues --    1.78424   1.78629   1.78996   1.79115   1.79558
 Alpha virt. eigenvalues --    1.79786   1.80142   1.80230   1.80498   1.81098
 Alpha virt. eigenvalues --    1.81187   1.81320   1.81596   1.81977   1.82172
 Alpha virt. eigenvalues --    1.82524   1.82546   1.83235   1.83562   1.84137
 Alpha virt. eigenvalues --    1.84785   1.85130   1.85346   1.85795   1.86595
 Alpha virt. eigenvalues --    1.86776   1.87543   1.87584   1.87683   1.88175
 Alpha virt. eigenvalues --    1.88212   1.88643   1.89692   1.90158   1.90590
 Alpha virt. eigenvalues --    1.90735   1.90892   1.91583   1.92269   1.92354
 Alpha virt. eigenvalues --    1.92656   1.92710   1.93178   1.93297   1.93520
 Alpha virt. eigenvalues --    1.93669   1.93838   1.94521   1.94615   1.94952
 Alpha virt. eigenvalues --    1.95119   1.95408   1.96437   1.96715   1.97300
 Alpha virt. eigenvalues --    1.98209   1.98287   1.99219   2.00186   2.00298
 Alpha virt. eigenvalues --    2.00364   2.00996   2.01141   2.01429   2.01720
 Alpha virt. eigenvalues --    2.02103   2.02219   2.02661   2.03340   2.03685
 Alpha virt. eigenvalues --    2.04070   2.04890   2.05111   2.06526   2.06593
 Alpha virt. eigenvalues --    2.07947   2.08676   2.09093   2.09241   2.09631
 Alpha virt. eigenvalues --    2.10009   2.10455   2.10536   2.11109   2.12250
 Alpha virt. eigenvalues --    2.12699   2.15637   2.16766   2.17633   2.18068
 Alpha virt. eigenvalues --    2.19562   2.19691   2.19798   2.20277   2.20435
 Alpha virt. eigenvalues --    2.21505   2.21837   2.22061   2.22210   2.23176
 Alpha virt. eigenvalues --    2.24003   2.24141   2.24983   2.25163   2.25219
 Alpha virt. eigenvalues --    2.26275   2.28312   2.28403   2.30447   2.30598
 Alpha virt. eigenvalues --    2.31041   2.31335   2.31386   2.31477   2.31700
 Alpha virt. eigenvalues --    2.31789   2.31986   2.32326   2.32544   2.32823
 Alpha virt. eigenvalues --    2.33215   2.33451   2.33900   2.34300   2.34596
 Alpha virt. eigenvalues --    2.34710   2.34867   2.35128   2.35882   2.35976
 Alpha virt. eigenvalues --    2.36307   2.36626   2.37500   2.37552   2.37663
 Alpha virt. eigenvalues --    2.37814   2.37929   2.38092   2.38216   2.38282
 Alpha virt. eigenvalues --    2.38476   2.38563   2.38620   2.38938   2.39531
 Alpha virt. eigenvalues --    2.39628   2.40122   2.40545   2.42173   2.44185
 Alpha virt. eigenvalues --    2.44740   2.45077   2.47025   2.48073   2.48209
 Alpha virt. eigenvalues --    2.48417   2.48446   2.48536   2.49602   2.50314
 Alpha virt. eigenvalues --    2.53171   2.53259   2.54402   2.54936   2.56575
 Alpha virt. eigenvalues --    2.56684   2.56991   2.57140   2.57497   2.59035
 Alpha virt. eigenvalues --    2.59236   2.59471   2.59816   2.60535   2.60782
 Alpha virt. eigenvalues --    2.60891   2.61198   2.61430   2.61570   2.62017
 Alpha virt. eigenvalues --    2.62252   2.62595   2.64274   2.64484   2.64783
 Alpha virt. eigenvalues --    2.64830   2.64934   2.65707   2.65961   2.66643
 Alpha virt. eigenvalues --    2.67009   2.68286   2.68565   2.69420   2.70028
 Alpha virt. eigenvalues --    2.70254   2.70779   2.71649   2.73523   2.73666
 Alpha virt. eigenvalues --    2.74067   2.74264   2.75714   2.76415   2.76678
 Alpha virt. eigenvalues --    2.77416   2.77749   2.78592   2.79248   2.79350
 Alpha virt. eigenvalues --    2.79890   2.81338   2.82787   2.83344   2.83854
 Alpha virt. eigenvalues --    2.84033   2.85112   2.85695   2.86062   2.86275
 Alpha virt. eigenvalues --    2.86524   2.86783   2.88332   2.89150   2.92738
 Alpha virt. eigenvalues --    2.92797   2.92814   2.92955   2.93654   2.93879
 Alpha virt. eigenvalues --    2.94113   2.94483   2.95745   2.95974   2.96396
 Alpha virt. eigenvalues --    2.97251   2.98150   2.98191   2.98234   2.98287
 Alpha virt. eigenvalues --    3.00006   3.00234   3.01128   3.01260   3.03713
 Alpha virt. eigenvalues --    3.04040   3.04055   3.04308   3.04376   3.04696
 Alpha virt. eigenvalues --    3.05779   3.06284   3.07299   3.07551   3.08624
 Alpha virt. eigenvalues --    3.08835   3.09074   3.09388   3.11045   3.12400
 Alpha virt. eigenvalues --    3.12808   3.12871   3.13030   3.14049   3.14494
 Alpha virt. eigenvalues --    3.14594   3.14693   3.14856   3.17858   3.18095
 Alpha virt. eigenvalues --    3.18376   3.18740   3.18758   3.20107   3.22476
 Alpha virt. eigenvalues --    3.22838   3.23187   3.23266   3.23481   3.23858
 Alpha virt. eigenvalues --    3.24303   3.24739   3.24787   3.26203   3.26760
 Alpha virt. eigenvalues --    3.27823   3.28354   3.28728   3.30733   3.30988
 Alpha virt. eigenvalues --    3.31072   3.32752   3.33484   3.35347   3.35718
 Alpha virt. eigenvalues --    3.37254   3.37659   3.38319   3.38335   3.38492
 Alpha virt. eigenvalues --    3.40663   3.41457   3.41520   3.45433   3.45751
 Alpha virt. eigenvalues --    3.52419   3.52561   3.54296   3.55502   3.56099
 Alpha virt. eigenvalues --    3.57208   3.57420   3.57473   3.58597   3.60896
 Alpha virt. eigenvalues --    3.69460   3.72748   3.83222   3.83387   3.86952
 Alpha virt. eigenvalues --    3.91245   4.05061   4.05121   4.05840   4.05962
 Alpha virt. eigenvalues --    4.29413   4.29495   4.29502   4.29586  21.15030
 Alpha virt. eigenvalues --   21.22685  21.22780  21.24206  21.24529  21.35680
 Alpha virt. eigenvalues --   21.66873  21.67055  21.67261  21.70034  21.70455
 Alpha virt. eigenvalues --   21.70842  21.73595  21.74764  21.77316  21.81813
 Alpha virt. eigenvalues --   21.82340  21.88437  21.88766  21.92786  21.92938
 Alpha virt. eigenvalues --   21.93572  21.94843  21.95579  21.96067  21.98239
 Alpha virt. eigenvalues --   22.00072  22.00384  22.00491  22.01979  22.06393
 Alpha virt. eigenvalues --   22.07204  22.12300  22.13498  22.14130  22.14723
 Alpha virt. eigenvalues --   32.03775  32.04791  43.22244  43.22356  43.22454
 Alpha virt. eigenvalues --   43.22532
          Condensed to atoms (all electrons):
 Mulliken charges:
               1
     1  C   -0.147862
     2  C    0.018546
     3  C   -0.148241
     4  C   -0.147803
     5  C    0.030381
     6  C   -0.148220
     7  H    0.116940
     8  H    0.142177
     9  H    0.118599
    10  C    0.030693
    11  C   -0.148375
    12  C   -0.147874
    13  C   -0.145193
    14  C   -0.148991
    15  C    0.013792
    16  H    0.118291
    17  H    0.118422
    18  H    0.142215
    19  H    0.141264
    20  H    0.141892
    21  N    0.004597
    22  C   -0.112427
    23  C   -0.059549
    24  C   -0.084700
    25  C   -0.200087
    26  C   -0.172718
    27  C    0.119232
    28  H    0.132116
    29  H    0.140576
    30  H    0.115208
    31  H    0.104774
    32  C   -0.106515
    33  C   -0.081001
    34  C   -0.067958
    35  C   -0.170027
    36  C   -0.196865
    37  C    0.116153
    38  H    0.133947
    39  H    0.139166
    40  H    0.105294
    41  H    0.115439
    42  N    0.005458
    43  C   -0.115443
    44  C   -0.080308
    45  C   -0.062316
    46  C   -0.170921
    47  C   -0.197905
    48  C    0.116820
    49  H    0.133334
    50  H    0.138838
    51  H    0.105533
    52  H    0.115418
    53  C   -0.113799
    54  C   -0.080999
    55  C   -0.063527
    56  C   -0.170901
    57  C   -0.197829
    58  C    0.116622
    59  H    0.133342
    60  H    0.139374
    61  H    0.105392
    62  H    0.115610
    63  O   -0.242588
    64  H    0.268376
    65  O   -0.242568
    66  H    0.268453
    67  O   -0.242914
    68  H    0.268449
    69  O   -0.242717
    70  H    0.268412
 Sum of Mulliken charges =  -0.00000
 Mulliken charges with hydrogens summed into heavy atoms:
               1
     1  C   -0.005970
     2  C    0.018546
     3  C   -0.031301
     4  C   -0.005626
     5  C    0.030381
     6  C   -0.029621
    10  C    0.030693
    11  C   -0.030084
    12  C   -0.029453
    13  C   -0.002978
    14  C   -0.007727
    15  C    0.013792
    21  N    0.004597
    22  C   -0.112427
    23  C    0.072567
    24  C    0.055876
    25  C   -0.084879
    26  C   -0.067945
    27  C    0.119232
    32  C   -0.106515
    33  C    0.052945
    34  C    0.071208
    35  C   -0.064732
    36  C   -0.081426
    37  C    0.116153
    42  N    0.005458
    43  C   -0.115443
    44  C    0.053027
    45  C    0.076522
    46  C   -0.065388
    47  C   -0.082487
    48  C    0.116820
    53  C   -0.113799
    54  C    0.052342
    55  C    0.075847
    56  C   -0.065510
    57  C   -0.082218
    58  C    0.116622
    63  O    0.025787
    65  O    0.025884
    67  O    0.025535
    69  O    0.025695
 Electronic spatial extent (au):  <R**2>=          43189.1768
 Charge=              0.0000 electrons
 Dipole moment (field-independent basis, Debye):
    X=              1.6727    Y=             -0.4198    Z=              2.0402  Tot=              2.6714
 Quadrupole moment (field-independent basis, Debye-Ang):
   XX=           -190.1771   YY=           -232.5475   ZZ=           -241.9512
   XY=             -5.2259   XZ=            -14.6329   YZ=            -11.9974
 Traceless Quadrupole moment (field-independent basis, Debye-Ang):
   XX=             31.3815   YY=            -10.9889   ZZ=            -20.3926
   XY=             -5.2259   XZ=            -14.6329   YZ=            -11.9974
 Octapole moment (field-independent basis, Debye-Ang**2):
  XXX=            344.1786  YYY=            -38.5728  ZZZ=             14.7440  XYY=             10.8505
  XXY=            120.7671  XXZ=            101.5228  XZZ=            -48.5098  YZZ=            -34.6174
  YYZ=             66.5681  XYZ=            -66.4811
 Hexadecapole moment (field-independent basis, Debye-Ang**3):
 XXXX=         -41370.7639 YYYY=          -8990.3140 ZZZZ=          -1565.1676 XXXY=          -1596.6816
 XXXZ=           -666.3006 YYYX=             74.3595 YYYZ=           -369.1688 ZZZX=           -115.0731
 ZZZY=            -81.8612 XXYY=          -8203.2348 XXZZ=          -8466.4166 YYZZ=          -1733.8106
 XXYZ=           -590.7987 YYXZ=           -475.1267 ZZXY=            257.1936
 N-N= 4.158510416716D+03 E-N=-1.250574776621D+04  KE= 1.789664533981D+03
 No NMR shielding tensors so no spin-rotation constants.
 Leave Link  601 at Mon Jan 18 07:16:52 2021, MaxMem=  4026531840 cpu:               5.7 elap:               0.8
 (Enter /opt/ohpc/pub/libs/gaussian/g16-A.03/sandybridge/g16/l9999.exe)

 Test job not archived.
 1\1\GINC-CASCADEB037\SP\RLC-wHPBE\TZVP\C36H28N2O4\RDU230\18-Jan-2021\0
 \\#P LC-wHPBE/TZVP iop(3/107=0156200000, 3/108=0156200000) scf=(conver
 =6,fermi,ndamp=35,noincfock,novaracc,vshift=500,xqc)\\H28 C36 N2 O4\\0
 ,1\C,0,2.858499,1.142103,-0.374244\C,0,3.579312,-0.001087,0.003359\C,0
 ,1.469111,1.138314,-0.362939\C,0,2.858875,-1.143435,0.384264\C,0,0.739
 097,0.000512,0.009817\C,0,1.469477,-1.138129,0.379362\H,0,0.937192,2.0
 33473,-0.688815\H,0,3.397761,-2.037798,0.696269\H,0,0.938071,-2.032504
 ,0.708142\C,0,-0.742883,0.001384,0.012974\C,0,-1.474511,-1.130858,-0.3
 72988\C,0,-1.47149,1.134716,0.402503\C,0,-2.8641,-1.134318,-0.378218\C
 ,0,-2.860735,1.140009,0.413286\C,0,-3.582937,0.003346,0.018716\H,0,-0.
 94411,-2.02123,-0.714069\H,0,-0.938347,2.023708,0.742945\H,0,-3.404263
 ,-2.023625,-0.702274\H,0,-3.398798,2.029064,0.741639\H,0,3.397024,2.03
 5914,-0.688457\N,0,-4.995311,0.005703,0.022721\C,0,-5.713915,1.18551,-
 0.315496\C,0,-6.824749,1.586223,0.439679\C,0,-5.336499,1.964565,-1.414
 395\C,0,-7.543368,2.726588,0.103607\C,0,-6.037549,3.122582,-1.739703\C
 ,0,-7.148838,3.50571,-0.986012\H,0,-7.129554,0.987536,1.298124\H,0,-4.
 477812,1.664402,-2.014832\H,0,-8.408278,3.036049,0.689802\H,0,-5.72457
 ,3.720924,-2.59898\C,0,-5.717056,-1.178925,0.336296\C,0,-6.821807,-1.5
 65845,-0.429047\C,0,-5.346761,-1.975943,1.428789\C,0,-7.543924,-2.7122
 98,-0.10728\C,0,-6.0478,-3.134194,1.738027\C,0,-7.155651,-3.506391,0.9
 73222\H,0,-7.124426,-0.956025,-1.280239\H,0,-4.491517,-1.682511,2.0375
 55\H,0,-8.407549,-2.995534,-0.714075\H,0,-5.757368,-3.754511,2.585554\
 N,0,4.991423,-0.001999,0.00006\C,0,5.710552,-1.183762,-0.330631\C,0,6.
 812654,-1.584277,0.431608\C,0,5.340603,-1.964026,-1.435102\C,0,7.53257
 2,-2.727778,0.095183\C,0,6.039551,-3.119564,-1.759528\C,0,7.144632,-3.
 505373,-0.997606\H,0,7.113605,-0.987752,1.292811\H,0,4.486562,-1.66032
 3,-2.040543\H,0,8.393358,-3.022713,0.700462\H,0,5.749024,-3.727528,-2.
 615933\C,0,5.713955,1.17869,0.326778\C,0,6.814458,1.575861,-0.439552\C
 ,0,5.349314,1.961286,1.431414\C,0,7.537888,2.718318,-0.107058\C,0,6.05
 1756,3.115796,1.751909\C,0,7.155153,3.498257,0.985865\H,0,7.111509,0.9
 77436,-1.300789\H,0,4.49683,1.660119,2.040298\H,0,8.397429,3.010471,-0
 .715458\H,0,5.765438,3.72535,2.608604\O,0,7.820509,4.641023,1.355507\H
 ,0,8.555246,4.78867,0.739309\O,0,7.806379,-4.648952,-1.371018\H,0,8.54
 1702,-4.800061,-0.75635\O,0,-7.887404,4.628973,-1.265636\H,0,-7.503413
 ,5.071476,-2.03899\O,0,-7.819547,-4.653451,1.332021\H,0,-8.560354,-4.7
 90553,0.720672\\Version=EM64L-G16RevA.03\State=1-A\HF=-1797.9375503\RM
 SD=9.977e-07\Dipole=0.6581059,0.165146,-0.8026704\Quadrupole=23.331379
 5,-8.1699868,-15.1613928,3.88532,10.879176,-8.9197864\PG=C01 [X(C36H28
 N2O4)]\\@


 YOU CANNOT THROW TO THE GROUND THE LETTERS OF
 THE GREEK ALPHABET AND PICK UP THE ILIAD.
        - RUFUS CHOATE, 1799-1859
 Job cpu time:       0 days  2 hours 14 minutes 28.9 seconds.
 Elapsed time:       0 days  0 hours 17 minutes  3.3 seconds.
 File lengths (MBytes):  RWF=    332 Int=      0 D2E=      0 Chk=     60 Scr=      8
 Normal termination of Gaussian 16 at Mon Jan 18 07:16:52 2021.
