 Entering Gaussian System, Link 0=g16
 Input=mol_bp_ma_whol_tune_c2.gjf
 Output=mol_bp_ma_whol_tune_c2.log
 Initial command:
 /opt/ohpc/pub/libs/gaussian/g16-A.03/sandybridge/g16/l1.exe "/mnt/gpfs2_4m/scratch/rdu230/ondemand/projects/init_structures/wtuning/mol_bp_ma_whol/tuning_mol_bp_ma_whol_ocycle0/Gau-450110.inp" -scrdir="/mnt/gpfs2_4m/scratch/rdu230/ondemand/projects/init_structures/wtuning/mol_bp_ma_whol/tuning_mol_bp_ma_whol_ocycle0/"
 Entering Link 1 = /opt/ohpc/pub/libs/gaussian/g16-A.03/sandybridge/g16/l1.exe PID=    450111.
  
 Copyright (c) 1988,1990,1992,1993,1995,1998,2003,2009,2016,
            Gaussian, Inc.  All Rights Reserved.
  
 This is part of the Gaussian(R) 16 program.  It is based on
 the Gaussian(R) 09 system (copyright 2009, Gaussian, Inc.),
 the Gaussian(R) 03 system (copyright 2003, Gaussian, Inc.),
 the Gaussian(R) 98 system (copyright 1998, Gaussian, Inc.),
 the Gaussian(R) 94 system (copyright 1995, Gaussian, Inc.),
 the Gaussian 92(TM) system (copyright 1992, Gaussian, Inc.),
 the Gaussian 90(TM) system (copyright 1990, Gaussian, Inc.),
 the Gaussian 88(TM) system (copyright 1988, Gaussian, Inc.),
 the Gaussian 86(TM) system (copyright 1986, Carnegie Mellon
 University), and the Gaussian 82(TM) system (copyright 1983,
 Carnegie Mellon University). Gaussian is a federally registered
 trademark of Gaussian, Inc.
  
 This software contains proprietary and confidential information,
 including trade secrets, belonging to Gaussian, Inc.
  
 This software is provided under written license and may be
 used, copied, transmitted, or stored only in accord with that
 written license.
  
 The following legend is applicable only to US Government
 contracts under FAR:
  
                    RESTRICTED RIGHTS LEGEND
  
 Use, reproduction and disclosure by the US Government is
 subject to restrictions as set forth in subparagraphs (a)
 and (c) of the Commercial Computer Software - Restricted
 Rights clause in FAR 52.227-19.
  
 Gaussian, Inc.
 340 Quinnipiac St., Bldg. 40, Wallingford CT 06492
  
  
 ---------------------------------------------------------------
 Warning -- This program may not be used in any manner that
 competes with the business of Gaussian, Inc. or will provide
 assistance to any competitor of Gaussian, Inc.  The licensee
 of this program is prohibited from giving any competitor of
 Gaussian, Inc. access to this program.  By using this program,
 the user acknowledges that Gaussian, Inc. is engaged in the
 business of creating and licensing software in the field of
 computational chemistry and represents and warrants to the
 licensee that it is not a competitor of Gaussian, Inc. and that
 it will not use this program in any manner prohibited above.
 ---------------------------------------------------------------
  

 Cite this work as:
 Gaussian 16, Revision A.03,
 M. J. Frisch, G. W. Trucks, H. B. Schlegel, G. E. Scuseria, 
 M. A. Robb, J. R. Cheeseman, G. Scalmani, V. Barone, 
 G. A. Petersson, H. Nakatsuji, X. Li, M. Caricato, A. V. Marenich, 
 J. Bloino, B. G. Janesko, R. Gomperts, B. Mennucci, H. P. Hratchian, 
 J. V. Ortiz, A. F. Izmaylov, J. L. Sonnenberg, D. Williams-Young, 
 F. Ding, F. Lipparini, F. Egidi, J. Goings, B. Peng, A. Petrone, 
 T. Henderson, D. Ranasinghe, V. G. Zakrzewski, J. Gao, N. Rega, 
 G. Zheng, W. Liang, M. Hada, M. Ehara, K. Toyota, R. Fukuda, 
 J. Hasegawa, M. Ishida, T. Nakajima, Y. Honda, O. Kitao, H. Nakai, 
 T. Vreven, K. Throssell, J. A. Montgomery, Jr., J. E. Peralta, 
 F. Ogliaro, M. J. Bearpark, J. J. Heyd, E. N. Brothers, K. N. Kudin, 
 V. N. Staroverov, T. A. Keith, R. Kobayashi, J. Normand, 
 K. Raghavachari, A. P. Rendell, J. C. Burant, S. S. Iyengar, 
 J. Tomasi, M. Cossi, J. M. Millam, M. Klene, C. Adamo, R. Cammi, 
 J. W. Ochterski, R. L. Martin, K. Morokuma, O. Farkas, 
 J. B. Foresman, and D. J. Fox, Gaussian, Inc., Wallingford CT, 2016.
 
 ******************************************
 Gaussian 16:  EM64L-G16RevA.03 25-Dec-2016
                18-Jan-2021 
 ******************************************
 %mem=30GB
 %nproc=8
 Will use up to    8 processors via shared memory.
 ----------------------------------------------------------------------
 #P LC-wHPBE/TZVP iop(3/107=0156200000, 3/108=0156200000) scf=(conver=6
 ,fermi,ndamp=35,noincfock,novaracc,vshift=500,xqc)
 ----------------------------------------------------------------------
 1/38=1,172=1/1;
 2/12=2,17=6,18=5,40=1/2;
 3/5=19,7=101,11=2,25=1,30=1,74=-71,107=156200000,108=156200000/1,2,3;
 4//1;
 5/5=100002,6=6,8=3,10=500,13=1,18=-1,22=13,38=1,93=35/2,8;
 6/7=2,8=2,9=2,10=2,28=1/1;
 99/5=1,9=1/99;
 Leave Link    1 at Mon Jan 18 07:16:53 2021, MaxMem=  4026531840 cpu:               0.9 elap:               0.2
 (Enter /opt/ohpc/pub/libs/gaussian/g16-A.03/sandybridge/g16/l101.exe)
 -------------
 H28 C36 N2 O4
 -------------
 Symbolic Z-matrix:
 Charge =  1 Multiplicity = 2
 C                     2.8585    1.1421   -0.37424 
 C                     3.57931  -0.00109   0.00336 
 C                     1.46911   1.13831  -0.36294 
 C                     2.85888  -1.14343   0.38426 
 C                     0.7391    0.00051   0.00982 
 C                     1.46948  -1.13813   0.37936 
 H                     0.93719   2.03347  -0.68882 
 H                     3.39776  -2.0378    0.69627 
 H                     0.93807  -2.0325    0.70814 
 C                    -0.74288   0.00138   0.01297 
 C                    -1.47451  -1.13086  -0.37299 
 C                    -1.47149   1.13472   0.4025 
 C                    -2.8641   -1.13432  -0.37822 
 C                    -2.86074   1.14001   0.41329 
 C                    -3.58294   0.00335   0.01872 
 H                    -0.94411  -2.02123  -0.71407 
 H                    -0.93835   2.02371   0.74295 
 H                    -3.40426  -2.02363  -0.70227 
 H                    -3.3988    2.02906   0.74164 
 H                     3.39702   2.03591  -0.68846 
 N                    -4.99531   0.0057    0.02272 
 C                    -5.71392   1.18551  -0.3155 
 C                    -6.82475   1.58622   0.43968 
 C                    -5.3365    1.96457  -1.4144 
 C                    -7.54337   2.72659   0.10361 
 C                    -6.03755   3.12258  -1.7397 
 C                    -7.14884   3.50571  -0.98601 
 H                    -7.12955   0.98754   1.29812 
 H                    -4.47781   1.6644   -2.01483 
 H                    -8.40828   3.03605   0.6898 
 H                    -5.72457   3.72092  -2.59898 
 C                    -5.71706  -1.17893   0.3363 
 C                    -6.82181  -1.56585  -0.42905 
 C                    -5.34676  -1.97594   1.42879 
 C                    -7.54392  -2.7123   -0.10728 
 C                    -6.0478   -3.13419   1.73803 
 C                    -7.15565  -3.50639   0.97322 
 H                    -7.12443  -0.95603  -1.28024 
 H                    -4.49152  -1.68251   2.03756 
 H                    -8.40755  -2.99553  -0.71408 
 H                    -5.75737  -3.75451   2.58555 
 N                     4.99142  -0.002     0.00006 
 C                     5.71055  -1.18376  -0.33063 
 C                     6.81265  -1.58428   0.43161 
 C                     5.3406   -1.96403  -1.4351 
 C                     7.53257  -2.72778   0.09518 
 C                     6.03955  -3.11956  -1.75953 
 C                     7.14463  -3.50537  -0.99761 
 H                     7.1136   -0.98775   1.29281 
 H                     4.48656  -1.66032  -2.04054 
 H                     8.39336  -3.02271   0.70046 
 H                     5.74902  -3.72753  -2.61593 
 C                     5.71396   1.17869   0.32678 
 C                     6.81446   1.57586  -0.43955 
 C                     5.34931   1.96129   1.43141 
 C                     7.53789   2.71832  -0.10706 
 C                     6.05176   3.1158    1.75191 
 C                     7.15515   3.49826   0.98587 
 H                     7.11151   0.97744  -1.30079 
 H                     4.49683   1.66012   2.0403 
 H                     8.39743   3.01047  -0.71546 
 H                     5.76544   3.72535   2.6086 
 O                     7.82051   4.64102   1.35551 
 H                     8.55525   4.78867   0.73931 
 O                     7.80638  -4.64895  -1.37102 
 H                     8.5417   -4.80006  -0.75635 
 O                    -7.8874    4.62897  -1.26564 
 H                    -7.50341   5.07148  -2.03899 
 O                    -7.81955  -4.65345   1.33202 
 H                    -8.56035  -4.79055   0.72067 
 
 ITRead=  0  0  0  0  0  0  0  0  0  0  0  0  0  0  0  0  0  0  0  0
 ITRead=  0  0  0  0  0  0  0  0  0  0  0  0  0  0  0  0  0  0  0  0
 ITRead=  0  0  0  0  0  0  0  0  0  0  0  0  0  0  0  0  0  0  0  0
 ITRead=  0  0  0  0  0  0  0  0  0  0
 MicOpt= -1 -1 -1 -1 -1 -1 -1 -1 -1 -1 -1 -1 -1 -1 -1 -1 -1 -1 -1 -1
 MicOpt= -1 -1 -1 -1 -1 -1 -1 -1 -1 -1 -1 -1 -1 -1 -1 -1 -1 -1 -1 -1
 MicOpt= -1 -1 -1 -1 -1 -1 -1 -1 -1 -1 -1 -1 -1 -1 -1 -1 -1 -1 -1 -1
 MicOpt= -1 -1 -1 -1 -1 -1 -1 -1 -1 -1
 NAtoms=     70 NQM=       70 NQMF=       0 NMMI=      0 NMMIF=      0
                NMic=       0 NMicF=      0.
                    Isotopes and Nuclear Properties:
 (Nuclear quadrupole moments (NQMom) in fm**2, nuclear magnetic moments (NMagM)
  in nuclear magnetons)

  Atom         1           2           3           4           5           6           7           8           9          10
 IAtWgt=          12          12          12          12          12          12           1           1           1          12
 AtmWgt=  12.0000000  12.0000000  12.0000000  12.0000000  12.0000000  12.0000000   1.0078250   1.0078250   1.0078250  12.0000000
 NucSpn=           0           0           0           0           0           0           1           1           1           0
 AtZEff=  -0.0000000  -0.0000000  -0.0000000  -0.0000000  -0.0000000  -0.0000000  -0.0000000  -0.0000000  -0.0000000  -0.0000000
 NQMom=    0.0000000   0.0000000   0.0000000   0.0000000   0.0000000   0.0000000   0.0000000   0.0000000   0.0000000   0.0000000
 NMagM=    0.0000000   0.0000000   0.0000000   0.0000000   0.0000000   0.0000000   2.7928460   2.7928460   2.7928460   0.0000000
 AtZNuc=   6.0000000   6.0000000   6.0000000   6.0000000   6.0000000   6.0000000   1.0000000   1.0000000   1.0000000   6.0000000

  Atom        11          12          13          14          15          16          17          18          19          20
 IAtWgt=          12          12          12          12          12           1           1           1           1           1
 AtmWgt=  12.0000000  12.0000000  12.0000000  12.0000000  12.0000000   1.0078250   1.0078250   1.0078250   1.0078250   1.0078250
 NucSpn=           0           0           0           0           0           1           1           1           1           1
 AtZEff=  -0.0000000  -0.0000000  -0.0000000  -0.0000000  -0.0000000  -0.0000000  -0.0000000  -0.0000000  -0.0000000  -0.0000000
 NQMom=    0.0000000   0.0000000   0.0000000   0.0000000   0.0000000   0.0000000   0.0000000   0.0000000   0.0000000   0.0000000
 NMagM=    0.0000000   0.0000000   0.0000000   0.0000000   0.0000000   2.7928460   2.7928460   2.7928460   2.7928460   2.7928460
 AtZNuc=   6.0000000   6.0000000   6.0000000   6.0000000   6.0000000   1.0000000   1.0000000   1.0000000   1.0000000   1.0000000

  Atom        21          22          23          24          25          26          27          28          29          30
 IAtWgt=          14          12          12          12          12          12          12           1           1           1
 AtmWgt=  14.0030740  12.0000000  12.0000000  12.0000000  12.0000000  12.0000000  12.0000000   1.0078250   1.0078250   1.0078250
 NucSpn=           2           0           0           0           0           0           0           1           1           1
 AtZEff=  -0.0000000  -0.0000000  -0.0000000  -0.0000000  -0.0000000  -0.0000000  -0.0000000  -0.0000000  -0.0000000  -0.0000000
 NQMom=    2.0440000   0.0000000   0.0000000   0.0000000   0.0000000   0.0000000   0.0000000   0.0000000   0.0000000   0.0000000
 NMagM=    0.4037610   0.0000000   0.0000000   0.0000000   0.0000000   0.0000000   0.0000000   2.7928460   2.7928460   2.7928460
 AtZNuc=   7.0000000   6.0000000   6.0000000   6.0000000   6.0000000   6.0000000   6.0000000   1.0000000   1.0000000   1.0000000

  Atom        31          32          33          34          35          36          37          38          39          40
 IAtWgt=           1          12          12          12          12          12          12           1           1           1
 AtmWgt=   1.0078250  12.0000000  12.0000000  12.0000000  12.0000000  12.0000000  12.0000000   1.0078250   1.0078250   1.0078250
 NucSpn=           1           0           0           0           0           0           0           1           1           1
 AtZEff=  -0.0000000  -0.0000000  -0.0000000  -0.0000000  -0.0000000  -0.0000000  -0.0000000  -0.0000000  -0.0000000  -0.0000000
 NQMom=    0.0000000   0.0000000   0.0000000   0.0000000   0.0000000   0.0000000   0.0000000   0.0000000   0.0000000   0.0000000
 NMagM=    2.7928460   0.0000000   0.0000000   0.0000000   0.0000000   0.0000000   0.0000000   2.7928460   2.7928460   2.7928460
 AtZNuc=   1.0000000   6.0000000   6.0000000   6.0000000   6.0000000   6.0000000   6.0000000   1.0000000   1.0000000   1.0000000

  Atom        41          42          43          44          45          46          47          48          49          50
 IAtWgt=           1          14          12          12          12          12          12          12           1           1
 AtmWgt=   1.0078250  14.0030740  12.0000000  12.0000000  12.0000000  12.0000000  12.0000000  12.0000000   1.0078250   1.0078250
 NucSpn=           1           2           0           0           0           0           0           0           1           1
 AtZEff=  -0.0000000  -0.0000000  -0.0000000  -0.0000000  -0.0000000  -0.0000000  -0.0000000  -0.0000000  -0.0000000  -0.0000000
 NQMom=    0.0000000   2.0440000   0.0000000   0.0000000   0.0000000   0.0000000   0.0000000   0.0000000   0.0000000   0.0000000
 NMagM=    2.7928460   0.4037610   0.0000000   0.0000000   0.0000000   0.0000000   0.0000000   0.0000000   2.7928460   2.7928460
 AtZNuc=   1.0000000   7.0000000   6.0000000   6.0000000   6.0000000   6.0000000   6.0000000   6.0000000   1.0000000   1.0000000

  Atom        51          52          53          54          55          56          57          58          59          60
 IAtWgt=           1           1          12          12          12          12          12          12           1           1
 AtmWgt=   1.0078250   1.0078250  12.0000000  12.0000000  12.0000000  12.0000000  12.0000000  12.0000000   1.0078250   1.0078250
 NucSpn=           1           1           0           0           0           0           0           0           1           1
 AtZEff=  -0.0000000  -0.0000000  -0.0000000  -0.0000000  -0.0000000  -0.0000000  -0.0000000  -0.0000000  -0.0000000  -0.0000000
 NQMom=    0.0000000   0.0000000   0.0000000   0.0000000   0.0000000   0.0000000   0.0000000   0.0000000   0.0000000   0.0000000
 NMagM=    2.7928460   2.7928460   0.0000000   0.0000000   0.0000000   0.0000000   0.0000000   0.0000000   2.7928460   2.7928460
 AtZNuc=   1.0000000   1.0000000   6.0000000   6.0000000   6.0000000   6.0000000   6.0000000   6.0000000   1.0000000   1.0000000

  Atom        61          62          63          64          65          66          67          68          69          70
 IAtWgt=           1           1          16           1          16           1          16           1          16           1
 AtmWgt=   1.0078250   1.0078250  15.9949146   1.0078250  15.9949146   1.0078250  15.9949146   1.0078250  15.9949146   1.0078250
 NucSpn=           1           1           0           1           0           1           0           1           0           1
 AtZEff=  -0.0000000  -0.0000000  -0.0000000  -0.0000000  -0.0000000  -0.0000000  -0.0000000  -0.0000000  -0.0000000  -0.0000000
 NQMom=    0.0000000   0.0000000   0.0000000   0.0000000   0.0000000   0.0000000   0.0000000   0.0000000   0.0000000   0.0000000
 NMagM=    2.7928460   2.7928460   0.0000000   2.7928460   0.0000000   2.7928460   0.0000000   2.7928460   0.0000000   2.7928460
 AtZNuc=   1.0000000   1.0000000   8.0000000   1.0000000   8.0000000   1.0000000   8.0000000   1.0000000   8.0000000   1.0000000
 Leave Link  101 at Mon Jan 18 07:16:53 2021, MaxMem=  4026531840 cpu:               0.8 elap:               0.1
 (Enter /opt/ohpc/pub/libs/gaussian/g16-A.03/sandybridge/g16/l202.exe)
 Stoichiometry    C36H28N2O4(1+,2)
 Framework group  C1[X(C36H28N2O4)]
 Deg. of freedom   204
 Full point group                 C1      NOp   1
 Largest Abelian subgroup         C1      NOp   1
 Largest concise Abelian subgroup C1      NOp   1
                         Standard orientation:                         
 ---------------------------------------------------------------------
 Center     Atomic      Atomic             Coordinates (Angstroms)
 Number     Number       Type             X           Y           Z
 ---------------------------------------------------------------------
      1          6           0        2.858499   -1.142103    0.374244
      2          6           0        3.579312    0.001087   -0.003359
      3          6           0        1.469111   -1.138314    0.362939
      4          6           0        2.858875    1.143435   -0.384264
      5          6           0        0.739097   -0.000512   -0.009817
      6          6           0        1.469477    1.138129   -0.379362
      7          1           0        0.937192   -2.033473    0.688815
      8          1           0        3.397761    2.037798   -0.696269
      9          1           0        0.938071    2.032504   -0.708142
     10          6           0       -0.742883   -0.001384   -0.012974
     11          6           0       -1.474511    1.130858    0.372988
     12          6           0       -1.471490   -1.134716   -0.402503
     13          6           0       -2.864100    1.134318    0.378218
     14          6           0       -2.860735   -1.140009   -0.413286
     15          6           0       -3.582937   -0.003346   -0.018716
     16          1           0       -0.944110    2.021230    0.714069
     17          1           0       -0.938347   -2.023708   -0.742945
     18          1           0       -3.404263    2.023625    0.702274
     19          1           0       -3.398798   -2.029064   -0.741639
     20          1           0        3.397024   -2.035914    0.688457
     21          7           0       -4.995311   -0.005703   -0.022721
     22          6           0       -5.713915   -1.185510    0.315496
     23          6           0       -6.824749   -1.586223   -0.439679
     24          6           0       -5.336499   -1.964565    1.414395
     25          6           0       -7.543368   -2.726588   -0.103607
     26          6           0       -6.037549   -3.122582    1.739703
     27          6           0       -7.148838   -3.505710    0.986012
     28          1           0       -7.129554   -0.987536   -1.298124
     29          1           0       -4.477812   -1.664402    2.014832
     30          1           0       -8.408278   -3.036049   -0.689802
     31          1           0       -5.724570   -3.720924    2.598980
     32          6           0       -5.717056    1.178925   -0.336296
     33          6           0       -6.821807    1.565845    0.429047
     34          6           0       -5.346761    1.975943   -1.428789
     35          6           0       -7.543924    2.712298    0.107280
     36          6           0       -6.047800    3.134194   -1.738027
     37          6           0       -7.155651    3.506391   -0.973222
     38          1           0       -7.124426    0.956025    1.280239
     39          1           0       -4.491517    1.682511   -2.037555
     40          1           0       -8.407549    2.995534    0.714075
     41          1           0       -5.757368    3.754511   -2.585554
     42          7           0        4.991423    0.001999   -0.000060
     43          6           0        5.710552    1.183762    0.330631
     44          6           0        6.812654    1.584277   -0.431608
     45          6           0        5.340603    1.964026    1.435102
     46          6           0        7.532572    2.727778   -0.095183
     47          6           0        6.039551    3.119564    1.759528
     48          6           0        7.144632    3.505373    0.997606
     49          1           0        7.113605    0.987752   -1.292811
     50          1           0        4.486562    1.660323    2.040543
     51          1           0        8.393358    3.022713   -0.700462
     52          1           0        5.749024    3.727528    2.615933
     53          6           0        5.713955   -1.178690   -0.326778
     54          6           0        6.814458   -1.575861    0.439552
     55          6           0        5.349314   -1.961286   -1.431414
     56          6           0        7.537888   -2.718318    0.107058
     57          6           0        6.051756   -3.115796   -1.751909
     58          6           0        7.155153   -3.498257   -0.985865
     59          1           0        7.111509   -0.977436    1.300789
     60          1           0        4.496830   -1.660119   -2.040298
     61          1           0        8.397429   -3.010471    0.715458
     62          1           0        5.765438   -3.725350   -2.608604
     63          8           0        7.820509   -4.641023   -1.355507
     64          1           0        8.555246   -4.788670   -0.739309
     65          8           0        7.806379    4.648952    1.371018
     66          1           0        8.541702    4.800061    0.756350
     67          8           0       -7.887404   -4.628973    1.265636
     68          1           0       -7.503413   -5.071476    2.038990
     69          8           0       -7.819547    4.653451   -1.332021
     70          1           0       -8.560354    4.790553   -0.720672
 ---------------------------------------------------------------------
 Rotational constants (GHZ):           0.1256812           0.0264942           0.0228634
 Leave Link  202 at Mon Jan 18 07:16:53 2021, MaxMem=  4026531840 cpu:               0.2 elap:               0.0
 (Enter /opt/ohpc/pub/libs/gaussian/g16-A.03/sandybridge/g16/l301.exe)
 Standard basis: TZVP (5D, 7F)
 Ernie: Thresh=  0.10000D-02 Tol=  0.10000D-05 Strict=F.
 There are  1008 symmetry adapted cartesian basis functions of A   symmetry.
 There are   966 symmetry adapted basis functions of A   symmetry.
   966 basis functions,  1694 primitive gaussians,  1008 cartesian basis functions
   145 alpha electrons      144 beta electrons
       nuclear repulsion energy      4158.5104167158 Hartrees.
 IExCor=33909 DFT=T Ex+Corr=LC-wHPBE ExCW=0 ScaHFX=  1.000000
 ScaDFX=  1.000000  1.000000  1.000000  1.000000 ScalE2=  1.000000  1.000000
 IRadAn=      5 IRanWt=     -1 IRanGd=            0 ICorTp=0 IEmpDi=  4
 HFx  wShort=  0.000000 wLong=  0.156200 cFull=  0.000000 cShort=  0.000000 cLong=  1.000000
 DFx  wShort=  0.000000 wLong=  0.156200 cFull=  0.000000 cShort=  1.000000 cLong=  0.000000
 NAtoms=   70 NActive=   70 NUniq=   70 SFac= 1.00D+00 NAtFMM=   60 NAOKFM=T Big=T
 Integral buffers will be    131072 words long.
 Raffenetti 2 integral format.
 Two-electron integral symmetry is turned on.
 Leave Link  301 at Mon Jan 18 07:16:53 2021, MaxMem=  4026531840 cpu:               0.4 elap:               0.1
 (Enter /opt/ohpc/pub/libs/gaussian/g16-A.03/sandybridge/g16/l302.exe)
 NPDir=0 NMtPBC=     1 NCelOv=     1 NCel=       1 NClECP=     1 NCelD=      1
         NCelK=      1 NCelE2=     1 NClLst=     1 CellRange=     0.0.
 One-electron integrals computed using PRISM.
 One-electron integral symmetry used in STVInt
 NBasis=   966 RedAO= T EigKep=  7.09D-06  NBF=   966
 NBsUse=   966 1.00D-06 EigRej= -1.00D+00 NBFU=   966
 Precomputing XC quadrature grid using
 IXCGrd= 4 IRadAn=           5 IRanWt=          -1 IRanGd=           0 AccXCQ= 0.00D+00.
 Generated NRdTot=       0 NPtTot=           0 NUsed=           0 NTot=          32
 NSgBfM=   893   890   890   891   893 MxSgAt=    70 MxSgA2=    70.
 Leave Link  302 at Mon Jan 18 07:16:55 2021, MaxMem=  4026531840 cpu:              20.3 elap:               2.6
 (Enter /opt/ohpc/pub/libs/gaussian/g16-A.03/sandybridge/g16/l303.exe)
 DipDrv:  MaxL=1.
 Leave Link  303 at Mon Jan 18 07:16:56 2021, MaxMem=  4026531840 cpu:               1.3 elap:               0.2
 (Enter /opt/ohpc/pub/libs/gaussian/g16-A.03/sandybridge/g16/l401.exe)
 ExpMin= 9.52D-02 ExpMax= 2.70D+04 ExpMxC= 9.22D+02 IAcc=3 IRadAn=         5 AccDes= 0.00D+00
 Harris functional with IExCor=33909 and IRadAn=       5 diagonalized for initial guess.
 HarFok:  IExCor=33909 AccDes= 0.00D+00 IRadAn=         5 IDoV= 1 UseB2=F ITyADJ=14
 ICtDFT=  3500011 ScaDFX=  1.000000  1.000000  1.000000  1.000000
 FoFCou: FMM=F IPFlag=           0 FMFlag=      100000 FMFlg1=        2001
         NFxFlg=           0 DoJE=T BraDBF=F KetDBF=T FulRan=T
         wScrn=  0.000000 ICntrl=       500 IOpCl=  0 I1Cent=   200000004 NGrid=           0
         NMat0=    1 NMatS0=      1 NMatT0=    0 NMatD0=    1 NMtDS0=    0 NMtDT0=    0
 Petite list used in FoFCou.
 Harris En= -1773.41506114470    
 JPrj=0 DoOrth=F DoCkMO=F.
 Initial guess <Sx>= 0.0000 <Sy>= 0.0000 <Sz>= 0.5000 <S**2>= 0.7500 S= 0.5000
 Leave Link  401 at Mon Jan 18 07:17:07 2021, MaxMem=  4026531840 cpu:              89.7 elap:              11.3
 (Enter /opt/ohpc/pub/libs/gaussian/g16-A.03/sandybridge/g16/l502.exe)
 Integral symmetry usage will be decided dynamically.
 UHF open shell SCF:
 Using DIIS extrapolation, IDIIS=    10.
 NGot=  4026531840 LenX=  4024481942 LenY=  4023464870
 Requested convergence on RMS density matrix=1.00D-06 within  32 cycles.
 Requested convergence on MAX density matrix=1.00D-04.
 Requested convergence on             energy=1.00D-04.
 Virtual orbitals will be shifted by   0.500 hartree.
 No special actions if energy rises.
 Dynamic level shift is on during FON iterations.

 Cycle   1  Pass 1  IDiag  1:
 FoFJK:  IHMeth= 1 ICntrl=       0 DoSepK=T KAlg= 0 I1Cent=           0 FoldK=F
 IRaf=         1 NMat=       1 IRICut=       1 DoRegI=T DoRafI=F ISym2E= 0 IDoP0=0 IntGTp=1.
 FoFCou: FMM=T IPFlag=           0 FMFlag=      100000 FMFlg1=        2001
         NFxFlg=           0 DoJE=T BraDBF=F KetDBF=F FulRan=T
         wScrn=  0.000000 ICntrl=       500 IOpCl=  0 I1Cent=           0 NGrid=           0
         NMat0=    1 NMatS0=      1 NMatT0=    0 NMatD0=    1 NMtDS0=    0 NMtDT0=    0
 Symmetry not used in FoFCou.
 FMM levels:  10  Number of levels for PrismC:   9
 E= -1797.06066143062    
 DIIS: error= 3.13D-02 at cycle   1 NSaved=   1.
 NSaved= 1 IEnMin= 1 EnMin= -1797.06066143062     IErMin= 1 ErrMin= 3.13D-02
 ErrMax= 3.13D-02  0.00D+00 EMaxC= 1.00D+00 BMatC= 2.81D+00 BMatP= 2.81D+00
 IDIUse=1 WtCom= 1.00D+00 WtEn= 0.00D+00
 Coeff-Com:  0.100D+01
 Coeff:      0.100D+01
 Gap=     0.258 Goal=   None    Shift=    0.500
 T= 1521. Gap= 0.717 NK=0 IS=  146 IE=  966 IFin=  145
          NO(<0.9)=   0  NV(>0.1)=   0    145.00e < EF      0.00e >EF  Err=0.0D+00
 Gap=     0.071 Goal=   None    Shift=    0.500
 T= 1521. Gap= 0.546 NK=0 IS=  145 IE=  966 IFin=  144
          NO(<0.9)=   0  NV(>0.1)=   0    144.00e < EF      0.00e >EF  Err=0.0D+00
 GapD=    0.071 DampG=0.500 DampE=0.500 DampFc=0.2500 IDamp=-1.
 Damping current iteration by 2.50D-01
 RMSDP=1.94D-03 MaxDP=1.08D-01              OVMax= 7.41D-02

 Cycle   2  Pass 1  IDiag  1:
 E= -1797.29896346029     Delta-E=       -0.238302029673 Rises=F Damp=T
 DIIS: error= 2.26D-02 at cycle   2 NSaved=   2.
 NSaved= 2 IEnMin= 2 EnMin= -1797.29896346029     IErMin= 2 ErrMin= 2.26D-02
 ErrMax= 2.26D-02  0.00D+00 EMaxC= 1.00D+00 BMatC= 1.28D+00 BMatP= 2.81D+00
 IDIUse=1 WtCom= 1.00D+00 WtEn= 0.00D+00
 Coeff-Com: -0.184D+01 0.284D+01
 Coeff:     -0.184D+01 0.284D+01
 Gap=     0.247 Goal=   None    Shift=    0.500
 T= 1463. Gap= 0.722 NK=0 IS=  146 IE=  966 IFin=  145
          NO(<0.9)=   0  NV(>0.1)=   0    145.00e < EF      0.00e >EF  Err=0.0D+00
 Gap=     0.097 Goal=   None    Shift=    0.500
 T= 1463. Gap= 0.572 NK=0 IS=  145 IE=  966 IFin=  144
          NO(<0.9)=   0  NV(>0.1)=   0    144.00e < EF      0.00e >EF  Err=0.0D+00
 GapD=    0.097 DampG=0.500 DampE=0.500 DampFc=0.2500 IDamp=-1.
 Damping current iteration by 2.50D-01
 RMSDP=1.48D-03 MaxDP=1.17D-01 DE=-2.38D-01 OVMax= 2.50D-02

 Cycle   3  Pass 1  IDiag  1:
 E= -1797.43324289411     Delta-E=       -0.134279433822 Rises=F Damp=T
 DIIS: error= 1.64D-02 at cycle   3 NSaved=   3.
 NSaved= 3 IEnMin= 3 EnMin= -1797.43324289411     IErMin= 3 ErrMin= 1.64D-02
 ErrMax= 1.64D-02  0.00D+00 EMaxC= 1.00D+00 BMatC= 6.54D-01 BMatP= 1.28D+00
 IDIUse=1 WtCom= 1.00D+00 WtEn= 0.00D+00
 Coeff-Com: -0.200D-01-0.242D+01 0.344D+01
 Coeff:     -0.200D-01-0.242D+01 0.344D+01
 Gap=     0.229 Goal=   None    Shift=    0.500
 T= 1348. Gap= 0.727 NK=4 IS=  146 IE=  168 IFin=  145
          NO(<0.9)=   0  NV(>0.1)=   0    145.00e < EF      0.00e >EF  Err=0.0D+00
 Gap=     0.075 Goal=   None    Shift=    0.500
 T= 1348. Gap= 0.573 NK=4 IS=  145 IE=  163 IFin=  144
          NO(<0.9)=   0  NV(>0.1)=   0    144.00e < EF      0.00e >EF  Err=0.0D+00
 GapD=    0.075 DampG=0.500 DampE=0.500 DampFc=0.2500 IDamp=-1.
 Damping current iteration by 2.50D-01
 RMSDP=1.18D-03 MaxDP=1.18D-01 DE=-1.34D-01 OVMax= 9.50D-03

 Cycle   4  Pass 1  IDiag  1:
 E= -1797.51795765399     Delta-E=       -0.084714759880 Rises=F Damp=T
 DIIS: error= 1.22D-02 at cycle   4 NSaved=   4.
 NSaved= 4 IEnMin= 4 EnMin= -1797.51795765399     IErMin= 4 ErrMin= 1.22D-02
 ErrMax= 1.22D-02  0.00D+00 EMaxC= 1.00D+00 BMatC= 3.52D-01 BMatP= 6.54D-01
 IDIUse=1 WtCom= 1.00D+00 WtEn= 0.00D+00
 Coeff-Com:  0.179D+00-0.419D+00-0.259D+01 0.383D+01
 Coeff:      0.179D+00-0.419D+00-0.259D+01 0.383D+01
 Gap=     0.227 Goal=   None    Shift=    0.500
 T= 1158. Gap= 0.727 NK=4 IS=  146 IE=  168 IFin=  145
          NO(<0.9)=   0  NV(>0.1)=   0    145.00e < EF      0.00e >EF  Err=0.0D+00
 Gap=     0.074 Goal=   None    Shift=    0.500
 T= 1158. Gap= 0.574 NK=4 IS=  145 IE=  163 IFin=  144
          NO(<0.9)=   0  NV(>0.1)=   0    144.00e < EF      0.00e >EF  Err=0.0D+00
 GapD=    0.074 DampG=0.500 DampE=0.500 DampFc=0.2500 IDamp=-1.
 Damping current iteration by 2.50D-01
 RMSDP=9.02D-04 MaxDP=9.48D-02 DE=-8.47D-02 OVMax= 9.16D-03

 Cycle   5  Pass 1  IDiag  1:
 E= -1797.57462699641     Delta-E=       -0.056669342415 Rises=F Damp=T
 DIIS: error= 9.12D-03 at cycle   5 NSaved=   5.
 NSaved= 5 IEnMin= 5 EnMin= -1797.57462699641     IErMin= 5 ErrMin= 9.12D-03
 ErrMax= 9.12D-03  0.00D+00 EMaxC= 1.00D+00 BMatC= 1.95D-01 BMatP= 3.52D-01
 IDIUse=1 WtCom= 1.00D+00 WtEn= 0.00D+00
 Coeff-Com:  0.819D-01 0.186D-01-0.581D+00-0.223D+01 0.371D+01
 Coeff:      0.819D-01 0.186D-01-0.581D+00-0.223D+01 0.371D+01
 Gap=     0.227 Goal=   None    Shift=    0.500
 T=  974. Gap= 0.727 NK=4 IS=  146 IE=  168 IFin=  145
          NO(<0.9)=   0  NV(>0.1)=   0    145.00e < EF      0.00e >EF  Err=0.0D+00
 Gap=     0.075 Goal=   None    Shift=    0.500
 T=  974. Gap= 0.575 NK=4 IS=  145 IE=  163 IFin=  144
          NO(<0.9)=   0  NV(>0.1)=   0    144.00e < EF      0.00e >EF  Err=0.0D+00
 GapD=    0.075 DampG=0.500 DampE=1.000 DampFc=0.5000 IDamp=-1.
 Damping current iteration by 5.00D-01
 RMSDP=6.83D-04 MaxDP=7.33D-02 DE=-5.67D-02 OVMax= 8.36D-03

 Cycle   6  Pass 1  IDiag  1:
 E= -1797.65062482326     Delta-E=       -0.075997826848 Rises=F Damp=T
 DIIS: error= 4.57D-03 at cycle   6 NSaved=   6.
 NSaved= 6 IEnMin= 6 EnMin= -1797.65062482326     IErMin= 6 ErrMin= 4.57D-03
 ErrMax= 4.57D-03  0.00D+00 EMaxC= 1.00D+00 BMatC= 4.81D-02 BMatP= 1.95D-01
 IDIUse=1 WtCom= 1.00D+00 WtEn= 0.00D+00
 Coeff-Com: -0.197D-01 0.115D+00 0.302D+00-0.240D+00-0.173D+01 0.257D+01
 Coeff:     -0.197D-01 0.115D+00 0.302D+00-0.240D+00-0.173D+01 0.257D+01
 Gap=     0.228 Goal=   None    Shift=    0.500
 T=  748. Gap= 0.728 NK=4 IS=  146 IE=  168 IFin=  145
          NO(<0.9)=   0  NV(>0.1)=   0    145.00e < EF      0.00e >EF  Err=0.0D+00
 Gap=     0.076 Goal=   None    Shift=    0.500
 T=  748. Gap= 0.576 NK=4 IS=  145 IE=  163 IFin=  144
          NO(<0.9)=   0  NV(>0.1)=   0    144.00e < EF      0.00e >EF  Err=0.0D+00
 GapD=    0.076 DampG=0.500 DampE=1.000 DampFc=0.5000 IDamp=-1.
 Damping current iteration by 5.00D-01
 RMSDP=3.48D-04 MaxDP=3.68D-02 DE=-7.60D-02 OVMax= 8.17D-03

 Cycle   7  Pass 1  IDiag  1:
 E= -1797.68500988286     Delta-E=       -0.034385059603 Rises=F Damp=T
 DIIS: error= 2.29D-03 at cycle   7 NSaved=   7.
 NSaved= 7 IEnMin= 7 EnMin= -1797.68500988286     IErMin= 7 ErrMin= 2.29D-03
 ErrMax= 2.29D-03  0.00D+00 EMaxC= 1.00D+00 BMatC= 1.21D-02 BMatP= 4.81D-02
 IDIUse=1 WtCom= 1.00D+00 WtEn= 0.00D+00
 Coeff-Com: -0.246D-01 0.307D-01 0.227D+00 0.385D+00-0.879D+00-0.142D+01
 Coeff-Com:  0.268D+01
 Coeff:     -0.246D-01 0.307D-01 0.227D+00 0.385D+00-0.879D+00-0.142D+01
 Coeff:      0.268D+01
 Gap=     0.228 Goal=   None    Shift=    0.500
 T=  459. Gap= 0.728 NK=4 IS=  146 IE=  168 IFin=  145
          NO(<0.9)=   0  NV(>0.1)=   0    145.00e < EF      0.00e >EF  Err=0.0D+00
 Gap=     0.076 Goal=   None    Shift=    0.500
 T=  459. Gap= 0.576 NK=4 IS=  145 IE=  163 IFin=  144
          NO(<0.9)=   0  NV(>0.1)=   0    144.00e < EF      0.00e >EF  Err=0.0D+00
 GapD=    0.076 DampG=0.500 DampE=1.000 DampFc=0.5000 IDamp=-1.
 Damping current iteration by 5.00D-01
 RMSDP=1.81D-04 MaxDP=1.82D-02 DE=-3.44D-02 OVMax= 7.52D-03

 Cycle   8  Pass 1  IDiag  1:
 E= -1797.70138273408     Delta-E=       -0.016372851223 Rises=F Damp=T
 DIIS: error= 1.14D-03 at cycle   8 NSaved=   8.
 NSaved= 8 IEnMin= 8 EnMin= -1797.70138273408     IErMin= 8 ErrMin= 1.14D-03
 ErrMax= 1.14D-03  0.00D+00 EMaxC= 1.00D+00 BMatC= 3.07D-03 BMatP= 1.21D-02
 IDIUse=1 WtCom= 1.00D+00 WtEn= 0.00D+00
 Coeff-Com:  0.386D-02-0.622D-01-0.637D-01 0.177D+00 0.970D+00-0.177D+01
 Coeff-Com: -0.230D+01 0.404D+01
 Coeff:      0.386D-02-0.622D-01-0.637D-01 0.177D+00 0.970D+00-0.177D+01
 Coeff:     -0.230D+01 0.404D+01
 Gap=     0.228 Goal=   None    Shift=    0.500
 T=   44. Gap= 0.728 NK=4 IS=  146 IE=  168 IFin=  145
          NO(<0.9)=   0  NV(>0.1)=   0    145.00e < EF      0.00e >EF  Err=0.0D+00
 Gap=     0.077 Goal=   None    Shift=    0.500
 T=   44. Gap= 0.577 NK=4 IS=  145 IE=  163 IFin=  144
          NO(<0.9)=   0  NV(>0.1)=   0    144.00e < EF      0.00e >EF  Err=0.0D+00
 GapD=    0.077 DampG=0.500 DampE=1.000 DampFc=0.5000 IDamp=-1.
 Damping current iteration by 5.00D-01
 RMSDP=1.00D-04 MaxDP=8.76D-03 DE=-1.64D-02 OVMax= 7.86D-03

 Cycle   9  Pass 1  IDiag  1:
 E= -1797.70940694169     Delta-E=       -0.008024207609 Rises=F Damp=T
 DIIS: error= 9.54D-04 at cycle   9 NSaved=   9.
 NSaved= 9 IEnMin= 9 EnMin= -1797.70940694169     IErMin= 9 ErrMin= 9.54D-04
 ErrMax= 9.54D-04  0.00D+00 EMaxC= 1.00D+00 BMatC= 8.05D-04 BMatP= 3.07D-03
 IDIUse=1 WtCom= 1.00D+00 WtEn= 0.00D+00
 Coeff-Com:  0.126D-01-0.294D-01-0.123D+00-0.297D+00 0.109D+01-0.945D-01
 Coeff-Com: -0.155D+01-0.211D+01 0.410D+01
 Coeff:      0.126D-01-0.294D-01-0.123D+00-0.297D+00 0.109D+01-0.945D-01
 Coeff:     -0.155D+01-0.211D+01 0.410D+01
 Gap=     0.228 Goal=   None    Shift=    0.500
 Gap=     0.078 Goal=   None    Shift=    0.500
 RMSDP=6.09D-05 MaxDP=4.32D-03 DE=-8.02D-03 OVMax= 7.58D-03

 Cycle  10  Pass 1  IDiag  1:
 E= -1797.71740412389     Delta-E=       -0.007997182194 Rises=F Damp=F
 DIIS: error= 7.65D-04 at cycle  10 NSaved=  10.
 NSaved=10 IEnMin=10 EnMin= -1797.71740412389     IErMin=10 ErrMin= 7.65D-04
 ErrMax= 7.65D-04  0.00D+00 EMaxC= 1.00D+00 BMatC= 2.74D-05 BMatP= 8.05D-04
 IDIUse=1 WtCom= 1.00D+00 WtEn= 0.00D+00
 Coeff-Com:  0.375D-02 0.800D-02-0.528D-01-0.222D+00 0.302D+00 0.524D+00
 Coeff-Com: -0.679D-01-0.135D+01-0.294D+00 0.215D+01
 Coeff:      0.375D-02 0.800D-02-0.528D-01-0.222D+00 0.302D+00 0.524D+00
 Coeff:     -0.679D-01-0.135D+01-0.294D+00 0.215D+01
 Gap=     0.228 Goal=   None    Shift=    0.500
 Gap=     0.078 Goal=   None    Shift=    0.500
 RMSDP=1.66D-05 MaxDP=1.61D-03 DE=-8.00D-03 OVMax= 6.84D-03

 Cycle  11  Pass 1  IDiag  1:
 E= -1797.71746151455     Delta-E=       -0.000057390660 Rises=F Damp=F
 DIIS: error= 6.70D-04 at cycle  11 NSaved=  11.
 NSaved=11 IEnMin=11 EnMin= -1797.71746151455     IErMin=11 ErrMin= 6.70D-04
 ErrMax= 6.70D-04  0.00D+00 EMaxC= 1.00D+00 BMatC= 2.01D-05 BMatP= 2.74D-05
 IDIUse=1 WtCom= 1.00D+00 WtEn= 0.00D+00
 Coeff-Com: -0.800D-02 0.138D-01 0.437D-01 0.155D+00-0.491D+00 0.502D-03
 Coeff-Com:  0.101D+01 0.179D+01-0.445D+01 0.975D+00 0.197D+01
 Coeff:     -0.800D-02 0.138D-01 0.437D-01 0.155D+00-0.491D+00 0.502D-03
 Coeff:      0.101D+01 0.179D+01-0.445D+01 0.975D+00 0.197D+01
 Gap=     0.228 Goal=   None    Shift=    0.500
 Gap=     0.079 Goal=   None    Shift=    0.500
 RMSDP=1.24D-05 MaxDP=1.04D-03 DE=-5.74D-05 OVMax= 6.06D-03

 Cycle  12  Pass 1  IDiag  1:
 E= -1797.71750189570     Delta-E=       -0.000040381158 Rises=F Damp=F
 DIIS: error= 5.82D-04 at cycle  12 NSaved=  12.
 NSaved=12 IEnMin=12 EnMin= -1797.71750189570     IErMin=12 ErrMin= 5.82D-04
 ErrMax= 5.82D-04  0.00D+00 EMaxC= 1.00D+00 BMatC= 1.42D-05 BMatP= 2.01D-05
 IDIUse=1 WtCom= 1.00D+00 WtEn= 0.00D+00
 Coeff-Com: -0.588D-02-0.148D-01 0.821D-01 0.287D+00-0.495D+00-0.541D+00
 Coeff-Com:  0.614D+00 0.298D+01-0.378D+01-0.391D+00-0.357D+00 0.262D+01
 Coeff:     -0.588D-02-0.148D-01 0.821D-01 0.287D+00-0.495D+00-0.541D+00
 Coeff:      0.614D+00 0.298D+01-0.378D+01-0.391D+00-0.357D+00 0.262D+01
 Gap=     0.228 Goal=   None    Shift=    0.500
 Gap=     0.079 Goal=   None    Shift=    0.500
 RMSDP=1.04D-05 MaxDP=8.62D-04 DE=-4.04D-05 OVMax= 5.52D-03

 Cycle  13  Pass 1  IDiag  1:
 E= -1797.71753101836     Delta-E=       -0.000029122656 Rises=F Damp=F
 DIIS: error= 4.90D-04 at cycle  13 NSaved=  13.
 NSaved=13 IEnMin=13 EnMin= -1797.71753101836     IErMin=13 ErrMin= 4.90D-04
 ErrMax= 4.90D-04  0.00D+00 EMaxC= 1.00D+00 BMatC= 1.03D-05 BMatP= 1.42D-05
 IDIUse=1 WtCom= 1.00D+00 WtEn= 0.00D+00
 Coeff-Com:  0.168D-02-0.264D-01 0.543D-01 0.978D-01-0.670D-01-0.360D+00
 Coeff-Com: -0.207D+00 0.129D+01-0.498D+00-0.326D+00-0.188D+01 0.522D+00
 Coeff-Com:  0.240D+01
 Coeff:      0.168D-02-0.264D-01 0.543D-01 0.978D-01-0.670D-01-0.360D+00
 Coeff:     -0.207D+00 0.129D+01-0.498D+00-0.326D+00-0.188D+01 0.522D+00
 Coeff:      0.240D+01
 Gap=     0.228 Goal=   None    Shift=    0.500
 Gap=     0.080 Goal=   None    Shift=    0.500
 RMSDP=8.64D-06 MaxDP=6.76D-04 DE=-2.91D-05 OVMax= 4.81D-03

 Cycle  14  Pass 1  IDiag  1:
 E= -1797.71755113692     Delta-E=       -0.000020118557 Rises=F Damp=F
 DIIS: error= 4.13D-04 at cycle  14 NSaved=  14.
 NSaved=14 IEnMin=14 EnMin= -1797.71755113692     IErMin=14 ErrMin= 4.13D-04
 ErrMax= 4.13D-04  0.00D+00 EMaxC= 1.00D+00 BMatC= 7.59D-06 BMatP= 1.03D-05
 IDIUse=1 WtCom= 1.00D+00 WtEn= 0.00D+00
 Coeff-Com:  0.333D-02-0.732D-02-0.365D-03-0.483D-01 0.112D+00 0.108D+00
 Coeff-Com: -0.399D+00-0.514D+00 0.113D+01 0.541D+00-0.117D+01-0.191D+01
 Coeff-Com:  0.107D+01 0.209D+01
 Coeff:      0.333D-02-0.732D-02-0.365D-03-0.483D-01 0.112D+00 0.108D+00
 Coeff:     -0.399D+00-0.514D+00 0.113D+01 0.541D+00-0.117D+01-0.191D+01
 Coeff:      0.107D+01 0.209D+01
 Gap=     0.227 Goal=   None    Shift=    0.500
 Gap=     0.080 Goal=   None    Shift=    0.500
 RMSDP=6.54D-06 MaxDP=4.89D-04 DE=-2.01D-05 OVMax= 4.03D-03

 Cycle  15  Pass 1  IDiag  1:
 E= -1797.71756457300     Delta-E=       -0.000013436082 Rises=F Damp=F
 DIIS: error= 3.46D-04 at cycle  15 NSaved=  15.
 NSaved=15 IEnMin=15 EnMin= -1797.71756457300     IErMin=15 ErrMin= 3.46D-04
 ErrMax= 3.46D-04  0.00D+00 EMaxC= 1.00D+00 BMatC= 5.56D-06 BMatP= 7.59D-06
 IDIUse=1 WtCom= 1.00D+00 WtEn= 0.00D+00
 Coeff-Com:  0.190D-02 0.669D-02-0.294D-01-0.487D-01 0.581D-01 0.313D+00
 Coeff-Com: -0.235D+00-0.912D+00 0.859D+00 0.961D+00-0.879D-01-0.234D+01
 Coeff-Com: -0.207D+00 0.107D+01 0.159D+01
 Coeff:      0.190D-02 0.669D-02-0.294D-01-0.487D-01 0.581D-01 0.313D+00
 Coeff:     -0.235D+00-0.912D+00 0.859D+00 0.961D+00-0.879D-01-0.234D+01
 Coeff:     -0.207D+00 0.107D+01 0.159D+01
 Gap=     0.227 Goal=   None    Shift=    0.500
 Gap=     0.080 Goal=   None    Shift=    0.500
 RMSDP=4.81D-06 MaxDP=3.44D-04 DE=-1.34D-05 OVMax= 3.32D-03

 Cycle  16  Pass 1  IDiag  1:
 E= -1797.71757359581     Delta-E=       -0.000009022810 Rises=F Damp=F
 DIIS: error= 2.86D-04 at cycle  16 NSaved=  16.
 NSaved=16 IEnMin=16 EnMin= -1797.71757359581     IErMin=16 ErrMin= 2.86D-04
 ErrMax= 2.86D-04  0.00D+00 EMaxC= 1.00D+00 BMatC= 3.77D-06 BMatP= 5.56D-06
 IDIUse=1 WtCom= 1.00D+00 WtEn= 0.00D+00
 Coeff-Com: -0.215D-02-0.225D-02 0.588D-02 0.130D+00-0.222D+00-0.844D-01
 Coeff-Com:  0.323D+00 0.101D+01-0.186D+01 0.233D+00 0.798D+00 0.991D+00
 Coeff-Com: -0.766D+00-0.237D+01-0.911D+00 0.373D+01
 Coeff:     -0.215D-02-0.225D-02 0.588D-02 0.130D+00-0.222D+00-0.844D-01
 Coeff:      0.323D+00 0.101D+01-0.186D+01 0.233D+00 0.798D+00 0.991D+00
 Coeff:     -0.766D+00-0.237D+01-0.911D+00 0.373D+01
 Gap=     0.227 Goal=   None    Shift=    0.500
 Gap=     0.080 Goal=   None    Shift=    0.500
 RMSDP=4.67D-06 MaxDP=3.79D-04 DE=-9.02D-06 OVMax= 2.91D-03

 Cycle  17  Pass 1  IDiag  1:
 E= -1797.71758010336     Delta-E=       -0.000006507547 Rises=F Damp=F
 DIIS: error= 2.38D-04 at cycle  17 NSaved=  17.
 NSaved=17 IEnMin=17 EnMin= -1797.71758010336     IErMin=17 ErrMin= 2.38D-04
 ErrMax= 2.38D-04  0.00D+00 EMaxC= 1.00D+00 BMatC= 3.05D-06 BMatP= 3.77D-06
 IDIUse=1 WtCom= 1.00D+00 WtEn= 0.00D+00
 Coeff-Com: -0.196D-02-0.675D-02 0.273D-01 0.896D-01-0.158D+00-0.219D+00
 Coeff-Com:  0.391D+00 0.111D+01-0.185D+01 0.174D+00 0.366D+00 0.116D+01
 Coeff-Com: -0.173D+00-0.195D+01-0.160D+01 0.243D+01 0.121D+01
 Coeff:     -0.196D-02-0.675D-02 0.273D-01 0.896D-01-0.158D+00-0.219D+00
 Coeff:      0.391D+00 0.111D+01-0.185D+01 0.174D+00 0.366D+00 0.116D+01
 Coeff:     -0.173D+00-0.195D+01-0.160D+01 0.243D+01 0.121D+01
 Gap=     0.227 Goal=   None    Shift=    0.500
 Gap=     0.080 Goal=   None    Shift=    0.500
 RMSDP=3.19D-06 MaxDP=2.28D-04 DE=-6.51D-06 OVMax= 2.34D-03

 Cycle  18  Pass 1  IDiag  1:
 E= -1797.71758445140     Delta-E=       -0.000004348044 Rises=F Damp=F
 DIIS: error= 1.96D-04 at cycle  18 NSaved=  18.
 NSaved=18 IEnMin=18 EnMin= -1797.71758445140     IErMin=18 ErrMin= 1.96D-04
 ErrMax= 1.96D-04  0.00D+00 EMaxC= 1.00D+00 BMatC= 2.05D-06 BMatP= 3.05D-06
 IDIUse=1 WtCom= 1.00D+00 WtEn= 0.00D+00
 Coeff-Com: -0.539D-03-0.607D-02 0.293D-01-0.110D-01 0.165D-01-0.208D+00
 Coeff-Com:  0.175D+00 0.459D+00-0.558D+00 0.102D+00-0.516D+00 0.368D+00
 Coeff-Com:  0.704D+00-0.840D-02-0.122D+01-0.282D-03-0.124D+01 0.291D+01
 Coeff:     -0.539D-03-0.607D-02 0.293D-01-0.110D-01 0.165D-01-0.208D+00
 Coeff:      0.175D+00 0.459D+00-0.558D+00 0.102D+00-0.516D+00 0.368D+00
 Coeff:      0.704D+00-0.840D-02-0.122D+01-0.282D-03-0.124D+01 0.291D+01
 Gap=     0.227 Goal=   None    Shift=    0.500
 Gap=     0.080 Goal=   None    Shift=    0.500
 RMSDP=2.80D-06 MaxDP=1.65D-04 DE=-4.35D-06 OVMax= 1.99D-03

 Cycle  19  Pass 1  IDiag  1:
 E= -1797.71758750312     Delta-E=       -0.000003051725 Rises=F Damp=F
 DIIS: error= 1.60D-04 at cycle  19 NSaved=  19.
 NSaved=19 IEnMin=19 EnMin= -1797.71758750312     IErMin=19 ErrMin= 1.60D-04
 ErrMax= 1.60D-04  0.00D+00 EMaxC= 1.00D+00 BMatC= 1.54D-06 BMatP= 2.05D-06
 IDIUse=1 WtCom= 1.00D+00 WtEn= 0.00D+00
 Coeff-Com:  0.795D-04 0.305D-02-0.562D-02-0.746D-02 0.965D-02 0.485D-01
 Coeff-Com: -0.671D-01-0.204D+00 0.334D+00 0.151D+00-0.351D+00-0.526D+00
 Coeff-Com:  0.373D+00 0.758D+00 0.468D-01-0.123D+00-0.312D+01 0.172D+01
 Coeff-Com:  0.196D+01
 Coeff:      0.795D-04 0.305D-02-0.562D-02-0.746D-02 0.965D-02 0.485D-01
 Coeff:     -0.671D-01-0.204D+00 0.334D+00 0.151D+00-0.351D+00-0.526D+00
 Coeff:      0.373D+00 0.758D+00 0.468D-01-0.123D+00-0.312D+01 0.172D+01
 Coeff:      0.196D+01
 Gap=     0.227 Goal=   None    Shift=    0.500
 Gap=     0.080 Goal=   None    Shift=    0.500
 RMSDP=2.19D-06 MaxDP=1.34D-04 DE=-3.05D-06 OVMax= 1.66D-03

 Cycle  20  Pass 1  IDiag  1:
 E= -1797.71758959587     Delta-E=       -0.000002092747 Rises=F Damp=F
 DIIS: error= 1.30D-04 at cycle  20 NSaved=  20.
 NSaved=20 IEnMin=20 EnMin= -1797.71758959587     IErMin=20 ErrMin= 1.30D-04
 ErrMax= 1.30D-04  0.00D+00 EMaxC= 1.00D+00 BMatC= 1.08D-06 BMatP= 1.54D-06
 IDIUse=1 WtCom= 1.00D+00 WtEn= 0.00D+00
 Coeff-Com: -0.113D-03 0.346D-02-0.188D-01 0.672D-01-0.113D+00 0.150D+00
 Coeff-Com: -0.673D-01-0.911D-03-0.141D+00 0.173D+00 0.359D+00-0.415D+00
 Coeff-Com: -0.374D+00-0.119D+00 0.471D+00 0.135D+01-0.198D+01-0.227D+00
 Coeff-Com: -0.105D+01 0.294D+01
 Coeff:     -0.113D-03 0.346D-02-0.188D-01 0.672D-01-0.113D+00 0.150D+00
 Coeff:     -0.673D-01-0.911D-03-0.141D+00 0.173D+00 0.359D+00-0.415D+00
 Coeff:     -0.374D+00-0.119D+00 0.471D+00 0.135D+01-0.198D+01-0.227D+00
 Coeff:     -0.105D+01 0.294D+01
 Gap=     0.227 Goal=   None    Shift=    0.500
 Gap=     0.080 Goal=   None    Shift=    0.500
 RMSDP=1.83D-06 MaxDP=1.17D-04 DE=-2.09D-06 OVMax= 1.34D-03

 Cycle  21  Pass 1  IDiag  1:
 E= -1797.71759094528     Delta-E=       -0.000001349412 Rises=F Damp=F
 DIIS: error= 1.07D-04 at cycle  21 NSaved=  20.
 NSaved=20 IEnMin=20 EnMin= -1797.71759094528     IErMin=20 ErrMin= 1.07D-04
 ErrMax= 1.07D-04  0.00D+00 EMaxC= 1.00D+00 BMatC= 8.01D-07 BMatP= 1.08D-06
 IDIUse=1 WtCom= 1.00D+00 WtEn= 0.00D+00
 Coeff-Com: -0.149D-03-0.804D-02 0.605D-01-0.108D+00 0.842D-01 0.276D-01
 Coeff-Com:  0.192D+00-0.495D+00 0.208D+00 0.492D+00-0.177D+00-0.476D+00
 Coeff-Com: -0.529D+00 0.180D+00 0.154D+01-0.266D+00-0.800D+00-0.259D+01
 Coeff-Com:  0.210D+01 0.156D+01
 Coeff:     -0.149D-03-0.804D-02 0.605D-01-0.108D+00 0.842D-01 0.276D-01
 Coeff:      0.192D+00-0.495D+00 0.208D+00 0.492D+00-0.177D+00-0.476D+00
 Coeff:     -0.529D+00 0.180D+00 0.154D+01-0.266D+00-0.800D+00-0.259D+01
 Coeff:      0.210D+01 0.156D+01
 Gap=     0.227 Goal=   None    Shift=    0.500
 Gap=     0.080 Goal=   None    Shift=    0.500
 RMSDP=1.36D-06 MaxDP=6.57D-05 DE=-1.35D-06 OVMax= 1.09D-03

 Cycle  22  Pass 1  IDiag  1:
 E= -1797.71759183787     Delta-E=       -0.000000892589 Rises=F Damp=F
 DIIS: error= 8.58D-05 at cycle  22 NSaved=  20.
 NSaved=20 IEnMin=20 EnMin= -1797.71759183787     IErMin=20 ErrMin= 8.58D-05
 ErrMax= 8.58D-05  0.00D+00 EMaxC= 1.00D+00 BMatC= 5.49D-07 BMatP= 8.01D-07
 IDIUse=1 WtCom= 1.00D+00 WtEn= 0.00D+00
 Coeff-Com: -0.173D-02 0.951D-02-0.176D-01 0.579D-02 0.353D-01 0.828D-01
 Coeff-Com: -0.227D+00 0.154D+00 0.549D-01-0.699D-01-0.730D-01-0.101D+00
 Coeff-Com: -0.117D+00 0.593D+00-0.311D+00 0.125D+00-0.462D+00 0.241D+00
 Coeff-Com: -0.228D+01 0.336D+01
 Coeff:     -0.173D-02 0.951D-02-0.176D-01 0.579D-02 0.353D-01 0.828D-01
 Coeff:     -0.227D+00 0.154D+00 0.549D-01-0.699D-01-0.730D-01-0.101D+00
 Coeff:     -0.117D+00 0.593D+00-0.311D+00 0.125D+00-0.462D+00 0.241D+00
 Coeff:     -0.228D+01 0.336D+01
 Gap=     0.227 Goal=   None    Shift=    0.500
 Gap=     0.080 Goal=   None    Shift=    0.500
 RMSDP=1.04D-06 MaxDP=4.09D-05 DE=-8.93D-07 OVMax= 8.72D-04

 Cycle  23  Pass 1  IDiag  1:
 E= -1797.71759240906     Delta-E=       -0.000000571186 Rises=F Damp=F
 DIIS: error= 6.85D-05 at cycle  23 NSaved=  20.
 NSaved=20 IEnMin=20 EnMin= -1797.71759240906     IErMin=20 ErrMin= 6.85D-05
 ErrMax= 6.85D-05  0.00D+00 EMaxC= 1.00D+00 BMatC= 3.76D-07 BMatP= 5.49D-07
 IDIUse=1 WtCom= 1.00D+00 WtEn= 0.00D+00
 Coeff-Com: -0.412D-02 0.148D-01-0.247D-01-0.140D-02 0.232D-01 0.877D-02
 Coeff-Com:  0.468D-01-0.223D+00 0.256D-01 0.183D+00 0.189D+00-0.260D+00
 Coeff-Com:  0.429D-01-0.706D+00 0.775D+00 0.862D+00-0.403D+00-0.297D+01
 Coeff-Com:  0.138D+01 0.204D+01
 Coeff:     -0.412D-02 0.148D-01-0.247D-01-0.140D-02 0.232D-01 0.877D-02
 Coeff:      0.468D-01-0.223D+00 0.256D-01 0.183D+00 0.189D+00-0.260D+00
 Coeff:      0.429D-01-0.706D+00 0.775D+00 0.862D+00-0.403D+00-0.297D+01
 Coeff:      0.138D+01 0.204D+01
 Gap=     0.227 Goal=   None    Shift=    0.500
 Gap=     0.080 Goal=   None    Shift=    0.500
 RMSDP=8.00D-07 MaxDP=2.29D-05 DE=-5.71D-07 OVMax= 6.81D-04

 SCF Done:  E(ULC-wHPBE) =  -1797.71759241     A.U. after   23 cycles
            NFock= 23  Conv=0.80D-06     -V/T= 2.0047
 <Sx>= 0.0000 <Sy>= 0.0000 <Sz>= 0.5000 <S**2>= 0.7688 S= 0.5093
 <L.S>= 0.000000000000E+00
 KE= 1.789325607417D+03 PE=-1.247721078648D+04 EE= 4.731657169938D+03
 Annihilation of the first spin contaminant:
 S**2 before annihilation     0.7688,   after     0.7502
 Leave Link  502 at Mon Jan 18 07:52:46 2021, MaxMem=  4026531840 cpu:           16910.3 elap:            2138.6
 (Enter /opt/ohpc/pub/libs/gaussian/g16-A.03/sandybridge/g16/l508.exe)
 QCSCF skips out because SCF is already converged.
 Leave Link  508 at Mon Jan 18 07:52:46 2021, MaxMem=  4026531840 cpu:               0.1 elap:               0.0
 (Enter /opt/ohpc/pub/libs/gaussian/g16-A.03/sandybridge/g16/l601.exe)
 Copying SCF densities to generalized density rwf, IOpCl= 1 IROHF=0.

 **********************************************************************

            Population analysis using the SCF density.

 **********************************************************************

 Orbital symmetries:
 Alpha Orbitals:
       Occupied  (A) (A) (A) (A) (A) (A) (A) (A) (A) (A) (A) (A)
                 (A) (A) (A) (A) (A) (A) (A) (A) (A) (A) (A) (A)
                 (A) (A) (A) (A) (A) (A) (A) (A) (A) (A) (A) (A)
                 (A) (A) (A) (A) (A) (A) (A) (A) (A) (A) (A) (A)
                 (A) (A) (A) (A) (A) (A) (A) (A) (A) (A) (A) (A)
                 (A) (A) (A) (A) (A) (A) (A) (A) (A) (A) (A) (A)
                 (A) (A) (A) (A) (A) (A) (A) (A) (A) (A) (A) (A)
                 (A) (A) (A) (A) (A) (A) (A) (A) (A) (A) (A) (A)
                 (A) (A) (A) (A) (A) (A) (A) (A) (A) (A) (A) (A)
                 (A) (A) (A) (A) (A) (A) (A) (A) (A) (A) (A) (A)
                 (A) (A) (A) (A) (A) (A) (A) (A) (A) (A) (A) (A)
                 (A) (A) (A) (A) (A) (A) (A) (A) (A) (A) (A) (A)
                 (A)
       Virtual   (A) (A) (A) (A) (A) (A) (A) (A) (A) (A) (A) (A)
                 (A) (A) (A) (A) (A) (A) (A) (A) (A) (A) (A) (A)
                 (A) (A) (A) (A) (A) (A) (A) (A) (A) (A) (A) (A)
                 (A) (A) (A) (A) (A) (A) (A) (A) (A) (A) (A) (A)
                 (A) (A) (A) (A) (A) (A) (A) (A) (A) (A) (A) (A)
                 (A) (A) (A) (A) (A) (A) (A) (A) (A) (A) (A) (A)
                 (A) (A) (A) (A) (A) (A) (A) (A) (A) (A) (A) (A)
                 (A) (A) (A) (A) (A) (A) (A) (A) (A) (A) (A) (A)
                 (A) (A) (A) (A) (A) (A) (A) (A) (A) (A) (A) (A)
                 (A) (A) (A) (A) (A) (A) (A) (A) (A) (A) (A) (A)
                 (A) (A) (A) (A) (A) (A) (A) (A) (A) (A) (A) (A)
                 (A) (A) (A) (A) (A) (A) (A) (A) (A) (A) (A) (A)
                 (A) (A) (A) (A) (A) (A) (A) (A) (A) (A) (A) (A)
                 (A) (A) (A) (A) (A) (A) (A) (A) (A) (A) (A) (A)
                 (A) (A) (A) (A) (A) (A) (A) (A) (A) (A) (A) (A)
                 (A) (A) (A) (A) (A) (A) (A) (A) (A) (A) (A) (A)
                 (A) (A) (A) (A) (A) (A) (A) (A) (A) (A) (A) (A)
                 (A) (A) (A) (A) (A) (A) (A) (A) (A) (A) (A) (A)
                 (A) (A) (A) (A) (A) (A) (A) (A) (A) (A) (A) (A)
                 (A) (A) (A) (A) (A) (A) (A) (A) (A) (A) (A) (A)
                 (A) (A) (A) (A) (A) (A) (A) (A) (A) (A) (A) (A)
                 (A) (A) (A) (A) (A) (A) (A) (A) (A) (A) (A) (A)
                 (A) (A) (A) (A) (A) (A) (A) (A) (A) (A) (A) (A)
                 (A) (A) (A) (A) (A) (A) (A) (A) (A) (A) (A) (A)
                 (A) (A) (A) (A) (A) (A) (A) (A) (A) (A) (A) (A)
                 (A) (A) (A) (A) (A) (A) (A) (A) (A) (A) (A) (A)
                 (A) (A) (A) (A) (A) (A) (A) (A) (A) (A) (A) (A)
                 (A) (A) (A) (A) (A) (A) (A) (A) (A) (A) (A) (A)
                 (A) (A) (A) (A) (A) (A) (A) (A) (A) (A) (A) (A)
                 (A) (A) (A) (A) (A) (A) (A) (A) (A) (A) (A) (A)
                 (A) (A) (A) (A) (A) (A) (A) (A) (A) (A) (A) (A)
                 (A) (A) (A) (A) (A) (A) (A) (A) (A) (A) (A) (A)
                 (A) (A) (A) (A) (A) (A) (A) (A) (A) (A) (A) (A)
                 (A) (A) (A) (A) (A) (A) (A) (A) (A) (A) (A) (A)
                 (A) (A) (A) (A) (A) (A) (A) (A) (A) (A) (A) (A)
                 (A) (A) (A) (A) (A) (A) (A) (A) (A) (A) (A) (A)
                 (A) (A) (A) (A) (A) (A) (A) (A) (A) (A) (A) (A)
                 (A) (A) (A) (A) (A) (A) (A) (A) (A) (A) (A) (A)
                 (A) (A) (A) (A) (A) (A) (A) (A) (A) (A) (A) (A)
                 (A) (A) (A) (A) (A) (A) (A) (A) (A) (A) (A) (A)
                 (A) (A) (A) (A) (A) (A) (A) (A) (A) (A) (A) (A)
                 (A) (A) (A) (A) (A) (A) (A) (A) (A) (A) (A) (A)
                 (A) (A) (A) (A) (A) (A) (A) (A) (A) (A) (A) (A)
                 (A) (A) (A) (A) (A) (A) (A) (A) (A) (A) (A) (A)
                 (A) (A) (A) (A) (A) (A) (A) (A) (A) (A) (A) (A)
                 (A) (A) (A) (A) (A) (A) (A) (A) (A) (A) (A) (A)
                 (A) (A) (A) (A) (A) (A) (A) (A) (A) (A) (A) (A)
                 (A) (A) (A) (A) (A) (A) (A) (A) (A) (A) (A) (A)
                 (A) (A) (A) (A) (A) (A) (A) (A) (A) (A) (A) (A)
                 (A) (A) (A) (A) (A) (A) (A) (A) (A) (A) (A) (A)
                 (A) (A) (A) (A) (A) (A) (A) (A) (A) (A) (A) (A)
                 (A) (A) (A) (A) (A) (A) (A) (A) (A) (A) (A) (A)
                 (A) (A) (A) (A) (A) (A) (A) (A) (A) (A) (A) (A)
                 (A) (A) (A) (A) (A) (A) (A) (A) (A) (A) (A) (A)
                 (A) (A) (A) (A) (A) (A) (A) (A) (A) (A) (A) (A)
                 (A) (A) (A) (A) (A) (A) (A) (A) (A) (A) (A) (A)
                 (A) (A) (A) (A) (A) (A) (A) (A) (A) (A) (A) (A)
                 (A) (A) (A) (A) (A) (A) (A) (A) (A) (A) (A) (A)
                 (A) (A) (A) (A) (A) (A) (A) (A) (A) (A) (A) (A)
                 (A) (A) (A) (A) (A) (A) (A) (A) (A) (A) (A) (A)
                 (A) (A) (A) (A) (A) (A) (A) (A) (A) (A) (A) (A)
                 (A) (A) (A) (A) (A) (A) (A) (A) (A) (A) (A) (A)
                 (A) (A) (A) (A) (A) (A) (A) (A) (A) (A) (A) (A)
                 (A) (A) (A) (A) (A) (A) (A) (A) (A) (A) (A) (A)
                 (A) (A) (A) (A) (A) (A) (A) (A) (A) (A) (A) (A)
                 (A) (A) (A) (A) (A) (A) (A) (A) (A) (A) (A) (A)
                 (A) (A) (A) (A) (A) (A) (A) (A) (A) (A) (A) (A)
                 (A) (A) (A) (A) (A) (A) (A) (A) (A) (A) (A) (A)
                 (A) (A) (A) (A) (A)
 Beta  Orbitals:
       Occupied  (A) (A) (A) (A) (A) (A) (A) (A) (A) (A) (A) (A)
                 (A) (A) (A) (A) (A) (A) (A) (A) (A) (A) (A) (A)
                 (A) (A) (A) (A) (A) (A) (A) (A) (A) (A) (A) (A)
                 (A) (A) (A) (A) (A) (A) (A) (A) (A) (A) (A) (A)
                 (A) (A) (A) (A) (A) (A) (A) (A) (A) (A) (A) (A)
                 (A) (A) (A) (A) (A) (A) (A) (A) (A) (A) (A) (A)
                 (A) (A) (A) (A) (A) (A) (A) (A) (A) (A) (A) (A)
                 (A) (A) (A) (A) (A) (A) (A) (A) (A) (A) (A) (A)
                 (A) (A) (A) (A) (A) (A) (A) (A) (A) (A) (A) (A)
                 (A) (A) (A) (A) (A) (A) (A) (A) (A) (A) (A) (A)
                 (A) (A) (A) (A) (A) (A) (A) (A) (A) (A) (A) (A)
                 (A) (A) (A) (A) (A) (A) (A) (A) (A) (A) (A) (A)
       Virtual   (A) (A) (A) (A) (A) (A) (A) (A) (A) (A) (A) (A)
                 (A) (A) (A) (A) (A) (A) (A) (A) (A) (A) (A) (A)
                 (A) (A) (A) (A) (A) (A) (A) (A) (A) (A) (A) (A)
                 (A) (A) (A) (A) (A) (A) (A) (A) (A) (A) (A) (A)
                 (A) (A) (A) (A) (A) (A) (A) (A) (A) (A) (A) (A)
                 (A) (A) (A) (A) (A) (A) (A) (A) (A) (A) (A) (A)
                 (A) (A) (A) (A) (A) (A) (A) (A) (A) (A) (A) (A)
                 (A) (A) (A) (A) (A) (A) (A) (A) (A) (A) (A) (A)
                 (A) (A) (A) (A) (A) (A) (A) (A) (A) (A) (A) (A)
                 (A) (A) (A) (A) (A) (A) (A) (A) (A) (A) (A) (A)
                 (A) (A) (A) (A) (A) (A) (A) (A) (A) (A) (A) (A)
                 (A) (A) (A) (A) (A) (A) (A) (A) (A) (A) (A) (A)
                 (A) (A) (A) (A) (A) (A) (A) (A) (A) (A) (A) (A)
                 (A) (A) (A) (A) (A) (A) (A) (A) (A) (A) (A) (A)
                 (A) (A) (A) (A) (A) (A) (A) (A) (A) (A) (A) (A)
                 (A) (A) (A) (A) (A) (A) (A) (A) (A) (A) (A) (A)
                 (A) (A) (A) (A) (A) (A) (A) (A) (A) (A) (A) (A)
                 (A) (A) (A) (A) (A) (A) (A) (A) (A) (A) (A) (A)
                 (A) (A) (A) (A) (A) (A) (A) (A) (A) (A) (A) (A)
                 (A) (A) (A) (A) (A) (A) (A) (A) (A) (A) (A) (A)
                 (A) (A) (A) (A) (A) (A) (A) (A) (A) (A) (A) (A)
                 (A) (A) (A) (A) (A) (A) (A) (A) (A) (A) (A) (A)
                 (A) (A) (A) (A) (A) (A) (A) (A) (A) (A) (A) (A)
                 (A) (A) (A) (A) (A) (A) (A) (A) (A) (A) (A) (A)
                 (A) (A) (A) (A) (A) (A) (A) (A) (A) (A) (A) (A)
                 (A) (A) (A) (A) (A) (A) (A) (A) (A) (A) (A) (A)
                 (A) (A) (A) (A) (A) (A) (A) (A) (A) (A) (A) (A)
                 (A) (A) (A) (A) (A) (A) (A) (A) (A) (A) (A) (A)
                 (A) (A) (A) (A) (A) (A) (A) (A) (A) (A) (A) (A)
                 (A) (A) (A) (A) (A) (A) (A) (A) (A) (A) (A) (A)
                 (A) (A) (A) (A) (A) (A) (A) (A) (A) (A) (A) (A)
                 (A) (A) (A) (A) (A) (A) (A) (A) (A) (A) (A) (A)
                 (A) (A) (A) (A) (A) (A) (A) (A) (A) (A) (A) (A)
                 (A) (A) (A) (A) (A) (A) (A) (A) (A) (A) (A) (A)
                 (A) (A) (A) (A) (A) (A) (A) (A) (A) (A) (A) (A)
                 (A) (A) (A) (A) (A) (A) (A) (A) (A) (A) (A) (A)
                 (A) (A) (A) (A) (A) (A) (A) (A) (A) (A) (A) (A)
                 (A) (A) (A) (A) (A) (A) (A) (A) (A) (A) (A) (A)
                 (A) (A) (A) (A) (A) (A) (A) (A) (A) (A) (A) (A)
                 (A) (A) (A) (A) (A) (A) (A) (A) (A) (A) (A) (A)
                 (A) (A) (A) (A) (A) (A) (A) (A) (A) (A) (A) (A)
                 (A) (A) (A) (A) (A) (A) (A) (A) (A) (A) (A) (A)
                 (A) (A) (A) (A) (A) (A) (A) (A) (A) (A) (A) (A)
                 (A) (A) (A) (A) (A) (A) (A) (A) (A) (A) (A) (A)
                 (A) (A) (A) (A) (A) (A) (A) (A) (A) (A) (A) (A)
                 (A) (A) (A) (A) (A) (A) (A) (A) (A) (A) (A) (A)
                 (A) (A) (A) (A) (A) (A) (A) (A) (A) (A) (A) (A)
                 (A) (A) (A) (A) (A) (A) (A) (A) (A) (A) (A) (A)
                 (A) (A) (A) (A) (A) (A) (A) (A) (A) (A) (A) (A)
                 (A) (A) (A) (A) (A) (A) (A) (A) (A) (A) (A) (A)
                 (A) (A) (A) (A) (A) (A) (A) (A) (A) (A) (A) (A)
                 (A) (A) (A) (A) (A) (A) (A) (A) (A) (A) (A) (A)
                 (A) (A) (A) (A) (A) (A) (A) (A) (A) (A) (A) (A)
                 (A) (A) (A) (A) (A) (A) (A) (A) (A) (A) (A) (A)
                 (A) (A) (A) (A) (A) (A) (A) (A) (A) (A) (A) (A)
                 (A) (A) (A) (A) (A) (A) (A) (A) (A) (A) (A) (A)
                 (A) (A) (A) (A) (A) (A) (A) (A) (A) (A) (A) (A)
                 (A) (A) (A) (A) (A) (A) (A) (A) (A) (A) (A) (A)
                 (A) (A) (A) (A) (A) (A) (A) (A) (A) (A) (A) (A)
                 (A) (A) (A) (A) (A) (A) (A) (A) (A) (A) (A) (A)
                 (A) (A) (A) (A) (A) (A) (A) (A) (A) (A) (A) (A)
                 (A) (A) (A) (A) (A) (A) (A) (A) (A) (A) (A) (A)
                 (A) (A) (A) (A) (A) (A) (A) (A) (A) (A) (A) (A)
                 (A) (A) (A) (A) (A) (A) (A) (A) (A) (A) (A) (A)
                 (A) (A) (A) (A) (A) (A) (A) (A) (A) (A) (A) (A)
                 (A) (A) (A) (A) (A) (A) (A) (A) (A) (A) (A) (A)
                 (A) (A) (A) (A) (A) (A) (A) (A) (A) (A) (A) (A)
                 (A) (A) (A) (A) (A) (A) (A) (A) (A) (A) (A) (A)
                 (A) (A) (A) (A) (A) (A)
 The electronic state is 2-A.
 Alpha  occ. eigenvalues --  -18.95780 -18.95719 -18.95637 -18.95631 -14.23564
 Alpha  occ. eigenvalues --  -14.23286 -10.12997 -10.12941 -10.12834 -10.12830
 Alpha  occ. eigenvalues --  -10.12727 -10.12607 -10.11126 -10.11090 -10.10950
 Alpha  occ. eigenvalues --  -10.10944 -10.09213 -10.09109 -10.08086 -10.08080
 Alpha  occ. eigenvalues --  -10.08044 -10.08042 -10.07995 -10.07981 -10.07927
 Alpha  occ. eigenvalues --  -10.07917 -10.07836 -10.07685 -10.07569 -10.07566
 Alpha  occ. eigenvalues --  -10.07561 -10.07509 -10.07459 -10.07458 -10.07258
 Alpha  occ. eigenvalues --  -10.07162 -10.07074 -10.07067 -10.06584 -10.06573
 Alpha  occ. eigenvalues --  -10.06486 -10.06483  -1.15037  -1.14975  -1.14897
 Alpha  occ. eigenvalues --   -1.14891  -1.09132  -1.08925  -0.98900  -0.97301
 Alpha  occ. eigenvalues --   -0.96993  -0.96848  -0.95613  -0.94969  -0.90398
 Alpha  occ. eigenvalues --   -0.87926  -0.87624  -0.87351  -0.86779  -0.86630
 Alpha  occ. eigenvalues --   -0.86490  -0.86329  -0.86149  -0.85994  -0.83554
 Alpha  occ. eigenvalues --   -0.81880  -0.77479  -0.76591  -0.75870  -0.75562
 Alpha  occ. eigenvalues --   -0.74778  -0.74586  -0.74217  -0.73661  -0.72626
 Alpha  occ. eigenvalues --   -0.72408  -0.70721  -0.70109  -0.68084  -0.67723
 Alpha  occ. eigenvalues --   -0.67555  -0.67492  -0.67098  -0.66906  -0.66145
 Alpha  occ. eigenvalues --   -0.65601  -0.64195  -0.61976  -0.61622  -0.60723
 Alpha  occ. eigenvalues --   -0.60162  -0.59924  -0.58730  -0.58191  -0.57992
 Alpha  occ. eigenvalues --   -0.57466  -0.57415  -0.57367  -0.57138  -0.56319
 Alpha  occ. eigenvalues --   -0.55838  -0.55810  -0.55595  -0.55494  -0.55453
 Alpha  occ. eigenvalues --   -0.55310  -0.54878  -0.54425  -0.54299  -0.54279
 Alpha  occ. eigenvalues --   -0.54172  -0.53723  -0.53445  -0.53287  -0.52876
 Alpha  occ. eigenvalues --   -0.52500  -0.51608  -0.51122  -0.50640  -0.50393
 Alpha  occ. eigenvalues --   -0.49468  -0.49262  -0.49225  -0.48990  -0.48376
 Alpha  occ. eigenvalues --   -0.48248  -0.47993  -0.47370  -0.47170  -0.47156
 Alpha  occ. eigenvalues --   -0.47126  -0.45756  -0.43986  -0.41570  -0.41449
 Alpha  occ. eigenvalues --   -0.41074  -0.40582  -0.40437  -0.40295  -0.40048
 Alpha  occ. eigenvalues --   -0.38485  -0.37695  -0.37601  -0.33733  -0.32616
 Alpha virt. eigenvalues --   -0.09906  -0.08311  -0.08102  -0.06344  -0.06250
 Alpha virt. eigenvalues --   -0.06223  -0.05920  -0.05891  -0.05750  -0.05661
 Alpha virt. eigenvalues --   -0.02985  -0.01733   0.00123   0.00277   0.00318
 Alpha virt. eigenvalues --    0.00393   0.00903   0.01391   0.02338   0.02584
 Alpha virt. eigenvalues --    0.02730   0.02773   0.03149   0.04438   0.04533
 Alpha virt. eigenvalues --    0.04824   0.04978   0.05096   0.05418   0.05936
 Alpha virt. eigenvalues --    0.06400   0.06663   0.06914   0.07973   0.08381
 Alpha virt. eigenvalues --    0.08440   0.08450   0.08557   0.08614   0.08730
 Alpha virt. eigenvalues --    0.08813   0.08993   0.09166   0.09343   0.10360
 Alpha virt. eigenvalues --    0.10525   0.10675   0.11082   0.12015   0.12350
 Alpha virt. eigenvalues --    0.12504   0.12631   0.12803   0.13483   0.13888
 Alpha virt. eigenvalues --    0.14289   0.14389   0.14648   0.14940   0.15600
 Alpha virt. eigenvalues --    0.15933   0.16473   0.16719   0.16837   0.16957
 Alpha virt. eigenvalues --    0.17134   0.17685   0.17967   0.18031   0.18118
 Alpha virt. eigenvalues --    0.18333   0.18345   0.18466   0.18757   0.18858
 Alpha virt. eigenvalues --    0.19203   0.19268   0.19890   0.20185   0.20343
 Alpha virt. eigenvalues --    0.20435   0.20724   0.20808   0.20958   0.21326
 Alpha virt. eigenvalues --    0.21411   0.21764   0.21819   0.22005   0.22231
 Alpha virt. eigenvalues --    0.22922   0.23468   0.23651   0.23804   0.24136
 Alpha virt. eigenvalues --    0.24209   0.24466   0.24598   0.24671   0.24844
 Alpha virt. eigenvalues --    0.25049   0.25198   0.25493   0.25800   0.26070
 Alpha virt. eigenvalues --    0.26202   0.26463   0.27014   0.27333   0.27408
 Alpha virt. eigenvalues --    0.27553   0.27798   0.27919   0.28394   0.28913
 Alpha virt. eigenvalues --    0.29186   0.29418   0.29506   0.30018   0.30484
 Alpha virt. eigenvalues --    0.30653   0.30832   0.30952   0.31263   0.31558
 Alpha virt. eigenvalues --    0.31986   0.32315   0.32487   0.32571   0.32695
 Alpha virt. eigenvalues --    0.32924   0.33035   0.33211   0.33666   0.33774
 Alpha virt. eigenvalues --    0.33903   0.34086   0.34323   0.34367   0.34579
 Alpha virt. eigenvalues --    0.34677   0.34762   0.34843   0.34906   0.35281
 Alpha virt. eigenvalues --    0.35617   0.35780   0.35854   0.36144   0.36261
 Alpha virt. eigenvalues --    0.36605   0.36659   0.36758   0.37242   0.37968
 Alpha virt. eigenvalues --    0.38373   0.38839   0.39065   0.39189   0.39255
 Alpha virt. eigenvalues --    0.39333   0.39588   0.39976   0.40154   0.40374
 Alpha virt. eigenvalues --    0.40644   0.41243   0.41312   0.41377   0.41589
 Alpha virt. eigenvalues --    0.41747   0.41791   0.42505   0.42872   0.43267
 Alpha virt. eigenvalues --    0.43410   0.43446   0.43657   0.43996   0.44074
 Alpha virt. eigenvalues --    0.44413   0.44625   0.44798   0.44977   0.45104
 Alpha virt. eigenvalues --    0.45384   0.45779   0.46029   0.46320   0.46652
 Alpha virt. eigenvalues --    0.46883   0.47140   0.47429   0.47612   0.47899
 Alpha virt. eigenvalues --    0.49120   0.49282   0.49383   0.49727   0.50094
 Alpha virt. eigenvalues --    0.50493   0.50544   0.50717   0.51043   0.51495
 Alpha virt. eigenvalues --    0.51693   0.52046   0.52483   0.52780   0.52862
 Alpha virt. eigenvalues --    0.52990   0.53007   0.53220   0.53677   0.54047
 Alpha virt. eigenvalues --    0.54341   0.54404   0.55807   0.56120   0.56374
 Alpha virt. eigenvalues --    0.56697   0.57419   0.57556   0.57807   0.58976
 Alpha virt. eigenvalues --    0.59066   0.60067   0.60216   0.61006   0.61538
 Alpha virt. eigenvalues --    0.61770   0.62111   0.62348   0.62505   0.62637
 Alpha virt. eigenvalues --    0.62666   0.62917   0.63321   0.63680   0.63795
 Alpha virt. eigenvalues --    0.63978   0.64497   0.65113   0.65408   0.65582
 Alpha virt. eigenvalues --    0.66115   0.66272   0.66589   0.66682   0.67346
 Alpha virt. eigenvalues --    0.68154   0.68255   0.68654   0.68981   0.69676
 Alpha virt. eigenvalues --    0.70078   0.70809   0.71320   0.71383   0.71553
 Alpha virt. eigenvalues --    0.71782   0.72771   0.73393   0.74655   0.74813
 Alpha virt. eigenvalues --    0.75165   0.75940   0.76193   0.76603   0.77182
 Alpha virt. eigenvalues --    0.78004   0.78930   0.79610   0.80002   0.80301
 Alpha virt. eigenvalues --    0.80590   0.80640   0.81205   0.82729   0.83516
 Alpha virt. eigenvalues --    0.83712   0.84408   0.84551   0.86659   0.88055
 Alpha virt. eigenvalues --    0.88152   0.88336   0.90337   0.90429   1.06618
 Alpha virt. eigenvalues --    1.09089   1.09734   1.10191   1.10323   1.14954
 Alpha virt. eigenvalues --    1.15081   1.15285   1.15666   1.16221   1.16263
 Alpha virt. eigenvalues --    1.16562   1.16816   1.17189   1.17503   1.17893
 Alpha virt. eigenvalues --    1.18018   1.18149   1.18322   1.18404   1.18795
 Alpha virt. eigenvalues --    1.18959   1.19068   1.20015   1.20192   1.20417
 Alpha virt. eigenvalues --    1.21043   1.21694   1.21957   1.22481   1.22538
 Alpha virt. eigenvalues --    1.22624   1.22953   1.23008   1.23761   1.24416
 Alpha virt. eigenvalues --    1.24694   1.25528   1.25916   1.25986   1.26050
 Alpha virt. eigenvalues --    1.26241   1.26251   1.26484   1.26746   1.27223
 Alpha virt. eigenvalues --    1.27468   1.27539   1.27831   1.28691   1.28777
 Alpha virt. eigenvalues --    1.28898   1.29060   1.29269   1.31341   1.31416
 Alpha virt. eigenvalues --    1.32019   1.32355   1.33685   1.34448   1.34546
 Alpha virt. eigenvalues --    1.34682   1.34717   1.34794   1.34911   1.35119
 Alpha virt. eigenvalues --    1.35161   1.35498   1.35829   1.35934   1.36077
 Alpha virt. eigenvalues --    1.36154   1.36225   1.36996   1.37609   1.37837
 Alpha virt. eigenvalues --    1.37955   1.38045   1.38202   1.38429   1.38665
 Alpha virt. eigenvalues --    1.38756   1.38792   1.39014   1.39292   1.39614
 Alpha virt. eigenvalues --    1.39724   1.39802   1.40180   1.40535   1.40679
 Alpha virt. eigenvalues --    1.40745   1.40924   1.41125   1.41357   1.41805
 Alpha virt. eigenvalues --    1.42015   1.42219   1.43004   1.43720   1.43779
 Alpha virt. eigenvalues --    1.44451   1.44870   1.45051   1.45090   1.45563
 Alpha virt. eigenvalues --    1.45661   1.46035   1.46104   1.46172   1.46232
 Alpha virt. eigenvalues --    1.46391   1.46557   1.46790   1.46816   1.46967
 Alpha virt. eigenvalues --    1.47225   1.47433   1.47600   1.47717   1.48248
 Alpha virt. eigenvalues --    1.48494   1.48839   1.48935   1.49002   1.49443
 Alpha virt. eigenvalues --    1.49709   1.49799   1.50333   1.50663   1.50874
 Alpha virt. eigenvalues --    1.51348   1.51475   1.51612   1.52699   1.53101
 Alpha virt. eigenvalues --    1.53375   1.53565   1.54161   1.54987   1.55464
 Alpha virt. eigenvalues --    1.56892   1.56979   1.58563   1.58748   1.59524
 Alpha virt. eigenvalues --    1.59767   1.60009   1.60209   1.61730   1.62697
 Alpha virt. eigenvalues --    1.63839   1.64398   1.64784   1.65415   1.67017
 Alpha virt. eigenvalues --    1.67245   1.67693   1.68558   1.68697   1.69037
 Alpha virt. eigenvalues --    1.69160   1.69728   1.70107   1.70145   1.70316
 Alpha virt. eigenvalues --    1.70421   1.70592   1.71036   1.71187   1.71417
 Alpha virt. eigenvalues --    1.71561   1.71983   1.72240   1.72453   1.72874
 Alpha virt. eigenvalues --    1.73236   1.73504   1.73808   1.74076   1.74373
 Alpha virt. eigenvalues --    1.74851   1.75143   1.75638   1.76296   1.76811
 Alpha virt. eigenvalues --    1.76935   1.76983   1.78116   1.78268   1.78461
 Alpha virt. eigenvalues --    1.78848   1.79102   1.80172   1.80893   1.81240
 Alpha virt. eigenvalues --    1.81307   1.81492   1.81986   1.82262   1.83131
 Alpha virt. eigenvalues --    1.83393   1.83753   1.83954   1.84066   1.84198
 Alpha virt. eigenvalues --    1.84538   1.84587   1.84737   1.84870   1.85116
 Alpha virt. eigenvalues --    1.85355   1.85415   1.86437   1.86555   1.87221
 Alpha virt. eigenvalues --    1.87860   1.88473   1.88675   1.90422   1.90753
 Alpha virt. eigenvalues --    1.91044   1.91340   1.92066   1.92317   1.92844
 Alpha virt. eigenvalues --    1.93222   1.93324   1.93636   1.93848   1.94202
 Alpha virt. eigenvalues --    1.94518   1.95200   1.95288   1.96399   1.96755
 Alpha virt. eigenvalues --    1.97182   1.98904   1.99420   1.99670   2.00117
 Alpha virt. eigenvalues --    2.00738   2.00927   2.01215   2.01296   2.02130
 Alpha virt. eigenvalues --    2.02685   2.05493   2.07343   2.07381   2.08225
 Alpha virt. eigenvalues --    2.09545   2.10129   2.10249   2.10538   2.10794
 Alpha virt. eigenvalues --    2.12107   2.12441   2.12762   2.13058   2.13114
 Alpha virt. eigenvalues --    2.14136   2.14783   2.15541   2.16022   2.16281
 Alpha virt. eigenvalues --    2.16585   2.17442   2.18250   2.20625   2.20666
 Alpha virt. eigenvalues --    2.20997   2.21286   2.21673   2.21942   2.22137
 Alpha virt. eigenvalues --    2.22182   2.22298   2.22555   2.22825   2.23307
 Alpha virt. eigenvalues --    2.23640   2.23740   2.23835   2.23962   2.24262
 Alpha virt. eigenvalues --    2.24968   2.25397   2.25456   2.25781   2.26154
 Alpha virt. eigenvalues --    2.26440   2.26588   2.27348   2.27637   2.27880
 Alpha virt. eigenvalues --    2.28106   2.28236   2.28403   2.28531   2.28747
 Alpha virt. eigenvalues --    2.28813   2.29173   2.29592   2.29666   2.30345
 Alpha virt. eigenvalues --    2.30360   2.30405   2.30571   2.31604   2.33898
 Alpha virt. eigenvalues --    2.34518   2.34538   2.36808   2.38069   2.38113
 Alpha virt. eigenvalues --    2.38298   2.38445   2.38582   2.39832   2.40462
 Alpha virt. eigenvalues --    2.44074   2.44284   2.44320   2.44996   2.46304
 Alpha virt. eigenvalues --    2.47682   2.47951   2.48171   2.48427   2.49232
 Alpha virt. eigenvalues --    2.49546   2.49829   2.50173   2.50446   2.51510
 Alpha virt. eigenvalues --    2.51781   2.51873   2.52137   2.52529   2.52624
 Alpha virt. eigenvalues --    2.53055   2.53194   2.54858   2.55324   2.55436
 Alpha virt. eigenvalues --    2.55535   2.55772   2.55886   2.55927   2.56226
 Alpha virt. eigenvalues --    2.56817   2.57965   2.58569   2.59721   2.61155
 Alpha virt. eigenvalues --    2.61276   2.62189   2.62559   2.64051   2.64738
 Alpha virt. eigenvalues --    2.64878   2.65170   2.65515   2.65751   2.66126
 Alpha virt. eigenvalues --    2.66840   2.67302   2.68847   2.69142   2.69665
 Alpha virt. eigenvalues --    2.69838   2.71079   2.73042   2.73664   2.74045
 Alpha virt. eigenvalues --    2.74247   2.75668   2.76043   2.76245   2.76770
 Alpha virt. eigenvalues --    2.76862   2.77033   2.78396   2.79287   2.83563
 Alpha virt. eigenvalues --    2.84074   2.84217   2.84275   2.84513   2.84760
 Alpha virt. eigenvalues --    2.84790   2.84850   2.86567   2.86614   2.87320
 Alpha virt. eigenvalues --    2.87857   2.89583   2.89639   2.89714   2.89743
 Alpha virt. eigenvalues --    2.90865   2.91041   2.91302   2.91579   2.94060
 Alpha virt. eigenvalues --    2.94459   2.95040   2.95209   2.95386   2.95615
 Alpha virt. eigenvalues --    2.95849   2.96338   2.97353   2.97816   2.98448
 Alpha virt. eigenvalues --    2.99268   2.99319   2.99377   3.00724   3.02899
 Alpha virt. eigenvalues --    3.03644   3.03922   3.03988   3.04274   3.05221
 Alpha virt. eigenvalues --    3.05409   3.05533   3.05601   3.08037   3.08412
 Alpha virt. eigenvalues --    3.08617   3.09174   3.09449   3.10561   3.12640
 Alpha virt. eigenvalues --    3.13364   3.13752   3.14065   3.14313   3.15078
 Alpha virt. eigenvalues --    3.15312   3.15600   3.15718   3.16229   3.16555
 Alpha virt. eigenvalues --    3.17314   3.19169   3.19616   3.20286   3.21782
 Alpha virt. eigenvalues --    3.21919   3.23065   3.24053   3.25810   3.26446
 Alpha virt. eigenvalues --    3.27063   3.27590   3.28312   3.29329   3.29488
 Alpha virt. eigenvalues --    3.30847   3.31632   3.32169   3.34713   3.35169
 Alpha virt. eigenvalues --    3.42608   3.42965   3.43739   3.45651   3.46771
 Alpha virt. eigenvalues --    3.47033   3.47729   3.48173   3.48383   3.50004
 Alpha virt. eigenvalues --    3.59413   3.62537   3.72919   3.73090   3.75850
 Alpha virt. eigenvalues --    3.80173   3.96313   3.96469   3.97074   3.97162
 Alpha virt. eigenvalues --    4.21191   4.21274   4.21304   4.21373  21.03964
 Alpha virt. eigenvalues --   21.13331  21.13462  21.14894  21.15272  21.24645
 Alpha virt. eigenvalues --   21.56038  21.57406  21.57544  21.60535  21.60891
 Alpha virt. eigenvalues --   21.61075  21.63109  21.65058  21.67533  21.72252
 Alpha virt. eigenvalues --   21.72768  21.78458  21.78780  21.82476  21.83394
 Alpha virt. eigenvalues --   21.84145  21.84883  21.85546  21.86188  21.87664
 Alpha virt. eigenvalues --   21.90021  21.90243  21.90474  21.91597  21.96193
 Alpha virt. eigenvalues --   21.97155  22.01647  22.02738  22.04426  22.05032
 Alpha virt. eigenvalues --   31.90878  31.91933  43.13778  43.13867  43.13946
 Alpha virt. eigenvalues --   43.14082
  Beta  occ. eigenvalues --  -18.95736 -18.95674 -18.95596 -18.95589 -14.23168
  Beta  occ. eigenvalues --  -14.22910 -10.12936 -10.12879 -10.12777 -10.12773
  Beta  occ. eigenvalues --  -10.12702 -10.12580 -10.11143 -10.11108 -10.10967
  Beta  occ. eigenvalues --  -10.10961 -10.09130 -10.09030 -10.08063 -10.08060
  Beta  occ. eigenvalues --  -10.08010 -10.08002 -10.07986 -10.07973 -10.07879
  Beta  occ. eigenvalues --  -10.07869 -10.07777 -10.07627 -10.07515 -10.07512
  Beta  occ. eigenvalues --  -10.07507 -10.07458 -10.07408 -10.07407 -10.07274
  Beta  occ. eigenvalues --  -10.07174 -10.07085 -10.07078 -10.06597 -10.06591
  Beta  occ. eigenvalues --  -10.06502 -10.06499  -1.14956  -1.14893  -1.14821
  Beta  occ. eigenvalues --   -1.14816  -1.08645  -1.08463  -0.98741  -0.97166
  Beta  occ. eigenvalues --   -0.96905  -0.96767  -0.95489  -0.94823  -0.90206
  Beta  occ. eigenvalues --   -0.87847  -0.87541  -0.87252  -0.86710  -0.86571
  Beta  occ. eigenvalues --   -0.86432  -0.86263  -0.86073  -0.85895  -0.83376
  Beta  occ. eigenvalues --   -0.81615  -0.77397  -0.76481  -0.75770  -0.75460
  Beta  occ. eigenvalues --   -0.74694  -0.74476  -0.74134  -0.73571  -0.72525
  Beta  occ. eigenvalues --   -0.72298  -0.70641  -0.70029  -0.68011  -0.67650
  Beta  occ. eigenvalues --   -0.67502  -0.67439  -0.67052  -0.66828  -0.66051
  Beta  occ. eigenvalues --   -0.65491  -0.64100  -0.61756  -0.61432  -0.60661
  Beta  occ. eigenvalues --   -0.60107  -0.59871  -0.58584  -0.58100  -0.57918
  Beta  occ. eigenvalues --   -0.57400  -0.57365  -0.57301  -0.57091  -0.56273
  Beta  occ. eigenvalues --   -0.55773  -0.55760  -0.55552  -0.55456  -0.55410
  Beta  occ. eigenvalues --   -0.55263  -0.54804  -0.54257  -0.54102  -0.54089
  Beta  occ. eigenvalues --   -0.54002  -0.53607  -0.53305  -0.53093  -0.52678
  Beta  occ. eigenvalues --   -0.52252  -0.51376  -0.50974  -0.50581  -0.50336
  Beta  occ. eigenvalues --   -0.49234  -0.49146  -0.49110  -0.48730  -0.48137
  Beta  occ. eigenvalues --   -0.48025  -0.47828  -0.47311  -0.47124  -0.47101
  Beta  occ. eigenvalues --   -0.47089  -0.45423  -0.43178  -0.41424  -0.41306
  Beta  occ. eigenvalues --   -0.40473  -0.40375  -0.40317  -0.40148  -0.39674
  Beta  occ. eigenvalues --   -0.37319  -0.37180  -0.37119  -0.30213
  Beta virt. eigenvalues --   -0.22183  -0.09545  -0.08091  -0.07882  -0.06087
  Beta virt. eigenvalues --   -0.06003  -0.05934  -0.05639  -0.05551  -0.05513
  Beta virt. eigenvalues --   -0.05315  -0.02492  -0.01184   0.00141   0.00294
  Beta virt. eigenvalues --    0.00333   0.00407   0.00936   0.01433   0.02373
  Beta virt. eigenvalues --    0.02625   0.02769   0.02819   0.03179   0.04476
  Beta virt. eigenvalues --    0.04566   0.04859   0.05003   0.05129   0.05458
  Beta virt. eigenvalues --    0.05985   0.06583   0.06698   0.06949   0.08021
  Beta virt. eigenvalues --    0.08470   0.08498   0.08581   0.08640   0.08730
  Beta virt. eigenvalues --    0.08765   0.08857   0.09022   0.09268   0.09389
  Beta virt. eigenvalues --    0.10521   0.10683   0.10890   0.11211   0.12088
  Beta virt. eigenvalues --    0.12460   0.12586   0.12716   0.12883   0.13564
  Beta virt. eigenvalues --    0.13969   0.14359   0.14449   0.14707   0.15000
  Beta virt. eigenvalues --    0.15660   0.16004   0.16538   0.16775   0.16888
  Beta virt. eigenvalues --    0.17036   0.17207   0.17764   0.18008   0.18079
  Beta virt. eigenvalues --    0.18212   0.18418   0.18432   0.18545   0.18825
  Beta virt. eigenvalues --    0.18910   0.19261   0.19334   0.19961   0.20241
  Beta virt. eigenvalues --    0.20407   0.20492   0.20772   0.20858   0.20993
  Beta virt. eigenvalues --    0.21363   0.21474   0.21807   0.21877   0.22077
  Beta virt. eigenvalues --    0.22285   0.22950   0.23553   0.23713   0.23902
  Beta virt. eigenvalues --    0.24211   0.24277   0.24542   0.24645   0.24734
  Beta virt. eigenvalues --    0.24918   0.25115   0.25265   0.25546   0.25890
  Beta virt. eigenvalues --    0.26154   0.26276   0.26539   0.27111   0.27445
  Beta virt. eigenvalues --    0.27510   0.27611   0.27857   0.27984   0.28449
  Beta virt. eigenvalues --    0.28963   0.29237   0.29473   0.29577   0.30076
  Beta virt. eigenvalues --    0.30557   0.30721   0.30897   0.31029   0.31345
  Beta virt. eigenvalues --    0.31633   0.32053   0.32388   0.32589   0.32657
  Beta virt. eigenvalues --    0.32762   0.32993   0.33114   0.33268   0.33718
  Beta virt. eigenvalues --    0.33828   0.33964   0.34144   0.34403   0.34437
  Beta virt. eigenvalues --    0.34652   0.34750   0.34854   0.34928   0.34988
  Beta virt. eigenvalues --    0.35361   0.35708   0.35861   0.35927   0.36203
  Beta virt. eigenvalues --    0.36338   0.36674   0.36735   0.36837   0.37319
[...]
 
              Baa    -0.0065    -0.875    -0.312    -0.292 -0.1991 -0.6447  0.7381
     6 C(13)  Bbb    -0.0034    -0.458    -0.163    -0.153  0.9297 -0.3623 -0.0657
              Bcc     0.0099     1.332     0.475     0.444  0.3098  0.6731  0.6715
 
              Baa    -0.0020    -1.074    -0.383    -0.358 -0.0984  0.2563  0.9616
     7 H(1)   Bbb    -0.0000    -0.002    -0.001    -0.001  0.9935 -0.0295  0.1095
              Bcc     0.0020     1.076     0.384     0.359  0.0565  0.9661 -0.2518
 
              Baa    -0.0025    -1.333    -0.476    -0.445  0.1593  0.3218  0.9333
     8 H(1)   Bbb    -0.0013    -0.717    -0.256    -0.239  0.9766 -0.1899 -0.1012
              Bcc     0.0038     2.050     0.731     0.684  0.1447  0.9276 -0.3445
 
              Baa    -0.0020    -1.077    -0.384    -0.359  0.0973  0.2565  0.9616
     9 H(1)   Bbb     0.0000     0.005     0.002     0.002  0.9939  0.0255 -0.1074
              Bcc     0.0020     1.072     0.383     0.358 -0.0520  0.9662 -0.2525
 
              Baa    -0.0394    -5.281    -1.884    -1.761  0.0035  0.9879  0.1549
    10 C(13)  Bbb    -0.0345    -4.632    -1.653    -1.545  1.0000 -0.0038  0.0017
              Bcc     0.0739     9.913     3.537     3.307 -0.0023 -0.1549  0.9879
 
              Baa    -0.0064    -0.856    -0.305    -0.285 -0.1797  0.6099  0.7718
    11 C(13)  Bbb    -0.0028    -0.377    -0.135    -0.126  0.9334  0.3534 -0.0619
              Bcc     0.0092     1.233     0.440     0.411 -0.3106  0.7093 -0.6328
 
              Baa    -0.0062    -0.835    -0.298    -0.279  0.2135  0.5511  0.8067
    12 C(13)  Bbb    -0.0023    -0.311    -0.111    -0.104  0.9095 -0.4136  0.0418
              Bcc     0.0085     1.146     0.409     0.382  0.3567  0.7247 -0.5895
 
              Baa    -0.0244    -3.271    -1.167    -1.091 -0.5454  0.6684  0.5058
    13 C(13)  Bbb    -0.0211    -2.826    -1.008    -0.943  0.8379  0.4185  0.3505
              Bcc     0.0454     6.096     2.175     2.033 -0.0226 -0.6149  0.7883
 
              Baa    -0.0246    -3.298    -1.177    -1.100  0.5466  0.6690  0.5037
    14 C(13)  Bbb    -0.0213    -2.853    -1.018    -0.952  0.8372 -0.4236 -0.3459
              Bcc     0.0458     6.151     2.195     2.052  0.0180 -0.6108  0.7916
 
              Baa    -0.0234    -3.135    -1.119    -1.046  0.0066  0.9922  0.1246
    15 C(13)  Bbb    -0.0128    -1.724    -0.615    -0.575  0.9998 -0.0042 -0.0193
              Bcc     0.0362     4.859     1.734     1.621  0.0187 -0.1247  0.9920
 
              Baa    -0.0020    -1.088    -0.388    -0.363  0.0961 -0.2765  0.9562
    16 H(1)   Bbb     0.0000     0.019     0.007     0.006  0.9940 -0.0238 -0.1068
              Bcc     0.0020     1.069     0.381     0.357  0.0523  0.9607  0.2725
 
              Baa    -0.0020    -1.088    -0.388    -0.363 -0.0932 -0.2752  0.9569
    17 H(1)   Bbb     0.0001     0.046     0.016     0.015  0.9951  0.0046  0.0983
              Bcc     0.0020     1.042     0.372     0.348 -0.0314  0.9614  0.2734
 
              Baa    -0.0026    -1.381    -0.493    -0.461  0.1678 -0.3314  0.9285
    18 H(1)   Bbb    -0.0014    -0.752    -0.268    -0.251  0.9746  0.1972 -0.1057
              Bcc     0.0040     2.133     0.761     0.712 -0.1481  0.9227  0.3561
 
              Baa    -0.0026    -1.369    -0.488    -0.457 -0.1584 -0.3354  0.9287
    19 H(1)   Bbb    -0.0014    -0.770    -0.275    -0.257  0.9773 -0.1875  0.0990
              Bcc     0.0040     2.139     0.763     0.714  0.1409  0.9232  0.3574
 
              Baa    -0.0025    -1.333    -0.476    -0.445 -0.1634  0.3216  0.9327
    20 H(1)   Bbb    -0.0013    -0.719    -0.257    -0.240  0.9758  0.1918  0.1048
              Bcc     0.0038     2.052     0.732     0.684 -0.1452  0.9273 -0.3451
 
              Baa    -0.2491    -9.607    -3.428    -3.205  0.0651  0.9640 -0.2578
    21 N(14)  Bbb    -0.2484    -9.582    -3.419    -3.196  0.9979 -0.0640  0.0127
              Bcc     0.4976    19.189     6.847     6.401  0.0042  0.2581  0.9661
 
              Baa    -0.0093    -1.246    -0.444    -0.415  0.7619 -0.6475  0.0174
    22 C(13)  Bbb     0.0017     0.226     0.081     0.075  0.4051  0.4973  0.7672
              Bcc     0.0076     1.019     0.364     0.340 -0.5054 -0.5774  0.6412
 
              Baa    -0.0223    -2.995    -1.069    -0.999  0.0874 -0.5723  0.8154
    23 C(13)  Bbb    -0.0191    -2.558    -0.913    -0.853  0.5730  0.6984  0.4288
              Bcc     0.0414     5.554     1.982     1.853  0.8149 -0.4297 -0.3890
 
              Baa    -0.0253    -3.398    -1.213    -1.134  0.6896  0.4812  0.5413
    24 C(13)  Bbb    -0.0223    -2.988    -1.066    -0.997 -0.2175 -0.5753  0.7885
              Bcc     0.0476     6.386     2.279     2.130  0.6908 -0.6615 -0.2920
 
              Baa    -0.0103    -1.380    -0.492    -0.460 -0.4561  0.6430  0.6153
    25 C(13)  Bbb     0.0040     0.534     0.191     0.178  0.5800 -0.3097  0.7535
              Bcc     0.0063     0.845     0.302     0.282  0.6750  0.7005 -0.2316
 
              Baa    -0.0119    -1.600    -0.571    -0.534 -0.6054  0.4303  0.6696
    26 C(13)  Bbb     0.0047     0.631     0.225     0.210  0.6646 -0.1895  0.7228
              Bcc     0.0072     0.970     0.346     0.323  0.4379  0.8826 -0.1712
 
              Baa    -0.0275    -3.688    -1.316    -1.230  0.6368 -0.2395  0.7329
    27 C(13)  Bbb    -0.0246    -3.300    -1.178    -1.101  0.5437  0.8135 -0.2065
              Bcc     0.0521     6.988     2.493     2.331 -0.5467  0.5300  0.6482
 
              Baa    -0.0021    -1.117    -0.399    -0.373 -0.4416  0.6687  0.5982
    28 H(1)   Bbb    -0.0009    -0.479    -0.171    -0.160  0.6164  0.7106 -0.3393
              Bcc     0.0030     1.596     0.570     0.532  0.6520 -0.2189  0.7260
 
              Baa    -0.0022    -1.152    -0.411    -0.384 -0.5886  0.5331  0.6078
    29 H(1)   Bbb    -0.0007    -0.389    -0.139    -0.130  0.3882  0.8458 -0.3659
              Bcc     0.0029     1.541     0.550     0.514  0.7091 -0.0206  0.7048
 
              Baa    -0.0011    -0.609    -0.217    -0.203  0.6242 -0.5719 -0.5322
    30 H(1)   Bbb     0.0005     0.244     0.087     0.082  0.2434  0.7897 -0.5631
              Bcc     0.0007     0.365     0.130     0.122  0.7424  0.2220  0.6322
 
              Baa    -0.0012    -0.635    -0.226    -0.212  0.6273 -0.5808 -0.5188
    31 H(1)   Bbb     0.0004     0.239     0.085     0.080  0.5245 -0.1774  0.8327
              Bcc     0.0007     0.396     0.141     0.132  0.5757  0.7945 -0.1934
 
              Baa    -0.0092    -1.234    -0.440    -0.412  0.7839  0.6202 -0.0281
    32 C(13)  Bbb     0.0025     0.334     0.119     0.111 -0.3232  0.4464  0.8344
              Bcc     0.0067     0.901     0.321     0.300 -0.5301  0.6450 -0.5504
 
              Baa    -0.0247    -3.319    -1.184    -1.107 -0.0859 -0.5845  0.8068
    33 C(13)  Bbb    -0.0214    -2.876    -1.026    -0.959 -0.5876  0.6837  0.4328
              Bcc     0.0462     6.195     2.211     2.067  0.8046  0.4369  0.4022
 
              Baa    -0.0232    -3.120    -1.113    -1.041  0.6852 -0.4796 -0.5482
    34 C(13)  Bbb    -0.0203    -2.722    -0.971    -0.908  0.2279 -0.5736  0.7868
              Bcc     0.0435     5.842     2.084     1.949  0.6918  0.6640  0.2837
 
              Baa    -0.0088    -1.179    -0.421    -0.393  0.4311  0.6544  0.6212
    35 C(13)  Bbb     0.0031     0.419     0.150     0.140 -0.6058 -0.3003  0.7368
              Bcc     0.0057     0.760     0.271     0.253 -0.6687  0.6940 -0.2669
 
              Baa    -0.0133    -1.786    -0.637    -0.596  0.6049  0.4367  0.6659
    36 C(13)  Bbb     0.0055     0.739     0.264     0.247 -0.6721 -0.1684  0.7210
              Bcc     0.0078     1.047     0.373     0.349 -0.4270  0.8837 -0.1916
 
              Baa    -0.0277    -3.721    -1.328    -1.241 -0.6748 -0.1830  0.7150
    37 C(13)  Bbb    -0.0248    -3.333    -1.189    -1.112 -0.4933  0.8324 -0.2525
              Bcc     0.0526     7.055     2.517     2.353  0.5490  0.5231  0.6519
 
              Baa    -0.0022    -1.151    -0.411    -0.384  0.3915  0.7070  0.5890
    38 H(1)   Bbb    -0.0010    -0.546    -0.195    -0.182  0.6907 -0.6487  0.3196
              Bcc     0.0032     1.698     0.606     0.566 -0.6080 -0.2817  0.7423
 
              Baa    -0.0021    -1.145    -0.409    -0.382  0.5832  0.5416  0.6054
    39 H(1)   Bbb    -0.0006    -0.297    -0.106    -0.099 -0.4399  0.8371 -0.3251
              Bcc     0.0027     1.442     0.514     0.481 -0.6829 -0.0767  0.7265
 
              Baa    -0.0012    -0.623    -0.222    -0.208  0.6105  0.5847  0.5342
    40 H(1)   Bbb     0.0004     0.198     0.071     0.066 -0.1596  0.7515 -0.6402
              Bcc     0.0008     0.425     0.152     0.142  0.7758 -0.3056 -0.5521
 
              Baa    -0.0012    -0.634    -0.226    -0.211  0.6235  0.5943  0.5080
    41 H(1)   Bbb     0.0004     0.219     0.078     0.073 -0.3100 -0.4086  0.8585
              Bcc     0.0008     0.415     0.148     0.138  0.7178 -0.6927 -0.0705
 
              Baa    -0.2370    -9.142    -3.262    -3.049 -0.0024  0.9656  0.2599
    42 N(14)  Bbb    -0.2362    -9.112    -3.251    -3.039  1.0000  0.0017  0.0027
              Bcc     0.4733    18.253     6.513     6.089 -0.0022 -0.2599  0.9656
 
              Baa    -0.0090    -1.209    -0.431    -0.403  0.7610 -0.6488  0.0039
    43 C(13)  Bbb     0.0020     0.263     0.094     0.088 -0.3736 -0.4332  0.8202
              Bcc     0.0071     0.946     0.338     0.316  0.5304  0.6256  0.5721
 
              Baa    -0.0232    -3.116    -1.112    -1.040 -0.0936  0.5669  0.8184
    44 C(13)  Bbb    -0.0200    -2.683    -0.957    -0.895  0.5815  0.6984 -0.4173
              Bcc     0.0432     5.800     2.069     1.935  0.8081 -0.4369  0.3951
 
              Baa    -0.0219    -2.933    -1.047    -0.978  0.6797  0.4884 -0.5473
    45 C(13)  Bbb    -0.0190    -2.547    -0.909    -0.850  0.2373  0.5596  0.7941
              Bcc     0.0408     5.480     1.955     1.828  0.6940 -0.6696  0.2645
 
              Baa    -0.0085    -1.146    -0.409    -0.382 -0.4431  0.6588 -0.6080
    46 C(13)  Bbb     0.0031     0.410     0.146     0.137 -0.6005  0.2854  0.7469
              Bcc     0.0055     0.736     0.263     0.245  0.6656  0.6961  0.2691
 
              Baa    -0.0125    -1.673    -0.597    -0.558  0.6089 -0.4409  0.6594
    47 C(13)  Bbb     0.0051     0.685     0.244     0.228 -0.6743  0.1501  0.7230
              Bcc     0.0074     0.989     0.353     0.330  0.4177  0.8849  0.2059
 
              Baa    -0.0257    -3.453    -1.232    -1.152 -0.6704  0.1763  0.7207
    48 C(13)  Bbb    -0.0230    -3.087    -1.101    -1.030  0.4961  0.8288  0.2587
              Bcc     0.0487     6.540     2.334     2.182  0.5518 -0.5310  0.6431
 
              Baa    -0.0020    -1.079    -0.385    -0.360 -0.4067  0.7008 -0.5861
    49 H(1)   Bbb    -0.0010    -0.518    -0.185    -0.173  0.6684  0.6656  0.3321
              Bcc     0.0030     1.597     0.570     0.533 -0.6228  0.2567  0.7390
 
              Baa    -0.0020    -1.088    -0.388    -0.363  0.5763 -0.5612  0.5941
    50 H(1)   Bbb    -0.0005    -0.251    -0.089    -0.084  0.4503  0.8247  0.3421
              Bcc     0.0025     1.339     0.478     0.447 -0.6819  0.0703  0.7280
 
              Baa    -0.0011    -0.583    -0.208    -0.194  0.6116 -0.5911  0.5260
    51 H(1)   Bbb     0.0004     0.189     0.068     0.063  0.1001  0.7172  0.6896
              Bcc     0.0007     0.394     0.140     0.131  0.7848  0.3691 -0.4978
 
              Baa    -0.0011    -0.596    -0.213    -0.199  0.6255 -0.6018  0.4966
    52 H(1)   Bbb     0.0004     0.202     0.072     0.067 -0.3468  0.3558  0.8679
              Bcc     0.0007     0.394     0.141     0.132  0.6990  0.7150 -0.0138
 
              Baa    -0.0090    -1.211    -0.432    -0.404  0.7597  0.6503 -0.0065
    53 C(13)  Bbb     0.0020     0.263     0.094     0.088  0.3707 -0.4248  0.8259
              Bcc     0.0071     0.948     0.338     0.316 -0.5343  0.6298  0.5637
 
              Baa    -0.0233    -3.124    -1.115    -1.042  0.0895  0.5686  0.8178
    54 C(13)  Bbb    -0.0201    -2.692    -0.961    -0.898 -0.5827  0.6958 -0.4200
              Bcc     0.0433     5.817     2.076     1.940  0.8078  0.4389 -0.3935
 
              Baa    -0.0219    -2.939    -1.049    -0.980  0.6789 -0.4865  0.5499
    55 C(13)  Bbb    -0.0190    -2.554    -0.912    -0.852 -0.2399  0.5609  0.7924
              Bcc     0.0409     5.494     1.960     1.832  0.6939  0.6699 -0.2641
 
              Baa    -0.0086    -1.148    -0.410    -0.383  0.4442  0.6581 -0.6080
    56 C(13)  Bbb     0.0031     0.411     0.147     0.137  0.5987  0.2868  0.7479
              Bcc     0.0055     0.736     0.263     0.246 -0.6665  0.6962  0.2666
 
              Baa    -0.0125    -1.680    -0.600    -0.561 -0.6098 -0.4425  0.6576
    57 C(13)  Bbb     0.0051     0.689     0.246     0.230  0.6706  0.1542  0.7256
              Bcc     0.0074     0.991     0.354     0.331 -0.4225  0.8834  0.2027
 
              Baa    -0.0258    -3.463    -1.236    -1.155  0.6680  0.1784  0.7225
    58 C(13)  Bbb    -0.0231    -3.096    -1.105    -1.033 -0.4985  0.8282  0.2563
              Bcc     0.0489     6.559     2.340     2.188 -0.5526 -0.5313  0.6421
 
              Baa    -0.0020    -1.080    -0.385    -0.360  0.4050  0.7031 -0.5845
    59 H(1)   Bbb    -0.0010    -0.520    -0.185    -0.173  0.6736 -0.6617 -0.3292
              Bcc     0.0030     1.599     0.571     0.533  0.6182  0.2604  0.7416
 
              Baa    -0.0020    -1.088    -0.388    -0.363 -0.5782 -0.5612  0.5922
    60 H(1)   Bbb    -0.0005    -0.253    -0.090    -0.084 -0.4514  0.8247  0.3407
              Bcc     0.0025     1.341     0.478     0.447  0.6796  0.0703  0.7302
 
              Baa    -0.0011    -0.584    -0.208    -0.195  0.6119  0.5914 -0.5252
    61 H(1)   Bbb     0.0004     0.190     0.068     0.063 -0.1055  0.7191  0.6869
              Bcc     0.0007     0.394     0.140     0.131  0.7839 -0.3649  0.5024
 
              Baa    -0.0011    -0.597    -0.213    -0.199  0.6257  0.6026 -0.4954
    62 H(1)   Bbb     0.0004     0.201     0.072     0.067  0.3405  0.3605  0.8684
              Bcc     0.0007     0.396     0.141     0.132 -0.7019  0.7120 -0.0204
 
              Baa    -0.0397     2.875     1.026     0.959  0.0620  0.6967  0.7147
    63 O(17)  Bbb    -0.0382     2.765     0.987     0.922  0.7932 -0.4690  0.3884
              Bcc     0.0779    -5.640    -2.013    -1.881  0.6058  0.5428 -0.5817
 
              Baa    -0.0020    -1.068    -0.381    -0.356 -0.1178  0.7997  0.5888
    64 H(1)   Bbb    -0.0013    -0.718    -0.256    -0.240  0.6019  0.5291 -0.5981
              Bcc     0.0033     1.786     0.637     0.596  0.7898 -0.2839  0.5437
 
              Baa    -0.0396     2.869     1.024     0.957 -0.0663  0.6947  0.7163
    65 O(17)  Bbb    -0.0381     2.760     0.985     0.921  0.7928  0.4726 -0.3849
              Bcc     0.0778    -5.628    -2.008    -1.877  0.6059 -0.5423  0.5821
 
              Baa    -0.0020    -1.066    -0.380    -0.356  0.1148  0.7985  0.5910
    66 H(1)   Bbb    -0.0013    -0.717    -0.256    -0.239  0.6019 -0.5292  0.5981
              Bcc     0.0033     1.783     0.636     0.595  0.7903  0.2871 -0.5414
 
              Baa    -0.0423     3.061     1.092     1.021  0.8019  0.4728  0.3652
    67 O(17)  Bbb    -0.0408     2.950     1.053     0.984  0.0789 -0.6897  0.7198
              Bcc     0.0831    -6.011    -2.145    -2.005  0.5922 -0.5484 -0.5904
 
              Baa    -0.0021    -1.122    -0.400    -0.374  0.7378  0.6457  0.1967
    68 H(1)   Bbb    -0.0014    -0.757    -0.270    -0.253  0.6155 -0.5239 -0.5888
              Bcc     0.0035     1.879     0.670     0.627  0.2772 -0.5555  0.7840
 
              Baa    -0.0430     3.114     1.111     1.039  0.0609  0.7104 -0.7012
    69 O(17)  Bbb    -0.0414     2.997     1.069     1.000  0.7975 -0.4570 -0.3938
              Bcc     0.0844    -6.110    -2.180    -2.038  0.6002  0.5352  0.5944
 
              Baa    -0.0022    -1.157    -0.413    -0.386 -0.1159  0.8091 -0.5761
    70 H(1)   Bbb    -0.0015    -0.774    -0.276    -0.258  0.5967  0.5204  0.6108
              Bcc     0.0036     1.932     0.689     0.644  0.7940 -0.2729 -0.5431
 

 ---------------------------------------------------------------------------------

 No NMR shielding tensors so no spin-rotation constants.
 Leave Link  601 at Mon Jan 18 07:52:47 2021, MaxMem=  4026531840 cpu:              11.2 elap:               1.5
 (Enter /opt/ohpc/pub/libs/gaussian/g16-A.03/sandybridge/g16/l9999.exe)

 Test job not archived.
 1\1\GINC-CASCADEB037\SP\ULC-wHPBE\TZVP\C36H28N2O4(1+,2)\RDU230\18-Jan-
 2021\0\\#P LC-wHPBE/TZVP iop(3/107=0156200000, 3/108=0156200000) scf=(
 conver=6,fermi,ndamp=35,noincfock,novaracc,vshift=500,xqc)\\H28 C36 N2
  O4\\1,2\C,0,2.858499,1.142103,-0.374244\C,0,3.579312,-0.001087,0.0033
 59\C,0,1.469111,1.138314,-0.362939\C,0,2.858875,-1.143435,0.384264\C,0
 ,0.739097,0.000512,0.009817\C,0,1.469477,-1.138129,0.379362\H,0,0.9371
 92,2.033473,-0.688815\H,0,3.397761,-2.037798,0.696269\H,0,0.938071,-2.
 032504,0.708142\C,0,-0.742883,0.001384,0.012974\C,0,-1.474511,-1.13085
 8,-0.372988\C,0,-1.47149,1.134716,0.402503\C,0,-2.8641,-1.134318,-0.37
 8218\C,0,-2.860735,1.140009,0.413286\C,0,-3.582937,0.003346,0.018716\H
 ,0,-0.94411,-2.02123,-0.714069\H,0,-0.938347,2.023708,0.742945\H,0,-3.
 404263,-2.023625,-0.702274\H,0,-3.398798,2.029064,0.741639\H,0,3.39702
 4,2.035914,-0.688457\N,0,-4.995311,0.005703,0.022721\C,0,-5.713915,1.1
 8551,-0.315496\C,0,-6.824749,1.586223,0.439679\C,0,-5.336499,1.964565,
 -1.414395\C,0,-7.543368,2.726588,0.103607\C,0,-6.037549,3.122582,-1.73
 9703\C,0,-7.148838,3.50571,-0.986012\H,0,-7.129554,0.987536,1.298124\H
 ,0,-4.477812,1.664402,-2.014832\H,0,-8.408278,3.036049,0.689802\H,0,-5
 .72457,3.720924,-2.59898\C,0,-5.717056,-1.178925,0.336296\C,0,-6.82180
 7,-1.565845,-0.429047\C,0,-5.346761,-1.975943,1.428789\C,0,-7.543924,-
 2.712298,-0.10728\C,0,-6.0478,-3.134194,1.738027\C,0,-7.155651,-3.5063
 91,0.973222\H,0,-7.124426,-0.956025,-1.280239\H,0,-4.491517,-1.682511,
 2.037555\H,0,-8.407549,-2.995534,-0.714075\H,0,-5.757368,-3.754511,2.5
 85554\N,0,4.991423,-0.001999,0.00006\C,0,5.710552,-1.183762,-0.330631\
 C,0,6.812654,-1.584277,0.431608\C,0,5.340603,-1.964026,-1.435102\C,0,7
 .532572,-2.727778,0.095183\C,0,6.039551,-3.119564,-1.759528\C,0,7.1446
 32,-3.505373,-0.997606\H,0,7.113605,-0.987752,1.292811\H,0,4.486562,-1
 .660323,-2.040543\H,0,8.393358,-3.022713,0.700462\H,0,5.749024,-3.7275
 28,-2.615933\C,0,5.713955,1.17869,0.326778\C,0,6.814458,1.575861,-0.43
 9552\C,0,5.349314,1.961286,1.431414\C,0,7.537888,2.718318,-0.107058\C,
 0,6.051756,3.115796,1.751909\C,0,7.155153,3.498257,0.985865\H,0,7.1115
 09,0.977436,-1.300789\H,0,4.49683,1.660119,2.040298\H,0,8.397429,3.010
 471,-0.715458\H,0,5.765438,3.72535,2.608604\O,0,7.820509,4.641023,1.35
 5507\H,0,8.555246,4.78867,0.739309\O,0,7.806379,-4.648952,-1.371018\H,
 0,8.541702,-4.800061,-0.75635\O,0,-7.887404,4.628973,-1.265636\H,0,-7.
 503413,5.071476,-2.03899\O,0,-7.819547,-4.653451,1.332021\H,0,-8.56035
 4,-4.790553,0.720672\\Version=EM64L-G16RevA.03\State=2-A\HF=-1797.7175
 924\S2=0.768756\S2-1=0.\S2A=0.750179\RMSD=8.003e-07\Dipole=0.4613184,0
 .1636499,-0.8170801\Quadrupole=96.8310283,-33.5755938,-63.2554344,4.04
 21648,11.0796771,-9.216927\PG=C01 [X(C36H28N2O4)]\\@


 THEORY:  SUPPOSITION WHICH HAS SCIENTIFIC BASIS,
          BUT NOT EXPERIMENTALLY PROVEN.
 FACT:    A THEORY WHICH HAS BEEN PROVEN BY ENOUGH 
          MONEY TO PAY FOR THE EXPERIMENTS.

                          --  THE WIZARD OF ID
 Job cpu time:       0 days  4 hours 43 minutes 56.2 seconds.
 Elapsed time:       0 days  0 hours 35 minutes 54.9 seconds.
 File lengths (MBytes):  RWF=    496 Int=      0 D2E=      0 Chk=     72 Scr=      8
 Normal termination of Gaussian 16 at Mon Jan 18 07:52:47 2021.
