 Entering Gaussian System, Link 0=g16
 Input=mol_bp_ma_whol_tune_n8.gjf
 Output=mol_bp_ma_whol_tune_n8.log
 Initial command:
 /opt/ohpc/pub/libs/gaussian/g16-A.03/sandybridge/g16/l1.exe "/mnt/gpfs2_4m/scratch/rdu230/ondemand/projects/init_structures/wtuning/mol_bp_ma_whol/tuning_mol_bp_ma_whol_ocycle0/Gau-46484.inp" -scrdir="/mnt/gpfs2_4m/scratch/rdu230/ondemand/projects/init_structures/wtuning/mol_bp_ma_whol/tuning_mol_bp_ma_whol_ocycle0/"
 Entering Link 1 = /opt/ohpc/pub/libs/gaussian/g16-A.03/sandybridge/g16/l1.exe PID=     46485.
  
 Copyright (c) 1988,1990,1992,1993,1995,1998,2003,2009,2016,
            Gaussian, Inc.  All Rights Reserved.
  
 This is part of the Gaussian(R) 16 program.  It is based on
 the Gaussian(R) 09 system (copyright 2009, Gaussian, Inc.),
 the Gaussian(R) 03 system (copyright 2003, Gaussian, Inc.),
 the Gaussian(R) 98 system (copyright 1998, Gaussian, Inc.),
 the Gaussian(R) 94 system (copyright 1995, Gaussian, Inc.),
 the Gaussian 92(TM) system (copyright 1992, Gaussian, Inc.),
 the Gaussian 90(TM) system (copyright 1990, Gaussian, Inc.),
 the Gaussian 88(TM) system (copyright 1988, Gaussian, Inc.),
 the Gaussian 86(TM) system (copyright 1986, Carnegie Mellon
 University), and the Gaussian 82(TM) system (copyright 1983,
 Carnegie Mellon University). Gaussian is a federally registered
 trademark of Gaussian, Inc.
  
 This software contains proprietary and confidential information,
 including trade secrets, belonging to Gaussian, Inc.
  
 This software is provided under written license and may be
 used, copied, transmitted, or stored only in accord with that
 written license.
  
 The following legend is applicable only to US Government
 contracts under FAR:
  
                    RESTRICTED RIGHTS LEGEND
  
 Use, reproduction and disclosure by the US Government is
 subject to restrictions as set forth in subparagraphs (a)
 and (c) of the Commercial Computer Software - Restricted
 Rights clause in FAR 52.227-19.
  
 Gaussian, Inc.
 340 Quinnipiac St., Bldg. 40, Wallingford CT 06492
  
  
 ---------------------------------------------------------------
 Warning -- This program may not be used in any manner that
 competes with the business of Gaussian, Inc. or will provide
 assistance to any competitor of Gaussian, Inc.  The licensee
 of this program is prohibited from giving any competitor of
 Gaussian, Inc. access to this program.  By using this program,
 the user acknowledges that Gaussian, Inc. is engaged in the
 business of creating and licensing software in the field of
 computational chemistry and represents and warrants to the
 licensee that it is not a competitor of Gaussian, Inc. and that
 it will not use this program in any manner prohibited above.
 ---------------------------------------------------------------
  

 Cite this work as:
 Gaussian 16, Revision A.03,
 M. J. Frisch, G. W. Trucks, H. B. Schlegel, G. E. Scuseria, 
 M. A. Robb, J. R. Cheeseman, G. Scalmani, V. Barone, 
 G. A. Petersson, H. Nakatsuji, X. Li, M. Caricato, A. V. Marenich, 
 J. Bloino, B. G. Janesko, R. Gomperts, B. Mennucci, H. P. Hratchian, 
 J. V. Ortiz, A. F. Izmaylov, J. L. Sonnenberg, D. Williams-Young, 
 F. Ding, F. Lipparini, F. Egidi, J. Goings, B. Peng, A. Petrone, 
 T. Henderson, D. Ranasinghe, V. G. Zakrzewski, J. Gao, N. Rega, 
 G. Zheng, W. Liang, M. Hada, M. Ehara, K. Toyota, R. Fukuda, 
 J. Hasegawa, M. Ishida, T. Nakajima, Y. Honda, O. Kitao, H. Nakai, 
 T. Vreven, K. Throssell, J. A. Montgomery, Jr., J. E. Peralta, 
 F. Ogliaro, M. J. Bearpark, J. J. Heyd, E. N. Brothers, K. N. Kudin, 
 V. N. Staroverov, T. A. Keith, R. Kobayashi, J. Normand, 
 K. Raghavachari, A. P. Rendell, J. C. Burant, S. S. Iyengar, 
 J. Tomasi, M. Cossi, J. M. Millam, M. Klene, C. Adamo, R. Cammi, 
 J. W. Ochterski, R. L. Martin, K. Morokuma, O. Farkas, 
 J. B. Foresman, and D. J. Fox, Gaussian, Inc., Wallingford CT, 2016.
 
 ******************************************
 Gaussian 16:  EM64L-G16RevA.03 25-Dec-2016
                18-Jan-2021 
 ******************************************
 %mem=30GB
 %nproc=8
 Will use up to    8 processors via shared memory.
 ----------------------------------------------------------------------
 #P LC-wHPBE/TZVP iop(3/107=0176300000, 3/108=0176300000) scf=(conver=6
 ,fermi,ndamp=35,noincfock,novaracc,vshift=500,xqc)
 ----------------------------------------------------------------------
 1/38=1,172=1/1;
 2/12=2,17=6,18=5,40=1/2;
 3/5=19,7=101,11=2,25=1,30=1,74=-71,107=176300000,108=176300000/1,2,3;
 4//1;
 5/5=100002,6=6,8=3,10=500,13=1,18=-1,22=13,38=1,93=35/2,8;
 6/7=2,8=2,9=2,10=2,28=1/1;
 99/5=1,9=1/99;
 Leave Link    1 at Mon Jan 18 12:24:08 2021, MaxMem=  4026531840 cpu:               0.9 elap:               0.2
 (Enter /opt/ohpc/pub/libs/gaussian/g16-A.03/sandybridge/g16/l101.exe)
 -------------
 H28 C36 N2 O4
 -------------
 Symbolic Z-matrix:
 Charge =  0 Multiplicity = 1
 C                     2.8585    1.1421   -0.37424 
 C                     3.57931  -0.00109   0.00336 
 C                     1.46911   1.13831  -0.36294 
 C                     2.85888  -1.14343   0.38426 
 C                     0.7391    0.00051   0.00982 
 C                     1.46948  -1.13813   0.37936 
 H                     0.93719   2.03347  -0.68882 
 H                     3.39776  -2.0378    0.69627 
 H                     0.93807  -2.0325    0.70814 
 C                    -0.74288   0.00138   0.01297 
 C                    -1.47451  -1.13086  -0.37299 
 C                    -1.47149   1.13472   0.4025 
 C                    -2.8641   -1.13432  -0.37822 
 C                    -2.86074   1.14001   0.41329 
 C                    -3.58294   0.00335   0.01872 
 H                    -0.94411  -2.02123  -0.71407 
 H                    -0.93835   2.02371   0.74295 
 H                    -3.40426  -2.02363  -0.70227 
 H                    -3.3988    2.02906   0.74164 
 H                     3.39702   2.03591  -0.68846 
 N                    -4.99531   0.0057    0.02272 
 C                    -5.71392   1.18551  -0.3155 
 C                    -6.82475   1.58622   0.43968 
 C                    -5.3365    1.96457  -1.4144 
 C                    -7.54337   2.72659   0.10361 
 C                    -6.03755   3.12258  -1.7397 
 C                    -7.14884   3.50571  -0.98601 
 H                    -7.12955   0.98754   1.29812 
 H                    -4.47781   1.6644   -2.01483 
 H                    -8.40828   3.03605   0.6898 
 H                    -5.72457   3.72092  -2.59898 
 C                    -5.71706  -1.17893   0.3363 
 C                    -6.82181  -1.56585  -0.42905 
 C                    -5.34676  -1.97594   1.42879 
 C                    -7.54392  -2.7123   -0.10728 
 C                    -6.0478   -3.13419   1.73803 
 C                    -7.15565  -3.50639   0.97322 
 H                    -7.12443  -0.95603  -1.28024 
 H                    -4.49152  -1.68251   2.03756 
 H                    -8.40755  -2.99553  -0.71408 
 H                    -5.75737  -3.75451   2.58555 
 N                     4.99142  -0.002     0.00006 
 C                     5.71055  -1.18376  -0.33063 
 C                     6.81265  -1.58428   0.43161 
 C                     5.3406   -1.96403  -1.4351 
 C                     7.53257  -2.72778   0.09518 
 C                     6.03955  -3.11956  -1.75953 
 C                     7.14463  -3.50537  -0.99761 
 H                     7.1136   -0.98775   1.29281 
 H                     4.48656  -1.66032  -2.04054 
 H                     8.39336  -3.02271   0.70046 
 H                     5.74902  -3.72753  -2.61593 
 C                     5.71396   1.17869   0.32678 
 C                     6.81446   1.57586  -0.43955 
 C                     5.34931   1.96129   1.43141 
 C                     7.53789   2.71832  -0.10706 
 C                     6.05176   3.1158    1.75191 
 C                     7.15515   3.49826   0.98587 
 H                     7.11151   0.97744  -1.30079 
 H                     4.49683   1.66012   2.0403 
 H                     8.39743   3.01047  -0.71546 
 H                     5.76544   3.72535   2.6086 
 O                     7.82051   4.64102   1.35551 
 H                     8.55525   4.78867   0.73931 
 O                     7.80638  -4.64895  -1.37102 
 H                     8.5417   -4.80006  -0.75635 
 O                    -7.8874    4.62897  -1.26564 
 H                    -7.50341   5.07148  -2.03899 
 O                    -7.81955  -4.65345   1.33202 
 H                    -8.56035  -4.79055   0.72067 
 
 ITRead=  0  0  0  0  0  0  0  0  0  0  0  0  0  0  0  0  0  0  0  0
 ITRead=  0  0  0  0  0  0  0  0  0  0  0  0  0  0  0  0  0  0  0  0
 ITRead=  0  0  0  0  0  0  0  0  0  0  0  0  0  0  0  0  0  0  0  0
 ITRead=  0  0  0  0  0  0  0  0  0  0
 MicOpt= -1 -1 -1 -1 -1 -1 -1 -1 -1 -1 -1 -1 -1 -1 -1 -1 -1 -1 -1 -1
 MicOpt= -1 -1 -1 -1 -1 -1 -1 -1 -1 -1 -1 -1 -1 -1 -1 -1 -1 -1 -1 -1
 MicOpt= -1 -1 -1 -1 -1 -1 -1 -1 -1 -1 -1 -1 -1 -1 -1 -1 -1 -1 -1 -1
 MicOpt= -1 -1 -1 -1 -1 -1 -1 -1 -1 -1
 NAtoms=     70 NQM=       70 NQMF=       0 NMMI=      0 NMMIF=      0
                NMic=       0 NMicF=      0.
                    Isotopes and Nuclear Properties:
 (Nuclear quadrupole moments (NQMom) in fm**2, nuclear magnetic moments (NMagM)
  in nuclear magnetons)

  Atom         1           2           3           4           5           6           7           8           9          10
 IAtWgt=          12          12          12          12          12          12           1           1           1          12
 AtmWgt=  12.0000000  12.0000000  12.0000000  12.0000000  12.0000000  12.0000000   1.0078250   1.0078250   1.0078250  12.0000000
 NucSpn=           0           0           0           0           0           0           1           1           1           0
 AtZEff=  -0.0000000  -0.0000000  -0.0000000  -0.0000000  -0.0000000  -0.0000000  -0.0000000  -0.0000000  -0.0000000  -0.0000000
 NQMom=    0.0000000   0.0000000   0.0000000   0.0000000   0.0000000   0.0000000   0.0000000   0.0000000   0.0000000   0.0000000
 NMagM=    0.0000000   0.0000000   0.0000000   0.0000000   0.0000000   0.0000000   2.7928460   2.7928460   2.7928460   0.0000000
 AtZNuc=   6.0000000   6.0000000   6.0000000   6.0000000   6.0000000   6.0000000   1.0000000   1.0000000   1.0000000   6.0000000

  Atom        11          12          13          14          15          16          17          18          19          20
 IAtWgt=          12          12          12          12          12           1           1           1           1           1
 AtmWgt=  12.0000000  12.0000000  12.0000000  12.0000000  12.0000000   1.0078250   1.0078250   1.0078250   1.0078250   1.0078250
 NucSpn=           0           0           0           0           0           1           1           1           1           1
 AtZEff=  -0.0000000  -0.0000000  -0.0000000  -0.0000000  -0.0000000  -0.0000000  -0.0000000  -0.0000000  -0.0000000  -0.0000000
 NQMom=    0.0000000   0.0000000   0.0000000   0.0000000   0.0000000   0.0000000   0.0000000   0.0000000   0.0000000   0.0000000
 NMagM=    0.0000000   0.0000000   0.0000000   0.0000000   0.0000000   2.7928460   2.7928460   2.7928460   2.7928460   2.7928460
 AtZNuc=   6.0000000   6.0000000   6.0000000   6.0000000   6.0000000   1.0000000   1.0000000   1.0000000   1.0000000   1.0000000

  Atom        21          22          23          24          25          26          27          28          29          30
 IAtWgt=          14          12          12          12          12          12          12           1           1           1
 AtmWgt=  14.0030740  12.0000000  12.0000000  12.0000000  12.0000000  12.0000000  12.0000000   1.0078250   1.0078250   1.0078250
 NucSpn=           2           0           0           0           0           0           0           1           1           1
 AtZEff=  -0.0000000  -0.0000000  -0.0000000  -0.0000000  -0.0000000  -0.0000000  -0.0000000  -0.0000000  -0.0000000  -0.0000000
 NQMom=    2.0440000   0.0000000   0.0000000   0.0000000   0.0000000   0.0000000   0.0000000   0.0000000   0.0000000   0.0000000
 NMagM=    0.4037610   0.0000000   0.0000000   0.0000000   0.0000000   0.0000000   0.0000000   2.7928460   2.7928460   2.7928460
 AtZNuc=   7.0000000   6.0000000   6.0000000   6.0000000   6.0000000   6.0000000   6.0000000   1.0000000   1.0000000   1.0000000

  Atom        31          32          33          34          35          36          37          38          39          40
 IAtWgt=           1          12          12          12          12          12          12           1           1           1
 AtmWgt=   1.0078250  12.0000000  12.0000000  12.0000000  12.0000000  12.0000000  12.0000000   1.0078250   1.0078250   1.0078250
 NucSpn=           1           0           0           0           0           0           0           1           1           1
 AtZEff=  -0.0000000  -0.0000000  -0.0000000  -0.0000000  -0.0000000  -0.0000000  -0.0000000  -0.0000000  -0.0000000  -0.0000000
 NQMom=    0.0000000   0.0000000   0.0000000   0.0000000   0.0000000   0.0000000   0.0000000   0.0000000   0.0000000   0.0000000
 NMagM=    2.7928460   0.0000000   0.0000000   0.0000000   0.0000000   0.0000000   0.0000000   2.7928460   2.7928460   2.7928460
 AtZNuc=   1.0000000   6.0000000   6.0000000   6.0000000   6.0000000   6.0000000   6.0000000   1.0000000   1.0000000   1.0000000

  Atom        41          42          43          44          45          46          47          48          49          50
 IAtWgt=           1          14          12          12          12          12          12          12           1           1
 AtmWgt=   1.0078250  14.0030740  12.0000000  12.0000000  12.0000000  12.0000000  12.0000000  12.0000000   1.0078250   1.0078250
 NucSpn=           1           2           0           0           0           0           0           0           1           1
 AtZEff=  -0.0000000  -0.0000000  -0.0000000  -0.0000000  -0.0000000  -0.0000000  -0.0000000  -0.0000000  -0.0000000  -0.0000000
 NQMom=    0.0000000   2.0440000   0.0000000   0.0000000   0.0000000   0.0000000   0.0000000   0.0000000   0.0000000   0.0000000
 NMagM=    2.7928460   0.4037610   0.0000000   0.0000000   0.0000000   0.0000000   0.0000000   0.0000000   2.7928460   2.7928460
 AtZNuc=   1.0000000   7.0000000   6.0000000   6.0000000   6.0000000   6.0000000   6.0000000   6.0000000   1.0000000   1.0000000

  Atom        51          52          53          54          55          56          57          58          59          60
 IAtWgt=           1           1          12          12          12          12          12          12           1           1
 AtmWgt=   1.0078250   1.0078250  12.0000000  12.0000000  12.0000000  12.0000000  12.0000000  12.0000000   1.0078250   1.0078250
 NucSpn=           1           1           0           0           0           0           0           0           1           1
 AtZEff=  -0.0000000  -0.0000000  -0.0000000  -0.0000000  -0.0000000  -0.0000000  -0.0000000  -0.0000000  -0.0000000  -0.0000000
 NQMom=    0.0000000   0.0000000   0.0000000   0.0000000   0.0000000   0.0000000   0.0000000   0.0000000   0.0000000   0.0000000
 NMagM=    2.7928460   2.7928460   0.0000000   0.0000000   0.0000000   0.0000000   0.0000000   0.0000000   2.7928460   2.7928460
 AtZNuc=   1.0000000   1.0000000   6.0000000   6.0000000   6.0000000   6.0000000   6.0000000   6.0000000   1.0000000   1.0000000

  Atom        61          62          63          64          65          66          67          68          69          70
 IAtWgt=           1           1          16           1          16           1          16           1          16           1
 AtmWgt=   1.0078250   1.0078250  15.9949146   1.0078250  15.9949146   1.0078250  15.9949146   1.0078250  15.9949146   1.0078250
 NucSpn=           1           1           0           1           0           1           0           1           0           1
 AtZEff=  -0.0000000  -0.0000000  -0.0000000  -0.0000000  -0.0000000  -0.0000000  -0.0000000  -0.0000000  -0.0000000  -0.0000000
 NQMom=    0.0000000   0.0000000   0.0000000   0.0000000   0.0000000   0.0000000   0.0000000   0.0000000   0.0000000   0.0000000
 NMagM=    2.7928460   2.7928460   0.0000000   2.7928460   0.0000000   2.7928460   0.0000000   2.7928460   0.0000000   2.7928460
 AtZNuc=   1.0000000   1.0000000   8.0000000   1.0000000   8.0000000   1.0000000   8.0000000   1.0000000   8.0000000   1.0000000
 Leave Link  101 at Mon Jan 18 12:24:09 2021, MaxMem=  4026531840 cpu:               0.7 elap:               0.1
 (Enter /opt/ohpc/pub/libs/gaussian/g16-A.03/sandybridge/g16/l202.exe)
 Stoichiometry    C36H28N2O4
 Framework group  C1[X(C36H28N2O4)]
 Deg. of freedom   204
 Full point group                 C1      NOp   1
 Largest Abelian subgroup         C1      NOp   1
 Largest concise Abelian subgroup C1      NOp   1
                         Standard orientation:                         
 ---------------------------------------------------------------------
 Center     Atomic      Atomic             Coordinates (Angstroms)
 Number     Number       Type             X           Y           Z
 ---------------------------------------------------------------------
      1          6           0        2.858499   -1.142103    0.374244
      2          6           0        3.579312    0.001087   -0.003359
      3          6           0        1.469111   -1.138314    0.362939
      4          6           0        2.858875    1.143435   -0.384264
      5          6           0        0.739097   -0.000512   -0.009817
      6          6           0        1.469477    1.138129   -0.379362
      7          1           0        0.937192   -2.033473    0.688815
      8          1           0        3.397761    2.037798   -0.696269
      9          1           0        0.938071    2.032504   -0.708142
     10          6           0       -0.742883   -0.001384   -0.012974
     11          6           0       -1.474511    1.130858    0.372988
     12          6           0       -1.471490   -1.134716   -0.402503
     13          6           0       -2.864100    1.134318    0.378218
     14          6           0       -2.860735   -1.140009   -0.413286
     15          6           0       -3.582937   -0.003346   -0.018716
     16          1           0       -0.944110    2.021230    0.714069
     17          1           0       -0.938347   -2.023708   -0.742945
     18          1           0       -3.404263    2.023625    0.702274
     19          1           0       -3.398798   -2.029064   -0.741639
     20          1           0        3.397024   -2.035914    0.688457
     21          7           0       -4.995311   -0.005703   -0.022721
     22          6           0       -5.713915   -1.185510    0.315496
     23          6           0       -6.824749   -1.586223   -0.439679
     24          6           0       -5.336499   -1.964565    1.414395
     25          6           0       -7.543368   -2.726588   -0.103607
     26          6           0       -6.037549   -3.122582    1.739703
     27          6           0       -7.148838   -3.505710    0.986012
     28          1           0       -7.129554   -0.987536   -1.298124
     29          1           0       -4.477812   -1.664402    2.014832
     30          1           0       -8.408278   -3.036049   -0.689802
     31          1           0       -5.724570   -3.720924    2.598980
     32          6           0       -5.717056    1.178925   -0.336296
     33          6           0       -6.821807    1.565845    0.429047
     34          6           0       -5.346761    1.975943   -1.428789
     35          6           0       -7.543924    2.712298    0.107280
     36          6           0       -6.047800    3.134194   -1.738027
     37          6           0       -7.155651    3.506391   -0.973222
     38          1           0       -7.124426    0.956025    1.280239
     39          1           0       -4.491517    1.682511   -2.037555
     40          1           0       -8.407549    2.995534    0.714075
     41          1           0       -5.757368    3.754511   -2.585554
     42          7           0        4.991423    0.001999   -0.000060
     43          6           0        5.710552    1.183762    0.330631
     44          6           0        6.812654    1.584277   -0.431608
     45          6           0        5.340603    1.964026    1.435102
     46          6           0        7.532572    2.727778   -0.095183
     47          6           0        6.039551    3.119564    1.759528
     48          6           0        7.144632    3.505373    0.997606
     49          1           0        7.113605    0.987752   -1.292811
     50          1           0        4.486562    1.660323    2.040543
     51          1           0        8.393358    3.022713   -0.700462
     52          1           0        5.749024    3.727528    2.615933
     53          6           0        5.713955   -1.178690   -0.326778
     54          6           0        6.814458   -1.575861    0.439552
     55          6           0        5.349314   -1.961286   -1.431414
     56          6           0        7.537888   -2.718318    0.107058
     57          6           0        6.051756   -3.115796   -1.751909
     58          6           0        7.155153   -3.498257   -0.985865
     59          1           0        7.111509   -0.977436    1.300789
     60          1           0        4.496830   -1.660119   -2.040298
     61          1           0        8.397429   -3.010471    0.715458
     62          1           0        5.765438   -3.725350   -2.608604
     63          8           0        7.820509   -4.641023   -1.355507
     64          1           0        8.555246   -4.788670   -0.739309
     65          8           0        7.806379    4.648952    1.371018
     66          1           0        8.541702    4.800061    0.756350
     67          8           0       -7.887404   -4.628973    1.265636
     68          1           0       -7.503413   -5.071476    2.038990
     69          8           0       -7.819547    4.653451   -1.332021
     70          1           0       -8.560354    4.790553   -0.720672
 ---------------------------------------------------------------------
 Rotational constants (GHZ):           0.1256812           0.0264942           0.0228634
 Leave Link  202 at Mon Jan 18 12:24:09 2021, MaxMem=  4026531840 cpu:               0.1 elap:               0.0
 (Enter /opt/ohpc/pub/libs/gaussian/g16-A.03/sandybridge/g16/l301.exe)
 Standard basis: TZVP (5D, 7F)
 Ernie: Thresh=  0.10000D-02 Tol=  0.10000D-05 Strict=F.
 There are  1008 symmetry adapted cartesian basis functions of A   symmetry.
 There are   966 symmetry adapted basis functions of A   symmetry.
   966 basis functions,  1694 primitive gaussians,  1008 cartesian basis functions
   145 alpha electrons      145 beta electrons
       nuclear repulsion energy      4158.5104167158 Hartrees.
 IExCor=33909 DFT=T Ex+Corr=LC-wHPBE ExCW=0 ScaHFX=  1.000000
 ScaDFX=  1.000000  1.000000  1.000000  1.000000 ScalE2=  1.000000  1.000000
 IRadAn=      5 IRanWt=     -1 IRanGd=            0 ICorTp=0 IEmpDi=  4
 HFx  wShort=  0.000000 wLong=  0.176300 cFull=  0.000000 cShort=  0.000000 cLong=  1.000000
 DFx  wShort=  0.000000 wLong=  0.176300 cFull=  0.000000 cShort=  1.000000 cLong=  0.000000
 NAtoms=   70 NActive=   70 NUniq=   70 SFac= 1.00D+00 NAtFMM=   60 NAOKFM=T Big=T
 Integral buffers will be    131072 words long.
 Raffenetti 2 integral format.
 Two-electron integral symmetry is turned on.
 Leave Link  301 at Mon Jan 18 12:24:09 2021, MaxMem=  4026531840 cpu:               0.4 elap:               0.1
 (Enter /opt/ohpc/pub/libs/gaussian/g16-A.03/sandybridge/g16/l302.exe)
 NPDir=0 NMtPBC=     1 NCelOv=     1 NCel=       1 NClECP=     1 NCelD=      1
         NCelK=      1 NCelE2=     1 NClLst=     1 CellRange=     0.0.
 One-electron integrals computed using PRISM.
 One-electron integral symmetry used in STVInt
 NBasis=   966 RedAO= T EigKep=  7.09D-06  NBF=   966
 NBsUse=   966 1.00D-06 EigRej= -1.00D+00 NBFU=   966
 Precomputing XC quadrature grid using
 IXCGrd= 4 IRadAn=           5 IRanWt=          -1 IRanGd=           0 AccXCQ= 0.00D+00.
 Generated NRdTot=       0 NPtTot=           0 NUsed=           0 NTot=          32
 NSgBfM=   893   890   890   891   893 MxSgAt=    70 MxSgA2=    70.
 Leave Link  302 at Mon Jan 18 12:24:11 2021, MaxMem=  4026531840 cpu:              19.7 elap:               2.6
 (Enter /opt/ohpc/pub/libs/gaussian/g16-A.03/sandybridge/g16/l303.exe)
 DipDrv:  MaxL=1.
 Leave Link  303 at Mon Jan 18 12:24:11 2021, MaxMem=  4026531840 cpu:               1.2 elap:               0.2
 (Enter /opt/ohpc/pub/libs/gaussian/g16-A.03/sandybridge/g16/l401.exe)
 ExpMin= 9.52D-02 ExpMax= 2.70D+04 ExpMxC= 9.22D+02 IAcc=3 IRadAn=         5 AccDes= 0.00D+00
 Harris functional with IExCor=33909 and IRadAn=       5 diagonalized for initial guess.
 HarFok:  IExCor=33909 AccDes= 0.00D+00 IRadAn=         5 IDoV= 1 UseB2=F ITyADJ=14
 ICtDFT=  3500011 ScaDFX=  1.000000  1.000000  1.000000  1.000000
 FoFCou: FMM=F IPFlag=           0 FMFlag=      100000 FMFlg1=        2001
         NFxFlg=           0 DoJE=T BraDBF=F KetDBF=T FulRan=T
         wScrn=  0.000000 ICntrl=       500 IOpCl=  0 I1Cent=   200000004 NGrid=           0
         NMat0=    1 NMatS0=      1 NMatT0=    0 NMatD0=    1 NMtDS0=    0 NMtDT0=    0
 Petite list used in FoFCou.
 Harris En= -1770.60707465644    
 JPrj=0 DoOrth=F DoCkMO=F.
 Leave Link  401 at Mon Jan 18 12:24:22 2021, MaxMem=  4026531840 cpu:              86.5 elap:              10.9
 (Enter /opt/ohpc/pub/libs/gaussian/g16-A.03/sandybridge/g16/l502.exe)
 Integral symmetry usage will be decided dynamically.
 Closed shell SCF:
 Using DIIS extrapolation, IDIIS=    10.
 NGot=  4026531840 LenX=  4024481942 LenY=  4023464870
 Requested convergence on RMS density matrix=1.00D-06 within  32 cycles.
 Requested convergence on MAX density matrix=1.00D-04.
 Requested convergence on             energy=1.00D-04.
 Virtual orbitals will be shifted by   0.500 hartree.
 No special actions if energy rises.
 Dynamic level shift is on during FON iterations.

 Cycle   1  Pass 1  IDiag  1:
 FoFJK:  IHMeth= 1 ICntrl=       0 DoSepK=T KAlg= 0 I1Cent=           0 FoldK=F
 IRaf=         1 NMat=       1 IRICut=       1 DoRegI=T DoRafI=F ISym2E= 0 IDoP0=0 IntGTp=1.
 FoFCou: FMM=T IPFlag=           0 FMFlag=      100000 FMFlg1=        2001
         NFxFlg=           0 DoJE=T BraDBF=F KetDBF=F FulRan=T
         wScrn=  0.000000 ICntrl=       500 IOpCl=  0 I1Cent=           0 NGrid=           0
         NMat0=    1 NMatS0=      1 NMatT0=    0 NMatD0=    1 NMtDS0=    0 NMtDT0=    0
 Symmetry not used in FoFCou.
 FMM levels:  10  Number of levels for PrismC:   9
 E= -1797.29228363655    
 DIIS: error= 3.24D-02 at cycle   1 NSaved=   1.
 NSaved= 1 IEnMin= 1 EnMin= -1797.29228363655     IErMin= 1 ErrMin= 3.24D-02
 ErrMax= 3.24D-02  0.00D+00 EMaxC= 1.00D+00 BMatC= 7.19D-01 BMatP= 7.19D-01
 IDIUse=1 WtCom= 1.00D+00 WtEn= 0.00D+00
 Coeff-Com:  0.100D+01
 Coeff:      0.100D+01
 Gap=     0.258 Goal=   None    Shift=    0.500
 T= 1542. Gap= 0.722 NK=0 IS=  146 IE=  966 IFin=  145
          NO(<0.9)=   0  NV(>0.1)=   0    145.00e < EF      0.00e >EF  Err=0.0D+00
 GapD=    0.258 DampG=1.000 DampE=0.500 DampFc=0.5000 IDamp=-1.
 Damping current iteration by 5.00D-01
 RMSDP=1.93D-03 MaxDP=1.04D-01              OVMax= 7.08D-02

 Cycle   2  Pass 1  IDiag  1:
 E= -1797.71678871139     Delta-E=       -0.424505074839 Rises=F Damp=T
 DIIS: error= 1.47D-02 at cycle   2 NSaved=   2.
 NSaved= 2 IEnMin= 2 EnMin= -1797.71678871139     IErMin= 2 ErrMin= 1.47D-02
 ErrMax= 1.47D-02  0.00D+00 EMaxC= 1.00D+00 BMatC= 1.12D-01 BMatP= 7.19D-01
 IDIUse=1 WtCom= 1.00D+00 WtEn= 0.00D+00
 Coeff-Com: -0.486D+00 0.149D+01
 Coeff:     -0.486D+00 0.149D+01
 Gap=     0.281 Goal=   None    Shift=    0.500
 T= 1422. Gap= 0.730 NK=0 IS=  146 IE=  966 IFin=  145
          NO(<0.9)=   0  NV(>0.1)=   0    145.00e < EF      0.00e >EF  Err=0.0D+00
 GapD=    0.281 DampG=1.000 DampE=0.500 DampFc=0.5000 IDamp=-1.
 Damping current iteration by 5.00D-01
 RMSDP=1.16D-03 MaxDP=9.08D-02 DE=-4.25D-01 OVMax= 1.80D-02

 Cycle   3  Pass 1  IDiag  1:
 E= -1797.86139642202     Delta-E=       -0.144607710635 Rises=F Damp=T
 DIIS: error= 6.31D-03 at cycle   3 NSaved=   3.
 NSaved= 3 IEnMin= 3 EnMin= -1797.86139642202     IErMin= 3 ErrMin= 6.31D-03
 ErrMax= 6.31D-03  0.00D+00 EMaxC= 1.00D+00 BMatC= 2.00D-02 BMatP= 1.12D-01
 IDIUse=1 WtCom= 1.00D+00 WtEn= 0.00D+00
 Coeff-Com:  0.219D-01-0.717D+00 0.170D+01
 Coeff:      0.219D-01-0.717D+00 0.170D+01
 Gap=     0.237 Goal=   None    Shift=    0.500
 T= 1183. Gap= 0.736 NK=0 IS=  146 IE=  966 IFin=  145
          NO(<0.9)=   0  NV(>0.1)=   0    145.00e < EF      0.00e >EF  Err=0.0D+00
 GapD=    0.237 DampG=1.000 DampE=1.000 DampFc=1.0000 IDamp=-1.
 RMSDP=7.47D-04 MaxDP=8.29D-02 DE=-1.45D-01 OVMax= 1.04D-02

 Cycle   4  Pass 1  IDiag  1:
 E= -1797.98152029369     Delta-E=       -0.120123871669 Rises=F Damp=F
 DIIS: error= 1.21D-03 at cycle   4 NSaved=   4.
 NSaved= 4 IEnMin= 4 EnMin= -1797.98152029369     IErMin= 4 ErrMin= 1.21D-03
 ErrMax= 1.21D-03  0.00D+00 EMaxC= 1.00D+00 BMatC= 1.12D-03 BMatP= 2.00D-02
 IDIUse=1 WtCom= 1.00D+00 WtEn= 0.00D+00
 Coeff-Com:  0.654D-01-0.156D+00 0.141D+00 0.950D+00
 Coeff:      0.654D-01-0.156D+00 0.141D+00 0.950D+00
 Gap=     0.235 Goal=   None    Shift=    0.500
 T=  657. Gap= 0.735 NK=0 IS=  146 IE=  966 IFin=  145
          NO(<0.9)=   0  NV(>0.1)=   0    145.00e < EF      0.00e >EF  Err=0.0D+00
 GapD=    0.235 DampG=1.000 DampE=1.000 DampFc=1.0000 IDamp=-1.
 RMSDP=1.47D-04 MaxDP=1.23D-02 DE=-1.20D-01 OVMax= 7.39D-03

 Cycle   5  Pass 1  IDiag  1:
 E= -1797.98258098646     Delta-E=       -0.001060692764 Rises=F Damp=F
 DIIS: error= 9.51D-04 at cycle   5 NSaved=   5.
 NSaved= 5 IEnMin= 5 EnMin= -1797.98258098646     IErMin= 5 ErrMin= 9.51D-04
 ErrMax= 9.51D-04  0.00D+00 EMaxC= 1.00D+00 BMatC= 1.63D-04 BMatP= 1.12D-03
 IDIUse=1 WtCom= 1.00D+00 WtEn= 0.00D+00
 Coeff-Com:  0.227D-01-0.402D-02-0.714D-01 0.719D-01 0.981D+00
 Coeff:      0.227D-01-0.402D-02-0.714D-01 0.719D-01 0.981D+00
 Gap=     0.235 Goal=   None    Shift=    0.500
 RMSDP=8.90D-05 MaxDP=5.92D-03 DE=-1.06D-03 OVMax= 5.40D-03

 Cycle   6  Pass 1  IDiag  1:
 E= -1797.98286086322     Delta-E=       -0.000279876764 Rises=F Damp=F
 DIIS: error= 7.88D-04 at cycle   6 NSaved=   6.
 NSaved= 6 IEnMin= 6 EnMin= -1797.98286086322     IErMin= 6 ErrMin= 7.88D-04
 ErrMax= 7.88D-04  0.00D+00 EMaxC= 1.00D+00 BMatC= 3.03D-05 BMatP= 1.63D-04
 IDIUse=1 WtCom= 1.00D+00 WtEn= 0.00D+00
 Coeff-Com: -0.969D-02 0.411D-01-0.597D-01-0.175D+00-0.658D-01 0.127D+01
 Coeff:     -0.969D-02 0.411D-01-0.597D-01-0.175D+00-0.658D-01 0.127D+01
 Gap=     0.236 Goal=   None    Shift=    0.500
 RMSDP=5.38D-05 MaxDP=2.71D-03 DE=-2.80D-04 OVMax= 4.91D-03

 Cycle   7  Pass 1  IDiag  1:
 E= -1797.98296817805     Delta-E=       -0.000107314831 Rises=F Damp=F
 DIIS: error= 5.87D-04 at cycle   7 NSaved=   7.
 NSaved= 7 IEnMin= 7 EnMin= -1797.98296817805     IErMin= 7 ErrMin= 5.87D-04
 ErrMax= 5.87D-04  0.00D+00 EMaxC= 1.00D+00 BMatC= 1.19D-05 BMatP= 3.03D-05
 IDIUse=1 WtCom= 1.00D+00 WtEn= 0.00D+00
 Coeff-Com: -0.804D-02 0.125D-01-0.262D-02-0.607D-01-0.230D+00-0.136D+00
 Coeff-Com:  0.142D+01
 Coeff:     -0.804D-02 0.125D-01-0.262D-02-0.607D-01-0.230D+00-0.136D+00
 Coeff:      0.142D+01
 Gap=     0.236 Goal=   None    Shift=    0.500
 RMSDP=2.95D-05 MaxDP=1.60D-03 DE=-1.07D-04 OVMax= 3.78D-03

 Cycle   8  Pass 1  IDiag  1:
 E= -1797.98302077589     Delta-E=       -0.000052597837 Rises=F Damp=F
 DIIS: error= 4.51D-04 at cycle   8 NSaved=   8.
 NSaved= 8 IEnMin= 8 EnMin= -1797.98302077589     IErMin= 8 ErrMin= 4.51D-04
 ErrMax= 4.51D-04  0.00D+00 EMaxC= 1.00D+00 BMatC= 5.53D-06 BMatP= 1.19D-05
 IDIUse=1 WtCom= 1.00D+00 WtEn= 0.00D+00
 Coeff-Com:  0.942D-03-0.144D-01 0.259D-01 0.497D-01-0.729D-01-0.704D+00
 Coeff-Com:  0.182D+00 0.153D+01
 Coeff:      0.942D-03-0.144D-01 0.259D-01 0.497D-01-0.729D-01-0.704D+00
 Coeff:      0.182D+00 0.153D+01
 Gap=     0.236 Goal=   None    Shift=    0.500
 RMSDP=1.59D-05 MaxDP=7.86D-04 DE=-5.26D-05 OVMax= 3.08D-03

 Cycle   9  Pass 1  IDiag  1:
 E= -1797.98304899332     Delta-E=       -0.000028217432 Rises=F Damp=F
 DIIS: error= 3.33D-04 at cycle   9 NSaved=   9.
 NSaved= 9 IEnMin= 9 EnMin= -1797.98304899332     IErMin= 9 ErrMin= 3.33D-04
 ErrMax= 3.33D-04  0.00D+00 EMaxC= 1.00D+00 BMatC= 2.53D-06 BMatP= 5.53D-06
 IDIUse=1 WtCom= 1.00D+00 WtEn= 0.00D+00
 Coeff-Com:  0.317D-02-0.687D-02 0.391D-02 0.298D-01 0.119D+00-0.220D+00
 Coeff-Com: -0.539D+00-0.550D+00 0.216D+01
 Coeff:      0.317D-02-0.687D-02 0.391D-02 0.298D-01 0.119D+00-0.220D+00
 Coeff:     -0.539D+00-0.550D+00 0.216D+01
 Gap=     0.236 Goal=   None    Shift=    0.500
 RMSDP=8.42D-06 MaxDP=2.75D-04 DE=-2.82D-05 OVMax= 2.45D-03

 Cycle  10  Pass 1  IDiag  1:
 E= -1797.98306366957     Delta-E=       -0.000014676247 Rises=F Damp=F
 DIIS: error= 2.37D-04 at cycle  10 NSaved=  10.
 NSaved=10 IEnMin=10 EnMin= -1797.98306366957     IErMin=10 ErrMin= 2.37D-04
 ErrMax= 2.37D-04  0.00D+00 EMaxC= 1.00D+00 BMatC= 1.26D-06 BMatP= 2.53D-06
 IDIUse=1 WtCom= 1.00D+00 WtEn= 0.00D+00
 Coeff-Com:  0.262D-03 0.429D-02-0.911D-02-0.134D-02 0.928D-01 0.113D-01
 Coeff-Com: -0.181D+00-0.755D+00 0.347D-01 0.180D+01
 Coeff:      0.262D-03 0.429D-02-0.911D-02-0.134D-02 0.928D-01 0.113D-01
 Coeff:     -0.181D+00-0.755D+00 0.347D-01 0.180D+01
 Gap=     0.236 Goal=   None    Shift=    0.500
 RMSDP=5.12D-06 MaxDP=1.76D-04 DE=-1.47D-05 OVMax= 1.74D-03

 Cycle  11  Pass 1  IDiag  1:
 E= -1797.98307059106     Delta-E=       -0.000006921496 Rises=F Damp=F
 DIIS: error= 1.68D-04 at cycle  11 NSaved=  11.
 NSaved=11 IEnMin=11 EnMin= -1797.98307059106     IErMin=11 ErrMin= 1.68D-04
 ErrMax= 1.68D-04  0.00D+00 EMaxC= 1.00D+00 BMatC= 6.18D-07 BMatP= 1.26D-06
 IDIUse=1 WtCom= 1.00D+00 WtEn= 0.00D+00
 Coeff-Com: -0.130D-02 0.618D-02-0.783D-02-0.945D-02 0.196D-01 0.365D-01
 Coeff-Com:  0.170D+00-0.308D+00-0.912D+00 0.317D+00 0.169D+01
 Coeff:     -0.130D-02 0.618D-02-0.783D-02-0.945D-02 0.196D-01 0.365D-01
 Coeff:      0.170D+00-0.308D+00-0.912D+00 0.317D+00 0.169D+01
 Gap=     0.236 Goal=   None    Shift=    0.500
 RMSDP=3.39D-06 MaxDP=1.22D-04 DE=-6.92D-06 OVMax= 1.25D-03

 Cycle  12  Pass 1  IDiag  1:
 E= -1797.98307384534     Delta-E=       -0.000003254278 Rises=F Damp=F
 DIIS: error= 1.17D-04 at cycle  12 NSaved=  12.
 NSaved=12 IEnMin=12 EnMin= -1797.98307384534     IErMin=12 ErrMin= 1.17D-04
 ErrMax= 1.17D-04  0.00D+00 EMaxC= 1.00D+00 BMatC= 2.89D-07 BMatP= 6.18D-07
 IDIUse=1 WtCom= 1.00D+00 WtEn= 0.00D+00
 Coeff-Com: -0.586D-03 0.468D-03 0.109D-02-0.170D-02-0.250D-01-0.286D-01
 Coeff-Com:  0.208D+00 0.136D+00-0.416D+00-0.907D+00 0.487D-01 0.198D+01
 Coeff:     -0.586D-03 0.468D-03 0.109D-02-0.170D-02-0.250D-01-0.286D-01
 Coeff:      0.208D+00 0.136D+00-0.416D+00-0.907D+00 0.487D-01 0.198D+01
 Gap=     0.236 Goal=   None    Shift=    0.500
 RMSDP=2.29D-06 MaxDP=8.14D-05 DE=-3.25D-06 OVMax= 8.72D-04

 Cycle  13  Pass 1  IDiag  1:
 E= -1797.98307533207     Delta-E=       -0.000001486728 Rises=F Damp=F
 DIIS: error= 8.00D-05 at cycle  13 NSaved=  13.
 NSaved=13 IEnMin=13 EnMin= -1797.98307533207     IErMin=13 ErrMin= 8.00D-05
 ErrMax= 8.00D-05  0.00D+00 EMaxC= 1.00D+00 BMatC= 1.39D-07 BMatP= 2.89D-07
 IDIUse=1 WtCom= 1.00D+00 WtEn= 0.00D+00
 Coeff-Com:  0.892D-04-0.152D-02 0.275D-02 0.158D-02-0.128D-01-0.392D-01
 Coeff-Com:  0.822D-01 0.103D+00 0.966D-01-0.592D+00-0.400D+00-0.235D+00
 Coeff-Com:  0.199D+01
 Coeff:      0.892D-04-0.152D-02 0.275D-02 0.158D-02-0.128D-01-0.392D-01
 Coeff:      0.822D-01 0.103D+00 0.966D-01-0.592D+00-0.400D+00-0.235D+00
 Coeff:      0.199D+01
 Gap=     0.236 Goal=   None    Shift=    0.500
 RMSDP=1.48D-06 MaxDP=5.34D-05 DE=-1.49D-06 OVMax= 5.92D-04

 Cycle  14  Pass 1  IDiag  1:
 E= -1797.98307599513     Delta-E=       -0.000000663058 Rises=F Damp=F
 DIIS: error= 5.47D-05 at cycle  14 NSaved=  14.
 NSaved=14 IEnMin=14 EnMin= -1797.98307599513     IErMin=14 ErrMin= 5.47D-05
 ErrMax= 5.47D-05  0.00D+00 EMaxC= 1.00D+00 BMatC= 6.52D-08 BMatP= 1.39D-07
 IDIUse=1 WtCom= 1.00D+00 WtEn= 0.00D+00
 Coeff-Com:  0.237D-03-0.514D-03 0.225D-03 0.154D-02 0.799D-02-0.129D-01
 Coeff-Com: -0.375D-01-0.417D-01 0.248D+00 0.143D+00-0.213D+00-0.144D+01
 Coeff-Com:  0.268D+00 0.208D+01
 Coeff:      0.237D-03-0.514D-03 0.225D-03 0.154D-02 0.799D-02-0.129D-01
 Coeff:     -0.375D-01-0.417D-01 0.248D+00 0.143D+00-0.213D+00-0.144D+01
 Coeff:      0.268D+00 0.208D+01
 Gap=     0.236 Goal=   None    Shift=    0.500
 RMSDP=9.94D-07 MaxDP=3.35D-05 DE=-6.63D-07 OVMax= 4.00D-04

 SCF Done:  E(RLC-wHPBE) =  -1797.98307600     A.U. after   14 cycles
            NFock= 14  Conv=0.99D-06     -V/T= 2.0047
 KE= 1.789556167382D+03 PE=-1.250565302362D+04 EE= 4.759603363531D+03
 Leave Link  502 at Mon Jan 18 12:41:15 2021, MaxMem=  4026531840 cpu:            7983.9 elap:            1012.2
 (Enter /opt/ohpc/pub/libs/gaussian/g16-A.03/sandybridge/g16/l508.exe)
 QCSCF skips out because SCF is already converged.
 Leave Link  508 at Mon Jan 18 12:41:15 2021, MaxMem=  4026531840 cpu:               0.1 elap:               0.0
 (Enter /opt/ohpc/pub/libs/gaussian/g16-A.03/sandybridge/g16/l601.exe)
 Copying SCF densities to generalized density rwf, IOpCl= 0 IROHF=0.

 **********************************************************************

            Population analysis using the SCF density.

 **********************************************************************

 Orbital symmetries:
       Occupied  (A) (A) (A) (A) (A) (A) (A) (A) (A) (A) (A) (A)
                 (A) (A) (A) (A) (A) (A) (A) (A) (A) (A) (A) (A)
                 (A) (A) (A) (A) (A) (A) (A) (A) (A) (A) (A) (A)
                 (A) (A) (A) (A) (A) (A) (A) (A) (A) (A) (A) (A)
                 (A) (A) (A) (A) (A) (A) (A) (A) (A) (A) (A) (A)
                 (A) (A) (A) (A) (A) (A) (A) (A) (A) (A) (A) (A)
                 (A) (A) (A) (A) (A) (A) (A) (A) (A) (A) (A) (A)
                 (A) (A) (A) (A) (A) (A) (A) (A) (A) (A) (A) (A)
                 (A) (A) (A) (A) (A) (A) (A) (A) (A) (A) (A) (A)
                 (A) (A) (A) (A) (A) (A) (A) (A) (A) (A) (A) (A)
                 (A) (A) (A) (A) (A) (A) (A) (A) (A) (A) (A) (A)
                 (A) (A) (A) (A) (A) (A) (A) (A) (A) (A) (A) (A)
                 (A)
       Virtual   (A) (A) (A) (A) (A) (A) (A) (A) (A) (A) (A) (A)
                 (A) (A) (A) (A) (A) (A) (A) (A) (A) (A) (A) (A)
                 (A) (A) (A) (A) (A) (A) (A) (A) (A) (A) (A) (A)
                 (A) (A) (A) (A) (A) (A) (A) (A) (A) (A) (A) (A)
                 (A) (A) (A) (A) (A) (A) (A) (A) (A) (A) (A) (A)
                 (A) (A) (A) (A) (A) (A) (A) (A) (A) (A) (A) (A)
                 (A) (A) (A) (A) (A) (A) (A) (A) (A) (A) (A) (A)
                 (A) (A) (A) (A) (A) (A) (A) (A) (A) (A) (A) (A)
                 (A) (A) (A) (A) (A) (A) (A) (A) (A) (A) (A) (A)
                 (A) (A) (A) (A) (A) (A) (A) (A) (A) (A) (A) (A)
                 (A) (A) (A) (A) (A) (A) (A) (A) (A) (A) (A) (A)
                 (A) (A) (A) (A) (A) (A) (A) (A) (A) (A) (A) (A)
                 (A) (A) (A) (A) (A) (A) (A) (A) (A) (A) (A) (A)
                 (A) (A) (A) (A) (A) (A) (A) (A) (A) (A) (A) (A)
                 (A) (A) (A) (A) (A) (A) (A) (A) (A) (A) (A) (A)
                 (A) (A) (A) (A) (A) (A) (A) (A) (A) (A) (A) (A)
                 (A) (A) (A) (A) (A) (A) (A) (A) (A) (A) (A) (A)
                 (A) (A) (A) (A) (A) (A) (A) (A) (A) (A) (A) (A)
                 (A) (A) (A) (A) (A) (A) (A) (A) (A) (A) (A) (A)
                 (A) (A) (A) (A) (A) (A) (A) (A) (A) (A) (A) (A)
                 (A) (A) (A) (A) (A) (A) (A) (A) (A) (A) (A) (A)
                 (A) (A) (A) (A) (A) (A) (A) (A) (A) (A) (A) (A)
                 (A) (A) (A) (A) (A) (A) (A) (A) (A) (A) (A) (A)
                 (A) (A) (A) (A) (A) (A) (A) (A) (A) (A) (A) (A)
                 (A) (A) (A) (A) (A) (A) (A) (A) (A) (A) (A) (A)
                 (A) (A) (A) (A) (A) (A) (A) (A) (A) (A) (A) (A)
                 (A) (A) (A) (A) (A) (A) (A) (A) (A) (A) (A) (A)
                 (A) (A) (A) (A) (A) (A) (A) (A) (A) (A) (A) (A)
                 (A) (A) (A) (A) (A) (A) (A) (A) (A) (A) (A) (A)
                 (A) (A) (A) (A) (A) (A) (A) (A) (A) (A) (A) (A)
                 (A) (A) (A) (A) (A) (A) (A) (A) (A) (A) (A) (A)
                 (A) (A) (A) (A) (A) (A) (A) (A) (A) (A) (A) (A)
                 (A) (A) (A) (A) (A) (A) (A) (A) (A) (A) (A) (A)
                 (A) (A) (A) (A) (A) (A) (A) (A) (A) (A) (A) (A)
                 (A) (A) (A) (A) (A) (A) (A) (A) (A) (A) (A) (A)
                 (A) (A) (A) (A) (A) (A) (A) (A) (A) (A) (A) (A)
                 (A) (A) (A) (A) (A) (A) (A) (A) (A) (A) (A) (A)
                 (A) (A) (A) (A) (A) (A) (A) (A) (A) (A) (A) (A)
                 (A) (A) (A) (A) (A) (A) (A) (A) (A) (A) (A) (A)
                 (A) (A) (A) (A) (A) (A) (A) (A) (A) (A) (A) (A)
                 (A) (A) (A) (A) (A) (A) (A) (A) (A) (A) (A) (A)
                 (A) (A) (A) (A) (A) (A) (A) (A) (A) (A) (A) (A)
                 (A) (A) (A) (A) (A) (A) (A) (A) (A) (A) (A) (A)
                 (A) (A) (A) (A) (A) (A) (A) (A) (A) (A) (A) (A)
                 (A) (A) (A) (A) (A) (A) (A) (A) (A) (A) (A) (A)
                 (A) (A) (A) (A) (A) (A) (A) (A) (A) (A) (A) (A)
                 (A) (A) (A) (A) (A) (A) (A) (A) (A) (A) (A) (A)
                 (A) (A) (A) (A) (A) (A) (A) (A) (A) (A) (A) (A)
                 (A) (A) (A) (A) (A) (A) (A) (A) (A) (A) (A) (A)
                 (A) (A) (A) (A) (A) (A) (A) (A) (A) (A) (A) (A)
                 (A) (A) (A) (A) (A) (A) (A) (A) (A) (A) (A) (A)
                 (A) (A) (A) (A) (A) (A) (A) (A) (A) (A) (A) (A)
                 (A) (A) (A) (A) (A) (A) (A) (A) (A) (A) (A) (A)
                 (A) (A) (A) (A) (A) (A) (A) (A) (A) (A) (A) (A)
                 (A) (A) (A) (A) (A) (A) (A) (A) (A) (A) (A) (A)
                 (A) (A) (A) (A) (A) (A) (A) (A) (A) (A) (A) (A)
                 (A) (A) (A) (A) (A) (A) (A) (A) (A) (A) (A) (A)
                 (A) (A) (A) (A) (A) (A) (A) (A) (A) (A) (A) (A)
                 (A) (A) (A) (A) (A) (A) (A) (A) (A) (A) (A) (A)
                 (A) (A) (A) (A) (A) (A) (A) (A) (A) (A) (A) (A)
                 (A) (A) (A) (A) (A) (A) (A) (A) (A) (A) (A) (A)
                 (A) (A) (A) (A) (A) (A) (A) (A) (A) (A) (A) (A)
                 (A) (A) (A) (A) (A) (A) (A) (A) (A) (A) (A) (A)
                 (A) (A) (A) (A) (A) (A) (A) (A) (A) (A) (A) (A)
                 (A) (A) (A) (A) (A) (A) (A) (A) (A) (A) (A) (A)
                 (A) (A) (A) (A) (A) (A) (A) (A) (A) (A) (A) (A)
                 (A) (A) (A) (A) (A) (A) (A) (A) (A) (A) (A) (A)
                 (A) (A) (A) (A) (A) (A) (A) (A) (A) (A) (A) (A)
                 (A) (A) (A) (A) (A)
 The electronic state is 1-A.
 Alpha  occ. eigenvalues --  -18.88299 -18.88294 -18.88241 -18.88171 -14.11551
 Alpha  occ. eigenvalues --  -14.11496 -10.04770 -10.04769 -10.04711 -10.04642
 Alpha  occ. eigenvalues --  -10.02460 -10.02434 -10.02367 -10.02362 -10.02310
 Alpha  occ. eigenvalues --  -10.02269  -9.99353  -9.99348  -9.99297  -9.99227
 Alpha  occ. eigenvalues --   -9.99190  -9.99187  -9.99126  -9.99072  -9.99022
 Alpha  occ. eigenvalues --   -9.99021  -9.98967  -9.98907  -9.98863  -9.98849
 Alpha  occ. eigenvalues --   -9.98719  -9.98718  -9.98660  -9.98601  -9.98317
 Alpha  occ. eigenvalues --   -9.98310  -9.98304  -9.98303  -9.98076  -9.98070
 Alpha  occ. eigenvalues --   -9.98067  -9.98062  -1.07684  -1.07680  -1.07625
 Alpha  occ. eigenvalues --   -1.07557  -0.98700  -0.98642  -0.89129  -0.88672
 Alpha  occ. eigenvalues --   -0.88591  -0.88082  -0.87073  -0.85968  -0.80690
 Alpha  occ. eigenvalues --   -0.79017  -0.78965  -0.78861  -0.78488  -0.78408
 Alpha  occ. eigenvalues --   -0.78230  -0.77500  -0.77089  -0.76893  -0.74788
 Alpha  occ. eigenvalues --   -0.72783  -0.68516  -0.67812  -0.67229  -0.67039
 Alpha  occ. eigenvalues --   -0.66602  -0.65913  -0.65494  -0.64868  -0.63782
 Alpha  occ. eigenvalues --   -0.63016  -0.62321  -0.61175  -0.59601  -0.59507
 Alpha  occ. eigenvalues --   -0.59464  -0.59430  -0.58397  -0.57799  -0.57276
 Alpha  occ. eigenvalues --   -0.56862  -0.54590  -0.53223  -0.53012  -0.51823
 Alpha  occ. eigenvalues --   -0.51494  -0.51171  -0.49479  -0.49291  -0.49223
 Alpha  occ. eigenvalues --   -0.49174  -0.48686  -0.48576  -0.48345  -0.47505
 Alpha  occ. eigenvalues --   -0.47487  -0.47403  -0.47253  -0.46935  -0.46764
 Alpha  occ. eigenvalues --   -0.46656  -0.46444  -0.46330  -0.46208  -0.46109
 Alpha  occ. eigenvalues --   -0.45804  -0.44902  -0.44734  -0.44435  -0.43401
 Alpha  occ. eigenvalues --   -0.43291  -0.42922  -0.42559  -0.42285  -0.42220
 Alpha  occ. eigenvalues --   -0.40646  -0.40374  -0.40095  -0.40013  -0.39613
 Alpha  occ. eigenvalues --   -0.39398  -0.39284  -0.39053  -0.38988  -0.38838
 Alpha  occ. eigenvalues --   -0.38159  -0.35955  -0.34308  -0.32542  -0.32481
 Alpha  occ. eigenvalues --   -0.32030  -0.31788  -0.31159  -0.31056  -0.31021
 Alpha  occ. eigenvalues --   -0.29287  -0.29165  -0.28953  -0.23832  -0.22316
 Alpha virt. eigenvalues --    0.01308   0.01961   0.02049   0.03648   0.03738
 Alpha virt. eigenvalues --    0.03989   0.04091   0.04508   0.04872   0.04934
 Alpha virt. eigenvalues --    0.07430   0.07992   0.08049   0.08074   0.08149
 Alpha virt. eigenvalues --    0.09313   0.10417   0.10652   0.11451   0.11574
 Alpha virt. eigenvalues --    0.11795   0.12501   0.12894   0.13607   0.13631
 Alpha virt. eigenvalues --    0.13773   0.13932   0.14525   0.14580   0.15072
 Alpha virt. eigenvalues --    0.15836   0.16008   0.16731   0.16954   0.17202
 Alpha virt. eigenvalues --    0.17387   0.17475   0.17590   0.17747   0.18399
 Alpha virt. eigenvalues --    0.18471   0.18790   0.18950   0.19059   0.20718
 Alpha virt. eigenvalues --    0.20782   0.20819   0.21196   0.21423   0.21697
 Alpha virt. eigenvalues --    0.21812   0.22226   0.22869   0.23452   0.23499
 Alpha virt. eigenvalues --    0.23880   0.24014   0.24103   0.24909   0.25494
 Alpha virt. eigenvalues --    0.25677   0.26003   0.26149   0.26511   0.26787
 Alpha virt. eigenvalues --    0.26957   0.27142   0.27592   0.27802   0.28006
 Alpha virt. eigenvalues --    0.28131   0.28252   0.28422   0.28466   0.28587
 Alpha virt. eigenvalues --    0.28772   0.28791   0.29398   0.29826   0.29924
 Alpha virt. eigenvalues --    0.30152   0.30246   0.30344   0.30580   0.30974
 Alpha virt. eigenvalues --    0.31219   0.31479   0.31792   0.32021   0.32062
 Alpha virt. eigenvalues --    0.32177   0.32901   0.33080   0.33371   0.33639
 Alpha virt. eigenvalues --    0.33932   0.34040   0.34224   0.34490   0.34548
 Alpha virt. eigenvalues --    0.34640   0.34943   0.35056   0.35164   0.35886
 Alpha virt. eigenvalues --    0.36116   0.36458   0.37306   0.37462   0.37546
 Alpha virt. eigenvalues --    0.37634   0.37769   0.37953   0.38107   0.38527
 Alpha virt. eigenvalues --    0.38701   0.38997   0.39096   0.39844   0.40244
 Alpha virt. eigenvalues --    0.40420   0.40629   0.40831   0.41145   0.41294
 Alpha virt. eigenvalues --    0.41686   0.41783   0.42149   0.42269   0.42424
 Alpha virt. eigenvalues --    0.42467   0.42669   0.42821   0.43206   0.43430
 Alpha virt. eigenvalues --    0.43500   0.43614   0.43959   0.44002   0.44142
 Alpha virt. eigenvalues --    0.44214   0.44378   0.44506   0.44585   0.45023
 Alpha virt. eigenvalues --    0.45322   0.45458   0.45673   0.45729   0.46057
 Alpha virt. eigenvalues --    0.46221   0.46401   0.46480   0.46839   0.47615
 Alpha virt. eigenvalues --    0.47852   0.48218   0.48315   0.48396   0.48969
 Alpha virt. eigenvalues --    0.49227   0.49265   0.49869   0.50101   0.50205
 Alpha virt. eigenvalues --    0.50389   0.50643   0.50674   0.50921   0.51112
 Alpha virt. eigenvalues --    0.51205   0.51669   0.52380   0.52526   0.52605
 Alpha virt. eigenvalues --    0.52710   0.52973   0.53244   0.53358   0.53545
 Alpha virt. eigenvalues --    0.53728   0.53968   0.54043   0.54292   0.54590
 Alpha virt. eigenvalues --    0.55039   0.55144   0.55541   0.56170   0.56599
 Alpha virt. eigenvalues --    0.56889   0.56937   0.57323   0.57580   0.57945
 Alpha virt. eigenvalues --    0.58910   0.59044   0.59365   0.59461   0.60081
 Alpha virt. eigenvalues --    0.60205   0.60387   0.60540   0.60786   0.61457
 Alpha virt. eigenvalues --    0.61803   0.61942   0.62255   0.62326   0.62600
 Alpha virt. eigenvalues --    0.62718   0.62809   0.62960   0.63260   0.63511
 Alpha virt. eigenvalues --    0.63897   0.64038   0.65585   0.66280   0.66632
 Alpha virt. eigenvalues --    0.66771   0.67272   0.67942   0.68247   0.69067
 Alpha virt. eigenvalues --    0.69414   0.70008   0.70846   0.71071   0.71360
 Alpha virt. eigenvalues --    0.71635   0.71762   0.72024   0.72091   0.72201
 Alpha virt. eigenvalues --    0.72362   0.72699   0.73548   0.73742   0.73835
 Alpha virt. eigenvalues --    0.74043   0.74533   0.74903   0.75534   0.75854
 Alpha virt. eigenvalues --    0.76100   0.76238   0.76408   0.76960   0.77235
 Alpha virt. eigenvalues --    0.78349   0.78568   0.78774   0.79348   0.79865
 Alpha virt. eigenvalues --    0.80138   0.80571   0.80825   0.81077   0.81546
 Alpha virt. eigenvalues --    0.82077   0.82293   0.83418   0.84177   0.84385
 Alpha virt. eigenvalues --    0.84940   0.85286   0.85945   0.86160   0.87499
 Alpha virt. eigenvalues --    0.87737   0.88540   0.89070   0.89540   0.89903
 Alpha virt. eigenvalues --    0.91207   0.91477   0.91949   0.92415   0.92607
 Alpha virt. eigenvalues --    0.92827   0.93811   0.94149   0.96423   0.97958
 Alpha virt. eigenvalues --    0.98086   0.98142   1.00745   1.00925   1.17697
 Alpha virt. eigenvalues --    1.19290   1.20301   1.20356   1.20429   1.25257
 Alpha virt. eigenvalues --    1.25397   1.25874   1.26111   1.26678   1.26838
 Alpha virt. eigenvalues --    1.26953   1.27153   1.27502   1.28104   1.28129
 Alpha virt. eigenvalues --    1.28382   1.28546   1.28628   1.28857   1.29049
 Alpha virt. eigenvalues --    1.29165   1.29227   1.30489   1.31240   1.31370
 Alpha virt. eigenvalues --    1.31857   1.32114   1.32223   1.32460   1.32991
 Alpha virt. eigenvalues --    1.33194   1.33530   1.34175   1.34388   1.34676
 Alpha virt. eigenvalues --    1.34955   1.35811   1.35931   1.36242   1.36410
 Alpha virt. eigenvalues --    1.36572   1.36895   1.37097   1.37500   1.37656
 Alpha virt. eigenvalues --    1.37987   1.38251   1.38428   1.38662   1.38807
 Alpha virt. eigenvalues --    1.38882   1.39129   1.40237   1.41152   1.41364
 Alpha virt. eigenvalues --    1.41967   1.42103   1.44523   1.44574   1.44599
 Alpha virt. eigenvalues --    1.44705   1.45079   1.45278   1.45442   1.45508
 Alpha virt. eigenvalues --    1.45610   1.45699   1.45876   1.46021   1.46406
 Alpha virt. eigenvalues --    1.46573   1.47118   1.47441   1.47550   1.47702
 Alpha virt. eigenvalues --    1.47782   1.48031   1.48205   1.48451   1.48605
 Alpha virt. eigenvalues --    1.48977   1.49205   1.49729   1.50157   1.50449
 Alpha virt. eigenvalues --    1.50671   1.50729   1.50771   1.51130   1.51256
 Alpha virt. eigenvalues --    1.51460   1.51630   1.51901   1.52090   1.52209
 Alpha virt. eigenvalues --    1.52426   1.52792   1.54177   1.54333   1.54947
 Alpha virt. eigenvalues --    1.55023   1.55383   1.55533   1.55785   1.55952
 Alpha virt. eigenvalues --    1.56008   1.56130   1.56244   1.56307   1.56339
 Alpha virt. eigenvalues --    1.56442   1.56591   1.57175   1.57500   1.57608
 Alpha virt. eigenvalues --    1.57760   1.57828   1.58042   1.58202   1.58723
 Alpha virt. eigenvalues --    1.59051   1.59719   1.59778   1.59908   1.59971
 Alpha virt. eigenvalues --    1.60308   1.60718   1.61114   1.61633   1.61736
 Alpha virt. eigenvalues --    1.62076   1.62261   1.62358   1.63510   1.63868
 Alpha virt. eigenvalues --    1.64001   1.64160   1.64911   1.65661   1.65800
 Alpha virt. eigenvalues --    1.67784   1.68179   1.68995   1.69427   1.70282
 Alpha virt. eigenvalues --    1.70475   1.70742   1.71041   1.72707   1.73568
 Alpha virt. eigenvalues --    1.74880   1.75252   1.75290   1.75856   1.77631
 Alpha virt. eigenvalues --    1.78172   1.78388   1.78779   1.78960   1.79099
 Alpha virt. eigenvalues --    1.79390   1.79598   1.79961   1.80076   1.80519
 Alpha virt. eigenvalues --    1.80755   1.81106   1.81195   1.81454   1.82053
 Alpha virt. eigenvalues --    1.82152   1.82284   1.82562   1.82941   1.83144
 Alpha virt. eigenvalues --    1.83501   1.83520   1.84203   1.84533   1.85105
 Alpha virt. eigenvalues --    1.85754   1.86097   1.86315   1.86762   1.87564
 Alpha virt. eigenvalues --    1.87746   1.88514   1.88560   1.88659   1.89149
 Alpha virt. eigenvalues --    1.89186   1.89618   1.90666   1.91133   1.91564
 Alpha virt. eigenvalues --    1.91710   1.91867   1.92558   1.93237   1.93331
 Alpha virt. eigenvalues --    1.93634   1.93687   1.94152   1.94271   1.94496
 Alpha virt. eigenvalues --    1.94643   1.94820   1.95497   1.95590   1.95924
 Alpha virt. eigenvalues --    1.96088   1.96376   1.97411   1.97688   1.98276
 Alpha virt. eigenvalues --    1.99183   1.99248   2.00188   2.01186   2.01299
 Alpha virt. eigenvalues --    2.01370   2.02010   2.02165   2.02437   2.02718
 Alpha virt. eigenvalues --    2.03078   2.03202   2.03643   2.04331   2.04672
 Alpha virt. eigenvalues --    2.05053   2.05873   2.06095   2.07500   2.07567
 Alpha virt. eigenvalues --    2.08929   2.09650   2.10065   2.10213   2.10611
 Alpha virt. eigenvalues --    2.10993   2.11436   2.11528   2.12110   2.13229
 Alpha virt. eigenvalues --    2.13684   2.16628   2.17771   2.18631   2.19063
 Alpha virt. eigenvalues --    2.20562   2.20695   2.20802   2.21283   2.21442
 Alpha virt. eigenvalues --    2.22510   2.22843   2.23068   2.23216   2.24175
 Alpha virt. eigenvalues --    2.25015   2.25156   2.25992   2.26174   2.26231
 Alpha virt. eigenvalues --    2.27284   2.29310   2.29408   2.31456   2.31608
 Alpha virt. eigenvalues --    2.32044   2.32341   2.32395   2.32481   2.32708
 Alpha virt. eigenvalues --    2.32798   2.32991   2.33340   2.33545   2.33833
 Alpha virt. eigenvalues --    2.34217   2.34462   2.34910   2.35300   2.35613
 Alpha virt. eigenvalues --    2.35721   2.35880   2.36135   2.36890   2.36983
 Alpha virt. eigenvalues --    2.37312   2.37629   2.38508   2.38559   2.38673
 Alpha virt. eigenvalues --    2.38823   2.38936   2.39099   2.39224   2.39289
 Alpha virt. eigenvalues --    2.39479   2.39574   2.39634   2.39943   2.40540
 Alpha virt. eigenvalues --    2.40631   2.41127   2.41550   2.43178   2.45201
 Alpha virt. eigenvalues --    2.45759   2.46087   2.48031   2.49084   2.49221
 Alpha virt. eigenvalues --    2.49423   2.49452   2.49541   2.50610   2.51326
 Alpha virt. eigenvalues --    2.54190   2.54277   2.55415   2.55944   2.57569
 Alpha virt. eigenvalues --    2.57678   2.57991   2.58132   2.58488   2.60034
 Alpha virt. eigenvalues --    2.60234   2.60463   2.60824   2.61540   2.61810
 Alpha virt. eigenvalues --    2.61932   2.62235   2.62474   2.62588   2.63035
 Alpha virt. eigenvalues --    2.63257   2.63602   2.65313   2.65521   2.65817
 Alpha virt. eigenvalues --    2.65864   2.65951   2.66715   2.66971   2.67659
 Alpha virt. eigenvalues --    2.68028   2.69272   2.69573   2.70441   2.71054
 Alpha virt. eigenvalues --    2.71270   2.71808   2.72667   2.74545   2.74683
 Alpha virt. eigenvalues --    2.75091   2.75278   2.76731   2.77446   2.77713
 Alpha virt. eigenvalues --    2.78456   2.78785   2.79619   2.80258   2.80374
 Alpha virt. eigenvalues --    2.80898   2.82356   2.83798   2.84358   2.84875
 Alpha virt. eigenvalues --    2.85049   2.86136   2.86712   2.87087   2.87289
 Alpha virt. eigenvalues --    2.87540   2.87798   2.89343   2.90159   2.93820
 Alpha virt. eigenvalues --    2.93876   2.93894   2.94036   2.94685   2.94911
 Alpha virt. eigenvalues --    2.95144   2.95518   2.96769   2.97001   2.97424
 Alpha virt. eigenvalues --    2.98277   2.99228   2.99269   2.99311   2.99365
 Alpha virt. eigenvalues --    3.00989   3.01219   3.02103   3.02234   3.04689
 Alpha virt. eigenvalues --    3.05023   3.05054   3.05304   3.05372   3.05691
 Alpha virt. eigenvalues --    3.06773   3.07275   3.08288   3.08542   3.09617
 Alpha virt. eigenvalues --    3.09828   3.10057   3.10378   3.12027   3.13411
 Alpha virt. eigenvalues --    3.13815   3.13881   3.14038   3.15054   3.15508
 Alpha virt. eigenvalues --    3.15605   3.15713   3.15868   3.18874   3.19108
 Alpha virt. eigenvalues --    3.19388   3.19758   3.19774   3.21123   3.23485
 Alpha virt. eigenvalues --    3.23856   3.24198   3.24268   3.24492   3.24876
 Alpha virt. eigenvalues --    3.25314   3.25752   3.25798   3.27213   3.27765
 Alpha virt. eigenvalues --    3.28809   3.29371   3.29748   3.31723   3.32019
 Alpha virt. eigenvalues --    3.32101   3.33758   3.34485   3.36349   3.36714
 Alpha virt. eigenvalues --    3.38243   3.38669   3.39364   3.39374   3.39526
 Alpha virt. eigenvalues --    3.41711   3.42484   3.42526   3.46454   3.46775
 Alpha virt. eigenvalues --    3.53464   3.53609   3.55341   3.56526   3.57127
 Alpha virt. eigenvalues --    3.58228   3.58453   3.58506   3.59642   3.61916
 Alpha virt. eigenvalues --    3.70511   3.73800   3.84284   3.84450   3.88006
 Alpha virt. eigenvalues --    3.92296   4.06126   4.06187   4.06905   4.07028
 Alpha virt. eigenvalues --    4.30514   4.30596   4.30604   4.30688  21.16134
 Alpha virt. eigenvalues --   21.23798  21.23893  21.25319  21.25642  21.36785
 Alpha virt. eigenvalues --   21.67982  21.68171  21.68377  21.71152  21.71572
 Alpha virt. eigenvalues --   21.71952  21.74706  21.75872  21.78425  21.82919
 Alpha virt. eigenvalues --   21.83447  21.89543  21.89873  21.93898  21.94053
 Alpha virt. eigenvalues --   21.94687  21.95954  21.96691  21.97180  21.99350
 Alpha virt. eigenvalues --   22.01179  22.01498  22.01602  22.03091  22.07503
 Alpha virt. eigenvalues --   22.08316  22.13406  22.14604  22.15242  22.15835
 Alpha virt. eigenvalues --   32.04970  32.05987  43.23432  43.23544  43.23642
 Alpha virt. eigenvalues --   43.23721
          Condensed to atoms (all electrons):
 Mulliken charges:
               1
     1  C   -0.148203
     2  C    0.017657
     3  C   -0.150364
     4  C   -0.148146
     5  C    0.029851
     6  C   -0.150339
     7  H    0.118846
     8  H    0.144394
     9  H    0.120500
    10  C    0.030172
    11  C   -0.150515
    12  C   -0.150017
    13  C   -0.145526
    14  C   -0.149269
    15  C    0.012859
    16  H    0.120195
    17  H    0.120326
    18  H    0.144433
    19  H    0.143485
    20  H    0.144109
    21  N   -0.000923
    22  C   -0.112944
    23  C   -0.059414
    24  C   -0.084547
    25  C   -0.202465
    26  C   -0.175181
    27  C    0.118845
    28  H    0.134212
    29  H    0.142651
    30  H    0.116760
    31  H    0.106319
    32  C   -0.106972
    33  C   -0.081448
    34  C   -0.067329
    35  C   -0.172454
    36  C   -0.199216
    37  C    0.115736
    38  H    0.135972
    39  H    0.141299
    40  H    0.106861
    41  H    0.116969
    42  N   -0.000057
    43  C   -0.115955
    44  C   -0.080671
    45  C   -0.061654
    46  C   -0.173377
    47  C   -0.200296
    48  C    0.116433
    49  H    0.135349
    50  H    0.140975
    51  H    0.107102
    52  H    0.116950
    53  C   -0.114312
    54  C   -0.081374
    55  C   -0.062865
    56  C   -0.173353
    57  C   -0.200216
    58  C    0.116232
    59  H    0.135360
    60  H    0.141512
    61  H    0.106962
    62  H    0.117143
    63  O   -0.242609
    64  H    0.268407
    65  O   -0.242590
    66  H    0.268484
    67  O   -0.242930
    68  H    0.268476
    69  O   -0.242740
    70  H    0.268443
 Sum of Mulliken charges =  -0.00000
 Mulliken charges with hydrogens summed into heavy atoms:
               1
     1  C   -0.004094
     2  C    0.017657
     3  C   -0.031519
     4  C   -0.003752
     5  C    0.029851
     6  C   -0.029839
    10  C    0.030172
    11  C   -0.030320
    12  C   -0.029691
    13  C   -0.001093
    14  C   -0.005784
    15  C    0.012859
    21  N   -0.000923
    22  C   -0.112944
    23  C    0.074798
    24  C    0.058104
    25  C   -0.085705
    26  C   -0.068862
    27  C    0.118845
    32  C   -0.106972
    33  C    0.054523
    34  C    0.073970
    35  C   -0.065594
    36  C   -0.082248
    37  C    0.115736
    42  N   -0.000057
    43  C   -0.115955
    44  C    0.054679
    45  C    0.079320
    46  C   -0.066275
    47  C   -0.083346
    48  C    0.116433
    53  C   -0.114312
    54  C    0.053985
    55  C    0.078646
    56  C   -0.066392
    57  C   -0.083073
    58  C    0.116232
    63  O    0.025798
    65  O    0.025894
    67  O    0.025545
    69  O    0.025702
 Electronic spatial extent (au):  <R**2>=          43189.4021
 Charge=             -0.0000 electrons
 Dipole moment (field-independent basis, Debye):
    X=              1.6784    Y=             -0.4214    Z=              2.0466  Tot=              2.6802
 Quadrupole moment (field-independent basis, Debye-Ang):
   XX=           -190.4720   YY=           -232.7025   ZZ=           -241.8045
   XY=             -5.2388   XZ=            -14.6784   YZ=            -12.0322
 Traceless Quadrupole moment (field-independent basis, Debye-Ang):
   XX=             31.1877   YY=            -11.0428   ZZ=            -20.1449
   XY=             -5.2388   XZ=            -14.6784   YZ=            -12.0322
 Octapole moment (field-independent basis, Debye-Ang**2):
  XXX=            345.2230  YYY=            -38.6869  ZZZ=             14.7953  XYY=             10.8887
  XXY=            121.0817  XXZ=            101.8300  XZZ=            -48.6414  YZZ=            -34.7122
  YYZ=             66.7439  XYZ=            -67.5920
 Hexadecapole moment (field-independent basis, Debye-Ang**3):
 XXXX=         -41370.9511 YYYY=          -8996.7186 ZZZZ=          -1563.4278 XXXY=          -1600.8544
 XXXZ=           -668.3796 YYYX=             74.5820 YYYZ=           -370.1725 ZZZX=           -115.4513
 ZZZY=            -82.1305 XXYY=          -8220.1738 XXZZ=          -8463.2983 YYZZ=          -1733.2529
 XXYZ=           -592.4909 YYXZ=           -476.3949 ZZXY=            257.8412
 N-N= 4.158510416716D+03 E-N=-1.250565262314D+04  KE= 1.789556167382D+03
 No NMR shielding tensors so no spin-rotation constants.
 Leave Link  601 at Mon Jan 18 12:41:16 2021, MaxMem=  4026531840 cpu:               7.5 elap:               1.2
 (Enter /opt/ohpc/pub/libs/gaussian/g16-A.03/sandybridge/g16/l9999.exe)

 Test job not archived.
 1\1\GINC-CASCADEB037\SP\RLC-wHPBE\TZVP\C36H28N2O4\RDU230\18-Jan-2021\0
 \\#P LC-wHPBE/TZVP iop(3/107=0176300000, 3/108=0176300000) scf=(conver
 =6,fermi,ndamp=35,noincfock,novaracc,vshift=500,xqc)\\H28 C36 N2 O4\\0
 ,1\C,0,2.858499,1.142103,-0.374244\C,0,3.579312,-0.001087,0.003359\C,0
 ,1.469111,1.138314,-0.362939\C,0,2.858875,-1.143435,0.384264\C,0,0.739
 097,0.000512,0.009817\C,0,1.469477,-1.138129,0.379362\H,0,0.937192,2.0
 33473,-0.688815\H,0,3.397761,-2.037798,0.696269\H,0,0.938071,-2.032504
 ,0.708142\C,0,-0.742883,0.001384,0.012974\C,0,-1.474511,-1.130858,-0.3
 72988\C,0,-1.47149,1.134716,0.402503\C,0,-2.8641,-1.134318,-0.378218\C
 ,0,-2.860735,1.140009,0.413286\C,0,-3.582937,0.003346,0.018716\H,0,-0.
 94411,-2.02123,-0.714069\H,0,-0.938347,2.023708,0.742945\H,0,-3.404263
 ,-2.023625,-0.702274\H,0,-3.398798,2.029064,0.741639\H,0,3.397024,2.03
 5914,-0.688457\N,0,-4.995311,0.005703,0.022721\C,0,-5.713915,1.18551,-
 0.315496\C,0,-6.824749,1.586223,0.439679\C,0,-5.336499,1.964565,-1.414
 395\C,0,-7.543368,2.726588,0.103607\C,0,-6.037549,3.122582,-1.739703\C
 ,0,-7.148838,3.50571,-0.986012\H,0,-7.129554,0.987536,1.298124\H,0,-4.
 477812,1.664402,-2.014832\H,0,-8.408278,3.036049,0.689802\H,0,-5.72457
 ,3.720924,-2.59898\C,0,-5.717056,-1.178925,0.336296\C,0,-6.821807,-1.5
 65845,-0.429047\C,0,-5.346761,-1.975943,1.428789\C,0,-7.543924,-2.7122
 98,-0.10728\C,0,-6.0478,-3.134194,1.738027\C,0,-7.155651,-3.506391,0.9
 73222\H,0,-7.124426,-0.956025,-1.280239\H,0,-4.491517,-1.682511,2.0375
 55\H,0,-8.407549,-2.995534,-0.714075\H,0,-5.757368,-3.754511,2.585554\
 N,0,4.991423,-0.001999,0.00006\C,0,5.710552,-1.183762,-0.330631\C,0,6.
 812654,-1.584277,0.431608\C,0,5.340603,-1.964026,-1.435102\C,0,7.53257
 2,-2.727778,0.095183\C,0,6.039551,-3.119564,-1.759528\C,0,7.144632,-3.
 505373,-0.997606\H,0,7.113605,-0.987752,1.292811\H,0,4.486562,-1.66032
 3,-2.040543\H,0,8.393358,-3.022713,0.700462\H,0,5.749024,-3.727528,-2.
 615933\C,0,5.713955,1.17869,0.326778\C,0,6.814458,1.575861,-0.439552\C
 ,0,5.349314,1.961286,1.431414\C,0,7.537888,2.718318,-0.107058\C,0,6.05
 1756,3.115796,1.751909\C,0,7.155153,3.498257,0.985865\H,0,7.111509,0.9
 77436,-1.300789\H,0,4.49683,1.660119,2.040298\H,0,8.397429,3.010471,-0
 .715458\H,0,5.765438,3.72535,2.608604\O,0,7.820509,4.641023,1.355507\H
 ,0,8.555246,4.78867,0.739309\O,0,7.806379,-4.648952,-1.371018\H,0,8.54
 1702,-4.800061,-0.75635\O,0,-7.887404,4.628973,-1.265636\H,0,-7.503413
 ,5.071476,-2.03899\O,0,-7.819547,-4.653451,1.332021\H,0,-8.560354,-4.7
 90553,0.720672\\Version=EM64L-G16RevA.03\State=1-A\HF=-1797.983076\RMS
 D=9.940e-07\Dipole=0.6603342,0.1658058,-0.8052093\Quadrupole=23.187277
 3,-8.2100632,-14.9772141,3.8948854,10.9130308,-8.9456115\PG=C01 [X(C36
 H28N2O4)]\\@


 At the touch of love, everyone becomves a poet.
                                -- Plato
 Job cpu time:       0 days  2 hours 15 minutes  1.8 seconds.
 Elapsed time:       0 days  0 hours 17 minutes  7.7 seconds.
 File lengths (MBytes):  RWF=    332 Int=      0 D2E=      0 Chk=     60 Scr=      8
 Normal termination of Gaussian 16 at Mon Jan 18 12:41:16 2021.
