 Entering Gaussian System, Link 0=g16
 Input=mol_bp_ma_whol_tune_c3.gjf
 Output=mol_bp_ma_whol_tune_c3.log
 Initial command:
 /opt/ohpc/pub/libs/gaussian/g16-A.03/sandybridge/g16/l1.exe "/mnt/gpfs2_4m/scratch/rdu230/ondemand/projects/init_structures/wtuning/mol_bp_ma_whol/tuning_mol_bp_ma_whol_ocycle0/Gau-963.inp" -scrdir="/mnt/gpfs2_4m/scratch/rdu230/ondemand/projects/init_structures/wtuning/mol_bp_ma_whol/tuning_mol_bp_ma_whol_ocycle0/"
 Entering Link 1 = /opt/ohpc/pub/libs/gaussian/g16-A.03/sandybridge/g16/l1.exe PID=       964.
  
 Copyright (c) 1988,1990,1992,1993,1995,1998,2003,2009,2016,
            Gaussian, Inc.  All Rights Reserved.
  
 This is part of the Gaussian(R) 16 program.  It is based on
 the Gaussian(R) 09 system (copyright 2009, Gaussian, Inc.),
 the Gaussian(R) 03 system (copyright 2003, Gaussian, Inc.),
 the Gaussian(R) 98 system (copyright 1998, Gaussian, Inc.),
 the Gaussian(R) 94 system (copyright 1995, Gaussian, Inc.),
 the Gaussian 92(TM) system (copyright 1992, Gaussian, Inc.),
 the Gaussian 90(TM) system (copyright 1990, Gaussian, Inc.),
 the Gaussian 88(TM) system (copyright 1988, Gaussian, Inc.),
 the Gaussian 86(TM) system (copyright 1986, Carnegie Mellon
 University), and the Gaussian 82(TM) system (copyright 1983,
 Carnegie Mellon University). Gaussian is a federally registered
 trademark of Gaussian, Inc.
  
 This software contains proprietary and confidential information,
 including trade secrets, belonging to Gaussian, Inc.
  
 This software is provided under written license and may be
 used, copied, transmitted, or stored only in accord with that
 written license.
  
 The following legend is applicable only to US Government
 contracts under FAR:
  
                    RESTRICTED RIGHTS LEGEND
  
 Use, reproduction and disclosure by the US Government is
 subject to restrictions as set forth in subparagraphs (a)
 and (c) of the Commercial Computer Software - Restricted
 Rights clause in FAR 52.227-19.
  
 Gaussian, Inc.
 340 Quinnipiac St., Bldg. 40, Wallingford CT 06492
  
  
 ---------------------------------------------------------------
 Warning -- This program may not be used in any manner that
 competes with the business of Gaussian, Inc. or will provide
 assistance to any competitor of Gaussian, Inc.  The licensee
 of this program is prohibited from giving any competitor of
 Gaussian, Inc. access to this program.  By using this program,
 the user acknowledges that Gaussian, Inc. is engaged in the
 business of creating and licensing software in the field of
 computational chemistry and represents and warrants to the
 licensee that it is not a competitor of Gaussian, Inc. and that
 it will not use this program in any manner prohibited above.
 ---------------------------------------------------------------
  

 Cite this work as:
 Gaussian 16, Revision A.03,
 M. J. Frisch, G. W. Trucks, H. B. Schlegel, G. E. Scuseria, 
 M. A. Robb, J. R. Cheeseman, G. Scalmani, V. Barone, 
 G. A. Petersson, H. Nakatsuji, X. Li, M. Caricato, A. V. Marenich, 
 J. Bloino, B. G. Janesko, R. Gomperts, B. Mennucci, H. P. Hratchian, 
 J. V. Ortiz, A. F. Izmaylov, J. L. Sonnenberg, D. Williams-Young, 
 F. Ding, F. Lipparini, F. Egidi, J. Goings, B. Peng, A. Petrone, 
 T. Henderson, D. Ranasinghe, V. G. Zakrzewski, J. Gao, N. Rega, 
 G. Zheng, W. Liang, M. Hada, M. Ehara, K. Toyota, R. Fukuda, 
 J. Hasegawa, M. Ishida, T. Nakajima, Y. Honda, O. Kitao, H. Nakai, 
 T. Vreven, K. Throssell, J. A. Montgomery, Jr., J. E. Peralta, 
 F. Ogliaro, M. J. Bearpark, J. J. Heyd, E. N. Brothers, K. N. Kudin, 
 V. N. Staroverov, T. A. Keith, R. Kobayashi, J. Normand, 
 K. Raghavachari, A. P. Rendell, J. C. Burant, S. S. Iyengar, 
 J. Tomasi, M. Cossi, J. M. Millam, M. Klene, C. Adamo, R. Cammi, 
 J. W. Ochterski, R. L. Martin, K. Morokuma, O. Farkas, 
 J. B. Foresman, and D. J. Fox, Gaussian, Inc., Wallingford CT, 2016.
 
 ******************************************
 Gaussian 16:  EM64L-G16RevA.03 25-Dec-2016
                18-Jan-2021 
 ******************************************
 %mem=30GB
 %nproc=8
 Will use up to    8 processors via shared memory.
 ----------------------------------------------------------------------
 #P LC-wHPBE/TZVP iop(3/107=0135500000, 3/108=0135500000) scf=(conver=6
 ,fermi,ndamp=35,noincfock,novaracc,vshift=500,xqc)
 ----------------------------------------------------------------------
 1/38=1,172=1/1;
 2/12=2,17=6,18=5,40=1/2;
 3/5=19,7=101,11=2,25=1,30=1,74=-71,107=135500000,108=135500000/1,2,3;
 4//1;
 5/5=100002,6=6,8=3,10=500,13=1,18=-1,22=13,38=1,93=35/2,8;
 6/7=2,8=2,9=2,10=2,28=1/1;
 99/5=1,9=1/99;
 Leave Link    1 at Mon Jan 18 08:09:47 2021, MaxMem=  4026531840 cpu:               1.3 elap:               0.2
 (Enter /opt/ohpc/pub/libs/gaussian/g16-A.03/sandybridge/g16/l101.exe)
 -------------
 H28 C36 N2 O4
 -------------
 Symbolic Z-matrix:
 Charge =  1 Multiplicity = 2
 C                     2.8585    1.1421   -0.37424 
 C                     3.57931  -0.00109   0.00336 
 C                     1.46911   1.13831  -0.36294 
 C                     2.85888  -1.14343   0.38426 
 C                     0.7391    0.00051   0.00982 
 C                     1.46948  -1.13813   0.37936 
 H                     0.93719   2.03347  -0.68882 
 H                     3.39776  -2.0378    0.69627 
 H                     0.93807  -2.0325    0.70814 
 C                    -0.74288   0.00138   0.01297 
 C                    -1.47451  -1.13086  -0.37299 
 C                    -1.47149   1.13472   0.4025 
 C                    -2.8641   -1.13432  -0.37822 
 C                    -2.86074   1.14001   0.41329 
 C                    -3.58294   0.00335   0.01872 
 H                    -0.94411  -2.02123  -0.71407 
 H                    -0.93835   2.02371   0.74295 
 H                    -3.40426  -2.02363  -0.70227 
 H                    -3.3988    2.02906   0.74164 
 H                     3.39702   2.03591  -0.68846 
 N                    -4.99531   0.0057    0.02272 
 C                    -5.71392   1.18551  -0.3155 
 C                    -6.82475   1.58622   0.43968 
 C                    -5.3365    1.96457  -1.4144 
 C                    -7.54337   2.72659   0.10361 
 C                    -6.03755   3.12258  -1.7397 
 C                    -7.14884   3.50571  -0.98601 
 H                    -7.12955   0.98754   1.29812 
 H                    -4.47781   1.6644   -2.01483 
 H                    -8.40828   3.03605   0.6898 
 H                    -5.72457   3.72092  -2.59898 
 C                    -5.71706  -1.17893   0.3363 
 C                    -6.82181  -1.56585  -0.42905 
 C                    -5.34676  -1.97594   1.42879 
 C                    -7.54392  -2.7123   -0.10728 
 C                    -6.0478   -3.13419   1.73803 
 C                    -7.15565  -3.50639   0.97322 
 H                    -7.12443  -0.95603  -1.28024 
 H                    -4.49152  -1.68251   2.03756 
 H                    -8.40755  -2.99553  -0.71408 
 H                    -5.75737  -3.75451   2.58555 
 N                     4.99142  -0.002     0.00006 
 C                     5.71055  -1.18376  -0.33063 
 C                     6.81265  -1.58428   0.43161 
 C                     5.3406   -1.96403  -1.4351 
 C                     7.53257  -2.72778   0.09518 
 C                     6.03955  -3.11956  -1.75953 
 C                     7.14463  -3.50537  -0.99761 
 H                     7.1136   -0.98775   1.29281 
 H                     4.48656  -1.66032  -2.04054 
 H                     8.39336  -3.02271   0.70046 
 H                     5.74902  -3.72753  -2.61593 
 C                     5.71396   1.17869   0.32678 
 C                     6.81446   1.57586  -0.43955 
 C                     5.34931   1.96129   1.43141 
 C                     7.53789   2.71832  -0.10706 
 C                     6.05176   3.1158    1.75191 
 C                     7.15515   3.49826   0.98587 
 H                     7.11151   0.97744  -1.30079 
 H                     4.49683   1.66012   2.0403 
 H                     8.39743   3.01047  -0.71546 
 H                     5.76544   3.72535   2.6086 
 O                     7.82051   4.64102   1.35551 
 H                     8.55525   4.78867   0.73931 
 O                     7.80638  -4.64895  -1.37102 
 H                     8.5417   -4.80006  -0.75635 
 O                    -7.8874    4.62897  -1.26564 
 H                    -7.50341   5.07148  -2.03899 
 O                    -7.81955  -4.65345   1.33202 
 H                    -8.56035  -4.79055   0.72067 
 
 ITRead=  0  0  0  0  0  0  0  0  0  0  0  0  0  0  0  0  0  0  0  0
 ITRead=  0  0  0  0  0  0  0  0  0  0  0  0  0  0  0  0  0  0  0  0
 ITRead=  0  0  0  0  0  0  0  0  0  0  0  0  0  0  0  0  0  0  0  0
 ITRead=  0  0  0  0  0  0  0  0  0  0
 MicOpt= -1 -1 -1 -1 -1 -1 -1 -1 -1 -1 -1 -1 -1 -1 -1 -1 -1 -1 -1 -1
 MicOpt= -1 -1 -1 -1 -1 -1 -1 -1 -1 -1 -1 -1 -1 -1 -1 -1 -1 -1 -1 -1
 MicOpt= -1 -1 -1 -1 -1 -1 -1 -1 -1 -1 -1 -1 -1 -1 -1 -1 -1 -1 -1 -1
 MicOpt= -1 -1 -1 -1 -1 -1 -1 -1 -1 -1
 NAtoms=     70 NQM=       70 NQMF=       0 NMMI=      0 NMMIF=      0
                NMic=       0 NMicF=      0.
                    Isotopes and Nuclear Properties:
 (Nuclear quadrupole moments (NQMom) in fm**2, nuclear magnetic moments (NMagM)
  in nuclear magnetons)

  Atom         1           2           3           4           5           6           7           8           9          10
 IAtWgt=          12          12          12          12          12          12           1           1           1          12
 AtmWgt=  12.0000000  12.0000000  12.0000000  12.0000000  12.0000000  12.0000000   1.0078250   1.0078250   1.0078250  12.0000000
 NucSpn=           0           0           0           0           0           0           1           1           1           0
 AtZEff=  -0.0000000  -0.0000000  -0.0000000  -0.0000000  -0.0000000  -0.0000000  -0.0000000  -0.0000000  -0.0000000  -0.0000000
 NQMom=    0.0000000   0.0000000   0.0000000   0.0000000   0.0000000   0.0000000   0.0000000   0.0000000   0.0000000   0.0000000
 NMagM=    0.0000000   0.0000000   0.0000000   0.0000000   0.0000000   0.0000000   2.7928460   2.7928460   2.7928460   0.0000000
 AtZNuc=   6.0000000   6.0000000   6.0000000   6.0000000   6.0000000   6.0000000   1.0000000   1.0000000   1.0000000   6.0000000

  Atom        11          12          13          14          15          16          17          18          19          20
 IAtWgt=          12          12          12          12          12           1           1           1           1           1
 AtmWgt=  12.0000000  12.0000000  12.0000000  12.0000000  12.0000000   1.0078250   1.0078250   1.0078250   1.0078250   1.0078250
 NucSpn=           0           0           0           0           0           1           1           1           1           1
 AtZEff=  -0.0000000  -0.0000000  -0.0000000  -0.0000000  -0.0000000  -0.0000000  -0.0000000  -0.0000000  -0.0000000  -0.0000000
 NQMom=    0.0000000   0.0000000   0.0000000   0.0000000   0.0000000   0.0000000   0.0000000   0.0000000   0.0000000   0.0000000
 NMagM=    0.0000000   0.0000000   0.0000000   0.0000000   0.0000000   2.7928460   2.7928460   2.7928460   2.7928460   2.7928460
 AtZNuc=   6.0000000   6.0000000   6.0000000   6.0000000   6.0000000   1.0000000   1.0000000   1.0000000   1.0000000   1.0000000

  Atom        21          22          23          24          25          26          27          28          29          30
 IAtWgt=          14          12          12          12          12          12          12           1           1           1
 AtmWgt=  14.0030740  12.0000000  12.0000000  12.0000000  12.0000000  12.0000000  12.0000000   1.0078250   1.0078250   1.0078250
 NucSpn=           2           0           0           0           0           0           0           1           1           1
 AtZEff=  -0.0000000  -0.0000000  -0.0000000  -0.0000000  -0.0000000  -0.0000000  -0.0000000  -0.0000000  -0.0000000  -0.0000000
 NQMom=    2.0440000   0.0000000   0.0000000   0.0000000   0.0000000   0.0000000   0.0000000   0.0000000   0.0000000   0.0000000
 NMagM=    0.4037610   0.0000000   0.0000000   0.0000000   0.0000000   0.0000000   0.0000000   2.7928460   2.7928460   2.7928460
 AtZNuc=   7.0000000   6.0000000   6.0000000   6.0000000   6.0000000   6.0000000   6.0000000   1.0000000   1.0000000   1.0000000

  Atom        31          32          33          34          35          36          37          38          39          40
 IAtWgt=           1          12          12          12          12          12          12           1           1           1
 AtmWgt=   1.0078250  12.0000000  12.0000000  12.0000000  12.0000000  12.0000000  12.0000000   1.0078250   1.0078250   1.0078250
 NucSpn=           1           0           0           0           0           0           0           1           1           1
 AtZEff=  -0.0000000  -0.0000000  -0.0000000  -0.0000000  -0.0000000  -0.0000000  -0.0000000  -0.0000000  -0.0000000  -0.0000000
 NQMom=    0.0000000   0.0000000   0.0000000   0.0000000   0.0000000   0.0000000   0.0000000   0.0000000   0.0000000   0.0000000
 NMagM=    2.7928460   0.0000000   0.0000000   0.0000000   0.0000000   0.0000000   0.0000000   2.7928460   2.7928460   2.7928460
 AtZNuc=   1.0000000   6.0000000   6.0000000   6.0000000   6.0000000   6.0000000   6.0000000   1.0000000   1.0000000   1.0000000

  Atom        41          42          43          44          45          46          47          48          49          50
 IAtWgt=           1          14          12          12          12          12          12          12           1           1
 AtmWgt=   1.0078250  14.0030740  12.0000000  12.0000000  12.0000000  12.0000000  12.0000000  12.0000000   1.0078250   1.0078250
 NucSpn=           1           2           0           0           0           0           0           0           1           1
 AtZEff=  -0.0000000  -0.0000000  -0.0000000  -0.0000000  -0.0000000  -0.0000000  -0.0000000  -0.0000000  -0.0000000  -0.0000000
 NQMom=    0.0000000   2.0440000   0.0000000   0.0000000   0.0000000   0.0000000   0.0000000   0.0000000   0.0000000   0.0000000
 NMagM=    2.7928460   0.4037610   0.0000000   0.0000000   0.0000000   0.0000000   0.0000000   0.0000000   2.7928460   2.7928460
 AtZNuc=   1.0000000   7.0000000   6.0000000   6.0000000   6.0000000   6.0000000   6.0000000   6.0000000   1.0000000   1.0000000

  Atom        51          52          53          54          55          56          57          58          59          60
 IAtWgt=           1           1          12          12          12          12          12          12           1           1
 AtmWgt=   1.0078250   1.0078250  12.0000000  12.0000000  12.0000000  12.0000000  12.0000000  12.0000000   1.0078250   1.0078250
 NucSpn=           1           1           0           0           0           0           0           0           1           1
 AtZEff=  -0.0000000  -0.0000000  -0.0000000  -0.0000000  -0.0000000  -0.0000000  -0.0000000  -0.0000000  -0.0000000  -0.0000000
 NQMom=    0.0000000   0.0000000   0.0000000   0.0000000   0.0000000   0.0000000   0.0000000   0.0000000   0.0000000   0.0000000
 NMagM=    2.7928460   2.7928460   0.0000000   0.0000000   0.0000000   0.0000000   0.0000000   0.0000000   2.7928460   2.7928460
 AtZNuc=   1.0000000   1.0000000   6.0000000   6.0000000   6.0000000   6.0000000   6.0000000   6.0000000   1.0000000   1.0000000

  Atom        61          62          63          64          65          66          67          68          69          70
 IAtWgt=           1           1          16           1          16           1          16           1          16           1
 AtmWgt=   1.0078250   1.0078250  15.9949146   1.0078250  15.9949146   1.0078250  15.9949146   1.0078250  15.9949146   1.0078250
 NucSpn=           1           1           0           1           0           1           0           1           0           1
 AtZEff=  -0.0000000  -0.0000000  -0.0000000  -0.0000000  -0.0000000  -0.0000000  -0.0000000  -0.0000000  -0.0000000  -0.0000000
 NQMom=    0.0000000   0.0000000   0.0000000   0.0000000   0.0000000   0.0000000   0.0000000   0.0000000   0.0000000   0.0000000
 NMagM=    2.7928460   2.7928460   0.0000000   2.7928460   0.0000000   2.7928460   0.0000000   2.7928460   0.0000000   2.7928460
 AtZNuc=   1.0000000   1.0000000   8.0000000   1.0000000   8.0000000   1.0000000   8.0000000   1.0000000   8.0000000   1.0000000
 Leave Link  101 at Mon Jan 18 08:09:47 2021, MaxMem=  4026531840 cpu:               0.8 elap:               0.1
 (Enter /opt/ohpc/pub/libs/gaussian/g16-A.03/sandybridge/g16/l202.exe)
 Stoichiometry    C36H28N2O4(1+,2)
 Framework group  C1[X(C36H28N2O4)]
 Deg. of freedom   204
 Full point group                 C1      NOp   1
 Largest Abelian subgroup         C1      NOp   1
 Largest concise Abelian subgroup C1      NOp   1
                         Standard orientation:                         
 ---------------------------------------------------------------------
 Center     Atomic      Atomic             Coordinates (Angstroms)
 Number     Number       Type             X           Y           Z
 ---------------------------------------------------------------------
      1          6           0        2.858499   -1.142103    0.374244
      2          6           0        3.579312    0.001087   -0.003359
      3          6           0        1.469111   -1.138314    0.362939
      4          6           0        2.858875    1.143435   -0.384264
      5          6           0        0.739097   -0.000512   -0.009817
      6          6           0        1.469477    1.138129   -0.379362
      7          1           0        0.937192   -2.033473    0.688815
      8          1           0        3.397761    2.037798   -0.696269
      9          1           0        0.938071    2.032504   -0.708142
     10          6           0       -0.742883   -0.001384   -0.012974
     11          6           0       -1.474511    1.130858    0.372988
     12          6           0       -1.471490   -1.134716   -0.402503
     13          6           0       -2.864100    1.134318    0.378218
     14          6           0       -2.860735   -1.140009   -0.413286
     15          6           0       -3.582937   -0.003346   -0.018716
     16          1           0       -0.944110    2.021230    0.714069
     17          1           0       -0.938347   -2.023708   -0.742945
     18          1           0       -3.404263    2.023625    0.702274
     19          1           0       -3.398798   -2.029064   -0.741639
     20          1           0        3.397024   -2.035914    0.688457
     21          7           0       -4.995311   -0.005703   -0.022721
     22          6           0       -5.713915   -1.185510    0.315496
     23          6           0       -6.824749   -1.586223   -0.439679
     24          6           0       -5.336499   -1.964565    1.414395
     25          6           0       -7.543368   -2.726588   -0.103607
     26          6           0       -6.037549   -3.122582    1.739703
     27          6           0       -7.148838   -3.505710    0.986012
     28          1           0       -7.129554   -0.987536   -1.298124
     29          1           0       -4.477812   -1.664402    2.014832
     30          1           0       -8.408278   -3.036049   -0.689802
     31          1           0       -5.724570   -3.720924    2.598980
     32          6           0       -5.717056    1.178925   -0.336296
     33          6           0       -6.821807    1.565845    0.429047
     34          6           0       -5.346761    1.975943   -1.428789
     35          6           0       -7.543924    2.712298    0.107280
     36          6           0       -6.047800    3.134194   -1.738027
     37          6           0       -7.155651    3.506391   -0.973222
     38          1           0       -7.124426    0.956025    1.280239
     39          1           0       -4.491517    1.682511   -2.037555
     40          1           0       -8.407549    2.995534    0.714075
     41          1           0       -5.757368    3.754511   -2.585554
     42          7           0        4.991423    0.001999   -0.000060
     43          6           0        5.710552    1.183762    0.330631
     44          6           0        6.812654    1.584277   -0.431608
     45          6           0        5.340603    1.964026    1.435102
     46          6           0        7.532572    2.727778   -0.095183
     47          6           0        6.039551    3.119564    1.759528
     48          6           0        7.144632    3.505373    0.997606
     49          1           0        7.113605    0.987752   -1.292811
     50          1           0        4.486562    1.660323    2.040543
     51          1           0        8.393358    3.022713   -0.700462
     52          1           0        5.749024    3.727528    2.615933
     53          6           0        5.713955   -1.178690   -0.326778
     54          6           0        6.814458   -1.575861    0.439552
     55          6           0        5.349314   -1.961286   -1.431414
     56          6           0        7.537888   -2.718318    0.107058
     57          6           0        6.051756   -3.115796   -1.751909
     58          6           0        7.155153   -3.498257   -0.985865
     59          1           0        7.111509   -0.977436    1.300789
     60          1           0        4.496830   -1.660119   -2.040298
     61          1           0        8.397429   -3.010471    0.715458
     62          1           0        5.765438   -3.725350   -2.608604
     63          8           0        7.820509   -4.641023   -1.355507
     64          1           0        8.555246   -4.788670   -0.739309
     65          8           0        7.806379    4.648952    1.371018
     66          1           0        8.541702    4.800061    0.756350
     67          8           0       -7.887404   -4.628973    1.265636
     68          1           0       -7.503413   -5.071476    2.038990
     69          8           0       -7.819547    4.653451   -1.332021
     70          1           0       -8.560354    4.790553   -0.720672
 ---------------------------------------------------------------------
 Rotational constants (GHZ):           0.1256812           0.0264942           0.0228634
 Leave Link  202 at Mon Jan 18 08:09:47 2021, MaxMem=  4026531840 cpu:               0.1 elap:               0.0
 (Enter /opt/ohpc/pub/libs/gaussian/g16-A.03/sandybridge/g16/l301.exe)
 Standard basis: TZVP (5D, 7F)
 Ernie: Thresh=  0.10000D-02 Tol=  0.10000D-05 Strict=F.
 There are  1008 symmetry adapted cartesian basis functions of A   symmetry.
 There are   966 symmetry adapted basis functions of A   symmetry.
   966 basis functions,  1694 primitive gaussians,  1008 cartesian basis functions
   145 alpha electrons      144 beta electrons
       nuclear repulsion energy      4158.5104167158 Hartrees.
 IExCor=33909 DFT=T Ex+Corr=LC-wHPBE ExCW=0 ScaHFX=  1.000000
 ScaDFX=  1.000000  1.000000  1.000000  1.000000 ScalE2=  1.000000  1.000000
 IRadAn=      5 IRanWt=     -1 IRanGd=            0 ICorTp=0 IEmpDi=  4
 HFx  wShort=  0.000000 wLong=  0.135500 cFull=  0.000000 cShort=  0.000000 cLong=  1.000000
 DFx  wShort=  0.000000 wLong=  0.135500 cFull=  0.000000 cShort=  1.000000 cLong=  0.000000
 NAtoms=   70 NActive=   70 NUniq=   70 SFac= 1.00D+00 NAtFMM=   60 NAOKFM=T Big=T
 Integral buffers will be    131072 words long.
 Raffenetti 2 integral format.
 Two-electron integral symmetry is turned on.
 Leave Link  301 at Mon Jan 18 08:09:48 2021, MaxMem=  4026531840 cpu:               0.4 elap:               0.1
 (Enter /opt/ohpc/pub/libs/gaussian/g16-A.03/sandybridge/g16/l302.exe)
 NPDir=0 NMtPBC=     1 NCelOv=     1 NCel=       1 NClECP=     1 NCelD=      1
         NCelK=      1 NCelE2=     1 NClLst=     1 CellRange=     0.0.
 One-electron integrals computed using PRISM.
 One-electron integral symmetry used in STVInt
 NBasis=   966 RedAO= T EigKep=  7.09D-06  NBF=   966
 NBsUse=   966 1.00D-06 EigRej= -1.00D+00 NBFU=   966
 Precomputing XC quadrature grid using
 IXCGrd= 4 IRadAn=           5 IRanWt=          -1 IRanGd=           0 AccXCQ= 0.00D+00.
 Generated NRdTot=       0 NPtTot=           0 NUsed=           0 NTot=          32
 NSgBfM=   893   890   890   891   893 MxSgAt=    70 MxSgA2=    70.
 Leave Link  302 at Mon Jan 18 08:09:50 2021, MaxMem=  4026531840 cpu:              20.3 elap:               2.6
 (Enter /opt/ohpc/pub/libs/gaussian/g16-A.03/sandybridge/g16/l303.exe)
 DipDrv:  MaxL=1.
 Leave Link  303 at Mon Jan 18 08:09:50 2021, MaxMem=  4026531840 cpu:               1.2 elap:               0.2
 (Enter /opt/ohpc/pub/libs/gaussian/g16-A.03/sandybridge/g16/l401.exe)
 ExpMin= 9.52D-02 ExpMax= 2.70D+04 ExpMxC= 9.22D+02 IAcc=3 IRadAn=         5 AccDes= 0.00D+00
 Harris functional with IExCor=33909 and IRadAn=       5 diagonalized for initial guess.
 HarFok:  IExCor=33909 AccDes= 0.00D+00 IRadAn=         5 IDoV= 1 UseB2=F ITyADJ=14
 ICtDFT=  3500011 ScaDFX=  1.000000  1.000000  1.000000  1.000000
 FoFCou: FMM=F IPFlag=           0 FMFlag=      100000 FMFlg1=        2001
         NFxFlg=           0 DoJE=T BraDBF=F KetDBF=T FulRan=T
         wScrn=  0.000000 ICntrl=       500 IOpCl=  0 I1Cent=   200000004 NGrid=           0
         NMat0=    1 NMatS0=      1 NMatT0=    0 NMatD0=    1 NMtDS0=    0 NMtDT0=    0
 Petite list used in FoFCou.
 Harris En= -1776.53474453756    
 JPrj=0 DoOrth=F DoCkMO=F.
 Initial guess <Sx>= 0.0000 <Sy>= 0.0000 <Sz>= 0.5000 <S**2>= 0.7500 S= 0.5000
 Leave Link  401 at Mon Jan 18 08:10:02 2021, MaxMem=  4026531840 cpu:              89.1 elap:              11.2
 (Enter /opt/ohpc/pub/libs/gaussian/g16-A.03/sandybridge/g16/l502.exe)
 Integral symmetry usage will be decided dynamically.
 UHF open shell SCF:
 Using DIIS extrapolation, IDIIS=    10.
 NGot=  4026531840 LenX=  4024481942 LenY=  4023464870
 Requested convergence on RMS density matrix=1.00D-06 within  32 cycles.
 Requested convergence on MAX density matrix=1.00D-04.
 Requested convergence on             energy=1.00D-04.
 Virtual orbitals will be shifted by   0.500 hartree.
 No special actions if energy rises.
 Dynamic level shift is on during FON iterations.

 Cycle   1  Pass 1  IDiag  1:
 FoFJK:  IHMeth= 1 ICntrl=       0 DoSepK=T KAlg= 0 I1Cent=           0 FoldK=F
 IRaf=         1 NMat=       1 IRICut=       1 DoRegI=T DoRafI=F ISym2E= 0 IDoP0=0 IntGTp=1.
 FoFCou: FMM=T IPFlag=           0 FMFlag=      100000 FMFlg1=        2001
         NFxFlg=           0 DoJE=T BraDBF=F KetDBF=F FulRan=T
         wScrn=  0.000000 ICntrl=       500 IOpCl=  0 I1Cent=           0 NGrid=           0
         NMat0=    1 NMatS0=      1 NMatT0=    0 NMatD0=    1 NMtDS0=    0 NMtDT0=    0
 Symmetry not used in FoFCou.
 FMM levels:  10  Number of levels for PrismC:   9
 E= -1797.00039511331    
 DIIS: error= 3.19D-02 at cycle   1 NSaved=   1.
 NSaved= 1 IEnMin= 1 EnMin= -1797.00039511331     IErMin= 1 ErrMin= 3.19D-02
 ErrMax= 3.19D-02  0.00D+00 EMaxC= 1.00D+00 BMatC= 2.87D+00 BMatP= 2.87D+00
 IDIUse=1 WtCom= 1.00D+00 WtEn= 0.00D+00
 Coeff-Com:  0.100D+01
 Coeff:      0.100D+01
 Gap=     0.246 Goal=   None    Shift=    0.500
 T= 1533. Gap= 0.704 NK=0 IS=  146 IE=  966 IFin=  145
          NO(<0.9)=   0  NV(>0.1)=   0    145.00e < EF      0.00e >EF  Err=0.0D+00
 Gap=     0.069 Goal=   None    Shift=    0.500
 T= 1533. Gap= 0.543 NK=0 IS=  145 IE=  966 IFin=  144
          NO(<0.9)=   0  NV(>0.1)=   0    144.00e < EF      0.00e >EF  Err=0.0D+00
 GapD=    0.069 DampG=0.500 DampE=0.500 DampFc=0.2500 IDamp=-1.
 Damping current iteration by 2.50D-01
 RMSDP=1.97D-03 MaxDP=1.16D-01              OVMax= 7.56D-02

 Cycle   2  Pass 1  IDiag  1:
 E= -1797.24773812168     Delta-E=       -0.247343008367 Rises=F Damp=T
 DIIS: error= 2.30D-02 at cycle   2 NSaved=   2.
 NSaved= 2 IEnMin= 2 EnMin= -1797.24773812168     IErMin= 2 ErrMin= 2.30D-02
 ErrMax= 2.30D-02  0.00D+00 EMaxC= 1.00D+00 BMatC= 1.29D+00 BMatP= 2.87D+00
 IDIUse=1 WtCom= 1.00D+00 WtEn= 0.00D+00
 Coeff-Com: -0.180D+01 0.280D+01
 Coeff:     -0.180D+01 0.280D+01
 Gap=     0.236 Goal=   None    Shift=    0.500
 T= 1475. Gap= 0.710 NK=0 IS=  146 IE=  966 IFin=  145
          NO(<0.9)=   0  NV(>0.1)=   0    145.00e < EF      0.00e >EF  Err=0.0D+00
 Gap=     0.097 Goal=   None    Shift=    0.500
 T= 1475. Gap= 0.570 NK=0 IS=  145 IE=  966 IFin=  144
          NO(<0.9)=   0  NV(>0.1)=   0    144.00e < EF      0.00e >EF  Err=0.0D+00
 GapD=    0.097 DampG=0.500 DampE=0.500 DampFc=0.2500 IDamp=-1.
 Damping current iteration by 2.50D-01
 RMSDP=1.50D-03 MaxDP=1.27D-01 DE=-2.47D-01 OVMax= 2.55D-02

 Cycle   3  Pass 1  IDiag  1:
 E= -1797.38596968765     Delta-E=       -0.138231565965 Rises=F Damp=T
 DIIS: error= 1.66D-02 at cycle   3 NSaved=   3.
 NSaved= 3 IEnMin= 3 EnMin= -1797.38596968765     IErMin= 3 ErrMin= 1.66D-02
 ErrMax= 1.66D-02  0.00D+00 EMaxC= 1.00D+00 BMatC= 6.55D-01 BMatP= 1.29D+00
 IDIUse=1 WtCom= 1.00D+00 WtEn= 0.00D+00
 Coeff-Com: -0.192D-01-0.239D+01 0.341D+01
 Coeff:     -0.192D-01-0.239D+01 0.341D+01
 Gap=     0.217 Goal=   None    Shift=    0.500
 T= 1359. Gap= 0.715 NK=4 IS=  146 IE=  168 IFin=  145
          NO(<0.9)=   0  NV(>0.1)=   0    145.00e < EF      0.00e >EF  Err=0.0D+00
 Gap=     0.073 Goal=   None    Shift=    0.500
 T= 1359. Gap= 0.571 NK=4 IS=  145 IE=  163 IFin=  144
          NO(<0.9)=   0  NV(>0.1)=   0    144.00e < EF      0.00e >EF  Err=0.0D+00
 GapD=    0.073 DampG=0.500 DampE=0.500 DampFc=0.2500 IDamp=-1.
 Damping current iteration by 2.50D-01
 RMSDP=1.20D-03 MaxDP=1.27D-01 DE=-1.38D-01 OVMax= 8.34D-03

 Cycle   4  Pass 1  IDiag  1:
 E= -1797.47253430885     Delta-E=       -0.086564621205 Rises=F Damp=T
 DIIS: error= 1.24D-02 at cycle   4 NSaved=   4.
 NSaved= 4 IEnMin= 4 EnMin= -1797.47253430885     IErMin= 4 ErrMin= 1.24D-02
 ErrMax= 1.24D-02  0.00D+00 EMaxC= 1.00D+00 BMatC= 3.51D-01 BMatP= 6.55D-01
 IDIUse=1 WtCom= 1.00D+00 WtEn= 0.00D+00
 Coeff-Com:  0.181D+00-0.435D+00-0.254D+01 0.379D+01
 Coeff:      0.181D+00-0.435D+00-0.254D+01 0.379D+01
 Gap=     0.215 Goal=   None    Shift=    0.500
 T= 1168. Gap= 0.715 NK=4 IS=  146 IE=  168 IFin=  145
          NO(<0.9)=   0  NV(>0.1)=   0    145.00e < EF      0.00e >EF  Err=0.0D+00
 Gap=     0.072 Goal=   None    Shift=    0.500
 T= 1168. Gap= 0.572 NK=4 IS=  145 IE=  163 IFin=  144
          NO(<0.9)=   0  NV(>0.1)=   0    144.00e < EF      0.00e >EF  Err=0.0D+00
 GapD=    0.072 DampG=0.500 DampE=0.500 DampFc=0.2500 IDamp=-1.
 Damping current iteration by 2.50D-01
 RMSDP=9.11D-04 MaxDP=1.01D-01 DE=-8.66D-02 OVMax= 8.00D-03

 Cycle   5  Pass 1  IDiag  1:
 E= -1797.53019066161     Delta-E=       -0.057656352761 Rises=F Damp=T
 DIIS: error= 9.26D-03 at cycle   5 NSaved=   5.
 NSaved= 5 IEnMin= 5 EnMin= -1797.53019066161     IErMin= 5 ErrMin= 9.26D-03
 ErrMax= 9.26D-03  0.00D+00 EMaxC= 1.00D+00 BMatC= 1.94D-01 BMatP= 3.51D-01
 IDIUse=1 WtCom= 1.00D+00 WtEn= 0.00D+00
 Coeff-Com:  0.849D-01-0.332D-02-0.599D+00-0.211D+01 0.362D+01
 Coeff:      0.849D-01-0.332D-02-0.599D+00-0.211D+01 0.362D+01
 Gap=     0.215 Goal=   None    Shift=    0.500
 T=  983. Gap= 0.715 NK=4 IS=  146 IE=  168 IFin=  145
          NO(<0.9)=   0  NV(>0.1)=   0    145.00e < EF      0.00e >EF  Err=0.0D+00
 Gap=     0.073 Goal=   None    Shift=    0.500
 T=  983. Gap= 0.573 NK=4 IS=  145 IE=  163 IFin=  144
          NO(<0.9)=   0  NV(>0.1)=   0    144.00e < EF      0.00e >EF  Err=0.0D+00
 GapD=    0.073 DampG=0.500 DampE=1.000 DampFc=0.5000 IDamp=-1.
 Damping current iteration by 5.00D-01
 RMSDP=6.89D-04 MaxDP=7.74D-02 DE=-5.77D-02 OVMax= 7.29D-03

 Cycle   6  Pass 1  IDiag  1:
 E= -1797.60728004599     Delta-E=       -0.077089384381 Rises=F Damp=T
 DIIS: error= 4.64D-03 at cycle   6 NSaved=   6.
 NSaved= 6 IEnMin= 6 EnMin= -1797.60728004599     IErMin= 6 ErrMin= 4.64D-03
 ErrMax= 4.64D-03  0.00D+00 EMaxC= 1.00D+00 BMatC= 4.78D-02 BMatP= 1.94D-01
 IDIUse=1 WtCom= 1.00D+00 WtEn= 0.00D+00
 Coeff-Com: -0.161D-01 0.106D+00 0.251D+00-0.216D+00-0.162D+01 0.249D+01
 Coeff:     -0.161D-01 0.106D+00 0.251D+00-0.216D+00-0.162D+01 0.249D+01
 Gap=     0.215 Goal=   None    Shift=    0.500
 T=  757. Gap= 0.715 NK=4 IS=  146 IE=  168 IFin=  145
          NO(<0.9)=   0  NV(>0.1)=   0    145.00e < EF      0.00e >EF  Err=0.0D+00
 Gap=     0.073 Goal=   None    Shift=    0.500
 T=  757. Gap= 0.573 NK=4 IS=  145 IE=  163 IFin=  144
          NO(<0.9)=   0  NV(>0.1)=   0    144.00e < EF      0.00e >EF  Err=0.0D+00
 GapD=    0.073 DampG=0.500 DampE=1.000 DampFc=0.5000 IDamp=-1.
 Damping current iteration by 5.00D-01
 RMSDP=3.51D-04 MaxDP=3.84D-02 DE=-7.71D-02 OVMax= 7.07D-03

 Cycle   7  Pass 1  IDiag  1:
 E= -1797.64206507060     Delta-E=       -0.034785024605 Rises=F Damp=T
 DIIS: error= 2.33D-03 at cycle   7 NSaved=   7.
 NSaved= 7 IEnMin= 7 EnMin= -1797.64206507060     IErMin= 7 ErrMin= 2.33D-03
 ErrMax= 2.33D-03  0.00D+00 EMaxC= 1.00D+00 BMatC= 1.19D-02 BMatP= 4.78D-02
 IDIUse=1 WtCom= 1.00D+00 WtEn= 0.00D+00
 Coeff-Com: -0.221D-01 0.358D-01 0.202D+00 0.311D+00-0.828D+00-0.118D+01
 Coeff-Com:  0.248D+01
 Coeff:     -0.221D-01 0.358D-01 0.202D+00 0.311D+00-0.828D+00-0.118D+01
 Coeff:      0.248D+01
 Gap=     0.215 Goal=   None    Shift=    0.500
 T=  468. Gap= 0.715 NK=4 IS=  146 IE=  168 IFin=  145
          NO(<0.9)=   0  NV(>0.1)=   0    145.00e < EF      0.00e >EF  Err=0.0D+00
 Gap=     0.074 Goal=   None    Shift=    0.500
 T=  468. Gap= 0.574 NK=4 IS=  145 IE=  163 IFin=  144
          NO(<0.9)=   0  NV(>0.1)=   0    144.00e < EF      0.00e >EF  Err=0.0D+00
 GapD=    0.074 DampG=0.500 DampE=1.000 DampFc=0.5000 IDamp=-1.
 Damping current iteration by 5.00D-01
 RMSDP=1.82D-04 MaxDP=1.88D-02 DE=-3.48D-02 OVMax= 6.39D-03

 Cycle   8  Pass 1  IDiag  1:
 E= -1797.65859368779     Delta-E=       -0.016528617196 Rises=F Damp=T
 DIIS: error= 1.17D-03 at cycle   8 NSaved=   8.
 NSaved= 8 IEnMin= 8 EnMin= -1797.65859368779     IErMin= 8 ErrMin= 1.17D-03
 ErrMax= 1.17D-03  0.00D+00 EMaxC= 1.00D+00 BMatC= 3.02D-03 BMatP= 1.19D-02
 IDIUse=1 WtCom= 1.00D+00 WtEn= 0.00D+00
 Coeff-Com:  0.284D-02-0.518D-01-0.440D-01 0.149D+00 0.815D+00-0.141D+01
 Coeff-Com: -0.244D+01 0.398D+01
 Coeff:      0.284D-02-0.518D-01-0.440D-01 0.149D+00 0.815D+00-0.141D+01
 Coeff:     -0.244D+01 0.398D+01
 Gap=     0.215 Goal=   None    Shift=    0.500
 T=   54. Gap= 0.715 NK=4 IS=  146 IE=  168 IFin=  145
          NO(<0.9)=   0  NV(>0.1)=   0    145.00e < EF      0.00e >EF  Err=0.0D+00
 Gap=     0.075 Goal=   None    Shift=    0.500
 T=   54. Gap= 0.575 NK=4 IS=  145 IE=  163 IFin=  144
          NO(<0.9)=   0  NV(>0.1)=   0    144.00e < EF      0.00e >EF  Err=0.0D+00
 GapD=    0.075 DampG=0.500 DampE=1.000 DampFc=0.5000 IDamp=-1.
 Damping current iteration by 5.00D-01
 RMSDP=9.82D-05 MaxDP=8.89D-03 DE=-1.65D-02 OVMax= 6.62D-03

 Cycle   9  Pass 1  IDiag  1:
 E= -1797.66667557417     Delta-E=       -0.008081886373 Rises=F Damp=T
 DIIS: error= 7.97D-04 at cycle   9 NSaved=   9.
 NSaved= 9 IEnMin= 9 EnMin= -1797.66667557417     IErMin= 9 ErrMin= 7.97D-04
 ErrMax= 7.97D-04  0.00D+00 EMaxC= 1.00D+00 BMatC= 7.82D-04 BMatP= 3.02D-03
 IDIUse=1 WtCom= 1.00D+00 WtEn= 0.00D+00
 Coeff-Com:  0.120D-01-0.300D-01-0.115D+00-0.237D+00 0.967D+00-0.205D-01
 Coeff-Com: -0.156D+01-0.211D+01 0.410D+01
 Coeff:      0.120D-01-0.300D-01-0.115D+00-0.237D+00 0.967D+00-0.205D-01
 Coeff:     -0.156D+01-0.211D+01 0.410D+01
 Gap=     0.216 Goal=   None    Shift=    0.500
 Gap=     0.075 Goal=   None    Shift=    0.500
 RMSDP=5.72D-05 MaxDP=4.27D-03 DE=-8.08D-03 OVMax= 6.46D-03

 Cycle  10  Pass 1  IDiag  1:
 E= -1797.67469607505     Delta-E=       -0.008020500886 Rises=F Damp=F
 DIIS: error= 6.51D-04 at cycle  10 NSaved=  10.
 NSaved=10 IEnMin=10 EnMin= -1797.67469607505     IErMin=10 ErrMin= 6.51D-04
 ErrMax= 6.51D-04  0.00D+00 EMaxC= 1.00D+00 BMatC= 2.13D-05 BMatP= 7.82D-04
 IDIUse=1 WtCom= 1.00D+00 WtEn= 0.00D+00
 Coeff-Com:  0.469D-02 0.492D-02-0.638D-01-0.208D+00 0.333D+00 0.494D+00
 Coeff-Com: -0.406D-01-0.169D+01 0.110D+00 0.205D+01
 Coeff:      0.469D-02 0.492D-02-0.638D-01-0.208D+00 0.333D+00 0.494D+00
 Coeff:     -0.406D-01-0.169D+01 0.110D+00 0.205D+01
 Gap=     0.215 Goal=   None    Shift=    0.500
 Gap=     0.076 Goal=   None    Shift=    0.500
 RMSDP=1.37D-05 MaxDP=1.27D-03 DE=-8.02D-03 OVMax= 5.85D-03

 Cycle  11  Pass 1  IDiag  1:
 E= -1797.67473990111     Delta-E=       -0.000043826052 Rises=F Damp=F
 DIIS: error= 5.71D-04 at cycle  11 NSaved=  11.
 NSaved=11 IEnMin=11 EnMin= -1797.67473990111     IErMin=11 ErrMin= 5.71D-04
 ErrMax= 5.71D-04  0.00D+00 EMaxC= 1.00D+00 BMatC= 1.54D-05 BMatP= 2.13D-05
 IDIUse=1 WtCom= 1.00D+00 WtEn= 0.00D+00
 Coeff-Com: -0.581D-02 0.146D-01 0.196D-01 0.674D-01-0.301D+00 0.356D-01
 Coeff-Com:  0.901D+00 0.114D+01-0.363D+01 0.917D+00 0.184D+01
 Coeff:     -0.581D-02 0.146D-01 0.196D-01 0.674D-01-0.301D+00 0.356D-01
 Coeff:      0.901D+00 0.114D+01-0.363D+01 0.917D+00 0.184D+01
 Gap=     0.215 Goal=   None    Shift=    0.500
 Gap=     0.076 Goal=   None    Shift=    0.500
 RMSDP=9.93D-06 MaxDP=7.71D-04 DE=-4.38D-05 OVMax= 5.13D-03

 Cycle  12  Pass 1  IDiag  1:
 E= -1797.67477024230     Delta-E=       -0.000030341195 Rises=F Damp=F
 DIIS: error= 4.98D-04 at cycle  12 NSaved=  12.
 NSaved=12 IEnMin=12 EnMin= -1797.67477024230     IErMin=12 ErrMin= 4.98D-04
 ErrMax= 4.98D-04  0.00D+00 EMaxC= 1.00D+00 BMatC= 1.08D-05 BMatP= 1.54D-05
 IDIUse=1 WtCom= 1.00D+00 WtEn= 0.00D+00
 Coeff-Com: -0.510D-02-0.101D-01 0.672D-01 0.208D+00-0.364D+00-0.485D+00
 Coeff-Com:  0.451D+00 0.276D+01-0.333D+01-0.510D+00-0.629D+00 0.285D+01
 Coeff:     -0.510D-02-0.101D-01 0.672D-01 0.208D+00-0.364D+00-0.485D+00
 Coeff:      0.451D+00 0.276D+01-0.333D+01-0.510D+00-0.629D+00 0.285D+01
 Gap=     0.215 Goal=   None    Shift=    0.500
 Gap=     0.076 Goal=   None    Shift=    0.500
 RMSDP=8.59D-06 MaxDP=6.56D-04 DE=-3.03D-05 OVMax= 4.72D-03

 Cycle  13  Pass 1  IDiag  1:
 E= -1797.67479223263     Delta-E=       -0.000021990326 Rises=F Damp=F
 DIIS: error= 4.21D-04 at cycle  13 NSaved=  13.
 NSaved=13 IEnMin=13 EnMin= -1797.67479223263     IErMin=13 ErrMin= 4.21D-04
 ErrMax= 4.21D-04  0.00D+00 EMaxC= 1.00D+00 BMatC= 7.77D-06 BMatP= 1.08D-05
 IDIUse=1 WtCom= 1.00D+00 WtEn= 0.00D+00
 Coeff-Com:  0.973D-03-0.226D-01 0.528D-01 0.875D-01-0.682D-01-0.347D+00
 Coeff-Com: -0.249D+00 0.150D+01-0.685D+00-0.403D+00-0.195D+01 0.826D+00
 Coeff-Com:  0.226D+01
 Coeff:      0.973D-03-0.226D-01 0.528D-01 0.875D-01-0.682D-01-0.347D+00
 Coeff:     -0.249D+00 0.150D+01-0.685D+00-0.403D+00-0.195D+01 0.826D+00
 Coeff:      0.226D+01
 Gap=     0.215 Goal=   None    Shift=    0.500
 Gap=     0.076 Goal=   None    Shift=    0.500
 RMSDP=6.90D-06 MaxDP=4.76D-04 DE=-2.20D-05 OVMax= 4.08D-03

 Cycle  14  Pass 1  IDiag  1:
 E= -1797.67480725450     Delta-E=       -0.000015021874 Rises=F Damp=F
 DIIS: error= 3.55D-04 at cycle  14 NSaved=  14.
 NSaved=14 IEnMin=14 EnMin= -1797.67480725450     IErMin=14 ErrMin= 3.55D-04
 ErrMax= 3.55D-04  0.00D+00 EMaxC= 1.00D+00 BMatC= 5.59D-06 BMatP= 7.77D-06
 IDIUse=1 WtCom= 1.00D+00 WtEn= 0.00D+00
 Coeff-Com:  0.298D-02-0.876D-02 0.433D-02-0.299D-01 0.881D-01 0.672D-01
 Coeff-Com: -0.390D+00-0.321D+00 0.961D+00 0.454D+00-0.111D+01-0.179D+01
 Coeff-Com:  0.856D+00 0.222D+01
 Coeff:      0.298D-02-0.876D-02 0.433D-02-0.299D-01 0.881D-01 0.672D-01
 Coeff:     -0.390D+00-0.321D+00 0.961D+00 0.454D+00-0.111D+01-0.179D+01
 Coeff:      0.856D+00 0.222D+01
 Gap=     0.215 Goal=   None    Shift=    0.500
 Gap=     0.077 Goal=   None    Shift=    0.500
 RMSDP=5.38D-06 MaxDP=3.64D-04 DE=-1.50D-05 OVMax= 3.44D-03

 Cycle  15  Pass 1  IDiag  1:
 E= -1797.67481728057     Delta-E=       -0.000010026073 Rises=F Damp=F
 DIIS: error= 2.99D-04 at cycle  15 NSaved=  15.
 NSaved=15 IEnMin=15 EnMin= -1797.67481728057     IErMin=15 ErrMin= 2.99D-04
 ErrMax= 2.99D-04  0.00D+00 EMaxC= 1.00D+00 BMatC= 4.14D-06 BMatP= 5.59D-06
 IDIUse=1 WtCom= 1.00D+00 WtEn= 0.00D+00
 Coeff-Com:  0.211D-02 0.367D-02-0.244D-01-0.399D-01 0.570D-01 0.273D+00
 Coeff-Com: -0.222D+00-0.919D+00 0.933D+00 0.885D+00 0.131D-02-0.245D+01
 Coeff-Com: -0.413D+00 0.145D+01 0.146D+01
 Coeff:      0.211D-02 0.367D-02-0.244D-01-0.399D-01 0.570D-01 0.273D+00
 Coeff:     -0.222D+00-0.919D+00 0.933D+00 0.885D+00 0.131D-02-0.245D+01
 Coeff:     -0.413D+00 0.145D+01 0.146D+01
 Gap=     0.215 Goal=   None    Shift=    0.500
 Gap=     0.077 Goal=   None    Shift=    0.500
 RMSDP=3.94D-06 MaxDP=2.45D-04 DE=-1.00D-05 OVMax= 2.84D-03

 Cycle  16  Pass 1  IDiag  1:
 E= -1797.67482400849     Delta-E=       -0.000006727920 Rises=F Damp=F
 DIIS: error= 2.48D-04 at cycle  16 NSaved=  16.
 NSaved=16 IEnMin=16 EnMin= -1797.67482400849     IErMin=16 ErrMin= 2.48D-04
 ErrMax= 2.48D-04  0.00D+00 EMaxC= 1.00D+00 BMatC= 2.77D-06 BMatP= 4.14D-06
 IDIUse=1 WtCom= 1.00D+00 WtEn= 0.00D+00
 Coeff-Com: -0.146D-02 0.681D-03-0.199D-02 0.891D-01-0.166D+00 0.400D-02
 Coeff-Com:  0.237D+00 0.593D+00-0.132D+01 0.259D+00 0.752D+00 0.609D+00
 Coeff-Com: -0.853D+00-0.170D+01-0.120D+01 0.369D+01
 Coeff:     -0.146D-02 0.681D-03-0.199D-02 0.891D-01-0.166D+00 0.400D-02
 Coeff:      0.237D+00 0.593D+00-0.132D+01 0.259D+00 0.752D+00 0.609D+00
 Coeff:     -0.853D+00-0.170D+01-0.120D+01 0.369D+01
 Gap=     0.215 Goal=   None    Shift=    0.500
 Gap=     0.077 Goal=   None    Shift=    0.500
 RMSDP=3.65D-06 MaxDP=2.63D-04 DE=-6.73D-06 OVMax= 2.47D-03

 Cycle  17  Pass 1  IDiag  1:
 E= -1797.67482877661     Delta-E=       -0.000004768114 Rises=F Damp=F
 DIIS: error= 2.06D-04 at cycle  17 NSaved=  17.
 NSaved=17 IEnMin=17 EnMin= -1797.67482877661     IErMin=17 ErrMin= 2.06D-04
 ErrMax= 2.06D-04  0.00D+00 EMaxC= 1.00D+00 BMatC= 2.17D-06 BMatP= 2.77D-06
 IDIUse=1 WtCom= 1.00D+00 WtEn= 0.00D+00
 Coeff-Com: -0.155D-02-0.552D-02 0.244D-01 0.634D-01-0.120D+00-0.185D+00
 Coeff-Com:  0.319D+00 0.959D+00-0.157D+01 0.114D+00 0.236D+00 0.111D+01
 Coeff-Com: -0.628D-01-0.153D+01-0.201D+01 0.211D+01 0.155D+01
 Coeff:     -0.155D-02-0.552D-02 0.244D-01 0.634D-01-0.120D+00-0.185D+00
 Coeff:      0.319D+00 0.959D+00-0.157D+01 0.114D+00 0.236D+00 0.111D+01
 Coeff:     -0.628D-01-0.153D+01-0.201D+01 0.211D+01 0.155D+01
 Gap=     0.215 Goal=   None    Shift=    0.500
 Gap=     0.077 Goal=   None    Shift=    0.500
 RMSDP=2.71D-06 MaxDP=1.87D-04 DE=-4.77D-06 OVMax= 2.00D-03

 Cycle  18  Pass 1  IDiag  1:
 E= -1797.67483198703     Delta-E=       -0.000003210424 Rises=F Damp=F
 DIIS: error= 1.70D-04 at cycle  18 NSaved=  18.
 NSaved=18 IEnMin=18 EnMin= -1797.67483198703     IErMin=18 ErrMin= 1.70D-04
 ErrMax= 1.70D-04  0.00D+00 EMaxC= 1.00D+00 BMatC= 1.48D-06 BMatP= 2.17D-06
 IDIUse=1 WtCom= 1.00D+00 WtEn= 0.00D+00
 Coeff-Com: -0.515D-03-0.581D-02 0.278D-01-0.585D-02 0.328D-02-0.195D+00
 Coeff-Com:  0.174D+00 0.539D+00-0.689D+00 0.115D+00-0.458D+00 0.428D+00
 Coeff-Com:  0.679D+00-0.140D+00-0.138D+01-0.940D-01-0.223D+00 0.222D+01
 Coeff:     -0.515D-03-0.581D-02 0.278D-01-0.585D-02 0.328D-02-0.195D+00
 Coeff:      0.174D+00 0.539D+00-0.689D+00 0.115D+00-0.458D+00 0.428D+00
 Coeff:      0.679D+00-0.140D+00-0.138D+01-0.940D-01-0.223D+00 0.222D+01
 Gap=     0.215 Goal=   None    Shift=    0.500
 Gap=     0.077 Goal=   None    Shift=    0.500
 RMSDP=2.13D-06 MaxDP=9.92D-05 DE=-3.21D-06 OVMax= 1.68D-03

 Cycle  19  Pass 1  IDiag  1:
 E= -1797.67483419866     Delta-E=       -0.000002211625 Rises=F Damp=F
 DIIS: error= 1.39D-04 at cycle  19 NSaved=  19.
 NSaved=19 IEnMin=19 EnMin= -1797.67483419866     IErMin=19 ErrMin= 1.39D-04
 ErrMax= 1.39D-04  0.00D+00 EMaxC= 1.00D+00 BMatC= 1.01D-06 BMatP= 1.48D-06
 IDIUse=1 WtCom= 1.00D+00 WtEn= 0.00D+00
 Coeff-Com:  0.936D-04 0.259D-02-0.517D-02-0.558D-02 0.735D-02 0.474D-01
 Coeff-Com: -0.642D-01-0.192D+00 0.310D+00 0.159D+00-0.281D+00-0.592D+00
 Coeff-Com:  0.288D+00 0.746D+00 0.179D+00-0.315D+00-0.212D+01 0.233D+00
 Coeff-Com:  0.260D+01
 Coeff:      0.936D-04 0.259D-02-0.517D-02-0.558D-02 0.735D-02 0.474D-01
 Coeff:     -0.642D-01-0.192D+00 0.310D+00 0.159D+00-0.281D+00-0.592D+00
 Coeff:      0.288D+00 0.746D+00 0.179D+00-0.315D+00-0.212D+01 0.233D+00
 Coeff:      0.260D+01
 Gap=     0.215 Goal=   None    Shift=    0.500
 Gap=     0.077 Goal=   None    Shift=    0.500
 RMSDP=1.81D-06 MaxDP=1.08D-04 DE=-2.21D-06 OVMax= 1.42D-03

 Cycle  20  Pass 1  IDiag  1:
 E= -1797.67483571458     Delta-E=       -0.000001515920 Rises=F Damp=F
 DIIS: error= 1.13D-04 at cycle  20 NSaved=  20.
 NSaved=20 IEnMin=20 EnMin= -1797.67483571458     IErMin=20 ErrMin= 1.13D-04
 ErrMax= 1.13D-04  0.00D+00 EMaxC= 1.00D+00 BMatC= 6.96D-07 BMatP= 1.01D-06
 IDIUse=1 WtCom= 1.00D+00 WtEn= 0.00D+00
 Coeff-Com:  0.148D-04 0.335D-02-0.161D-01 0.499D-01-0.919D-01 0.151D+00
 Coeff-Com: -0.632D-01-0.949D-01-0.334D-01 0.169D+00 0.388D+00-0.488D+00
 Coeff-Com: -0.479D+00 0.718D-01 0.308D+00 0.135D+01-0.112D+01-0.171D+01
 Coeff-Com: -0.192D+00 0.280D+01
 Coeff:      0.148D-04 0.335D-02-0.161D-01 0.499D-01-0.919D-01 0.151D+00
 Coeff:     -0.632D-01-0.949D-01-0.334D-01 0.169D+00 0.388D+00-0.488D+00
 Coeff:     -0.479D+00 0.718D-01 0.308D+00 0.135D+01-0.112D+01-0.171D+01
 Coeff:     -0.192D+00 0.280D+01
 Gap=     0.215 Goal=   None    Shift=    0.500
 Gap=     0.077 Goal=   None    Shift=    0.500
 RMSDP=1.50D-06 MaxDP=8.35D-05 DE=-1.52D-06 OVMax= 1.15D-03

 Cycle  21  Pass 1  IDiag  1:
 E= -1797.67483668590     Delta-E=       -0.000000971318 Rises=F Damp=F
 DIIS: error= 9.39D-05 at cycle  21 NSaved=  20.
 NSaved=20 IEnMin=20 EnMin= -1797.67483668590     IErMin=20 ErrMin= 9.39D-05
 ErrMax= 9.39D-05  0.00D+00 EMaxC= 1.00D+00 BMatC= 5.36D-07 BMatP= 6.96D-07
 IDIUse=1 WtCom= 1.00D+00 WtEn= 0.00D+00
 Coeff-Com:  0.875D-03-0.825D-02 0.507D-01-0.101D+00 0.105D+00 0.275D-01
 Coeff-Com:  0.830D-01-0.385D+00 0.201D+00 0.574D+00-0.277D+00-0.612D+00
 Coeff-Com: -0.332D+00-0.191D-01 0.170D+01 0.147D+00-0.179D+01-0.192D+01
 Coeff-Com:  0.207D+01 0.149D+01
 Coeff:      0.875D-03-0.825D-02 0.507D-01-0.101D+00 0.105D+00 0.275D-01
 Coeff:      0.830D-01-0.385D+00 0.201D+00 0.574D+00-0.277D+00-0.612D+00
 Coeff:     -0.332D+00-0.191D-01 0.170D+01 0.147D+00-0.179D+01-0.192D+01
 Coeff:      0.207D+01 0.149D+01
 Gap=     0.215 Goal=   None    Shift=    0.500
 Gap=     0.077 Goal=   None    Shift=    0.500
 RMSDP=1.12D-06 MaxDP=4.88D-05 DE=-9.71D-07 OVMax= 9.44D-04

 Cycle  22  Pass 1  IDiag  1:
 E= -1797.67483733021     Delta-E=       -0.000000644318 Rises=F Damp=F
 DIIS: error= 7.57D-05 at cycle  22 NSaved=  20.
 NSaved=20 IEnMin=20 EnMin= -1797.67483733021     IErMin=20 ErrMin= 7.57D-05
 ErrMax= 7.57D-05  0.00D+00 EMaxC= 1.00D+00 BMatC= 3.68D-07 BMatP= 5.36D-07
 IDIUse=1 WtCom= 1.00D+00 WtEn= 0.00D+00
 Coeff-Com: -0.224D-02 0.185D-01-0.388D-01 0.275D-01 0.480D-01 0.850D-01
 Coeff-Com: -0.294D+00 0.169D+00 0.235D+00-0.119D+00-0.245D+00-0.187D+00
 Coeff-Com: -0.162D+00 0.891D+00 0.127D+00-0.590D+00-0.862D+00 0.600D+00
 Coeff-Com: -0.147D+01 0.277D+01
 Coeff:     -0.224D-02 0.185D-01-0.388D-01 0.275D-01 0.480D-01 0.850D-01
 Coeff:     -0.294D+00 0.169D+00 0.235D+00-0.119D+00-0.245D+00-0.187D+00
 Coeff:     -0.162D+00 0.891D+00 0.127D+00-0.590D+00-0.862D+00 0.600D+00
 Coeff:     -0.147D+01 0.277D+01
 Gap=     0.215 Goal=   None    Shift=    0.500
 Gap=     0.077 Goal=   None    Shift=    0.500
 RMSDP=8.47D-07 MaxDP=3.11D-05 DE=-6.44D-07 OVMax= 7.62D-04

 SCF Done:  E(ULC-wHPBE) =  -1797.67483733     A.U. after   22 cycles
            NFock= 22  Conv=0.85D-06     -V/T= 2.0046
 <Sx>= 0.0000 <Sy>= 0.0000 <Sz>= 0.5000 <S**2>= 0.7650 S= 0.5075
 <L.S>= 0.000000000000E+00
 KE= 1.789431159962D+03 PE=-1.247735901173D+04 EE= 4.731742597717D+03
 Annihilation of the first spin contaminant:
 S**2 before annihilation     0.7650,   after     0.7501
 Leave Link  502 at Mon Jan 18 08:44:00 2021, MaxMem=  4026531840 cpu:           16118.5 elap:            2038.6
 (Enter /opt/ohpc/pub/libs/gaussian/g16-A.03/sandybridge/g16/l508.exe)
 QCSCF skips out because SCF is already converged.
 Leave Link  508 at Mon Jan 18 08:44:00 2021, MaxMem=  4026531840 cpu:               0.2 elap:               0.1
 (Enter /opt/ohpc/pub/libs/gaussian/g16-A.03/sandybridge/g16/l601.exe)
 Copying SCF densities to generalized density rwf, IOpCl= 1 IROHF=0.

 **********************************************************************

            Population analysis using the SCF density.

 **********************************************************************

 Orbital symmetries:
 Alpha Orbitals:
       Occupied  (A) (A) (A) (A) (A) (A) (A) (A) (A) (A) (A) (A)
                 (A) (A) (A) (A) (A) (A) (A) (A) (A) (A) (A) (A)
                 (A) (A) (A) (A) (A) (A) (A) (A) (A) (A) (A) (A)
                 (A) (A) (A) (A) (A) (A) (A) (A) (A) (A) (A) (A)
                 (A) (A) (A) (A) (A) (A) (A) (A) (A) (A) (A) (A)
                 (A) (A) (A) (A) (A) (A) (A) (A) (A) (A) (A) (A)
                 (A) (A) (A) (A) (A) (A) (A) (A) (A) (A) (A) (A)
                 (A) (A) (A) (A) (A) (A) (A) (A) (A) (A) (A) (A)
                 (A) (A) (A) (A) (A) (A) (A) (A) (A) (A) (A) (A)
                 (A) (A) (A) (A) (A) (A) (A) (A) (A) (A) (A) (A)
                 (A) (A) (A) (A) (A) (A) (A) (A) (A) (A) (A) (A)
                 (A) (A) (A) (A) (A) (A) (A) (A) (A) (A) (A) (A)
                 (A)
       Virtual   (A) (A) (A) (A) (A) (A) (A) (A) (A) (A) (A) (A)
                 (A) (A) (A) (A) (A) (A) (A) (A) (A) (A) (A) (A)
                 (A) (A) (A) (A) (A) (A) (A) (A) (A) (A) (A) (A)
                 (A) (A) (A) (A) (A) (A) (A) (A) (A) (A) (A) (A)
                 (A) (A) (A) (A) (A) (A) (A) (A) (A) (A) (A) (A)
                 (A) (A) (A) (A) (A) (A) (A) (A) (A) (A) (A) (A)
                 (A) (A) (A) (A) (A) (A) (A) (A) (A) (A) (A) (A)
                 (A) (A) (A) (A) (A) (A) (A) (A) (A) (A) (A) (A)
                 (A) (A) (A) (A) (A) (A) (A) (A) (A) (A) (A) (A)
                 (A) (A) (A) (A) (A) (A) (A) (A) (A) (A) (A) (A)
                 (A) (A) (A) (A) (A) (A) (A) (A) (A) (A) (A) (A)
                 (A) (A) (A) (A) (A) (A) (A) (A) (A) (A) (A) (A)
                 (A) (A) (A) (A) (A) (A) (A) (A) (A) (A) (A) (A)
                 (A) (A) (A) (A) (A) (A) (A) (A) (A) (A) (A) (A)
                 (A) (A) (A) (A) (A) (A) (A) (A) (A) (A) (A) (A)
                 (A) (A) (A) (A) (A) (A) (A) (A) (A) (A) (A) (A)
                 (A) (A) (A) (A) (A) (A) (A) (A) (A) (A) (A) (A)
                 (A) (A) (A) (A) (A) (A) (A) (A) (A) (A) (A) (A)
                 (A) (A) (A) (A) (A) (A) (A) (A) (A) (A) (A) (A)
                 (A) (A) (A) (A) (A) (A) (A) (A) (A) (A) (A) (A)
                 (A) (A) (A) (A) (A) (A) (A) (A) (A) (A) (A) (A)
                 (A) (A) (A) (A) (A) (A) (A) (A) (A) (A) (A) (A)
                 (A) (A) (A) (A) (A) (A) (A) (A) (A) (A) (A) (A)
                 (A) (A) (A) (A) (A) (A) (A) (A) (A) (A) (A) (A)
                 (A) (A) (A) (A) (A) (A) (A) (A) (A) (A) (A) (A)
                 (A) (A) (A) (A) (A) (A) (A) (A) (A) (A) (A) (A)
                 (A) (A) (A) (A) (A) (A) (A) (A) (A) (A) (A) (A)
                 (A) (A) (A) (A) (A) (A) (A) (A) (A) (A) (A) (A)
                 (A) (A) (A) (A) (A) (A) (A) (A) (A) (A) (A) (A)
                 (A) (A) (A) (A) (A) (A) (A) (A) (A) (A) (A) (A)
                 (A) (A) (A) (A) (A) (A) (A) (A) (A) (A) (A) (A)
                 (A) (A) (A) (A) (A) (A) (A) (A) (A) (A) (A) (A)
                 (A) (A) (A) (A) (A) (A) (A) (A) (A) (A) (A) (A)
                 (A) (A) (A) (A) (A) (A) (A) (A) (A) (A) (A) (A)
                 (A) (A) (A) (A) (A) (A) (A) (A) (A) (A) (A) (A)
                 (A) (A) (A) (A) (A) (A) (A) (A) (A) (A) (A) (A)
                 (A) (A) (A) (A) (A) (A) (A) (A) (A) (A) (A) (A)
                 (A) (A) (A) (A) (A) (A) (A) (A) (A) (A) (A) (A)
                 (A) (A) (A) (A) (A) (A) (A) (A) (A) (A) (A) (A)
                 (A) (A) (A) (A) (A) (A) (A) (A) (A) (A) (A) (A)
                 (A) (A) (A) (A) (A) (A) (A) (A) (A) (A) (A) (A)
                 (A) (A) (A) (A) (A) (A) (A) (A) (A) (A) (A) (A)
                 (A) (A) (A) (A) (A) (A) (A) (A) (A) (A) (A) (A)
                 (A) (A) (A) (A) (A) (A) (A) (A) (A) (A) (A) (A)
                 (A) (A) (A) (A) (A) (A) (A) (A) (A) (A) (A) (A)
                 (A) (A) (A) (A) (A) (A) (A) (A) (A) (A) (A) (A)
                 (A) (A) (A) (A) (A) (A) (A) (A) (A) (A) (A) (A)
                 (A) (A) (A) (A) (A) (A) (A) (A) (A) (A) (A) (A)
                 (A) (A) (A) (A) (A) (A) (A) (A) (A) (A) (A) (A)
                 (A) (A) (A) (A) (A) (A) (A) (A) (A) (A) (A) (A)
                 (A) (A) (A) (A) (A) (A) (A) (A) (A) (A) (A) (A)
                 (A) (A) (A) (A) (A) (A) (A) (A) (A) (A) (A) (A)
                 (A) (A) (A) (A) (A) (A) (A) (A) (A) (A) (A) (A)
                 (A) (A) (A) (A) (A) (A) (A) (A) (A) (A) (A) (A)
                 (A) (A) (A) (A) (A) (A) (A) (A) (A) (A) (A) (A)
                 (A) (A) (A) (A) (A) (A) (A) (A) (A) (A) (A) (A)
                 (A) (A) (A) (A) (A) (A) (A) (A) (A) (A) (A) (A)
                 (A) (A) (A) (A) (A) (A) (A) (A) (A) (A) (A) (A)
                 (A) (A) (A) (A) (A) (A) (A) (A) (A) (A) (A) (A)
                 (A) (A) (A) (A) (A) (A) (A) (A) (A) (A) (A) (A)
                 (A) (A) (A) (A) (A) (A) (A) (A) (A) (A) (A) (A)
                 (A) (A) (A) (A) (A) (A) (A) (A) (A) (A) (A) (A)
                 (A) (A) (A) (A) (A) (A) (A) (A) (A) (A) (A) (A)
                 (A) (A) (A) (A) (A) (A) (A) (A) (A) (A) (A) (A)
                 (A) (A) (A) (A) (A) (A) (A) (A) (A) (A) (A) (A)
                 (A) (A) (A) (A) (A) (A) (A) (A) (A) (A) (A) (A)
                 (A) (A) (A) (A) (A) (A) (A) (A) (A) (A) (A) (A)
                 (A) (A) (A) (A) (A) (A) (A) (A) (A) (A) (A) (A)
                 (A) (A) (A) (A) (A)
 Beta  Orbitals:
       Occupied  (A) (A) (A) (A) (A) (A) (A) (A) (A) (A) (A) (A)
                 (A) (A) (A) (A) (A) (A) (A) (A) (A) (A) (A) (A)
                 (A) (A) (A) (A) (A) (A) (A) (A) (A) (A) (A) (A)
                 (A) (A) (A) (A) (A) (A) (A) (A) (A) (A) (A) (A)
                 (A) (A) (A) (A) (A) (A) (A) (A) (A) (A) (A) (A)
                 (A) (A) (A) (A) (A) (A) (A) (A) (A) (A) (A) (A)
                 (A) (A) (A) (A) (A) (A) (A) (A) (A) (A) (A) (A)
                 (A) (A) (A) (A) (A) (A) (A) (A) (A) (A) (A) (A)
                 (A) (A) (A) (A) (A) (A) (A) (A) (A) (A) (A) (A)
                 (A) (A) (A) (A) (A) (A) (A) (A) (A) (A) (A) (A)
                 (A) (A) (A) (A) (A) (A) (A) (A) (A) (A) (A) (A)
                 (A) (A) (A) (A) (A) (A) (A) (A) (A) (A) (A) (A)
       Virtual   (A) (A) (A) (A) (A) (A) (A) (A) (A) (A) (A) (A)
                 (A) (A) (A) (A) (A) (A) (A) (A) (A) (A) (A) (A)
                 (A) (A) (A) (A) (A) (A) (A) (A) (A) (A) (A) (A)
                 (A) (A) (A) (A) (A) (A) (A) (A) (A) (A) (A) (A)
                 (A) (A) (A) (A) (A) (A) (A) (A) (A) (A) (A) (A)
                 (A) (A) (A) (A) (A) (A) (A) (A) (A) (A) (A) (A)
                 (A) (A) (A) (A) (A) (A) (A) (A) (A) (A) (A) (A)
                 (A) (A) (A) (A) (A) (A) (A) (A) (A) (A) (A) (A)
                 (A) (A) (A) (A) (A) (A) (A) (A) (A) (A) (A) (A)
                 (A) (A) (A) (A) (A) (A) (A) (A) (A) (A) (A) (A)
                 (A) (A) (A) (A) (A) (A) (A) (A) (A) (A) (A) (A)
                 (A) (A) (A) (A) (A) (A) (A) (A) (A) (A) (A) (A)
                 (A) (A) (A) (A) (A) (A) (A) (A) (A) (A) (A) (A)
                 (A) (A) (A) (A) (A) (A) (A) (A) (A) (A) (A) (A)
                 (A) (A) (A) (A) (A) (A) (A) (A) (A) (A) (A) (A)
                 (A) (A) (A) (A) (A) (A) (A) (A) (A) (A) (A) (A)
                 (A) (A) (A) (A) (A) (A) (A) (A) (A) (A) (A) (A)
                 (A) (A) (A) (A) (A) (A) (A) (A) (A) (A) (A) (A)
                 (A) (A) (A) (A) (A) (A) (A) (A) (A) (A) (A) (A)
                 (A) (A) (A) (A) (A) (A) (A) (A) (A) (A) (A) (A)
                 (A) (A) (A) (A) (A) (A) (A) (A) (A) (A) (A) (A)
                 (A) (A) (A) (A) (A) (A) (A) (A) (A) (A) (A) (A)
                 (A) (A) (A) (A) (A) (A) (A) (A) (A) (A) (A) (A)
                 (A) (A) (A) (A) (A) (A) (A) (A) (A) (A) (A) (A)
                 (A) (A) (A) (A) (A) (A) (A) (A) (A) (A) (A) (A)
                 (A) (A) (A) (A) (A) (A) (A) (A) (A) (A) (A) (A)
                 (A) (A) (A) (A) (A) (A) (A) (A) (A) (A) (A) (A)
                 (A) (A) (A) (A) (A) (A) (A) (A) (A) (A) (A) (A)
                 (A) (A) (A) (A) (A) (A) (A) (A) (A) (A) (A) (A)
                 (A) (A) (A) (A) (A) (A) (A) (A) (A) (A) (A) (A)
                 (A) (A) (A) (A) (A) (A) (A) (A) (A) (A) (A) (A)
                 (A) (A) (A) (A) (A) (A) (A) (A) (A) (A) (A) (A)
                 (A) (A) (A) (A) (A) (A) (A) (A) (A) (A) (A) (A)
                 (A) (A) (A) (A) (A) (A) (A) (A) (A) (A) (A) (A)
                 (A) (A) (A) (A) (A) (A) (A) (A) (A) (A) (A) (A)
                 (A) (A) (A) (A) (A) (A) (A) (A) (A) (A) (A) (A)
                 (A) (A) (A) (A) (A) (A) (A) (A) (A) (A) (A) (A)
                 (A) (A) (A) (A) (A) (A) (A) (A) (A) (A) (A) (A)
                 (A) (A) (A) (A) (A) (A) (A) (A) (A) (A) (A) (A)
                 (A) (A) (A) (A) (A) (A) (A) (A) (A) (A) (A) (A)
                 (A) (A) (A) (A) (A) (A) (A) (A) (A) (A) (A) (A)
                 (A) (A) (A) (A) (A) (A) (A) (A) (A) (A) (A) (A)
                 (A) (A) (A) (A) (A) (A) (A) (A) (A) (A) (A) (A)
                 (A) (A) (A) (A) (A) (A) (A) (A) (A) (A) (A) (A)
                 (A) (A) (A) (A) (A) (A) (A) (A) (A) (A) (A) (A)
                 (A) (A) (A) (A) (A) (A) (A) (A) (A) (A) (A) (A)
                 (A) (A) (A) (A) (A) (A) (A) (A) (A) (A) (A) (A)
                 (A) (A) (A) (A) (A) (A) (A) (A) (A) (A) (A) (A)
                 (A) (A) (A) (A) (A) (A) (A) (A) (A) (A) (A) (A)
                 (A) (A) (A) (A) (A) (A) (A) (A) (A) (A) (A) (A)
                 (A) (A) (A) (A) (A) (A) (A) (A) (A) (A) (A) (A)
                 (A) (A) (A) (A) (A) (A) (A) (A) (A) (A) (A) (A)
                 (A) (A) (A) (A) (A) (A) (A) (A) (A) (A) (A) (A)
                 (A) (A) (A) (A) (A) (A) (A) (A) (A) (A) (A) (A)
                 (A) (A) (A) (A) (A) (A) (A) (A) (A) (A) (A) (A)
                 (A) (A) (A) (A) (A) (A) (A) (A) (A) (A) (A) (A)
                 (A) (A) (A) (A) (A) (A) (A) (A) (A) (A) (A) (A)
                 (A) (A) (A) (A) (A) (A) (A) (A) (A) (A) (A) (A)
                 (A) (A) (A) (A) (A) (A) (A) (A) (A) (A) (A) (A)
                 (A) (A) (A) (A) (A) (A) (A) (A) (A) (A) (A) (A)
                 (A) (A) (A) (A) (A) (A) (A) (A) (A) (A) (A) (A)
                 (A) (A) (A) (A) (A) (A) (A) (A) (A) (A) (A) (A)
                 (A) (A) (A) (A) (A) (A) (A) (A) (A) (A) (A) (A)
                 (A) (A) (A) (A) (A) (A) (A) (A) (A) (A) (A) (A)
                 (A) (A) (A) (A) (A) (A) (A) (A) (A) (A) (A) (A)
                 (A) (A) (A) (A) (A) (A) (A) (A) (A) (A) (A) (A)
                 (A) (A) (A) (A) (A) (A) (A) (A) (A) (A) (A) (A)
                 (A) (A) (A) (A) (A) (A) (A) (A) (A) (A) (A) (A)
                 (A) (A) (A) (A) (A) (A)
 The electronic state is 2-A.
 Alpha  occ. eigenvalues --  -18.94685 -18.94625 -18.94568 -18.94562 -14.22316
 Alpha  occ. eigenvalues --  -14.22106 -10.11800 -10.11746 -10.11678 -10.11674
 Alpha  occ. eigenvalues --  -10.11414 -10.11323 -10.09927 -10.09893 -10.09794
 Alpha  occ. eigenvalues --  -10.09788 -10.07910 -10.07829 -10.06812 -10.06806
 Alpha  occ. eigenvalues --  -10.06767 -10.06767 -10.06735 -10.06722 -10.06684
 Alpha  occ. eigenvalues --  -10.06674 -10.06628 -10.06485 -10.06407 -10.06402
 Alpha  occ. eigenvalues --  -10.06364 -10.06310 -10.06292 -10.06292 -10.06083
 Alpha  occ. eigenvalues --  -10.05989 -10.05936 -10.05929 -10.05412 -10.05402
 Alpha  occ. eigenvalues --  -10.05348 -10.05346  -1.13878  -1.13818  -1.13769
 Alpha  occ. eigenvalues --   -1.13764  -1.07836  -1.07680  -0.97567  -0.96001
 Alpha  occ. eigenvalues --   -0.95744  -0.95639  -0.94375  -0.93724  -0.89111
 Alpha  occ. eigenvalues --   -0.86665  -0.86398  -0.86123  -0.85546  -0.85424
 Alpha  occ. eigenvalues --   -0.85281  -0.85132  -0.84924  -0.84778  -0.82365
 Alpha  occ. eigenvalues --   -0.80685  -0.76308  -0.75403  -0.74723  -0.74414
 Alpha  occ. eigenvalues --   -0.73652  -0.73435  -0.73067  -0.72511  -0.71475
 Alpha  occ. eigenvalues --   -0.71234  -0.69602  -0.68974  -0.66939  -0.66619
 Alpha  occ. eigenvalues --   -0.66465  -0.66408  -0.66027  -0.65806  -0.65078
 Alpha  occ. eigenvalues --   -0.64566  -0.63067  -0.60868  -0.60568  -0.59631
 Alpha  occ. eigenvalues --   -0.59099  -0.58884  -0.57626  -0.57093  -0.56889
 Alpha  occ. eigenvalues --   -0.56448  -0.56372  -0.56322  -0.56130  -0.55227
 Alpha  occ. eigenvalues --   -0.54811  -0.54755  -0.54590  -0.54482  -0.54447
 Alpha  occ. eigenvalues --   -0.54290  -0.53890  -0.53361  -0.53251  -0.53202
 Alpha  occ. eigenvalues --   -0.53122  -0.52701  -0.52409  -0.52285  -0.51796
 Alpha  occ. eigenvalues --   -0.51457  -0.50614  -0.50119  -0.49675  -0.49443
 Alpha  occ. eigenvalues --   -0.48470  -0.48275  -0.48212  -0.47989  -0.47355
 Alpha  occ. eigenvalues --   -0.47263  -0.46984  -0.46425  -0.46253  -0.46224
 Alpha  occ. eigenvalues --   -0.46222  -0.44758  -0.42999  -0.40666  -0.40566
 Alpha  occ. eigenvalues --   -0.40173  -0.39717  -0.39603  -0.39465  -0.39223
 Alpha  occ. eigenvalues --   -0.37669  -0.36894  -0.36834  -0.33015  -0.31905
 Alpha virt. eigenvalues --   -0.10425  -0.08939  -0.08748  -0.06999  -0.06931
 Alpha virt. eigenvalues --   -0.06901  -0.06594  -0.06556  -0.06452  -0.06372
 Alpha virt. eigenvalues --   -0.03695  -0.02451  -0.00586  -0.00460  -0.00399
 Alpha virt. eigenvalues --   -0.00349   0.00257   0.00727   0.01683   0.01894
 Alpha virt. eigenvalues --    0.02027   0.02113   0.02522   0.03783   0.03855
 Alpha virt. eigenvalues --    0.04145   0.04307   0.04417   0.04760   0.05261
 Alpha virt. eigenvalues --    0.05622   0.06008   0.06253   0.07220   0.07500
 Alpha virt. eigenvalues --    0.07579   0.07726   0.07784   0.07894   0.08045
 Alpha virt. eigenvalues --    0.08133   0.08285   0.08370   0.08676   0.09609
 Alpha virt. eigenvalues --    0.09760   0.09843   0.10318   0.11312   0.11607
 Alpha virt. eigenvalues --    0.11743   0.11858   0.12039   0.12750   0.13133
 Alpha virt. eigenvalues --    0.13545   0.13649   0.13902   0.14204   0.14869
 Alpha virt. eigenvalues --    0.15206   0.15738   0.15946   0.16085   0.16233
 Alpha virt. eigenvalues --    0.16375   0.16951   0.17234   0.17325   0.17349
 Alpha virt. eigenvalues --    0.17561   0.17596   0.17695   0.18034   0.18156
 Alpha virt. eigenvalues --    0.18450   0.18500   0.19129   0.19432   0.19556
 Alpha virt. eigenvalues --    0.19670   0.19955   0.20034   0.20193   0.20554
 Alpha virt. eigenvalues --    0.20664   0.21004   0.21055   0.21230   0.21488
 Alpha virt. eigenvalues --    0.22149   0.22670   0.22877   0.22993   0.23356
 Alpha virt. eigenvalues --    0.23420   0.23685   0.23806   0.23863   0.24067
 Alpha virt. eigenvalues --    0.24254   0.24415   0.24684   0.25012   0.25284
 Alpha virt. eigenvalues --    0.25400   0.25655   0.26220   0.26562   0.26627
 Alpha virt. eigenvalues --    0.26747   0.27015   0.27129   0.27580   0.28089
 Alpha virt. eigenvalues --    0.28365   0.28601   0.28680   0.29230   0.29701
 Alpha virt. eigenvalues --    0.29846   0.30027   0.30142   0.30461   0.30756
 Alpha virt. eigenvalues --    0.31152   0.31498   0.31672   0.31790   0.31902
 Alpha virt. eigenvalues --    0.32104   0.32205   0.32386   0.32866   0.32937
 Alpha virt. eigenvalues --    0.33103   0.33304   0.33532   0.33611   0.33803
 Alpha virt. eigenvalues --    0.33895   0.33964   0.34057   0.34102   0.34476
 Alpha virt. eigenvalues --    0.34795   0.34983   0.35052   0.35348   0.35444
 Alpha virt. eigenvalues --    0.35844   0.35882   0.35968   0.36487   0.37159
 Alpha virt. eigenvalues --    0.37615   0.38057   0.38302   0.38420   0.38484
 Alpha virt. eigenvalues --    0.38557   0.38828   0.39198   0.39440   0.39625
 Alpha virt. eigenvalues --    0.39878   0.40439   0.40544   0.40652   0.40746
 Alpha virt. eigenvalues --    0.40983   0.41005   0.41695   0.42092   0.42479
 Alpha virt. eigenvalues --    0.42615   0.42654   0.42861   0.43189   0.43262
 Alpha virt. eigenvalues --    0.43578   0.43794   0.43971   0.44140   0.44284
 Alpha virt. eigenvalues --    0.44590   0.44971   0.45205   0.45488   0.45833
 Alpha virt. eigenvalues --    0.46038   0.46314   0.46616   0.46798   0.47113
 Alpha virt. eigenvalues --    0.48287   0.48447   0.48549   0.48874   0.49303
 Alpha virt. eigenvalues --    0.49674   0.49737   0.49890   0.50218   0.50662
 Alpha virt. eigenvalues --    0.50890   0.51199   0.51620   0.51912   0.52001
 Alpha virt. eigenvalues --    0.52092   0.52126   0.52360   0.52844   0.53194
 Alpha virt. eigenvalues --    0.53488   0.53567   0.54951   0.55262   0.55511
 Alpha virt. eigenvalues --    0.55805   0.56525   0.56717   0.56951   0.58082
 Alpha virt. eigenvalues --    0.58248   0.59230   0.59385   0.60135   0.60620
 Alpha virt. eigenvalues --    0.60909   0.61246   0.61479   0.61617   0.61761
 Alpha virt. eigenvalues --    0.61789   0.62059   0.62467   0.62814   0.62939
 Alpha virt. eigenvalues --    0.63025   0.63540   0.64248   0.64545   0.64695
 Alpha virt. eigenvalues --    0.65238   0.65367   0.65749   0.65823   0.66501
 Alpha virt. eigenvalues --    0.67328   0.67448   0.67823   0.68156   0.68808
 Alpha virt. eigenvalues --    0.69249   0.69967   0.70470   0.70532   0.70701
 Alpha virt. eigenvalues --    0.71005   0.71943   0.72550   0.73849   0.73972
 Alpha virt. eigenvalues --    0.74353   0.75106   0.75369   0.75771   0.76402
 Alpha virt. eigenvalues --    0.77202   0.78089   0.78794   0.79188   0.79469
 Alpha virt. eigenvalues --    0.79783   0.79852   0.80376   0.81900   0.82654
 Alpha virt. eigenvalues --    0.82839   0.83572   0.83692   0.85831   0.87235
 Alpha virt. eigenvalues --    0.87335   0.87495   0.89536   0.89645   1.05735
 Alpha virt. eigenvalues --    1.08147   1.08795   1.09249   1.09346   1.13987
 Alpha virt. eigenvalues --    1.14130   1.14288   1.14692   1.15264   1.15303
 Alpha virt. eigenvalues --    1.15571   1.15836   1.16212   1.16539   1.16909
 Alpha virt. eigenvalues --    1.17047   1.17178   1.17329   1.17410   1.17819
 Alpha virt. eigenvalues --    1.17948   1.18076   1.19072   1.19219   1.19472
 Alpha virt. eigenvalues --    1.20089   1.20728   1.21009   1.21557   1.21576
 Alpha virt. eigenvalues --    1.21675   1.22003   1.22051   1.22819   1.23477
 Alpha virt. eigenvalues --    1.23737   1.24592   1.24963   1.25022   1.25141
 Alpha virt. eigenvalues --    1.25259   1.25279   1.25537   1.25743   1.26275
 Alpha virt. eigenvalues --    1.26524   1.26583   1.26856   1.27688   1.27750
 Alpha virt. eigenvalues --    1.27904   1.28039   1.28290   1.30373   1.30422
 Alpha virt. eigenvalues --    1.31058   1.31372   1.32757   1.33472   1.33551
 Alpha virt. eigenvalues --    1.33683   1.33730   1.33825   1.33908   1.34115
 Alpha virt. eigenvalues --    1.34174   1.34490   1.34824   1.34925   1.35089
 Alpha virt. eigenvalues --    1.35163   1.35241   1.36027   1.36624   1.36811
 Alpha virt. eigenvalues --    1.36948   1.37060   1.37219   1.37439   1.37650
 Alpha virt. eigenvalues --    1.37775   1.37816   1.38035   1.38327   1.38660
 Alpha virt. eigenvalues --    1.38794   1.38850   1.39193   1.39572   1.39694
 Alpha virt. eigenvalues --    1.39773   1.39955   1.40140   1.40384   1.40822
 Alpha virt. eigenvalues --    1.41017   1.41251   1.42064   1.42769   1.42822
 Alpha virt. eigenvalues --    1.43470   1.43909   1.44068   1.44120   1.44591
 Alpha virt. eigenvalues --    1.44675   1.45030   1.45090   1.45145   1.45236
 Alpha virt. eigenvalues --    1.45419   1.45554   1.45747   1.45805   1.45961
 Alpha virt. eigenvalues --    1.46234   1.46457   1.46618   1.46718   1.47265
 Alpha virt. eigenvalues --    1.47490   1.47875   1.47970   1.48028   1.48452
 Alpha virt. eigenvalues --    1.48728   1.48822   1.49362   1.49713   1.49918
 Alpha virt. eigenvalues --    1.50389   1.50509   1.50647   1.51760   1.52148
 Alpha virt. eigenvalues --    1.52392   1.52591   1.53203   1.54023   1.54491
 Alpha virt. eigenvalues --    1.55972   1.56023   1.57581   1.57792   1.58563
 Alpha virt. eigenvalues --    1.58779   1.59052   1.59262   1.60793   1.61754
 Alpha virt. eigenvalues --    1.62893   1.63424   1.63802   1.64413   1.66034
 Alpha virt. eigenvalues --    1.66303   1.66716   1.67580   1.67691   1.68000
 Alpha virt. eigenvalues --    1.68138   1.68729   1.69075   1.69123   1.69313
 Alpha virt. eigenvalues --    1.69445   1.69594   1.70035   1.70189   1.70437
 Alpha virt. eigenvalues --    1.70531   1.70986   1.71233   1.71417   1.71867
 Alpha virt. eigenvalues --    1.72232   1.72456   1.72791   1.73068   1.73369
 Alpha virt. eigenvalues --    1.73861   1.74165   1.74647   1.75284   1.75815
 Alpha virt. eigenvalues --    1.75932   1.76023   1.77136   1.77254   1.77419
 Alpha virt. eigenvalues --    1.77824   1.78076   1.79164   1.79863   1.80222
 Alpha virt. eigenvalues --    1.80289   1.80487   1.81003   1.81253   1.82115
 Alpha virt. eigenvalues --    1.82375   1.82701   1.82923   1.83045   1.83181
 Alpha virt. eigenvalues --    1.83521   1.83551   1.83741   1.83898   1.84127
 Alpha virt. eigenvalues --    1.84330   1.84395   1.85458   1.85550   1.86240
 Alpha virt. eigenvalues --    1.86900   1.87465   1.87718   1.89407   1.89755
 Alpha virt. eigenvalues --    1.90034   1.90341   1.91064   1.91282   1.91797
 Alpha virt. eigenvalues --    1.92152   1.92226   1.92567   1.92844   1.93165
 Alpha virt. eigenvalues --    1.93468   1.94195   1.94285   1.95402   1.95751
 Alpha virt. eigenvalues --    1.96211   1.97908   1.98407   1.98657   1.99085
 Alpha virt. eigenvalues --    1.99703   1.99894   2.00184   2.00252   2.01140
 Alpha virt. eigenvalues --    2.01681   2.04502   2.06311   2.06367   2.07190
 Alpha virt. eigenvalues --    2.08537   2.09097   2.09180   2.09505   2.09738
 Alpha virt. eigenvalues --    2.11111   2.11385   2.11713   2.11997   2.12036
 Alpha virt. eigenvalues --    2.13104   2.13721   2.14480   2.14962   2.15186
 Alpha virt. eigenvalues --    2.15539   2.16470   2.17230   2.19631   2.19640
 Alpha virt. eigenvalues --    2.19935   2.20299   2.20634   2.20900   2.21095
 Alpha virt. eigenvalues --    2.21111   2.21248   2.21518   2.21759   2.22259
 Alpha virt. eigenvalues --    2.22594   2.22673   2.22833   2.22958   2.23220
 Alpha virt. eigenvalues --    2.23943   2.24359   2.24404   2.24767   2.25131
 Alpha virt. eigenvalues --    2.25382   2.25546   2.26343   2.26621   2.26865
 Alpha virt. eigenvalues --    2.27083   2.27220   2.27351   2.27476   2.27692
 Alpha virt. eigenvalues --    2.27780   2.28143   2.28562   2.28645   2.29264
 Alpha virt. eigenvalues --    2.29299   2.29343   2.29504   2.30601   2.32873
 Alpha virt. eigenvalues --    2.33479   2.33526   2.35782   2.37050   2.37100
 Alpha virt. eigenvalues --    2.37254   2.37416   2.37539   2.38786   2.39419
 Alpha virt. eigenvalues --    2.43020   2.43230   2.43273   2.43975   2.45318
 Alpha virt. eigenvalues --    2.46644   2.46882   2.47137   2.47385   2.48229
 Alpha virt. eigenvalues --    2.48538   2.48788   2.49138   2.49433   2.50475
 Alpha virt. eigenvalues --    2.50715   2.50821   2.51062   2.51446   2.51543
 Alpha virt. eigenvalues --    2.51965   2.52132   2.53864   2.54279   2.54337
 Alpha virt. eigenvalues --    2.54430   2.54723   2.54809   2.54855   2.55185
 Alpha virt. eigenvalues --    2.55784   2.56983   2.57546   2.58720   2.60051
 Alpha virt. eigenvalues --    2.60205   2.61085   2.61491   2.63014   2.63671
 Alpha virt. eigenvalues --    2.63807   2.64115   2.64476   2.64726   2.65089
 Alpha virt. eigenvalues --    2.65807   2.66245   2.67798   2.68109   2.68624
 Alpha virt. eigenvalues --    2.68794   2.70067   2.72017   2.72623   2.73022
 Alpha virt. eigenvalues --    2.73196   2.74608   2.74997   2.75206   2.75713
 Alpha virt. eigenvalues --    2.75802   2.75981   2.77366   2.78266   2.82525
 Alpha virt. eigenvalues --    2.82975   2.83089   2.83171   2.83379   2.83653
 Alpha virt. eigenvalues --    2.83677   2.83794   2.85480   2.85513   2.86241
 Alpha virt. eigenvalues --    2.86768   2.88449   2.88505   2.88550   2.88578
 Alpha virt. eigenvalues --    2.89842   2.89996   2.90319   2.90582   2.93052
 Alpha virt. eigenvalues --    2.93442   2.94001   2.94176   2.94322   2.94573
 Alpha virt. eigenvalues --    2.94832   2.95327   2.96363   2.96812   2.97470
 Alpha virt. eigenvalues --    2.98250   2.98261   2.98346   2.99739   3.01869
 Alpha virt. eigenvalues --    3.02592   3.02845   3.02942   3.03237   3.04168
 Alpha virt. eigenvalues --    3.04352   3.04454   3.04520   3.07029   3.07350
 Alpha virt. eigenvalues --    3.07556   3.08124   3.08372   3.09512   3.11636
 Alpha virt. eigenvalues --    3.12346   3.12715   3.13016   3.13235   3.14037
 Alpha virt. eigenvalues --    3.14249   3.14511   3.14643   3.15193   3.15528
 Alpha virt. eigenvalues --    3.16337   3.18116   3.18544   3.19302   3.20717
 Alpha virt. eigenvalues --    3.20824   3.22028   3.23004   3.24775   3.25400
 Alpha virt. eigenvalues --    3.26070   3.26572   3.27283   3.28244   3.28368
 Alpha virt. eigenvalues --    3.29874   3.30531   3.31072   3.33704   3.34130
 Alpha virt. eigenvalues --    3.41547   3.41866   3.42699   3.44623   3.45690
 Alpha virt. eigenvalues --    3.45979   3.46672   3.47082   3.47314   3.49011
 Alpha virt. eigenvalues --    3.58341   3.61468   3.71849   3.71992   3.74817
 Alpha virt. eigenvalues --    3.79147   3.95199   3.95322   3.95961   3.96017
 Alpha virt. eigenvalues --    4.20038   4.20118   4.20121   4.20190  21.02908
 Alpha virt. eigenvalues --   21.12192  21.12285  21.13742  21.14103  21.23585
 Alpha virt. eigenvalues --   21.54968  21.56288  21.56399  21.59422  21.59714
 Alpha virt. eigenvalues --   21.59930  21.62011  21.63918  21.66392  21.71105
 Alpha virt. eigenvalues --   21.71623  21.77343  21.77651  21.81372  21.82249
 Alpha virt. eigenvalues --   21.82990  21.83761  21.84429  21.85059  21.86575
 Alpha virt. eigenvalues --   21.88896  21.89120  21.89355  21.90488  21.95087
 Alpha virt. eigenvalues --   21.96035  22.00555  22.01652  22.03279  22.03873
 Alpha virt. eigenvalues --   31.89771  31.90810  43.12543  43.12606  43.12709
 Alpha virt. eigenvalues --   43.12821
  Beta  occ. eigenvalues --  -18.94639 -18.94579 -18.94525 -18.94519 -14.21933
  Beta  occ. eigenvalues --  -14.21739 -10.11739 -10.11685 -10.11621 -10.11617
  Beta  occ. eigenvalues --  -10.11390 -10.11298 -10.09941 -10.09907 -10.09808
  Beta  occ. eigenvalues --  -10.09802 -10.07830 -10.07752 -10.06786 -10.06783
  Beta  occ. eigenvalues --  -10.06738 -10.06731 -10.06725 -10.06712 -10.06638
  Beta  occ. eigenvalues --  -10.06628 -10.06571 -10.06429 -10.06354 -10.06349
  Beta  occ. eigenvalues --  -10.06311 -10.06260 -10.06242 -10.06242 -10.06097
  Beta  occ. eigenvalues --  -10.05999 -10.05946 -10.05939 -10.05424 -10.05417
  Beta  occ. eigenvalues --  -10.05363 -10.05360  -1.13796  -1.13734  -1.13691
  Beta  occ. eigenvalues --   -1.13686  -1.07362  -1.07226  -0.97414  -0.95870
  Beta  occ. eigenvalues --   -0.95655  -0.95555  -0.94252  -0.93580  -0.88928
  Beta  occ. eigenvalues --   -0.86584  -0.86313  -0.86027  -0.85477  -0.85364
  Beta  occ. eigenvalues --   -0.85224  -0.85063  -0.84847  -0.84681  -0.82190
  Beta  occ. eigenvalues --   -0.80435  -0.76226  -0.75297  -0.74625  -0.74313
  Beta  occ. eigenvalues --   -0.73570  -0.73324  -0.72985  -0.72422  -0.71377
  Beta  occ. eigenvalues --   -0.71126  -0.69523  -0.68894  -0.66867  -0.66549
  Beta  occ. eigenvalues --   -0.66414  -0.66354  -0.65980  -0.65727  -0.64984
  Beta  occ. eigenvalues --   -0.64458  -0.62975  -0.60657  -0.60386  -0.59570
  Beta  occ. eigenvalues --   -0.59045  -0.58831  -0.57484  -0.57006  -0.56818
  Beta  occ. eigenvalues --   -0.56383  -0.56322  -0.56258  -0.56083  -0.55182
  Beta  occ. eigenvalues --   -0.54749  -0.54706  -0.54550  -0.54443  -0.54405
  Beta  occ. eigenvalues --   -0.54245  -0.53821  -0.53190  -0.53052  -0.53010
  Beta  occ. eigenvalues --   -0.52946  -0.52588  -0.52288  -0.52106  -0.51590
  Beta  occ. eigenvalues --   -0.51204  -0.50397  -0.49983  -0.49617  -0.49387
  Beta  occ. eigenvalues --   -0.48242  -0.48151  -0.48106  -0.47735  -0.47133
  Beta  occ. eigenvalues --   -0.47052  -0.46837  -0.46369  -0.46200  -0.46184
  Beta  occ. eigenvalues --   -0.46178  -0.44451  -0.42297  -0.40513  -0.40417
  Beta  occ. eigenvalues --   -0.39619  -0.39555  -0.39477  -0.39323  -0.38894
  Beta  occ. eigenvalues --   -0.36694  -0.36438  -0.36391  -0.29857
  Beta virt. eigenvalues --   -0.22162  -0.10048  -0.08735  -0.08547  -0.06758
  Beta virt. eigenvalues --   -0.06706  -0.06614  -0.06346  -0.06258  -0.06247
  Beta virt. eigenvalues --   -0.05995  -0.03249  -0.01960  -0.00567  -0.00442
  Beta virt. eigenvalues --   -0.00384  -0.00334   0.00292   0.00770   0.01717
  Beta virt. eigenvalues --    0.01934   0.02064   0.02159   0.02551   0.03823
  Beta virt. eigenvalues --    0.03891   0.04180   0.04332   0.04453   0.04801
  Beta virt. eigenvalues --    0.05311   0.05798   0.06043   0.06290   0.07291
  Beta virt. eigenvalues --    0.07632   0.07756   0.07804   0.07836   0.07933
  Beta virt. eigenvalues --    0.08077   0.08169   0.08326   0.08472   0.08722
  Beta virt. eigenvalues --    0.09775   0.09916   0.10049   0.10438   0.11384
  Beta virt. eigenvalues --    0.11717   0.11822   0.11945   0.12118   0.12830
  Beta virt. eigenvalues --    0.13212   0.13616   0.13709   0.13962   0.14267
  Beta virt. eigenvalues --    0.14928   0.15277   0.15804   0.16005   0.16136
  Beta virt. eigenvalues --    0.16311   0.16450   0.17031   0.17277   0.17375
  Beta virt. eigenvalues --    0.17443   0.17648   0.17678   0.17773   0.18100
  Beta virt. eigenvalues --    0.18209   0.18508   0.18565   0.19200   0.19489
  Beta virt. eigenvalues --    0.19619   0.19727   0.20005   0.20086   0.20228
  Beta virt. eigenvalues --    0.20592   0.20727   0.21050   0.21111   0.21302
  Beta virt. eigenvalues --    0.21542   0.22180   0.22759   0.22940   0.23089
  Beta virt. eigenvalues --    0.23430   0.23487   0.23760   0.23853   0.23925
  Beta virt. eigenvalues --    0.24140   0.24319   0.24481   0.24737   0.25102
  Beta virt. eigenvalues --    0.25366   0.25475   0.25731   0.26317   0.26671
  Beta virt. eigenvalues --    0.26727   0.26805   0.27075   0.27192   0.27635
  Beta virt. eigenvalues --    0.28138   0.28417   0.28657   0.28751   0.29289
  Beta virt. eigenvalues --    0.29774   0.29915   0.30093   0.30219   0.30542
  Beta virt. eigenvalues --    0.30832   0.31220   0.31573   0.31776   0.31873
  Beta virt. eigenvalues --    0.31971   0.32173   0.32285   0.32445   0.32919
  Beta virt. eigenvalues --    0.32992   0.33165   0.33365   0.33611   0.33682
  Beta virt. eigenvalues --    0.33879   0.33964   0.34054   0.34143   0.34181
  Beta virt. eigenvalues --    0.34553   0.34886   0.35075   0.35114   0.35409
  Beta virt. eigenvalues --    0.35521   0.35917   0.35955   0.36047   0.36563
  Beta virt. eigenvalues --    0.37289   0.37652   0.38085   0.38345   0.38472
  Beta virt. eigenvalues --    0.38531   0.38608   0.38893   0.39259   0.39476
  Beta virt. eigenvalues --    0.39694   0.39923   0.40512   0.40586   0.40704
  Beta virt. eigenvalues --    0.40808   0.41023   0.41050   0.41766   0.42161
  Beta virt. eigenvalues --    0.42545   0.42665   0.42711   0.42919   0.43254
  Beta virt. eigenvalues --    0.43319   0.43638   0.43841   0.44017   0.44193
  Beta virt. eigenvalues --    0.44333   0.44645   0.45019   0.45269   0.45567
  Beta virt. eigenvalues --    0.45906   0.46118   0.46369   0.46692   0.46863
  Beta virt. eigenvalues --    0.47164   0.48370   0.48515   0.48613   0.48943
  Beta virt. eigenvalues --    0.49371   0.49770   0.49804   0.49954   0.50275
  Beta virt. eigenvalues --    0.50743   0.50978   0.51255   0.51709   0.51987
  Beta virt. eigenvalues --    0.52075   0.52182   0.52219   0.52434   0.52884
  Beta virt. eigenvalues --    0.53229   0.53533   0.53620   0.55010   0.55318
[...]
     5 C(13)  Bbb    -0.0321    -4.308    -1.537    -1.437  1.0000 -0.0019  0.0027
              Bcc     0.0689     9.246     3.299     3.084 -0.0024  0.1404  0.9901
 
              Baa    -0.0062    -0.833    -0.297    -0.278 -0.1879 -0.6474  0.7386
     6 C(13)  Bbb    -0.0032    -0.425    -0.152    -0.142  0.9289 -0.3614 -0.0804
              Bcc     0.0094     1.258     0.449     0.420  0.3190  0.6710  0.6693
 
              Baa    -0.0020    -1.055    -0.376    -0.352 -0.0948  0.2546  0.9624
     7 H(1)   Bbb     0.0001     0.032     0.012     0.011  0.9932 -0.0422  0.1089
              Bcc     0.0019     1.022     0.365     0.341  0.0683  0.9661 -0.2489
 
              Baa    -0.0025    -1.315    -0.469    -0.439  0.1503  0.3217  0.9348
     8 H(1)   Bbb    -0.0013    -0.678    -0.242    -0.226  0.9763 -0.1973 -0.0891
              Bcc     0.0037     1.993     0.711     0.665  0.1558  0.9261 -0.3437
 
              Baa    -0.0020    -1.057    -0.377    -0.353  0.0937  0.2548  0.9624
     9 H(1)   Bbb     0.0001     0.039     0.014     0.013  0.9935  0.0381 -0.1068
              Bcc     0.0019     1.018     0.363     0.340 -0.0639  0.9662 -0.2496
 
              Baa    -0.0379    -5.092    -1.817    -1.698  0.0035  0.9874  0.1579
    10 C(13)  Bbb    -0.0332    -4.458    -1.591    -1.487  1.0000 -0.0039  0.0017
              Bcc     0.0712     9.550     3.408     3.185 -0.0023 -0.1579  0.9874
 
              Baa    -0.0062    -0.826    -0.295    -0.276 -0.1662  0.6281  0.7602
    11 C(13)  Bbb    -0.0028    -0.378    -0.135    -0.126  0.9358  0.3436 -0.0793
              Bcc     0.0090     1.204     0.430     0.402 -0.3110  0.6982 -0.6448
 
              Baa    -0.0060    -0.802    -0.286    -0.267  0.2032  0.5701  0.7960
    12 C(13)  Bbb    -0.0023    -0.314    -0.112    -0.105  0.9114 -0.4072  0.0590
              Bcc     0.0083     1.116     0.398     0.372  0.3578  0.7135 -0.6024
 
              Baa    -0.0239    -3.211    -1.146    -1.071 -0.5304  0.6774  0.5097
    13 C(13)  Bbb    -0.0208    -2.786    -0.994    -0.929  0.8474  0.4065  0.3416
              Bcc     0.0447     5.997     2.140     2.000 -0.0241 -0.6131  0.7896
 
              Baa    -0.0241    -3.236    -1.155    -1.079  0.5317  0.6779  0.5077
    14 C(13)  Bbb    -0.0209    -2.810    -1.003    -0.937  0.8467 -0.4117 -0.3370
              Bcc     0.0451     6.046     2.158     2.017  0.0195 -0.6091  0.7929
 
              Baa    -0.0223    -2.989    -1.067    -0.997  0.0060  0.9923  0.1238
    15 C(13)  Bbb    -0.0118    -1.588    -0.567    -0.530  0.9998 -0.0037 -0.0194
              Bcc     0.0341     4.577     1.633     1.527  0.0188 -0.1239  0.9921
 
              Baa    -0.0020    -1.065    -0.380    -0.355  0.0929 -0.2738  0.9573
    16 H(1)   Bbb     0.0001     0.045     0.016     0.015  0.9932 -0.0426 -0.1086
              Bcc     0.0019     1.020     0.364     0.340  0.0706  0.9608  0.2680
 
              Baa    -0.0020    -1.065    -0.380    -0.355 -0.0902 -0.2725  0.9579
    17 H(1)   Bbb     0.0001     0.072     0.026     0.024  0.9947  0.0232  0.1003
              Bcc     0.0019     0.993     0.354     0.331 -0.0495  0.9619  0.2690
 
              Baa    -0.0025    -1.353    -0.483    -0.451  0.1534 -0.3324  0.9306
    18 H(1)   Bbb    -0.0013    -0.698    -0.249    -0.233  0.9756  0.2005 -0.0892
              Bcc     0.0038     2.052     0.732     0.684 -0.1570  0.9216  0.3551
 
              Baa    -0.0025    -1.341    -0.478    -0.447 -0.1433 -0.3367  0.9307
    19 H(1)   Bbb    -0.0013    -0.716    -0.256    -0.239  0.9784 -0.1901  0.0818
              Bcc     0.0039     2.057     0.734     0.686  0.1493  0.9222  0.3566
 
              Baa    -0.0025    -1.315    -0.469    -0.439 -0.1545  0.3215  0.9342
    20 H(1)   Bbb    -0.0013    -0.680    -0.243    -0.227  0.9756  0.1991  0.0928
              Bcc     0.0037     1.995     0.712     0.665 -0.1562  0.9257 -0.3444
 
              Baa    -0.2414    -9.310    -3.322    -3.105  0.0657  0.9636 -0.2591
    21 N(14)  Bbb    -0.2408    -9.285    -3.313    -3.097  0.9978 -0.0645  0.0130
              Bcc     0.4821    18.595     6.635     6.203  0.0042  0.2594  0.9658
 
              Baa    -0.0086    -1.155    -0.412    -0.385  0.7883 -0.5855  0.1889
    22 C(13)  Bbb     0.0018     0.244     0.087     0.081  0.3799  0.7048  0.5991
              Bcc     0.0068     0.912     0.325     0.304 -0.4840 -0.4005  0.7781
 
              Baa    -0.0218    -2.923    -1.043    -0.975  0.0917 -0.5618  0.8222
    23 C(13)  Bbb    -0.0186    -2.501    -0.892    -0.834  0.5675  0.7080  0.4204
              Bcc     0.0404     5.424     1.935     1.809  0.8183 -0.4280 -0.3837
 
              Baa    -0.0247    -3.310    -1.181    -1.104  0.6850  0.4691  0.5574
    24 C(13)  Bbb    -0.0217    -2.912    -1.039    -0.971 -0.2340 -0.5829  0.7781
              Bcc     0.0464     6.222     2.220     2.076  0.6900 -0.6634 -0.2895
 
              Baa    -0.0088    -1.186    -0.423    -0.396 -0.4303  0.6545  0.6217
    25 C(13)  Bbb     0.0033     0.438     0.156     0.146  0.5744 -0.3327  0.7479
              Bcc     0.0056     0.748     0.267     0.250  0.6963  0.6789 -0.2328
 
              Baa    -0.0102    -1.375    -0.490    -0.459 -0.6019  0.4122  0.6840
    26 C(13)  Bbb     0.0039     0.523     0.186     0.174  0.6811 -0.1823  0.7092
              Bcc     0.0063     0.852     0.304     0.284  0.4170  0.8927 -0.1710
 
              Baa    -0.0273    -3.657    -1.305    -1.220  0.6370 -0.2403  0.7325
    27 C(13)  Bbb    -0.0244    -3.270    -1.167    -1.091  0.5437  0.8136 -0.2060
              Bcc     0.0516     6.927     2.472     2.311 -0.5464  0.5295  0.6489
 
              Baa    -0.0021    -1.108    -0.395    -0.370 -0.4549  0.6543  0.6041
    28 H(1)   Bbb    -0.0009    -0.457    -0.163    -0.152  0.6084  0.7237 -0.3258
              Bcc     0.0029     1.565     0.558     0.522  0.6504 -0.2193  0.7273
 
              Baa    -0.0021    -1.139    -0.406    -0.380 -0.5855  0.5330  0.6108
    29 H(1)   Bbb    -0.0007    -0.383    -0.137    -0.128  0.3907  0.8457 -0.3635
              Bcc     0.0029     1.522     0.543     0.508  0.7103 -0.0258  0.7034
 
              Baa    -0.0011    -0.609    -0.217    -0.203  0.6246 -0.5720 -0.5317
    30 H(1)   Bbb     0.0004     0.198     0.070     0.066  0.2376  0.7878 -0.5683
              Bcc     0.0008     0.412     0.147     0.137  0.7439  0.2286  0.6279
 
              Baa    -0.0012    -0.631    -0.225    -0.211  0.6254 -0.5792 -0.5228
    31 H(1)   Bbb     0.0005     0.269     0.096     0.090  0.7103  0.1454  0.6887
              Bcc     0.0007     0.362     0.129     0.121  0.3229  0.8021 -0.5024
 
              Baa    -0.0086    -1.155    -0.412    -0.385  0.8004  0.5651 -0.1999
    32 C(13)  Bbb     0.0028     0.382     0.136     0.127 -0.3559  0.7163  0.6002
              Bcc     0.0058     0.774     0.276     0.258  0.4824 -0.4093  0.7745
 
              Baa    -0.0242    -3.245    -1.158    -1.082 -0.0905 -0.5745  0.8135
    33 C(13)  Bbb    -0.0210    -2.816    -1.005    -0.939 -0.5828  0.6929  0.4245
              Bcc     0.0452     6.061     2.163     2.022  0.8075  0.4357  0.3975
 
              Baa    -0.0226    -3.031    -1.082    -1.011  0.6799 -0.4670 -0.5653
    34 C(13)  Bbb    -0.0197    -2.646    -0.944    -0.883  0.2457 -0.5813  0.7757
              Bcc     0.0423     5.678     2.026     1.894  0.6909  0.6663  0.2805
 
              Baa    -0.0074    -0.988    -0.353    -0.330  0.3951  0.6695  0.6290
    35 C(13)  Bbb     0.0024     0.323     0.115     0.108 -0.6001 -0.3303  0.7285
              Bcc     0.0050     0.665     0.237     0.222  0.6955 -0.6653  0.2713
 
              Baa    -0.0116    -1.554    -0.555    -0.518  0.6019  0.4217  0.6781
    36 C(13)  Bbb     0.0047     0.628     0.224     0.210 -0.6866 -0.1603  0.7091
              Bcc     0.0069     0.926     0.330     0.309 -0.4078  0.8925 -0.1930
 
              Baa    -0.0275    -3.693    -1.318    -1.232 -0.6761 -0.1818  0.7141
    37 C(13)  Bbb    -0.0246    -3.304    -1.179    -1.102 -0.4918  0.8330 -0.2535
              Bcc     0.0521     6.997     2.497     2.334  0.5487  0.5225  0.6526
 
              Baa    -0.0021    -1.141    -0.407    -0.381  0.4076  0.6921  0.5957
    38 H(1)   Bbb    -0.0010    -0.525    -0.187    -0.175  0.6831 -0.6640  0.3039
              Bcc     0.0031     1.666     0.595     0.556 -0.6059 -0.2831  0.7434
 
              Baa    -0.0021    -1.132    -0.404    -0.378  0.5799  0.5420  0.6082
    39 H(1)   Bbb    -0.0005    -0.291    -0.104    -0.097 -0.4432  0.8363 -0.3227
              Bcc     0.0027     1.423     0.508     0.475 -0.6836 -0.0824  0.7252
 
              Baa    -0.0012    -0.622    -0.222    -0.207  0.6106  0.5859  0.5328
    40 H(1)   Bbb     0.0003     0.151     0.054     0.050 -0.1910  0.7619 -0.6189
              Bcc     0.0009     0.471     0.168     0.157  0.7686 -0.2762 -0.5771
 
              Baa    -0.0012    -0.632    -0.225    -0.211  0.6209  0.5929  0.5128
    41 H(1)   Bbb     0.0005     0.275     0.098     0.092 -0.3391 -0.3866  0.8576
              Bcc     0.0007     0.356     0.127     0.119  0.7067 -0.7064 -0.0391
 
              Baa    -0.2319    -8.945    -3.192    -2.984 -0.0023  0.9653  0.2612
    42 N(14)  Bbb    -0.2312    -8.916    -3.182    -2.974  1.0000  0.0016  0.0027
              Bcc     0.4631    17.861     6.373     5.958 -0.0022 -0.2612  0.9653
 
              Baa    -0.0083    -1.118    -0.399    -0.373  0.7865 -0.5928 -0.1733
    43 C(13)  Bbb     0.0022     0.297     0.106     0.099  0.3561  0.6646 -0.6569
              Bcc     0.0061     0.821     0.293     0.274  0.5046  0.4549  0.7338
 
              Baa    -0.0229    -3.078    -1.098    -1.027 -0.0968  0.5581  0.8241
    44 C(13)  Bbb    -0.0198    -2.656    -0.948    -0.886  0.5768  0.7063 -0.4105
              Bcc     0.0427     5.734     2.046     1.913  0.8112 -0.4356  0.3902
 
              Baa    -0.0215    -2.879    -1.027    -0.960  0.6747  0.4765 -0.5637
    45 C(13)  Bbb    -0.0187    -2.503    -0.893    -0.835  0.2543  0.5669  0.7835
              Bcc     0.0401     5.382     1.920     1.795  0.6929 -0.6720  0.2613
 
              Baa    -0.0073    -0.980    -0.350    -0.327 -0.4112  0.6731 -0.6147
    46 C(13)  Bbb     0.0024     0.325     0.116     0.108 -0.5961  0.3117  0.7400
              Bcc     0.0049     0.655     0.234     0.218  0.6897  0.6707  0.2731
 
              Baa    -0.0110    -1.471    -0.525    -0.491  0.6063 -0.4250  0.6722
    47 C(13)  Bbb     0.0044     0.587     0.209     0.196 -0.6892  0.1410  0.7108
              Bcc     0.0066     0.885     0.316     0.295  0.3969  0.8941  0.2074
 
              Baa    -0.0258    -3.463    -1.236    -1.155 -0.6718  0.1750  0.7197
    48 C(13)  Bbb    -0.0230    -3.093    -1.104    -1.032  0.4944  0.8295  0.2598
              Bcc     0.0489     6.555     2.339     2.187  0.5515 -0.5304  0.6438
 
              Baa    -0.0020    -1.079    -0.385    -0.360 -0.4225  0.6856 -0.5928
    49 H(1)   Bbb    -0.0009    -0.505    -0.180    -0.168  0.6611  0.6806  0.3159
              Bcc     0.0030     1.584     0.565     0.528 -0.6201  0.2584  0.7408
 
              Baa    -0.0020    -1.085    -0.387    -0.362  0.5739 -0.5596  0.5978
    50 H(1)   Bbb    -0.0005    -0.253    -0.090    -0.084  0.4524  0.8252  0.3382
              Bcc     0.0025     1.338     0.477     0.446 -0.6826  0.0764  0.7268
 
              Baa    -0.0011    -0.588    -0.210    -0.196  0.6123 -0.5918  0.5243
    51 H(1)   Bbb     0.0003     0.150     0.053     0.050  0.1515  0.7386  0.6569
              Bcc     0.0008     0.438     0.156     0.146  0.7760  0.3228 -0.5419
 
              Baa    -0.0011    -0.599    -0.214    -0.200  0.6235 -0.5999  0.5014
    52 H(1)   Bbb     0.0005     0.256     0.091     0.085 -0.4137  0.2911  0.8626
              Bcc     0.0006     0.343     0.122     0.114  0.6634  0.7453  0.0667
 
              Baa    -0.0083    -1.117    -0.399    -0.373  0.7852  0.5950  0.1718
    53 C(13)  Bbb     0.0022     0.298     0.106     0.099  0.3516 -0.6566  0.6672
              Bcc     0.0061     0.820     0.292     0.273 -0.5098  0.4635  0.7248
 
              Baa    -0.0230    -3.086    -1.101    -1.029  0.0927  0.5597  0.8235
    54 C(13)  Bbb    -0.0199    -2.664    -0.951    -0.889 -0.5779  0.7037 -0.4132
              Bcc     0.0429     5.750     2.052     1.918  0.8108  0.4376 -0.3887
 
              Baa    -0.0215    -2.885    -1.030    -0.962  0.6738 -0.4746  0.5663
    55 C(13)  Bbb    -0.0187    -2.510    -0.896    -0.837 -0.2569  0.5682  0.7818
              Bcc     0.0402     5.395     1.925     1.800  0.6928  0.6723 -0.2610
 
              Baa    -0.0073    -0.981    -0.350    -0.327  0.4123  0.6722 -0.6149
    56 C(13)  Bbb     0.0024     0.326     0.116     0.109  0.5942  0.3132  0.7408
              Bcc     0.0049     0.655     0.234     0.218  0.6906 -0.6708 -0.2703
 
              Baa    -0.0110    -1.478    -0.527    -0.493 -0.6071 -0.4268  0.6702
    57 C(13)  Bbb     0.0044     0.591     0.211     0.197  0.6855  0.1453  0.7135
              Bcc     0.0066     0.887     0.317     0.296 -0.4019  0.8926  0.2044
 
              Baa    -0.0259    -3.472    -1.239    -1.158  0.6694  0.1771  0.7215
    58 C(13)  Bbb    -0.0231    -3.102    -1.107    -1.035 -0.4968  0.8288  0.2574
              Bcc     0.0490     6.574     2.346     2.193 -0.5524 -0.5308  0.6428
 
              Baa    -0.0020    -1.080    -0.385    -0.360  0.4210  0.6879 -0.5912
    59 H(1)   Bbb    -0.0009    -0.506    -0.181    -0.169 -0.6663  0.6768  0.3130
              Bcc     0.0030     1.586     0.566     0.529  0.6154  0.2622  0.7433
 
              Baa    -0.0020    -1.085    -0.387    -0.362 -0.5758 -0.5596  0.5960
    60 H(1)   Bbb    -0.0005    -0.255    -0.091    -0.085 -0.4535  0.8252  0.3367
              Bcc     0.0025     1.340     0.478     0.447  0.6803  0.0764  0.7290
 
              Baa    -0.0011    -0.589    -0.210    -0.196  0.6126  0.5922 -0.5235
    61 H(1)   Bbb     0.0003     0.150     0.054     0.050 -0.1564  0.7401  0.6541
              Bcc     0.0008     0.438     0.156     0.146  0.7748 -0.3188  0.5460
 
              Baa    -0.0011    -0.600    -0.214    -0.200  0.6237  0.6007 -0.5002
    62 H(1)   Bbb     0.0005     0.255     0.091     0.085  0.4031  0.3012  0.8642
              Bcc     0.0006     0.345     0.123     0.115 -0.6697  0.7406  0.0543
 
              Baa    -0.0413     2.990     1.067     0.997  0.0817  0.6851  0.7238
    63 O(17)  Bbb    -0.0398     2.879     1.027     0.960  0.7912 -0.4862  0.3710
              Bcc     0.0811    -5.869    -2.094    -1.958  0.6061  0.5424 -0.5818
 
              Baa    -0.0021    -1.113    -0.397    -0.371 -0.1222  0.8009  0.5863
    64 H(1)   Bbb    -0.0014    -0.742    -0.265    -0.248  0.6024  0.5293 -0.5975
              Bcc     0.0035     1.856     0.662     0.619  0.7888 -0.2802  0.5471
 
              Baa    -0.0412     2.984     1.065     0.995 -0.0860  0.6830  0.7253
    65 O(17)  Bbb    -0.0397     2.873     1.025     0.958  0.7906  0.4898 -0.3675
              Bcc     0.0809    -5.857    -2.090    -1.954  0.6063 -0.5418  0.5821
 
              Baa    -0.0021    -1.111    -0.397    -0.371  0.1192  0.7997  0.5885
    66 H(1)   Bbb    -0.0014    -0.741    -0.264    -0.247  0.6024 -0.5294  0.5974
              Bcc     0.0035     1.852     0.661     0.618  0.7892  0.2833 -0.5448
 
              Baa    -0.0435     3.148     1.123     1.050  0.8035  0.4542  0.3848
    67 O(17)  Bbb    -0.0420     3.037     1.084     1.013  0.0573 -0.7024  0.7094
              Bcc     0.0855    -6.185    -2.207    -2.063  0.5925 -0.5480 -0.5905
 
              Baa    -0.0022    -1.156    -0.413    -0.386  0.7376  0.6473  0.1923
    68 H(1)   Bbb    -0.0015    -0.775    -0.277    -0.258  0.6142 -0.5249 -0.5892
              Bcc     0.0036     1.931     0.689     0.644  0.2805 -0.5527  0.7847
 
              Baa    -0.0443     3.205     1.144     1.069 -0.0820 -0.6983  0.7111
    69 O(17)  Bbb    -0.0427     3.088     1.102     1.030  0.7954 -0.4758 -0.3754
              Bcc     0.0870    -6.293    -2.245    -2.099  0.6005  0.5348  0.5945
 
              Baa    -0.0022    -1.194    -0.426    -0.398 -0.1199  0.8103 -0.5736
    70 H(1)   Bbb    -0.0015    -0.792    -0.283    -0.264  0.5971  0.5204  0.6104
              Bcc     0.0037     1.986     0.709     0.662  0.7932 -0.2693 -0.5463
 

 ---------------------------------------------------------------------------------

 No NMR shielding tensors so no spin-rotation constants.
 Leave Link  601 at Mon Jan 18 08:44:02 2021, MaxMem=  4026531840 cpu:              11.3 elap:               1.5
 (Enter /opt/ohpc/pub/libs/gaussian/g16-A.03/sandybridge/g16/l9999.exe)

 Test job not archived.
 1\1\GINC-CASCADEB037\SP\ULC-wHPBE\TZVP\C36H28N2O4(1+,2)\RDU230\18-Jan-
 2021\0\\#P LC-wHPBE/TZVP iop(3/107=0135500000, 3/108=0135500000) scf=(
 conver=6,fermi,ndamp=35,noincfock,novaracc,vshift=500,xqc)\\H28 C36 N2
  O4\\1,2\C,0,2.858499,1.142103,-0.374244\C,0,3.579312,-0.001087,0.0033
 59\C,0,1.469111,1.138314,-0.362939\C,0,2.858875,-1.143435,0.384264\C,0
 ,0.739097,0.000512,0.009817\C,0,1.469477,-1.138129,0.379362\H,0,0.9371
 92,2.033473,-0.688815\H,0,3.397761,-2.037798,0.696269\H,0,0.938071,-2.
 032504,0.708142\C,0,-0.742883,0.001384,0.012974\C,0,-1.474511,-1.13085
 8,-0.372988\C,0,-1.47149,1.134716,0.402503\C,0,-2.8641,-1.134318,-0.37
 8218\C,0,-2.860735,1.140009,0.413286\C,0,-3.582937,0.003346,0.018716\H
 ,0,-0.94411,-2.02123,-0.714069\H,0,-0.938347,2.023708,0.742945\H,0,-3.
 404263,-2.023625,-0.702274\H,0,-3.398798,2.029064,0.741639\H,0,3.39702
 4,2.035914,-0.688457\N,0,-4.995311,0.005703,0.022721\C,0,-5.713915,1.1
 8551,-0.315496\C,0,-6.824749,1.586223,0.439679\C,0,-5.336499,1.964565,
 -1.414395\C,0,-7.543368,2.726588,0.103607\C,0,-6.037549,3.122582,-1.73
 9703\C,0,-7.148838,3.50571,-0.986012\H,0,-7.129554,0.987536,1.298124\H
 ,0,-4.477812,1.664402,-2.014832\H,0,-8.408278,3.036049,0.689802\H,0,-5
 .72457,3.720924,-2.59898\C,0,-5.717056,-1.178925,0.336296\C,0,-6.82180
 7,-1.565845,-0.429047\C,0,-5.346761,-1.975943,1.428789\C,0,-7.543924,-
 2.712298,-0.10728\C,0,-6.0478,-3.134194,1.738027\C,0,-7.155651,-3.5063
 91,0.973222\H,0,-7.124426,-0.956025,-1.280239\H,0,-4.491517,-1.682511,
 2.037555\H,0,-8.407549,-2.995534,-0.714075\H,0,-5.757368,-3.754511,2.5
 85554\N,0,4.991423,-0.001999,0.00006\C,0,5.710552,-1.183762,-0.330631\
 C,0,6.812654,-1.584277,0.431608\C,0,5.340603,-1.964026,-1.435102\C,0,7
 .532572,-2.727778,0.095183\C,0,6.039551,-3.119564,-1.759528\C,0,7.1446
 32,-3.505373,-0.997606\H,0,7.113605,-0.987752,1.292811\H,0,4.486562,-1
 .660323,-2.040543\H,0,8.393358,-3.022713,0.700462\H,0,5.749024,-3.7275
 28,-2.615933\C,0,5.713955,1.17869,0.326778\C,0,6.814458,1.575861,-0.43
 9552\C,0,5.349314,1.961286,1.431414\C,0,7.537888,2.718318,-0.107058\C,
 0,6.051756,3.115796,1.751909\C,0,7.155153,3.498257,0.985865\H,0,7.1115
 09,0.977436,-1.300789\H,0,4.49683,1.660119,2.040298\H,0,8.397429,3.010
 471,-0.715458\H,0,5.765438,3.72535,2.608604\O,0,7.820509,4.641023,1.35
 5507\H,0,8.555246,4.78867,0.739309\O,0,7.806379,-4.648952,-1.371018\H,
 0,8.541702,-4.800061,-0.75635\O,0,-7.887404,4.628973,-1.265636\H,0,-7.
 503413,5.071476,-2.03899\O,0,-7.819547,-4.653451,1.332021\H,0,-8.56035
 4,-4.790553,0.720672\\Version=EM64L-G16RevA.03\State=2-A\HF=-1797.6748
 373\S2=0.765009\S2-1=0.\S2A=0.750114\RMSD=8.469e-07\Dipole=0.4946693,0
 .1627456,-0.8151834\Quadrupole=97.522441,-33.6917019,-63.8307391,4.039
 6561,11.0519667,-9.1717467\PG=C01 [X(C36H28N2O4)]\\@


 At the touch of love, everyone becomves a poet.
                                -- Plato
 Job cpu time:       0 days  4 hours 30 minutes 44.0 seconds.
 Elapsed time:       0 days  0 hours 34 minutes 14.8 seconds.
 File lengths (MBytes):  RWF=    496 Int=      0 D2E=      0 Chk=     72 Scr=      8
 Normal termination of Gaussian 16 at Mon Jan 18 08:44:02 2021.
