 Entering Gaussian System, Link 0=g16
 Input=mol_bp_ma_whol_tune_n1.gjf
 Output=mol_bp_ma_whol_tune_n1.log
 Initial command:
 /opt/ohpc/pub/libs/gaussian/g16-A.03/sandybridge/g16/l1.exe "/mnt/gpfs2_4m/scratch/rdu230/ondemand/projects/init_structures/wtuning/mol_bp_ma_whol/tuning_mol_bp_ma_whol_ocycle0/Gau-421972.inp" -scrdir="/mnt/gpfs2_4m/scratch/rdu230/ondemand/projects/init_structures/wtuning/mol_bp_ma_whol/tuning_mol_bp_ma_whol_ocycle0/"
 Entering Link 1 = /opt/ohpc/pub/libs/gaussian/g16-A.03/sandybridge/g16/l1.exe PID=    421973.
  
 Copyright (c) 1988,1990,1992,1993,1995,1998,2003,2009,2016,
            Gaussian, Inc.  All Rights Reserved.
  
 This is part of the Gaussian(R) 16 program.  It is based on
 the Gaussian(R) 09 system (copyright 2009, Gaussian, Inc.),
 the Gaussian(R) 03 system (copyright 2003, Gaussian, Inc.),
 the Gaussian(R) 98 system (copyright 1998, Gaussian, Inc.),
 the Gaussian(R) 94 system (copyright 1995, Gaussian, Inc.),
 the Gaussian 92(TM) system (copyright 1992, Gaussian, Inc.),
 the Gaussian 90(TM) system (copyright 1990, Gaussian, Inc.),
 the Gaussian 88(TM) system (copyright 1988, Gaussian, Inc.),
 the Gaussian 86(TM) system (copyright 1986, Carnegie Mellon
 University), and the Gaussian 82(TM) system (copyright 1983,
 Carnegie Mellon University). Gaussian is a federally registered
 trademark of Gaussian, Inc.
  
 This software contains proprietary and confidential information,
 including trade secrets, belonging to Gaussian, Inc.
  
 This software is provided under written license and may be
 used, copied, transmitted, or stored only in accord with that
 written license.
  
 The following legend is applicable only to US Government
 contracts under FAR:
  
                    RESTRICTED RIGHTS LEGEND
  
 Use, reproduction and disclosure by the US Government is
 subject to restrictions as set forth in subparagraphs (a)
 and (c) of the Commercial Computer Software - Restricted
 Rights clause in FAR 52.227-19.
  
 Gaussian, Inc.
 340 Quinnipiac St., Bldg. 40, Wallingford CT 06492
  
  
 ---------------------------------------------------------------
 Warning -- This program may not be used in any manner that
 competes with the business of Gaussian, Inc. or will provide
 assistance to any competitor of Gaussian, Inc.  The licensee
 of this program is prohibited from giving any competitor of
 Gaussian, Inc. access to this program.  By using this program,
 the user acknowledges that Gaussian, Inc. is engaged in the
 business of creating and licensing software in the field of
 computational chemistry and represents and warrants to the
 licensee that it is not a competitor of Gaussian, Inc. and that
 it will not use this program in any manner prohibited above.
 ---------------------------------------------------------------
  

 Cite this work as:
 Gaussian 16, Revision A.03,
 M. J. Frisch, G. W. Trucks, H. B. Schlegel, G. E. Scuseria, 
 M. A. Robb, J. R. Cheeseman, G. Scalmani, V. Barone, 
 G. A. Petersson, H. Nakatsuji, X. Li, M. Caricato, A. V. Marenich, 
 J. Bloino, B. G. Janesko, R. Gomperts, B. Mennucci, H. P. Hratchian, 
 J. V. Ortiz, A. F. Izmaylov, J. L. Sonnenberg, D. Williams-Young, 
 F. Ding, F. Lipparini, F. Egidi, J. Goings, B. Peng, A. Petrone, 
 T. Henderson, D. Ranasinghe, V. G. Zakrzewski, J. Gao, N. Rega, 
 G. Zheng, W. Liang, M. Hada, M. Ehara, K. Toyota, R. Fukuda, 
 J. Hasegawa, M. Ishida, T. Nakajima, Y. Honda, O. Kitao, H. Nakai, 
 T. Vreven, K. Throssell, J. A. Montgomery, Jr., J. E. Peralta, 
 F. Ogliaro, M. J. Bearpark, J. J. Heyd, E. N. Brothers, K. N. Kudin, 
 V. N. Staroverov, T. A. Keith, R. Kobayashi, J. Normand, 
 K. Raghavachari, A. P. Rendell, J. C. Burant, S. S. Iyengar, 
 J. Tomasi, M. Cossi, J. M. Millam, M. Klene, C. Adamo, R. Cammi, 
 J. W. Ochterski, R. L. Martin, K. Morokuma, O. Farkas, 
 J. B. Foresman, and D. J. Fox, Gaussian, Inc., Wallingford CT, 2016.
 
 ******************************************
 Gaussian 16:  EM64L-G16RevA.03 25-Dec-2016
                18-Jan-2021 
 ******************************************
 %mem=30GB
 %nproc=8
 Will use up to    8 processors via shared memory.
 ----------------------------------------------------------------------
 #P LC-wHPBE/TZVP iop(3/107=0328100000, 3/108=0328100000) scf=(conver=6
 ,fermi,ndamp=35,noincfock,novaracc,vshift=500,xqc)
 ----------------------------------------------------------------------
 1/38=1,172=1/1;
 2/12=2,17=6,18=5,40=1/2;
 3/5=19,7=101,11=2,25=1,30=1,74=-71,107=328100000,108=328100000/1,2,3;
 4//1;
 5/5=100002,6=6,8=3,10=500,13=1,18=-1,22=13,38=1,93=35/2,8;
 6/7=2,8=2,9=2,10=2,28=1/1;
 99/5=1,9=1/99;
 Leave Link    1 at Mon Jan 18 04:35:51 2021, MaxMem=  4026531840 cpu:               1.1 elap:               0.2
 (Enter /opt/ohpc/pub/libs/gaussian/g16-A.03/sandybridge/g16/l101.exe)
 -------------
 H28 C36 N2 O4
 -------------
 Symbolic Z-matrix:
 Charge =  0 Multiplicity = 1
 C                     2.8585    1.1421   -0.37424 
 C                     3.57931  -0.00109   0.00336 
 C                     1.46911   1.13831  -0.36294 
 C                     2.85888  -1.14343   0.38426 
 C                     0.7391    0.00051   0.00982 
 C                     1.46948  -1.13813   0.37936 
 H                     0.93719   2.03347  -0.68882 
 H                     3.39776  -2.0378    0.69627 
 H                     0.93807  -2.0325    0.70814 
 C                    -0.74288   0.00138   0.01297 
 C                    -1.47451  -1.13086  -0.37299 
 C                    -1.47149   1.13472   0.4025 
 C                    -2.8641   -1.13432  -0.37822 
 C                    -2.86074   1.14001   0.41329 
 C                    -3.58294   0.00335   0.01872 
 H                    -0.94411  -2.02123  -0.71407 
 H                    -0.93835   2.02371   0.74295 
 H                    -3.40426  -2.02363  -0.70227 
 H                    -3.3988    2.02906   0.74164 
 H                     3.39702   2.03591  -0.68846 
 N                    -4.99531   0.0057    0.02272 
 C                    -5.71392   1.18551  -0.3155 
 C                    -6.82475   1.58622   0.43968 
 C                    -5.3365    1.96457  -1.4144 
 C                    -7.54337   2.72659   0.10361 
 C                    -6.03755   3.12258  -1.7397 
 C                    -7.14884   3.50571  -0.98601 
 H                    -7.12955   0.98754   1.29812 
 H                    -4.47781   1.6644   -2.01483 
 H                    -8.40828   3.03605   0.6898 
 H                    -5.72457   3.72092  -2.59898 
 C                    -5.71706  -1.17893   0.3363 
 C                    -6.82181  -1.56585  -0.42905 
 C                    -5.34676  -1.97594   1.42879 
 C                    -7.54392  -2.7123   -0.10728 
 C                    -6.0478   -3.13419   1.73803 
 C                    -7.15565  -3.50639   0.97322 
 H                    -7.12443  -0.95603  -1.28024 
 H                    -4.49152  -1.68251   2.03756 
 H                    -8.40755  -2.99553  -0.71408 
 H                    -5.75737  -3.75451   2.58555 
 N                     4.99142  -0.002     0.00006 
 C                     5.71055  -1.18376  -0.33063 
 C                     6.81265  -1.58428   0.43161 
 C                     5.3406   -1.96403  -1.4351 
 C                     7.53257  -2.72778   0.09518 
 C                     6.03955  -3.11956  -1.75953 
 C                     7.14463  -3.50537  -0.99761 
 H                     7.1136   -0.98775   1.29281 
 H                     4.48656  -1.66032  -2.04054 
 H                     8.39336  -3.02271   0.70046 
 H                     5.74902  -3.72753  -2.61593 
 C                     5.71396   1.17869   0.32678 
 C                     6.81446   1.57586  -0.43955 
 C                     5.34931   1.96129   1.43141 
 C                     7.53789   2.71832  -0.10706 
 C                     6.05176   3.1158    1.75191 
 C                     7.15515   3.49826   0.98587 
 H                     7.11151   0.97744  -1.30079 
 H                     4.49683   1.66012   2.0403 
 H                     8.39743   3.01047  -0.71546 
 H                     5.76544   3.72535   2.6086 
 O                     7.82051   4.64102   1.35551 
 H                     8.55525   4.78867   0.73931 
 O                     7.80638  -4.64895  -1.37102 
 H                     8.5417   -4.80006  -0.75635 
 O                    -7.8874    4.62897  -1.26564 
 H                    -7.50341   5.07148  -2.03899 
 O                    -7.81955  -4.65345   1.33202 
 H                    -8.56035  -4.79055   0.72067 
 
 ITRead=  0  0  0  0  0  0  0  0  0  0  0  0  0  0  0  0  0  0  0  0
 ITRead=  0  0  0  0  0  0  0  0  0  0  0  0  0  0  0  0  0  0  0  0
 ITRead=  0  0  0  0  0  0  0  0  0  0  0  0  0  0  0  0  0  0  0  0
 ITRead=  0  0  0  0  0  0  0  0  0  0
 MicOpt= -1 -1 -1 -1 -1 -1 -1 -1 -1 -1 -1 -1 -1 -1 -1 -1 -1 -1 -1 -1
 MicOpt= -1 -1 -1 -1 -1 -1 -1 -1 -1 -1 -1 -1 -1 -1 -1 -1 -1 -1 -1 -1
 MicOpt= -1 -1 -1 -1 -1 -1 -1 -1 -1 -1 -1 -1 -1 -1 -1 -1 -1 -1 -1 -1
 MicOpt= -1 -1 -1 -1 -1 -1 -1 -1 -1 -1
 NAtoms=     70 NQM=       70 NQMF=       0 NMMI=      0 NMMIF=      0
                NMic=       0 NMicF=      0.
                    Isotopes and Nuclear Properties:
 (Nuclear quadrupole moments (NQMom) in fm**2, nuclear magnetic moments (NMagM)
  in nuclear magnetons)

  Atom         1           2           3           4           5           6           7           8           9          10
 IAtWgt=          12          12          12          12          12          12           1           1           1          12
 AtmWgt=  12.0000000  12.0000000  12.0000000  12.0000000  12.0000000  12.0000000   1.0078250   1.0078250   1.0078250  12.0000000
 NucSpn=           0           0           0           0           0           0           1           1           1           0
 AtZEff=  -0.0000000  -0.0000000  -0.0000000  -0.0000000  -0.0000000  -0.0000000  -0.0000000  -0.0000000  -0.0000000  -0.0000000
 NQMom=    0.0000000   0.0000000   0.0000000   0.0000000   0.0000000   0.0000000   0.0000000   0.0000000   0.0000000   0.0000000
 NMagM=    0.0000000   0.0000000   0.0000000   0.0000000   0.0000000   0.0000000   2.7928460   2.7928460   2.7928460   0.0000000
 AtZNuc=   6.0000000   6.0000000   6.0000000   6.0000000   6.0000000   6.0000000   1.0000000   1.0000000   1.0000000   6.0000000

  Atom        11          12          13          14          15          16          17          18          19          20
 IAtWgt=          12          12          12          12          12           1           1           1           1           1
 AtmWgt=  12.0000000  12.0000000  12.0000000  12.0000000  12.0000000   1.0078250   1.0078250   1.0078250   1.0078250   1.0078250
 NucSpn=           0           0           0           0           0           1           1           1           1           1
 AtZEff=  -0.0000000  -0.0000000  -0.0000000  -0.0000000  -0.0000000  -0.0000000  -0.0000000  -0.0000000  -0.0000000  -0.0000000
 NQMom=    0.0000000   0.0000000   0.0000000   0.0000000   0.0000000   0.0000000   0.0000000   0.0000000   0.0000000   0.0000000
 NMagM=    0.0000000   0.0000000   0.0000000   0.0000000   0.0000000   2.7928460   2.7928460   2.7928460   2.7928460   2.7928460
 AtZNuc=   6.0000000   6.0000000   6.0000000   6.0000000   6.0000000   1.0000000   1.0000000   1.0000000   1.0000000   1.0000000

  Atom        21          22          23          24          25          26          27          28          29          30
 IAtWgt=          14          12          12          12          12          12          12           1           1           1
 AtmWgt=  14.0030740  12.0000000  12.0000000  12.0000000  12.0000000  12.0000000  12.0000000   1.0078250   1.0078250   1.0078250
 NucSpn=           2           0           0           0           0           0           0           1           1           1
 AtZEff=  -0.0000000  -0.0000000  -0.0000000  -0.0000000  -0.0000000  -0.0000000  -0.0000000  -0.0000000  -0.0000000  -0.0000000
 NQMom=    2.0440000   0.0000000   0.0000000   0.0000000   0.0000000   0.0000000   0.0000000   0.0000000   0.0000000   0.0000000
 NMagM=    0.4037610   0.0000000   0.0000000   0.0000000   0.0000000   0.0000000   0.0000000   2.7928460   2.7928460   2.7928460
 AtZNuc=   7.0000000   6.0000000   6.0000000   6.0000000   6.0000000   6.0000000   6.0000000   1.0000000   1.0000000   1.0000000

  Atom        31          32          33          34          35          36          37          38          39          40
 IAtWgt=           1          12          12          12          12          12          12           1           1           1
 AtmWgt=   1.0078250  12.0000000  12.0000000  12.0000000  12.0000000  12.0000000  12.0000000   1.0078250   1.0078250   1.0078250
 NucSpn=           1           0           0           0           0           0           0           1           1           1
 AtZEff=  -0.0000000  -0.0000000  -0.0000000  -0.0000000  -0.0000000  -0.0000000  -0.0000000  -0.0000000  -0.0000000  -0.0000000
 NQMom=    0.0000000   0.0000000   0.0000000   0.0000000   0.0000000   0.0000000   0.0000000   0.0000000   0.0000000   0.0000000
 NMagM=    2.7928460   0.0000000   0.0000000   0.0000000   0.0000000   0.0000000   0.0000000   2.7928460   2.7928460   2.7928460
 AtZNuc=   1.0000000   6.0000000   6.0000000   6.0000000   6.0000000   6.0000000   6.0000000   1.0000000   1.0000000   1.0000000

  Atom        41          42          43          44          45          46          47          48          49          50
 IAtWgt=           1          14          12          12          12          12          12          12           1           1
 AtmWgt=   1.0078250  14.0030740  12.0000000  12.0000000  12.0000000  12.0000000  12.0000000  12.0000000   1.0078250   1.0078250
 NucSpn=           1           2           0           0           0           0           0           0           1           1
 AtZEff=  -0.0000000  -0.0000000  -0.0000000  -0.0000000  -0.0000000  -0.0000000  -0.0000000  -0.0000000  -0.0000000  -0.0000000
 NQMom=    0.0000000   2.0440000   0.0000000   0.0000000   0.0000000   0.0000000   0.0000000   0.0000000   0.0000000   0.0000000
 NMagM=    2.7928460   0.4037610   0.0000000   0.0000000   0.0000000   0.0000000   0.0000000   0.0000000   2.7928460   2.7928460
 AtZNuc=   1.0000000   7.0000000   6.0000000   6.0000000   6.0000000   6.0000000   6.0000000   6.0000000   1.0000000   1.0000000

  Atom        51          52          53          54          55          56          57          58          59          60
 IAtWgt=           1           1          12          12          12          12          12          12           1           1
 AtmWgt=   1.0078250   1.0078250  12.0000000  12.0000000  12.0000000  12.0000000  12.0000000  12.0000000   1.0078250   1.0078250
 NucSpn=           1           1           0           0           0           0           0           0           1           1
 AtZEff=  -0.0000000  -0.0000000  -0.0000000  -0.0000000  -0.0000000  -0.0000000  -0.0000000  -0.0000000  -0.0000000  -0.0000000
 NQMom=    0.0000000   0.0000000   0.0000000   0.0000000   0.0000000   0.0000000   0.0000000   0.0000000   0.0000000   0.0000000
 NMagM=    2.7928460   2.7928460   0.0000000   0.0000000   0.0000000   0.0000000   0.0000000   0.0000000   2.7928460   2.7928460
 AtZNuc=   1.0000000   1.0000000   6.0000000   6.0000000   6.0000000   6.0000000   6.0000000   6.0000000   1.0000000   1.0000000

  Atom        61          62          63          64          65          66          67          68          69          70
 IAtWgt=           1           1          16           1          16           1          16           1          16           1
 AtmWgt=   1.0078250   1.0078250  15.9949146   1.0078250  15.9949146   1.0078250  15.9949146   1.0078250  15.9949146   1.0078250
 NucSpn=           1           1           0           1           0           1           0           1           0           1
 AtZEff=  -0.0000000  -0.0000000  -0.0000000  -0.0000000  -0.0000000  -0.0000000  -0.0000000  -0.0000000  -0.0000000  -0.0000000
 NQMom=    0.0000000   0.0000000   0.0000000   0.0000000   0.0000000   0.0000000   0.0000000   0.0000000   0.0000000   0.0000000
 NMagM=    2.7928460   2.7928460   0.0000000   2.7928460   0.0000000   2.7928460   0.0000000   2.7928460   0.0000000   2.7928460
 AtZNuc=   1.0000000   1.0000000   8.0000000   1.0000000   8.0000000   1.0000000   8.0000000   1.0000000   8.0000000   1.0000000
 Leave Link  101 at Mon Jan 18 04:35:51 2021, MaxMem=  4026531840 cpu:               0.7 elap:               0.1
 (Enter /opt/ohpc/pub/libs/gaussian/g16-A.03/sandybridge/g16/l202.exe)
 Stoichiometry    C36H28N2O4
 Framework group  C1[X(C36H28N2O4)]
 Deg. of freedom   204
 Full point group                 C1      NOp   1
 Largest Abelian subgroup         C1      NOp   1
 Largest concise Abelian subgroup C1      NOp   1
                         Standard orientation:                         
 ---------------------------------------------------------------------
 Center     Atomic      Atomic             Coordinates (Angstroms)
 Number     Number       Type             X           Y           Z
 ---------------------------------------------------------------------
      1          6           0        2.858499   -1.142103    0.374244
      2          6           0        3.579312    0.001087   -0.003359
      3          6           0        1.469111   -1.138314    0.362939
      4          6           0        2.858875    1.143435   -0.384264
      5          6           0        0.739097   -0.000512   -0.009817
      6          6           0        1.469477    1.138129   -0.379362
      7          1           0        0.937192   -2.033473    0.688815
      8          1           0        3.397761    2.037798   -0.696269
      9          1           0        0.938071    2.032504   -0.708142
     10          6           0       -0.742883   -0.001384   -0.012974
     11          6           0       -1.474511    1.130858    0.372988
     12          6           0       -1.471490   -1.134716   -0.402503
     13          6           0       -2.864100    1.134318    0.378218
     14          6           0       -2.860735   -1.140009   -0.413286
     15          6           0       -3.582937   -0.003346   -0.018716
     16          1           0       -0.944110    2.021230    0.714069
     17          1           0       -0.938347   -2.023708   -0.742945
     18          1           0       -3.404263    2.023625    0.702274
     19          1           0       -3.398798   -2.029064   -0.741639
     20          1           0        3.397024   -2.035914    0.688457
     21          7           0       -4.995311   -0.005703   -0.022721
     22          6           0       -5.713915   -1.185510    0.315496
     23          6           0       -6.824749   -1.586223   -0.439679
     24          6           0       -5.336499   -1.964565    1.414395
     25          6           0       -7.543368   -2.726588   -0.103607
     26          6           0       -6.037549   -3.122582    1.739703
     27          6           0       -7.148838   -3.505710    0.986012
     28          1           0       -7.129554   -0.987536   -1.298124
     29          1           0       -4.477812   -1.664402    2.014832
     30          1           0       -8.408278   -3.036049   -0.689802
     31          1           0       -5.724570   -3.720924    2.598980
     32          6           0       -5.717056    1.178925   -0.336296
     33          6           0       -6.821807    1.565845    0.429047
     34          6           0       -5.346761    1.975943   -1.428789
     35          6           0       -7.543924    2.712298    0.107280
     36          6           0       -6.047800    3.134194   -1.738027
     37          6           0       -7.155651    3.506391   -0.973222
     38          1           0       -7.124426    0.956025    1.280239
     39          1           0       -4.491517    1.682511   -2.037555
     40          1           0       -8.407549    2.995534    0.714075
     41          1           0       -5.757368    3.754511   -2.585554
     42          7           0        4.991423    0.001999   -0.000060
     43          6           0        5.710552    1.183762    0.330631
     44          6           0        6.812654    1.584277   -0.431608
     45          6           0        5.340603    1.964026    1.435102
     46          6           0        7.532572    2.727778   -0.095183
     47          6           0        6.039551    3.119564    1.759528
     48          6           0        7.144632    3.505373    0.997606
     49          1           0        7.113605    0.987752   -1.292811
     50          1           0        4.486562    1.660323    2.040543
     51          1           0        8.393358    3.022713   -0.700462
     52          1           0        5.749024    3.727528    2.615933
     53          6           0        5.713955   -1.178690   -0.326778
     54          6           0        6.814458   -1.575861    0.439552
     55          6           0        5.349314   -1.961286   -1.431414
     56          6           0        7.537888   -2.718318    0.107058
     57          6           0        6.051756   -3.115796   -1.751909
     58          6           0        7.155153   -3.498257   -0.985865
     59          1           0        7.111509   -0.977436    1.300789
     60          1           0        4.496830   -1.660119   -2.040298
     61          1           0        8.397429   -3.010471    0.715458
     62          1           0        5.765438   -3.725350   -2.608604
     63          8           0        7.820509   -4.641023   -1.355507
     64          1           0        8.555246   -4.788670   -0.739309
     65          8           0        7.806379    4.648952    1.371018
     66          1           0        8.541702    4.800061    0.756350
     67          8           0       -7.887404   -4.628973    1.265636
     68          1           0       -7.503413   -5.071476    2.038990
     69          8           0       -7.819547    4.653451   -1.332021
     70          1           0       -8.560354    4.790553   -0.720672
 ---------------------------------------------------------------------
 Rotational constants (GHZ):           0.1256812           0.0264942           0.0228634
 Leave Link  202 at Mon Jan 18 04:35:51 2021, MaxMem=  4026531840 cpu:               0.1 elap:               0.0
 (Enter /opt/ohpc/pub/libs/gaussian/g16-A.03/sandybridge/g16/l301.exe)
 Standard basis: TZVP (5D, 7F)
 Ernie: Thresh=  0.10000D-02 Tol=  0.10000D-05 Strict=F.
 There are  1008 symmetry adapted cartesian basis functions of A   symmetry.
 There are   966 symmetry adapted basis functions of A   symmetry.
   966 basis functions,  1694 primitive gaussians,  1008 cartesian basis functions
   145 alpha electrons      145 beta electrons
       nuclear repulsion energy      4158.5104167158 Hartrees.
 IExCor=33909 DFT=T Ex+Corr=LC-wHPBE ExCW=0 ScaHFX=  1.000000
 ScaDFX=  1.000000  1.000000  1.000000  1.000000 ScalE2=  1.000000  1.000000
 IRadAn=      5 IRanWt=     -1 IRanGd=            0 ICorTp=0 IEmpDi=  4
 HFx  wShort=  0.000000 wLong=  0.328100 cFull=  0.000000 cShort=  0.000000 cLong=  1.000000
 DFx  wShort=  0.000000 wLong=  0.328100 cFull=  0.000000 cShort=  1.000000 cLong=  0.000000
 NAtoms=   70 NActive=   70 NUniq=   70 SFac= 1.00D+00 NAtFMM=   60 NAOKFM=T Big=T
 Integral buffers will be    131072 words long.
 Raffenetti 2 integral format.
 Two-electron integral symmetry is turned on.
 Leave Link  301 at Mon Jan 18 04:35:51 2021, MaxMem=  4026531840 cpu:               0.4 elap:               0.1
 (Enter /opt/ohpc/pub/libs/gaussian/g16-A.03/sandybridge/g16/l302.exe)
 NPDir=0 NMtPBC=     1 NCelOv=     1 NCel=       1 NClECP=     1 NCelD=      1
         NCelK=      1 NCelE2=     1 NClLst=     1 CellRange=     0.0.
 One-electron integrals computed using PRISM.
 One-electron integral symmetry used in STVInt
 NBasis=   966 RedAO= T EigKep=  7.09D-06  NBF=   966
 NBsUse=   966 1.00D-06 EigRej= -1.00D+00 NBFU=   966
 Precomputing XC quadrature grid using
 IXCGrd= 4 IRadAn=           5 IRanWt=          -1 IRanGd=           0 AccXCQ= 0.00D+00.
 Generated NRdTot=       0 NPtTot=           0 NUsed=           0 NTot=          32
 NSgBfM=   893   890   890   891   893 MxSgAt=    70 MxSgA2=    70.
 Leave Link  302 at Mon Jan 18 04:35:54 2021, MaxMem=  4026531840 cpu:              23.4 elap:               3.1
 (Enter /opt/ohpc/pub/libs/gaussian/g16-A.03/sandybridge/g16/l303.exe)
 DipDrv:  MaxL=1.
 Leave Link  303 at Mon Jan 18 04:35:55 2021, MaxMem=  4026531840 cpu:               1.2 elap:               0.2
 (Enter /opt/ohpc/pub/libs/gaussian/g16-A.03/sandybridge/g16/l401.exe)
 ExpMin= 9.52D-02 ExpMax= 2.70D+04 ExpMxC= 9.22D+02 IAcc=3 IRadAn=         5 AccDes= 0.00D+00
 Harris functional with IExCor=33909 and IRadAn=       5 diagonalized for initial guess.
 HarFok:  IExCor=33909 AccDes= 0.00D+00 IRadAn=         5 IDoV= 1 UseB2=F ITyADJ=14
 ICtDFT=  3500011 ScaDFX=  1.000000  1.000000  1.000000  1.000000
 FoFCou: FMM=F IPFlag=           0 FMFlag=      100000 FMFlg1=        2001
         NFxFlg=           0 DoJE=T BraDBF=F KetDBF=T FulRan=T
         wScrn=  0.000000 ICntrl=       500 IOpCl=  0 I1Cent=   200000004 NGrid=           0
         NMat0=    1 NMatS0=      1 NMatT0=    0 NMatD0=    1 NMtDS0=    0 NMtDT0=    0
 Petite list used in FoFCou.
 Harris En= -1749.79769562576    
 JPrj=0 DoOrth=F DoCkMO=F.
 Leave Link  401 at Mon Jan 18 04:36:06 2021, MaxMem=  4026531840 cpu:              86.9 elap:              11.0
 (Enter /opt/ohpc/pub/libs/gaussian/g16-A.03/sandybridge/g16/l502.exe)
 Integral symmetry usage will be decided dynamically.
 Closed shell SCF:
 Using DIIS extrapolation, IDIIS=    10.
 NGot=  4026531840 LenX=  4024481942 LenY=  4023464870
 Requested convergence on RMS density matrix=1.00D-06 within  32 cycles.
 Requested convergence on MAX density matrix=1.00D-04.
 Requested convergence on             energy=1.00D-04.
 Virtual orbitals will be shifted by   0.500 hartree.
 No special actions if energy rises.
 Dynamic level shift is on during FON iterations.

 Cycle   1  Pass 1  IDiag  1:
 FoFJK:  IHMeth= 1 ICntrl=       0 DoSepK=T KAlg= 0 I1Cent=           0 FoldK=F
 IRaf=         1 NMat=       1 IRICut=       1 DoRegI=T DoRafI=F ISym2E= 0 IDoP0=0 IntGTp=1.
 FoFCou: FMM=T IPFlag=           0 FMFlag=      100000 FMFlg1=        2001
         NFxFlg=           0 DoJE=T BraDBF=F KetDBF=F FulRan=T
         wScrn=  0.000000 ICntrl=       500 IOpCl=  0 I1Cent=           0 NGrid=           0
         NMat0=    1 NMatS0=      1 NMatT0=    0 NMatD0=    1 NMtDS0=    0 NMtDT0=    0
 Symmetry not used in FoFCou.
 FMM levels:  10  Number of levels for PrismC:   9
 E= -1797.77020612807    
 DIIS: error= 2.56D-02 at cycle   1 NSaved=   1.
 NSaved= 1 IEnMin= 1 EnMin= -1797.77020612807     IErMin= 1 ErrMin= 2.56D-02
 ErrMax= 2.56D-02  0.00D+00 EMaxC= 1.00D+00 BMatC= 5.49D-01 BMatP= 5.49D-01
 IDIUse=1 WtCom= 1.00D+00 WtEn= 0.00D+00
 Coeff-Com:  0.100D+01
 Coeff:      0.100D+01
 Gap=     0.332 Goal=   None    Shift=    0.500
 T= 1400. Gap= 0.774 NK=0 IS=  146 IE=  966 IFin=  145
          NO(<0.9)=   0  NV(>0.1)=   0    145.00e < EF      0.00e >EF  Err=0.0D+00
 GapD=    0.332 DampG=1.000 DampE=0.500 DampFc=0.5000 IDamp=-1.
 Damping current iteration by 5.00D-01
 RMSDP=1.88D-03 MaxDP=1.22D-01              OVMax= 7.22D-02

 Cycle   2  Pass 1  IDiag  1:
 E= -1798.06566400716     Delta-E=       -0.295457879088 Rises=F Damp=T
 DIIS: error= 1.14D-02 at cycle   2 NSaved=   2.
 NSaved= 2 IEnMin= 2 EnMin= -1798.06566400716     IErMin= 2 ErrMin= 1.14D-02
 ErrMax= 1.14D-02  0.00D+00 EMaxC= 1.00D+00 BMatC= 1.01D-01 BMatP= 5.49D-01
 IDIUse=1 WtCom= 1.00D+00 WtEn= 0.00D+00
 Coeff-Com: -0.601D+00 0.160D+01
 Coeff:     -0.601D+00 0.160D+01
 Gap=     0.291 Goal=   None    Shift=    0.500
 T= 1278. Gap= 0.776 NK=0 IS=  146 IE=  966 IFin=  145
          NO(<0.9)=   0  NV(>0.1)=   0    145.00e < EF      0.00e >EF  Err=0.0D+00
 GapD=    0.291 DampG=1.000 DampE=0.500 DampFc=0.5000 IDamp=-1.
 Damping current iteration by 5.00D-01
 RMSDP=1.24D-03 MaxDP=9.16D-02 DE=-2.95D-01 OVMax= 1.83D-02

 Cycle   3  Pass 1  IDiag  1:
 E= -1798.17363691721     Delta-E=       -0.107972910053 Rises=F Damp=T
 DIIS: error= 5.01D-03 at cycle   3 NSaved=   3.
 NSaved= 3 IEnMin= 3 EnMin= -1798.17363691721     IErMin= 3 ErrMin= 5.01D-03
 ErrMax= 5.01D-03  0.00D+00 EMaxC= 1.00D+00 BMatC= 2.20D-02 BMatP= 1.01D-01
 IDIUse=1 WtCom= 1.00D+00 WtEn= 0.00D+00
 Coeff-Com:  0.779D-02-0.835D+00 0.183D+01
 Coeff:      0.779D-02-0.835D+00 0.183D+01
 Gap=     0.284 Goal=   None    Shift=    0.500
 T= 1039. Gap= 0.783 NK=0 IS=  146 IE=  966 IFin=  145
          NO(<0.9)=   0  NV(>0.1)=   0    145.00e < EF      0.00e >EF  Err=0.0D+00
 GapD=    0.284 DampG=1.000 DampE=1.000 DampFc=1.0000 IDamp=-1.
 RMSDP=7.65D-04 MaxDP=5.58D-02 DE=-1.08D-01 OVMax= 1.55D-02

 Cycle   4  Pass 1  IDiag  1:
 E= -1798.26816063933     Delta-E=       -0.094523722122 Rises=F Damp=F
 DIIS: error= 2.01D-03 at cycle   4 NSaved=   4.
 NSaved= 4 IEnMin= 4 EnMin= -1798.26816063933     IErMin= 4 ErrMin= 2.01D-03
 ErrMax= 2.01D-03  0.00D+00 EMaxC= 1.00D+00 BMatC= 5.99D-04 BMatP= 2.20D-02
 IDIUse=1 WtCom= 1.00D+00 WtEn= 0.00D+00
 Coeff-Com:  0.608D-01-0.123D+00 0.187D-01 0.104D+01
 Coeff:      0.608D-01-0.123D+00 0.187D-01 0.104D+01
 Gap=     0.284 Goal=   None    Shift=    0.500
 T=  546. Gap= 0.784 NK=0 IS=  146 IE=  966 IFin=  145
          NO(<0.9)=   0  NV(>0.1)=   0    145.00e < EF      0.00e >EF  Err=0.0D+00
 GapD=    0.284 DampG=1.000 DampE=1.000 DampFc=1.0000 IDamp=-1.
 RMSDP=1.06D-04 MaxDP=4.71D-03 DE=-9.45D-02 OVMax= 1.15D-02

 Cycle   5  Pass 1  IDiag  1:
 E= -1798.26937177937     Delta-E=       -0.001211140032 Rises=F Damp=F
 DIIS: error= 1.52D-03 at cycle   5 NSaved=   5.
 NSaved= 5 IEnMin= 5 EnMin= -1798.26937177937     IErMin= 5 ErrMin= 1.52D-03
 ErrMax= 1.52D-03  0.00D+00 EMaxC= 1.00D+00 BMatC= 1.72D-04 BMatP= 5.99D-04
 IDIUse=1 WtCom= 1.00D+00 WtEn= 0.00D+00
 Coeff-Com:  0.104D-01 0.835D-01-0.235D+00-0.172D+00 0.131D+01
 Coeff:      0.104D-01 0.835D-01-0.235D+00-0.172D+00 0.131D+01
 Gap=     0.285 Goal=   None    Shift=    0.500
 T=   83. Gap= 0.785 NK=0 IS=  146 IE=  966 IFin=  145
          NO(<0.9)=   0  NV(>0.1)=   0    145.00e < EF      0.00e >EF  Err=0.0D+00
 GapD=    0.285 DampG=1.000 DampE=1.000 DampFc=1.0000 IDamp=-1.
 RMSDP=6.74D-05 MaxDP=3.04D-03 DE=-1.21D-03 OVMax= 9.11D-03

 Cycle   6  Pass 1  IDiag  1:
 E= -1798.26992336587     Delta-E=       -0.000551586503 Rises=F Damp=F
 DIIS: error= 1.16D-03 at cycle   6 NSaved=   6.
 NSaved= 6 IEnMin= 6 EnMin= -1798.26992336587     IErMin= 6 ErrMin= 1.16D-03
 ErrMax= 1.16D-03  0.00D+00 EMaxC= 1.00D+00 BMatC= 6.31D-05 BMatP= 1.72D-04
 IDIUse=1 WtCom= 1.00D+00 WtEn= 0.00D+00
 Coeff-Com: -0.183D-01 0.738D-01-0.922D-01-0.364D+00 0.911D-01 0.131D+01
 Coeff:     -0.183D-01 0.738D-01-0.922D-01-0.364D+00 0.911D-01 0.131D+01
 Gap=     0.286 Goal=   None    Shift=    0.500
 GapD=    0.286 DampG=1.000 DampE=1.000 DampFc=1.0000 IDamp=-1.
 RMSDP=3.95D-05 MaxDP=1.49D-03 DE=-5.52D-04 OVMax= 7.57D-03

 Cycle   7  Pass 1  IDiag  1:
 E= -1798.27018941180     Delta-E=       -0.000266045931 Rises=F Damp=F
 DIIS: error= 8.22D-04 at cycle   7 NSaved=   7.
 NSaved= 7 IEnMin= 7 EnMin= -1798.27018941180     IErMin= 7 ErrMin= 8.22D-04
 ErrMax= 8.22D-04  0.00D+00 EMaxC= 1.00D+00 BMatC= 2.54D-05 BMatP= 6.31D-05
 IDIUse=1 WtCom= 1.00D+00 WtEn= 0.00D+00
 Coeff-Com: -0.892D-02-0.115D-02 0.377D-01-0.344D-01-0.353D+00-0.468D+00
 Coeff-Com:  0.183D+01
 Coeff:     -0.892D-02-0.115D-02 0.377D-01-0.344D-01-0.353D+00-0.468D+00
 Coeff:      0.183D+01
 Gap=     0.287 Goal=   None    Shift=    0.500
 RMSDP=2.71D-05 MaxDP=1.09D-03 DE=-2.66D-04 OVMax= 5.77D-03

 Cycle   8  Pass 1  IDiag  1:
 E= -1798.27031507988     Delta-E=       -0.000125668084 Rises=F Damp=F
 DIIS: error= 5.86D-04 at cycle   8 NSaved=   8.
 NSaved= 8 IEnMin= 8 EnMin= -1798.27031507988     IErMin= 8 ErrMin= 5.86D-04
 ErrMax= 5.86D-04  0.00D+00 EMaxC= 1.00D+00 BMatC= 1.12D-05 BMatP= 2.54D-05
 IDIUse=1 WtCom= 1.00D+00 WtEn= 0.00D+00
 Coeff-Com:  0.172D-02-0.192D-01 0.366D-01 0.103D+00-0.143D+00-0.833D+00
 Coeff-Com:  0.460D+00 0.139D+01
 Coeff:      0.172D-02-0.192D-01 0.366D-01 0.103D+00-0.143D+00-0.833D+00
 Coeff:      0.460D+00 0.139D+01
 Gap=     0.287 Goal=   None    Shift=    0.500
 RMSDP=1.67D-05 MaxDP=6.35D-04 DE=-1.26D-04 OVMax= 4.15D-03

 Cycle   9  Pass 1  IDiag  1:
 E= -1798.27037027940     Delta-E=       -0.000055199518 Rises=F Damp=F
 DIIS: error= 4.03D-04 at cycle   9 NSaved=   9.
 NSaved= 9 IEnMin= 9 EnMin= -1798.27037027940     IErMin= 9 ErrMin= 4.03D-04
 ErrMax= 4.03D-04  0.00D+00 EMaxC= 1.00D+00 BMatC= 4.51D-06 BMatP= 1.12D-05
 IDIUse=1 WtCom= 1.00D+00 WtEn= 0.00D+00
 Coeff-Com:  0.223D-02 0.689D-02-0.225D-01 0.166D-01 0.169D+00-0.994D-01
 Coeff-Com: -0.565D+00-0.751D+00 0.224D+01
 Coeff:      0.223D-02 0.689D-02-0.225D-01 0.166D-01 0.169D+00-0.994D-01
 Coeff:     -0.565D+00-0.751D+00 0.224D+01
 Gap=     0.287 Goal=   None    Shift=    0.500
 RMSDP=1.10D-05 MaxDP=4.44D-04 DE=-5.52D-05 OVMax= 2.99D-03

 Cycle  10  Pass 1  IDiag  1:
 E= -1798.27039425320     Delta-E=       -0.000023973798 Rises=F Damp=F
 DIIS: error= 2.72D-04 at cycle  10 NSaved=  10.
 NSaved=10 IEnMin=10 EnMin= -1798.27039425320     IErMin=10 ErrMin= 2.72D-04
 ErrMax= 2.72D-04  0.00D+00 EMaxC= 1.00D+00 BMatC= 2.00D-06 BMatP= 4.51D-06
 IDIUse=1 WtCom= 1.00D+00 WtEn= 0.00D+00
 Coeff-Com: -0.627D-03 0.103D-01-0.196D-01-0.157D-01 0.106D+00 0.601D-01
 Coeff-Com: -0.199D+00-0.674D+00 0.873D-01 0.165D+01
 Coeff:     -0.627D-03 0.103D-01-0.196D-01-0.157D-01 0.106D+00 0.601D-01
 Coeff:     -0.199D+00-0.674D+00 0.873D-01 0.165D+01
 Gap=     0.287 Goal=   None    Shift=    0.500
 RMSDP=6.58D-06 MaxDP=2.69D-04 DE=-2.40D-05 OVMax= 1.95D-03

 Cycle  11  Pass 1  IDiag  1:
 E= -1798.27040384859     Delta-E=       -0.000009595394 Rises=F Damp=F
 DIIS: error= 1.81D-04 at cycle  11 NSaved=  11.
 NSaved=11 IEnMin=11 EnMin= -1798.27040384859     IErMin=11 ErrMin= 1.81D-04
 ErrMax= 1.81D-04  0.00D+00 EMaxC= 1.00D+00 BMatC= 8.22D-07 BMatP= 2.00D-06
 IDIUse=1 WtCom= 1.00D+00 WtEn= 0.00D+00
 Coeff-Com: -0.175D-02 0.315D-02-0.420D-03-0.127D-01-0.208D-01 0.362D-01
 Coeff-Com:  0.212D+00-0.864D-01-0.930D+00-0.167D+00 0.197D+01
 Coeff:     -0.175D-02 0.315D-02-0.420D-03-0.127D-01-0.208D-01 0.362D-01
 Coeff:      0.212D+00-0.864D-01-0.930D+00-0.167D+00 0.197D+01
 Gap=     0.288 Goal=   None    Shift=    0.500
 RMSDP=4.23D-06 MaxDP=1.81D-04 DE=-9.60D-06 OVMax= 1.32D-03

 Cycle  12  Pass 1  IDiag  1:
 E= -1798.27040776071     Delta-E=       -0.000003912117 Rises=F Damp=F
 DIIS: error= 1.19D-04 at cycle  12 NSaved=  12.
 NSaved=12 IEnMin=12 EnMin= -1798.27040776071     IErMin=12 ErrMin= 1.19D-04
 ErrMax= 1.19D-04  0.00D+00 EMaxC= 1.00D+00 BMatC= 3.52D-07 BMatP= 8.22D-07
 IDIUse=1 WtCom= 1.00D+00 WtEn= 0.00D+00
 Coeff-Com: -0.214D-03-0.242D-02 0.578D-02 0.370D-02-0.353D-01-0.301D-01
 Coeff-Com:  0.143D+00 0.128D+00-0.119D+00-0.106D+01 0.940D-01 0.187D+01
 Coeff:     -0.214D-03-0.242D-02 0.578D-02 0.370D-02-0.353D-01-0.301D-01
 Coeff:      0.143D+00 0.128D+00-0.119D+00-0.106D+01 0.940D-01 0.187D+01
 Gap=     0.288 Goal=   None    Shift=    0.500
 RMSDP=2.62D-06 MaxDP=1.17D-04 DE=-3.91D-06 OVMax= 8.58D-04

 Cycle  13  Pass 1  IDiag  1:
 E= -1798.27040932305     Delta-E=       -0.000001562335 Rises=F Damp=F
 DIIS: error= 7.68D-05 at cycle  13 NSaved=  13.
 NSaved=13 IEnMin=13 EnMin= -1798.27040932305     IErMin=13 ErrMin= 7.68D-05
 ErrMax= 7.68D-05  0.00D+00 EMaxC= 1.00D+00 BMatC= 1.44D-07 BMatP= 3.52D-07
 IDIUse=1 WtCom= 1.00D+00 WtEn= 0.00D+00
 Coeff-Com:  0.358D-03-0.528D-03-0.182D-03 0.293D-02 0.514D-02-0.164D-01
 Coeff-Com: -0.219D-01-0.139D-01 0.306D+00-0.329D+00-0.228D+00-0.114D+01
 Coeff-Com:  0.243D+01
 Coeff:      0.358D-03-0.528D-03-0.182D-03 0.293D-02 0.514D-02-0.164D-01
 Coeff:     -0.219D-01-0.139D-01 0.306D+00-0.329D+00-0.228D+00-0.114D+01
 Coeff:      0.243D+01
 Gap=     0.288 Goal=   None    Shift=    0.500
 RMSDP=1.61D-06 MaxDP=7.21D-05 DE=-1.56D-06 OVMax= 5.46D-04

 Cycle  14  Pass 1  IDiag  1:
 E= -1798.27040992913     Delta-E=       -0.000000606082 Rises=F Damp=F
 DIIS: error= 4.96D-05 at cycle  14 NSaved=  14.
 NSaved=14 IEnMin=14 EnMin= -1798.27040992913     IErMin=14 ErrMin= 4.96D-05
 ErrMax= 4.96D-05  0.00D+00 EMaxC= 1.00D+00 BMatC= 5.95D-08 BMatP= 1.44D-07
 IDIUse=1 WtCom= 1.00D+00 WtEn= 0.00D+00
 Coeff-Com:  0.158D-03 0.778D-03-0.215D-02 0.155D-03 0.121D-01 0.992D-03
 Coeff-Com: -0.410D-01-0.502D-01 0.168D+00 0.116D+00-0.640D-01-0.139D+01
 Coeff-Com:  0.732D+00 0.151D+01
 Coeff:      0.158D-03 0.778D-03-0.215D-02 0.155D-03 0.121D-01 0.992D-03
 Coeff:     -0.410D-01-0.502D-01 0.168D+00 0.116D+00-0.640D-01-0.139D+01
 Coeff:      0.732D+00 0.151D+01
 Gap=     0.288 Goal=   None    Shift=    0.500
 RMSDP=9.73D-07 MaxDP=4.20D-05 DE=-6.06D-07 OVMax= 3.49D-04

 SCF Done:  E(RLC-wHPBE) =  -1798.27040993     A.U. after   14 cycles
            NFock= 14  Conv=0.97D-06     -V/T= 2.0054
 KE= 1.788669585923D+03 PE=-1.250476995975D+04 EE= 4.759319547180D+03
 Leave Link  502 at Mon Jan 18 04:52:59 2021, MaxMem=  4026531840 cpu:            7991.6 elap:            1013.3
 (Enter /opt/ohpc/pub/libs/gaussian/g16-A.03/sandybridge/g16/l508.exe)
 QCSCF skips out because SCF is already converged.
 Leave Link  508 at Mon Jan 18 04:52:59 2021, MaxMem=  4026531840 cpu:               0.1 elap:               0.0
 (Enter /opt/ohpc/pub/libs/gaussian/g16-A.03/sandybridge/g16/l601.exe)
 Copying SCF densities to generalized density rwf, IOpCl= 0 IROHF=0.

 **********************************************************************

            Population analysis using the SCF density.

 **********************************************************************

 Orbital symmetries:
       Occupied  (A) (A) (A) (A) (A) (A) (A) (A) (A) (A) (A) (A)
                 (A) (A) (A) (A) (A) (A) (A) (A) (A) (A) (A) (A)
                 (A) (A) (A) (A) (A) (A) (A) (A) (A) (A) (A) (A)
                 (A) (A) (A) (A) (A) (A) (A) (A) (A) (A) (A) (A)
                 (A) (A) (A) (A) (A) (A) (A) (A) (A) (A) (A) (A)
                 (A) (A) (A) (A) (A) (A) (A) (A) (A) (A) (A) (A)
                 (A) (A) (A) (A) (A) (A) (A) (A) (A) (A) (A) (A)
                 (A) (A) (A) (A) (A) (A) (A) (A) (A) (A) (A) (A)
                 (A) (A) (A) (A) (A) (A) (A) (A) (A) (A) (A) (A)
                 (A) (A) (A) (A) (A) (A) (A) (A) (A) (A) (A) (A)
                 (A) (A) (A) (A) (A) (A) (A) (A) (A) (A) (A) (A)
                 (A) (A) (A) (A) (A) (A) (A) (A) (A) (A) (A) (A)
                 (A)
       Virtual   (A) (A) (A) (A) (A) (A) (A) (A) (A) (A) (A) (A)
                 (A) (A) (A) (A) (A) (A) (A) (A) (A) (A) (A) (A)
                 (A) (A) (A) (A) (A) (A) (A) (A) (A) (A) (A) (A)
                 (A) (A) (A) (A) (A) (A) (A) (A) (A) (A) (A) (A)
                 (A) (A) (A) (A) (A) (A) (A) (A) (A) (A) (A) (A)
                 (A) (A) (A) (A) (A) (A) (A) (A) (A) (A) (A) (A)
                 (A) (A) (A) (A) (A) (A) (A) (A) (A) (A) (A) (A)
                 (A) (A) (A) (A) (A) (A) (A) (A) (A) (A) (A) (A)
                 (A) (A) (A) (A) (A) (A) (A) (A) (A) (A) (A) (A)
                 (A) (A) (A) (A) (A) (A) (A) (A) (A) (A) (A) (A)
                 (A) (A) (A) (A) (A) (A) (A) (A) (A) (A) (A) (A)
                 (A) (A) (A) (A) (A) (A) (A) (A) (A) (A) (A) (A)
                 (A) (A) (A) (A) (A) (A) (A) (A) (A) (A) (A) (A)
                 (A) (A) (A) (A) (A) (A) (A) (A) (A) (A) (A) (A)
                 (A) (A) (A) (A) (A) (A) (A) (A) (A) (A) (A) (A)
                 (A) (A) (A) (A) (A) (A) (A) (A) (A) (A) (A) (A)
                 (A) (A) (A) (A) (A) (A) (A) (A) (A) (A) (A) (A)
                 (A) (A) (A) (A) (A) (A) (A) (A) (A) (A) (A) (A)
                 (A) (A) (A) (A) (A) (A) (A) (A) (A) (A) (A) (A)
                 (A) (A) (A) (A) (A) (A) (A) (A) (A) (A) (A) (A)
                 (A) (A) (A) (A) (A) (A) (A) (A) (A) (A) (A) (A)
                 (A) (A) (A) (A) (A) (A) (A) (A) (A) (A) (A) (A)
                 (A) (A) (A) (A) (A) (A) (A) (A) (A) (A) (A) (A)
                 (A) (A) (A) (A) (A) (A) (A) (A) (A) (A) (A) (A)
                 (A) (A) (A) (A) (A) (A) (A) (A) (A) (A) (A) (A)
                 (A) (A) (A) (A) (A) (A) (A) (A) (A) (A) (A) (A)
                 (A) (A) (A) (A) (A) (A) (A) (A) (A) (A) (A) (A)
                 (A) (A) (A) (A) (A) (A) (A) (A) (A) (A) (A) (A)
                 (A) (A) (A) (A) (A) (A) (A) (A) (A) (A) (A) (A)
                 (A) (A) (A) (A) (A) (A) (A) (A) (A) (A) (A) (A)
                 (A) (A) (A) (A) (A) (A) (A) (A) (A) (A) (A) (A)
                 (A) (A) (A) (A) (A) (A) (A) (A) (A) (A) (A) (A)
                 (A) (A) (A) (A) (A) (A) (A) (A) (A) (A) (A) (A)
                 (A) (A) (A) (A) (A) (A) (A) (A) (A) (A) (A) (A)
                 (A) (A) (A) (A) (A) (A) (A) (A) (A) (A) (A) (A)
                 (A) (A) (A) (A) (A) (A) (A) (A) (A) (A) (A) (A)
                 (A) (A) (A) (A) (A) (A) (A) (A) (A) (A) (A) (A)
                 (A) (A) (A) (A) (A) (A) (A) (A) (A) (A) (A) (A)
                 (A) (A) (A) (A) (A) (A) (A) (A) (A) (A) (A) (A)
                 (A) (A) (A) (A) (A) (A) (A) (A) (A) (A) (A) (A)
                 (A) (A) (A) (A) (A) (A) (A) (A) (A) (A) (A) (A)
                 (A) (A) (A) (A) (A) (A) (A) (A) (A) (A) (A) (A)
                 (A) (A) (A) (A) (A) (A) (A) (A) (A) (A) (A) (A)
                 (A) (A) (A) (A) (A) (A) (A) (A) (A) (A) (A) (A)
                 (A) (A) (A) (A) (A) (A) (A) (A) (A) (A) (A) (A)
                 (A) (A) (A) (A) (A) (A) (A) (A) (A) (A) (A) (A)
                 (A) (A) (A) (A) (A) (A) (A) (A) (A) (A) (A) (A)
                 (A) (A) (A) (A) (A) (A) (A) (A) (A) (A) (A) (A)
                 (A) (A) (A) (A) (A) (A) (A) (A) (A) (A) (A) (A)
                 (A) (A) (A) (A) (A) (A) (A) (A) (A) (A) (A) (A)
                 (A) (A) (A) (A) (A) (A) (A) (A) (A) (A) (A) (A)
                 (A) (A) (A) (A) (A) (A) (A) (A) (A) (A) (A) (A)
                 (A) (A) (A) (A) (A) (A) (A) (A) (A) (A) (A) (A)
                 (A) (A) (A) (A) (A) (A) (A) (A) (A) (A) (A) (A)
                 (A) (A) (A) (A) (A) (A) (A) (A) (A) (A) (A) (A)
                 (A) (A) (A) (A) (A) (A) (A) (A) (A) (A) (A) (A)
                 (A) (A) (A) (A) (A) (A) (A) (A) (A) (A) (A) (A)
                 (A) (A) (A) (A) (A) (A) (A) (A) (A) (A) (A) (A)
                 (A) (A) (A) (A) (A) (A) (A) (A) (A) (A) (A) (A)
                 (A) (A) (A) (A) (A) (A) (A) (A) (A) (A) (A) (A)
                 (A) (A) (A) (A) (A) (A) (A) (A) (A) (A) (A) (A)
                 (A) (A) (A) (A) (A) (A) (A) (A) (A) (A) (A) (A)
                 (A) (A) (A) (A) (A) (A) (A) (A) (A) (A) (A) (A)
                 (A) (A) (A) (A) (A) (A) (A) (A) (A) (A) (A) (A)
                 (A) (A) (A) (A) (A) (A) (A) (A) (A) (A) (A) (A)
                 (A) (A) (A) (A) (A) (A) (A) (A) (A) (A) (A) (A)
                 (A) (A) (A) (A) (A) (A) (A) (A) (A) (A) (A) (A)
                 (A) (A) (A) (A) (A) (A) (A) (A) (A) (A) (A) (A)
                 (A) (A) (A) (A) (A)
 The electronic state is 1-A.
 Alpha  occ. eigenvalues --  -18.96205 -18.96200 -18.96146 -18.96073 -14.19575
 Alpha  occ. eigenvalues --  -14.19517 -10.13589 -10.13588 -10.13527 -10.13455
 Alpha  occ. eigenvalues --  -10.11302 -10.11274 -10.11097 -10.11091 -10.11039
 Alpha  occ. eigenvalues --  -10.10996 -10.07983 -10.07978 -10.07928 -10.07888
 Alpha  occ. eigenvalues --  -10.07885 -10.07853 -10.07824 -10.07765 -10.07712
 Alpha  occ. eigenvalues --  -10.07711 -10.07653 -10.07591 -10.07571 -10.07555
 Alpha  occ. eigenvalues --  -10.07316 -10.07315 -10.07254 -10.07195 -10.07048
 Alpha  occ. eigenvalues --  -10.07040 -10.07034 -10.07032 -10.06715 -10.06709
 Alpha  occ. eigenvalues --  -10.06706 -10.06701  -1.16041  -1.16037  -1.15981
 Alpha  occ. eigenvalues --   -1.15909  -1.07515  -1.07454  -0.98186  -0.97561
 Alpha  occ. eigenvalues --   -0.97477  -0.96972  -0.95817  -0.94674  -0.89106
 Alpha  occ. eigenvalues --   -0.87298  -0.87236  -0.87191  -0.86819  -0.86649
 Alpha  occ. eigenvalues --   -0.86472  -0.85756  -0.85160  -0.85129  -0.82591
 Alpha  occ. eigenvalues --   -0.80445  -0.75813  -0.75014  -0.74382  -0.74260
 Alpha  occ. eigenvalues --   -0.73955  -0.73153  -0.72727  -0.72065  -0.70789
 Alpha  occ. eigenvalues --   -0.70163  -0.69171  -0.68032  -0.66165  -0.66027
 Alpha  occ. eigenvalues --   -0.65908  -0.65864  -0.65052  -0.64223  -0.63503
 Alpha  occ. eigenvalues --   -0.63021  -0.60934  -0.59569  -0.59354  -0.58000
 Alpha  occ. eigenvalues --   -0.57644  -0.57328  -0.55481  -0.55270  -0.55192
 Alpha  occ. eigenvalues --   -0.55157  -0.54707  -0.54575  -0.54338  -0.53394
 Alpha  occ. eigenvalues --   -0.53308  -0.53269  -0.53091  -0.52911  -0.52778
 Alpha  occ. eigenvalues --   -0.52686  -0.52598  -0.52433  -0.52230  -0.52012
 Alpha  occ. eigenvalues --   -0.51685  -0.50514  -0.50462  -0.50067  -0.49192
 Alpha  occ. eigenvalues --   -0.48880  -0.48465  -0.48164  -0.47894  -0.47657
 Alpha  occ. eigenvalues --   -0.46295  -0.46009  -0.45654  -0.45576  -0.44864
 Alpha  occ. eigenvalues --   -0.44606  -0.44517  -0.44184  -0.44119  -0.43932
 Alpha  occ. eigenvalues --   -0.43259  -0.40841  -0.39255  -0.36404  -0.36345
 Alpha  occ. eigenvalues --   -0.36011  -0.35622  -0.35085  -0.34857  -0.34855
 Alpha  occ. eigenvalues --   -0.33013  -0.32878  -0.32435  -0.26986  -0.25291
 Alpha virt. eigenvalues --    0.03461   0.04307   0.04401   0.06138   0.06230
 Alpha virt. eigenvalues --    0.06631   0.06737   0.07118   0.07413   0.07593
 Alpha virt. eigenvalues --    0.10154   0.10802   0.10860   0.10882   0.10962
 Alpha virt. eigenvalues --    0.12210   0.12941   0.13219   0.14137   0.14259
 Alpha virt. eigenvalues --    0.14346   0.15028   0.15300   0.16022   0.16075
 Alpha virt. eigenvalues --    0.16283   0.16413   0.16912   0.17090   0.17535
 Alpha virt. eigenvalues --    0.18200   0.18390   0.19212   0.19423   0.19730
 Alpha virt. eigenvalues --    0.19844   0.19992   0.20169   0.20969   0.21351
 Alpha virt. eigenvalues --    0.22478   0.22767   0.22826   0.23152   0.23859
 Alpha virt. eigenvalues --    0.23933   0.24257   0.24343   0.24637   0.24871
 Alpha virt. eigenvalues --    0.25476   0.25599   0.26091   0.26590   0.27109
 Alpha virt. eigenvalues --    0.27194   0.27253   0.27302   0.28110   0.28546
 Alpha virt. eigenvalues --    0.28710   0.29081   0.29287   0.29491   0.29747
 Alpha virt. eigenvalues --    0.29798   0.30004   0.30710   0.31227   0.31307
 Alpha virt. eigenvalues --    0.31432   0.31493   0.31614   0.31765   0.31907
 Alpha virt. eigenvalues --    0.32002   0.32267   0.32760   0.33208   0.33478
 Alpha virt. eigenvalues --    0.33543   0.33667   0.33700   0.34036   0.34427
 Alpha virt. eigenvalues --    0.34566   0.34769   0.35150   0.35225   0.35272
 Alpha virt. eigenvalues --    0.35878   0.36192   0.36520   0.37043   0.37254
 Alpha virt. eigenvalues --    0.37603   0.37722   0.37947   0.38127   0.38248
 Alpha virt. eigenvalues --    0.38338   0.38591   0.38713   0.39023   0.39529
 Alpha virt. eigenvalues --    0.39973   0.40267   0.41093   0.41147   0.41192
 Alpha virt. eigenvalues --    0.41465   0.41611   0.41808   0.41948   0.42432
 Alpha virt. eigenvalues --    0.42529   0.42834   0.43132   0.43432   0.44030
 Alpha virt. eigenvalues --    0.44111   0.44375   0.44786   0.45048   0.45263
 Alpha virt. eigenvalues --    0.45474   0.45676   0.45896   0.46326   0.46475
 Alpha virt. eigenvalues --    0.46619   0.46694   0.46894   0.47062   0.47250
 Alpha virt. eigenvalues --    0.47494   0.47531   0.47704   0.47739   0.47896
 Alpha virt. eigenvalues --    0.47979   0.48295   0.48377   0.48502   0.48914
 Alpha virt. eigenvalues --    0.49078   0.49430   0.49600   0.49690   0.49697
 Alpha virt. eigenvalues --    0.50185   0.50306   0.50349   0.50761   0.51440
 Alpha virt. eigenvalues --    0.51586   0.52093   0.52137   0.52329   0.52732
 Alpha virt. eigenvalues --    0.53009   0.53160   0.53622   0.53820   0.54100
 Alpha virt. eigenvalues --    0.54271   0.54526   0.54606   0.54731   0.55057
 Alpha virt. eigenvalues --    0.55252   0.55404   0.56368   0.56519   0.56664
 Alpha virt. eigenvalues --    0.56892   0.57079   0.57337   0.57475   0.57826
 Alpha virt. eigenvalues --    0.58056   0.58167   0.58406   0.58547   0.58655
 Alpha virt. eigenvalues --    0.59176   0.59447   0.59693   0.60354   0.60904
 Alpha virt. eigenvalues --    0.61080   0.61283   0.61480   0.61548   0.62595
 Alpha virt. eigenvalues --    0.63151   0.63324   0.63436   0.63488   0.64016
 Alpha virt. eigenvalues --    0.64180   0.64303   0.64582   0.64920   0.65533
 Alpha virt. eigenvalues --    0.65952   0.66075   0.66426   0.66642   0.66929
 Alpha virt. eigenvalues --    0.67083   0.67226   0.67351   0.67441   0.67673
 Alpha virt. eigenvalues --    0.68079   0.68297   0.70006   0.70631   0.71168
 Alpha virt. eigenvalues --    0.71557   0.72211   0.72460   0.72731   0.73514
 Alpha virt. eigenvalues --    0.74017   0.74285   0.75371   0.75505   0.75800
 Alpha virt. eigenvalues --    0.76131   0.76232   0.76586   0.77045   0.77260
 Alpha virt. eigenvalues --    0.77275   0.77509   0.77984   0.78312   0.78573
 Alpha virt. eigenvalues --    0.79101   0.79259   0.79754   0.80144   0.80430
 Alpha virt. eigenvalues --    0.81059   0.81367   0.81664   0.81675   0.82200
 Alpha virt. eigenvalues --    0.82635   0.82740   0.83229   0.83691   0.84448
 Alpha virt. eigenvalues --    0.84619   0.84788   0.85328   0.85642   0.85974
 Alpha virt. eigenvalues --    0.86223   0.86542   0.87848   0.88360   0.88423
 Alpha virt. eigenvalues --    0.89213   0.89538   0.90287   0.90394   0.91608
 Alpha virt. eigenvalues --    0.91814   0.93040   0.93306   0.93760   0.94549
 Alpha virt. eigenvalues --    0.95358   0.95946   0.96402   0.96792   0.97180
 Alpha virt. eigenvalues --    0.97328   0.98343   0.98675   1.00798   1.02435
 Alpha virt. eigenvalues --    1.02539   1.02579   1.04880   1.05056   1.23064
 Alpha virt. eigenvalues --    1.24676   1.25715   1.25822   1.25897   1.31168
 Alpha virt. eigenvalues --    1.31344   1.31716   1.32087   1.32678   1.32807
 Alpha virt. eigenvalues --    1.32884   1.33065   1.33396   1.33879   1.33954
 Alpha virt. eigenvalues --    1.34346   1.34475   1.34573   1.34828   1.35125
 Alpha virt. eigenvalues --    1.35152   1.35246   1.36370   1.37123   1.37247
 Alpha virt. eigenvalues --    1.37802   1.37914   1.37982   1.38203   1.38814
 Alpha virt. eigenvalues --    1.38962   1.39367   1.40049   1.40108   1.40317
 Alpha virt. eigenvalues --    1.40725   1.41500   1.41659   1.42013   1.42295
 Alpha virt. eigenvalues --    1.42590   1.42840   1.42948   1.43118   1.43415
 Alpha virt. eigenvalues --    1.43829   1.44334   1.44504   1.44765   1.44902
 Alpha virt. eigenvalues --    1.44990   1.45228   1.46207   1.47018   1.47263
 Alpha virt. eigenvalues --    1.47806   1.47964   1.50715   1.50763   1.50799
 Alpha virt. eigenvalues --    1.50890   1.51274   1.51548   1.51622   1.51790
 Alpha virt. eigenvalues --    1.51852   1.51991   1.52085   1.52142   1.52495
 Alpha virt. eigenvalues --    1.52714   1.53208   1.53653   1.53760   1.53829
 Alpha virt. eigenvalues --    1.53915   1.54197   1.54336   1.54617   1.54794
 Alpha virt. eigenvalues --    1.55188   1.55415   1.55909   1.56285   1.56541
 Alpha virt. eigenvalues --    1.56784   1.56836   1.56968   1.57257   1.57375
 Alpha virt. eigenvalues --    1.57568   1.57785   1.58003   1.58183   1.58372
 Alpha virt. eigenvalues --    1.58475   1.58881   1.60159   1.60354   1.61065
 Alpha virt. eigenvalues --    1.61150   1.61486   1.61627   1.61877   1.62043
 Alpha virt. eigenvalues --    1.62150   1.62405   1.62498   1.62605   1.62652
 Alpha virt. eigenvalues --    1.62796   1.62876   1.63343   1.63631   1.63807
 Alpha virt. eigenvalues --    1.63948   1.64010   1.64241   1.64337   1.64936
 Alpha virt. eigenvalues --    1.65171   1.65817   1.65916   1.66100   1.66139
 Alpha virt. eigenvalues --    1.66540   1.66820   1.67238   1.67662   1.67752
 Alpha virt. eigenvalues --    1.68099   1.68253   1.68436   1.69336   1.69814
 Alpha virt. eigenvalues --    1.70077   1.70236   1.70964   1.71667   1.71795
 Alpha virt. eigenvalues --    1.73778   1.74202   1.75006   1.75458   1.76387
 Alpha virt. eigenvalues --    1.76593   1.76720   1.77098   1.78785   1.79612
 Alpha virt. eigenvalues --    1.80953   1.81449   1.81485   1.82070   1.83944
 Alpha virt. eigenvalues --    1.84366   1.84667   1.85199   1.85366   1.85480
 Alpha virt. eigenvalues --    1.85787   1.86017   1.86377   1.86431   1.86875
 Alpha virt. eigenvalues --    1.87184   1.87485   1.87585   1.87781   1.88372
 Alpha virt. eigenvalues --    1.88537   1.88699   1.88965   1.89336   1.89590
 Alpha virt. eigenvalues --    1.89978   1.90001   1.90628   1.90989   1.91513
 Alpha virt. eigenvalues --    1.92168   1.92499   1.92768   1.93153   1.93996
 Alpha virt. eigenvalues --    1.94191   1.94995   1.95051   1.95146   1.95620
 Alpha virt. eigenvalues --    1.95659   1.96095   1.97121   1.97592   1.98033
 Alpha virt. eigenvalues --    1.98173   1.98338   1.99033   1.99637   1.99815
 Alpha virt. eigenvalues --    2.00122   2.00196   2.00614   2.00736   2.00970
 Alpha virt. eigenvalues --    2.01119   2.01358   2.02002   2.02076   2.02397
 Alpha virt. eigenvalues --    2.02571   2.02830   2.03900   2.04173   2.04776
 Alpha virt. eigenvalues --    2.05645   2.05686   2.06662   2.07908   2.07987
 Alpha virt. eigenvalues --    2.08106   2.08812   2.09103   2.09277   2.09488
 Alpha virt. eigenvalues --    2.09638   2.09838   2.10247   2.10978   2.11295
 Alpha virt. eigenvalues --    2.11668   2.12468   2.12690   2.14015   2.14095
 Alpha virt. eigenvalues --    2.15565   2.16178   2.16579   2.16723   2.17187
 Alpha virt. eigenvalues --    2.17617   2.18023   2.18240   2.18906   2.19836
 Alpha virt. eigenvalues --    2.20353   2.23332   2.24597   2.25419   2.25831
 Alpha virt. eigenvalues --    2.27372   2.27526   2.27633   2.28136   2.28304
 Alpha virt. eigenvalues --    2.29348   2.29700   2.29929   2.30070   2.30999
 Alpha virt. eigenvalues --    2.31951   2.32109   2.32882   2.33090   2.33165
 Alpha virt. eigenvalues --    2.34184   2.36139   2.36313   2.38381   2.38551
 Alpha virt. eigenvalues --    2.38925   2.39232   2.39321   2.39364   2.39617
 Alpha virt. eigenvalues --    2.39730   2.39885   2.40306   2.40415   2.40759
 Alpha virt. eigenvalues --    2.41105   2.41424   2.41820   2.42133   2.42646
 Alpha virt. eigenvalues --    2.42700   2.42859   2.43049   2.43808   2.43886
 Alpha virt. eigenvalues --    2.44218   2.44521   2.45404   2.45464   2.45619
 Alpha virt. eigenvalues --    2.45753   2.45823   2.45972   2.46089   2.46139
 Alpha virt. eigenvalues --    2.46314   2.46457   2.46584   2.46793   2.47496
 Alpha virt. eigenvalues --    2.47533   2.48051   2.48487   2.50083   2.52167
 Alpha virt. eigenvalues --    2.52751   2.52997   2.54888   2.55985   2.56128
 Alpha virt. eigenvalues --    2.56297   2.56327   2.56410   2.57530   2.58297
 Alpha virt. eigenvalues --    2.61194   2.61273   2.62416   2.62879   2.64325
 Alpha virt. eigenvalues --    2.64412   2.64817   2.64843   2.65188   2.66821
 Alpha virt. eigenvalues --    2.66994   2.67200   2.67750   2.68378   2.68806
 Alpha virt. eigenvalues --    2.69148   2.69424   2.69632   2.69721   2.70071
 Alpha virt. eigenvalues --    2.70150   2.70520   2.72560   2.72749   2.72883
 Alpha virt. eigenvalues --    2.73051   2.73119   2.73720   2.73932   2.74756
 Alpha virt. eigenvalues --    2.75078   2.75951   2.76501   2.77442   2.78113
 Alpha virt. eigenvalues --    2.78281   2.78908   2.79682   2.81568   2.81671
 Alpha virt. eigenvalues --    2.82130   2.82246   2.83737   2.84584   2.84890
 Alpha virt. eigenvalues --    2.85662   2.85957   2.86697   2.87133   2.87440
 Alpha virt. eigenvalues --    2.87784   2.89354   2.90726   2.91315   2.91880
 Alpha virt. eigenvalues --    2.92020   2.93172   2.93696   2.94152   2.94243
 Alpha virt. eigenvalues --    2.94526   2.94757   2.96261   2.97067   3.01446
 Alpha virt. eigenvalues --    3.01467   3.01525   3.01660   3.01847   3.02032
 Alpha virt. eigenvalues --    3.02275   3.02666   3.03828   3.04088   3.04529
 Alpha virt. eigenvalues --    3.05344   3.06866   3.06928   3.06967   3.07005
 Alpha virt. eigenvalues --    3.07615   3.07876   3.08653   3.08779   3.11256
 Alpha virt. eigenvalues --    3.11625   3.11791   3.12038   3.12105   3.12412
 Alpha virt. eigenvalues --    3.13501   3.13985   3.14978   3.15238   3.16346
 Alpha virt. eigenvalues --    3.16557   3.16737   3.17100   3.18693   3.20326
 Alpha virt. eigenvalues --    3.20692   3.20788   3.20926   3.21916   3.22433
 Alpha virt. eigenvalues --    3.22503   3.22709   3.22804   3.25838   3.26049
 Alpha virt. eigenvalues --    3.26343   3.26743   3.26774   3.28103   3.30393
 Alpha virt. eigenvalues --    3.30867   3.31025   3.31177   3.31450   3.31890
 Alpha virt. eigenvalues --    3.32247   3.32684   3.32760   3.34133   3.34663
 Alpha virt. eigenvalues --    3.35502   3.36352   3.36787   3.38449   3.39149
 Alpha virt. eigenvalues --    3.39226   3.40608   3.41301   3.43163   3.43474
 Alpha virt. eigenvalues --    3.44946   3.45628   3.46566   3.46700   3.46763
 Alpha virt. eigenvalues --    3.49053   3.49240   3.49824   3.53504   3.53844
 Alpha virt. eigenvalues --    3.60741   3.60926   3.62643   3.63585   3.64219
 Alpha virt. eigenvalues --    3.65273   3.65602   3.65672   3.66934   3.68985
 Alpha virt. eigenvalues --    3.77866   3.81158   3.91727   3.91894   3.95376
 Alpha virt. eigenvalues --    3.99652   4.13639   4.13701   4.14414   4.14541
 Alpha virt. eigenvalues --    4.38380   4.38460   4.38470   4.38557  21.24377
 Alpha virt. eigenvalues --   21.32066  21.32164  21.33590  21.33913  21.45026
 Alpha virt. eigenvalues --   21.76240  21.76479  21.76686  21.79461  21.79876
 Alpha virt. eigenvalues --   21.80228  21.82981  21.84095  21.86668  21.91136
 Alpha virt. eigenvalues --   21.91663  21.97762  21.98103  22.02175  22.02347
 Alpha virt. eigenvalues --   22.02976  22.04227  22.04974  22.05466  22.07636
 Alpha virt. eigenvalues --   22.09426  22.09788  22.09873  22.11386  22.15784
 Alpha virt. eigenvalues --   22.16596  22.21647  22.22845  22.23508  22.24100
 Alpha virt. eigenvalues --   32.13911  32.14928  43.32553  43.32668  43.32764
 Alpha virt. eigenvalues --   43.32846
          Condensed to atoms (all electrons):
 Mulliken charges:
               1
     1  C   -0.159676
     2  C   -0.000926
     3  C   -0.165722
     4  C   -0.159613
     5  C    0.015136
     6  C   -0.165641
     7  H    0.144041
     8  H    0.171869
     9  H    0.145631
    10  C    0.015565
    11  C   -0.165880
    12  C   -0.165606
    13  C   -0.157015
    14  C   -0.160498
    15  C   -0.006069
    16  H    0.145341
    17  H    0.145479
    18  H    0.171870
    19  H    0.171073
    20  H    0.171597
    21  N   -0.049699
    22  C   -0.126308
    23  C   -0.074064
    24  C   -0.099141
    25  C   -0.213009
    26  C   -0.187973
    27  C    0.108133
    28  H    0.161291
    29  H    0.169503
    30  H    0.140525
    31  H    0.128057
    32  C   -0.120081
    33  C   -0.098883
    34  C   -0.079184
    35  C   -0.185103
    36  C   -0.210177
    37  C    0.105169
    38  H    0.162719
    39  H    0.168438
    40  H    0.128813
    41  H    0.140468
    42  N   -0.048850
    43  C   -0.129202
    44  C   -0.097811
    45  C   -0.073708
    46  C   -0.186110
    47  C   -0.211178
    48  C    0.105903
    49  H    0.162073
    50  H    0.168062
    51  H    0.129072
    52  H    0.140470
    53  C   -0.127599
    54  C   -0.098550
    55  C   -0.074859
    56  C   -0.186083
    57  C   -0.211095
    58  C    0.105695
    59  H    0.162101
    60  H    0.168592
    61  H    0.128939
    62  H    0.140657
    63  O   -0.252720
    64  H    0.271039
    65  O   -0.252708
    66  H    0.271116
    67  O   -0.252982
    68  H    0.271072
    69  O   -0.252859
    70  H    0.271072
 Sum of Mulliken charges =  -0.00000
 Mulliken charges with hydrogens summed into heavy atoms:
               1
     1  C    0.011922
     2  C   -0.000926
     3  C   -0.021681
     4  C    0.012256
     5  C    0.015136
     6  C   -0.020011
    10  C    0.015565
    11  C   -0.020539
    12  C   -0.020127
    13  C    0.014855
    14  C    0.010575
    15  C   -0.006069
    21  N   -0.049699
    22  C   -0.126308
    23  C    0.087227
    24  C    0.070362
    25  C   -0.072483
    26  C   -0.059916
    27  C    0.108133
    32  C   -0.120081
    33  C    0.063836
    34  C    0.089254
    35  C   -0.056290
    36  C   -0.069709
    37  C    0.105169
    42  N   -0.048850
    43  C   -0.129202
    44  C    0.064263
    45  C    0.094354
    46  C   -0.057039
    47  C   -0.070708
    48  C    0.105903
    53  C   -0.127599
    54  C    0.063551
    55  C    0.093734
    56  C   -0.057144
    57  C   -0.070437
    58  C    0.105695
    63  O    0.018319
    65  O    0.018408
    67  O    0.018090
    69  O    0.018213
 Electronic spatial extent (au):  <R**2>=          43190.8524
 Charge=             -0.0000 electrons
 Dipole moment (field-independent basis, Debye):
    X=              1.7287    Y=             -0.4357    Z=              2.1075  Tot=              2.7604
 Quadrupole moment (field-independent basis, Debye-Ang):
   XX=           -192.2304   YY=           -233.9697   ZZ=           -240.7294
   XY=             -5.3782   XZ=            -15.1110   YZ=            -12.3755
 Traceless Quadrupole moment (field-independent basis, Debye-Ang):
   XX=             30.0794   YY=            -11.6598   ZZ=            -18.4196
   XY=             -5.3782   XZ=            -15.1110   YZ=            -12.3755
 Octapole moment (field-independent basis, Debye-Ang**2):
  XXX=            355.1514  YYY=            -39.7849  ZZZ=             15.2754  XYY=             11.2088
  XXY=            124.3082  XXZ=            104.7758  XZZ=            -49.9605  YZZ=            -35.6541
  YYZ=             68.5005  XYZ=            -76.7511
 Hexadecapole moment (field-independent basis, Debye-Ang**3):
 XXXX=         -41329.1978 YYYY=          -9048.9324 ZZZZ=          -1548.9476 XXXY=          -1643.2387
 XXXZ=           -688.2608 YYYX=             76.6206 YYYZ=           -380.2399 ZZZX=           -119.0243
 ZZZY=            -84.7243 XXYY=          -8350.2994 XXZZ=          -8440.4507 YYZZ=          -1727.6057
 XXYZ=           -609.2736 YYXZ=           -489.0570 ZZXY=            264.3871
 N-N= 4.158510416716D+03 E-N=-1.250476977175D+04  KE= 1.788669585923D+03
 No NMR shielding tensors so no spin-rotation constants.
 Leave Link  601 at Mon Jan 18 04:53:00 2021, MaxMem=  4026531840 cpu:               6.1 elap:               1.0
 (Enter /opt/ohpc/pub/libs/gaussian/g16-A.03/sandybridge/g16/l9999.exe)

 Test job not archived.
 1\1\GINC-CASCADEB037\SP\RLC-wHPBE\TZVP\C36H28N2O4\RDU230\18-Jan-2021\0
 \\#P LC-wHPBE/TZVP iop(3/107=0328100000, 3/108=0328100000) scf=(conver
 =6,fermi,ndamp=35,noincfock,novaracc,vshift=500,xqc)\\H28 C36 N2 O4\\0
 ,1\C,0,2.858499,1.142103,-0.374244\C,0,3.579312,-0.001087,0.003359\C,0
 ,1.469111,1.138314,-0.362939\C,0,2.858875,-1.143435,0.384264\C,0,0.739
 097,0.000512,0.009817\C,0,1.469477,-1.138129,0.379362\H,0,0.937192,2.0
 33473,-0.688815\H,0,3.397761,-2.037798,0.696269\H,0,0.938071,-2.032504
 ,0.708142\C,0,-0.742883,0.001384,0.012974\C,0,-1.474511,-1.130858,-0.3
 72988\C,0,-1.47149,1.134716,0.402503\C,0,-2.8641,-1.134318,-0.378218\C
 ,0,-2.860735,1.140009,0.413286\C,0,-3.582937,0.003346,0.018716\H,0,-0.
 94411,-2.02123,-0.714069\H,0,-0.938347,2.023708,0.742945\H,0,-3.404263
 ,-2.023625,-0.702274\H,0,-3.398798,2.029064,0.741639\H,0,3.397024,2.03
 5914,-0.688457\N,0,-4.995311,0.005703,0.022721\C,0,-5.713915,1.18551,-
 0.315496\C,0,-6.824749,1.586223,0.439679\C,0,-5.336499,1.964565,-1.414
 395\C,0,-7.543368,2.726588,0.103607\C,0,-6.037549,3.122582,-1.739703\C
 ,0,-7.148838,3.50571,-0.986012\H,0,-7.129554,0.987536,1.298124\H,0,-4.
 477812,1.664402,-2.014832\H,0,-8.408278,3.036049,0.689802\H,0,-5.72457
 ,3.720924,-2.59898\C,0,-5.717056,-1.178925,0.336296\C,0,-6.821807,-1.5
 65845,-0.429047\C,0,-5.346761,-1.975943,1.428789\C,0,-7.543924,-2.7122
 98,-0.10728\C,0,-6.0478,-3.134194,1.738027\C,0,-7.155651,-3.506391,0.9
 73222\H,0,-7.124426,-0.956025,-1.280239\H,0,-4.491517,-1.682511,2.0375
 55\H,0,-8.407549,-2.995534,-0.714075\H,0,-5.757368,-3.754511,2.585554\
 N,0,4.991423,-0.001999,0.00006\C,0,5.710552,-1.183762,-0.330631\C,0,6.
 812654,-1.584277,0.431608\C,0,5.340603,-1.964026,-1.435102\C,0,7.53257
 2,-2.727778,0.095183\C,0,6.039551,-3.119564,-1.759528\C,0,7.144632,-3.
 505373,-0.997606\H,0,7.113605,-0.987752,1.292811\H,0,4.486562,-1.66032
 3,-2.040543\H,0,8.393358,-3.022713,0.700462\H,0,5.749024,-3.727528,-2.
 615933\C,0,5.713955,1.17869,0.326778\C,0,6.814458,1.575861,-0.439552\C
 ,0,5.349314,1.961286,1.431414\C,0,7.537888,2.718318,-0.107058\C,0,6.05
 1756,3.115796,1.751909\C,0,7.155153,3.498257,0.985865\H,0,7.111509,0.9
 77436,-1.300789\H,0,4.49683,1.660119,2.040298\H,0,8.397429,3.010471,-0
 .715458\H,0,5.765438,3.72535,2.608604\O,0,7.820509,4.641023,1.355507\H
 ,0,8.555246,4.78867,0.739309\O,0,7.806379,-4.648952,-1.371018\H,0,8.54
 1702,-4.800061,-0.75635\O,0,-7.887404,4.628973,-1.265636\H,0,-7.503413
 ,5.071476,-2.03899\O,0,-7.819547,-4.653451,1.332021\H,0,-8.560354,-4.7
 90553,0.720672\\Version=EM64L-G16RevA.03\State=1-A\HF=-1798.2704099\RM
 SD=9.732e-07\Dipole=0.680134,0.1714249,-0.8291652\Quadrupole=22.363309
 5,-8.6688106,-13.6944989,3.9985375,11.2346767,-9.2008469\PG=C01 [X(C36
 H28N2O4)]\\@


 EVANS BOLDLY PUT 50 ATM. OF ETHYLENE IN A CELL WITH 25 ATM. OF OXYGEN.
 THE APPARATUS SUBSEQUENTLY BLEW UP, BUT LUCKILY NOT BEFORE HE
 OBTAINED THE SPECTRA SHOWN IN FIGURE 8.
 A.J.MERER AND R.S.MULLIKEN, CHEM.REV. 69, 645 (1969)
 Job cpu time:       0 days  2 hours 15 minutes 12.6 seconds.
 Elapsed time:       0 days  0 hours 17 minutes  9.0 seconds.
 File lengths (MBytes):  RWF=    332 Int=      0 D2E=      0 Chk=     60 Scr=      8
 Normal termination of Gaussian 16 at Mon Jan 18 04:53:00 2021.
