 Entering Gaussian System, Link 0=g16
 Input=mol_bp_ma_whol_tune_n11.gjf
 Output=mol_bp_ma_whol_tune_n11.log
 Initial command:
 /opt/ohpc/pub/libs/gaussian/g16-A.03/sandybridge/g16/l1.exe "/mnt/gpfs2_4m/scratch/rdu230/ondemand/projects/init_structures/wtuning/mol_bp_ma_whol/tuning_mol_bp_ma_whol_ocycle0/Gau-85883.inp" -scrdir="/mnt/gpfs2_4m/scratch/rdu230/ondemand/projects/init_structures/wtuning/mol_bp_ma_whol/tuning_mol_bp_ma_whol_ocycle0/"
 Entering Link 1 = /opt/ohpc/pub/libs/gaussian/g16-A.03/sandybridge/g16/l1.exe PID=     85884.
  
 Copyright (c) 1988,1990,1992,1993,1995,1998,2003,2009,2016,
            Gaussian, Inc.  All Rights Reserved.
  
 This is part of the Gaussian(R) 16 program.  It is based on
 the Gaussian(R) 09 system (copyright 2009, Gaussian, Inc.),
 the Gaussian(R) 03 system (copyright 2003, Gaussian, Inc.),
 the Gaussian(R) 98 system (copyright 1998, Gaussian, Inc.),
 the Gaussian(R) 94 system (copyright 1995, Gaussian, Inc.),
 the Gaussian 92(TM) system (copyright 1992, Gaussian, Inc.),
 the Gaussian 90(TM) system (copyright 1990, Gaussian, Inc.),
 the Gaussian 88(TM) system (copyright 1988, Gaussian, Inc.),
 the Gaussian 86(TM) system (copyright 1986, Carnegie Mellon
 University), and the Gaussian 82(TM) system (copyright 1983,
 Carnegie Mellon University). Gaussian is a federally registered
 trademark of Gaussian, Inc.
  
 This software contains proprietary and confidential information,
 including trade secrets, belonging to Gaussian, Inc.
  
 This software is provided under written license and may be
 used, copied, transmitted, or stored only in accord with that
 written license.
  
 The following legend is applicable only to US Government
 contracts under FAR:
  
                    RESTRICTED RIGHTS LEGEND
  
 Use, reproduction and disclosure by the US Government is
 subject to restrictions as set forth in subparagraphs (a)
 and (c) of the Commercial Computer Software - Restricted
 Rights clause in FAR 52.227-19.
  
 Gaussian, Inc.
 340 Quinnipiac St., Bldg. 40, Wallingford CT 06492
  
  
 ---------------------------------------------------------------
 Warning -- This program may not be used in any manner that
 competes with the business of Gaussian, Inc. or will provide
 assistance to any competitor of Gaussian, Inc.  The licensee
 of this program is prohibited from giving any competitor of
 Gaussian, Inc. access to this program.  By using this program,
 the user acknowledges that Gaussian, Inc. is engaged in the
 business of creating and licensing software in the field of
 computational chemistry and represents and warrants to the
 licensee that it is not a competitor of Gaussian, Inc. and that
 it will not use this program in any manner prohibited above.
 ---------------------------------------------------------------
  

 Cite this work as:
 Gaussian 16, Revision A.03,
 M. J. Frisch, G. W. Trucks, H. B. Schlegel, G. E. Scuseria, 
 M. A. Robb, J. R. Cheeseman, G. Scalmani, V. Barone, 
 G. A. Petersson, H. Nakatsuji, X. Li, M. Caricato, A. V. Marenich, 
 J. Bloino, B. G. Janesko, R. Gomperts, B. Mennucci, H. P. Hratchian, 
 J. V. Ortiz, A. F. Izmaylov, J. L. Sonnenberg, D. Williams-Young, 
 F. Ding, F. Lipparini, F. Egidi, J. Goings, B. Peng, A. Petrone, 
 T. Henderson, D. Ranasinghe, V. G. Zakrzewski, J. Gao, N. Rega, 
 G. Zheng, W. Liang, M. Hada, M. Ehara, K. Toyota, R. Fukuda, 
 J. Hasegawa, M. Ishida, T. Nakajima, Y. Honda, O. Kitao, H. Nakai, 
 T. Vreven, K. Throssell, J. A. Montgomery, Jr., J. E. Peralta, 
 F. Ogliaro, M. J. Bearpark, J. J. Heyd, E. N. Brothers, K. N. Kudin, 
 V. N. Staroverov, T. A. Keith, R. Kobayashi, J. Normand, 
 K. Raghavachari, A. P. Rendell, J. C. Burant, S. S. Iyengar, 
 J. Tomasi, M. Cossi, J. M. Millam, M. Klene, C. Adamo, R. Cammi, 
 J. W. Ochterski, R. L. Martin, K. Morokuma, O. Farkas, 
 J. B. Foresman, and D. J. Fox, Gaussian, Inc., Wallingford CT, 2016.
 
 ******************************************
 Gaussian 16:  EM64L-G16RevA.03 25-Dec-2016
                18-Jan-2021 
 ******************************************
 %mem=30GB
 %nproc=8
 Will use up to    8 processors via shared memory.
 ----------------------------------------------------------------------
 #P LC-wHPBE/TZVP iop(3/107=0175300000, 3/108=0175300000) scf=(conver=6
 ,fermi,ndamp=35,noincfock,novaracc,vshift=500,xqc)
 ----------------------------------------------------------------------
 1/38=1,172=1/1;
 2/12=2,17=6,18=5,40=1/2;
 3/5=19,7=101,11=2,25=1,30=1,74=-71,107=175300000,108=175300000/1,2,3;
 4//1;
 5/5=100002,6=6,8=3,10=500,13=1,18=-1,22=13,38=1,93=35/2,8;
 6/7=2,8=2,9=2,10=2,28=1/1;
 99/5=1,9=1/99;
 Leave Link    1 at Mon Jan 18 15:13:49 2021, MaxMem=  4026531840 cpu:               1.7 elap:               0.3
 (Enter /opt/ohpc/pub/libs/gaussian/g16-A.03/sandybridge/g16/l101.exe)
 -------------
 H28 C36 N2 O4
 -------------
 Symbolic Z-matrix:
 Charge =  0 Multiplicity = 1
 C                     2.8585    1.1421   -0.37424 
 C                     3.57931  -0.00109   0.00336 
 C                     1.46911   1.13831  -0.36294 
 C                     2.85888  -1.14343   0.38426 
 C                     0.7391    0.00051   0.00982 
 C                     1.46948  -1.13813   0.37936 
 H                     0.93719   2.03347  -0.68882 
 H                     3.39776  -2.0378    0.69627 
 H                     0.93807  -2.0325    0.70814 
 C                    -0.74288   0.00138   0.01297 
 C                    -1.47451  -1.13086  -0.37299 
 C                    -1.47149   1.13472   0.4025 
 C                    -2.8641   -1.13432  -0.37822 
 C                    -2.86074   1.14001   0.41329 
 C                    -3.58294   0.00335   0.01872 
 H                    -0.94411  -2.02123  -0.71407 
 H                    -0.93835   2.02371   0.74295 
 H                    -3.40426  -2.02363  -0.70227 
 H                    -3.3988    2.02906   0.74164 
 H                     3.39702   2.03591  -0.68846 
 N                    -4.99531   0.0057    0.02272 
 C                    -5.71392   1.18551  -0.3155 
 C                    -6.82475   1.58622   0.43968 
 C                    -5.3365    1.96457  -1.4144 
 C                    -7.54337   2.72659   0.10361 
 C                    -6.03755   3.12258  -1.7397 
 C                    -7.14884   3.50571  -0.98601 
 H                    -7.12955   0.98754   1.29812 
 H                    -4.47781   1.6644   -2.01483 
 H                    -8.40828   3.03605   0.6898 
 H                    -5.72457   3.72092  -2.59898 
 C                    -5.71706  -1.17893   0.3363 
 C                    -6.82181  -1.56585  -0.42905 
 C                    -5.34676  -1.97594   1.42879 
 C                    -7.54392  -2.7123   -0.10728 
 C                    -6.0478   -3.13419   1.73803 
 C                    -7.15565  -3.50639   0.97322 
 H                    -7.12443  -0.95603  -1.28024 
 H                    -4.49152  -1.68251   2.03756 
 H                    -8.40755  -2.99553  -0.71408 
 H                    -5.75737  -3.75451   2.58555 
 N                     4.99142  -0.002     0.00006 
 C                     5.71055  -1.18376  -0.33063 
 C                     6.81265  -1.58428   0.43161 
 C                     5.3406   -1.96403  -1.4351 
 C                     7.53257  -2.72778   0.09518 
 C                     6.03955  -3.11956  -1.75953 
 C                     7.14463  -3.50537  -0.99761 
 H                     7.1136   -0.98775   1.29281 
 H                     4.48656  -1.66032  -2.04054 
 H                     8.39336  -3.02271   0.70046 
 H                     5.74902  -3.72753  -2.61593 
 C                     5.71396   1.17869   0.32678 
 C                     6.81446   1.57586  -0.43955 
 C                     5.34931   1.96129   1.43141 
 C                     7.53789   2.71832  -0.10706 
 C                     6.05176   3.1158    1.75191 
 C                     7.15515   3.49826   0.98587 
 H                     7.11151   0.97744  -1.30079 
 H                     4.49683   1.66012   2.0403 
 H                     8.39743   3.01047  -0.71546 
 H                     5.76544   3.72535   2.6086 
 O                     7.82051   4.64102   1.35551 
 H                     8.55525   4.78867   0.73931 
 O                     7.80638  -4.64895  -1.37102 
 H                     8.5417   -4.80006  -0.75635 
 O                    -7.8874    4.62897  -1.26564 
 H                    -7.50341   5.07148  -2.03899 
 O                    -7.81955  -4.65345   1.33202 
 H                    -8.56035  -4.79055   0.72067 
 
 ITRead=  0  0  0  0  0  0  0  0  0  0  0  0  0  0  0  0  0  0  0  0
 ITRead=  0  0  0  0  0  0  0  0  0  0  0  0  0  0  0  0  0  0  0  0
 ITRead=  0  0  0  0  0  0  0  0  0  0  0  0  0  0  0  0  0  0  0  0
 ITRead=  0  0  0  0  0  0  0  0  0  0
 MicOpt= -1 -1 -1 -1 -1 -1 -1 -1 -1 -1 -1 -1 -1 -1 -1 -1 -1 -1 -1 -1
 MicOpt= -1 -1 -1 -1 -1 -1 -1 -1 -1 -1 -1 -1 -1 -1 -1 -1 -1 -1 -1 -1
 MicOpt= -1 -1 -1 -1 -1 -1 -1 -1 -1 -1 -1 -1 -1 -1 -1 -1 -1 -1 -1 -1
 MicOpt= -1 -1 -1 -1 -1 -1 -1 -1 -1 -1
 NAtoms=     70 NQM=       70 NQMF=       0 NMMI=      0 NMMIF=      0
                NMic=       0 NMicF=      0.
                    Isotopes and Nuclear Properties:
 (Nuclear quadrupole moments (NQMom) in fm**2, nuclear magnetic moments (NMagM)
  in nuclear magnetons)

  Atom         1           2           3           4           5           6           7           8           9          10
 IAtWgt=          12          12          12          12          12          12           1           1           1          12
 AtmWgt=  12.0000000  12.0000000  12.0000000  12.0000000  12.0000000  12.0000000   1.0078250   1.0078250   1.0078250  12.0000000
 NucSpn=           0           0           0           0           0           0           1           1           1           0
 AtZEff=  -0.0000000  -0.0000000  -0.0000000  -0.0000000  -0.0000000  -0.0000000  -0.0000000  -0.0000000  -0.0000000  -0.0000000
 NQMom=    0.0000000   0.0000000   0.0000000   0.0000000   0.0000000   0.0000000   0.0000000   0.0000000   0.0000000   0.0000000
 NMagM=    0.0000000   0.0000000   0.0000000   0.0000000   0.0000000   0.0000000   2.7928460   2.7928460   2.7928460   0.0000000
 AtZNuc=   6.0000000   6.0000000   6.0000000   6.0000000   6.0000000   6.0000000   1.0000000   1.0000000   1.0000000   6.0000000

  Atom        11          12          13          14          15          16          17          18          19          20
 IAtWgt=          12          12          12          12          12           1           1           1           1           1
 AtmWgt=  12.0000000  12.0000000  12.0000000  12.0000000  12.0000000   1.0078250   1.0078250   1.0078250   1.0078250   1.0078250
 NucSpn=           0           0           0           0           0           1           1           1           1           1
 AtZEff=  -0.0000000  -0.0000000  -0.0000000  -0.0000000  -0.0000000  -0.0000000  -0.0000000  -0.0000000  -0.0000000  -0.0000000
 NQMom=    0.0000000   0.0000000   0.0000000   0.0000000   0.0000000   0.0000000   0.0000000   0.0000000   0.0000000   0.0000000
 NMagM=    0.0000000   0.0000000   0.0000000   0.0000000   0.0000000   2.7928460   2.7928460   2.7928460   2.7928460   2.7928460
 AtZNuc=   6.0000000   6.0000000   6.0000000   6.0000000   6.0000000   1.0000000   1.0000000   1.0000000   1.0000000   1.0000000

  Atom        21          22          23          24          25          26          27          28          29          30
 IAtWgt=          14          12          12          12          12          12          12           1           1           1
 AtmWgt=  14.0030740  12.0000000  12.0000000  12.0000000  12.0000000  12.0000000  12.0000000   1.0078250   1.0078250   1.0078250
 NucSpn=           2           0           0           0           0           0           0           1           1           1
 AtZEff=  -0.0000000  -0.0000000  -0.0000000  -0.0000000  -0.0000000  -0.0000000  -0.0000000  -0.0000000  -0.0000000  -0.0000000
 NQMom=    2.0440000   0.0000000   0.0000000   0.0000000   0.0000000   0.0000000   0.0000000   0.0000000   0.0000000   0.0000000
 NMagM=    0.4037610   0.0000000   0.0000000   0.0000000   0.0000000   0.0000000   0.0000000   2.7928460   2.7928460   2.7928460
 AtZNuc=   7.0000000   6.0000000   6.0000000   6.0000000   6.0000000   6.0000000   6.0000000   1.0000000   1.0000000   1.0000000

  Atom        31          32          33          34          35          36          37          38          39          40
 IAtWgt=           1          12          12          12          12          12          12           1           1           1
 AtmWgt=   1.0078250  12.0000000  12.0000000  12.0000000  12.0000000  12.0000000  12.0000000   1.0078250   1.0078250   1.0078250
 NucSpn=           1           0           0           0           0           0           0           1           1           1
 AtZEff=  -0.0000000  -0.0000000  -0.0000000  -0.0000000  -0.0000000  -0.0000000  -0.0000000  -0.0000000  -0.0000000  -0.0000000
 NQMom=    0.0000000   0.0000000   0.0000000   0.0000000   0.0000000   0.0000000   0.0000000   0.0000000   0.0000000   0.0000000
 NMagM=    2.7928460   0.0000000   0.0000000   0.0000000   0.0000000   0.0000000   0.0000000   2.7928460   2.7928460   2.7928460
 AtZNuc=   1.0000000   6.0000000   6.0000000   6.0000000   6.0000000   6.0000000   6.0000000   1.0000000   1.0000000   1.0000000

  Atom        41          42          43          44          45          46          47          48          49          50
 IAtWgt=           1          14          12          12          12          12          12          12           1           1
 AtmWgt=   1.0078250  14.0030740  12.0000000  12.0000000  12.0000000  12.0000000  12.0000000  12.0000000   1.0078250   1.0078250
 NucSpn=           1           2           0           0           0           0           0           0           1           1
 AtZEff=  -0.0000000  -0.0000000  -0.0000000  -0.0000000  -0.0000000  -0.0000000  -0.0000000  -0.0000000  -0.0000000  -0.0000000
 NQMom=    0.0000000   2.0440000   0.0000000   0.0000000   0.0000000   0.0000000   0.0000000   0.0000000   0.0000000   0.0000000
 NMagM=    2.7928460   0.4037610   0.0000000   0.0000000   0.0000000   0.0000000   0.0000000   0.0000000   2.7928460   2.7928460
 AtZNuc=   1.0000000   7.0000000   6.0000000   6.0000000   6.0000000   6.0000000   6.0000000   6.0000000   1.0000000   1.0000000

  Atom        51          52          53          54          55          56          57          58          59          60
 IAtWgt=           1           1          12          12          12          12          12          12           1           1
 AtmWgt=   1.0078250   1.0078250  12.0000000  12.0000000  12.0000000  12.0000000  12.0000000  12.0000000   1.0078250   1.0078250
 NucSpn=           1           1           0           0           0           0           0           0           1           1
 AtZEff=  -0.0000000  -0.0000000  -0.0000000  -0.0000000  -0.0000000  -0.0000000  -0.0000000  -0.0000000  -0.0000000  -0.0000000
 NQMom=    0.0000000   0.0000000   0.0000000   0.0000000   0.0000000   0.0000000   0.0000000   0.0000000   0.0000000   0.0000000
 NMagM=    2.7928460   2.7928460   0.0000000   0.0000000   0.0000000   0.0000000   0.0000000   0.0000000   2.7928460   2.7928460
 AtZNuc=   1.0000000   1.0000000   6.0000000   6.0000000   6.0000000   6.0000000   6.0000000   6.0000000   1.0000000   1.0000000

  Atom        61          62          63          64          65          66          67          68          69          70
 IAtWgt=           1           1          16           1          16           1          16           1          16           1
 AtmWgt=   1.0078250   1.0078250  15.9949146   1.0078250  15.9949146   1.0078250  15.9949146   1.0078250  15.9949146   1.0078250
 NucSpn=           1           1           0           1           0           1           0           1           0           1
 AtZEff=  -0.0000000  -0.0000000  -0.0000000  -0.0000000  -0.0000000  -0.0000000  -0.0000000  -0.0000000  -0.0000000  -0.0000000
 NQMom=    0.0000000   0.0000000   0.0000000   0.0000000   0.0000000   0.0000000   0.0000000   0.0000000   0.0000000   0.0000000
 NMagM=    2.7928460   2.7928460   0.0000000   2.7928460   0.0000000   2.7928460   0.0000000   2.7928460   0.0000000   2.7928460
 AtZNuc=   1.0000000   1.0000000   8.0000000   1.0000000   8.0000000   1.0000000   8.0000000   1.0000000   8.0000000   1.0000000
 Leave Link  101 at Mon Jan 18 15:13:49 2021, MaxMem=  4026531840 cpu:               0.8 elap:               0.1
 (Enter /opt/ohpc/pub/libs/gaussian/g16-A.03/sandybridge/g16/l202.exe)
 Stoichiometry    C36H28N2O4
 Framework group  C1[X(C36H28N2O4)]
 Deg. of freedom   204
 Full point group                 C1      NOp   1
 Largest Abelian subgroup         C1      NOp   1
 Largest concise Abelian subgroup C1      NOp   1
                         Standard orientation:                         
 ---------------------------------------------------------------------
 Center     Atomic      Atomic             Coordinates (Angstroms)
 Number     Number       Type             X           Y           Z
 ---------------------------------------------------------------------
      1          6           0        2.858499   -1.142103    0.374244
      2          6           0        3.579312    0.001087   -0.003359
      3          6           0        1.469111   -1.138314    0.362939
      4          6           0        2.858875    1.143435   -0.384264
      5          6           0        0.739097   -0.000512   -0.009817
      6          6           0        1.469477    1.138129   -0.379362
      7          1           0        0.937192   -2.033473    0.688815
      8          1           0        3.397761    2.037798   -0.696269
      9          1           0        0.938071    2.032504   -0.708142
     10          6           0       -0.742883   -0.001384   -0.012974
     11          6           0       -1.474511    1.130858    0.372988
     12          6           0       -1.471490   -1.134716   -0.402503
     13          6           0       -2.864100    1.134318    0.378218
     14          6           0       -2.860735   -1.140009   -0.413286
     15          6           0       -3.582937   -0.003346   -0.018716
     16          1           0       -0.944110    2.021230    0.714069
     17          1           0       -0.938347   -2.023708   -0.742945
     18          1           0       -3.404263    2.023625    0.702274
     19          1           0       -3.398798   -2.029064   -0.741639
     20          1           0        3.397024   -2.035914    0.688457
     21          7           0       -4.995311   -0.005703   -0.022721
     22          6           0       -5.713915   -1.185510    0.315496
     23          6           0       -6.824749   -1.586223   -0.439679
     24          6           0       -5.336499   -1.964565    1.414395
     25          6           0       -7.543368   -2.726588   -0.103607
     26          6           0       -6.037549   -3.122582    1.739703
     27          6           0       -7.148838   -3.505710    0.986012
     28          1           0       -7.129554   -0.987536   -1.298124
     29          1           0       -4.477812   -1.664402    2.014832
     30          1           0       -8.408278   -3.036049   -0.689802
     31          1           0       -5.724570   -3.720924    2.598980
     32          6           0       -5.717056    1.178925   -0.336296
     33          6           0       -6.821807    1.565845    0.429047
     34          6           0       -5.346761    1.975943   -1.428789
     35          6           0       -7.543924    2.712298    0.107280
     36          6           0       -6.047800    3.134194   -1.738027
     37          6           0       -7.155651    3.506391   -0.973222
     38          1           0       -7.124426    0.956025    1.280239
     39          1           0       -4.491517    1.682511   -2.037555
     40          1           0       -8.407549    2.995534    0.714075
     41          1           0       -5.757368    3.754511   -2.585554
     42          7           0        4.991423    0.001999   -0.000060
     43          6           0        5.710552    1.183762    0.330631
     44          6           0        6.812654    1.584277   -0.431608
     45          6           0        5.340603    1.964026    1.435102
     46          6           0        7.532572    2.727778   -0.095183
     47          6           0        6.039551    3.119564    1.759528
     48          6           0        7.144632    3.505373    0.997606
     49          1           0        7.113605    0.987752   -1.292811
     50          1           0        4.486562    1.660323    2.040543
     51          1           0        8.393358    3.022713   -0.700462
     52          1           0        5.749024    3.727528    2.615933
     53          6           0        5.713955   -1.178690   -0.326778
     54          6           0        6.814458   -1.575861    0.439552
     55          6           0        5.349314   -1.961286   -1.431414
     56          6           0        7.537888   -2.718318    0.107058
     57          6           0        6.051756   -3.115796   -1.751909
     58          6           0        7.155153   -3.498257   -0.985865
     59          1           0        7.111509   -0.977436    1.300789
     60          1           0        4.496830   -1.660119   -2.040298
     61          1           0        8.397429   -3.010471    0.715458
     62          1           0        5.765438   -3.725350   -2.608604
     63          8           0        7.820509   -4.641023   -1.355507
     64          1           0        8.555246   -4.788670   -0.739309
     65          8           0        7.806379    4.648952    1.371018
     66          1           0        8.541702    4.800061    0.756350
     67          8           0       -7.887404   -4.628973    1.265636
     68          1           0       -7.503413   -5.071476    2.038990
     69          8           0       -7.819547    4.653451   -1.332021
     70          1           0       -8.560354    4.790553   -0.720672
 ---------------------------------------------------------------------
 Rotational constants (GHZ):           0.1256812           0.0264942           0.0228634
 Leave Link  202 at Mon Jan 18 15:13:49 2021, MaxMem=  4026531840 cpu:               0.1 elap:               0.0
 (Enter /opt/ohpc/pub/libs/gaussian/g16-A.03/sandybridge/g16/l301.exe)
 Standard basis: TZVP (5D, 7F)
 Ernie: Thresh=  0.10000D-02 Tol=  0.10000D-05 Strict=F.
 There are  1008 symmetry adapted cartesian basis functions of A   symmetry.
 There are   966 symmetry adapted basis functions of A   symmetry.
   966 basis functions,  1694 primitive gaussians,  1008 cartesian basis functions
   145 alpha electrons      145 beta electrons
       nuclear repulsion energy      4158.5104167158 Hartrees.
 IExCor=33909 DFT=T Ex+Corr=LC-wHPBE ExCW=0 ScaHFX=  1.000000
 ScaDFX=  1.000000  1.000000  1.000000  1.000000 ScalE2=  1.000000  1.000000
 IRadAn=      5 IRanWt=     -1 IRanGd=            0 ICorTp=0 IEmpDi=  4
 HFx  wShort=  0.000000 wLong=  0.175300 cFull=  0.000000 cShort=  0.000000 cLong=  1.000000
 DFx  wShort=  0.000000 wLong=  0.175300 cFull=  0.000000 cShort=  1.000000 cLong=  0.000000
 NAtoms=   70 NActive=   70 NUniq=   70 SFac= 1.00D+00 NAtFMM=   60 NAOKFM=T Big=T
 Integral buffers will be    131072 words long.
 Raffenetti 2 integral format.
 Two-electron integral symmetry is turned on.
 Leave Link  301 at Mon Jan 18 15:13:49 2021, MaxMem=  4026531840 cpu:               0.4 elap:               0.1
 (Enter /opt/ohpc/pub/libs/gaussian/g16-A.03/sandybridge/g16/l302.exe)
 NPDir=0 NMtPBC=     1 NCelOv=     1 NCel=       1 NClECP=     1 NCelD=      1
         NCelK=      1 NCelE2=     1 NClLst=     1 CellRange=     0.0.
 One-electron integrals computed using PRISM.
 One-electron integral symmetry used in STVInt
 NBasis=   966 RedAO= T EigKep=  7.09D-06  NBF=   966
 NBsUse=   966 1.00D-06 EigRej= -1.00D+00 NBFU=   966
 Precomputing XC quadrature grid using
 IXCGrd= 4 IRadAn=           5 IRanWt=          -1 IRanGd=           0 AccXCQ= 0.00D+00.
 Generated NRdTot=       0 NPtTot=           0 NUsed=           0 NTot=          32
 NSgBfM=   893   890   890   891   893 MxSgAt=    70 MxSgA2=    70.
 Leave Link  302 at Mon Jan 18 15:13:52 2021, MaxMem=  4026531840 cpu:              25.1 elap:               3.2
 (Enter /opt/ohpc/pub/libs/gaussian/g16-A.03/sandybridge/g16/l303.exe)
 DipDrv:  MaxL=1.
 Leave Link  303 at Mon Jan 18 15:13:53 2021, MaxMem=  4026531840 cpu:               1.9 elap:               0.3
 (Enter /opt/ohpc/pub/libs/gaussian/g16-A.03/sandybridge/g16/l401.exe)
 ExpMin= 9.52D-02 ExpMax= 2.70D+04 ExpMxC= 9.22D+02 IAcc=3 IRadAn=         5 AccDes= 0.00D+00
 Harris functional with IExCor=33909 and IRadAn=       5 diagonalized for initial guess.
 HarFok:  IExCor=33909 AccDes= 0.00D+00 IRadAn=         5 IDoV= 1 UseB2=F ITyADJ=14
 ICtDFT=  3500011 ScaDFX=  1.000000  1.000000  1.000000  1.000000
 FoFCou: FMM=F IPFlag=           0 FMFlag=      100000 FMFlg1=        2001
         NFxFlg=           0 DoJE=T BraDBF=F KetDBF=T FulRan=T
         wScrn=  0.000000 ICntrl=       500 IOpCl=  0 I1Cent=   200000004 NGrid=           0
         NMat0=    1 NMatS0=      1 NMatT0=    0 NMatD0=    1 NMtDS0=    0 NMtDT0=    0
 Petite list used in FoFCou.
 Harris En= -1770.75446110805    
 JPrj=0 DoOrth=F DoCkMO=F.
 Leave Link  401 at Mon Jan 18 15:14:06 2021, MaxMem=  4026531840 cpu:             105.7 elap:              13.3
 (Enter /opt/ohpc/pub/libs/gaussian/g16-A.03/sandybridge/g16/l502.exe)
 Integral symmetry usage will be decided dynamically.
 Closed shell SCF:
 Using DIIS extrapolation, IDIIS=    10.
 NGot=  4026531840 LenX=  4024481942 LenY=  4023464870
 Requested convergence on RMS density matrix=1.00D-06 within  32 cycles.
 Requested convergence on MAX density matrix=1.00D-04.
 Requested convergence on             energy=1.00D-04.
 Virtual orbitals will be shifted by   0.500 hartree.
 No special actions if energy rises.
 Dynamic level shift is on during FON iterations.

 Cycle   1  Pass 1  IDiag  1:
 FoFJK:  IHMeth= 1 ICntrl=       0 DoSepK=T KAlg= 0 I1Cent=           0 FoldK=F
 IRaf=         1 NMat=       1 IRICut=       1 DoRegI=T DoRafI=F ISym2E= 0 IDoP0=0 IntGTp=1.
 FoFCou: FMM=T IPFlag=           0 FMFlag=      100000 FMFlg1=        2001
         NFxFlg=           0 DoJE=T BraDBF=F KetDBF=F FulRan=T
         wScrn=  0.000000 ICntrl=       500 IOpCl=  0 I1Cent=           0 NGrid=           0
         NMat0=    1 NMatS0=      1 NMatT0=    0 NMatD0=    1 NMtDS0=    0 NMtDT0=    0
 Symmetry not used in FoFCou.
 FMM levels:  10  Number of levels for PrismC:   9
 E= -1797.28892356918    
 DIIS: error= 3.24D-02 at cycle   1 NSaved=   1.
 NSaved= 1 IEnMin= 1 EnMin= -1797.28892356918     IErMin= 1 ErrMin= 3.24D-02
 ErrMax= 3.24D-02  0.00D+00 EMaxC= 1.00D+00 BMatC= 7.20D-01 BMatP= 7.20D-01
 IDIUse=1 WtCom= 1.00D+00 WtEn= 0.00D+00
 Coeff-Com:  0.100D+01
 Coeff:      0.100D+01
 Gap=     0.258 Goal=   None    Shift=    0.500
 T= 1543. Gap= 0.721 NK=0 IS=  146 IE=  966 IFin=  145
          NO(<0.9)=   0  NV(>0.1)=   0    145.00e < EF      0.00e >EF  Err=0.0D+00
 GapD=    0.258 DampG=1.000 DampE=0.500 DampFc=0.5000 IDamp=-1.
 Damping current iteration by 5.00D-01
 RMSDP=1.93D-03 MaxDP=1.05D-01              OVMax= 7.08D-02

 Cycle   2  Pass 1  IDiag  1:
 E= -1797.71422401830     Delta-E=       -0.425300449126 Rises=F Damp=T
 DIIS: error= 1.47D-02 at cycle   2 NSaved=   2.
 NSaved= 2 IEnMin= 2 EnMin= -1797.71422401830     IErMin= 2 ErrMin= 1.47D-02
 ErrMax= 1.47D-02  0.00D+00 EMaxC= 1.00D+00 BMatC= 1.12D-01 BMatP= 7.20D-01
 IDIUse=1 WtCom= 1.00D+00 WtEn= 0.00D+00
 Coeff-Com: -0.485D+00 0.148D+01
 Coeff:     -0.485D+00 0.148D+01
 Gap=     0.281 Goal=   None    Shift=    0.500
 T= 1423. Gap= 0.730 NK=0 IS=  146 IE=  966 IFin=  145
          NO(<0.9)=   0  NV(>0.1)=   0    145.00e < EF      0.00e >EF  Err=0.0D+00
 GapD=    0.281 DampG=1.000 DampE=0.500 DampFc=0.5000 IDamp=-1.
 Damping current iteration by 5.00D-01
 RMSDP=1.16D-03 MaxDP=9.13D-02 DE=-4.25D-01 OVMax= 1.80D-02

 Cycle   3  Pass 1  IDiag  1:
 E= -1797.85901360034     Delta-E=       -0.144789582037 Rises=F Damp=T
 DIIS: error= 6.31D-03 at cycle   3 NSaved=   3.
 NSaved= 3 IEnMin= 3 EnMin= -1797.85901360034     IErMin= 3 ErrMin= 6.31D-03
 ErrMax= 6.31D-03  0.00D+00 EMaxC= 1.00D+00 BMatC= 1.99D-02 BMatP= 1.12D-01
 IDIUse=1 WtCom= 1.00D+00 WtEn= 0.00D+00
 Coeff-Com:  0.221D-01-0.717D+00 0.169D+01
 Coeff:      0.221D-01-0.717D+00 0.169D+01
 Gap=     0.237 Goal=   None    Shift=    0.500
 T= 1184. Gap= 0.735 NK=0 IS=  146 IE=  966 IFin=  145
          NO(<0.9)=   0  NV(>0.1)=   0    145.00e < EF      0.00e >EF  Err=0.0D+00
 GapD=    0.237 DampG=1.000 DampE=1.000 DampFc=1.0000 IDamp=-1.
 RMSDP=7.48D-04 MaxDP=8.33D-02 DE=-1.45D-01 OVMax= 1.03D-02

 Cycle   4  Pass 1  IDiag  1:
 E= -1797.97925690266     Delta-E=       -0.120243302325 Rises=F Damp=F
 DIIS: error= 1.20D-03 at cycle   4 NSaved=   4.
 NSaved= 4 IEnMin= 4 EnMin= -1797.97925690266     IErMin= 4 ErrMin= 1.20D-03
 ErrMax= 1.20D-03  0.00D+00 EMaxC= 1.00D+00 BMatC= 1.13D-03 BMatP= 1.99D-02
 IDIUse=1 WtCom= 1.00D+00 WtEn= 0.00D+00
 Coeff-Com:  0.655D-01-0.156D+00 0.141D+00 0.950D+00
 Coeff:      0.655D-01-0.156D+00 0.141D+00 0.950D+00
 Gap=     0.235 Goal=   None    Shift=    0.500
 T=  657. Gap= 0.735 NK=0 IS=  146 IE=  966 IFin=  145
          NO(<0.9)=   0  NV(>0.1)=   0    145.00e < EF      0.00e >EF  Err=0.0D+00
 GapD=    0.235 DampG=1.000 DampE=1.000 DampFc=1.0000 IDamp=-1.
 RMSDP=1.48D-04 MaxDP=1.23D-02 DE=-1.20D-01 OVMax= 7.35D-03

 Cycle   5  Pass 1  IDiag  1:
 E= -1797.98032052998     Delta-E=       -0.001063627319 Rises=F Damp=F
 DIIS: error= 9.46D-04 at cycle   5 NSaved=   5.
 NSaved= 5 IEnMin= 5 EnMin= -1797.98032052998     IErMin= 5 ErrMin= 9.46D-04
 ErrMax= 9.46D-04  0.00D+00 EMaxC= 1.00D+00 BMatC= 1.63D-04 BMatP= 1.13D-03
 IDIUse=1 WtCom= 1.00D+00 WtEn= 0.00D+00
 Coeff-Com:  0.227D-01-0.431D-02-0.709D-01 0.728D-01 0.980D+00
 Coeff:      0.227D-01-0.431D-02-0.709D-01 0.728D-01 0.980D+00
 Gap=     0.235 Goal=   None    Shift=    0.500
 RMSDP=8.93D-05 MaxDP=5.91D-03 DE=-1.06D-03 OVMax= 5.37D-03

 Cycle   6  Pass 1  IDiag  1:
 E= -1797.98059962572     Delta-E=       -0.000279095739 Rises=F Damp=F
 DIIS: error= 7.84D-04 at cycle   6 NSaved=   6.
 NSaved= 6 IEnMin= 6 EnMin= -1797.98059962572     IErMin= 6 ErrMin= 7.84D-04
 ErrMax= 7.84D-04  0.00D+00 EMaxC= 1.00D+00 BMatC= 3.01D-05 BMatP= 1.63D-04
 IDIUse=1 WtCom= 1.00D+00 WtEn= 0.00D+00
 Coeff-Com: -0.963D-02 0.410D-01-0.596D-01-0.174D+00-0.649D-01 0.127D+01
 Coeff:     -0.963D-02 0.410D-01-0.596D-01-0.174D+00-0.649D-01 0.127D+01
 Gap=     0.235 Goal=   None    Shift=    0.500
 RMSDP=5.39D-05 MaxDP=2.73D-03 DE=-2.79D-04 OVMax= 4.88D-03

 Cycle   7  Pass 1  IDiag  1:
 E= -1797.98070606075     Delta-E=       -0.000106435028 Rises=F Damp=F
 DIIS: error= 5.85D-04 at cycle   7 NSaved=   7.
 NSaved= 7 IEnMin= 7 EnMin= -1797.98070606075     IErMin= 7 ErrMin= 5.85D-04
 ErrMax= 5.85D-04  0.00D+00 EMaxC= 1.00D+00 BMatC= 1.18D-05 BMatP= 3.01D-05
 IDIUse=1 WtCom= 1.00D+00 WtEn= 0.00D+00
 Coeff-Com: -0.802D-02 0.126D-01-0.288D-02-0.608D-01-0.229D+00-0.132D+00
 Coeff-Com:  0.142D+01
 Coeff:     -0.802D-02 0.126D-01-0.288D-02-0.608D-01-0.229D+00-0.132D+00
 Coeff:      0.142D+01
 Gap=     0.235 Goal=   None    Shift=    0.500
 RMSDP=2.95D-05 MaxDP=1.61D-03 DE=-1.06D-04 OVMax= 3.76D-03

 Cycle   8  Pass 1  IDiag  1:
 E= -1797.98075816504     Delta-E=       -0.000052104293 Rises=F Damp=F
 DIIS: error= 4.50D-04 at cycle   8 NSaved=   8.
 NSaved= 8 IEnMin= 8 EnMin= -1797.98075816504     IErMin= 8 ErrMin= 4.50D-04
 ErrMax= 4.50D-04  0.00D+00 EMaxC= 1.00D+00 BMatC= 5.48D-06 BMatP= 1.18D-05
 IDIUse=1 WtCom= 1.00D+00 WtEn= 0.00D+00
 Coeff-Com:  0.932D-03-0.143D-01 0.258D-01 0.492D-01-0.728D-01-0.700D+00
 Coeff-Com:  0.178D+00 0.153D+01
 Coeff:      0.932D-03-0.143D-01 0.258D-01 0.492D-01-0.728D-01-0.700D+00
 Coeff:      0.178D+00 0.153D+01
 Gap=     0.236 Goal=   None    Shift=    0.500
 RMSDP=1.59D-05 MaxDP=7.92D-04 DE=-5.21D-05 OVMax= 3.07D-03

 Cycle   9  Pass 1  IDiag  1:
 E= -1797.98078614359     Delta-E=       -0.000027978545 Rises=F Damp=F
 DIIS: error= 3.32D-04 at cycle   9 NSaved=   9.
 NSaved= 9 IEnMin= 9 EnMin= -1797.98078614359     IErMin= 9 ErrMin= 3.32D-04
 ErrMax= 3.32D-04  0.00D+00 EMaxC= 1.00D+00 BMatC= 2.51D-06 BMatP= 5.48D-06
 IDIUse=1 WtCom= 1.00D+00 WtEn= 0.00D+00
 Coeff-Com:  0.317D-02-0.694D-02 0.405D-02 0.298D-01 0.118D+00-0.220D+00
 Coeff-Com: -0.539D+00-0.548D+00 0.216D+01
 Coeff:      0.317D-02-0.694D-02 0.405D-02 0.298D-01 0.118D+00-0.220D+00
 Coeff:     -0.539D+00-0.548D+00 0.216D+01
 Gap=     0.236 Goal=   None    Shift=    0.500
 RMSDP=8.41D-06 MaxDP=2.77D-04 DE=-2.80D-05 OVMax= 2.44D-03

 Cycle  10  Pass 1  IDiag  1:
 E= -1797.98080071805     Delta-E=       -0.000014574463 Rises=F Damp=F
 DIIS: error= 2.36D-04 at cycle  10 NSaved=  10.
 NSaved=10 IEnMin=10 EnMin= -1797.98080071805     IErMin=10 ErrMin= 2.36D-04
 ErrMax= 2.36D-04  0.00D+00 EMaxC= 1.00D+00 BMatC= 1.25D-06 BMatP= 2.51D-06
 IDIUse=1 WtCom= 1.00D+00 WtEn= 0.00D+00
 Coeff-Com:  0.269D-03 0.424D-02-0.903D-02-0.125D-02 0.925D-01 0.115D-01
 Coeff-Com: -0.181D+00-0.756D+00 0.331D-01 0.181D+01
 Coeff:      0.269D-03 0.424D-02-0.903D-02-0.125D-02 0.925D-01 0.115D-01
 Coeff:     -0.181D+00-0.756D+00 0.331D-01 0.181D+01
 Gap=     0.236 Goal=   None    Shift=    0.500
 RMSDP=5.11D-06 MaxDP=1.75D-04 DE=-1.46D-05 OVMax= 1.74D-03

 Cycle  11  Pass 1  IDiag  1:
 E= -1797.98080760426     Delta-E=       -0.000006886209 Rises=F Damp=F
 DIIS: error= 1.68D-04 at cycle  11 NSaved=  11.
 NSaved=11 IEnMin=11 EnMin= -1797.98080760426     IErMin=11 ErrMin= 1.68D-04
 ErrMax= 1.68D-04  0.00D+00 EMaxC= 1.00D+00 BMatC= 6.15D-07 BMatP= 1.25D-06
 IDIUse=1 WtCom= 1.00D+00 WtEn= 0.00D+00
 Coeff-Com: -0.129D-02 0.619D-02-0.786D-02-0.940D-02 0.201D-01 0.366D-01
 Coeff-Com:  0.170D+00-0.311D+00-0.913D+00 0.325D+00 0.168D+01
 Coeff:     -0.129D-02 0.619D-02-0.786D-02-0.940D-02 0.201D-01 0.366D-01
 Coeff:      0.170D+00-0.311D+00-0.913D+00 0.325D+00 0.168D+01
 Gap=     0.236 Goal=   None    Shift=    0.500
 RMSDP=3.38D-06 MaxDP=1.21D-04 DE=-6.89D-06 OVMax= 1.24D-03

 Cycle  12  Pass 1  IDiag  1:
 E= -1797.98081084779     Delta-E=       -0.000003243534 Rises=F Damp=F
 DIIS: error= 1.17D-04 at cycle  12 NSaved=  12.
 NSaved=12 IEnMin=12 EnMin= -1797.98081084779     IErMin=12 ErrMin= 1.17D-04
 ErrMax= 1.17D-04  0.00D+00 EMaxC= 1.00D+00 BMatC= 2.88D-07 BMatP= 6.15D-07
 IDIUse=1 WtCom= 1.00D+00 WtEn= 0.00D+00
 Coeff-Com: -0.588D-03 0.493D-03 0.104D-02-0.173D-02-0.247D-01-0.286D-01
 Coeff-Com:  0.209D+00 0.136D+00-0.418D+00-0.903D+00 0.399D-01 0.199D+01
 Coeff:     -0.588D-03 0.493D-03 0.104D-02-0.173D-02-0.247D-01-0.286D-01
 Coeff:      0.209D+00 0.136D+00-0.418D+00-0.903D+00 0.399D-01 0.199D+01
 Gap=     0.236 Goal=   None    Shift=    0.500
 RMSDP=2.28D-06 MaxDP=8.11D-05 DE=-3.24D-06 OVMax= 8.71D-04

 Cycle  13  Pass 1  IDiag  1:
 E= -1797.98081233206     Delta-E=       -0.000001484271 Rises=F Damp=F
 DIIS: error= 8.00D-05 at cycle  13 NSaved=  13.
 NSaved=13 IEnMin=13 EnMin= -1797.98081233206     IErMin=13 ErrMin= 8.00D-05
 ErrMax= 8.00D-05  0.00D+00 EMaxC= 1.00D+00 BMatC= 1.39D-07 BMatP= 2.88D-07
 IDIUse=1 WtCom= 1.00D+00 WtEn= 0.00D+00
 Coeff-Com:  0.845D-04-0.151D-02 0.275D-02 0.155D-02-0.129D-01-0.394D-01
 Coeff-Com:  0.835D-01 0.105D+00 0.932D-01-0.595D+00-0.406D+00-0.214D+00
 Coeff-Com:  0.198D+01
 Coeff:      0.845D-04-0.151D-02 0.275D-02 0.155D-02-0.129D-01-0.394D-01
 Coeff:      0.835D-01 0.105D+00 0.932D-01-0.595D+00-0.406D+00-0.214D+00
 Coeff:      0.198D+01
 Gap=     0.236 Goal=   None    Shift=    0.500
 RMSDP=1.48D-06 MaxDP=5.32D-05 DE=-1.48D-06 OVMax= 5.92D-04

 Cycle  14  Pass 1  IDiag  1:
 E= -1797.98081299527     Delta-E=       -0.000000663212 Rises=F Damp=F
 DIIS: error= 5.47D-05 at cycle  14 NSaved=  14.
 NSaved=14 IEnMin=14 EnMin= -1797.98081299527     IErMin=14 ErrMin= 5.47D-05
 ErrMax= 5.47D-05  0.00D+00 EMaxC= 1.00D+00 BMatC= 6.51D-08 BMatP= 1.39D-07
 IDIUse=1 WtCom= 1.00D+00 WtEn= 0.00D+00
 Coeff-Com:  0.237D-03-0.526D-03 0.250D-03 0.155D-02 0.787D-02-0.132D-01
 Coeff-Com: -0.370D-01-0.412D-01 0.248D+00 0.141D+00-0.214D+00-0.143D+01
 Coeff-Com:  0.257D+00 0.208D+01
 Coeff:      0.237D-03-0.526D-03 0.250D-03 0.155D-02 0.787D-02-0.132D-01
 Coeff:     -0.370D-01-0.412D-01 0.248D+00 0.141D+00-0.214D+00-0.143D+01
 Coeff:      0.257D+00 0.208D+01
 Gap=     0.236 Goal=   None    Shift=    0.500
 RMSDP=9.94D-07 MaxDP=3.34D-05 DE=-6.63D-07 OVMax= 4.00D-04

 SCF Done:  E(RLC-wHPBE) =  -1797.98081300     A.U. after   14 cycles
            NFock= 14  Conv=0.99D-06     -V/T= 2.0047
 KE= 1.789561695294D+03 PE=-1.250565792888D+04 EE= 4.759605003875D+03
 Leave Link  502 at Mon Jan 18 15:34:51 2021, MaxMem=  4026531840 cpu:            9824.5 elap:            1245.4
 (Enter /opt/ohpc/pub/libs/gaussian/g16-A.03/sandybridge/g16/l508.exe)
 QCSCF skips out because SCF is already converged.
 Leave Link  508 at Mon Jan 18 15:34:52 2021, MaxMem=  4026531840 cpu:               0.1 elap:               0.1
 (Enter /opt/ohpc/pub/libs/gaussian/g16-A.03/sandybridge/g16/l601.exe)
 Copying SCF densities to generalized density rwf, IOpCl= 0 IROHF=0.

 **********************************************************************

            Population analysis using the SCF density.

 **********************************************************************

 Orbital symmetries:
       Occupied  (A) (A) (A) (A) (A) (A) (A) (A) (A) (A) (A) (A)
                 (A) (A) (A) (A) (A) (A) (A) (A) (A) (A) (A) (A)
                 (A) (A) (A) (A) (A) (A) (A) (A) (A) (A) (A) (A)
                 (A) (A) (A) (A) (A) (A) (A) (A) (A) (A) (A) (A)
                 (A) (A) (A) (A) (A) (A) (A) (A) (A) (A) (A) (A)
                 (A) (A) (A) (A) (A) (A) (A) (A) (A) (A) (A) (A)
                 (A) (A) (A) (A) (A) (A) (A) (A) (A) (A) (A) (A)
                 (A) (A) (A) (A) (A) (A) (A) (A) (A) (A) (A) (A)
                 (A) (A) (A) (A) (A) (A) (A) (A) (A) (A) (A) (A)
                 (A) (A) (A) (A) (A) (A) (A) (A) (A) (A) (A) (A)
                 (A) (A) (A) (A) (A) (A) (A) (A) (A) (A) (A) (A)
                 (A) (A) (A) (A) (A) (A) (A) (A) (A) (A) (A) (A)
                 (A)
       Virtual   (A) (A) (A) (A) (A) (A) (A) (A) (A) (A) (A) (A)
                 (A) (A) (A) (A) (A) (A) (A) (A) (A) (A) (A) (A)
                 (A) (A) (A) (A) (A) (A) (A) (A) (A) (A) (A) (A)
                 (A) (A) (A) (A) (A) (A) (A) (A) (A) (A) (A) (A)
                 (A) (A) (A) (A) (A) (A) (A) (A) (A) (A) (A) (A)
                 (A) (A) (A) (A) (A) (A) (A) (A) (A) (A) (A) (A)
                 (A) (A) (A) (A) (A) (A) (A) (A) (A) (A) (A) (A)
                 (A) (A) (A) (A) (A) (A) (A) (A) (A) (A) (A) (A)
                 (A) (A) (A) (A) (A) (A) (A) (A) (A) (A) (A) (A)
                 (A) (A) (A) (A) (A) (A) (A) (A) (A) (A) (A) (A)
                 (A) (A) (A) (A) (A) (A) (A) (A) (A) (A) (A) (A)
                 (A) (A) (A) (A) (A) (A) (A) (A) (A) (A) (A) (A)
                 (A) (A) (A) (A) (A) (A) (A) (A) (A) (A) (A) (A)
                 (A) (A) (A) (A) (A) (A) (A) (A) (A) (A) (A) (A)
                 (A) (A) (A) (A) (A) (A) (A) (A) (A) (A) (A) (A)
                 (A) (A) (A) (A) (A) (A) (A) (A) (A) (A) (A) (A)
                 (A) (A) (A) (A) (A) (A) (A) (A) (A) (A) (A) (A)
                 (A) (A) (A) (A) (A) (A) (A) (A) (A) (A) (A) (A)
                 (A) (A) (A) (A) (A) (A) (A) (A) (A) (A) (A) (A)
                 (A) (A) (A) (A) (A) (A) (A) (A) (A) (A) (A) (A)
                 (A) (A) (A) (A) (A) (A) (A) (A) (A) (A) (A) (A)
                 (A) (A) (A) (A) (A) (A) (A) (A) (A) (A) (A) (A)
                 (A) (A) (A) (A) (A) (A) (A) (A) (A) (A) (A) (A)
                 (A) (A) (A) (A) (A) (A) (A) (A) (A) (A) (A) (A)
                 (A) (A) (A) (A) (A) (A) (A) (A) (A) (A) (A) (A)
                 (A) (A) (A) (A) (A) (A) (A) (A) (A) (A) (A) (A)
                 (A) (A) (A) (A) (A) (A) (A) (A) (A) (A) (A) (A)
                 (A) (A) (A) (A) (A) (A) (A) (A) (A) (A) (A) (A)
                 (A) (A) (A) (A) (A) (A) (A) (A) (A) (A) (A) (A)
                 (A) (A) (A) (A) (A) (A) (A) (A) (A) (A) (A) (A)
                 (A) (A) (A) (A) (A) (A) (A) (A) (A) (A) (A) (A)
                 (A) (A) (A) (A) (A) (A) (A) (A) (A) (A) (A) (A)
                 (A) (A) (A) (A) (A) (A) (A) (A) (A) (A) (A) (A)
                 (A) (A) (A) (A) (A) (A) (A) (A) (A) (A) (A) (A)
                 (A) (A) (A) (A) (A) (A) (A) (A) (A) (A) (A) (A)
                 (A) (A) (A) (A) (A) (A) (A) (A) (A) (A) (A) (A)
                 (A) (A) (A) (A) (A) (A) (A) (A) (A) (A) (A) (A)
                 (A) (A) (A) (A) (A) (A) (A) (A) (A) (A) (A) (A)
                 (A) (A) (A) (A) (A) (A) (A) (A) (A) (A) (A) (A)
                 (A) (A) (A) (A) (A) (A) (A) (A) (A) (A) (A) (A)
                 (A) (A) (A) (A) (A) (A) (A) (A) (A) (A) (A) (A)
                 (A) (A) (A) (A) (A) (A) (A) (A) (A) (A) (A) (A)
                 (A) (A) (A) (A) (A) (A) (A) (A) (A) (A) (A) (A)
                 (A) (A) (A) (A) (A) (A) (A) (A) (A) (A) (A) (A)
                 (A) (A) (A) (A) (A) (A) (A) (A) (A) (A) (A) (A)
                 (A) (A) (A) (A) (A) (A) (A) (A) (A) (A) (A) (A)
                 (A) (A) (A) (A) (A) (A) (A) (A) (A) (A) (A) (A)
                 (A) (A) (A) (A) (A) (A) (A) (A) (A) (A) (A) (A)
                 (A) (A) (A) (A) (A) (A) (A) (A) (A) (A) (A) (A)
                 (A) (A) (A) (A) (A) (A) (A) (A) (A) (A) (A) (A)
                 (A) (A) (A) (A) (A) (A) (A) (A) (A) (A) (A) (A)
                 (A) (A) (A) (A) (A) (A) (A) (A) (A) (A) (A) (A)
                 (A) (A) (A) (A) (A) (A) (A) (A) (A) (A) (A) (A)
                 (A) (A) (A) (A) (A) (A) (A) (A) (A) (A) (A) (A)
                 (A) (A) (A) (A) (A) (A) (A) (A) (A) (A) (A) (A)
                 (A) (A) (A) (A) (A) (A) (A) (A) (A) (A) (A) (A)
                 (A) (A) (A) (A) (A) (A) (A) (A) (A) (A) (A) (A)
                 (A) (A) (A) (A) (A) (A) (A) (A) (A) (A) (A) (A)
                 (A) (A) (A) (A) (A) (A) (A) (A) (A) (A) (A) (A)
                 (A) (A) (A) (A) (A) (A) (A) (A) (A) (A) (A) (A)
                 (A) (A) (A) (A) (A) (A) (A) (A) (A) (A) (A) (A)
                 (A) (A) (A) (A) (A) (A) (A) (A) (A) (A) (A) (A)
                 (A) (A) (A) (A) (A) (A) (A) (A) (A) (A) (A) (A)
                 (A) (A) (A) (A) (A) (A) (A) (A) (A) (A) (A) (A)
                 (A) (A) (A) (A) (A) (A) (A) (A) (A) (A) (A) (A)
                 (A) (A) (A) (A) (A) (A) (A) (A) (A) (A) (A) (A)
                 (A) (A) (A) (A) (A) (A) (A) (A) (A) (A) (A) (A)
                 (A) (A) (A) (A) (A) (A) (A) (A) (A) (A) (A) (A)
                 (A) (A) (A) (A) (A)
 The electronic state is 1-A.
 Alpha  occ. eigenvalues --  -18.88245 -18.88241 -18.88188 -18.88118 -14.11499
 Alpha  occ. eigenvalues --  -14.11444 -10.04713 -10.04712 -10.04653 -10.04584
 Alpha  occ. eigenvalues --  -10.02402 -10.02376 -10.02310 -10.02305 -10.02253
 Alpha  occ. eigenvalues --  -10.02212  -9.99296  -9.99292  -9.99240  -9.99170
 Alpha  occ. eigenvalues --   -9.99133  -9.99130  -9.99069  -9.99015  -9.98965
 Alpha  occ. eigenvalues --   -9.98964  -9.98910  -9.98850  -9.98806  -9.98791
 Alpha  occ. eigenvalues --   -9.98662  -9.98661  -9.98604  -9.98545  -9.98260
 Alpha  occ. eigenvalues --   -9.98253  -9.98247  -9.98245  -9.98019  -9.98013
 Alpha  occ. eigenvalues --   -9.98010  -9.98005  -1.07627  -1.07624  -1.07568
 Alpha  occ. eigenvalues --   -1.07500  -0.98641  -0.98583  -0.89068  -0.88612
 Alpha  occ. eigenvalues --   -0.88531  -0.88022  -0.87013  -0.85909  -0.80632
 Alpha  occ. eigenvalues --   -0.78959  -0.78907  -0.78803  -0.78430  -0.78350
 Alpha  occ. eigenvalues --   -0.78172  -0.77442  -0.77032  -0.76835  -0.74733
 Alpha  occ. eigenvalues --   -0.72728  -0.68462  -0.67759  -0.67177  -0.66986
 Alpha  occ. eigenvalues --   -0.66548  -0.65859  -0.65441  -0.64815  -0.63730
 Alpha  occ. eigenvalues --   -0.62963  -0.62269  -0.61124  -0.59550  -0.59458
 Alpha  occ. eigenvalues --   -0.59415  -0.59380  -0.58346  -0.57750  -0.57228
 Alpha  occ. eigenvalues --   -0.56814  -0.54541  -0.53174  -0.52963  -0.51775
 Alpha  occ. eigenvalues --   -0.51446  -0.51123  -0.49432  -0.49244  -0.49176
 Alpha  occ. eigenvalues --   -0.49127  -0.48639  -0.48529  -0.48297  -0.47460
 Alpha  occ. eigenvalues --   -0.47441  -0.47358  -0.47208  -0.46889  -0.46718
 Alpha  occ. eigenvalues --   -0.46609  -0.46395  -0.46281  -0.46160  -0.46061
 Alpha  occ. eigenvalues --   -0.45757  -0.44858  -0.44689  -0.44391  -0.43355
 Alpha  occ. eigenvalues --   -0.43247  -0.42876  -0.42516  -0.42240  -0.42176
 Alpha  occ. eigenvalues --   -0.40601  -0.40328  -0.40050  -0.39967  -0.39570
 Alpha  occ. eigenvalues --   -0.39356  -0.39242  -0.39011  -0.38947  -0.38797
 Alpha  occ. eigenvalues --   -0.38117  -0.35913  -0.34267  -0.32507  -0.32445
 Alpha  occ. eigenvalues --   -0.31994  -0.31752  -0.31123  -0.31021  -0.30985
 Alpha  occ. eigenvalues --   -0.29253  -0.29131  -0.28921  -0.23804  -0.22289
 Alpha virt. eigenvalues --    0.01285   0.01934   0.02022   0.03622   0.03712
 Alpha virt. eigenvalues --    0.03961   0.04062   0.04480   0.04845   0.04906
 Alpha virt. eigenvalues --    0.07402   0.07964   0.08021   0.08046   0.08120
 Alpha virt. eigenvalues --    0.09282   0.10390   0.10625   0.11423   0.11546
 Alpha virt. eigenvalues --    0.11768   0.12474   0.12867   0.13581   0.13604
 Alpha virt. eigenvalues --    0.13746   0.13905   0.14499   0.14553   0.15046
 Alpha virt. eigenvalues --    0.15810   0.15981   0.16704   0.16927   0.17173
 Alpha virt. eigenvalues --    0.17360   0.17447   0.17561   0.17721   0.18359
 Alpha virt. eigenvalues --    0.18431   0.18762   0.18912   0.19025   0.20686
 Alpha virt. eigenvalues --    0.20750   0.20786   0.21164   0.21389   0.21664
 Alpha virt. eigenvalues --    0.21781   0.22194   0.22837   0.23420   0.23467
 Alpha virt. eigenvalues --    0.23849   0.23983   0.24072   0.24878   0.25463
 Alpha virt. eigenvalues --    0.25647   0.25971   0.26117   0.26480   0.26756
 Alpha virt. eigenvalues --    0.26927   0.27113   0.27561   0.27769   0.27973
 Alpha virt. eigenvalues --    0.28098   0.28220   0.28389   0.28433   0.28557
 Alpha virt. eigenvalues --    0.28741   0.28759   0.29366   0.29793   0.29891
 Alpha virt. eigenvalues --    0.30119   0.30213   0.30311   0.30547   0.30941
 Alpha virt. eigenvalues --    0.31187   0.31447   0.31760   0.31990   0.32029
 Alpha virt. eigenvalues --    0.32143   0.32868   0.33047   0.33337   0.33605
 Alpha virt. eigenvalues --    0.33898   0.34006   0.34189   0.34455   0.34515
 Alpha virt. eigenvalues --    0.34607   0.34908   0.35022   0.35129   0.35852
 Alpha virt. eigenvalues --    0.36081   0.36422   0.37271   0.37427   0.37513
 Alpha virt. eigenvalues --    0.37599   0.37733   0.37918   0.38072   0.38491
 Alpha virt. eigenvalues --    0.38666   0.38962   0.39060   0.39810   0.40210
 Alpha virt. eigenvalues --    0.40386   0.40594   0.40796   0.41110   0.41258
 Alpha virt. eigenvalues --    0.41651   0.41747   0.42115   0.42233   0.42387
 Alpha virt. eigenvalues --    0.42431   0.42634   0.42785   0.43172   0.43393
 Alpha virt. eigenvalues --    0.43468   0.43579   0.43924   0.43969   0.44107
 Alpha virt. eigenvalues --    0.44180   0.44343   0.44472   0.44550   0.44988
 Alpha virt. eigenvalues --    0.45287   0.45423   0.45637   0.45695   0.46024
 Alpha virt. eigenvalues --    0.46186   0.46366   0.46446   0.46805   0.47581
 Alpha virt. eigenvalues --    0.47818   0.48183   0.48280   0.48362   0.48935
 Alpha virt. eigenvalues --    0.49193   0.49230   0.49836   0.50066   0.50171
 Alpha virt. eigenvalues --    0.50354   0.50609   0.50639   0.50886   0.51076
 Alpha virt. eigenvalues --    0.51170   0.51636   0.52345   0.52491   0.52570
 Alpha virt. eigenvalues --    0.52673   0.52938   0.53208   0.53322   0.53508
 Alpha virt. eigenvalues --    0.53691   0.53931   0.54006   0.54256   0.54555
 Alpha virt. eigenvalues --    0.55002   0.55108   0.55504   0.56133   0.56562
 Alpha virt. eigenvalues --    0.56851   0.56899   0.57287   0.57545   0.57906
 Alpha virt. eigenvalues --    0.58872   0.59006   0.59329   0.59424   0.60045
 Alpha virt. eigenvalues --    0.60170   0.60351   0.60504   0.60750   0.61420
 Alpha virt. eigenvalues --    0.61766   0.61904   0.62218   0.62288   0.62561
 Alpha virt. eigenvalues --    0.62679   0.62772   0.62922   0.63223   0.63474
 Alpha virt. eigenvalues --    0.63860   0.64002   0.65547   0.66242   0.66593
 Alpha virt. eigenvalues --    0.66731   0.67231   0.67903   0.68208   0.69028
 Alpha virt. eigenvalues --    0.69375   0.69971   0.70808   0.71032   0.71322
 Alpha virt. eigenvalues --    0.71595   0.71723   0.71986   0.72050   0.72161
 Alpha virt. eigenvalues --    0.72321   0.72660   0.73511   0.73702   0.73793
 Alpha virt. eigenvalues --    0.74004   0.74491   0.74863   0.75495   0.75815
 Alpha virt. eigenvalues --    0.76058   0.76200   0.76369   0.76921   0.77194
 Alpha virt. eigenvalues --    0.78312   0.78532   0.78737   0.79311   0.79826
 Alpha virt. eigenvalues --    0.80100   0.80534   0.80786   0.81039   0.81508
 Alpha virt. eigenvalues --    0.82041   0.82256   0.83380   0.84140   0.84349
 Alpha virt. eigenvalues --    0.84903   0.85249   0.85908   0.86123   0.87464
 Alpha virt. eigenvalues --    0.87702   0.88502   0.89034   0.89504   0.89865
 Alpha virt. eigenvalues --    0.91171   0.91439   0.91911   0.92378   0.92568
 Alpha virt. eigenvalues --    0.92789   0.93774   0.94111   0.96386   0.97920
 Alpha virt. eigenvalues --    0.98049   0.98105   1.00709   1.00889   1.17654
 Alpha virt. eigenvalues --    1.19247   1.20258   1.20313   1.20386   1.25212
 Alpha virt. eigenvalues --    1.25351   1.25829   1.26065   1.26632   1.26792
 Alpha virt. eigenvalues --    1.26908   1.27108   1.27456   1.28059   1.28084
 Alpha virt. eigenvalues --    1.28336   1.28500   1.28582   1.28812   1.29002
 Alpha virt. eigenvalues --    1.29119   1.29181   1.30444   1.31195   1.31325
 Alpha virt. eigenvalues --    1.31812   1.32069   1.32178   1.32416   1.32946
 Alpha virt. eigenvalues --    1.33150   1.33485   1.34130   1.34344   1.34632
 Alpha virt. eigenvalues --    1.34911   1.35767   1.35887   1.36197   1.36365
 Alpha virt. eigenvalues --    1.36526   1.36849   1.37053   1.37456   1.37612
 Alpha virt. eigenvalues --    1.37943   1.38205   1.38382   1.38615   1.38760
 Alpha virt. eigenvalues --    1.38836   1.39082   1.40192   1.41107   1.41319
 Alpha virt. eigenvalues --    1.41922   1.42058   1.44477   1.44528   1.44553
 Alpha virt. eigenvalues --    1.44658   1.45032   1.45231   1.45396   1.45462
 Alpha virt. eigenvalues --    1.45564   1.45652   1.45830   1.45975   1.46360
 Alpha virt. eigenvalues --    1.46527   1.47072   1.47395   1.47503   1.47656
 Alpha virt. eigenvalues --    1.47736   1.47985   1.48159   1.48405   1.48559
 Alpha virt. eigenvalues --    1.48930   1.49159   1.49683   1.50111   1.50403
 Alpha virt. eigenvalues --    1.50625   1.50684   1.50725   1.51084   1.51211
 Alpha virt. eigenvalues --    1.51414   1.51584   1.51855   1.52044   1.52163
 Alpha virt. eigenvalues --    1.52380   1.52747   1.54132   1.54288   1.54901
 Alpha virt. eigenvalues --    1.54977   1.55337   1.55487   1.55739   1.55906
 Alpha virt. eigenvalues --    1.55962   1.56083   1.56196   1.56260   1.56292
 Alpha virt. eigenvalues --    1.56395   1.56544   1.57129   1.57454   1.57562
 Alpha virt. eigenvalues --    1.57714   1.57781   1.57995   1.58156   1.58677
 Alpha virt. eigenvalues --    1.59005   1.59673   1.59732   1.59861   1.59925
 Alpha virt. eigenvalues --    1.60262   1.60672   1.61069   1.61588   1.61690
 Alpha virt. eigenvalues --    1.62030   1.62216   1.62313   1.63465   1.63823
 Alpha virt. eigenvalues --    1.63955   1.64115   1.64866   1.65616   1.65755
 Alpha virt. eigenvalues --    1.67739   1.68134   1.68949   1.69382   1.70236
 Alpha virt. eigenvalues --    1.70429   1.70696   1.70995   1.72661   1.73522
 Alpha virt. eigenvalues --    1.74835   1.75206   1.75244   1.75810   1.77584
 Alpha virt. eigenvalues --    1.78126   1.78341   1.78731   1.78913   1.79052
 Alpha virt. eigenvalues --    1.79343   1.79550   1.79914   1.80029   1.80472
 Alpha virt. eigenvalues --    1.80707   1.81059   1.81147   1.81408   1.82006
 Alpha virt. eigenvalues --    1.82105   1.82237   1.82515   1.82893   1.83096
 Alpha virt. eigenvalues --    1.83453   1.83472   1.84156   1.84485   1.85057
 Alpha virt. eigenvalues --    1.85706   1.86049   1.86268   1.86714   1.87516
 Alpha virt. eigenvalues --    1.87698   1.88467   1.88512   1.88611   1.89101
 Alpha virt. eigenvalues --    1.89138   1.89570   1.90618   1.91085   1.91516
 Alpha virt. eigenvalues --    1.91662   1.91819   1.92510   1.93189   1.93283
 Alpha virt. eigenvalues --    1.93586   1.93639   1.94104   1.94223   1.94448
 Alpha virt. eigenvalues --    1.94595   1.94771   1.95449   1.95542   1.95876
 Alpha virt. eigenvalues --    1.96041   1.96328   1.97363   1.97640   1.98228
 Alpha virt. eigenvalues --    1.99135   1.99200   2.00140   2.01137   2.01250
 Alpha virt. eigenvalues --    2.01321   2.01960   2.02114   2.02388   2.02669
 Alpha virt. eigenvalues --    2.03030   2.03153   2.03595   2.04282   2.04624
 Alpha virt. eigenvalues --    2.05004   2.05825   2.06046   2.07452   2.07520
 Alpha virt. eigenvalues --    2.08881   2.09602   2.10017   2.10166   2.10563
 Alpha virt. eigenvalues --    2.10944   2.11388   2.11479   2.12061   2.13181
 Alpha virt. eigenvalues --    2.13636   2.16580   2.17721   2.18582   2.19014
 Alpha virt. eigenvalues --    2.20512   2.20646   2.20753   2.21233   2.21392
 Alpha virt. eigenvalues --    2.22460   2.22794   2.23018   2.23166   2.24125
 Alpha virt. eigenvalues --    2.24965   2.25106   2.25942   2.26124   2.26181
 Alpha virt. eigenvalues --    2.27234   2.29260   2.29358   2.31406   2.31558
 Alpha virt. eigenvalues --    2.31995   2.32291   2.32345   2.32432   2.32658
 Alpha virt. eigenvalues --    2.32749   2.32941   2.33290   2.33496   2.33783
 Alpha virt. eigenvalues --    2.34168   2.34412   2.34860   2.35251   2.35563
 Alpha virt. eigenvalues --    2.35671   2.35830   2.36086   2.36840   2.36933
 Alpha virt. eigenvalues --    2.37263   2.37580   2.38459   2.38509   2.38623
 Alpha virt. eigenvalues --    2.38774   2.38886   2.39049   2.39175   2.39240
 Alpha virt. eigenvalues --    2.39430   2.39524   2.39584   2.39894   2.40490
 Alpha virt. eigenvalues --    2.40582   2.41078   2.41501   2.43128   2.45151
 Alpha virt. eigenvalues --    2.45709   2.46038   2.47982   2.49034   2.49171
 Alpha virt. eigenvalues --    2.49373   2.49402   2.49491   2.50561   2.51276
 Alpha virt. eigenvalues --    2.54140   2.54227   2.55365   2.55895   2.57520
 Alpha virt. eigenvalues --    2.57629   2.57942   2.58083   2.58440   2.59984
 Alpha virt. eigenvalues --    2.60185   2.60414   2.60775   2.61490   2.61759
 Alpha virt. eigenvalues --    2.61881   2.62183   2.62422   2.62538   2.62985
 Alpha virt. eigenvalues --    2.63208   2.63553   2.65261   2.65470   2.65766
 Alpha virt. eigenvalues --    2.65813   2.65901   2.66666   2.66921   2.67609
 Alpha virt. eigenvalues --    2.67978   2.69224   2.69523   2.70391   2.71003
 Alpha virt. eigenvalues --    2.71220   2.71758   2.72616   2.74495   2.74633
 Alpha virt. eigenvalues --    2.75041   2.75228   2.76681   2.77395   2.77662
 Alpha virt. eigenvalues --    2.78405   2.78734   2.79568   2.80208   2.80323
 Alpha virt. eigenvalues --    2.80849   2.82306   2.83749   2.84308   2.84825
 Alpha virt. eigenvalues --    2.84999   2.86085   2.86662   2.87037   2.87239
 Alpha virt. eigenvalues --    2.87490   2.87748   2.89293   2.90109   2.93766
 Alpha virt. eigenvalues --    2.93823   2.93840   2.93983   2.94634   2.94861
 Alpha virt. eigenvalues --    2.95093   2.95467   2.96718   2.96950   2.97374
 Alpha virt. eigenvalues --    2.98227   2.99175   2.99215   2.99258   2.99312
 Alpha virt. eigenvalues --    3.00940   3.01170   3.02055   3.02187   3.04641
 Alpha virt. eigenvalues --    3.04974   3.05005   3.05255   3.05323   3.05642
 Alpha virt. eigenvalues --    3.06724   3.07227   3.08239   3.08493   3.09569
 Alpha virt. eigenvalues --    3.09779   3.10009   3.10329   3.11979   3.13361
 Alpha virt. eigenvalues --    3.13765   3.13831   3.13989   3.15005   3.15458
 Alpha virt. eigenvalues --    3.15555   3.15663   3.15818   3.18824   3.19058
 Alpha virt. eigenvalues --    3.19338   3.19707   3.19724   3.21073   3.23436
 Alpha virt. eigenvalues --    3.23806   3.24148   3.24219   3.24443   3.24826
 Alpha virt. eigenvalues --    3.25265   3.25702   3.25748   3.27163   3.27715
 Alpha virt. eigenvalues --    3.28761   3.29320   3.29698   3.31674   3.31969
 Alpha virt. eigenvalues --    3.32051   3.33708   3.34436   3.36299   3.36665
 Alpha virt. eigenvalues --    3.38194   3.38619   3.39313   3.39323   3.39475
 Alpha virt. eigenvalues --    3.41660   3.42434   3.42475   3.46404   3.46724
 Alpha virt. eigenvalues --    3.53412   3.53557   3.55289   3.56475   3.57076
 Alpha virt. eigenvalues --    3.58178   3.58402   3.58455   3.59590   3.61865
 Alpha virt. eigenvalues --    3.70460   3.73748   3.84232   3.84397   3.87954
 Alpha virt. eigenvalues --    3.92244   4.06074   4.06134   4.06853   4.06976
 Alpha virt. eigenvalues --    4.30460   4.30542   4.30549   4.30634  21.16079
 Alpha virt. eigenvalues --   21.23743  21.23838  21.25264  21.25587  21.36730
 Alpha virt. eigenvalues --   21.67927  21.68115  21.68321  21.71096  21.71516
 Alpha virt. eigenvalues --   21.71897  21.74651  21.75817  21.78370  21.82864
 Alpha virt. eigenvalues --   21.83392  21.89488  21.89818  21.93843  21.93998
 Alpha virt. eigenvalues --   21.94631  21.95899  21.96636  21.97125  21.99295
 Alpha virt. eigenvalues --   22.01124  22.01442  22.01547  22.03036  22.07448
 Alpha virt. eigenvalues --   22.08261  22.13351  22.14549  22.15187  22.15779
 Alpha virt. eigenvalues --   32.04911  32.05927  43.23373  43.23485  43.23583
 Alpha virt. eigenvalues --   43.23661
          Condensed to atoms (all electrons):
 Mulliken charges:
               1
     1  C   -0.148180
     2  C    0.017714
     3  C   -0.150256
     4  C   -0.148122
     5  C    0.029888
     6  C   -0.150230
     7  H    0.118739
     8  H    0.144272
     9  H    0.120394
    10  C    0.030209
    11  C   -0.150406
    12  C   -0.149907
    13  C   -0.145503
    14  C   -0.149249
    15  C    0.012919
    16  H    0.120088
    17  H    0.120219
    18  H    0.144311
    19  H    0.143362
    20  H    0.143987
    21  N   -0.000635
    22  C   -0.112909
    23  C   -0.059408
    24  C   -0.084542
    25  C   -0.202351
    26  C   -0.175061
    27  C    0.118876
    28  H    0.134096
    29  H    0.142535
    30  H    0.116670
    31  H    0.106231
    32  C   -0.106940
    33  C   -0.081413
    34  C   -0.067348
    35  C   -0.172336
    36  C   -0.199103
    37  C    0.115768
    38  H    0.135858
    39  H    0.141181
    40  H    0.106772
    41  H    0.116879
    42  N    0.000231
    43  C   -0.115920
    44  C   -0.080640
    45  C   -0.061675
    46  C   -0.173257
    47  C   -0.200181
    48  C    0.116464
    49  H    0.135237
    50  H    0.140856
    51  H    0.107013
    52  H    0.116861
    53  C   -0.114277
    54  C   -0.081343
    55  C   -0.062886
    56  C   -0.173234
    57  C   -0.200101
    58  C    0.116262
    59  H    0.135247
    60  H    0.141393
    61  H    0.106872
    62  H    0.117053
    63  O   -0.242603
    64  H    0.268404
    65  O   -0.242583
    66  H    0.268481
    67  O   -0.242924
    68  H    0.268473
    69  O   -0.242733
    70  H    0.268440
 Sum of Mulliken charges =  -0.00000
 Mulliken charges with hydrogens summed into heavy atoms:
               1
     1  C   -0.004193
     2  C    0.017714
     3  C   -0.031517
     4  C   -0.003851
     5  C    0.029888
     6  C   -0.029837
    10  C    0.030209
    11  C   -0.030317
    12  C   -0.029688
    13  C   -0.001192
    14  C   -0.005886
    15  C    0.012919
    21  N   -0.000635
    22  C   -0.112909
    23  C    0.074688
    24  C    0.057993
    25  C   -0.085681
    26  C   -0.068830
    27  C    0.118876
    32  C   -0.106940
    33  C    0.054445
    34  C    0.073833
    35  C   -0.065564
    36  C   -0.082224
    37  C    0.115768
    42  N    0.000231
    43  C   -0.115920
    44  C    0.054597
    45  C    0.079182
    46  C   -0.066244
    47  C   -0.083320
    48  C    0.116464
    53  C   -0.114277
    54  C    0.053904
    55  C    0.078507
    56  C   -0.066361
    57  C   -0.083047
    58  C    0.116262
    63  O    0.025802
    65  O    0.025898
    67  O    0.025549
    69  O    0.025706
 Electronic spatial extent (au):  <R**2>=          43189.3909
 Charge=              0.0000 electrons
 Dipole moment (field-independent basis, Debye):
    X=              1.6781    Y=             -0.4214    Z=              2.0463  Tot=              2.6797
 Quadrupole moment (field-independent basis, Debye-Ang):
   XX=           -190.4575   YY=           -232.6944   ZZ=           -241.8119
   XY=             -5.2381   XZ=            -14.6760   YZ=            -12.0303
 Traceless Quadrupole moment (field-independent basis, Debye-Ang):
   XX=             31.1972   YY=            -11.0398   ZZ=            -20.1573
   XY=             -5.2381   XZ=            -14.6760   YZ=            -12.0303
 Octapole moment (field-independent basis, Debye-Ang**2):
  XXX=            345.1683  YYY=            -38.6809  ZZZ=             14.7926  XYY=             10.8868
  XXY=            121.0650  XXZ=            101.8139  XZZ=            -48.6345  YZZ=            -34.7072
  YYZ=             66.7346  XYZ=            -67.5348
 Hexadecapole moment (field-independent basis, Debye-Ang**3):
 XXXX=         -41370.9686 YYYY=          -8996.3865 ZZZZ=          -1563.5167 XXXY=          -1600.6331
 XXXZ=           -668.2705 YYYX=             74.5704 YYYZ=           -370.1194 ZZZX=           -115.4314
 ZZZY=            -82.1163 XXYY=          -8219.3063 XXZZ=          -8463.4547 YYZZ=          -1733.2816
 XXYZ=           -592.4015 YYXZ=           -476.3279 ZZXY=            257.8069
 N-N= 4.158510416716D+03 E-N=-1.250565752686D+04  KE= 1.789561695294D+03
 No NMR shielding tensors so no spin-rotation constants.
 Leave Link  601 at Mon Jan 18 15:34:53 2021, MaxMem=  4026531840 cpu:               7.5 elap:               1.1
 (Enter /opt/ohpc/pub/libs/gaussian/g16-A.03/sandybridge/g16/l9999.exe)

 Test job not archived.
 1\1\GINC-CASCADEB037\SP\RLC-wHPBE\TZVP\C36H28N2O4\RDU230\18-Jan-2021\0
 \\#P LC-wHPBE/TZVP iop(3/107=0175300000, 3/108=0175300000) scf=(conver
 =6,fermi,ndamp=35,noincfock,novaracc,vshift=500,xqc)\\H28 C36 N2 O4\\0
 ,1\C,0,2.858499,1.142103,-0.374244\C,0,3.579312,-0.001087,0.003359\C,0
 ,1.469111,1.138314,-0.362939\C,0,2.858875,-1.143435,0.384264\C,0,0.739
 097,0.000512,0.009817\C,0,1.469477,-1.138129,0.379362\H,0,0.937192,2.0
 33473,-0.688815\H,0,3.397761,-2.037798,0.696269\H,0,0.938071,-2.032504
 ,0.708142\C,0,-0.742883,0.001384,0.012974\C,0,-1.474511,-1.130858,-0.3
 72988\C,0,-1.47149,1.134716,0.402503\C,0,-2.8641,-1.134318,-0.378218\C
 ,0,-2.860735,1.140009,0.413286\C,0,-3.582937,0.003346,0.018716\H,0,-0.
 94411,-2.02123,-0.714069\H,0,-0.938347,2.023708,0.742945\H,0,-3.404263
 ,-2.023625,-0.702274\H,0,-3.398798,2.029064,0.741639\H,0,3.397024,2.03
 5914,-0.688457\N,0,-4.995311,0.005703,0.022721\C,0,-5.713915,1.18551,-
 0.315496\C,0,-6.824749,1.586223,0.439679\C,0,-5.336499,1.964565,-1.414
 395\C,0,-7.543368,2.726588,0.103607\C,0,-6.037549,3.122582,-1.739703\C
 ,0,-7.148838,3.50571,-0.986012\H,0,-7.129554,0.987536,1.298124\H,0,-4.
 477812,1.664402,-2.014832\H,0,-8.408278,3.036049,0.689802\H,0,-5.72457
 ,3.720924,-2.59898\C,0,-5.717056,-1.178925,0.336296\C,0,-6.821807,-1.5
 65845,-0.429047\C,0,-5.346761,-1.975943,1.428789\C,0,-7.543924,-2.7122
 98,-0.10728\C,0,-6.0478,-3.134194,1.738027\C,0,-7.155651,-3.506391,0.9
 73222\H,0,-7.124426,-0.956025,-1.280239\H,0,-4.491517,-1.682511,2.0375
 55\H,0,-8.407549,-2.995534,-0.714075\H,0,-5.757368,-3.754511,2.585554\
 N,0,4.991423,-0.001999,0.00006\C,0,5.710552,-1.183762,-0.330631\C,0,6.
 812654,-1.584277,0.431608\C,0,5.340603,-1.964026,-1.435102\C,0,7.53257
 2,-2.727778,0.095183\C,0,6.039551,-3.119564,-1.759528\C,0,7.144632,-3.
 505373,-0.997606\H,0,7.113605,-0.987752,1.292811\H,0,4.486562,-1.66032
 3,-2.040543\H,0,8.393358,-3.022713,0.700462\H,0,5.749024,-3.727528,-2.
 615933\C,0,5.713955,1.17869,0.326778\C,0,6.814458,1.575861,-0.439552\C
 ,0,5.349314,1.961286,1.431414\C,0,7.537888,2.718318,-0.107058\C,0,6.05
 1756,3.115796,1.751909\C,0,7.155153,3.498257,0.985865\H,0,7.111509,0.9
 77436,-1.300789\H,0,4.49683,1.660119,2.040298\H,0,8.397429,3.010471,-0
 .715458\H,0,5.765438,3.72535,2.608604\O,0,7.820509,4.641023,1.355507\H
 ,0,8.555246,4.78867,0.739309\O,0,7.806379,-4.648952,-1.371018\H,0,8.54
 1702,-4.800061,-0.75635\O,0,-7.887404,4.628973,-1.265636\H,0,-7.503413
 ,5.071476,-2.03899\O,0,-7.819547,-4.653451,1.332021\H,0,-8.560354,-4.7
 90553,0.720672\\Version=EM64L-G16RevA.03\State=1-A\HF=-1797.980813\RMS
 D=9.943e-07\Dipole=0.660219,0.1657719,-0.8050763\Quadrupole=23.1943164
 ,-8.207848,-14.9864683,3.8943704,10.9112552,-8.9442478\PG=C01 [X(C36H2
 8N2O4)]\\@


 IF YOU GET CONFUSED, LOGIC OUT YOUR DILEMMA

           --  PICKER X-RAY CORP.    DIGITAL PRINTER MANUAL CA. 1964
 Job cpu time:       0 days  2 hours 46 minutes  9.6 seconds.
 Elapsed time:       0 days  0 hours 21 minutes  4.1 seconds.
 File lengths (MBytes):  RWF=    332 Int=      0 D2E=      0 Chk=     60 Scr=      8
 Normal termination of Gaussian 16 at Mon Jan 18 15:34:53 2021.
