 Entering Gaussian System, Link 0=g16
 Input=mol_bp_ma_whol_tune_n0.gjf
 Output=mol_bp_ma_whol_tune_n0.log
 Initial command:
 /opt/ohpc/pub/libs/gaussian/g16-A.03/sandybridge/g16/l1.exe "/mnt/gpfs2_4m/scratch/rdu230/ondemand/projects/init_structures/wtuning/mol_bp_ma_whol/tuning_mol_bp_ma_whol_ocycle0/Gau-409757.inp" -scrdir="/mnt/gpfs2_4m/scratch/rdu230/ondemand/projects/init_structures/wtuning/mol_bp_ma_whol/tuning_mol_bp_ma_whol_ocycle0/"
 Entering Link 1 = /opt/ohpc/pub/libs/gaussian/g16-A.03/sandybridge/g16/l1.exe PID=    409758.
  
 Copyright (c) 1988,1990,1992,1993,1995,1998,2003,2009,2016,
            Gaussian, Inc.  All Rights Reserved.
  
 This is part of the Gaussian(R) 16 program.  It is based on
 the Gaussian(R) 09 system (copyright 2009, Gaussian, Inc.),
 the Gaussian(R) 03 system (copyright 2003, Gaussian, Inc.),
 the Gaussian(R) 98 system (copyright 1998, Gaussian, Inc.),
 the Gaussian(R) 94 system (copyright 1995, Gaussian, Inc.),
 the Gaussian 92(TM) system (copyright 1992, Gaussian, Inc.),
 the Gaussian 90(TM) system (copyright 1990, Gaussian, Inc.),
 the Gaussian 88(TM) system (copyright 1988, Gaussian, Inc.),
 the Gaussian 86(TM) system (copyright 1986, Carnegie Mellon
 University), and the Gaussian 82(TM) system (copyright 1983,
 Carnegie Mellon University). Gaussian is a federally registered
 trademark of Gaussian, Inc.
  
 This software contains proprietary and confidential information,
 including trade secrets, belonging to Gaussian, Inc.
  
 This software is provided under written license and may be
 used, copied, transmitted, or stored only in accord with that
 written license.
  
 The following legend is applicable only to US Government
 contracts under FAR:
  
                    RESTRICTED RIGHTS LEGEND
  
 Use, reproduction and disclosure by the US Government is
 subject to restrictions as set forth in subparagraphs (a)
 and (c) of the Commercial Computer Software - Restricted
 Rights clause in FAR 52.227-19.
  
 Gaussian, Inc.
 340 Quinnipiac St., Bldg. 40, Wallingford CT 06492
  
  
 ---------------------------------------------------------------
 Warning -- This program may not be used in any manner that
 competes with the business of Gaussian, Inc. or will provide
 assistance to any competitor of Gaussian, Inc.  The licensee
 of this program is prohibited from giving any competitor of
 Gaussian, Inc. access to this program.  By using this program,
 the user acknowledges that Gaussian, Inc. is engaged in the
 business of creating and licensing software in the field of
 computational chemistry and represents and warrants to the
 licensee that it is not a competitor of Gaussian, Inc. and that
 it will not use this program in any manner prohibited above.
 ---------------------------------------------------------------
  

 Cite this work as:
 Gaussian 16, Revision A.03,
 M. J. Frisch, G. W. Trucks, H. B. Schlegel, G. E. Scuseria, 
 M. A. Robb, J. R. Cheeseman, G. Scalmani, V. Barone, 
 G. A. Petersson, H. Nakatsuji, X. Li, M. Caricato, A. V. Marenich, 
 J. Bloino, B. G. Janesko, R. Gomperts, B. Mennucci, H. P. Hratchian, 
 J. V. Ortiz, A. F. Izmaylov, J. L. Sonnenberg, D. Williams-Young, 
 F. Ding, F. Lipparini, F. Egidi, J. Goings, B. Peng, A. Petrone, 
 T. Henderson, D. Ranasinghe, V. G. Zakrzewski, J. Gao, N. Rega, 
 G. Zheng, W. Liang, M. Hada, M. Ehara, K. Toyota, R. Fukuda, 
 J. Hasegawa, M. Ishida, T. Nakajima, Y. Honda, O. Kitao, H. Nakai, 
 T. Vreven, K. Throssell, J. A. Montgomery, Jr., J. E. Peralta, 
 F. Ogliaro, M. J. Bearpark, J. J. Heyd, E. N. Brothers, K. N. Kudin, 
 V. N. Staroverov, T. A. Keith, R. Kobayashi, J. Normand, 
 K. Raghavachari, A. P. Rendell, J. C. Burant, S. S. Iyengar, 
 J. Tomasi, M. Cossi, J. M. Millam, M. Klene, C. Adamo, R. Cammi, 
 J. W. Ochterski, R. L. Martin, K. Morokuma, O. Farkas, 
 J. B. Foresman, and D. J. Fox, Gaussian, Inc., Wallingford CT, 2016.
 
 ******************************************
 Gaussian 16:  EM64L-G16RevA.03 25-Dec-2016
                18-Jan-2021 
 ******************************************
 %mem=30GB
 %nproc=8
 Will use up to    8 processors via shared memory.
 ----------------------------------------------------------------------
 #P LC-wHPBE/TZVP iop(3/107=0221900000, 3/108=0221900000) scf=(conver=6
 ,fermi,ndamp=35,noincfock,novaracc,vshift=500,xqc)
 ----------------------------------------------------------------------
 1/38=1,172=1/1;
 2/12=2,17=6,18=5,40=1/2;
 3/5=19,7=101,11=2,25=1,30=1,74=-71,107=221900000,108=221900000/1,2,3;
 4//1;
 5/5=100002,6=6,8=3,10=500,13=1,18=-1,22=13,38=1,93=35/2,8;
 6/7=2,8=2,9=2,10=2,28=1/1;
 99/5=1,9=1/99;
 Leave Link    1 at Mon Jan 18 03:26:58 2021, MaxMem=  4026531840 cpu:               1.0 elap:               0.2
 (Enter /opt/ohpc/pub/libs/gaussian/g16-A.03/sandybridge/g16/l101.exe)
 -------------
 H28 C36 N2 O4
 -------------
 Symbolic Z-matrix:
 Charge =  0 Multiplicity = 1
 C                     2.8585    1.1421   -0.37424 
 C                     3.57931  -0.00109   0.00336 
 C                     1.46911   1.13831  -0.36294 
 C                     2.85888  -1.14343   0.38426 
 C                     0.7391    0.00051   0.00982 
 C                     1.46948  -1.13813   0.37936 
 H                     0.93719   2.03347  -0.68882 
 H                     3.39776  -2.0378    0.69627 
 H                     0.93807  -2.0325    0.70814 
 C                    -0.74288   0.00138   0.01297 
 C                    -1.47451  -1.13086  -0.37299 
 C                    -1.47149   1.13472   0.4025 
 C                    -2.8641   -1.13432  -0.37822 
 C                    -2.86074   1.14001   0.41329 
 C                    -3.58294   0.00335   0.01872 
 H                    -0.94411  -2.02123  -0.71407 
 H                    -0.93835   2.02371   0.74295 
 H                    -3.40426  -2.02363  -0.70227 
 H                    -3.3988    2.02906   0.74164 
 H                     3.39702   2.03591  -0.68846 
 N                    -4.99531   0.0057    0.02272 
 C                    -5.71392   1.18551  -0.3155 
 C                    -6.82475   1.58622   0.43968 
 C                    -5.3365    1.96457  -1.4144 
 C                    -7.54337   2.72659   0.10361 
 C                    -6.03755   3.12258  -1.7397 
 C                    -7.14884   3.50571  -0.98601 
 H                    -7.12955   0.98754   1.29812 
 H                    -4.47781   1.6644   -2.01483 
 H                    -8.40828   3.03605   0.6898 
 H                    -5.72457   3.72092  -2.59898 
 C                    -5.71706  -1.17893   0.3363 
 C                    -6.82181  -1.56585  -0.42905 
 C                    -5.34676  -1.97594   1.42879 
 C                    -7.54392  -2.7123   -0.10728 
 C                    -6.0478   -3.13419   1.73803 
 C                    -7.15565  -3.50639   0.97322 
 H                    -7.12443  -0.95603  -1.28024 
 H                    -4.49152  -1.68251   2.03756 
 H                    -8.40755  -2.99553  -0.71408 
 H                    -5.75737  -3.75451   2.58555 
 N                     4.99142  -0.002     0.00006 
 C                     5.71055  -1.18376  -0.33063 
 C                     6.81265  -1.58428   0.43161 
 C                     5.3406   -1.96403  -1.4351 
 C                     7.53257  -2.72778   0.09518 
 C                     6.03955  -3.11956  -1.75953 
 C                     7.14463  -3.50537  -0.99761 
 H                     7.1136   -0.98775   1.29281 
 H                     4.48656  -1.66032  -2.04054 
 H                     8.39336  -3.02271   0.70046 
 H                     5.74902  -3.72753  -2.61593 
 C                     5.71396   1.17869   0.32678 
 C                     6.81446   1.57586  -0.43955 
 C                     5.34931   1.96129   1.43141 
 C                     7.53789   2.71832  -0.10706 
 C                     6.05176   3.1158    1.75191 
 C                     7.15515   3.49826   0.98587 
 H                     7.11151   0.97744  -1.30079 
 H                     4.49683   1.66012   2.0403 
 H                     8.39743   3.01047  -0.71546 
 H                     5.76544   3.72535   2.6086 
 O                     7.82051   4.64102   1.35551 
 H                     8.55525   4.78867   0.73931 
 O                     7.80638  -4.64895  -1.37102 
 H                     8.5417   -4.80006  -0.75635 
 O                    -7.8874    4.62897  -1.26564 
 H                    -7.50341   5.07148  -2.03899 
 O                    -7.81955  -4.65345   1.33202 
 H                    -8.56035  -4.79055   0.72067 
 
 ITRead=  0  0  0  0  0  0  0  0  0  0  0  0  0  0  0  0  0  0  0  0
 ITRead=  0  0  0  0  0  0  0  0  0  0  0  0  0  0  0  0  0  0  0  0
 ITRead=  0  0  0  0  0  0  0  0  0  0  0  0  0  0  0  0  0  0  0  0
 ITRead=  0  0  0  0  0  0  0  0  0  0
 MicOpt= -1 -1 -1 -1 -1 -1 -1 -1 -1 -1 -1 -1 -1 -1 -1 -1 -1 -1 -1 -1
 MicOpt= -1 -1 -1 -1 -1 -1 -1 -1 -1 -1 -1 -1 -1 -1 -1 -1 -1 -1 -1 -1
 MicOpt= -1 -1 -1 -1 -1 -1 -1 -1 -1 -1 -1 -1 -1 -1 -1 -1 -1 -1 -1 -1
 MicOpt= -1 -1 -1 -1 -1 -1 -1 -1 -1 -1
 NAtoms=     70 NQM=       70 NQMF=       0 NMMI=      0 NMMIF=      0
                NMic=       0 NMicF=      0.
                    Isotopes and Nuclear Properties:
 (Nuclear quadrupole moments (NQMom) in fm**2, nuclear magnetic moments (NMagM)
  in nuclear magnetons)

  Atom         1           2           3           4           5           6           7           8           9          10
 IAtWgt=          12          12          12          12          12          12           1           1           1          12
 AtmWgt=  12.0000000  12.0000000  12.0000000  12.0000000  12.0000000  12.0000000   1.0078250   1.0078250   1.0078250  12.0000000
 NucSpn=           0           0           0           0           0           0           1           1           1           0
 AtZEff=  -0.0000000  -0.0000000  -0.0000000  -0.0000000  -0.0000000  -0.0000000  -0.0000000  -0.0000000  -0.0000000  -0.0000000
 NQMom=    0.0000000   0.0000000   0.0000000   0.0000000   0.0000000   0.0000000   0.0000000   0.0000000   0.0000000   0.0000000
 NMagM=    0.0000000   0.0000000   0.0000000   0.0000000   0.0000000   0.0000000   2.7928460   2.7928460   2.7928460   0.0000000
 AtZNuc=   6.0000000   6.0000000   6.0000000   6.0000000   6.0000000   6.0000000   1.0000000   1.0000000   1.0000000   6.0000000

  Atom        11          12          13          14          15          16          17          18          19          20
 IAtWgt=          12          12          12          12          12           1           1           1           1           1
 AtmWgt=  12.0000000  12.0000000  12.0000000  12.0000000  12.0000000   1.0078250   1.0078250   1.0078250   1.0078250   1.0078250
 NucSpn=           0           0           0           0           0           1           1           1           1           1
 AtZEff=  -0.0000000  -0.0000000  -0.0000000  -0.0000000  -0.0000000  -0.0000000  -0.0000000  -0.0000000  -0.0000000  -0.0000000
 NQMom=    0.0000000   0.0000000   0.0000000   0.0000000   0.0000000   0.0000000   0.0000000   0.0000000   0.0000000   0.0000000
 NMagM=    0.0000000   0.0000000   0.0000000   0.0000000   0.0000000   2.7928460   2.7928460   2.7928460   2.7928460   2.7928460
 AtZNuc=   6.0000000   6.0000000   6.0000000   6.0000000   6.0000000   1.0000000   1.0000000   1.0000000   1.0000000   1.0000000

  Atom        21          22          23          24          25          26          27          28          29          30
 IAtWgt=          14          12          12          12          12          12          12           1           1           1
 AtmWgt=  14.0030740  12.0000000  12.0000000  12.0000000  12.0000000  12.0000000  12.0000000   1.0078250   1.0078250   1.0078250
 NucSpn=           2           0           0           0           0           0           0           1           1           1
 AtZEff=  -0.0000000  -0.0000000  -0.0000000  -0.0000000  -0.0000000  -0.0000000  -0.0000000  -0.0000000  -0.0000000  -0.0000000
 NQMom=    2.0440000   0.0000000   0.0000000   0.0000000   0.0000000   0.0000000   0.0000000   0.0000000   0.0000000   0.0000000
 NMagM=    0.4037610   0.0000000   0.0000000   0.0000000   0.0000000   0.0000000   0.0000000   2.7928460   2.7928460   2.7928460
 AtZNuc=   7.0000000   6.0000000   6.0000000   6.0000000   6.0000000   6.0000000   6.0000000   1.0000000   1.0000000   1.0000000

  Atom        31          32          33          34          35          36          37          38          39          40
 IAtWgt=           1          12          12          12          12          12          12           1           1           1
 AtmWgt=   1.0078250  12.0000000  12.0000000  12.0000000  12.0000000  12.0000000  12.0000000   1.0078250   1.0078250   1.0078250
 NucSpn=           1           0           0           0           0           0           0           1           1           1
 AtZEff=  -0.0000000  -0.0000000  -0.0000000  -0.0000000  -0.0000000  -0.0000000  -0.0000000  -0.0000000  -0.0000000  -0.0000000
 NQMom=    0.0000000   0.0000000   0.0000000   0.0000000   0.0000000   0.0000000   0.0000000   0.0000000   0.0000000   0.0000000
 NMagM=    2.7928460   0.0000000   0.0000000   0.0000000   0.0000000   0.0000000   0.0000000   2.7928460   2.7928460   2.7928460
 AtZNuc=   1.0000000   6.0000000   6.0000000   6.0000000   6.0000000   6.0000000   6.0000000   1.0000000   1.0000000   1.0000000

  Atom        41          42          43          44          45          46          47          48          49          50
 IAtWgt=           1          14          12          12          12          12          12          12           1           1
 AtmWgt=   1.0078250  14.0030740  12.0000000  12.0000000  12.0000000  12.0000000  12.0000000  12.0000000   1.0078250   1.0078250
 NucSpn=           1           2           0           0           0           0           0           0           1           1
 AtZEff=  -0.0000000  -0.0000000  -0.0000000  -0.0000000  -0.0000000  -0.0000000  -0.0000000  -0.0000000  -0.0000000  -0.0000000
 NQMom=    0.0000000   2.0440000   0.0000000   0.0000000   0.0000000   0.0000000   0.0000000   0.0000000   0.0000000   0.0000000
 NMagM=    2.7928460   0.4037610   0.0000000   0.0000000   0.0000000   0.0000000   0.0000000   0.0000000   2.7928460   2.7928460
 AtZNuc=   1.0000000   7.0000000   6.0000000   6.0000000   6.0000000   6.0000000   6.0000000   6.0000000   1.0000000   1.0000000

  Atom        51          52          53          54          55          56          57          58          59          60
 IAtWgt=           1           1          12          12          12          12          12          12           1           1
 AtmWgt=   1.0078250   1.0078250  12.0000000  12.0000000  12.0000000  12.0000000  12.0000000  12.0000000   1.0078250   1.0078250
 NucSpn=           1           1           0           0           0           0           0           0           1           1
 AtZEff=  -0.0000000  -0.0000000  -0.0000000  -0.0000000  -0.0000000  -0.0000000  -0.0000000  -0.0000000  -0.0000000  -0.0000000
 NQMom=    0.0000000   0.0000000   0.0000000   0.0000000   0.0000000   0.0000000   0.0000000   0.0000000   0.0000000   0.0000000
 NMagM=    2.7928460   2.7928460   0.0000000   0.0000000   0.0000000   0.0000000   0.0000000   0.0000000   2.7928460   2.7928460
 AtZNuc=   1.0000000   1.0000000   6.0000000   6.0000000   6.0000000   6.0000000   6.0000000   6.0000000   1.0000000   1.0000000

  Atom        61          62          63          64          65          66          67          68          69          70
 IAtWgt=           1           1          16           1          16           1          16           1          16           1
 AtmWgt=   1.0078250   1.0078250  15.9949146   1.0078250  15.9949146   1.0078250  15.9949146   1.0078250  15.9949146   1.0078250
 NucSpn=           1           1           0           1           0           1           0           1           0           1
 AtZEff=  -0.0000000  -0.0000000  -0.0000000  -0.0000000  -0.0000000  -0.0000000  -0.0000000  -0.0000000  -0.0000000  -0.0000000
 NQMom=    0.0000000   0.0000000   0.0000000   0.0000000   0.0000000   0.0000000   0.0000000   0.0000000   0.0000000   0.0000000
 NMagM=    2.7928460   2.7928460   0.0000000   2.7928460   0.0000000   2.7928460   0.0000000   2.7928460   0.0000000   2.7928460
 AtZNuc=   1.0000000   1.0000000   8.0000000   1.0000000   8.0000000   1.0000000   8.0000000   1.0000000   8.0000000   1.0000000
 Leave Link  101 at Mon Jan 18 03:26:58 2021, MaxMem=  4026531840 cpu:               0.8 elap:               0.1
 (Enter /opt/ohpc/pub/libs/gaussian/g16-A.03/sandybridge/g16/l202.exe)
 Stoichiometry    C36H28N2O4
 Framework group  C1[X(C36H28N2O4)]
 Deg. of freedom   204
 Full point group                 C1      NOp   1
 Largest Abelian subgroup         C1      NOp   1
 Largest concise Abelian subgroup C1      NOp   1
                         Standard orientation:                         
 ---------------------------------------------------------------------
 Center     Atomic      Atomic             Coordinates (Angstroms)
 Number     Number       Type             X           Y           Z
 ---------------------------------------------------------------------
      1          6           0        2.858499   -1.142103    0.374244
      2          6           0        3.579312    0.001087   -0.003359
      3          6           0        1.469111   -1.138314    0.362939
      4          6           0        2.858875    1.143435   -0.384264
      5          6           0        0.739097   -0.000512   -0.009817
      6          6           0        1.469477    1.138129   -0.379362
      7          1           0        0.937192   -2.033473    0.688815
      8          1           0        3.397761    2.037798   -0.696269
      9          1           0        0.938071    2.032504   -0.708142
     10          6           0       -0.742883   -0.001384   -0.012974
     11          6           0       -1.474511    1.130858    0.372988
     12          6           0       -1.471490   -1.134716   -0.402503
     13          6           0       -2.864100    1.134318    0.378218
     14          6           0       -2.860735   -1.140009   -0.413286
     15          6           0       -3.582937   -0.003346   -0.018716
     16          1           0       -0.944110    2.021230    0.714069
     17          1           0       -0.938347   -2.023708   -0.742945
     18          1           0       -3.404263    2.023625    0.702274
     19          1           0       -3.398798   -2.029064   -0.741639
     20          1           0        3.397024   -2.035914    0.688457
     21          7           0       -4.995311   -0.005703   -0.022721
     22          6           0       -5.713915   -1.185510    0.315496
     23          6           0       -6.824749   -1.586223   -0.439679
     24          6           0       -5.336499   -1.964565    1.414395
     25          6           0       -7.543368   -2.726588   -0.103607
     26          6           0       -6.037549   -3.122582    1.739703
     27          6           0       -7.148838   -3.505710    0.986012
     28          1           0       -7.129554   -0.987536   -1.298124
     29          1           0       -4.477812   -1.664402    2.014832
     30          1           0       -8.408278   -3.036049   -0.689802
     31          1           0       -5.724570   -3.720924    2.598980
     32          6           0       -5.717056    1.178925   -0.336296
     33          6           0       -6.821807    1.565845    0.429047
     34          6           0       -5.346761    1.975943   -1.428789
     35          6           0       -7.543924    2.712298    0.107280
     36          6           0       -6.047800    3.134194   -1.738027
     37          6           0       -7.155651    3.506391   -0.973222
     38          1           0       -7.124426    0.956025    1.280239
     39          1           0       -4.491517    1.682511   -2.037555
     40          1           0       -8.407549    2.995534    0.714075
     41          1           0       -5.757368    3.754511   -2.585554
     42          7           0        4.991423    0.001999   -0.000060
     43          6           0        5.710552    1.183762    0.330631
     44          6           0        6.812654    1.584277   -0.431608
     45          6           0        5.340603    1.964026    1.435102
     46          6           0        7.532572    2.727778   -0.095183
     47          6           0        6.039551    3.119564    1.759528
     48          6           0        7.144632    3.505373    0.997606
     49          1           0        7.113605    0.987752   -1.292811
     50          1           0        4.486562    1.660323    2.040543
     51          1           0        8.393358    3.022713   -0.700462
     52          1           0        5.749024    3.727528    2.615933
     53          6           0        5.713955   -1.178690   -0.326778
     54          6           0        6.814458   -1.575861    0.439552
     55          6           0        5.349314   -1.961286   -1.431414
     56          6           0        7.537888   -2.718318    0.107058
     57          6           0        6.051756   -3.115796   -1.751909
     58          6           0        7.155153   -3.498257   -0.985865
     59          1           0        7.111509   -0.977436    1.300789
     60          1           0        4.496830   -1.660119   -2.040298
     61          1           0        8.397429   -3.010471    0.715458
     62          1           0        5.765438   -3.725350   -2.608604
     63          8           0        7.820509   -4.641023   -1.355507
     64          1           0        8.555246   -4.788670   -0.739309
     65          8           0        7.806379    4.648952    1.371018
     66          1           0        8.541702    4.800061    0.756350
     67          8           0       -7.887404   -4.628973    1.265636
     68          1           0       -7.503413   -5.071476    2.038990
     69          8           0       -7.819547    4.653451   -1.332021
     70          1           0       -8.560354    4.790553   -0.720672
 ---------------------------------------------------------------------
 Rotational constants (GHZ):           0.1256812           0.0264942           0.0228634
 Leave Link  202 at Mon Jan 18 03:26:58 2021, MaxMem=  4026531840 cpu:               0.2 elap:               0.0
 (Enter /opt/ohpc/pub/libs/gaussian/g16-A.03/sandybridge/g16/l301.exe)
 Standard basis: TZVP (5D, 7F)
 Ernie: Thresh=  0.10000D-02 Tol=  0.10000D-05 Strict=F.
 There are  1008 symmetry adapted cartesian basis functions of A   symmetry.
 There are   966 symmetry adapted basis functions of A   symmetry.
   966 basis functions,  1694 primitive gaussians,  1008 cartesian basis functions
   145 alpha electrons      145 beta electrons
       nuclear repulsion energy      4158.5104167158 Hartrees.
 IExCor=33909 DFT=T Ex+Corr=LC-wHPBE ExCW=0 ScaHFX=  1.000000
 ScaDFX=  1.000000  1.000000  1.000000  1.000000 ScalE2=  1.000000  1.000000
 IRadAn=      5 IRanWt=     -1 IRanGd=            0 ICorTp=0 IEmpDi=  4
 HFx  wShort=  0.000000 wLong=  0.221900 cFull=  0.000000 cShort=  0.000000 cLong=  1.000000
 DFx  wShort=  0.000000 wLong=  0.221900 cFull=  0.000000 cShort=  1.000000 cLong=  0.000000
 NAtoms=   70 NActive=   70 NUniq=   70 SFac= 1.00D+00 NAtFMM=   60 NAOKFM=T Big=T
 Integral buffers will be    131072 words long.
 Raffenetti 2 integral format.
 Two-electron integral symmetry is turned on.
 Leave Link  301 at Mon Jan 18 03:26:58 2021, MaxMem=  4026531840 cpu:               0.4 elap:               0.1
 (Enter /opt/ohpc/pub/libs/gaussian/g16-A.03/sandybridge/g16/l302.exe)
 NPDir=0 NMtPBC=     1 NCelOv=     1 NCel=       1 NClECP=     1 NCelD=      1
         NCelK=      1 NCelE2=     1 NClLst=     1 CellRange=     0.0.
 One-electron integrals computed using PRISM.
 One-electron integral symmetry used in STVInt
 NBasis=   966 RedAO= T EigKep=  7.09D-06  NBF=   966
 NBsUse=   966 1.00D-06 EigRej= -1.00D+00 NBFU=   966
 Precomputing XC quadrature grid using
 IXCGrd= 4 IRadAn=           5 IRanWt=          -1 IRanGd=           0 AccXCQ= 0.00D+00.
 Generated NRdTot=       0 NPtTot=           0 NUsed=           0 NTot=          32
 NSgBfM=   893   890   890   891   893 MxSgAt=    70 MxSgA2=    70.
 Leave Link  302 at Mon Jan 18 03:27:01 2021, MaxMem=  4026531840 cpu:              20.0 elap:               2.6
 (Enter /opt/ohpc/pub/libs/gaussian/g16-A.03/sandybridge/g16/l303.exe)
 DipDrv:  MaxL=1.
 Leave Link  303 at Mon Jan 18 03:27:01 2021, MaxMem=  4026531840 cpu:               1.3 elap:               0.2
 (Enter /opt/ohpc/pub/libs/gaussian/g16-A.03/sandybridge/g16/l401.exe)
 ExpMin= 9.52D-02 ExpMax= 2.70D+04 ExpMxC= 9.22D+02 IAcc=3 IRadAn=         5 AccDes= 0.00D+00
 Harris functional with IExCor=33909 and IRadAn=       5 diagonalized for initial guess.
 HarFok:  IExCor=33909 AccDes= 0.00D+00 IRadAn=         5 IDoV= 1 UseB2=F ITyADJ=14
 ICtDFT=  3500011 ScaDFX=  1.000000  1.000000  1.000000  1.000000
 FoFCou: FMM=F IPFlag=           0 FMFlag=      100000 FMFlg1=        2001
         NFxFlg=           0 DoJE=T BraDBF=F KetDBF=T FulRan=T
         wScrn=  0.000000 ICntrl=       500 IOpCl=  0 I1Cent=   200000004 NGrid=           0
         NMat0=    1 NMatS0=      1 NMatT0=    0 NMatD0=    1 NMtDS0=    0 NMtDT0=    0
 Petite list used in FoFCou.
 Harris En= -1764.02749415160    
 JPrj=0 DoOrth=F DoCkMO=F.
 Leave Link  401 at Mon Jan 18 03:27:12 2021, MaxMem=  4026531840 cpu:              86.8 elap:              10.9
 (Enter /opt/ohpc/pub/libs/gaussian/g16-A.03/sandybridge/g16/l502.exe)
 Integral symmetry usage will be decided dynamically.
 Closed shell SCF:
 Using DIIS extrapolation, IDIIS=    10.
 NGot=  4026531840 LenX=  4024481942 LenY=  4023464870
 Requested convergence on RMS density matrix=1.00D-06 within  32 cycles.
 Requested convergence on MAX density matrix=1.00D-04.
 Requested convergence on             energy=1.00D-04.
 Virtual orbitals will be shifted by   0.500 hartree.
 No special actions if energy rises.
 Dynamic level shift is on during FON iterations.

 Cycle   1  Pass 1  IDiag  1:
 FoFJK:  IHMeth= 1 ICntrl=       0 DoSepK=T KAlg= 0 I1Cent=           0 FoldK=F
 IRaf=         1 NMat=       1 IRICut=       1 DoRegI=T DoRafI=F ISym2E= 0 IDoP0=0 IntGTp=1.
 FoFCou: FMM=T IPFlag=           0 FMFlag=      100000 FMFlg1=        2001
         NFxFlg=           0 DoJE=T BraDBF=F KetDBF=F FulRan=T
         wScrn=  0.000000 ICntrl=       500 IOpCl=  0 I1Cent=           0 NGrid=           0
         NMat0=    1 NMatS0=      1 NMatT0=    0 NMatD0=    1 NMtDS0=    0 NMtDT0=    0
 Symmetry not used in FoFCou.
 FMM levels:  10  Number of levels for PrismC:   9
 E= -1797.44657305792    
 DIIS: error= 3.07D-02 at cycle   1 NSaved=   1.
 NSaved= 1 IEnMin= 1 EnMin= -1797.44657305792     IErMin= 1 ErrMin= 3.07D-02
 ErrMax= 3.07D-02  0.00D+00 EMaxC= 1.00D+00 BMatC= 6.74D-01 BMatP= 6.74D-01
 IDIUse=1 WtCom= 1.00D+00 WtEn= 0.00D+00
 Coeff-Com:  0.100D+01
 Coeff:      0.100D+01
 Gap=     0.278 Goal=   None    Shift=    0.500
 T= 1509. Gap= 0.745 NK=0 IS=  146 IE=  966 IFin=  145
          NO(<0.9)=   0  NV(>0.1)=   0    145.00e < EF      0.00e >EF  Err=0.0D+00
 GapD=    0.278 DampG=1.000 DampE=0.500 DampFc=0.5000 IDamp=-1.
 Damping current iteration by 5.00D-01
 RMSDP=1.90D-03 MaxDP=1.01D-01              OVMax= 7.10D-02

 Cycle   2  Pass 1  IDiag  1:
 E= -1797.83331371466     Delta-E=       -0.386740656745 Rises=F Damp=T
 DIIS: error= 1.40D-02 at cycle   2 NSaved=   2.
 NSaved= 2 IEnMin= 2 EnMin= -1797.83331371466     IErMin= 2 ErrMin= 1.40D-02
 ErrMax= 1.40D-02  0.00D+00 EMaxC= 1.00D+00 BMatC= 1.11D-01 BMatP= 6.74D-01
 IDIUse=1 WtCom= 1.00D+00 WtEn= 0.00D+00
 Coeff-Com: -0.523D+00 0.152D+01
 Coeff:     -0.523D+00 0.152D+01
 Gap=     0.301 Goal=   None    Shift=    0.500
 T= 1389. Gap= 0.749 NK=0 IS=  146 IE=  966 IFin=  145
          NO(<0.9)=   0  NV(>0.1)=   0    145.00e < EF      0.00e >EF  Err=0.0D+00
 GapD=    0.301 DampG=1.000 DampE=0.500 DampFc=0.5000 IDamp=-1.
 Damping current iteration by 5.00D-01
 RMSDP=1.14D-03 MaxDP=7.15D-02 DE=-3.87D-01 OVMax= 1.76D-02

 Cycle   3  Pass 1  IDiag  1:
 E= -1797.96836474020     Delta-E=       -0.135051025537 Rises=F Damp=T
 DIIS: error= 6.09D-03 at cycle   3 NSaved=   3.
 NSaved= 3 IEnMin= 3 EnMin= -1797.96836474020     IErMin= 3 ErrMin= 6.09D-03
 ErrMax= 6.09D-03  0.00D+00 EMaxC= 1.00D+00 BMatC= 2.12D-02 BMatP= 1.11D-01
 IDIUse=1 WtCom= 1.00D+00 WtEn= 0.00D+00
 Coeff-Com:  0.142D-01-0.746D+00 0.173D+01
 Coeff:      0.142D-01-0.746D+00 0.173D+01
 Gap=     0.256 Goal=   None    Shift=    0.500
 T= 1152. Gap= 0.755 NK=0 IS=  146 IE=  966 IFin=  145
          NO(<0.9)=   0  NV(>0.1)=   0    145.00e < EF      0.00e >EF  Err=0.0D+00
 GapD=    0.256 DampG=1.000 DampE=1.000 DampFc=1.0000 IDamp=-1.
 RMSDP=7.09D-04 MaxDP=6.38D-02 DE=-1.35D-01 OVMax= 1.21D-02

 Cycle   4  Pass 1  IDiag  1:
 E= -1798.08193333276     Delta-E=       -0.113568592561 Rises=F Damp=F
 DIIS: error= 1.50D-03 at cycle   4 NSaved=   4.
 NSaved= 4 IEnMin= 4 EnMin= -1798.08193333276     IErMin= 4 ErrMin= 1.50D-03
 ErrMax= 1.50D-03  0.00D+00 EMaxC= 1.00D+00 BMatC= 8.58D-04 BMatP= 2.12D-02
 IDIUse=1 WtCom= 1.00D+00 WtEn= 0.00D+00
 Coeff-Com:  0.620D-01-0.149D+00 0.118D+00 0.969D+00
 Coeff:      0.620D-01-0.149D+00 0.118D+00 0.969D+00
 Gap=     0.255 Goal=   None    Shift=    0.500
 T=  639. Gap= 0.755 NK=0 IS=  146 IE=  966 IFin=  145
          NO(<0.9)=   0  NV(>0.1)=   0    145.00e < EF      0.00e >EF  Err=0.0D+00
 GapD=    0.255 DampG=1.000 DampE=1.000 DampFc=1.0000 IDamp=-1.
 RMSDP=1.18D-04 MaxDP=1.05D-02 DE=-1.14D-01 OVMax= 8.87D-03

 Cycle   5  Pass 1  IDiag  1:
 E= -1798.08291754767     Delta-E=       -0.000984214907 Rises=F Damp=F
 DIIS: error= 1.16D-03 at cycle   5 NSaved=   5.
 NSaved= 5 IEnMin= 5 EnMin= -1798.08291754767     IErMin= 5 ErrMin= 1.16D-03
 ErrMax= 1.16D-03  0.00D+00 EMaxC= 1.00D+00 BMatC= 1.50D-04 BMatP= 8.58D-04
 IDIUse=1 WtCom= 1.00D+00 WtEn= 0.00D+00
 Coeff-Com:  0.194D-01 0.118D-01-0.101D+00 0.223D-01 0.105D+01
 Coeff:      0.194D-01 0.118D-01-0.101D+00 0.223D-01 0.105D+01
 Gap=     0.255 Goal=   None    Shift=    0.500
 T=   97. Gap= 0.755 NK=0 IS=  146 IE=  966 IFin=  145
          NO(<0.9)=   0  NV(>0.1)=   0    145.00e < EF      0.00e >EF  Err=0.0D+00
 GapD=    0.255 DampG=1.000 DampE=1.000 DampFc=1.0000 IDamp=-1.
 RMSDP=7.51D-05 MaxDP=5.69D-03 DE=-9.84D-04 OVMax= 6.60D-03

 Cycle   6  Pass 1  IDiag  1:
 E= -1798.08324667676     Delta-E=       -0.000329129095 Rises=F Damp=F
 DIIS: error= 9.32D-04 at cycle   6 NSaved=   6.
 NSaved= 6 IEnMin= 6 EnMin= -1798.08324667676     IErMin= 6 ErrMin= 9.32D-04
 ErrMax= 9.32D-04  0.00D+00 EMaxC= 1.00D+00 BMatC= 3.78D-05 BMatP= 1.50D-04
 IDIUse=1 WtCom= 1.00D+00 WtEn= 0.00D+00
 Coeff-Com: -0.128D-01 0.489D-01-0.656D-01-0.229D+00-0.869D-01 0.135D+01
 Coeff:     -0.128D-01 0.489D-01-0.656D-01-0.229D+00-0.869D-01 0.135D+01
 Gap=     0.256 Goal=   None    Shift=    0.500
 RMSDP=4.71D-05 MaxDP=2.60D-03 DE=-3.29D-04 OVMax= 5.94D-03

 Cycle   7  Pass 1  IDiag  1:
 E= -1798.08339821628     Delta-E=       -0.000151539522 Rises=F Damp=F
 DIIS: error= 6.83D-04 at cycle   7 NSaved=   7.
 NSaved= 7 IEnMin= 7 EnMin= -1798.08339821628     IErMin= 7 ErrMin= 6.83D-04
 ErrMax= 6.83D-04  0.00D+00 EMaxC= 1.00D+00 BMatC= 1.60D-05 BMatP= 3.78D-05
 IDIUse=1 WtCom= 1.00D+00 WtEn= 0.00D+00
 Coeff-Com: -0.889D-02 0.905D-02 0.916D-02-0.576D-01-0.291D+00-0.278D+00
 Coeff-Com:  0.162D+01
 Coeff:     -0.889D-02 0.905D-02 0.916D-02-0.576D-01-0.291D+00-0.278D+00
 Coeff:      0.162D+01
 Gap=     0.256 Goal=   None    Shift=    0.500
 RMSDP=2.82D-05 MaxDP=1.16D-03 DE=-1.52D-04 OVMax= 4.60D-03

 Cycle   8  Pass 1  IDiag  1:
 E= -1798.08347425793     Delta-E=       -0.000076041643 Rises=F Damp=F
 DIIS: error= 5.10D-04 at cycle   8 NSaved=   8.
 NSaved= 8 IEnMin= 8 EnMin= -1798.08347425793     IErMin= 8 ErrMin= 5.10D-04
 ErrMax= 5.10D-04  0.00D+00 EMaxC= 1.00D+00 BMatC= 7.51D-06 BMatP= 1.60D-05
 IDIUse=1 WtCom= 1.00D+00 WtEn= 0.00D+00
 Coeff-Com:  0.124D-02-0.168D-01 0.307D-01 0.665D-01-0.793D-01-0.834D+00
 Coeff-Com:  0.360D+00 0.147D+01
 Coeff:      0.124D-02-0.168D-01 0.307D-01 0.665D-01-0.793D-01-0.834D+00
 Coeff:      0.360D+00 0.147D+01
 Gap=     0.256 Goal=   None    Shift=    0.500
 RMSDP=1.57D-05 MaxDP=4.73D-04 DE=-7.60D-05 OVMax= 3.58D-03

 Cycle   9  Pass 1  IDiag  1:
 E= -1798.08351258754     Delta-E=       -0.000038329618 Rises=F Damp=F
 DIIS: error= 3.65D-04 at cycle   9 NSaved=   9.
 NSaved= 9 IEnMin= 9 EnMin= -1798.08351258754     IErMin= 9 ErrMin= 3.65D-04
 ErrMax= 3.65D-04  0.00D+00 EMaxC= 1.00D+00 BMatC= 3.28D-06 BMatP= 7.51D-06
 IDIUse=1 WtCom= 1.00D+00 WtEn= 0.00D+00
 Coeff-Com:  0.297D-02-0.300D-02-0.355D-02 0.255D-01 0.155D+00-0.210D+00
 Coeff-Com: -0.527D+00-0.661D+00 0.222D+01
 Coeff:      0.297D-02-0.300D-02-0.355D-02 0.255D-01 0.155D+00-0.210D+00
 Coeff:     -0.527D+00-0.661D+00 0.222D+01
 Gap=     0.256 Goal=   None    Shift=    0.500
 RMSDP=9.04D-06 MaxDP=3.37D-04 DE=-3.83D-05 OVMax= 2.73D-03

 Cycle  10  Pass 1  IDiag  1:
 E= -1798.08353114825     Delta-E=       -0.000018560710 Rises=F Damp=F
 DIIS: error= 2.53D-04 at cycle  10 NSaved=  10.
 NSaved=10 IEnMin=10 EnMin= -1798.08353114825     IErMin=10 ErrMin= 2.53D-04
 ErrMax= 2.53D-04  0.00D+00 EMaxC= 1.00D+00 BMatC= 1.57D-06 BMatP= 3.28D-06
 IDIUse=1 WtCom= 1.00D+00 WtEn= 0.00D+00
 Coeff-Com:  0.415D-04 0.615D-02-0.123D-01-0.581D-02 0.104D+00 0.134D-01
 Coeff-Com: -0.196D+00-0.717D+00 0.139D+00 0.167D+01
 Coeff:      0.415D-04 0.615D-02-0.123D-01-0.581D-02 0.104D+00 0.134D-01
 Coeff:     -0.196D+00-0.717D+00 0.139D+00 0.167D+01
 Gap=     0.256 Goal=   None    Shift=    0.500
 RMSDP=5.54D-06 MaxDP=2.12D-04 DE=-1.86D-05 OVMax= 1.86D-03

 Cycle  11  Pass 1  IDiag  1:
 E= -1798.08353927554     Delta-E=       -0.000008127282 Rises=F Damp=F
 DIIS: error= 1.74D-04 at cycle  11 NSaved=  11.
 NSaved=11 IEnMin=11 EnMin= -1798.08353927554     IErMin=11 ErrMin= 1.74D-04
 ErrMax= 1.74D-04  0.00D+00 EMaxC= 1.00D+00 BMatC= 7.05D-07 BMatP= 1.57D-06
 IDIUse=1 WtCom= 1.00D+00 WtEn= 0.00D+00
 Coeff-Com: -0.151D-02 0.554D-02-0.587D-02-0.113D-01-0.526D-03 0.403D-01
 Coeff-Com:  0.182D+00-0.188D+00-0.898D+00 0.130D-01 0.186D+01
 Coeff:     -0.151D-02 0.554D-02-0.587D-02-0.113D-01-0.526D-03 0.403D-01
 Coeff:      0.182D+00-0.188D+00-0.898D+00 0.130D-01 0.186D+01
 Gap=     0.256 Goal=   None    Shift=    0.500
 RMSDP=3.72D-06 MaxDP=1.44D-04 DE=-8.13D-06 OVMax= 1.29D-03

 Cycle  12  Pass 1  IDiag  1:
 E= -1798.08354285090     Delta-E=       -0.000003575367 Rises=F Damp=F
 DIIS: error= 1.19D-04 at cycle  12 NSaved=  12.
 NSaved=12 IEnMin=12 EnMin= -1798.08354285090     IErMin=12 ErrMin= 1.19D-04
 ErrMax= 1.19D-04  0.00D+00 EMaxC= 1.00D+00 BMatC= 3.26D-07 BMatP= 7.05D-07
 IDIUse=1 WtCom= 1.00D+00 WtEn= 0.00D+00
 Coeff-Com: -0.498D-03-0.640D-03 0.304D-02-0.394D-03-0.335D-01-0.260D-01
 Coeff-Com:  0.193D+00 0.140D+00-0.342D+00-0.102D+01 0.280D+00 0.180D+01
 Coeff:     -0.498D-03-0.640D-03 0.304D-02-0.394D-03-0.335D-01-0.260D-01
 Coeff:      0.193D+00 0.140D+00-0.342D+00-0.102D+01 0.280D+00 0.180D+01
 Gap=     0.256 Goal=   None    Shift=    0.500
 RMSDP=2.39D-06 MaxDP=9.32D-05 DE=-3.58D-06 OVMax= 8.75D-04

 Cycle  13  Pass 1  IDiag  1:
 E= -1798.08354439318     Delta-E=       -0.000001542276 Rises=F Damp=F
 DIIS: error= 7.94D-05 at cycle  13 NSaved=  13.
 NSaved=13 IEnMin=13 EnMin= -1798.08354439318     IErMin=13 ErrMin= 7.94D-05
 ErrMax= 7.94D-05  0.00D+00 EMaxC= 1.00D+00 BMatC= 1.46D-07 BMatP= 3.26D-07
 IDIUse=1 WtCom= 1.00D+00 WtEn= 0.00D+00
 Coeff-Com:  0.243D-03-0.156D-02 0.228D-02 0.243D-02-0.493D-02-0.299D-01
 Coeff-Com:  0.300D-01 0.380D-01 0.219D+00-0.463D+00-0.227D+00-0.936D+00
 Coeff-Com:  0.237D+01
 Coeff:      0.243D-03-0.156D-02 0.228D-02 0.243D-02-0.493D-02-0.299D-01
 Coeff:      0.300D-01 0.380D-01 0.219D+00-0.463D+00-0.227D+00-0.936D+00
 Coeff:      0.237D+01
 Gap=     0.256 Goal=   None    Shift=    0.500
 RMSDP=1.51D-06 MaxDP=5.98D-05 DE=-1.54D-06 OVMax= 5.77D-04

 Cycle  14  Pass 1  IDiag  1:
 E= -1798.08354504136     Delta-E=       -0.000000648183 Rises=F Damp=F
 DIIS: error= 5.32D-05 at cycle  14 NSaved=  14.
 NSaved=14 IEnMin=14 EnMin= -1798.08354504136     IErMin=14 ErrMin= 5.32D-05
 ErrMax= 5.32D-05  0.00D+00 EMaxC= 1.00D+00 BMatC= 6.58D-08 BMatP= 1.46D-07
 IDIUse=1 WtCom= 1.00D+00 WtEn= 0.00D+00
 Coeff-Com:  0.215D-03-0.247D-05-0.769D-03 0.119D-02 0.114D-01-0.567D-02
 Coeff-Com: -0.480D-01-0.511D-01 0.240D+00 0.160D+00-0.178D+00-0.158D+01
 Coeff-Com:  0.650D+00 0.181D+01
 Coeff:      0.215D-03-0.247D-05-0.769D-03 0.119D-02 0.114D-01-0.567D-02
 Coeff:     -0.480D-01-0.511D-01 0.240D+00 0.160D+00-0.178D+00-0.158D+01
 Coeff:      0.650D+00 0.181D+01
 Gap=     0.256 Goal=   None    Shift=    0.500
 RMSDP=9.79D-07 MaxDP=3.64D-05 DE=-6.48D-07 OVMax= 3.83D-04

 SCF Done:  E(RLC-wHPBE) =  -1798.08354504     A.U. after   14 cycles
            NFock= 14  Conv=0.98D-06     -V/T= 2.0049
 KE= 1.789293788051D+03 PE=-1.250541246249D+04 EE= 4.759524712685D+03
 Leave Link  502 at Mon Jan 18 03:44:05 2021, MaxMem=  4026531840 cpu:            7984.4 elap:            1012.5
 (Enter /opt/ohpc/pub/libs/gaussian/g16-A.03/sandybridge/g16/l508.exe)
 QCSCF skips out because SCF is already converged.
 Leave Link  508 at Mon Jan 18 03:44:05 2021, MaxMem=  4026531840 cpu:               0.1 elap:               0.0
 (Enter /opt/ohpc/pub/libs/gaussian/g16-A.03/sandybridge/g16/l601.exe)
 Copying SCF densities to generalized density rwf, IOpCl= 0 IROHF=0.

 **********************************************************************

            Population analysis using the SCF density.

 **********************************************************************

 Orbital symmetries:
       Occupied  (A) (A) (A) (A) (A) (A) (A) (A) (A) (A) (A) (A)
                 (A) (A) (A) (A) (A) (A) (A) (A) (A) (A) (A) (A)
                 (A) (A) (A) (A) (A) (A) (A) (A) (A) (A) (A) (A)
                 (A) (A) (A) (A) (A) (A) (A) (A) (A) (A) (A) (A)
                 (A) (A) (A) (A) (A) (A) (A) (A) (A) (A) (A) (A)
                 (A) (A) (A) (A) (A) (A) (A) (A) (A) (A) (A) (A)
                 (A) (A) (A) (A) (A) (A) (A) (A) (A) (A) (A) (A)
                 (A) (A) (A) (A) (A) (A) (A) (A) (A) (A) (A) (A)
                 (A) (A) (A) (A) (A) (A) (A) (A) (A) (A) (A) (A)
                 (A) (A) (A) (A) (A) (A) (A) (A) (A) (A) (A) (A)
                 (A) (A) (A) (A) (A) (A) (A) (A) (A) (A) (A) (A)
                 (A) (A) (A) (A) (A) (A) (A) (A) (A) (A) (A) (A)
                 (A)
       Virtual   (A) (A) (A) (A) (A) (A) (A) (A) (A) (A) (A) (A)
                 (A) (A) (A) (A) (A) (A) (A) (A) (A) (A) (A) (A)
                 (A) (A) (A) (A) (A) (A) (A) (A) (A) (A) (A) (A)
                 (A) (A) (A) (A) (A) (A) (A) (A) (A) (A) (A) (A)
                 (A) (A) (A) (A) (A) (A) (A) (A) (A) (A) (A) (A)
                 (A) (A) (A) (A) (A) (A) (A) (A) (A) (A) (A) (A)
                 (A) (A) (A) (A) (A) (A) (A) (A) (A) (A) (A) (A)
                 (A) (A) (A) (A) (A) (A) (A) (A) (A) (A) (A) (A)
                 (A) (A) (A) (A) (A) (A) (A) (A) (A) (A) (A) (A)
                 (A) (A) (A) (A) (A) (A) (A) (A) (A) (A) (A) (A)
                 (A) (A) (A) (A) (A) (A) (A) (A) (A) (A) (A) (A)
                 (A) (A) (A) (A) (A) (A) (A) (A) (A) (A) (A) (A)
                 (A) (A) (A) (A) (A) (A) (A) (A) (A) (A) (A) (A)
                 (A) (A) (A) (A) (A) (A) (A) (A) (A) (A) (A) (A)
                 (A) (A) (A) (A) (A) (A) (A) (A) (A) (A) (A) (A)
                 (A) (A) (A) (A) (A) (A) (A) (A) (A) (A) (A) (A)
                 (A) (A) (A) (A) (A) (A) (A) (A) (A) (A) (A) (A)
                 (A) (A) (A) (A) (A) (A) (A) (A) (A) (A) (A) (A)
                 (A) (A) (A) (A) (A) (A) (A) (A) (A) (A) (A) (A)
                 (A) (A) (A) (A) (A) (A) (A) (A) (A) (A) (A) (A)
                 (A) (A) (A) (A) (A) (A) (A) (A) (A) (A) (A) (A)
                 (A) (A) (A) (A) (A) (A) (A) (A) (A) (A) (A) (A)
                 (A) (A) (A) (A) (A) (A) (A) (A) (A) (A) (A) (A)
                 (A) (A) (A) (A) (A) (A) (A) (A) (A) (A) (A) (A)
                 (A) (A) (A) (A) (A) (A) (A) (A) (A) (A) (A) (A)
                 (A) (A) (A) (A) (A) (A) (A) (A) (A) (A) (A) (A)
                 (A) (A) (A) (A) (A) (A) (A) (A) (A) (A) (A) (A)
                 (A) (A) (A) (A) (A) (A) (A) (A) (A) (A) (A) (A)
                 (A) (A) (A) (A) (A) (A) (A) (A) (A) (A) (A) (A)
                 (A) (A) (A) (A) (A) (A) (A) (A) (A) (A) (A) (A)
                 (A) (A) (A) (A) (A) (A) (A) (A) (A) (A) (A) (A)
                 (A) (A) (A) (A) (A) (A) (A) (A) (A) (A) (A) (A)
                 (A) (A) (A) (A) (A) (A) (A) (A) (A) (A) (A) (A)
                 (A) (A) (A) (A) (A) (A) (A) (A) (A) (A) (A) (A)
                 (A) (A) (A) (A) (A) (A) (A) (A) (A) (A) (A) (A)
                 (A) (A) (A) (A) (A) (A) (A) (A) (A) (A) (A) (A)
                 (A) (A) (A) (A) (A) (A) (A) (A) (A) (A) (A) (A)
                 (A) (A) (A) (A) (A) (A) (A) (A) (A) (A) (A) (A)
                 (A) (A) (A) (A) (A) (A) (A) (A) (A) (A) (A) (A)
                 (A) (A) (A) (A) (A) (A) (A) (A) (A) (A) (A) (A)
                 (A) (A) (A) (A) (A) (A) (A) (A) (A) (A) (A) (A)
                 (A) (A) (A) (A) (A) (A) (A) (A) (A) (A) (A) (A)
                 (A) (A) (A) (A) (A) (A) (A) (A) (A) (A) (A) (A)
                 (A) (A) (A) (A) (A) (A) (A) (A) (A) (A) (A) (A)
                 (A) (A) (A) (A) (A) (A) (A) (A) (A) (A) (A) (A)
                 (A) (A) (A) (A) (A) (A) (A) (A) (A) (A) (A) (A)
                 (A) (A) (A) (A) (A) (A) (A) (A) (A) (A) (A) (A)
                 (A) (A) (A) (A) (A) (A) (A) (A) (A) (A) (A) (A)
                 (A) (A) (A) (A) (A) (A) (A) (A) (A) (A) (A) (A)
                 (A) (A) (A) (A) (A) (A) (A) (A) (A) (A) (A) (A)
                 (A) (A) (A) (A) (A) (A) (A) (A) (A) (A) (A) (A)
                 (A) (A) (A) (A) (A) (A) (A) (A) (A) (A) (A) (A)
                 (A) (A) (A) (A) (A) (A) (A) (A) (A) (A) (A) (A)
                 (A) (A) (A) (A) (A) (A) (A) (A) (A) (A) (A) (A)
                 (A) (A) (A) (A) (A) (A) (A) (A) (A) (A) (A) (A)
                 (A) (A) (A) (A) (A) (A) (A) (A) (A) (A) (A) (A)
                 (A) (A) (A) (A) (A) (A) (A) (A) (A) (A) (A) (A)
                 (A) (A) (A) (A) (A) (A) (A) (A) (A) (A) (A) (A)
                 (A) (A) (A) (A) (A) (A) (A) (A) (A) (A) (A) (A)
                 (A) (A) (A) (A) (A) (A) (A) (A) (A) (A) (A) (A)
                 (A) (A) (A) (A) (A) (A) (A) (A) (A) (A) (A) (A)
                 (A) (A) (A) (A) (A) (A) (A) (A) (A) (A) (A) (A)
                 (A) (A) (A) (A) (A) (A) (A) (A) (A) (A) (A) (A)
                 (A) (A) (A) (A) (A) (A) (A) (A) (A) (A) (A) (A)
                 (A) (A) (A) (A) (A) (A) (A) (A) (A) (A) (A) (A)
                 (A) (A) (A) (A) (A) (A) (A) (A) (A) (A) (A) (A)
                 (A) (A) (A) (A) (A) (A) (A) (A) (A) (A) (A) (A)
                 (A) (A) (A) (A) (A) (A) (A) (A) (A) (A) (A) (A)
                 (A) (A) (A) (A) (A)
 The electronic state is 1-A.
 Alpha  occ. eigenvalues --  -18.90707 -18.90702 -18.90649 -18.90578 -14.13956
 Alpha  occ. eigenvalues --  -14.13900 -10.07412 -10.07410 -10.07351 -10.07281
 Alpha  occ. eigenvalues --  -10.05116 -10.05089 -10.04986 -10.04981 -10.04928
 Alpha  occ. eigenvalues --  -10.04887 -10.01943 -10.01938 -10.01887 -10.01815
 Alpha  occ. eigenvalues --  -10.01798 -10.01795 -10.01734 -10.01678 -10.01628
 Alpha  occ. eigenvalues --  -10.01626 -10.01571 -10.01510 -10.01483 -10.01468
 Alpha  occ. eigenvalues --  -10.01299 -10.01298 -10.01240 -10.01180 -10.00941
 Alpha  occ. eigenvalues --  -10.00934 -10.00928 -10.00926 -10.00671 -10.00666
 Alpha  occ. eigenvalues --  -10.00663 -10.00657  -1.10246  -1.10242  -1.10186
 Alpha  occ. eigenvalues --   -1.10117  -1.01379  -1.01321  -0.91904  -0.91407
 Alpha  occ. eigenvalues --   -0.91324  -0.90819  -0.89779  -0.88670  -0.83335
 Alpha  occ. eigenvalues --   -0.81623  -0.81568  -0.81482  -0.81108  -0.81005
 Alpha  occ. eigenvalues --   -0.80829  -0.80111  -0.79647  -0.79498  -0.77284
 Alpha  occ. eigenvalues --   -0.75245  -0.70896  -0.70163  -0.69553  -0.69407
 Alpha  occ. eigenvalues --   -0.68996  -0.68276  -0.67858  -0.67227  -0.66084
 Alpha  occ. eigenvalues --   -0.65359  -0.64582  -0.63445  -0.61806  -0.61694
 Alpha  occ. eigenvalues --   -0.61623  -0.61609  -0.60640  -0.59966  -0.59377
 Alpha  occ. eigenvalues --   -0.58938  -0.56733  -0.55357  -0.55145  -0.53907
 Alpha  occ. eigenvalues --   -0.53571  -0.53261  -0.51521  -0.51325  -0.51253
 Alpha  occ. eigenvalues --   -0.51209  -0.50738  -0.50623  -0.50388  -0.49492
 Alpha  occ. eigenvalues --   -0.49480  -0.49397  -0.49236  -0.48956  -0.48760
 Alpha  occ. eigenvalues --   -0.48711  -0.48571  -0.48452  -0.48273  -0.48168
 Alpha  occ. eigenvalues --   -0.47823  -0.46807  -0.46676  -0.46350  -0.45386
 Alpha  occ. eigenvalues --   -0.45198  -0.44868  -0.44467  -0.44254  -0.44081
 Alpha  occ. eigenvalues --   -0.42595  -0.42335  -0.42043  -0.41963  -0.41431
 Alpha  occ. eigenvalues --   -0.41200  -0.41094  -0.40827  -0.40763  -0.40598
 Alpha  occ. eigenvalues --   -0.39943  -0.37695  -0.36064  -0.34008  -0.33948
 Alpha  occ. eigenvalues --   -0.33516  -0.33239  -0.32634  -0.32499  -0.32480
 Alpha  occ. eigenvalues --   -0.30679  -0.30553  -0.30274  -0.24999  -0.23428
 Alpha virt. eigenvalues --    0.02213   0.02977   0.03065   0.04681   0.04771
 Alpha virt. eigenvalues --    0.05101   0.05204   0.05609   0.05920   0.06042
 Alpha virt. eigenvalues --    0.08558   0.09138   0.09195   0.09219   0.09296
 Alpha virt. eigenvalues --    0.10508   0.11474   0.11722   0.12560   0.12682
 Alpha virt. eigenvalues --    0.12858   0.13561   0.13916   0.14640   0.14665
 Alpha virt. eigenvalues --    0.14829   0.14980   0.15534   0.15647   0.16106
 Alpha virt. eigenvalues --    0.16844   0.17025   0.17784   0.18004   0.18302
 Alpha virt. eigenvalues --    0.18431   0.18564   0.18758   0.18905   0.19851
 Alpha virt. eigenvalues --    0.20048   0.20120   0.20375   0.20577   0.22000
 Alpha virt. eigenvalues --    0.22060   0.22190   0.22450   0.22787   0.23022
 Alpha virt. eigenvalues --    0.23125   0.23535   0.24171   0.24720   0.24865
 Alpha virt. eigenvalues --    0.25158   0.25295   0.25363   0.26178   0.26722
 Alpha virt. eigenvalues --    0.26895   0.27253   0.27420   0.27744   0.28010
 Alpha virt. eigenvalues --    0.28126   0.28300   0.28843   0.29137   0.29339
 Alpha virt. eigenvalues --    0.29440   0.29566   0.29683   0.29768   0.29851
 Alpha virt. eigenvalues --    0.30029   0.30085   0.30708   0.31158   0.31291
 Alpha virt. eigenvalues --    0.31466   0.31586   0.31661   0.31916   0.32320
 Alpha virt. eigenvalues --    0.32516   0.32778   0.33115   0.33289   0.33355
 Alpha virt. eigenvalues --    0.33571   0.34212   0.34432   0.34785   0.35032
 Alpha virt. eigenvalues --    0.35363   0.35422   0.35652   0.35913   0.35928
 Alpha virt. eigenvalues --    0.36024   0.36370   0.36427   0.36606   0.37274
 Alpha virt. eigenvalues --    0.37559   0.37919   0.38753   0.38886   0.38929
 Alpha virt. eigenvalues --    0.39082   0.39219   0.39392   0.39552   0.40006
 Alpha virt. eigenvalues --    0.40154   0.40448   0.40593   0.41224   0.41677
 Alpha virt. eigenvalues --    0.41821   0.42056   0.42309   0.42613   0.42788
 Alpha virt. eigenvalues --    0.43133   0.43250   0.43544   0.43765   0.43924
 Alpha virt. eigenvalues --    0.43991   0.44123   0.44337   0.44638   0.44826
 Alpha virt. eigenvalues --    0.44960   0.45076   0.45369   0.45401   0.45556
 Alpha virt. eigenvalues --    0.45624   0.45851   0.45909   0.46028   0.46485
 Alpha virt. eigenvalues --    0.46751   0.46934   0.47134   0.47188   0.47433
 Alpha virt. eigenvalues --    0.47678   0.47830   0.47896   0.48265   0.49026
 Alpha virt. eigenvalues --    0.49241   0.49670   0.49756   0.49831   0.50374
 Alpha virt. eigenvalues --    0.50629   0.50701   0.51260   0.51506   0.51619
 Alpha virt. eigenvalues --    0.51826   0.52083   0.52111   0.52347   0.52650
 Alpha virt. eigenvalues --    0.52651   0.53032   0.53843   0.53986   0.54086
 Alpha virt. eigenvalues --    0.54294   0.54418   0.54773   0.54840   0.55087
 Alpha virt. eigenvalues --    0.55294   0.55499   0.55601   0.55837   0.56044
 Alpha virt. eigenvalues --    0.56576   0.56662   0.57066   0.57712   0.58144
 Alpha virt. eigenvalues --    0.58448   0.58544   0.58823   0.59026   0.59585
 Alpha virt. eigenvalues --    0.60476   0.60620   0.60891   0.60967   0.61550
 Alpha virt. eigenvalues --    0.61681   0.61869   0.62060   0.62305   0.62976
 Alpha virt. eigenvalues --    0.63342   0.63492   0.63791   0.63914   0.64229
 Alpha virt. eigenvalues --    0.64349   0.64371   0.64554   0.64802   0.65049
 Alpha virt. eigenvalues --    0.65443   0.65570   0.67184   0.67887   0.68291
 Alpha virt. eigenvalues --    0.68460   0.69033   0.69572   0.69873   0.70672
 Alpha virt. eigenvalues --    0.71060   0.71572   0.72464   0.72695   0.72959
 Alpha virt. eigenvalues --    0.73298   0.73384   0.73670   0.73811   0.73939
 Alpha virt. eigenvalues --    0.74097   0.74335   0.75122   0.75390   0.75673
 Alpha virt. eigenvalues --    0.75695   0.76283   0.76624   0.77167   0.77481
 Alpha virt. eigenvalues --    0.77831   0.77989   0.78110   0.78589   0.79005
 Alpha virt. eigenvalues --    0.79905   0.80079   0.80374   0.80919   0.81505
 Alpha virt. eigenvalues --    0.81736   0.82114   0.82441   0.82685   0.83137
 Alpha virt. eigenvalues --    0.83576   0.83833   0.85017   0.85710   0.85866
 Alpha virt. eigenvalues --    0.86475   0.86820   0.87506   0.87697   0.88978
 Alpha virt. eigenvalues --    0.89222   0.90136   0.90591   0.91057   0.91524
 Alpha virt. eigenvalues --    0.92715   0.93073   0.93543   0.93986   0.94225
 Alpha virt. eigenvalues --    0.94424   0.95407   0.95751   0.97974   0.99540
 Alpha virt. eigenvalues --    0.99663   0.99713   1.02242   1.02420   1.19524
 Alpha virt. eigenvalues --    1.21129   1.22153   1.22222   1.22296   1.27238
 Alpha virt. eigenvalues --    1.27388   1.27839   1.28110   1.28686   1.28842
 Alpha virt. eigenvalues --    1.28945   1.29126   1.29474   1.30056   1.30091
 Alpha virt. eigenvalues --    1.30377   1.30543   1.30624   1.30849   1.31079
 Alpha virt. eigenvalues --    1.31157   1.31243   1.32454   1.33210   1.33337
 Alpha virt. eigenvalues --    1.33846   1.34060   1.34149   1.34384   1.34953
 Alpha virt. eigenvalues --    1.35119   1.35473   1.36145   1.36310   1.36565
 Alpha virt. eigenvalues --    1.36883   1.37720   1.37853   1.38177   1.38376
 Alpha virt. eigenvalues --    1.38580   1.38902   1.39032   1.39397   1.39578
 Alpha virt. eigenvalues --    1.39934   1.40277   1.40448   1.40697   1.40853
 Alpha virt. eigenvalues --    1.40889   1.41152   1.42214   1.43103   1.43326
 Alpha virt. eigenvalues --    1.43912   1.44054   1.46549   1.46602   1.46630
 Alpha virt. eigenvalues --    1.46729   1.47110   1.47333   1.47471   1.47566
 Alpha virt. eigenvalues --    1.47656   1.47753   1.47910   1.48038   1.48411
 Alpha virt. eigenvalues --    1.48593   1.49127   1.49478   1.49586   1.49722
 Alpha virt. eigenvalues --    1.49805   1.50057   1.50227   1.50484   1.50633
 Alpha virt. eigenvalues --    1.51021   1.51240   1.51755   1.52172   1.52453
 Alpha virt. eigenvalues --    1.52700   1.52721   1.52802   1.53145   1.53262
 Alpha virt. eigenvalues --    1.53471   1.53646   1.53909   1.54096   1.54233
 Alpha virt. eigenvalues --    1.54421   1.54797   1.56155   1.56324   1.56965
 Alpha virt. eigenvalues --    1.57033   1.57399   1.57547   1.57793   1.57960
 Alpha virt. eigenvalues --    1.58039   1.58195   1.58320   1.58358   1.58399
 Alpha virt. eigenvalues --    1.58524   1.58655   1.59205   1.59519   1.59656
 Alpha virt. eigenvalues --    1.59783   1.59860   1.60075   1.60224   1.60763
 Alpha virt. eigenvalues --    1.61066   1.61739   1.61785   1.61941   1.61998
 Alpha virt. eigenvalues --    1.62348   1.62726   1.63125   1.63621   1.63717
 Alpha virt. eigenvalues --    1.64062   1.64234   1.64351   1.65444   1.65834
 Alpha virt. eigenvalues --    1.66004   1.66151   1.66904   1.67644   1.67776
 Alpha virt. eigenvalues --    1.69757   1.70160   1.70979   1.71417   1.72292
 Alpha virt. eigenvalues --    1.72490   1.72716   1.73033   1.74700   1.75554
 Alpha virt. eigenvalues --    1.76880   1.77288   1.77319   1.77897   1.79699
 Alpha virt. eigenvalues --    1.80209   1.80443   1.80877   1.81056   1.81187
 Alpha virt. eigenvalues --    1.81481   1.81694   1.82053   1.82154   1.82597
 Alpha virt. eigenvalues --    1.82853   1.83191   1.83282   1.83522   1.84118
 Alpha virt. eigenvalues --    1.84239   1.84375   1.84654   1.85027   1.85249
 Alpha virt. eigenvalues --    1.85619   1.85628   1.86300   1.86638   1.87198
 Alpha virt. eigenvalues --    1.87849   1.88188   1.88417   1.88851   1.89661
 Alpha virt. eigenvalues --    1.89847   1.90622   1.90675   1.90772   1.91258
 Alpha virt. eigenvalues --    1.91296   1.91731   1.92773   1.93243   1.93674
 Alpha virt. eigenvalues --    1.93819   1.93977   1.94671   1.95330   1.95448
 Alpha virt. eigenvalues --    1.95754   1.95807   1.96261   1.96380   1.96609
 Alpha virt. eigenvalues --    1.96754   1.96950   1.97617   1.97703   1.98032
 Alpha virt. eigenvalues --    1.98193   1.98476   1.99524   1.99799   2.00393
 Alpha virt. eigenvalues --    2.01292   2.01334   2.02292   2.03364   2.03473
 Alpha virt. eigenvalues --    2.03558   2.04217   2.04405   2.04642   2.04899
 Alpha virt. eigenvalues --    2.05200   2.05344   2.05779   2.06487   2.06821
 Alpha virt. eigenvalues --    2.07193   2.08011   2.08234   2.09613   2.09684
 Alpha virt. eigenvalues --    2.11069   2.11766   2.12176   2.12323   2.12741
 Alpha virt. eigenvalues --    2.13133   2.13568   2.13690   2.14297   2.15361
 Alpha virt. eigenvalues --    2.15833   2.18790   2.19965   2.20812   2.21237
 Alpha virt. eigenvalues --    2.22748   2.22891   2.22998   2.23484   2.23645
 Alpha virt. eigenvalues --    2.24706   2.25044   2.25270   2.25416   2.26362
 Alpha virt. eigenvalues --    2.27234   2.27379   2.28199   2.28387   2.28449
 Alpha virt. eigenvalues --    2.29493   2.31494   2.31614   2.33669   2.33826
 Alpha virt. eigenvalues --    2.34244   2.34544   2.34606   2.34681   2.34916
 Alpha virt. eigenvalues --    2.35012   2.35194   2.35564   2.35740   2.36046
 Alpha virt. eigenvalues --    2.36416   2.36683   2.37121   2.37489   2.37852
 Alpha virt. eigenvalues --    2.37945   2.38106   2.38344   2.39101   2.39191
 Alpha virt. eigenvalues --    2.39518   2.39830   2.40720   2.40765   2.40891
 Alpha virt. eigenvalues --    2.41040   2.41140   2.41305   2.41427   2.41494
 Alpha virt. eigenvalues --    2.41673   2.41786   2.41855   2.42143   2.42759
 Alpha virt. eigenvalues --    2.42833   2.43336   2.43760   2.45381   2.47428
 Alpha virt. eigenvalues --    2.47993   2.48300   2.50230   2.51294   2.51432
 Alpha virt. eigenvalues --    2.51623   2.51653   2.51740   2.52821   2.53550
 Alpha virt. eigenvalues --    2.56425   2.56511   2.57642   2.58156   2.59741
 Alpha virt. eigenvalues --    2.59846   2.60178   2.60294   2.60649   2.62214
 Alpha virt. eigenvalues --    2.62411   2.62626   2.63035   2.63734   2.64060
 Alpha virt. eigenvalues --    2.64225   2.64516   2.64772   2.64824   2.65270
 Alpha virt. eigenvalues --    2.65459   2.65808   2.67605   2.67809   2.68094
 Alpha virt. eigenvalues --    2.68135   2.68198   2.68936   2.69188   2.69903
 Alpha virt. eigenvalues --    2.70269   2.71422   2.71781   2.72680   2.73305
 Alpha virt. eigenvalues --    2.73501   2.74069   2.74901   2.76786   2.76912
 Alpha virt. eigenvalues --    2.77336   2.77501   2.78963   2.79713   2.79991
 Alpha virt. eigenvalues --    2.80744   2.81065   2.81873   2.82463   2.82623
 Alpha virt. eigenvalues --    2.83102   2.84587   2.86012   2.86580   2.87111
 Alpha virt. eigenvalues --    2.87274   2.88379   2.88941   2.89337   2.89510
 Alpha virt. eigenvalues --    2.89767   2.90020   2.91553   2.92367   2.96224
 Alpha virt. eigenvalues --    2.96272   2.96294   2.96438   2.96950   2.97178
 Alpha virt. eigenvalues --    2.97411   2.97791   2.99016   2.99255   2.99683
 Alpha virt. eigenvalues --    3.00528   3.01627   3.01668   3.01710   3.01763
 Alpha virt. eigenvalues --    3.03124   3.03361   3.04221   3.04350   3.06810
 Alpha virt. eigenvalues --    3.07158   3.07228   3.07476   3.07543   3.07857
 Alpha virt. eigenvalues --    3.08940   3.09437   3.10443   3.10699   3.11784
 Alpha virt. eigenvalues --    3.11995   3.12203   3.12538   3.14169   3.15623
 Alpha virt. eigenvalues --    3.16017   3.16091   3.16244   3.17251   3.17725
 Alpha virt. eigenvalues --    3.17814   3.17947   3.18084   3.21099   3.21326
 Alpha virt. eigenvalues --    3.21606   3.21986   3.22004   3.23350   3.25695
 Alpha virt. eigenvalues --    3.26089   3.26403   3.26465   3.26710   3.27110
 Alpha virt. eigenvalues --    3.27528   3.27970   3.28015   3.29426   3.29966
 Alpha virt. eigenvalues --    3.30960   3.31598   3.31988   3.33885   3.34287
 Alpha virt. eigenvalues --    3.34365   3.35955   3.36673   3.38536   3.38888
 Alpha virt. eigenvalues --    3.40400   3.40884   3.41655   3.41683   3.41807
 Alpha virt. eigenvalues --    3.44027   3.44656   3.44820   3.48696   3.49022
 Alpha virt. eigenvalues --    3.55767   3.55921   3.57648   3.58772   3.59382
 Alpha virt. eigenvalues --    3.60468   3.60722   3.60779   3.61947   3.64159
 Alpha virt. eigenvalues --    3.72833   3.76122   3.86631   3.86797   3.90333
 Alpha virt. eigenvalues --    3.94616   4.08487   4.08548   4.09266   4.09390
 Alpha virt. eigenvalues --    4.32970   4.33051   4.33059   4.33144  21.18631
 Alpha virt. eigenvalues --   21.26308  21.26404  21.27831  21.28153  21.39283
 Alpha virt. eigenvalues --   21.70485  21.70691  21.70897  21.73673  21.74091
 Alpha virt. eigenvalues --   21.74461  21.77214  21.78369  21.80927  21.85415
 Alpha virt. eigenvalues --   21.85943  21.92037  21.92370  21.96407  21.96569
 Alpha virt. eigenvalues --   21.97202  21.98463  21.99203  21.99693  22.01861
 Alpha virt. eigenvalues --   22.03680  22.04011  22.04109  22.05605  22.10013
 Alpha virt. eigenvalues --   22.10826  22.15903  22.17101  22.17751  22.18343
 Alpha virt. eigenvalues --   32.07676  32.08692  43.26151  43.26264  43.26361
 Alpha virt. eigenvalues --   43.26441
          Condensed to atoms (all electrons):
 Mulliken charges:
               1
     1  C   -0.150017
     2  C    0.013638
     3  C   -0.155425
     4  C   -0.149962
     5  C    0.027010
     6  C   -0.155386
     7  H    0.124905
     8  H    0.151147
     9  H    0.126547
    10  C    0.027358
    11  C   -0.155600
    12  C   -0.155141
    13  C   -0.147336
    14  C   -0.150957
    15  C    0.008728
    16  H    0.126247
    17  H    0.126378
    18  H    0.151184
    19  H    0.150262
    20  H    0.150866
    21  N   -0.015067
    22  C   -0.115676
    23  C   -0.061161
    24  C   -0.086247
    25  C   -0.207031
    26  C   -0.180204
    27  C    0.116315
    28  H    0.140776
    29  H    0.149172
    30  H    0.122198
    31  H    0.111423
    32  C   -0.109579
    33  C   -0.084431
    34  C   -0.067949
    35  C   -0.177412
    36  C   -0.203798
    37  C    0.113189
    38  H    0.142399
    39  H    0.147930
    40  H    0.112025
    41  H    0.122337
    42  N   -0.014195
    43  C   -0.118661
    44  C   -0.083494
    45  C   -0.062260
    46  C   -0.178390
    47  C   -0.204922
    48  C    0.113931
    49  H    0.141764
    50  H    0.147603
    51  H    0.112273
    52  H    0.122324
    53  C   -0.117023
    54  C   -0.084220
    55  C   -0.063462
    56  C   -0.178360
    57  C   -0.204834
    58  C    0.113725
    59  H    0.141780
    60  H    0.148140
    61  H    0.112134
    62  H    0.122516
    63  O   -0.243667
    64  H    0.268725
    65  O   -0.243650
    66  H    0.268802
    67  O   -0.243973
    68  H    0.268782
    69  O   -0.243801
    70  H    0.268758
 Sum of Mulliken charges =  -0.00000
 Mulliken charges with hydrogens summed into heavy atoms:
               1
     1  C    0.000849
     2  C    0.013638
     3  C   -0.030519
     4  C    0.001186
     5  C    0.027010
     6  C   -0.028839
    10  C    0.027358
    11  C   -0.029353
    12  C   -0.028762
    13  C    0.003848
    14  C   -0.000695
    15  C    0.008728
    21  N   -0.015067
    22  C   -0.115676
    23  C    0.079615
    24  C    0.062924
    25  C   -0.084833
    26  C   -0.068781
    27  C    0.116315
    32  C   -0.109579
    33  C    0.057968
    34  C    0.079981
    35  C   -0.065387
    36  C   -0.081462
    37  C    0.113189
    42  N   -0.014195
    43  C   -0.118661
    44  C    0.058270
    45  C    0.085342
    46  C   -0.066117
    47  C   -0.082598
    48  C    0.113931
    53  C   -0.117023
    54  C    0.057560
    55  C    0.084678
    56  C   -0.066226
    57  C   -0.082318
    58  C    0.113725
    63  O    0.025058
    65  O    0.025152
    67  O    0.024809
    69  O    0.024957
 Electronic spatial extent (au):  <R**2>=          43189.9101
 Charge=             -0.0000 electrons
 Dipole moment (field-independent basis, Debye):
    X=              1.6927    Y=             -0.4256    Z=              2.0635  Tot=              2.7027
 Quadrupole moment (field-independent basis, Debye-Ang):
   XX=           -191.1047   YY=           -233.0918   ZZ=           -241.4658
   XY=             -5.2751   XZ=            -14.7980   YZ=            -12.1253
 Traceless Quadrupole moment (field-independent basis, Debye-Ang):
   XX=             30.7827   YY=            -11.2044   ZZ=            -19.5784
   XY=             -5.2751   XZ=            -14.7980   YZ=            -12.1253
 Octapole moment (field-independent basis, Debye-Ang**2):
  XXX=            347.9616  YYY=            -38.9882  ZZZ=             14.9291  XYY=             10.9819
  XXY=            121.9420  XXZ=            102.6402  XZZ=            -48.9971  YZZ=            -34.9664
  YYZ=             67.2169  XYZ=            -70.3357
 Hexadecapole moment (field-independent basis, Debye-Ang**3):
 XXXX=         -41366.8149 YYYY=          -9012.7868 ZZZZ=          -1559.1999 XXXY=          -1612.1967
 XXXZ=           -673.8536 YYYX=             75.1529 YYYZ=           -372.8807 ZZZX=           -116.4419
 ZZZY=            -82.8436 XXYY=          -8261.1510 XXZZ=          -8456.1712 YYZZ=          -1731.8360
 XXYZ=           -597.0330 YYXZ=           -479.8072 ZZXY=            259.5931
 N-N= 4.158510416716D+03 E-N=-1.250541213118D+04  KE= 1.789293788051D+03
 No NMR shielding tensors so no spin-rotation constants.
 Leave Link  601 at Mon Jan 18 03:44:06 2021, MaxMem=  4026531840 cpu:               6.0 elap:               1.0
 (Enter /opt/ohpc/pub/libs/gaussian/g16-A.03/sandybridge/g16/l9999.exe)

 Test job not archived.
 1\1\GINC-CASCADEB037\SP\RLC-wHPBE\TZVP\C36H28N2O4\RDU230\18-Jan-2021\0
 \\#P LC-wHPBE/TZVP iop(3/107=0221900000, 3/108=0221900000) scf=(conver
 =6,fermi,ndamp=35,noincfock,novaracc,vshift=500,xqc)\\H28 C36 N2 O4\\0
 ,1\C,0,2.858499,1.142103,-0.374244\C,0,3.579312,-0.001087,0.003359\C,0
 ,1.469111,1.138314,-0.362939\C,0,2.858875,-1.143435,0.384264\C,0,0.739
 097,0.000512,0.009817\C,0,1.469477,-1.138129,0.379362\H,0,0.937192,2.0
 33473,-0.688815\H,0,3.397761,-2.037798,0.696269\H,0,0.938071,-2.032504
 ,0.708142\C,0,-0.742883,0.001384,0.012974\C,0,-1.474511,-1.130858,-0.3
 72988\C,0,-1.47149,1.134716,0.402503\C,0,-2.8641,-1.134318,-0.378218\C
 ,0,-2.860735,1.140009,0.413286\C,0,-3.582937,0.003346,0.018716\H,0,-0.
 94411,-2.02123,-0.714069\H,0,-0.938347,2.023708,0.742945\H,0,-3.404263
 ,-2.023625,-0.702274\H,0,-3.398798,2.029064,0.741639\H,0,3.397024,2.03
 5914,-0.688457\N,0,-4.995311,0.005703,0.022721\C,0,-5.713915,1.18551,-
 0.315496\C,0,-6.824749,1.586223,0.439679\C,0,-5.336499,1.964565,-1.414
 395\C,0,-7.543368,2.726588,0.103607\C,0,-6.037549,3.122582,-1.739703\C
 ,0,-7.148838,3.50571,-0.986012\H,0,-7.129554,0.987536,1.298124\H,0,-4.
 477812,1.664402,-2.014832\H,0,-8.408278,3.036049,0.689802\H,0,-5.72457
 ,3.720924,-2.59898\C,0,-5.717056,-1.178925,0.336296\C,0,-6.821807,-1.5
 65845,-0.429047\C,0,-5.346761,-1.975943,1.428789\C,0,-7.543924,-2.7122
 98,-0.10728\C,0,-6.0478,-3.134194,1.738027\C,0,-7.155651,-3.506391,0.9
 73222\H,0,-7.124426,-0.956025,-1.280239\H,0,-4.491517,-1.682511,2.0375
 55\H,0,-8.407549,-2.995534,-0.714075\H,0,-5.757368,-3.754511,2.585554\
 N,0,4.991423,-0.001999,0.00006\C,0,5.710552,-1.183762,-0.330631\C,0,6.
 812654,-1.584277,0.431608\C,0,5.340603,-1.964026,-1.435102\C,0,7.53257
 2,-2.727778,0.095183\C,0,6.039551,-3.119564,-1.759528\C,0,7.144632,-3.
 505373,-0.997606\H,0,7.113605,-0.987752,1.292811\H,0,4.486562,-1.66032
 3,-2.040543\H,0,8.393358,-3.022713,0.700462\H,0,5.749024,-3.727528,-2.
 615933\C,0,5.713955,1.17869,0.326778\C,0,6.814458,1.575861,-0.439552\C
 ,0,5.349314,1.961286,1.431414\C,0,7.537888,2.718318,-0.107058\C,0,6.05
 1756,3.115796,1.751909\C,0,7.155153,3.498257,0.985865\H,0,7.111509,0.9
 77436,-1.300789\H,0,4.49683,1.660119,2.040298\H,0,8.397429,3.010471,-0
 .715458\H,0,5.765438,3.72535,2.608604\O,0,7.820509,4.641023,1.355507\H
 ,0,8.555246,4.78867,0.739309\O,0,7.806379,-4.648952,-1.371018\H,0,8.54
 1702,-4.800061,-0.75635\O,0,-7.887404,4.628973,-1.265636\H,0,-7.503413
 ,5.071476,-2.03899\O,0,-7.819547,-4.653451,1.332021\H,0,-8.560354,-4.7
 90553,0.720672\\Version=EM64L-G16RevA.03\State=1-A\HF=-1798.083545\RMS
 D=9.787e-07\Dipole=0.6659604,0.1674378,-0.8118572\Quadrupole=22.886207
 9,-8.3301729,-14.556035,3.9219374,11.0019465,-9.0148446\PG=C01 [X(C36H
 28N2O4)]\\@


 Make no judgements where you have no compassion.
                               -- Anne McCaffrey
 Job cpu time:       0 days  2 hours 15 minutes  1.4 seconds.
 Elapsed time:       0 days  0 hours 17 minutes  7.7 seconds.
 File lengths (MBytes):  RWF=    332 Int=      0 D2E=      0 Chk=     60 Scr=      8
 Normal termination of Gaussian 16 at Mon Jan 18 03:44:06 2021.
