 Entering Gaussian System, Link 0=g16
 Input=mol_bp_pa_whol_tune_c3.gjf
 Output=mol_bp_pa_whol_tune_c3.log
 Initial command:
 /opt/ohpc/pub/libs/gaussian/g16-A.03/sandybridge/g16/l1.exe "/mnt/gpfs2_4m/scratch/rdu230/ondemand/projects/init_structures/wtuning/mol_bp_pa_whol/tuning_mol_bp_pa_whol_ocycle0/Gau-91719.inp" -scrdir="/mnt/gpfs2_4m/scratch/rdu230/ondemand/projects/init_structures/wtuning/mol_bp_pa_whol/tuning_mol_bp_pa_whol_ocycle0/"
 Entering Link 1 = /opt/ohpc/pub/libs/gaussian/g16-A.03/sandybridge/g16/l1.exe PID=     91720.
  
 Copyright (c) 1988,1990,1992,1993,1995,1998,2003,2009,2016,
            Gaussian, Inc.  All Rights Reserved.
  
 This is part of the Gaussian(R) 16 program.  It is based on
 the Gaussian(R) 09 system (copyright 2009, Gaussian, Inc.),
 the Gaussian(R) 03 system (copyright 2003, Gaussian, Inc.),
 the Gaussian(R) 98 system (copyright 1998, Gaussian, Inc.),
 the Gaussian(R) 94 system (copyright 1995, Gaussian, Inc.),
 the Gaussian 92(TM) system (copyright 1992, Gaussian, Inc.),
 the Gaussian 90(TM) system (copyright 1990, Gaussian, Inc.),
 the Gaussian 88(TM) system (copyright 1988, Gaussian, Inc.),
 the Gaussian 86(TM) system (copyright 1986, Carnegie Mellon
 University), and the Gaussian 82(TM) system (copyright 1983,
 Carnegie Mellon University). Gaussian is a federally registered
 trademark of Gaussian, Inc.
  
 This software contains proprietary and confidential information,
 including trade secrets, belonging to Gaussian, Inc.
  
 This software is provided under written license and may be
 used, copied, transmitted, or stored only in accord with that
 written license.
  
 The following legend is applicable only to US Government
 contracts under FAR:
  
                    RESTRICTED RIGHTS LEGEND
  
 Use, reproduction and disclosure by the US Government is
 subject to restrictions as set forth in subparagraphs (a)
 and (c) of the Commercial Computer Software - Restricted
 Rights clause in FAR 52.227-19.
  
 Gaussian, Inc.
 340 Quinnipiac St., Bldg. 40, Wallingford CT 06492
  
  
 ---------------------------------------------------------------
 Warning -- This program may not be used in any manner that
 competes with the business of Gaussian, Inc. or will provide
 assistance to any competitor of Gaussian, Inc.  The licensee
 of this program is prohibited from giving any competitor of
 Gaussian, Inc. access to this program.  By using this program,
 the user acknowledges that Gaussian, Inc. is engaged in the
 business of creating and licensing software in the field of
 computational chemistry and represents and warrants to the
 licensee that it is not a competitor of Gaussian, Inc. and that
 it will not use this program in any manner prohibited above.
 ---------------------------------------------------------------
  

 Cite this work as:
 Gaussian 16, Revision A.03,
 M. J. Frisch, G. W. Trucks, H. B. Schlegel, G. E. Scuseria, 
 M. A. Robb, J. R. Cheeseman, G. Scalmani, V. Barone, 
 G. A. Petersson, H. Nakatsuji, X. Li, M. Caricato, A. V. Marenich, 
 J. Bloino, B. G. Janesko, R. Gomperts, B. Mennucci, H. P. Hratchian, 
 J. V. Ortiz, A. F. Izmaylov, J. L. Sonnenberg, D. Williams-Young, 
 F. Ding, F. Lipparini, F. Egidi, J. Goings, B. Peng, A. Petrone, 
 T. Henderson, D. Ranasinghe, V. G. Zakrzewski, J. Gao, N. Rega, 
 G. Zheng, W. Liang, M. Hada, M. Ehara, K. Toyota, R. Fukuda, 
 J. Hasegawa, M. Ishida, T. Nakajima, Y. Honda, O. Kitao, H. Nakai, 
 T. Vreven, K. Throssell, J. A. Montgomery, Jr., J. E. Peralta, 
 F. Ogliaro, M. J. Bearpark, J. J. Heyd, E. N. Brothers, K. N. Kudin, 
 V. N. Staroverov, T. A. Keith, R. Kobayashi, J. Normand, 
 K. Raghavachari, A. P. Rendell, J. C. Burant, S. S. Iyengar, 
 J. Tomasi, M. Cossi, J. M. Millam, M. Klene, C. Adamo, R. Cammi, 
 J. W. Ochterski, R. L. Martin, K. Morokuma, O. Farkas, 
 J. B. Foresman, and D. J. Fox, Gaussian, Inc., Wallingford CT, 2016.
 
 ******************************************
 Gaussian 16:  EM64L-G16RevA.03 25-Dec-2016
                18-Jan-2021 
 ******************************************
 %mem=30GB
 %nproc=8
 Will use up to    8 processors via shared memory.
 ----------------------------------------------------------------------
 #P LC-wHPBE/TZVP iop(3/107=0126900000, 3/108=0126900000) scf=(conver=6
 ,fermi,ndamp=35,noincfock,novaracc,vshift=500,xqc)
 ----------------------------------------------------------------------
 1/38=1,172=1/1;
 2/12=2,17=6,18=5,40=1/2;
 3/5=19,7=101,11=2,25=1,30=1,74=-71,107=126900000,108=126900000/1,2,3;
 4//1;
 5/5=100002,6=6,8=3,10=500,13=1,18=-1,22=13,38=1,93=35/2,8;
 6/7=2,8=2,9=2,10=2,28=1/1;
 99/5=1,9=1/99;
 Leave Link    1 at Mon Jan 18 00:06:08 2021, MaxMem=  4026531840 cpu:               1.0 elap:               0.2
 (Enter /opt/ohpc/pub/libs/gaussian/g16-A.03/sandybridge/g16/l101.exe)
 ----------
 H28 C36 N2
 ----------
 Symbolic Z-matrix:
 Charge =  1 Multiplicity = 2
 C                     2.85     -1.12586   0.41564 
 C                     3.56314  -0.00003  -0.00002 
 C                     1.46449  -1.12367   0.40553 
 C                     2.85003   1.12575  -0.41581 
 C                     0.74129  -0.00005  -0.0002 
 C                     1.4645    1.12355  -0.40588 
 H                     0.9316   -2.00584   0.7562 
 H                     3.39105   2.00625  -0.75499 
 H                     0.93167   2.00573  -0.75663 
 C                    -0.74144  -0.00007  -0.00022 
 C                    -1.46464   1.12316   0.40656 
 C                    -1.46464  -1.1233   -0.40698 
 C                    -2.85015   1.12534   0.41661 
 C                    -2.85016  -1.12549  -0.41694 
 C                    -3.56326  -0.0001   -0.00012 
 H                    -0.93175   2.00502   0.75804 
 H                    -0.93178  -2.00514  -0.75855 
 H                    -3.39119   2.00553   0.75658 
 H                    -3.39121  -2.00567  -0.75691 
 H                     3.39101  -2.00636   0.75485 
 N                    -4.97843  -0.0001   -0.00007 
 C                    -5.6871   -1.15458   0.41429 
 C                    -6.83188  -1.56667  -0.27115 
 C                    -5.25132  -1.89693   1.51391 
 C                    -7.52831  -2.69283   0.14332 
 C                    -5.94339  -3.03222   1.91044 
 C                    -7.08752  -3.43537   1.23228 
 H                    -7.17368  -0.99518  -1.13112 
 H                    -4.36344  -1.57795   2.0551 
 H                    -8.41917  -2.99976  -0.40155 
 H                    -5.58986  -3.5998    2.76929 
 H                    -7.63185  -4.32185   1.55023 
 C                    -5.68703   1.15453  -0.41429 
 C                    -6.83119   1.56723   0.2718 
 C                    -5.25171   1.89638  -1.51442 
 C                    -7.52749   2.69352  -0.14253 
 C                    -5.94362   3.03183  -1.91081 
 C                    -7.08714   3.43558  -1.23199 
 H                    -7.17262   0.99608   1.13215 
 H                    -4.36429   1.57691  -2.05609 
 H                    -8.41788   3.00095   0.40285 
 H                    -5.59045   3.59903  -2.77005 
 H                    -7.63135   4.32218  -1.54982 
 N                     4.97827   0.00002   0.0001 
 C                     5.68699   1.15456   0.41434 
 C                     6.83129   1.56698  -0.2717 
 C                     5.25176   1.89654   1.51441 
 C                     7.52783   2.69311   0.14265 
 C                     5.94392   3.03182   1.91082 
 C                     7.08759   3.43529   1.23207 
 H                     7.17265   0.99573  -1.132 
 H                     4.36423   1.57729   2.05603 
 H                     8.41833   3.0003   -0.40267 
 H                     5.59085   3.59914   2.77003 
 H                     7.63198   4.32177   1.54994 
 C                     5.68702  -1.15452  -0.41414 
 C                     6.83107  -1.56719   0.27211 
 C                     5.25198  -1.8962   -1.51449 
 C                     7.52757  -2.69335  -0.14228 
 C                     5.94408  -3.03149  -1.91095 
 C                     7.08751  -3.43525  -1.23196 
 H                     7.17228  -0.99616   1.13261 
 H                     4.36464  -1.57668  -2.05627 
 H                     8.41786  -3.00079   0.40323 
 H                     5.59117  -3.59857  -2.77037 
 H                     7.63187  -4.32173  -1.54986 
 
 ITRead=  0  0  0  0  0  0  0  0  0  0  0  0  0  0  0  0  0  0  0  0
 ITRead=  0  0  0  0  0  0  0  0  0  0  0  0  0  0  0  0  0  0  0  0
 ITRead=  0  0  0  0  0  0  0  0  0  0  0  0  0  0  0  0  0  0  0  0
 ITRead=  0  0  0  0  0  0
 MicOpt= -1 -1 -1 -1 -1 -1 -1 -1 -1 -1 -1 -1 -1 -1 -1 -1 -1 -1 -1 -1
 MicOpt= -1 -1 -1 -1 -1 -1 -1 -1 -1 -1 -1 -1 -1 -1 -1 -1 -1 -1 -1 -1
 MicOpt= -1 -1 -1 -1 -1 -1 -1 -1 -1 -1 -1 -1 -1 -1 -1 -1 -1 -1 -1 -1
 MicOpt= -1 -1 -1 -1 -1 -1
 NAtoms=     66 NQM=       66 NQMF=       0 NMMI=      0 NMMIF=      0
                NMic=       0 NMicF=      0.
                    Isotopes and Nuclear Properties:
 (Nuclear quadrupole moments (NQMom) in fm**2, nuclear magnetic moments (NMagM)
  in nuclear magnetons)

  Atom         1           2           3           4           5           6           7           8           9          10
 IAtWgt=          12          12          12          12          12          12           1           1           1          12
 AtmWgt=  12.0000000  12.0000000  12.0000000  12.0000000  12.0000000  12.0000000   1.0078250   1.0078250   1.0078250  12.0000000
 NucSpn=           0           0           0           0           0           0           1           1           1           0
 AtZEff=  -0.0000000  -0.0000000  -0.0000000  -0.0000000  -0.0000000  -0.0000000  -0.0000000  -0.0000000  -0.0000000  -0.0000000
 NQMom=    0.0000000   0.0000000   0.0000000   0.0000000   0.0000000   0.0000000   0.0000000   0.0000000   0.0000000   0.0000000
 NMagM=    0.0000000   0.0000000   0.0000000   0.0000000   0.0000000   0.0000000   2.7928460   2.7928460   2.7928460   0.0000000
 AtZNuc=   6.0000000   6.0000000   6.0000000   6.0000000   6.0000000   6.0000000   1.0000000   1.0000000   1.0000000   6.0000000

  Atom        11          12          13          14          15          16          17          18          19          20
 IAtWgt=          12          12          12          12          12           1           1           1           1           1
 AtmWgt=  12.0000000  12.0000000  12.0000000  12.0000000  12.0000000   1.0078250   1.0078250   1.0078250   1.0078250   1.0078250
 NucSpn=           0           0           0           0           0           1           1           1           1           1
 AtZEff=  -0.0000000  -0.0000000  -0.0000000  -0.0000000  -0.0000000  -0.0000000  -0.0000000  -0.0000000  -0.0000000  -0.0000000
 NQMom=    0.0000000   0.0000000   0.0000000   0.0000000   0.0000000   0.0000000   0.0000000   0.0000000   0.0000000   0.0000000
 NMagM=    0.0000000   0.0000000   0.0000000   0.0000000   0.0000000   2.7928460   2.7928460   2.7928460   2.7928460   2.7928460
 AtZNuc=   6.0000000   6.0000000   6.0000000   6.0000000   6.0000000   1.0000000   1.0000000   1.0000000   1.0000000   1.0000000

  Atom        21          22          23          24          25          26          27          28          29          30
 IAtWgt=          14          12          12          12          12          12          12           1           1           1
 AtmWgt=  14.0030740  12.0000000  12.0000000  12.0000000  12.0000000  12.0000000  12.0000000   1.0078250   1.0078250   1.0078250
 NucSpn=           2           0           0           0           0           0           0           1           1           1
 AtZEff=  -0.0000000  -0.0000000  -0.0000000  -0.0000000  -0.0000000  -0.0000000  -0.0000000  -0.0000000  -0.0000000  -0.0000000
 NQMom=    2.0440000   0.0000000   0.0000000   0.0000000   0.0000000   0.0000000   0.0000000   0.0000000   0.0000000   0.0000000
 NMagM=    0.4037610   0.0000000   0.0000000   0.0000000   0.0000000   0.0000000   0.0000000   2.7928460   2.7928460   2.7928460
 AtZNuc=   7.0000000   6.0000000   6.0000000   6.0000000   6.0000000   6.0000000   6.0000000   1.0000000   1.0000000   1.0000000

  Atom        31          32          33          34          35          36          37          38          39          40
 IAtWgt=           1           1          12          12          12          12          12          12           1           1
 AtmWgt=   1.0078250   1.0078250  12.0000000  12.0000000  12.0000000  12.0000000  12.0000000  12.0000000   1.0078250   1.0078250
 NucSpn=           1           1           0           0           0           0           0           0           1           1
 AtZEff=  -0.0000000  -0.0000000  -0.0000000  -0.0000000  -0.0000000  -0.0000000  -0.0000000  -0.0000000  -0.0000000  -0.0000000
 NQMom=    0.0000000   0.0000000   0.0000000   0.0000000   0.0000000   0.0000000   0.0000000   0.0000000   0.0000000   0.0000000
 NMagM=    2.7928460   2.7928460   0.0000000   0.0000000   0.0000000   0.0000000   0.0000000   0.0000000   2.7928460   2.7928460
 AtZNuc=   1.0000000   1.0000000   6.0000000   6.0000000   6.0000000   6.0000000   6.0000000   6.0000000   1.0000000   1.0000000

  Atom        41          42          43          44          45          46          47          48          49          50
 IAtWgt=           1           1           1          14          12          12          12          12          12          12
 AtmWgt=   1.0078250   1.0078250   1.0078250  14.0030740  12.0000000  12.0000000  12.0000000  12.0000000  12.0000000  12.0000000
 NucSpn=           1           1           1           2           0           0           0           0           0           0
 AtZEff=  -0.0000000  -0.0000000  -0.0000000  -0.0000000  -0.0000000  -0.0000000  -0.0000000  -0.0000000  -0.0000000  -0.0000000
 NQMom=    0.0000000   0.0000000   0.0000000   2.0440000   0.0000000   0.0000000   0.0000000   0.0000000   0.0000000   0.0000000
 NMagM=    2.7928460   2.7928460   2.7928460   0.4037610   0.0000000   0.0000000   0.0000000   0.0000000   0.0000000   0.0000000
 AtZNuc=   1.0000000   1.0000000   1.0000000   7.0000000   6.0000000   6.0000000   6.0000000   6.0000000   6.0000000   6.0000000

  Atom        51          52          53          54          55          56          57          58          59          60
 IAtWgt=           1           1           1           1           1          12          12          12          12          12
 AtmWgt=   1.0078250   1.0078250   1.0078250   1.0078250   1.0078250  12.0000000  12.0000000  12.0000000  12.0000000  12.0000000
 NucSpn=           1           1           1           1           1           0           0           0           0           0
 AtZEff=  -0.0000000  -0.0000000  -0.0000000  -0.0000000  -0.0000000  -0.0000000  -0.0000000  -0.0000000  -0.0000000  -0.0000000
 NQMom=    0.0000000   0.0000000   0.0000000   0.0000000   0.0000000   0.0000000   0.0000000   0.0000000   0.0000000   0.0000000
 NMagM=    2.7928460   2.7928460   2.7928460   2.7928460   2.7928460   0.0000000   0.0000000   0.0000000   0.0000000   0.0000000
 AtZNuc=   1.0000000   1.0000000   1.0000000   1.0000000   1.0000000   6.0000000   6.0000000   6.0000000   6.0000000   6.0000000

  Atom        61          62          63          64          65          66
 IAtWgt=          12           1           1           1           1           1
 AtmWgt=  12.0000000   1.0078250   1.0078250   1.0078250   1.0078250   1.0078250
 NucSpn=           0           1           1           1           1           1
 AtZEff=  -0.0000000  -0.0000000  -0.0000000  -0.0000000  -0.0000000  -0.0000000
 NQMom=    0.0000000   0.0000000   0.0000000   0.0000000   0.0000000   0.0000000
 NMagM=    0.0000000   2.7928460   2.7928460   2.7928460   2.7928460   2.7928460
 AtZNuc=   6.0000000   1.0000000   1.0000000   1.0000000   1.0000000   1.0000000
 Leave Link  101 at Mon Jan 18 00:06:08 2021, MaxMem=  4026531840 cpu:               0.6 elap:               0.1
 (Enter /opt/ohpc/pub/libs/gaussian/g16-A.03/sandybridge/g16/l202.exe)
 Stoichiometry    C36H28N2(1+,2)
 Framework group  C1[X(C36H28N2)]
 Deg. of freedom   192
 Full point group                 C1      NOp   1
 Largest Abelian subgroup         C1      NOp   1
 Largest concise Abelian subgroup C1      NOp   1
                         Standard orientation:                         
 ---------------------------------------------------------------------
 Center     Atomic      Atomic             Coordinates (Angstroms)
 Number     Number       Type             X           Y           Z
 ---------------------------------------------------------------------
      1          6           0       -2.849999   -1.125861   -0.415638
      2          6           0       -3.563139   -0.000026    0.000017
      3          6           0       -1.464492   -1.123667   -0.405534
      4          6           0       -2.850033    1.125752    0.415809
      5          6           0       -0.741288   -0.000047    0.000195
      6          6           0       -1.464504    1.123547    0.405879
      7          1           0       -0.931596   -2.005844   -0.756198
      8          1           0       -3.391048    2.006254    0.754990
      9          1           0       -0.931669    2.005728    0.756629
     10          6           0        0.741437   -0.000073    0.000217
     11          6           0        1.464635    1.123165   -0.406556
     12          6           0        1.464638   -1.123302    0.406976
     13          6           0        2.850149    1.125343   -0.416610
     14          6           0        2.850163   -1.125491    0.416935
     15          6           0        3.563257   -0.000095    0.000116
     16          1           0        0.931751    2.005025   -0.758038
     17          1           0        0.931783   -2.005140    0.758553
     18          1           0        3.391193    2.005527   -0.756576
     19          1           0        3.391211   -2.005669    0.756913
     20          1           0       -3.391005   -2.006357   -0.754845
     21          7           0        4.978430   -0.000102    0.000065
     22          6           0        5.687099   -1.154578   -0.414287
     23          6           0        6.831881   -1.566674    0.271150
     24          6           0        5.251323   -1.896933   -1.513908
     25          6           0        7.528311   -2.692826   -0.143324
     26          6           0        5.943392   -3.032223   -1.910440
     27          6           0        7.087522   -3.435368   -1.232277
     28          1           0        7.173684   -0.995181    1.131117
     29          1           0        4.363437   -1.577947   -2.055099
     30          1           0        8.419174   -2.999763    0.401550
     31          1           0        5.589860   -3.599797   -2.769285
     32          1           0        7.631852   -4.321852   -1.550225
     33          6           0        5.687025    1.154532    0.414292
     34          6           0        6.831191    1.567225   -0.271802
     35          6           0        5.251707    1.896381    1.514415
     36          6           0        7.527485    2.693516    0.142525
     37          6           0        5.943620    3.031828    1.910808
     38          6           0        7.087137    3.435581    1.231989
     39          1           0        7.172616    0.996083   -1.132151
     40          1           0        4.364291    1.576910    2.056093
     41          1           0        8.417875    3.000945   -0.402845
     42          1           0        5.590451    3.599029    2.770050
     43          1           0        7.631350    4.322181    1.549815
     44          7           0       -4.978266    0.000020   -0.000103
     45          6           0       -5.686990    1.154558   -0.414335
     46          6           0       -6.831289    1.566980    0.271699
     47          6           0       -5.251761    1.896543   -1.514410
     48          6           0       -7.527834    2.693112   -0.142653
     49          6           0       -5.943923    3.031822   -1.910819
     50          6           0       -7.087590    3.435293   -1.232069
     51          1           0       -7.172649    0.995729    1.132000
     52          1           0       -4.364233    1.577285   -2.056034
     53          1           0       -8.418333    3.000297    0.402674
     54          1           0       -5.590850    3.599137   -2.770027
     55          1           0       -7.631979    4.321768   -1.549941
     56          6           0       -5.687017   -1.154516    0.414141
     57          6           0       -6.831068   -1.567191   -0.272109
     58          6           0       -5.251977   -1.896199    1.514492
     59          6           0       -7.527566   -2.693348    0.142281
     60          6           0       -5.944079   -3.031486    1.910953
     61          6           0       -7.087509   -3.435246    1.231958
     62          1           0       -7.172277   -0.996155   -1.132614
     63          1           0       -4.364636   -1.576682    2.056275
     64          1           0       -8.417864   -3.000787   -0.403227
     65          1           0       -5.591165   -3.598572    2.770374
     66          1           0       -7.631874   -4.321730    1.549857
 ---------------------------------------------------------------------
 Rotational constants (GHZ):           0.2023709           0.0339547           0.0306836
 Leave Link  202 at Mon Jan 18 00:06:08 2021, MaxMem=  4026531840 cpu:               0.3 elap:               0.1
 (Enter /opt/ohpc/pub/libs/gaussian/g16-A.03/sandybridge/g16/l301.exe)
 Standard basis: TZVP (5D, 7F)
 Ernie: Thresh=  0.10000D-02 Tol=  0.10000D-05 Strict=F.
 There are   928 symmetry adapted cartesian basis functions of A   symmetry.
 There are   890 symmetry adapted basis functions of A   symmetry.
   890 basis functions,  1554 primitive gaussians,   928 cartesian basis functions
   129 alpha electrons      128 beta electrons
       nuclear repulsion energy      3528.7655398436 Hartrees.
 IExCor=33909 DFT=T Ex+Corr=LC-wHPBE ExCW=0 ScaHFX=  1.000000
 ScaDFX=  1.000000  1.000000  1.000000  1.000000 ScalE2=  1.000000  1.000000
 IRadAn=      5 IRanWt=     -1 IRanGd=            0 ICorTp=0 IEmpDi=  4
 HFx  wShort=  0.000000 wLong=  0.126900 cFull=  0.000000 cShort=  0.000000 cLong=  1.000000
 DFx  wShort=  0.000000 wLong=  0.126900 cFull=  0.000000 cShort=  1.000000 cLong=  0.000000
 NAtoms=   66 NActive=   66 NUniq=   66 SFac= 1.00D+00 NAtFMM=   60 NAOKFM=T Big=T
 Integral buffers will be    131072 words long.
 Raffenetti 2 integral format.
 Two-electron integral symmetry is turned on.
 Leave Link  301 at Mon Jan 18 00:06:08 2021, MaxMem=  4026531840 cpu:               0.4 elap:               0.1
 (Enter /opt/ohpc/pub/libs/gaussian/g16-A.03/sandybridge/g16/l302.exe)
 NPDir=0 NMtPBC=     1 NCelOv=     1 NCel=       1 NClECP=     1 NCelD=      1
         NCelK=      1 NCelE2=     1 NClLst=     1 CellRange=     0.0.
 One-electron integrals computed using PRISM.
 One-electron integral symmetry used in STVInt
 NBasis=   890 RedAO= T EigKep=  6.71D-06  NBF=   890
 NBsUse=   890 1.00D-06 EigRej= -1.00D+00 NBFU=   890
 Precomputing XC quadrature grid using
 IXCGrd= 4 IRadAn=           5 IRanWt=          -1 IRanGd=           0 AccXCQ= 0.00D+00.
 Generated NRdTot=       0 NPtTot=           0 NUsed=           0 NTot=          32
 NSgBfM=   852   844   846   852   852 MxSgAt=    66 MxSgA2=    66.
 Leave Link  302 at Mon Jan 18 00:06:11 2021, MaxMem=  4026531840 cpu:              16.8 elap:               2.2
 (Enter /opt/ohpc/pub/libs/gaussian/g16-A.03/sandybridge/g16/l303.exe)
 DipDrv:  MaxL=1.
 Leave Link  303 at Mon Jan 18 00:06:11 2021, MaxMem=  4026531840 cpu:               1.2 elap:               0.2
 (Enter /opt/ohpc/pub/libs/gaussian/g16-A.03/sandybridge/g16/l401.exe)
 ExpMin= 9.52D-02 ExpMax= 1.97D+04 ExpMxC= 6.73D+02 IAcc=3 IRadAn=         5 AccDes= 0.00D+00
 Harris functional with IExCor=33909 and IRadAn=       5 diagonalized for initial guess.
 HarFok:  IExCor=33909 AccDes= 0.00D+00 IRadAn=         5 IDoV= 1 UseB2=F ITyADJ=14
 ICtDFT=  3500011 ScaDFX=  1.000000  1.000000  1.000000  1.000000
 FoFCou: FMM=F IPFlag=           0 FMFlag=      100000 FMFlg1=        2001
         NFxFlg=           0 DoJE=T BraDBF=F KetDBF=T FulRan=T
         wScrn=  0.000000 ICntrl=       500 IOpCl=  0 I1Cent=   200000004 NGrid=           0
         NMat0=    1 NMatS0=      1 NMatT0=    0 NMatD0=    1 NMtDS0=    0 NMtDT0=    0
 Petite list used in FoFCou.
 Harris En= -1479.34050654283    
 JPrj=0 DoOrth=F DoCkMO=F.
 Initial guess <Sx>= 0.0000 <Sy>= 0.0000 <Sz>= 0.5000 <S**2>= 0.7500 S= 0.5000
 Leave Link  401 at Mon Jan 18 00:06:21 2021, MaxMem=  4026531840 cpu:              80.8 elap:              10.2
 (Enter /opt/ohpc/pub/libs/gaussian/g16-A.03/sandybridge/g16/l502.exe)
 Integral symmetry usage will be decided dynamically.
 UHF open shell SCF:
 Using DIIS extrapolation, IDIIS=    10.
 NGot=  4026531840 LenX=  4024793050 LenY=  4023930938
 Requested convergence on RMS density matrix=1.00D-06 within  32 cycles.
 Requested convergence on MAX density matrix=1.00D-04.
 Requested convergence on             energy=1.00D-04.
 Virtual orbitals will be shifted by   0.500 hartree.
 No special actions if energy rises.
 Dynamic level shift is on during FON iterations.

 Cycle   1  Pass 1  IDiag  1:
 FoFJK:  IHMeth= 1 ICntrl=       0 DoSepK=T KAlg= 0 I1Cent=           0 FoldK=F
 IRaf=         1 NMat=       1 IRICut=       1 DoRegI=T DoRafI=F ISym2E= 0 IDoP0=0 IntGTp=1.
 FoFCou: FMM=T IPFlag=           0 FMFlag=      100000 FMFlg1=        2001
         NFxFlg=           0 DoJE=T BraDBF=F KetDBF=F FulRan=T
         wScrn=  0.000000 ICntrl=       500 IOpCl=  0 I1Cent=           0 NGrid=           0
         NMat0=    1 NMatS0=      1 NMatT0=    0 NMatD0=    1 NMtDS0=    0 NMtDT0=    0
 Symmetry not used in FoFCou.
 FMM levels:  10  Number of levels for PrismC:   9
 E= -1496.20286715829    
 DIIS: error= 3.26D-02 at cycle   1 NSaved=   1.
 NSaved= 1 IEnMin= 1 EnMin= -1496.20286715829     IErMin= 1 ErrMin= 3.26D-02
 ErrMax= 3.26D-02  0.00D+00 EMaxC= 1.00D+00 BMatC= 2.61D+00 BMatP= 2.61D+00
 IDIUse=1 WtCom= 1.00D+00 WtEn= 0.00D+00
 Coeff-Com:  0.100D+01
 Coeff:      0.100D+01
 Gap=     0.253 Goal=   None    Shift=    0.500
 T= 1545. Gap= 0.690 NK=0 IS=  130 IE=  890 IFin=  129
          NO(<0.9)=   0  NV(>0.1)=   0    129.00e < EF      0.00e >EF  Err=0.0D+00
 Gap=     0.076 Goal=   None    Shift=    0.500
 T= 1545. Gap= 0.523 NK=0 IS=  129 IE=  890 IFin=  128
          NO(<0.9)=   0  NV(>0.1)=   0    128.00e < EF      0.00e >EF  Err=0.0D+00
 GapD=    0.076 DampG=0.500 DampE=0.500 DampFc=0.2500 IDamp=-1.
 Damping current iteration by 2.50D-01
 RMSDP=2.04D-03 MaxDP=6.24D-02              OVMax= 1.01D-01

 Cycle   2  Pass 1  IDiag  1:
 E= -1496.44932646421     Delta-E=       -0.246459305913 Rises=F Damp=T
 DIIS: error= 2.36D-02 at cycle   2 NSaved=   2.
 NSaved= 2 IEnMin= 2 EnMin= -1496.44932646421     IErMin= 2 ErrMin= 2.36D-02
 ErrMax= 2.36D-02  0.00D+00 EMaxC= 1.00D+00 BMatC= 1.20D+00 BMatP= 2.61D+00
 IDIUse=1 WtCom= 1.00D+00 WtEn= 0.00D+00
 Coeff-Com: -0.187D+01 0.287D+01
 Coeff:     -0.187D+01 0.287D+01
 Gap=     0.243 Goal=   None    Shift=    0.500
 T= 1487. Gap= 0.704 NK=0 IS=  130 IE=  890 IFin=  129
          NO(<0.9)=   0  NV(>0.1)=   0    129.00e < EF      0.00e >EF  Err=0.0D+00
 Gap=     0.116 Goal=   None    Shift=    0.500
 T= 1487. Gap= 0.570 NK=0 IS=  129 IE=  890 IFin=  128
          NO(<0.9)=   0  NV(>0.1)=   0    128.00e < EF      0.00e >EF  Err=0.0D+00
 GapD=    0.116 DampG=1.000 DampE=0.500 DampFc=0.5000 IDamp=-1.
 Damping current iteration by 5.00D-01
 RMSDP=1.43D-03 MaxDP=6.36D-02 DE=-2.46D-01 OVMax= 3.38D-02

 Cycle   3  Pass 1  IDiag  1:
 E= -1496.69956362362     Delta-E=       -0.250237159410 Rises=F Damp=T
 DIIS: error= 1.08D-02 at cycle   3 NSaved=   3.
 NSaved= 3 IEnMin= 3 EnMin= -1496.69956362362     IErMin= 3 ErrMin= 1.08D-02
 ErrMax= 1.08D-02  0.00D+00 EMaxC= 1.00D+00 BMatC= 2.24D-01 BMatP= 1.20D+00
 IDIUse=1 WtCom= 1.00D+00 WtEn= 0.00D+00
 Coeff-Com:  0.325D-01-0.790D+00 0.176D+01
 Coeff:      0.325D-01-0.790D+00 0.176D+01
 Gap=     0.220 Goal=   None    Shift=    0.500
 T= 1318. Gap= 0.718 NK=4 IS=  130 IE=  146 IFin=  129
          NO(<0.9)=   0  NV(>0.1)=   0    129.00e < EF      0.00e >EF  Err=0.0D+00
 Gap=     0.075 Goal=   None    Shift=    0.500
 T= 1318. Gap= 0.573 NK=4 IS=  129 IE=  143 IFin=  128
          NO(<0.9)=   0  NV(>0.1)=   0    128.00e < EF      0.00e >EF  Err=0.0D+00
 GapD=    0.075 DampG=0.500 DampE=0.500 DampFc=0.2500 IDamp=-1.
 Damping current iteration by 2.50D-01
 RMSDP=7.09D-04 MaxDP=4.02D-02 DE=-2.50D-01 OVMax= 9.20D-03

 Cycle   4  Pass 1  IDiag  1:
 E= -1496.74758786303     Delta-E=       -0.048024239413 Rises=F Damp=T
 DIIS: error= 7.93D-03 at cycle   4 NSaved=   4.
 NSaved= 4 IEnMin= 4 EnMin= -1496.74758786303     IErMin= 4 ErrMin= 7.93D-03
 ErrMax= 7.93D-03  0.00D+00 EMaxC= 1.00D+00 BMatC= 1.17D-01 BMatP= 2.24D-01
 IDIUse=1 WtCom= 1.00D+00 WtEn= 0.00D+00
 Coeff-Com:  0.201D+00-0.330D+00-0.260D+01 0.373D+01
 Coeff:      0.201D+00-0.330D+00-0.260D+01 0.373D+01
 Gap=     0.216 Goal=   None    Shift=    0.500
 T= 1043. Gap= 0.716 NK=4 IS=  130 IE=  146 IFin=  129
          NO(<0.9)=   0  NV(>0.1)=   0    129.00e < EF      0.00e >EF  Err=0.0D+00
 Gap=     0.073 Goal=   None    Shift=    0.500
 T= 1043. Gap= 0.573 NK=4 IS=  129 IE=  143 IFin=  128
          NO(<0.9)=   0  NV(>0.1)=   0    128.00e < EF      0.00e >EF  Err=0.0D+00
 GapD=    0.073 DampG=0.500 DampE=1.000 DampFc=0.5000 IDamp=-1.
 Damping current iteration by 5.00D-01
 RMSDP=5.26D-04 MaxDP=3.30D-02 DE=-4.80D-02 OVMax= 7.81D-03

 Cycle   5  Pass 1  IDiag  1:
 E= -1496.81184114754     Delta-E=       -0.064253284509 Rises=F Damp=T
 DIIS: error= 3.90D-03 at cycle   5 NSaved=   5.
 NSaved= 5 IEnMin= 5 EnMin= -1496.81184114754     IErMin= 5 ErrMin= 3.90D-03
 ErrMax= 3.90D-03  0.00D+00 EMaxC= 1.00D+00 BMatC= 2.66D-02 BMatP= 1.17D-01
 IDIUse=1 WtCom= 1.00D+00 WtEn= 0.00D+00
 Coeff-Com:  0.680D-01-0.652D-01 0.209D+00-0.147D+01 0.226D+01
 Coeff:      0.680D-01-0.652D-01 0.209D+00-0.147D+01 0.226D+01
 Gap=     0.217 Goal=   None    Shift=    0.500
 T=  667. Gap= 0.717 NK=4 IS=  130 IE=  147 IFin=  129
          NO(<0.9)=   0  NV(>0.1)=   0    129.00e < EF      0.00e >EF  Err=0.0D+00
 Gap=     0.074 Goal=   None    Shift=    0.500
 T=  667. Gap= 0.574 NK=4 IS=  129 IE=  143 IFin=  128
          NO(<0.9)=   0  NV(>0.1)=   0    128.00e < EF      0.00e >EF  Err=0.0D+00
 GapD=    0.074 DampG=0.500 DampE=1.000 DampFc=0.5000 IDamp=-1.
 Damping current iteration by 5.00D-01
 RMSDP=2.84D-04 MaxDP=1.78D-02 DE=-6.43D-02 OVMax= 6.27D-03

 Cycle   6  Pass 1  IDiag  1:
 E= -1496.84129265708     Delta-E=       -0.029451509543 Rises=F Damp=T
 DIIS: error= 1.95D-03 at cycle   6 NSaved=   6.
 NSaved= 6 IEnMin= 6 EnMin= -1496.84129265708     IErMin= 6 ErrMin= 1.95D-03
 ErrMax= 1.95D-03  0.00D+00 EMaxC= 1.00D+00 BMatC= 6.46D-03 BMatP= 2.66D-02
 IDIUse=1 WtCom= 1.00D+00 WtEn= 0.00D+00
 Coeff-Com: -0.231D-01 0.449D-01 0.621D+00-0.887D+00-0.122D+01 0.246D+01
 Coeff:     -0.231D-01 0.449D-01 0.621D+00-0.887D+00-0.122D+01 0.246D+01
 Gap=     0.217 Goal=   None    Shift=    0.500
 T=  370. Gap= 0.717 NK=4 IS=  130 IE=  146 IFin=  129
          NO(<0.9)=   0  NV(>0.1)=   0    129.00e < EF      0.00e >EF  Err=0.0D+00
 Gap=     0.074 Goal=   None    Shift=    0.500
 T=  370. Gap= 0.574 NK=4 IS=  129 IE=  143 IFin=  128
          NO(<0.9)=   0  NV(>0.1)=   0    128.00e < EF      0.00e >EF  Err=0.0D+00
 GapD=    0.074 DampG=0.500 DampE=1.000 DampFc=0.5000 IDamp=-1.
 Damping current iteration by 5.00D-01
 RMSDP=1.72D-04 MaxDP=9.52D-03 DE=-2.95D-02 OVMax= 5.49D-03

 Cycle   7  Pass 1  IDiag  1:
 E= -1496.85552776664     Delta-E=       -0.014235109554 Rises=F Damp=T
 DIIS: error= 9.82D-04 at cycle   7 NSaved=   7.
 NSaved= 7 IEnMin= 7 EnMin= -1496.85552776664     IErMin= 7 ErrMin= 9.82D-04
 ErrMax= 9.82D-04  0.00D+00 EMaxC= 1.00D+00 BMatC= 1.65D-03 BMatP= 6.46D-03
 IDIUse=1 WtCom= 1.00D+00 WtEn= 0.00D+00
 Coeff-Com: -0.182D-01 0.214D-01-0.419D-01 0.346D+00-0.470D-01-0.286D+01
 Coeff-Com:  0.360D+01
 Coeff:     -0.182D-01 0.214D-01-0.419D-01 0.346D+00-0.470D-01-0.286D+01
 Coeff:      0.360D+01
 Gap=     0.217 Goal=   None    Shift=    0.500
 Gap=     0.075 Goal=   None    Shift=    0.500
 RMSDP=1.09D-04 MaxDP=5.11D-03 DE=-1.42D-02 OVMax= 5.10D-03

 Cycle   8  Pass 1  IDiag  1:
 E= -1496.86955566309     Delta-E=       -0.014027896453 Rises=F Damp=F
 DIIS: error= 6.39D-04 at cycle   8 NSaved=   8.
 NSaved= 8 IEnMin= 8 EnMin= -1496.86955566309     IErMin= 8 ErrMin= 6.39D-04
 ErrMax= 6.39D-04  0.00D+00 EMaxC= 1.00D+00 BMatC= 3.24D-05 BMatP= 1.65D-03
 IDIUse=1 WtCom= 1.00D+00 WtEn= 0.00D+00
 Coeff-Com:  0.510D-02-0.904D-02-0.274D+00 0.429D+00 0.572D+00-0.991D+00
 Coeff-Com: -0.744D+00 0.201D+01
 Coeff:      0.510D-02-0.904D-02-0.274D+00 0.429D+00 0.572D+00-0.991D+00
 Coeff:     -0.744D+00 0.201D+01
 Gap=     0.217 Goal=   None    Shift=    0.500
 Gap=     0.075 Goal=   None    Shift=    0.500
 RMSDP=1.74D-05 MaxDP=8.04D-04 DE=-1.40D-02 OVMax= 4.50D-03

 Cycle   9  Pass 1  IDiag  1:
 E= -1496.86960571590     Delta-E=       -0.000050052809 Rises=F Damp=F
 DIIS: error= 5.38D-04 at cycle   9 NSaved=   9.
 NSaved= 9 IEnMin= 9 EnMin= -1496.86960571590     IErMin= 9 ErrMin= 5.38D-04
 ErrMax= 5.38D-04  0.00D+00 EMaxC= 1.00D+00 BMatC= 1.95D-05 BMatP= 3.24D-05
 IDIUse=1 WtCom= 1.00D+00 WtEn= 0.00D+00
 Coeff-Com:  0.109D-01-0.117D-01-0.166D+00 0.748D-01 0.524D+00 0.835D+00
 Coeff-Com: -0.262D+01 0.738D+00 0.162D+01
 Coeff:      0.109D-01-0.117D-01-0.166D+00 0.748D-01 0.524D+00 0.835D+00
 Coeff:     -0.262D+01 0.738D+00 0.162D+01
 Gap=     0.217 Goal=   None    Shift=    0.500
 Gap=     0.075 Goal=   None    Shift=    0.500
 RMSDP=1.22D-05 MaxDP=8.50D-04 DE=-5.01D-05 OVMax= 4.05D-03

 Cycle  10  Pass 1  IDiag  1:
 E= -1496.86963853868     Delta-E=       -0.000032822783 Rises=F Damp=F
 DIIS: error= 4.23D-04 at cycle  10 NSaved=  10.
 NSaved=10 IEnMin=10 EnMin= -1496.86963853868     IErMin=10 ErrMin= 4.23D-04
 ErrMax= 4.23D-04  0.00D+00 EMaxC= 1.00D+00 BMatC= 1.16D-05 BMatP= 1.95D-05
 IDIUse=1 WtCom= 1.00D+00 WtEn= 0.00D+00
 Coeff-Com: -0.733D-03 0.638D-02 0.346D-01-0.186D+00 0.727D-01 0.860D+00
 Coeff-Com: -0.100D+01-0.744D+00-0.184D+00 0.214D+01
 Coeff:     -0.733D-03 0.638D-02 0.346D-01-0.186D+00 0.727D-01 0.860D+00
 Coeff:     -0.100D+01-0.744D+00-0.184D+00 0.214D+01
 Gap=     0.217 Goal=   None    Shift=    0.500
 Gap=     0.076 Goal=   None    Shift=    0.500
 RMSDP=8.88D-06 MaxDP=5.37D-04 DE=-3.28D-05 OVMax= 3.46D-03

 Cycle  11  Pass 1  IDiag  1:
 E= -1496.86965957132     Delta-E=       -0.000021032634 Rises=F Damp=F
 DIIS: error= 3.30D-04 at cycle  11 NSaved=  11.
 NSaved=11 IEnMin=11 EnMin= -1496.86965957132     IErMin=11 ErrMin= 3.30D-04
 ErrMax= 3.30D-04  0.00D+00 EMaxC= 1.00D+00 BMatC= 7.27D-06 BMatP= 1.16D-05
 IDIUse=1 WtCom= 1.00D+00 WtEn= 0.00D+00
 Coeff-Com: -0.590D-02 0.107D-01 0.684D-01-0.117D+00-0.150D+00 0.107D+00
 Coeff-Com:  0.526D+00-0.860D+00-0.778D+00 0.233D+00 0.197D+01
 Coeff:     -0.590D-02 0.107D-01 0.684D-01-0.117D+00-0.150D+00 0.107D+00
 Coeff:      0.526D+00-0.860D+00-0.778D+00 0.233D+00 0.197D+01
 Gap=     0.217 Goal=   None    Shift=    0.500
 Gap=     0.076 Goal=   None    Shift=    0.500
 RMSDP=6.68D-06 MaxDP=3.98D-04 DE=-2.10D-05 OVMax= 2.83D-03

 Cycle  12  Pass 1  IDiag  1:
 E= -1496.86967294717     Delta-E=       -0.000013375851 Rises=F Damp=F
 DIIS: error= 2.60D-04 at cycle  12 NSaved=  12.
 NSaved=12 IEnMin=12 EnMin= -1496.86967294717     IErMin=12 ErrMin= 2.60D-04
 ErrMax= 2.60D-04  0.00D+00 EMaxC= 1.00D+00 BMatC= 4.54D-06 BMatP= 7.27D-06
 IDIUse=1 WtCom= 1.00D+00 WtEn= 0.00D+00
 Coeff-Com: -0.229D-02 0.118D-02-0.382D-02 0.881D-01-0.138D+00-0.502D+00
 Coeff-Com:  0.929D+00 0.835D-02-0.233D+00-0.183D+01 0.754D-01 0.261D+01
 Coeff:     -0.229D-02 0.118D-02-0.382D-02 0.881D-01-0.138D+00-0.502D+00
 Coeff:      0.929D+00 0.835D-02-0.233D+00-0.183D+01 0.754D-01 0.261D+01
 Gap=     0.217 Goal=   None    Shift=    0.500
 Gap=     0.076 Goal=   None    Shift=    0.500
 RMSDP=5.76D-06 MaxDP=3.54D-04 DE=-1.34D-05 OVMax= 2.43D-03

 Cycle  13  Pass 1  IDiag  1:
 E= -1496.86968179258     Delta-E=       -0.000008845413 Rises=F Damp=F
 DIIS: error= 1.97D-04 at cycle  13 NSaved=  13.
 NSaved=13 IEnMin=13 EnMin= -1496.86968179258     IErMin=13 ErrMin= 1.97D-04
 ErrMax= 1.97D-04  0.00D+00 EMaxC= 1.00D+00 BMatC= 2.96D-06 BMatP= 4.54D-06
 IDIUse=1 WtCom= 1.00D+00 WtEn= 0.00D+00
 Coeff-Com:  0.136D-02-0.298D-02-0.345D-01 0.908D-01-0.186D-01-0.187D+00
 Coeff-Com:  0.120D+00 0.335D+00 0.295D+00-0.950D+00-0.132D+01 0.588D+00
 Coeff-Com:  0.208D+01
 Coeff:      0.136D-02-0.298D-02-0.345D-01 0.908D-01-0.186D-01-0.187D+00
 Coeff:      0.120D+00 0.335D+00 0.295D+00-0.950D+00-0.132D+01 0.588D+00
 Coeff:      0.208D+01
 Gap=     0.217 Goal=   None    Shift=    0.500
 Gap=     0.076 Goal=   None    Shift=    0.500
 RMSDP=4.31D-06 MaxDP=2.64D-04 DE=-8.85D-06 OVMax= 1.89D-03

 Cycle  14  Pass 1  IDiag  1:
 E= -1496.86968718324     Delta-E=       -0.000005390658 Rises=F Damp=F
 DIIS: error= 1.55D-04 at cycle  14 NSaved=  14.
 NSaved=14 IEnMin=14 EnMin= -1496.86968718324     IErMin=14 ErrMin= 1.55D-04
 ErrMax= 1.55D-04  0.00D+00 EMaxC= 1.00D+00 BMatC= 1.91D-06 BMatP= 2.96D-06
 IDIUse=1 WtCom= 1.00D+00 WtEn= 0.00D+00
 Coeff-Com:  0.310D-02-0.358D-02-0.307D-01 0.196D-01 0.769D-01 0.236D+00
 Coeff-Com: -0.615D+00 0.265D+00 0.528D+00 0.574D+00-0.170D+01-0.115D+01
 Coeff-Com:  0.598D+00 0.220D+01
 Coeff:      0.310D-02-0.358D-02-0.307D-01 0.196D-01 0.769D-01 0.236D+00
 Coeff:     -0.615D+00 0.265D+00 0.528D+00 0.574D+00-0.170D+01-0.115D+01
 Coeff:      0.598D+00 0.220D+01
 Gap=     0.217 Goal=   None    Shift=    0.500
 Gap=     0.076 Goal=   None    Shift=    0.500
 RMSDP=3.46D-06 MaxDP=2.10D-04 DE=-5.39D-06 OVMax= 1.48D-03

 Cycle  15  Pass 1  IDiag  1:
 E= -1496.86969061440     Delta-E=       -0.000003431161 Rises=F Damp=F
 DIIS: error= 1.31D-04 at cycle  15 NSaved=  15.
 NSaved=15 IEnMin=15 EnMin= -1496.86969061440     IErMin=15 ErrMin= 1.31D-04
 ErrMax= 1.31D-04  0.00D+00 EMaxC= 1.00D+00 BMatC= 1.30D-06 BMatP= 1.91D-06
 IDIUse=1 WtCom= 1.00D+00 WtEn= 0.00D+00
 Coeff-Com: -0.121D-03 0.792D-03 0.148D-01-0.454D-01 0.212D-02 0.149D+00
 Coeff-Com: -0.117D+00-0.291D+00 0.749D-01 0.798D+00-0.128D+00-0.111D+00
 Coeff-Com: -0.221D+01 0.136D+00 0.273D+01
 Coeff:     -0.121D-03 0.792D-03 0.148D-01-0.454D-01 0.212D-02 0.149D+00
 Coeff:     -0.117D+00-0.291D+00 0.749D-01 0.798D+00-0.128D+00-0.111D+00
 Coeff:     -0.221D+01 0.136D+00 0.273D+01
 Gap=     0.217 Goal=   None    Shift=    0.500
 Gap=     0.076 Goal=   None    Shift=    0.500
 RMSDP=2.60D-06 MaxDP=1.60D-04 DE=-3.43D-06 OVMax= 1.16D-03

 Cycle  16  Pass 1  IDiag  1:
 E= -1496.86969289281     Delta-E=       -0.000002278413 Rises=F Damp=F
 DIIS: error= 1.09D-04 at cycle  16 NSaved=  16.
 NSaved=16 IEnMin=16 EnMin= -1496.86969289281     IErMin=16 ErrMin= 1.09D-04
 ErrMax= 1.09D-04  0.00D+00 EMaxC= 1.00D+00 BMatC= 8.39D-07 BMatP= 1.30D-06
 IDIUse=1 WtCom= 1.00D+00 WtEn= 0.00D+00
 Coeff-Com: -0.142D-02 0.203D-02 0.161D-01-0.209D-01-0.415D-01-0.478D-01
 Coeff-Com:  0.251D+00-0.332D+00-0.976D-01 0.125D+00 0.446D+00 0.782D+00
 Coeff-Com: -0.183D+01-0.573D+00 0.133D+00 0.219D+01
 Coeff:     -0.142D-02 0.203D-02 0.161D-01-0.209D-01-0.415D-01-0.478D-01
 Coeff:      0.251D+00-0.332D+00-0.976D-01 0.125D+00 0.446D+00 0.782D+00
 Coeff:     -0.183D+01-0.573D+00 0.133D+00 0.219D+01
 Gap=     0.217 Goal=   None    Shift=    0.500
 Gap=     0.076 Goal=   None    Shift=    0.500
 RMSDP=2.04D-06 MaxDP=1.23D-04 DE=-2.28D-06 OVMax= 9.37D-04

 Cycle  17  Pass 1  IDiag  1:
 E= -1496.86969435397     Delta-E=       -0.000001461154 Rises=F Damp=F
 DIIS: error= 9.22D-05 at cycle  17 NSaved=  17.
 NSaved=17 IEnMin=17 EnMin= -1496.86969435397     IErMin=17 ErrMin= 9.22D-05
 ErrMax= 9.22D-05  0.00D+00 EMaxC= 1.00D+00 BMatC= 5.66D-07 BMatP= 8.39D-07
 IDIUse=1 WtCom= 1.00D+00 WtEn= 0.00D+00
 Coeff-Com: -0.492D-03 0.621D-03-0.718D-02 0.278D-01-0.278D-01-0.110D+00
 Coeff-Com:  0.186D+00 0.125D-02 0.204D-01-0.467D+00 0.965D-02 0.547D+00
 Coeff-Com:  0.425D+00-0.565D-01-0.245D+01 0.777D+00 0.213D+01
 Coeff:     -0.492D-03 0.621D-03-0.718D-02 0.278D-01-0.278D-01-0.110D+00
 Coeff:      0.186D+00 0.125D-02 0.204D-01-0.467D+00 0.965D-02 0.547D+00
 Coeff:      0.425D+00-0.565D-01-0.245D+01 0.777D+00 0.213D+01
 Gap=     0.217 Goal=   None    Shift=    0.500
 Gap=     0.076 Goal=   None    Shift=    0.500
 RMSDP=1.63D-06 MaxDP=8.75D-05 DE=-1.46D-06 OVMax= 8.00D-04

 Cycle  18  Pass 1  IDiag  1:
 E= -1496.86969535120     Delta-E=       -0.000000997232 Rises=F Damp=F
 DIIS: error= 7.68D-05 at cycle  18 NSaved=  18.
 NSaved=18 IEnMin=18 EnMin= -1496.86969535120     IErMin=18 ErrMin= 7.68D-05
 ErrMax= 7.68D-05  0.00D+00 EMaxC= 1.00D+00 BMatC= 3.64D-07 BMatP= 5.66D-07
 IDIUse=1 WtCom= 1.00D+00 WtEn= 0.00D+00
 Coeff-Com:  0.655D-03-0.662D-03-0.148D-01 0.252D-01 0.804D-02 0.170D-01
 Coeff-Com: -0.112D+00 0.162D+00 0.169D+00-0.203D+00-0.561D+00-0.162D+00
 Coeff-Com:  0.125D+01 0.457D+00-0.152D+01-0.600D+00-0.426D+00 0.251D+01
 Coeff:      0.655D-03-0.662D-03-0.148D-01 0.252D-01 0.804D-02 0.170D-01
 Coeff:     -0.112D+00 0.162D+00 0.169D+00-0.203D+00-0.561D+00-0.162D+00
 Coeff:      0.125D+01 0.457D+00-0.152D+01-0.600D+00-0.426D+00 0.251D+01
 Gap=     0.217 Goal=   None    Shift=    0.500
 Gap=     0.076 Goal=   None    Shift=    0.500
 RMSDP=1.33D-06 MaxDP=7.55D-05 DE=-9.97D-07 OVMax= 6.87D-04

 Cycle  19  Pass 1  IDiag  1:
 E= -1496.86969602249     Delta-E=       -0.000000671288 Rises=F Damp=F
 DIIS: error= 6.36D-05 at cycle  19 NSaved=  19.
 NSaved=19 IEnMin=19 EnMin= -1496.86969602249     IErMin=19 ErrMin= 6.36D-05
 ErrMax= 6.36D-05  0.00D+00 EMaxC= 1.00D+00 BMatC= 2.54D-07 BMatP= 3.64D-07
 IDIUse=1 WtCom= 1.00D+00 WtEn= 0.00D+00
 Coeff-Com:  0.949D-03-0.929D-03-0.987D-02 0.549D-02 0.224D-01 0.979D-01
 Coeff-Com: -0.229D+00 0.112D+00 0.189D+00 0.180D+00-0.682D+00-0.420D+00
 Coeff-Com:  0.752D+00 0.533D+00 0.126D+00-0.864D+00-0.209D+01 0.173D+01
 Coeff-Com:  0.155D+01
 Coeff:      0.949D-03-0.929D-03-0.987D-02 0.549D-02 0.224D-01 0.979D-01
 Coeff:     -0.229D+00 0.112D+00 0.189D+00 0.180D+00-0.682D+00-0.420D+00
 Coeff:      0.752D+00 0.533D+00 0.126D+00-0.864D+00-0.209D+01 0.173D+01
 Coeff:      0.155D+01
 Gap=     0.217 Goal=   None    Shift=    0.500
 Gap=     0.076 Goal=   None    Shift=    0.500
 RMSDP=1.09D-06 MaxDP=6.18D-05 DE=-6.71D-07 OVMax= 5.80D-04

 Cycle  20  Pass 1  IDiag  1:
 E= -1496.86969646876     Delta-E=       -0.000000446279 Rises=F Damp=F
 DIIS: error= 5.27D-05 at cycle  20 NSaved=  20.
 NSaved=20 IEnMin=20 EnMin= -1496.86969646876     IErMin=20 ErrMin= 5.27D-05
 ErrMax= 5.27D-05  0.00D+00 EMaxC= 1.00D+00 BMatC= 1.69D-07 BMatP= 2.54D-07
 IDIUse=1 WtCom= 1.00D+00 WtEn= 0.00D+00
 Coeff-Com:  0.259D-03-0.199D-03 0.450D-02-0.171D-01 0.492D-02 0.624D-01
 Coeff-Com: -0.592D-01-0.121D+00 0.465D-01 0.428D+00-0.215D+00-0.657D-01
 Coeff-Com: -0.820D+00 0.180D+00 0.148D+01 0.141D+00-0.146D+01-0.142D+01
 Coeff-Com:  0.960D-01 0.275D+01
 Coeff:      0.259D-03-0.199D-03 0.450D-02-0.171D-01 0.492D-02 0.624D-01
 Coeff:     -0.592D-01-0.121D+00 0.465D-01 0.428D+00-0.215D+00-0.657D-01
 Coeff:     -0.820D+00 0.180D+00 0.148D+01 0.141D+00-0.146D+01-0.142D+01
 Coeff:      0.960D-01 0.275D+01
 Gap=     0.217 Goal=   None    Shift=    0.500
 Gap=     0.076 Goal=   None    Shift=    0.500
 RMSDP=9.63D-07 MaxDP=5.81D-05 DE=-4.46D-07 OVMax= 5.22D-04

 SCF Done:  E(ULC-wHPBE) =  -1496.86969647     A.U. after   20 cycles
            NFock= 20  Conv=0.96D-06     -V/T= 2.0044
 <Sx>= 0.0000 <Sy>= 0.0000 <Sz>= 0.5000 <S**2>= 0.7632 S= 0.5066
 <L.S>= 0.000000000000E+00
 KE= 1.490301909903D+03 PE=-1.050792546523D+04 EE= 3.991988319015D+03
 Annihilation of the first spin contaminant:
 S**2 before annihilation     0.7632,   after     0.7501
 Leave Link  502 at Mon Jan 18 00:33:53 2021, MaxMem=  4026531840 cpu:           13064.4 elap:            1652.3
 (Enter /opt/ohpc/pub/libs/gaussian/g16-A.03/sandybridge/g16/l508.exe)
 QCSCF skips out because SCF is already converged.
 Leave Link  508 at Mon Jan 18 00:33:53 2021, MaxMem=  4026531840 cpu:               0.0 elap:               0.0
 (Enter /opt/ohpc/pub/libs/gaussian/g16-A.03/sandybridge/g16/l601.exe)
 Copying SCF densities to generalized density rwf, IOpCl= 1 IROHF=0.

 **********************************************************************

            Population analysis using the SCF density.

 **********************************************************************

 Orbital symmetries:
 Alpha Orbitals:
       Occupied  (A) (A) (A) (A) (A) (A) (A) (A) (A) (A) (A) (A)
                 (A) (A) (A) (A) (A) (A) (A) (A) (A) (A) (A) (A)
                 (A) (A) (A) (A) (A) (A) (A) (A) (A) (A) (A) (A)
                 (A) (A) (A) (A) (A) (A) (A) (A) (A) (A) (A) (A)
                 (A) (A) (A) (A) (A) (A) (A) (A) (A) (A) (A) (A)
                 (A) (A) (A) (A) (A) (A) (A) (A) (A) (A) (A) (A)
                 (A) (A) (A) (A) (A) (A) (A) (A) (A) (A) (A) (A)
                 (A) (A) (A) (A) (A) (A) (A) (A) (A) (A) (A) (A)
                 (A) (A) (A) (A) (A) (A) (A) (A) (A) (A) (A) (A)
                 (A) (A) (A) (A) (A) (A) (A) (A) (A) (A) (A) (A)
                 (A) (A) (A) (A) (A) (A) (A) (A) (A)
       Virtual   (A) (A) (A) (A) (A) (A) (A) (A) (A) (A) (A) (A)
                 (A) (A) (A) (A) (A) (A) (A) (A) (A) (A) (A) (A)
                 (A) (A) (A) (A) (A) (A) (A) (A) (A) (A) (A) (A)
                 (A) (A) (A) (A) (A) (A) (A) (A) (A) (A) (A) (A)
                 (A) (A) (A) (A) (A) (A) (A) (A) (A) (A) (A) (A)
                 (A) (A) (A) (A) (A) (A) (A) (A) (A) (A) (A) (A)
                 (A) (A) (A) (A) (A) (A) (A) (A) (A) (A) (A) (A)
                 (A) (A) (A) (A) (A) (A) (A) (A) (A) (A) (A) (A)
                 (A) (A) (A) (A) (A) (A) (A) (A) (A) (A) (A) (A)
                 (A) (A) (A) (A) (A) (A) (A) (A) (A) (A) (A) (A)
                 (A) (A) (A) (A) (A) (A) (A) (A) (A) (A) (A) (A)
                 (A) (A) (A) (A) (A) (A) (A) (A) (A) (A) (A) (A)
                 (A) (A) (A) (A) (A) (A) (A) (A) (A) (A) (A) (A)
                 (A) (A) (A) (A) (A) (A) (A) (A) (A) (A) (A) (A)
                 (A) (A) (A) (A) (A) (A) (A) (A) (A) (A) (A) (A)
                 (A) (A) (A) (A) (A) (A) (A) (A) (A) (A) (A) (A)
                 (A) (A) (A) (A) (A) (A) (A) (A) (A) (A) (A) (A)
                 (A) (A) (A) (A) (A) (A) (A) (A) (A) (A) (A) (A)
                 (A) (A) (A) (A) (A) (A) (A) (A) (A) (A) (A) (A)
                 (A) (A) (A) (A) (A) (A) (A) (A) (A) (A) (A) (A)
                 (A) (A) (A) (A) (A) (A) (A) (A) (A) (A) (A) (A)
                 (A) (A) (A) (A) (A) (A) (A) (A) (A) (A) (A) (A)
                 (A) (A) (A) (A) (A) (A) (A) (A) (A) (A) (A) (A)
                 (A) (A) (A) (A) (A) (A) (A) (A) (A) (A) (A) (A)
                 (A) (A) (A) (A) (A) (A) (A) (A) (A) (A) (A) (A)
                 (A) (A) (A) (A) (A) (A) (A) (A) (A) (A) (A) (A)
                 (A) (A) (A) (A) (A) (A) (A) (A) (A) (A) (A) (A)
                 (A) (A) (A) (A) (A) (A) (A) (A) (A) (A) (A) (A)
                 (A) (A) (A) (A) (A) (A) (A) (A) (A) (A) (A) (A)
                 (A) (A) (A) (A) (A) (A) (A) (A) (A) (A) (A) (A)
                 (A) (A) (A) (A) (A) (A) (A) (A) (A) (A) (A) (A)
                 (A) (A) (A) (A) (A) (A) (A) (A) (A) (A) (A) (A)
                 (A) (A) (A) (A) (A) (A) (A) (A) (A) (A) (A) (A)
                 (A) (A) (A) (A) (A) (A) (A) (A) (A) (A) (A) (A)
                 (A) (A) (A) (A) (A) (A) (A) (A) (A) (A) (A) (A)
                 (A) (A) (A) (A) (A) (A) (A) (A) (A) (A) (A) (A)
                 (A) (A) (A) (A) (A) (A) (A) (A) (A) (A) (A) (A)
                 (A) (A) (A) (A) (A) (A) (A) (A) (A) (A) (A) (A)
                 (A) (A) (A) (A) (A) (A) (A) (A) (A) (A) (A) (A)
                 (A) (A) (A) (A) (A) (A) (A) (A) (A) (A) (A) (A)
                 (A) (A) (A) (A) (A) (A) (A) (A) (A) (A) (A) (A)
                 (A) (A) (A) (A) (A) (A) (A) (A) (A) (A) (A) (A)
                 (A) (A) (A) (A) (A) (A) (A) (A) (A) (A) (A) (A)
                 (A) (A) (A) (A) (A) (A) (A) (A) (A) (A) (A) (A)
                 (A) (A) (A) (A) (A) (A) (A) (A) (A) (A) (A) (A)
                 (A) (A) (A) (A) (A) (A) (A) (A) (A) (A) (A) (A)
                 (A) (A) (A) (A) (A) (A) (A) (A) (A) (A) (A) (A)
                 (A) (A) (A) (A) (A) (A) (A) (A) (A) (A) (A) (A)
                 (A) (A) (A) (A) (A) (A) (A) (A) (A) (A) (A) (A)
                 (A) (A) (A) (A) (A) (A) (A) (A) (A) (A) (A) (A)
                 (A) (A) (A) (A) (A) (A) (A) (A) (A) (A) (A) (A)
                 (A) (A) (A) (A) (A) (A) (A) (A) (A) (A) (A) (A)
                 (A) (A) (A) (A) (A) (A) (A) (A) (A) (A) (A) (A)
                 (A) (A) (A) (A) (A) (A) (A) (A) (A) (A) (A) (A)
                 (A) (A) (A) (A) (A) (A) (A) (A) (A) (A) (A) (A)
                 (A) (A) (A) (A) (A) (A) (A) (A) (A) (A) (A) (A)
                 (A) (A) (A) (A) (A) (A) (A) (A) (A) (A) (A) (A)
                 (A) (A) (A) (A) (A) (A) (A) (A) (A) (A) (A) (A)
                 (A) (A) (A) (A) (A) (A) (A) (A) (A) (A) (A) (A)
                 (A) (A) (A) (A) (A) (A) (A) (A) (A) (A) (A) (A)
                 (A) (A) (A) (A) (A) (A) (A) (A) (A) (A) (A) (A)
                 (A) (A) (A) (A) (A) (A) (A) (A) (A) (A) (A) (A)
                 (A) (A) (A) (A) (A) (A) (A) (A) (A) (A) (A) (A)
                 (A) (A) (A) (A) (A)
 Beta  Orbitals:
       Occupied  (A) (A) (A) (A) (A) (A) (A) (A) (A) (A) (A) (A)
                 (A) (A) (A) (A) (A) (A) (A) (A) (A) (A) (A) (A)
                 (A) (A) (A) (A) (A) (A) (A) (A) (A) (A) (A) (A)
                 (A) (A) (A) (A) (A) (A) (A) (A) (A) (A) (A) (A)
                 (A) (A) (A) (A) (A) (A) (A) (A) (A) (A) (A) (A)
                 (A) (A) (A) (A) (A) (A) (A) (A) (A) (A) (A) (A)
                 (A) (A) (A) (A) (A) (A) (A) (A) (A) (A) (A) (A)
                 (A) (A) (A) (A) (A) (A) (A) (A) (A) (A) (A) (A)
                 (A) (A) (A) (A) (A) (A) (A) (A) (A) (A) (A) (A)
                 (A) (A) (A) (A) (A) (A) (A) (A) (A) (A) (A) (A)
                 (A) (A) (A) (A) (A) (A) (A) (A)
       Virtual   (A) (A) (A) (A) (A) (A) (A) (A) (A) (A) (A) (A)
                 (A) (A) (A) (A) (A) (A) (A) (A) (A) (A) (A) (A)
                 (A) (A) (A) (A) (A) (A) (A) (A) (A) (A) (A) (A)
                 (A) (A) (A) (A) (A) (A) (A) (A) (A) (A) (A) (A)
                 (A) (A) (A) (A) (A) (A) (A) (A) (A) (A) (A) (A)
                 (A) (A) (A) (A) (A) (A) (A) (A) (A) (A) (A) (A)
                 (A) (A) (A) (A) (A) (A) (A) (A) (A) (A) (A) (A)
                 (A) (A) (A) (A) (A) (A) (A) (A) (A) (A) (A) (A)
                 (A) (A) (A) (A) (A) (A) (A) (A) (A) (A) (A) (A)
                 (A) (A) (A) (A) (A) (A) (A) (A) (A) (A) (A) (A)
                 (A) (A) (A) (A) (A) (A) (A) (A) (A) (A) (A) (A)
                 (A) (A) (A) (A) (A) (A) (A) (A) (A) (A) (A) (A)
                 (A) (A) (A) (A) (A) (A) (A) (A) (A) (A) (A) (A)
                 (A) (A) (A) (A) (A) (A) (A) (A) (A) (A) (A) (A)
                 (A) (A) (A) (A) (A) (A) (A) (A) (A) (A) (A) (A)
                 (A) (A) (A) (A) (A) (A) (A) (A) (A) (A) (A) (A)
                 (A) (A) (A) (A) (A) (A) (A) (A) (A) (A) (A) (A)
                 (A) (A) (A) (A) (A) (A) (A) (A) (A) (A) (A) (A)
                 (A) (A) (A) (A) (A) (A) (A) (A) (A) (A) (A) (A)
                 (A) (A) (A) (A) (A) (A) (A) (A) (A) (A) (A) (A)
                 (A) (A) (A) (A) (A) (A) (A) (A) (A) (A) (A) (A)
                 (A) (A) (A) (A) (A) (A) (A) (A) (A) (A) (A) (A)
                 (A) (A) (A) (A) (A) (A) (A) (A) (A) (A) (A) (A)
                 (A) (A) (A) (A) (A) (A) (A) (A) (A) (A) (A) (A)
                 (A) (A) (A) (A) (A) (A) (A) (A) (A) (A) (A) (A)
                 (A) (A) (A) (A) (A) (A) (A) (A) (A) (A) (A) (A)
                 (A) (A) (A) (A) (A) (A) (A) (A) (A) (A) (A) (A)
                 (A) (A) (A) (A) (A) (A) (A) (A) (A) (A) (A) (A)
                 (A) (A) (A) (A) (A) (A) (A) (A) (A) (A) (A) (A)
                 (A) (A) (A) (A) (A) (A) (A) (A) (A) (A) (A) (A)
                 (A) (A) (A) (A) (A) (A) (A) (A) (A) (A) (A) (A)
                 (A) (A) (A) (A) (A) (A) (A) (A) (A) (A) (A) (A)
                 (A) (A) (A) (A) (A) (A) (A) (A) (A) (A) (A) (A)
                 (A) (A) (A) (A) (A) (A) (A) (A) (A) (A) (A) (A)
                 (A) (A) (A) (A) (A) (A) (A) (A) (A) (A) (A) (A)
                 (A) (A) (A) (A) (A) (A) (A) (A) (A) (A) (A) (A)
                 (A) (A) (A) (A) (A) (A) (A) (A) (A) (A) (A) (A)
                 (A) (A) (A) (A) (A) (A) (A) (A) (A) (A) (A) (A)
                 (A) (A) (A) (A) (A) (A) (A) (A) (A) (A) (A) (A)
                 (A) (A) (A) (A) (A) (A) (A) (A) (A) (A) (A) (A)
                 (A) (A) (A) (A) (A) (A) (A) (A) (A) (A) (A) (A)
                 (A) (A) (A) (A) (A) (A) (A) (A) (A) (A) (A) (A)
                 (A) (A) (A) (A) (A) (A) (A) (A) (A) (A) (A) (A)
                 (A) (A) (A) (A) (A) (A) (A) (A) (A) (A) (A) (A)
                 (A) (A) (A) (A) (A) (A) (A) (A) (A) (A) (A) (A)
                 (A) (A) (A) (A) (A) (A) (A) (A) (A) (A) (A) (A)
                 (A) (A) (A) (A) (A) (A) (A) (A) (A) (A) (A) (A)
                 (A) (A) (A) (A) (A) (A) (A) (A) (A) (A) (A) (A)
                 (A) (A) (A) (A) (A) (A) (A) (A) (A) (A) (A) (A)
                 (A) (A) (A) (A) (A) (A) (A) (A) (A) (A) (A) (A)
                 (A) (A) (A) (A) (A) (A) (A) (A) (A) (A) (A) (A)
                 (A) (A) (A) (A) (A) (A) (A) (A) (A) (A) (A) (A)
                 (A) (A) (A) (A) (A) (A) (A) (A) (A) (A) (A) (A)
                 (A) (A) (A) (A) (A) (A) (A) (A) (A) (A) (A) (A)
                 (A) (A) (A) (A) (A) (A) (A) (A) (A) (A) (A) (A)
                 (A) (A) (A) (A) (A) (A) (A) (A) (A) (A) (A) (A)
                 (A) (A) (A) (A) (A) (A) (A) (A) (A) (A) (A) (A)
                 (A) (A) (A) (A) (A) (A) (A) (A) (A) (A) (A) (A)
                 (A) (A) (A) (A) (A) (A) (A) (A) (A) (A) (A) (A)
                 (A) (A) (A) (A) (A) (A) (A) (A) (A) (A) (A) (A)
                 (A) (A) (A) (A) (A) (A) (A) (A) (A) (A) (A) (A)
                 (A) (A) (A) (A) (A) (A) (A) (A) (A) (A) (A) (A)
                 (A) (A) (A) (A) (A) (A) (A) (A) (A) (A) (A) (A)
                 (A) (A) (A) (A) (A) (A)
 The electronic state is 2-A.
 Alpha  occ. eigenvalues --  -14.22503 -14.22503 -10.11590 -10.11589 -10.10135
 Alpha  occ. eigenvalues --  -10.10134 -10.10133 -10.10133 -10.08247 -10.08233
 Alpha  occ. eigenvalues --  -10.07047 -10.07046 -10.07044 -10.07043 -10.06997
 Alpha  occ. eigenvalues --  -10.06997 -10.06996 -10.06996 -10.05787 -10.05787
 Alpha  occ. eigenvalues --  -10.05786 -10.05786 -10.05640 -10.05640 -10.05640
 Alpha  occ. eigenvalues --  -10.05640 -10.05235 -10.05235 -10.05235 -10.05235
 Alpha  occ. eigenvalues --  -10.05166 -10.05166 -10.05165 -10.05165 -10.05059
 Alpha  occ. eigenvalues --  -10.05059 -10.05059 -10.05059  -1.08289  -1.08286
 Alpha  occ. eigenvalues --   -0.98201  -0.96504  -0.95707  -0.95707  -0.94413
 Alpha  occ. eigenvalues --   -0.93878  -0.89620  -0.87069  -0.86777  -0.86301
 Alpha  occ. eigenvalues --   -0.85871  -0.85504  -0.84886  -0.84566  -0.84565
 Alpha  occ. eigenvalues --   -0.84462  -0.82650  -0.81013  -0.76237  -0.75512
 Alpha  occ. eigenvalues --   -0.74489  -0.73577  -0.73134  -0.71930  -0.71656
 Alpha  occ. eigenvalues --   -0.71376  -0.71203  -0.70849  -0.69042  -0.68680
 Alpha  occ. eigenvalues --   -0.66689  -0.66011  -0.65844  -0.65612  -0.63692
 Alpha  occ. eigenvalues --   -0.61370  -0.61331  -0.60830  -0.59965  -0.59698
 Alpha  occ. eigenvalues --   -0.59471  -0.57952  -0.57913  -0.57270  -0.57207
 Alpha  occ. eigenvalues --   -0.57162  -0.56458  -0.55664  -0.55517  -0.55355
 Alpha  occ. eigenvalues --   -0.55336  -0.55250  -0.55096  -0.54145  -0.54036
 Alpha  occ. eigenvalues --   -0.53859  -0.53858  -0.53554  -0.52268  -0.51851
 Alpha  occ. eigenvalues --   -0.51095  -0.50756  -0.50430  -0.50402  -0.49219
 Alpha  occ. eigenvalues --   -0.48945  -0.48428  -0.48317  -0.48078  -0.47715
 Alpha  occ. eigenvalues --   -0.47671  -0.46931  -0.46612  -0.46304  -0.46277
 Alpha  occ. eigenvalues --   -0.45564  -0.44677  -0.42419  -0.41086  -0.41082
 Alpha  occ. eigenvalues --   -0.40207  -0.40199  -0.39861  -0.39386  -0.39362
 Alpha  occ. eigenvalues --   -0.38947  -0.38791  -0.34514  -0.33354
 Alpha virt. eigenvalues --   -0.11640  -0.09654  -0.09523  -0.08597  -0.08589
 Alpha virt. eigenvalues --   -0.07877  -0.07388  -0.07262  -0.06538  -0.06502
 Alpha virt. eigenvalues --   -0.04985  -0.03858  -0.00671  -0.00086   0.00957
 Alpha virt. eigenvalues --    0.01144   0.01251   0.01386   0.01686   0.02858
 Alpha virt. eigenvalues --    0.02974   0.03181   0.03779   0.03862   0.03869
 Alpha virt. eigenvalues --    0.04227   0.04766   0.04891   0.05219   0.05555
 Alpha virt. eigenvalues --    0.05998   0.06353   0.06446   0.06454   0.06657
 Alpha virt. eigenvalues --    0.06701   0.06842   0.06930   0.07064   0.07500
 Alpha virt. eigenvalues --    0.07601   0.08066   0.08616   0.08837   0.08987
 Alpha virt. eigenvalues --    0.09678   0.10128   0.10155   0.10734   0.11234
 Alpha virt. eigenvalues --    0.12788   0.13174   0.13459   0.13614   0.13720
 Alpha virt. eigenvalues --    0.14334   0.14363   0.14556   0.14676   0.14942
 Alpha virt. eigenvalues --    0.15126   0.15377   0.15590   0.15813   0.15888
 Alpha virt. eigenvalues --    0.16058   0.17162   0.17176   0.17259   0.17348
 Alpha virt. eigenvalues --    0.17424   0.17466   0.17683   0.17697   0.17816
 Alpha virt. eigenvalues --    0.18197   0.18459   0.18790   0.19060   0.19214
 Alpha virt. eigenvalues --    0.19289   0.19363   0.19638   0.19837   0.19866
 Alpha virt. eigenvalues --    0.20022   0.20487   0.20770   0.20837   0.20852
 Alpha virt. eigenvalues --    0.21788   0.22274   0.22751   0.22802   0.22818
 Alpha virt. eigenvalues --    0.22903   0.23106   0.23166   0.23609   0.24537
 Alpha virt. eigenvalues --    0.24591   0.24619   0.24883   0.25161   0.25311
 Alpha virt. eigenvalues --    0.25741   0.25886   0.26245   0.26459   0.26684
 Alpha virt. eigenvalues --    0.26710   0.26906   0.27188   0.27371   0.28675
 Alpha virt. eigenvalues --    0.28753   0.28943   0.29212   0.29259   0.30024
 Alpha virt. eigenvalues --    0.30231   0.30438   0.30545   0.31160   0.31201
 Alpha virt. eigenvalues --    0.31331   0.31560   0.31819   0.32299   0.32402
 Alpha virt. eigenvalues --    0.32486   0.33363   0.33382   0.33613   0.33660
 Alpha virt. eigenvalues --    0.33834   0.33859   0.34087   0.34174   0.34371
 Alpha virt. eigenvalues --    0.34685   0.35143   0.35286   0.35647   0.36037
 Alpha virt. eigenvalues --    0.36263   0.36916   0.37130   0.37202   0.37327
 Alpha virt. eigenvalues --    0.37620   0.37852   0.37977   0.38190   0.38192
 Alpha virt. eigenvalues --    0.38201   0.38245   0.38292   0.38901   0.39021
 Alpha virt. eigenvalues --    0.39472   0.39816   0.40290   0.40533   0.40783
 Alpha virt. eigenvalues --    0.40924   0.40944   0.41059   0.41279   0.42162
 Alpha virt. eigenvalues --    0.42445   0.42736   0.42793   0.43004   0.43051
 Alpha virt. eigenvalues --    0.43456   0.43945   0.44045   0.44196   0.44295
 Alpha virt. eigenvalues --    0.44618   0.44671   0.45105   0.45119   0.45232
 Alpha virt. eigenvalues --    0.45798   0.46055   0.46160   0.46454   0.46475
 Alpha virt. eigenvalues --    0.47369   0.47945   0.48105   0.48375   0.48856
 Alpha virt. eigenvalues --    0.48989   0.49106   0.49591   0.49722   0.49812
 Alpha virt. eigenvalues --    0.50391   0.50909   0.51263   0.51846   0.52252
 Alpha virt. eigenvalues --    0.54500   0.54649   0.54661   0.54849   0.55467
 Alpha virt. eigenvalues --    0.55555   0.55971   0.56341   0.56841   0.57815
 Alpha virt. eigenvalues --    0.58582   0.59398   0.59936   0.60279   0.60916
 Alpha virt. eigenvalues --    0.60944   0.61216   0.61359   0.61794   0.62278
 Alpha virt. eigenvalues --    0.62728   0.62947   0.63248   0.63257   0.63388
 Alpha virt. eigenvalues --    0.63419   0.63472   0.63681   0.63755   0.64720
 Alpha virt. eigenvalues --    0.64850   0.65402   0.66221   0.66452   0.67106
 Alpha virt. eigenvalues --    0.67133   0.68147   0.68566   0.69428   0.69590
 Alpha virt. eigenvalues --    0.70449   0.71330   0.71598   0.71715   0.71812
 Alpha virt. eigenvalues --    0.73472   0.73784   0.74686   0.75163   0.75732
 Alpha virt. eigenvalues --    0.77844   0.77966   0.78225   0.78791   0.79435
 Alpha virt. eigenvalues --    0.79834   0.80025   0.80339   0.84326   0.85431
 Alpha virt. eigenvalues --    0.85737   0.85882   0.88221   0.88348   1.04534
 Alpha virt. eigenvalues --    1.06201   1.07278   1.07715   1.07727   1.11446
 Alpha virt. eigenvalues --    1.11833   1.11891   1.12466   1.13439   1.13735
 Alpha virt. eigenvalues --    1.13969   1.14180   1.14815   1.14905   1.15576
 Alpha virt. eigenvalues --    1.15592   1.15898   1.16082   1.16558   1.17313
 Alpha virt. eigenvalues --    1.17517   1.17672   1.18305   1.18309   1.18362
 Alpha virt. eigenvalues --    1.18379   1.19230   1.19231   1.19436   1.19621
 Alpha virt. eigenvalues --    1.19963   1.20342   1.20584   1.20669   1.20748
 Alpha virt. eigenvalues --    1.21375   1.21816   1.22107   1.22109   1.22203
 Alpha virt. eigenvalues --    1.22570   1.22795   1.22878   1.23073   1.23681
 Alpha virt. eigenvalues --    1.23687   1.24143   1.24203   1.24548   1.24907
 Alpha virt. eigenvalues --    1.25419   1.25441   1.25758   1.25938   1.26373
 Alpha virt. eigenvalues --    1.26613   1.26825   1.31489   1.31943   1.32864
 Alpha virt. eigenvalues --    1.33146   1.33345   1.33541   1.33920   1.34446
 Alpha virt. eigenvalues --    1.34846   1.34960   1.35204   1.35241   1.35375
 Alpha virt. eigenvalues --    1.35376   1.35438   1.35499   1.36093   1.36164
 Alpha virt. eigenvalues --    1.36193   1.36500   1.36594   1.37073   1.37131
 Alpha virt. eigenvalues --    1.37207   1.37328   1.37570   1.37605   1.37667
 Alpha virt. eigenvalues --    1.37797   1.38093   1.38374   1.38706   1.38797
 Alpha virt. eigenvalues --    1.38830   1.38967   1.39087   1.40620   1.40847
 Alpha virt. eigenvalues --    1.41002   1.41037   1.41617   1.41737   1.42665
 Alpha virt. eigenvalues --    1.43026   1.43119   1.43225   1.43441   1.43589
 Alpha virt. eigenvalues --    1.43943   1.44131   1.44382   1.44760   1.44989
 Alpha virt. eigenvalues --    1.45357   1.45452   1.46092   1.46148   1.46418
 Alpha virt. eigenvalues --    1.46567   1.46578   1.47029   1.47439   1.47450
 Alpha virt. eigenvalues --    1.47494   1.48124   1.48226   1.48461   1.48668
 Alpha virt. eigenvalues --    1.49217   1.49267   1.49379   1.49411   1.50072
 Alpha virt. eigenvalues --    1.50249   1.50662   1.50915   1.51241   1.51673
 Alpha virt. eigenvalues --    1.51838   1.54619   1.55177   1.56786   1.56930
 Alpha virt. eigenvalues --    1.57758   1.57854   1.58178   1.58204   1.59302
 Alpha virt. eigenvalues --    1.61293   1.61748   1.62334   1.62486   1.63194
 Alpha virt. eigenvalues --    1.65760   1.66228   1.66814   1.66967   1.67426
 Alpha virt. eigenvalues --    1.67643   1.67664   1.68009   1.68259   1.68324
 Alpha virt. eigenvalues --    1.68549   1.68834   1.68922   1.69172   1.69185
 Alpha virt. eigenvalues --    1.69901   1.69989   1.70110   1.70153   1.70687
 Alpha virt. eigenvalues --    1.70961   1.71934   1.72013   1.72208   1.72332
 Alpha virt. eigenvalues --    1.72847   1.73129   1.73198   1.73371   1.73596
 Alpha virt. eigenvalues --    1.74827   1.75260   1.75391   1.75935   1.77570
 Alpha virt. eigenvalues --    1.78214   1.78373   1.79187   1.79396   1.79555
 Alpha virt. eigenvalues --    1.79565   1.79901   1.80005   1.80015   1.80344
 Alpha virt. eigenvalues --    1.81700   1.82098   1.82258   1.82328   1.82496
 Alpha virt. eigenvalues --    1.82510   1.82774   1.82877   1.83190   1.83254
 Alpha virt. eigenvalues --    1.83284   1.83322   1.83871   1.84100   1.84124
 Alpha virt. eigenvalues --    1.84285   1.84298   1.84697   1.84890   1.85297
 Alpha virt. eigenvalues --    1.85832   1.86605   1.87264   1.88523   1.88610
 Alpha virt. eigenvalues --    1.88641   1.88653   1.89084   1.89353   1.90505
 Alpha virt. eigenvalues --    1.90554   1.90587   1.91244   1.91873   1.93004
 Alpha virt. eigenvalues --    1.93194   1.93248   1.93415   1.94922   1.95217
 Alpha virt. eigenvalues --    1.95569   1.97597   1.97827   1.98477   1.99650
 Alpha virt. eigenvalues --    2.01126   2.02044   2.02077   2.02549   2.02980
 Alpha virt. eigenvalues --    2.04634   2.05718   2.07643   2.09416   2.09783
 Alpha virt. eigenvalues --    2.09993   2.10183   2.12324   2.12865   2.13764
 Alpha virt. eigenvalues --    2.14092   2.14186   2.16004   2.16376   2.17234
 Alpha virt. eigenvalues --    2.19390   2.19506   2.20010   2.20099   2.20248
 Alpha virt. eigenvalues --    2.20555   2.21147   2.21381   2.21518   2.21542
 Alpha virt. eigenvalues --    2.21546   2.21936   2.22389   2.22635   2.22901
 Alpha virt. eigenvalues --    2.23118   2.23335   2.23529   2.24253   2.24329
 Alpha virt. eigenvalues --    2.25056   2.25109   2.25196   2.25424   2.26244
 Alpha virt. eigenvalues --    2.26377   2.26417   2.26468   2.26745   2.26802
 Alpha virt. eigenvalues --    2.27142   2.27369   2.27685   2.28059   2.28080
 Alpha virt. eigenvalues --    2.28237   2.30602   2.33381   2.34595   2.35008
 Alpha virt. eigenvalues --    2.35400   2.36144   2.36218   2.36423   2.40466
 Alpha virt. eigenvalues --    2.40580   2.40584   2.41157   2.41649   2.41757
 Alpha virt. eigenvalues --    2.42312   2.42644   2.43034   2.43178   2.43378
 Alpha virt. eigenvalues --    2.43970   2.44682   2.45078   2.45592   2.45809
 Alpha virt. eigenvalues --    2.46053   2.47974   2.48622   2.49279   2.50544
 Alpha virt. eigenvalues --    2.50697   2.52826   2.53180   2.53527   2.53762
 Alpha virt. eigenvalues --    2.54640   2.54647   2.54673   2.55176   2.55181
 Alpha virt. eigenvalues --    2.55392   2.55567   2.55760   2.56274   2.56688
 Alpha virt. eigenvalues --    2.56702   2.57529   2.57800   2.58057   2.58369
 Alpha virt. eigenvalues --    2.58878   2.63369   2.64327   2.64332   2.64512
 Alpha virt. eigenvalues --    2.64575   2.65367   2.65766   2.66146   2.66286
 Alpha virt. eigenvalues --    2.67507   2.68259   2.68591   2.68623   2.69474
 Alpha virt. eigenvalues --    2.71524   2.72499   2.72819   2.73378   2.73844
 Alpha virt. eigenvalues --    2.74972   2.75035   2.75345   2.75413   2.75508
 Alpha virt. eigenvalues --    2.79489   2.80210   2.84794   2.85909   2.86002
 Alpha virt. eigenvalues --    2.86151   2.88233   2.88243   2.89082   2.89132
 Alpha virt. eigenvalues --    2.92262   2.92295   2.92604   2.92683   2.92777
 Alpha virt. eigenvalues --    2.93337   2.93597   2.93632   2.94513   2.94633
 Alpha virt. eigenvalues --    2.95095   2.95372   2.96025   2.96969   2.97521
 Alpha virt. eigenvalues --    2.99335   3.00365   3.00375   3.00532   3.01870
 Alpha virt. eigenvalues --    3.01990   3.02459   3.04477   3.04694   3.05505
 Alpha virt. eigenvalues --    3.05786   3.07126   3.07320   3.07938   3.08041
 Alpha virt. eigenvalues --    3.08576   3.09732   3.10120   3.10593   3.10774
 Alpha virt. eigenvalues --    3.11314   3.11874   3.12406   3.12708   3.13622
 Alpha virt. eigenvalues --    3.15035   3.15917   3.19014   3.22818   3.22834
 Alpha virt. eigenvalues --    3.23140   3.23596   3.24024   3.24119   3.26360
 Alpha virt. eigenvalues --    3.27984   3.29830   3.30142   3.31321   3.31325
 Alpha virt. eigenvalues --    3.34026   3.34727   3.42245   3.43165   3.44762
 Alpha virt. eigenvalues --    3.44898   3.45124   3.45289   3.47370   3.49855
 Alpha virt. eigenvalues --    3.50259   3.50267   3.67615   3.71360   3.78487
 Alpha virt. eigenvalues --    3.80844   3.81282   3.81365  21.01885  21.08071
 Alpha virt. eigenvalues --   21.08328  21.09843  21.10068  21.22783  21.54537
 Alpha virt. eigenvalues --   21.55898  21.55923  21.58526  21.59057  21.59069
 Alpha virt. eigenvalues --   21.61385  21.61690  21.64627  21.67852  21.68037
 Alpha virt. eigenvalues --   21.77022  21.77890  21.81502  21.82043  21.83371
 Alpha virt. eigenvalues --   21.84270  21.84931  21.85140  21.86686  21.89606
 Alpha virt. eigenvalues --   21.90034  21.90347  21.91908  21.95615  21.96621
 Alpha virt. eigenvalues --   22.01287  22.02062  22.02665  22.02780  31.88258
 Alpha virt. eigenvalues --   31.89203
  Beta  occ. eigenvalues --  -14.22120 -14.22120 -10.11553 -10.11552 -10.10158
  Beta  occ. eigenvalues --  -10.10157 -10.10156 -10.10156 -10.08168 -10.08154
  Beta  occ. eigenvalues --  -10.07015 -10.07014 -10.07012 -10.07011 -10.06971
  Beta  occ. eigenvalues --  -10.06971 -10.06971 -10.06971 -10.05722 -10.05721
  Beta  occ. eigenvalues --  -10.05721 -10.05721 -10.05579 -10.05579 -10.05578
  Beta  occ. eigenvalues --  -10.05578 -10.05258 -10.05258 -10.05258 -10.05258
  Beta  occ. eigenvalues --  -10.05186 -10.05186 -10.05186 -10.05186 -10.04990
  Beta  occ. eigenvalues --  -10.04989 -10.04989 -10.04989  -1.07807  -1.07803
  Beta  occ. eigenvalues --   -0.98039  -0.96358  -0.95618  -0.95618  -0.94287
  Beta  occ. eigenvalues --   -0.93736  -0.89426  -0.86990  -0.86690  -0.86169
  Beta  occ. eigenvalues --   -0.85786  -0.85423  -0.84813  -0.84499  -0.84498
  Beta  occ. eigenvalues --   -0.84376  -0.82466  -0.80744  -0.76130  -0.75381
  Beta  occ. eigenvalues --   -0.74361  -0.73463  -0.73005  -0.71791  -0.71597
  Beta  occ. eigenvalues --   -0.71290  -0.71122  -0.70773  -0.68955  -0.68598
  Beta  occ. eigenvalues --   -0.66618  -0.65919  -0.65770  -0.65535  -0.63606
  Beta  occ. eigenvalues --   -0.61247  -0.61226  -0.60742  -0.59865  -0.59527
  Beta  occ. eigenvalues --   -0.59157  -0.57886  -0.57783  -0.57208  -0.57125
  Beta  occ. eigenvalues --   -0.57109  -0.56389  -0.55622  -0.55480  -0.55287
  Beta  occ. eigenvalues --   -0.55267  -0.55188  -0.55056  -0.54086  -0.53998
  Beta  occ. eigenvalues --   -0.53828  -0.53827  -0.53464  -0.52036  -0.51518
  Beta  occ. eigenvalues --   -0.50792  -0.50531  -0.50257  -0.50230  -0.49162
  Beta  occ. eigenvalues --   -0.48848  -0.48265  -0.48125  -0.48026  -0.47621
  Beta  occ. eigenvalues --   -0.47577  -0.46769  -0.46523  -0.46263  -0.46234
  Beta  occ. eigenvalues --   -0.45296  -0.44176  -0.41904  -0.40920  -0.40913
  Beta  occ. eigenvalues --   -0.39891  -0.39877  -0.39261  -0.39161  -0.39125
  Beta  occ. eigenvalues --   -0.38799  -0.38349  -0.31185
  Beta virt. eigenvalues --   -0.23545  -0.11249  -0.09444  -0.09303  -0.08333
  Beta virt. eigenvalues --   -0.08320  -0.07499  -0.07199  -0.07027  -0.06364
  Beta virt. eigenvalues --   -0.06299  -0.04547  -0.03383  -0.00631  -0.00040
  Beta virt. eigenvalues --    0.00990   0.01194   0.01286   0.01413   0.01718
  Beta virt. eigenvalues --    0.02903   0.03032   0.03219   0.03819   0.03883
  Beta virt. eigenvalues --    0.03900   0.04262   0.04928   0.04941   0.05244
  Beta virt. eigenvalues --    0.05586   0.06049   0.06424   0.06525   0.06533
  Beta virt. eigenvalues --    0.06810   0.06820   0.06931   0.06948   0.07095
  Beta virt. eigenvalues --    0.07556   0.07697   0.08123   0.08641   0.08877
  Beta virt. eigenvalues --    0.09192   0.09829   0.10283   0.10308   0.10811
  Beta virt. eigenvalues --    0.11370   0.12863   0.13231   0.13537   0.13709
  Beta virt. eigenvalues --    0.13766   0.14414   0.14436   0.14619   0.14748
  Beta virt. eigenvalues --    0.15011   0.15189   0.15479   0.15671   0.15850
  Beta virt. eigenvalues --    0.15956   0.16103   0.17256   0.17266   0.17362
  Beta virt. eigenvalues --    0.17400   0.17484   0.17557   0.17758   0.17772
  Beta virt. eigenvalues --    0.17881   0.18265   0.18530   0.18852   0.19100
  Beta virt. eigenvalues --    0.19265   0.19317   0.19391   0.19710   0.19906
  Beta virt. eigenvalues --    0.19916   0.20073   0.20566   0.20823   0.20903
  Beta virt. eigenvalues --    0.20912   0.21818   0.22342   0.22787   0.22841
  Beta virt. eigenvalues --    0.22873   0.22947   0.23202   0.23307   0.23701
  Beta virt. eigenvalues --    0.24640   0.24693   0.24714   0.24966   0.25249
  Beta virt. eigenvalues --    0.25419   0.25834   0.26007   0.26315   0.26538
  Beta virt. eigenvalues --    0.26754   0.26781   0.27010   0.27270   0.27455
  Beta virt. eigenvalues --    0.28789   0.28864   0.29058   0.29301   0.29354
  Beta virt. eigenvalues --    0.30109   0.30359   0.30531   0.30655   0.31232
  Beta virt. eigenvalues --    0.31329   0.31409   0.31661   0.31871   0.32397
  Beta virt. eigenvalues --    0.32498   0.32562   0.33440   0.33457   0.33690
  Beta virt. eigenvalues --    0.33739   0.33905   0.33921   0.34180   0.34228
  Beta virt. eigenvalues --    0.34476   0.34792   0.35241   0.35360   0.35750
  Beta virt. eigenvalues --    0.36133   0.36362   0.36972   0.37247   0.37266
  Beta virt. eigenvalues --    0.37375   0.37649   0.37876   0.38019   0.38214
  Beta virt. eigenvalues --    0.38262   0.38281   0.38302   0.38327   0.38931
  Beta virt. eigenvalues --    0.39069   0.39550   0.39869   0.40359   0.40606
  Beta virt. eigenvalues --    0.40852   0.40981   0.41022   0.41122   0.41339
  Beta virt. eigenvalues --    0.42247   0.42509   0.42784   0.42838   0.43079
  Beta virt. eigenvalues --    0.43102   0.43518   0.43998   0.44103   0.44257
  Beta virt. eigenvalues --    0.44339   0.44660   0.44717   0.45203   0.45211
  Beta virt. eigenvalues --    0.45277   0.45885   0.46141   0.46225   0.46523
  Beta virt. eigenvalues --    0.46546   0.47415   0.48019   0.48168   0.48443
  Beta virt. eigenvalues --    0.48926   0.49079   0.49200   0.49724   0.49807
  Beta virt. eigenvalues --    0.49890   0.50445   0.50988   0.51321   0.51927
  Beta virt. eigenvalues --    0.52312   0.54561   0.54718   0.54727   0.54923
  Beta virt. eigenvalues --    0.55526   0.55662   0.56043   0.56413   0.56897
  Beta virt. eigenvalues --    0.57896   0.58660   0.59506   0.59993   0.60329
  Beta virt. eigenvalues --    0.60985   0.61011   0.61277   0.61413   0.61880
  Beta virt. eigenvalues --    0.62343   0.62790   0.63019   0.63313   0.63366
  Beta virt. eigenvalues --    0.63450   0.63484   0.63528   0.63734   0.63816
  Beta virt. eigenvalues --    0.64780   0.64937   0.65464   0.66270   0.66546
  Beta virt. eigenvalues --    0.67181   0.67194   0.68216   0.68644   0.69515
  Beta virt. eigenvalues --    0.69669   0.70542   0.71414   0.71637   0.71762
  Beta virt. eigenvalues --    0.71866   0.73576   0.73846   0.74840   0.75371
  Beta virt. eigenvalues --    0.75800   0.78265   0.78273   0.78303   0.78860
  Beta virt. eigenvalues --    0.79495   0.79896   0.80076   0.80452   0.84412
  Beta virt. eigenvalues --    0.85504   0.85789   0.85933   0.88357   0.88492
  Beta virt. eigenvalues --    1.04601   1.06262   1.07341   1.07760   1.07773
  Beta virt. eigenvalues --    1.11519   1.11900   1.11942   1.12524   1.13506
  Beta virt. eigenvalues --    1.13818   1.14046   1.14261   1.14891   1.14982
  Beta virt. eigenvalues --    1.15649   1.15660   1.15965   1.16167   1.16638
  Beta virt. eigenvalues --    1.17417   1.17618   1.17755   1.18402   1.18441
  Beta virt. eigenvalues --    1.18465   1.18484   1.19307   1.19323   1.19553
  Beta virt. eigenvalues --    1.19707   1.20034   1.20415   1.20640   1.20726
  Beta virt. eigenvalues --    1.20797   1.21464   1.21894   1.22184   1.22191
  Beta virt. eigenvalues --    1.22301   1.22635   1.22865   1.22935   1.23154
  Beta virt. eigenvalues --    1.23740   1.23758   1.24239   1.24319   1.24637
  Beta virt. eigenvalues --    1.25019   1.25456   1.25489   1.25831   1.26119
  Beta virt. eigenvalues --    1.26467   1.26743   1.26966   1.31650   1.32100
  Beta virt. eigenvalues --    1.32988   1.33310   1.33441   1.33640   1.33993
  Beta virt. eigenvalues --    1.34525   1.34892   1.35169   1.35268   1.35284
  Beta virt. eigenvalues --    1.35384   1.35421   1.35667   1.35772   1.36283
  Beta virt. eigenvalues --    1.36331   1.36363   1.36571   1.36671   1.37139
  Beta virt. eigenvalues --    1.37182   1.37261   1.37412   1.37680   1.37744
  Beta virt. eigenvalues --    1.37745   1.37915   1.38250   1.38507   1.38848
  Beta virt. eigenvalues --    1.38909   1.38927   1.39105   1.39146   1.40675
  Beta virt. eigenvalues --    1.40926   1.41098   1.41115   1.41705   1.41834
  Beta virt. eigenvalues --    1.42834   1.43127   1.43161   1.43256   1.43478
  Beta virt. eigenvalues --    1.43714   1.44042   1.44226   1.44470   1.44901
  Beta virt. eigenvalues --    1.45095   1.45432   1.45583   1.46129   1.46182
  Beta virt. eigenvalues --    1.46442   1.46607   1.46659   1.47170   1.47570
  Beta virt. eigenvalues --    1.47589   1.47642   1.48260   1.48331   1.48594
  Beta virt. eigenvalues --    1.48784   1.49314   1.49380   1.49482   1.49520
  Beta virt. eigenvalues --    1.50207   1.50370   1.50829   1.51003   1.51358
  Beta virt. eigenvalues --    1.51824   1.51941   1.54771   1.55279   1.56915
  Beta virt. eigenvalues --    1.57031   1.57870   1.57960   1.58266   1.58295
  Beta virt. eigenvalues --    1.59368   1.61360   1.61815   1.62409   1.62564
  Beta virt. eigenvalues --    1.63311   1.65927   1.66347   1.66924   1.67077
  Beta virt. eigenvalues --    1.67551   1.67781   1.67804   1.68119   1.68317
  Beta virt. eigenvalues --    1.68419   1.68634   1.68885   1.69077   1.69177
  Beta virt. eigenvalues --    1.69299   1.69963   1.70134   1.70212   1.70259
  Beta virt. eigenvalues --    1.70769   1.71039   1.72040   1.72126   1.72301
  Beta virt. eigenvalues --    1.72430   1.72905   1.73228   1.73276   1.73517
  Beta virt. eigenvalues --    1.73677   1.74945   1.75369   1.75649   1.76157
  Beta virt. eigenvalues --    1.77674   1.78299   1.78498   1.79302   1.79519
  Beta virt. eigenvalues --    1.79670   1.79677   1.79982   1.80112   1.80123
  Beta virt. eigenvalues --    1.80508   1.81774   1.82200   1.82329   1.82434
  Beta virt. eigenvalues --    1.82584   1.82591   1.82884   1.82976   1.83291
  Beta virt. eigenvalues --    1.83323   1.83337   1.83391   1.83919   1.84153
  Beta virt. eigenvalues --    1.84203   1.84343   1.84350   1.84826   1.85009
  Beta virt. eigenvalues --    1.85440   1.85947   1.86758   1.87387   1.88608
  Beta virt. eigenvalues --    1.88691   1.88721   1.88733   1.89241   1.89529
  Beta virt. eigenvalues --    1.90609   1.90653   1.90737   1.91346   1.91991
  Beta virt. eigenvalues --    1.93110   1.93339   1.93383   1.93510   1.95040
  Beta virt. eigenvalues --    1.95345   1.95755   1.97714   1.97930   1.98586
  Beta virt. eigenvalues --    1.99744   2.01228   2.02132   2.02162   2.02632
  Beta virt. eigenvalues --    2.03107   2.04840   2.05956   2.07838   2.09536
  Beta virt. eigenvalues --    2.09939   2.10146   2.10493   2.12592   2.13137
  Beta virt. eigenvalues --    2.13991   2.14366   2.14469   2.16151   2.16619
  Beta virt. eigenvalues --    2.17471   2.19544   2.19689   2.20090   2.20244
  Beta virt. eigenvalues --    2.20354   2.20703   2.21322   2.21510   2.21652
  Beta virt. eigenvalues --    2.21662   2.21696   2.22039   2.22526   2.22772
  Beta virt. eigenvalues --    2.23114   2.23289   2.23482   2.23680   2.24408
  Beta virt. eigenvalues --    2.24452   2.25197   2.25245   2.25396   2.25581
  Beta virt. eigenvalues --    2.26404   2.26521   2.26563   2.26600   2.26889
  Beta virt. eigenvalues --    2.26941   2.27281   2.27479   2.27816   2.28212
  Beta virt. eigenvalues --    2.28235   2.28384   2.30733   2.33608   2.34761
  Beta virt. eigenvalues --    2.35174   2.35529   2.36386   2.36450   2.36524
  Beta virt. eigenvalues --    2.40563   2.40652   2.40669   2.41227   2.41671
  Beta virt. eigenvalues --    2.41780   2.42354   2.42677   2.43160   2.43287
  Beta virt. eigenvalues --    2.43479   2.44027   2.44810   2.45187   2.45704
  Beta virt. eigenvalues --    2.45984   2.46231   2.48134   2.48787   2.49627
[...]

              Baa    -0.0227    -3.044    -1.086    -1.015  0.4898  0.6744  0.5525
     1 C(13)  Bbb    -0.0191    -2.567    -0.916    -0.856  0.8697 -0.3330 -0.3644
              Bcc     0.0418     5.611     2.002     1.872  0.0617 -0.6590  0.7496
 
              Baa    -0.0278    -3.731    -1.331    -1.245  0.0000  0.9904  0.1384
     2 C(13)  Bbb    -0.0175    -2.348    -0.838    -0.783  1.0000 -0.0000  0.0001
              Bcc     0.0453     6.079     2.169     2.028 -0.0001 -0.1384  0.9904
 
              Baa    -0.0069    -0.929    -0.331    -0.310  0.0494  0.6767  0.7346
     3 C(13)  Bbb    -0.0034    -0.458    -0.163    -0.153  0.9764 -0.1875  0.1070
              Bcc     0.0103     1.386     0.495     0.462  0.2101  0.7120 -0.6701
 
              Baa    -0.0227    -3.045    -1.087    -1.016 -0.4898  0.6744  0.5525
     4 C(13)  Bbb    -0.0191    -2.568    -0.916    -0.856  0.8696  0.3330  0.3645
              Bcc     0.0418     5.613     2.003     1.872 -0.0618 -0.6590  0.7496
 
              Baa    -0.0378    -5.072    -1.810    -1.692  0.0000  0.9863  0.1647
     5 C(13)  Bbb    -0.0329    -4.410    -1.574    -1.471  1.0000 -0.0000  0.0000
              Bcc     0.0707     9.482     3.383     3.163 -0.0000 -0.1647  0.9863
 
              Baa    -0.0069    -0.929    -0.331    -0.310 -0.0492  0.6768  0.7345
     6 C(13)  Bbb    -0.0034    -0.458    -0.163    -0.153  0.9765  0.1872 -0.1070
              Bcc     0.0103     1.386     0.495     0.462 -0.2099  0.7120 -0.6701
 
              Baa    -0.0020    -1.091    -0.389    -0.364 -0.1084 -0.2919  0.9503
     7 H(1)   Bbb     0.0001     0.038     0.014     0.013  0.9874  0.0795  0.1370
              Bcc     0.0020     1.053     0.376     0.351 -0.1155  0.9531  0.2796
 
              Baa    -0.0026    -1.387    -0.495    -0.463  0.0713 -0.3359  0.9392
     8 H(1)   Bbb    -0.0012    -0.654    -0.233    -0.218  0.9921  0.1212 -0.0320
              Bcc     0.0038     2.041     0.728     0.681 -0.1031  0.9341  0.3419
 
              Baa    -0.0020    -1.091    -0.389    -0.364  0.1083 -0.2920  0.9503
     9 H(1)   Bbb     0.0001     0.038     0.014     0.013  0.9874 -0.0794 -0.1369
              Bcc     0.0020     1.053     0.376     0.351  0.1155  0.9531  0.2797
 
              Baa    -0.0378    -5.067    -1.808    -1.690  0.0000  0.9862 -0.1655
    10 C(13)  Bbb    -0.0328    -4.405    -1.572    -1.469  1.0000 -0.0000 -0.0000
              Bcc     0.0706     9.472     3.380     3.159  0.0000  0.1655  0.9862
 
              Baa    -0.0069    -0.930    -0.332    -0.310 -0.0482 -0.6769  0.7345
    11 C(13)  Bbb    -0.0034    -0.459    -0.164    -0.153  0.9767 -0.1858 -0.1071
              Bcc     0.0103     1.389     0.496     0.463  0.2089  0.7123  0.6701
 
              Baa    -0.0069    -0.929    -0.332    -0.310  0.0483 -0.6767  0.7347
    12 C(13)  Bbb    -0.0034    -0.459    -0.164    -0.153  0.9767  0.1859  0.1070
              Bcc     0.0103     1.388     0.495     0.463 -0.2090  0.7124  0.6699
 
              Baa    -0.0227    -3.041    -1.085    -1.014  0.4891  0.6740 -0.5536
    13 C(13)  Bbb    -0.0191    -2.563    -0.915    -0.855  0.8700 -0.3318  0.3647
              Bcc     0.0418     5.604     2.000     1.869 -0.0621  0.6600  0.7487
 
              Baa    -0.0227    -3.042    -1.085    -1.015 -0.4891  0.6741 -0.5536
    14 C(13)  Bbb    -0.0191    -2.564    -0.915    -0.855  0.8700  0.3318 -0.3647
              Bcc     0.0418     5.606     2.000     1.870  0.0622  0.6600  0.7487
 
              Baa    -0.0278    -3.733    -1.332    -1.245 -0.0001  0.9903 -0.1392
    15 C(13)  Bbb    -0.0175    -2.350    -0.838    -0.784  1.0000  0.0000 -0.0001
              Bcc     0.0453     6.083     2.170     2.029  0.0001  0.1392  0.9903
 
              Baa    -0.0020    -1.091    -0.389    -0.364  0.1085  0.2928  0.9500
    16 H(1)   Bbb     0.0001     0.038     0.014     0.013  0.9873  0.0797 -0.1373
              Bcc     0.0020     1.053     0.376     0.351 -0.1159  0.9529 -0.2804
 
              Baa    -0.0020    -1.091    -0.389    -0.364 -0.1084  0.2929  0.9500
    17 H(1)   Bbb     0.0001     0.038     0.014     0.013  0.9874 -0.0795  0.1371
              Bcc     0.0020     1.052     0.376     0.351  0.1157  0.9528 -0.2806
 
              Baa    -0.0026    -1.387    -0.495    -0.463  0.0708  0.3365  0.9390
    18 H(1)   Bbb    -0.0012    -0.652    -0.233    -0.217  0.9922 -0.1203 -0.0317
              Bcc     0.0038     2.039     0.728     0.680  0.1023  0.9340 -0.3424
 
              Baa    -0.0026    -1.387    -0.495    -0.463 -0.0706  0.3367  0.9390
    19 H(1)   Bbb    -0.0012    -0.652    -0.233    -0.218  0.9922  0.1203  0.0314
              Bcc     0.0038     2.040     0.728     0.680 -0.1024  0.9339 -0.3425
 
              Baa    -0.0026    -1.387    -0.495    -0.463 -0.0715 -0.3358  0.9392
    20 H(1)   Bbb    -0.0012    -0.653    -0.233    -0.218  0.9921 -0.1212  0.0323
              Bcc     0.0038     2.041     0.728     0.681  0.1030  0.9341  0.3418
 
              Baa    -0.2423    -9.346    -3.335    -3.118 -0.0007  0.9468  0.3219
    21 N(14)  Bbb    -0.2413    -9.306    -3.320    -3.104  1.0000  0.0007  0.0002
              Bcc     0.4836    18.652     6.655     6.222  0.0001 -0.3219  0.9468
 
              Baa    -0.0133    -1.778    -0.634    -0.593  0.6906  0.6864 -0.2279
    22 C(13)  Bbb     0.0032     0.432     0.154     0.144  0.5582 -0.3055  0.7714
              Bcc     0.0100     1.346     0.480     0.449 -0.4599  0.6599  0.5941
 
              Baa    -0.0266    -3.571    -1.274    -1.191  0.1044  0.5748  0.8116
    23 C(13)  Bbb    -0.0233    -3.127    -1.116    -1.043 -0.6390  0.6641 -0.3881
              Bcc     0.0499     6.699     2.390     2.234  0.7620  0.4781 -0.4367
 
              Baa    -0.0279    -3.743    -1.336    -1.249  0.7270 -0.5250  0.4425
    24 C(13)  Bbb    -0.0248    -3.330    -1.188    -1.111 -0.1208  0.5365  0.8352
              Bcc     0.0527     7.073     2.524     2.359  0.6759  0.6607 -0.3266
 
              Baa    -0.0166    -2.228    -0.795    -0.743 -0.5110 -0.5950  0.6204
    25 C(13)  Bbb     0.0072     0.965     0.344     0.322  0.6943  0.1398  0.7059
              Bcc     0.0094     1.263     0.451     0.421 -0.5068  0.7915  0.3417
 
              Baa    -0.0182    -2.445    -0.873    -0.816 -0.5554 -0.5318  0.6392
    26 C(13)  Bbb     0.0078     1.053     0.376     0.351  0.6338  0.2269  0.7395
              Bcc     0.0104     1.392     0.497     0.464 -0.5384  0.8159  0.2110
 
              Baa    -0.0317    -4.257    -1.519    -1.420  0.6819  0.2044  0.7023
    27 C(13)  Bbb    -0.0286    -3.844    -1.372    -1.282 -0.5251  0.8053  0.2755
              Bcc     0.0604     8.101     2.891     2.702 -0.5092 -0.5566  0.6565
 
              Baa    -0.0021    -1.135    -0.405    -0.379  0.2999  0.7955 -0.5266
    28 H(1)   Bbb    -0.0011    -0.575    -0.205    -0.192  0.7444 -0.5404 -0.3923
              Bcc     0.0032     1.711     0.610     0.571  0.5966  0.2743  0.7542
 
              Baa    -0.0022    -1.199    -0.428    -0.400 -0.5986 -0.5077  0.6196
    29 H(1)   Bbb    -0.0008    -0.421    -0.150    -0.140 -0.2699  0.8561  0.4407
              Bcc     0.0030     1.620     0.578     0.540  0.7542 -0.0966  0.6495
 
              Baa    -0.0011    -0.606    -0.216    -0.202  0.5799  0.5861 -0.5658
    30 H(1)   Bbb     0.0003     0.167     0.060     0.056  0.6680  0.0554  0.7421
              Bcc     0.0008     0.438     0.156     0.146 -0.4663  0.8083  0.3594
 
              Baa    -0.0012    -0.633    -0.226    -0.211  0.5801  0.6058 -0.5445
    31 H(1)   Bbb     0.0001     0.061     0.022     0.020  0.5167  0.2431  0.8209
              Bcc     0.0011     0.572     0.204     0.191 -0.6297  0.7575  0.1720
 
              Baa    -0.0041    -2.172    -0.775    -0.725  0.6746  0.1579  0.7211
    32 H(1)   Bbb    -0.0005    -0.241    -0.086    -0.081 -0.5381 -0.5636  0.6267
              Bcc     0.0045     2.414     0.861     0.805 -0.5054  0.8108  0.2952
 
              Baa    -0.0132    -1.777    -0.634    -0.593  0.6911 -0.6861  0.2271
    33 C(13)  Bbb     0.0032     0.432     0.154     0.144 -0.5575 -0.3062  0.7716
              Bcc     0.0100     1.345     0.480     0.449  0.4599  0.6599  0.5942
 
              Baa    -0.0266    -3.568    -1.273    -1.190 -0.1043  0.5743  0.8119
    34 C(13)  Bbb    -0.0233    -3.124    -1.115    -1.042  0.6383  0.6647 -0.3883
              Bcc     0.0499     6.692     2.388     2.232  0.7627 -0.4778  0.4359
 
              Baa    -0.0279    -3.741    -1.335    -1.248  0.7265  0.5252 -0.4431
    35 C(13)  Bbb    -0.0248    -3.327    -1.187    -1.110  0.1216  0.5363  0.8352
              Bcc     0.0527     7.067     2.522     2.357  0.6763 -0.6607  0.3257
 
              Baa    -0.0166    -2.226    -0.794    -0.743  0.5115 -0.5950  0.6199
    36 C(13)  Bbb     0.0072     0.964     0.344     0.322 -0.6936  0.1400  0.7067
              Bcc     0.0094     1.262     0.450     0.421  0.5073  0.7914  0.3411
 
              Baa    -0.0182    -2.443    -0.872    -0.815  0.5561 -0.5318  0.6387
    37 C(13)  Bbb     0.0078     1.052     0.375     0.351 -0.6338  0.2259  0.7398
              Bcc     0.0104     1.391     0.496     0.464  0.5377  0.8162  0.2114
 
              Baa    -0.0317    -4.252    -1.517    -1.418 -0.6816  0.2040  0.7028
    38 C(13)  Bbb    -0.0286    -3.840    -1.370    -1.281  0.5249  0.8054  0.2753
              Bcc     0.0603     8.092     2.888     2.699  0.5098 -0.5565  0.6560
 
              Baa    -0.0021    -1.135    -0.405    -0.379 -0.3014  0.7949 -0.5266
    39 H(1)   Bbb    -0.0011    -0.574    -0.205    -0.192  0.7437  0.5416  0.3918
              Bcc     0.0032     1.709     0.610     0.570 -0.5967  0.2736  0.7544
 
              Baa    -0.0022    -1.198    -0.428    -0.400  0.5988 -0.5081  0.6191
    40 H(1)   Bbb    -0.0008    -0.420    -0.150    -0.140  0.2707  0.8559  0.4406
              Bcc     0.0030     1.618     0.577     0.540  0.7537  0.0963 -0.6501
 
              Baa    -0.0011    -0.605    -0.216    -0.202 -0.5805  0.5861 -0.5652
    41 H(1)   Bbb     0.0003     0.167     0.060     0.056 -0.6670  0.0558  0.7430
              Bcc     0.0008     0.438     0.156     0.146  0.4670  0.8083  0.3585
 
              Baa    -0.0012    -0.632    -0.226    -0.211 -0.5807  0.6058 -0.5439
    42 H(1)   Bbb     0.0001     0.061     0.022     0.020 -0.5167  0.2420  0.8212
              Bcc     0.0011     0.572     0.204     0.191  0.6291  0.7579  0.1725
 
              Baa    -0.0041    -2.170    -0.774    -0.724 -0.6741  0.1575  0.7217
    43 H(1)   Bbb    -0.0005    -0.241    -0.086    -0.081  0.5387 -0.5636  0.6262
              Bcc     0.0045     2.411     0.860     0.804  0.5053  0.8109  0.2951
 
              Baa    -0.2423    -9.346    -3.335    -3.117 -0.0003  0.9468 -0.3219
    44 N(14)  Bbb    -0.2413    -9.305    -3.320    -3.104  1.0000  0.0003 -0.0001
              Bcc     0.4836    18.651     6.655     6.221 -0.0001  0.3219  0.9468
 
              Baa    -0.0132    -1.778    -0.634    -0.593  0.6911  0.6861  0.2273
    45 C(13)  Bbb     0.0032     0.433     0.154     0.144 -0.5575  0.3059  0.7718
              Bcc     0.0100     1.345     0.480     0.449 -0.4600  0.6601 -0.5939
 
              Baa    -0.0266    -3.568    -1.273    -1.190 -0.1042 -0.5744  0.8119
    46 C(13)  Bbb    -0.0233    -3.124    -1.115    -1.042 -0.6384  0.6646  0.3883
              Bcc     0.0499     6.691     2.388     2.232  0.7626  0.4779  0.4360
 
              Baa    -0.0279    -3.740    -1.335    -1.248  0.7267 -0.5250 -0.4431
    47 C(13)  Bbb    -0.0248    -3.326    -1.187    -1.109  0.1218 -0.5363  0.8352
              Bcc     0.0527     7.066     2.521     2.357  0.6761  0.6609  0.3258
 
              Baa    -0.0166    -2.226    -0.794    -0.742  0.5113  0.5952  0.6199
    48 C(13)  Bbb     0.0072     0.964     0.344     0.322 -0.6935 -0.1403  0.7067
              Bcc     0.0094     1.261     0.450     0.421 -0.5076  0.7912 -0.3410
 
              Baa    -0.0182    -2.443    -0.872    -0.815  0.5559  0.5319  0.6388
    49 C(13)  Bbb     0.0078     1.052     0.375     0.351 -0.6337 -0.2261  0.7398
              Bcc     0.0104     1.391     0.496     0.464 -0.5379  0.8161 -0.2114
 
              Baa    -0.0317    -4.252    -1.517    -1.418 -0.6815 -0.2042  0.7027
    50 C(13)  Bbb    -0.0286    -3.839    -1.370    -1.281 -0.5251  0.8052 -0.2753
              Bcc     0.0603     8.091     2.887     2.699  0.5097  0.5567  0.6560
 
              Baa    -0.0021    -1.135    -0.405    -0.379  0.3010  0.7950  0.5267
    51 H(1)   Bbb    -0.0011    -0.574    -0.205    -0.191  0.7438 -0.5414  0.3921
              Bcc     0.0032     1.709     0.610     0.570 -0.5968 -0.2737  0.7542
 
              Baa    -0.0022    -1.198    -0.428    -0.400  0.5987  0.5084  0.6190
    52 H(1)   Bbb    -0.0008    -0.420    -0.150    -0.140 -0.2710  0.8558 -0.4408
              Bcc     0.0030     1.618     0.577     0.540  0.7538 -0.0961 -0.6500
 
              Baa    -0.0011    -0.605    -0.216    -0.202  0.5803  0.5863  0.5652
    53 H(1)   Bbb     0.0003     0.167     0.060     0.056 -0.6669 -0.0562  0.7430
              Bcc     0.0008     0.438     0.156     0.146 -0.4674  0.8081 -0.3584
 
              Baa    -0.0012    -0.632    -0.226    -0.211  0.5805  0.6059  0.5439
    54 H(1)   Bbb     0.0001     0.061     0.022     0.020 -0.5167 -0.2422  0.8212
              Bcc     0.0011     0.572     0.204     0.191 -0.6293  0.7578 -0.1725
 
              Baa    -0.0041    -2.170    -0.774    -0.724 -0.6741 -0.1576  0.7216
    55 H(1)   Bbb    -0.0005    -0.241    -0.086    -0.080  0.5385  0.5638  0.6262
              Bcc     0.0045     2.411     0.860     0.804 -0.5055  0.8108 -0.2952
 
              Baa    -0.0132    -1.778    -0.634    -0.593  0.6912 -0.6861 -0.2269
    56 C(13)  Bbb     0.0032     0.433     0.154     0.144  0.5574  0.3063  0.7717
              Bcc     0.0100     1.345     0.480     0.449  0.4600  0.6598 -0.5942
 
              Baa    -0.0266    -3.567    -1.273    -1.190  0.1042 -0.5742  0.8121
    57 C(13)  Bbb    -0.0233    -3.122    -1.114    -1.042  0.6381  0.6649  0.3883
              Bcc     0.0498     6.689     2.387     2.231  0.7628 -0.4778 -0.4357
 
              Baa    -0.0279    -3.739    -1.334    -1.247  0.7264  0.5252  0.4432
    58 C(13)  Bbb    -0.0248    -3.325    -1.186    -1.109 -0.1221 -0.5361  0.8353
              Bcc     0.0526     7.064     2.520     2.356  0.6763 -0.6609 -0.3253
 
              Baa    -0.0166    -2.225    -0.794    -0.742 -0.5115  0.5953  0.6197
    59 C(13)  Bbb     0.0072     0.964     0.344     0.321  0.6932 -0.1402  0.7070
              Bcc     0.0094     1.261     0.450     0.421  0.5077  0.7912 -0.3409
 
              Baa    -0.0182    -2.442    -0.871    -0.815 -0.5562  0.5319  0.6385
    60 C(13)  Bbb     0.0078     1.051     0.375     0.351  0.6337 -0.2256  0.7399
              Bcc     0.0104     1.391     0.496     0.464  0.5376  0.8162 -0.2117
 
              Baa    -0.0317    -4.250    -1.516    -1.418  0.6814 -0.2039  0.7029
    61 C(13)  Bbb    -0.0286    -3.838    -1.369    -1.280  0.5251  0.8053 -0.2754
              Bcc     0.0603     8.087     2.886     2.698 -0.5099  0.5567  0.6558
 
              Baa    -0.0021    -1.135    -0.405    -0.379 -0.3015  0.7949  0.5266
    62 H(1)   Bbb    -0.0011    -0.574    -0.205    -0.191  0.7435  0.5417 -0.3920
              Bcc     0.0032     1.709     0.610     0.570  0.5969 -0.2733  0.7543
 
              Baa    -0.0022    -1.198    -0.428    -0.400 -0.5988  0.5086  0.6187
    63 H(1)   Bbb    -0.0008    -0.419    -0.149    -0.140  0.2712  0.8556 -0.4409
              Bcc     0.0030     1.617     0.577     0.539  0.7536  0.0962  0.6503
 
              Baa    -0.0011    -0.605    -0.216    -0.202 -0.5805  0.5864  0.5649
    64 H(1)   Bbb     0.0003     0.167     0.060     0.056  0.6665 -0.0564  0.7434
              Bcc     0.0008     0.438     0.156     0.146  0.4677  0.8081 -0.3581
 
              Baa    -0.0012    -0.632    -0.226    -0.211 -0.5807  0.6060  0.5437
    65 H(1)   Bbb     0.0001     0.061     0.022     0.020  0.5167 -0.2417  0.8213
              Bcc     0.0011     0.571     0.204     0.191  0.6291  0.7579 -0.1727
 
              Baa    -0.0041    -2.169    -0.774    -0.723  0.6739 -0.1574  0.7218
    66 H(1)   Bbb    -0.0005    -0.241    -0.086    -0.080 -0.5388  0.5638  0.6260
              Bcc     0.0045     2.410     0.860     0.804  0.5055  0.8108 -0.2952
 

 ---------------------------------------------------------------------------------

 No NMR shielding tensors so no spin-rotation constants.
 Leave Link  601 at Mon Jan 18 00:33:54 2021, MaxMem=  4026531840 cpu:               9.2 elap:               1.2
 (Enter /opt/ohpc/pub/libs/gaussian/g16-A.03/sandybridge/g16/l9999.exe)

 Test job not archived.
 1\1\GINC-CASCADEB019\SP\ULC-wHPBE\TZVP\C36H28N2(1+,2)\RDU230\18-Jan-20
 21\0\\#P LC-wHPBE/TZVP iop(3/107=0126900000, 3/108=0126900000) scf=(co
 nver=6,fermi,ndamp=35,noincfock,novaracc,vshift=500,xqc)\\H28 C36 N2\\
 1,2\C,0,2.849999,-1.125861,0.415638\C,0,3.563139,-0.000026,-0.000017\C
 ,0,1.464492,-1.123667,0.405534\C,0,2.850033,1.125752,-0.415809\C,0,0.7
 41288,-0.000047,-0.000195\C,0,1.464504,1.123547,-0.405879\H,0,0.931596
 ,-2.005844,0.756198\H,0,3.391048,2.006254,-0.75499\H,0,0.931669,2.0057
 28,-0.756629\C,0,-0.741437,-0.000073,-0.000217\C,0,-1.464635,1.123165,
 0.406556\C,0,-1.464638,-1.123302,-0.406976\C,0,-2.850149,1.125343,0.41
 661\C,0,-2.850163,-1.125491,-0.416935\C,0,-3.563257,-0.000095,-0.00011
 6\H,0,-0.931751,2.005025,0.758038\H,0,-0.931783,-2.00514,-0.758553\H,0
 ,-3.391193,2.005527,0.756576\H,0,-3.391211,-2.005669,-0.756913\H,0,3.3
 91005,-2.006357,0.754845\N,0,-4.97843,-0.000102,-0.000065\C,0,-5.68709
 9,-1.154578,0.414287\C,0,-6.831881,-1.566674,-0.27115\C,0,-5.251323,-1
 .896933,1.513908\C,0,-7.528311,-2.692826,0.143324\C,0,-5.943392,-3.032
 223,1.91044\C,0,-7.087522,-3.435368,1.232277\H,0,-7.173684,-0.995181,-
 1.131117\H,0,-4.363437,-1.577947,2.055099\H,0,-8.419174,-2.999763,-0.4
 0155\H,0,-5.58986,-3.599797,2.769285\H,0,-7.631852,-4.321852,1.550225\
 C,0,-5.687025,1.154532,-0.414292\C,0,-6.831191,1.567225,0.271802\C,0,-
 5.251707,1.896381,-1.514415\C,0,-7.527485,2.693516,-0.142525\C,0,-5.94
 362,3.031828,-1.910808\C,0,-7.087137,3.435581,-1.231989\H,0,-7.172616,
 0.996083,1.132151\H,0,-4.364291,1.57691,-2.056093\H,0,-8.417875,3.0009
 45,0.402845\H,0,-5.590451,3.599029,-2.77005\H,0,-7.63135,4.322181,-1.5
 49815\N,0,4.978266,0.00002,0.000103\C,0,5.68699,1.154558,0.414335\C,0,
 6.831289,1.56698,-0.271699\C,0,5.251761,1.896543,1.51441\C,0,7.527834,
 2.693112,0.142653\C,0,5.943923,3.031822,1.910819\C,0,7.08759,3.435293,
 1.232069\H,0,7.172649,0.995729,-1.132\H,0,4.364233,1.577285,2.056034\H
 ,0,8.418333,3.000297,-0.402674\H,0,5.59085,3.599137,2.770027\H,0,7.631
 979,4.321768,1.549941\C,0,5.687017,-1.154516,-0.414141\C,0,6.831068,-1
 .567191,0.272109\C,0,5.251977,-1.896199,-1.514492\C,0,7.527566,-2.6933
 48,-0.142281\C,0,5.944079,-3.031486,-1.910953\C,0,7.087509,-3.435246,-
 1.231958\H,0,7.172277,-0.996155,1.132614\H,0,4.364636,-1.576682,-2.056
 275\H,0,8.417864,-3.000787,0.403227\H,0,5.591165,-3.598572,-2.770374\H
 ,0,7.631874,-4.32173,-1.549857\\Version=EM64L-G16RevA.03\State=2-A\HF=
 -1496.8696965\S2=0.763224\S2-1=0.\S2A=0.750104\RMSD=9.632e-07\Dipole=0
 .0000079,0.0000948,-0.0000384\Quadrupole=74.1269053,-24.4587179,-49.66
 81874,-0.0044212,-0.0004376,0.002347\PG=C01 [X(C36H28N2)]\\@


 MODELS ARE TO BE USED, NOT BELIEVED.

    -- PARAPHRASED BY H. THIEL IN "PRINCIPLES OF ECONOMETRICS"
 Job cpu time:       0 days  3 hours 39 minutes 36.2 seconds.
 Elapsed time:       0 days  0 hours 27 minutes 46.8 seconds.
 File lengths (MBytes):  RWF=    428 Int=      0 D2E=      0 Chk=     60 Scr=      8
 Normal termination of Gaussian 16 at Mon Jan 18 00:33:55 2021.
