 Entering Gaussian System, Link 0=g16
 Input=mol_bp_pa_whol_tune_c11.gjf
 Output=mol_bp_pa_whol_tune_c11.log
 Initial command:
 /opt/ohpc/pub/libs/gaussian/g16-A.03/sandybridge/g16/l1.exe "/mnt/gpfs2_4m/scratch/rdu230/ondemand/projects/init_structures/wtuning/mol_bp_pa_whol/tuning_mol_bp_pa_whol_ocycle0/Gau-155813.inp" -scrdir="/mnt/gpfs2_4m/scratch/rdu230/ondemand/projects/init_structures/wtuning/mol_bp_pa_whol/tuning_mol_bp_pa_whol_ocycle0/"
 Entering Link 1 = /opt/ohpc/pub/libs/gaussian/g16-A.03/sandybridge/g16/l1.exe PID=    155814.
  
 Copyright (c) 1988,1990,1992,1993,1995,1998,2003,2009,2016,
            Gaussian, Inc.  All Rights Reserved.
  
 This is part of the Gaussian(R) 16 program.  It is based on
 the Gaussian(R) 09 system (copyright 2009, Gaussian, Inc.),
 the Gaussian(R) 03 system (copyright 2003, Gaussian, Inc.),
 the Gaussian(R) 98 system (copyright 1998, Gaussian, Inc.),
 the Gaussian(R) 94 system (copyright 1995, Gaussian, Inc.),
 the Gaussian 92(TM) system (copyright 1992, Gaussian, Inc.),
 the Gaussian 90(TM) system (copyright 1990, Gaussian, Inc.),
 the Gaussian 88(TM) system (copyright 1988, Gaussian, Inc.),
 the Gaussian 86(TM) system (copyright 1986, Carnegie Mellon
 University), and the Gaussian 82(TM) system (copyright 1983,
 Carnegie Mellon University). Gaussian is a federally registered
 trademark of Gaussian, Inc.
  
 This software contains proprietary and confidential information,
 including trade secrets, belonging to Gaussian, Inc.
  
 This software is provided under written license and may be
 used, copied, transmitted, or stored only in accord with that
 written license.
  
 The following legend is applicable only to US Government
 contracts under FAR:
  
                    RESTRICTED RIGHTS LEGEND
  
 Use, reproduction and disclosure by the US Government is
 subject to restrictions as set forth in subparagraphs (a)
 and (c) of the Commercial Computer Software - Restricted
 Rights clause in FAR 52.227-19.
  
 Gaussian, Inc.
 340 Quinnipiac St., Bldg. 40, Wallingford CT 06492
  
  
 ---------------------------------------------------------------
 Warning -- This program may not be used in any manner that
 competes with the business of Gaussian, Inc. or will provide
 assistance to any competitor of Gaussian, Inc.  The licensee
 of this program is prohibited from giving any competitor of
 Gaussian, Inc. access to this program.  By using this program,
 the user acknowledges that Gaussian, Inc. is engaged in the
 business of creating and licensing software in the field of
 computational chemistry and represents and warrants to the
 licensee that it is not a competitor of Gaussian, Inc. and that
 it will not use this program in any manner prohibited above.
 ---------------------------------------------------------------
  

 Cite this work as:
 Gaussian 16, Revision A.03,
 M. J. Frisch, G. W. Trucks, H. B. Schlegel, G. E. Scuseria, 
 M. A. Robb, J. R. Cheeseman, G. Scalmani, V. Barone, 
 G. A. Petersson, H. Nakatsuji, X. Li, M. Caricato, A. V. Marenich, 
 J. Bloino, B. G. Janesko, R. Gomperts, B. Mennucci, H. P. Hratchian, 
 J. V. Ortiz, A. F. Izmaylov, J. L. Sonnenberg, D. Williams-Young, 
 F. Ding, F. Lipparini, F. Egidi, J. Goings, B. Peng, A. Petrone, 
 T. Henderson, D. Ranasinghe, V. G. Zakrzewski, J. Gao, N. Rega, 
 G. Zheng, W. Liang, M. Hada, M. Ehara, K. Toyota, R. Fukuda, 
 J. Hasegawa, M. Ishida, T. Nakajima, Y. Honda, O. Kitao, H. Nakai, 
 T. Vreven, K. Throssell, J. A. Montgomery, Jr., J. E. Peralta, 
 F. Ogliaro, M. J. Bearpark, J. J. Heyd, E. N. Brothers, K. N. Kudin, 
 V. N. Staroverov, T. A. Keith, R. Kobayashi, J. Normand, 
 K. Raghavachari, A. P. Rendell, J. C. Burant, S. S. Iyengar, 
 J. Tomasi, M. Cossi, J. M. Millam, M. Klene, C. Adamo, R. Cammi, 
 J. W. Ochterski, R. L. Martin, K. Morokuma, O. Farkas, 
 J. B. Foresman, and D. J. Fox, Gaussian, Inc., Wallingford CT, 2016.
 
 ******************************************
 Gaussian 16:  EM64L-G16RevA.03 25-Dec-2016
                18-Jan-2021 
 ******************************************
 %mem=30GB
 %nproc=8
 Will use up to    8 processors via shared memory.
 ----------------------------------------------------------------------
 #P LC-wHPBE/TZVP iop(3/107=0177400000, 3/108=0177400000) scf=(conver=6
 ,fermi,ndamp=35,noincfock,novaracc,vshift=500,xqc)
 ----------------------------------------------------------------------
 1/38=1,172=1/1;
 2/12=2,17=6,18=5,40=1/2;
 3/5=19,7=101,11=2,25=1,30=1,74=-71,107=177400000,108=177400000/1,2,3;
 4//1;
 5/5=100002,6=6,8=3,10=500,13=1,18=-1,22=13,38=1,93=35/2,8;
 6/7=2,8=2,9=2,10=2,28=1/1;
 99/5=1,9=1/99;
 Leave Link    1 at Mon Jan 18 06:07:31 2021, MaxMem=  4026531840 cpu:               1.1 elap:               0.2
 (Enter /opt/ohpc/pub/libs/gaussian/g16-A.03/sandybridge/g16/l101.exe)
 ----------
 H28 C36 N2
 ----------
 Symbolic Z-matrix:
 Charge =  1 Multiplicity = 2
 C                     2.85     -1.12586   0.41564 
 C                     3.56314  -0.00003  -0.00002 
 C                     1.46449  -1.12367   0.40553 
 C                     2.85003   1.12575  -0.41581 
 C                     0.74129  -0.00005  -0.0002 
 C                     1.4645    1.12355  -0.40588 
 H                     0.9316   -2.00584   0.7562 
 H                     3.39105   2.00625  -0.75499 
 H                     0.93167   2.00573  -0.75663 
 C                    -0.74144  -0.00007  -0.00022 
 C                    -1.46464   1.12316   0.40656 
 C                    -1.46464  -1.1233   -0.40698 
 C                    -2.85015   1.12534   0.41661 
 C                    -2.85016  -1.12549  -0.41694 
 C                    -3.56326  -0.0001   -0.00012 
 H                    -0.93175   2.00502   0.75804 
 H                    -0.93178  -2.00514  -0.75855 
 H                    -3.39119   2.00553   0.75658 
 H                    -3.39121  -2.00567  -0.75691 
 H                     3.39101  -2.00636   0.75485 
 N                    -4.97843  -0.0001   -0.00007 
 C                    -5.6871   -1.15458   0.41429 
 C                    -6.83188  -1.56667  -0.27115 
 C                    -5.25132  -1.89693   1.51391 
 C                    -7.52831  -2.69283   0.14332 
 C                    -5.94339  -3.03222   1.91044 
 C                    -7.08752  -3.43537   1.23228 
 H                    -7.17368  -0.99518  -1.13112 
 H                    -4.36344  -1.57795   2.0551 
 H                    -8.41917  -2.99976  -0.40155 
 H                    -5.58986  -3.5998    2.76929 
 H                    -7.63185  -4.32185   1.55023 
 C                    -5.68703   1.15453  -0.41429 
 C                    -6.83119   1.56723   0.2718 
 C                    -5.25171   1.89638  -1.51442 
 C                    -7.52749   2.69352  -0.14253 
 C                    -5.94362   3.03183  -1.91081 
 C                    -7.08714   3.43558  -1.23199 
 H                    -7.17262   0.99608   1.13215 
 H                    -4.36429   1.57691  -2.05609 
 H                    -8.41788   3.00095   0.40285 
 H                    -5.59045   3.59903  -2.77005 
 H                    -7.63135   4.32218  -1.54982 
 N                     4.97827   0.00002   0.0001 
 C                     5.68699   1.15456   0.41434 
 C                     6.83129   1.56698  -0.2717 
 C                     5.25176   1.89654   1.51441 
 C                     7.52783   2.69311   0.14265 
 C                     5.94392   3.03182   1.91082 
 C                     7.08759   3.43529   1.23207 
 H                     7.17265   0.99573  -1.132 
 H                     4.36423   1.57729   2.05603 
 H                     8.41833   3.0003   -0.40267 
 H                     5.59085   3.59914   2.77003 
 H                     7.63198   4.32177   1.54994 
 C                     5.68702  -1.15452  -0.41414 
 C                     6.83107  -1.56719   0.27211 
 C                     5.25198  -1.8962   -1.51449 
 C                     7.52757  -2.69335  -0.14228 
 C                     5.94408  -3.03149  -1.91095 
 C                     7.08751  -3.43525  -1.23196 
 H                     7.17228  -0.99616   1.13261 
 H                     4.36464  -1.57668  -2.05627 
 H                     8.41786  -3.00079   0.40323 
 H                     5.59117  -3.59857  -2.77037 
 H                     7.63187  -4.32173  -1.54986 
 
 ITRead=  0  0  0  0  0  0  0  0  0  0  0  0  0  0  0  0  0  0  0  0
 ITRead=  0  0  0  0  0  0  0  0  0  0  0  0  0  0  0  0  0  0  0  0
 ITRead=  0  0  0  0  0  0  0  0  0  0  0  0  0  0  0  0  0  0  0  0
 ITRead=  0  0  0  0  0  0
 MicOpt= -1 -1 -1 -1 -1 -1 -1 -1 -1 -1 -1 -1 -1 -1 -1 -1 -1 -1 -1 -1
 MicOpt= -1 -1 -1 -1 -1 -1 -1 -1 -1 -1 -1 -1 -1 -1 -1 -1 -1 -1 -1 -1
 MicOpt= -1 -1 -1 -1 -1 -1 -1 -1 -1 -1 -1 -1 -1 -1 -1 -1 -1 -1 -1 -1
 MicOpt= -1 -1 -1 -1 -1 -1
 NAtoms=     66 NQM=       66 NQMF=       0 NMMI=      0 NMMIF=      0
                NMic=       0 NMicF=      0.
                    Isotopes and Nuclear Properties:
 (Nuclear quadrupole moments (NQMom) in fm**2, nuclear magnetic moments (NMagM)
  in nuclear magnetons)

  Atom         1           2           3           4           5           6           7           8           9          10
 IAtWgt=          12          12          12          12          12          12           1           1           1          12
 AtmWgt=  12.0000000  12.0000000  12.0000000  12.0000000  12.0000000  12.0000000   1.0078250   1.0078250   1.0078250  12.0000000
 NucSpn=           0           0           0           0           0           0           1           1           1           0
 AtZEff=  -0.0000000  -0.0000000  -0.0000000  -0.0000000  -0.0000000  -0.0000000  -0.0000000  -0.0000000  -0.0000000  -0.0000000
 NQMom=    0.0000000   0.0000000   0.0000000   0.0000000   0.0000000   0.0000000   0.0000000   0.0000000   0.0000000   0.0000000
 NMagM=    0.0000000   0.0000000   0.0000000   0.0000000   0.0000000   0.0000000   2.7928460   2.7928460   2.7928460   0.0000000
 AtZNuc=   6.0000000   6.0000000   6.0000000   6.0000000   6.0000000   6.0000000   1.0000000   1.0000000   1.0000000   6.0000000

  Atom        11          12          13          14          15          16          17          18          19          20
 IAtWgt=          12          12          12          12          12           1           1           1           1           1
 AtmWgt=  12.0000000  12.0000000  12.0000000  12.0000000  12.0000000   1.0078250   1.0078250   1.0078250   1.0078250   1.0078250
 NucSpn=           0           0           0           0           0           1           1           1           1           1
 AtZEff=  -0.0000000  -0.0000000  -0.0000000  -0.0000000  -0.0000000  -0.0000000  -0.0000000  -0.0000000  -0.0000000  -0.0000000
 NQMom=    0.0000000   0.0000000   0.0000000   0.0000000   0.0000000   0.0000000   0.0000000   0.0000000   0.0000000   0.0000000
 NMagM=    0.0000000   0.0000000   0.0000000   0.0000000   0.0000000   2.7928460   2.7928460   2.7928460   2.7928460   2.7928460
 AtZNuc=   6.0000000   6.0000000   6.0000000   6.0000000   6.0000000   1.0000000   1.0000000   1.0000000   1.0000000   1.0000000

  Atom        21          22          23          24          25          26          27          28          29          30
 IAtWgt=          14          12          12          12          12          12          12           1           1           1
 AtmWgt=  14.0030740  12.0000000  12.0000000  12.0000000  12.0000000  12.0000000  12.0000000   1.0078250   1.0078250   1.0078250
 NucSpn=           2           0           0           0           0           0           0           1           1           1
 AtZEff=  -0.0000000  -0.0000000  -0.0000000  -0.0000000  -0.0000000  -0.0000000  -0.0000000  -0.0000000  -0.0000000  -0.0000000
 NQMom=    2.0440000   0.0000000   0.0000000   0.0000000   0.0000000   0.0000000   0.0000000   0.0000000   0.0000000   0.0000000
 NMagM=    0.4037610   0.0000000   0.0000000   0.0000000   0.0000000   0.0000000   0.0000000   2.7928460   2.7928460   2.7928460
 AtZNuc=   7.0000000   6.0000000   6.0000000   6.0000000   6.0000000   6.0000000   6.0000000   1.0000000   1.0000000   1.0000000

  Atom        31          32          33          34          35          36          37          38          39          40
 IAtWgt=           1           1          12          12          12          12          12          12           1           1
 AtmWgt=   1.0078250   1.0078250  12.0000000  12.0000000  12.0000000  12.0000000  12.0000000  12.0000000   1.0078250   1.0078250
 NucSpn=           1           1           0           0           0           0           0           0           1           1
 AtZEff=  -0.0000000  -0.0000000  -0.0000000  -0.0000000  -0.0000000  -0.0000000  -0.0000000  -0.0000000  -0.0000000  -0.0000000
 NQMom=    0.0000000   0.0000000   0.0000000   0.0000000   0.0000000   0.0000000   0.0000000   0.0000000   0.0000000   0.0000000
 NMagM=    2.7928460   2.7928460   0.0000000   0.0000000   0.0000000   0.0000000   0.0000000   0.0000000   2.7928460   2.7928460
 AtZNuc=   1.0000000   1.0000000   6.0000000   6.0000000   6.0000000   6.0000000   6.0000000   6.0000000   1.0000000   1.0000000

  Atom        41          42          43          44          45          46          47          48          49          50
 IAtWgt=           1           1           1          14          12          12          12          12          12          12
 AtmWgt=   1.0078250   1.0078250   1.0078250  14.0030740  12.0000000  12.0000000  12.0000000  12.0000000  12.0000000  12.0000000
 NucSpn=           1           1           1           2           0           0           0           0           0           0
 AtZEff=  -0.0000000  -0.0000000  -0.0000000  -0.0000000  -0.0000000  -0.0000000  -0.0000000  -0.0000000  -0.0000000  -0.0000000
 NQMom=    0.0000000   0.0000000   0.0000000   2.0440000   0.0000000   0.0000000   0.0000000   0.0000000   0.0000000   0.0000000
 NMagM=    2.7928460   2.7928460   2.7928460   0.4037610   0.0000000   0.0000000   0.0000000   0.0000000   0.0000000   0.0000000
 AtZNuc=   1.0000000   1.0000000   1.0000000   7.0000000   6.0000000   6.0000000   6.0000000   6.0000000   6.0000000   6.0000000

  Atom        51          52          53          54          55          56          57          58          59          60
 IAtWgt=           1           1           1           1           1          12          12          12          12          12
 AtmWgt=   1.0078250   1.0078250   1.0078250   1.0078250   1.0078250  12.0000000  12.0000000  12.0000000  12.0000000  12.0000000
 NucSpn=           1           1           1           1           1           0           0           0           0           0
 AtZEff=  -0.0000000  -0.0000000  -0.0000000  -0.0000000  -0.0000000  -0.0000000  -0.0000000  -0.0000000  -0.0000000  -0.0000000
 NQMom=    0.0000000   0.0000000   0.0000000   0.0000000   0.0000000   0.0000000   0.0000000   0.0000000   0.0000000   0.0000000
 NMagM=    2.7928460   2.7928460   2.7928460   2.7928460   2.7928460   0.0000000   0.0000000   0.0000000   0.0000000   0.0000000
 AtZNuc=   1.0000000   1.0000000   1.0000000   1.0000000   1.0000000   6.0000000   6.0000000   6.0000000   6.0000000   6.0000000

  Atom        61          62          63          64          65          66
 IAtWgt=          12           1           1           1           1           1
 AtmWgt=  12.0000000   1.0078250   1.0078250   1.0078250   1.0078250   1.0078250
 NucSpn=           0           1           1           1           1           1
 AtZEff=  -0.0000000  -0.0000000  -0.0000000  -0.0000000  -0.0000000  -0.0000000
 NQMom=    0.0000000   0.0000000   0.0000000   0.0000000   0.0000000   0.0000000
 NMagM=    0.0000000   2.7928460   2.7928460   2.7928460   2.7928460   2.7928460
 AtZNuc=   6.0000000   1.0000000   1.0000000   1.0000000   1.0000000   1.0000000
 Leave Link  101 at Mon Jan 18 06:07:31 2021, MaxMem=  4026531840 cpu:               0.6 elap:               0.1
 (Enter /opt/ohpc/pub/libs/gaussian/g16-A.03/sandybridge/g16/l202.exe)
 Stoichiometry    C36H28N2(1+,2)
 Framework group  C1[X(C36H28N2)]
 Deg. of freedom   192
 Full point group                 C1      NOp   1
 Largest Abelian subgroup         C1      NOp   1
 Largest concise Abelian subgroup C1      NOp   1
                         Standard orientation:                         
 ---------------------------------------------------------------------
 Center     Atomic      Atomic             Coordinates (Angstroms)
 Number     Number       Type             X           Y           Z
 ---------------------------------------------------------------------
      1          6           0       -2.849999   -1.125861   -0.415638
      2          6           0       -3.563139   -0.000026    0.000017
      3          6           0       -1.464492   -1.123667   -0.405534
      4          6           0       -2.850033    1.125752    0.415809
      5          6           0       -0.741288   -0.000047    0.000195
      6          6           0       -1.464504    1.123547    0.405879
      7          1           0       -0.931596   -2.005844   -0.756198
      8          1           0       -3.391048    2.006254    0.754990
      9          1           0       -0.931669    2.005728    0.756629
     10          6           0        0.741437   -0.000073    0.000217
     11          6           0        1.464635    1.123165   -0.406556
     12          6           0        1.464638   -1.123302    0.406976
     13          6           0        2.850149    1.125343   -0.416610
     14          6           0        2.850163   -1.125491    0.416935
     15          6           0        3.563257   -0.000095    0.000116
     16          1           0        0.931751    2.005025   -0.758038
     17          1           0        0.931783   -2.005140    0.758553
     18          1           0        3.391193    2.005527   -0.756576
     19          1           0        3.391211   -2.005669    0.756913
     20          1           0       -3.391005   -2.006357   -0.754845
     21          7           0        4.978430   -0.000102    0.000065
     22          6           0        5.687099   -1.154578   -0.414287
     23          6           0        6.831881   -1.566674    0.271150
     24          6           0        5.251323   -1.896933   -1.513908
     25          6           0        7.528311   -2.692826   -0.143324
     26          6           0        5.943392   -3.032223   -1.910440
     27          6           0        7.087522   -3.435368   -1.232277
     28          1           0        7.173684   -0.995181    1.131117
     29          1           0        4.363437   -1.577947   -2.055099
     30          1           0        8.419174   -2.999763    0.401550
     31          1           0        5.589860   -3.599797   -2.769285
     32          1           0        7.631852   -4.321852   -1.550225
     33          6           0        5.687025    1.154532    0.414292
     34          6           0        6.831191    1.567225   -0.271802
     35          6           0        5.251707    1.896381    1.514415
     36          6           0        7.527485    2.693516    0.142525
     37          6           0        5.943620    3.031828    1.910808
     38          6           0        7.087137    3.435581    1.231989
     39          1           0        7.172616    0.996083   -1.132151
     40          1           0        4.364291    1.576910    2.056093
     41          1           0        8.417875    3.000945   -0.402845
     42          1           0        5.590451    3.599029    2.770050
     43          1           0        7.631350    4.322181    1.549815
     44          7           0       -4.978266    0.000020   -0.000103
     45          6           0       -5.686990    1.154558   -0.414335
     46          6           0       -6.831289    1.566980    0.271699
     47          6           0       -5.251761    1.896543   -1.514410
     48          6           0       -7.527834    2.693112   -0.142653
     49          6           0       -5.943923    3.031822   -1.910819
     50          6           0       -7.087590    3.435293   -1.232069
     51          1           0       -7.172649    0.995729    1.132000
     52          1           0       -4.364233    1.577285   -2.056034
     53          1           0       -8.418333    3.000297    0.402674
     54          1           0       -5.590850    3.599137   -2.770027
     55          1           0       -7.631979    4.321768   -1.549941
     56          6           0       -5.687017   -1.154516    0.414141
     57          6           0       -6.831068   -1.567191   -0.272109
     58          6           0       -5.251977   -1.896199    1.514492
     59          6           0       -7.527566   -2.693348    0.142281
     60          6           0       -5.944079   -3.031486    1.910953
     61          6           0       -7.087509   -3.435246    1.231958
     62          1           0       -7.172277   -0.996155   -1.132614
     63          1           0       -4.364636   -1.576682    2.056275
     64          1           0       -8.417864   -3.000787   -0.403227
     65          1           0       -5.591165   -3.598572    2.770374
     66          1           0       -7.631874   -4.321730    1.549857
 ---------------------------------------------------------------------
 Rotational constants (GHZ):           0.2023709           0.0339547           0.0306836
 Leave Link  202 at Mon Jan 18 06:07:31 2021, MaxMem=  4026531840 cpu:               0.1 elap:               0.0
 (Enter /opt/ohpc/pub/libs/gaussian/g16-A.03/sandybridge/g16/l301.exe)
 Standard basis: TZVP (5D, 7F)
 Ernie: Thresh=  0.10000D-02 Tol=  0.10000D-05 Strict=F.
 There are   928 symmetry adapted cartesian basis functions of A   symmetry.
 There are   890 symmetry adapted basis functions of A   symmetry.
   890 basis functions,  1554 primitive gaussians,   928 cartesian basis functions
   129 alpha electrons      128 beta electrons
       nuclear repulsion energy      3528.7655398436 Hartrees.
 IExCor=33909 DFT=T Ex+Corr=LC-wHPBE ExCW=0 ScaHFX=  1.000000
 ScaDFX=  1.000000  1.000000  1.000000  1.000000 ScalE2=  1.000000  1.000000
 IRadAn=      5 IRanWt=     -1 IRanGd=            0 ICorTp=0 IEmpDi=  4
 HFx  wShort=  0.000000 wLong=  0.177400 cFull=  0.000000 cShort=  0.000000 cLong=  1.000000
 DFx  wShort=  0.000000 wLong=  0.177400 cFull=  0.000000 cShort=  1.000000 cLong=  0.000000
 NAtoms=   66 NActive=   66 NUniq=   66 SFac= 1.00D+00 NAtFMM=   60 NAOKFM=T Big=T
 Integral buffers will be    131072 words long.
 Raffenetti 2 integral format.
 Two-electron integral symmetry is turned on.
 Leave Link  301 at Mon Jan 18 06:07:31 2021, MaxMem=  4026531840 cpu:               0.4 elap:               0.1
 (Enter /opt/ohpc/pub/libs/gaussian/g16-A.03/sandybridge/g16/l302.exe)
 NPDir=0 NMtPBC=     1 NCelOv=     1 NCel=       1 NClECP=     1 NCelD=      1
         NCelK=      1 NCelE2=     1 NClLst=     1 CellRange=     0.0.
 One-electron integrals computed using PRISM.
 One-electron integral symmetry used in STVInt
 NBasis=   890 RedAO= T EigKep=  6.71D-06  NBF=   890
 NBsUse=   890 1.00D-06 EigRej= -1.00D+00 NBFU=   890
 Precomputing XC quadrature grid using
 IXCGrd= 4 IRadAn=           5 IRanWt=          -1 IRanGd=           0 AccXCQ= 0.00D+00.
 Generated NRdTot=       0 NPtTot=           0 NUsed=           0 NTot=          32
 NSgBfM=   852   844   846   852   852 MxSgAt=    66 MxSgA2=    66.
 Leave Link  302 at Mon Jan 18 06:07:33 2021, MaxMem=  4026531840 cpu:              17.2 elap:               2.3
 (Enter /opt/ohpc/pub/libs/gaussian/g16-A.03/sandybridge/g16/l303.exe)
 DipDrv:  MaxL=1.
 Leave Link  303 at Mon Jan 18 06:07:34 2021, MaxMem=  4026531840 cpu:               1.1 elap:               0.2
 (Enter /opt/ohpc/pub/libs/gaussian/g16-A.03/sandybridge/g16/l401.exe)
 ExpMin= 9.52D-02 ExpMax= 1.97D+04 ExpMxC= 6.73D+02 IAcc=3 IRadAn=         5 AccDes= 0.00D+00
 Harris functional with IExCor=33909 and IRadAn=       5 diagonalized for initial guess.
 HarFok:  IExCor=33909 AccDes= 0.00D+00 IRadAn=         5 IDoV= 1 UseB2=F ITyADJ=14
 ICtDFT=  3500011 ScaDFX=  1.000000  1.000000  1.000000  1.000000
 FoFCou: FMM=F IPFlag=           0 FMFlag=      100000 FMFlg1=        2001
         NFxFlg=           0 DoJE=T BraDBF=F KetDBF=T FulRan=T
         wScrn=  0.000000 ICntrl=       500 IOpCl=  0 I1Cent=   200000004 NGrid=           0
         NMat0=    1 NMatS0=      1 NMatT0=    0 NMatD0=    1 NMtDS0=    0 NMtDT0=    0
 Petite list used in FoFCou.
 Harris En= -1472.63190474992    
 JPrj=0 DoOrth=F DoCkMO=F.
 Initial guess <Sx>= 0.0000 <Sy>= 0.0000 <Sz>= 0.5000 <S**2>= 0.7500 S= 0.5000
 Leave Link  401 at Mon Jan 18 06:07:44 2021, MaxMem=  4026531840 cpu:              80.2 elap:              10.1
 (Enter /opt/ohpc/pub/libs/gaussian/g16-A.03/sandybridge/g16/l502.exe)
 Integral symmetry usage will be decided dynamically.
 UHF open shell SCF:
 Using DIIS extrapolation, IDIIS=    10.
 NGot=  4026531840 LenX=  4024793050 LenY=  4023930938
 Requested convergence on RMS density matrix=1.00D-06 within  32 cycles.
 Requested convergence on MAX density matrix=1.00D-04.
 Requested convergence on             energy=1.00D-04.
 Virtual orbitals will be shifted by   0.500 hartree.
 No special actions if energy rises.
 Dynamic level shift is on during FON iterations.

 Cycle   1  Pass 1  IDiag  1:
 FoFJK:  IHMeth= 1 ICntrl=       0 DoSepK=T KAlg= 0 I1Cent=           0 FoldK=F
 IRaf=         1 NMat=       1 IRICut=       1 DoRegI=T DoRafI=F ISym2E= 0 IDoP0=0 IntGTp=1.
 FoFCou: FMM=T IPFlag=           0 FMFlag=      100000 FMFlg1=        2001
         NFxFlg=           0 DoJE=T BraDBF=F KetDBF=F FulRan=T
         wScrn=  0.000000 ICntrl=       500 IOpCl=  0 I1Cent=           0 NGrid=           0
         NMat0=    1 NMatS0=      1 NMatT0=    0 NMatD0=    1 NMtDS0=    0 NMtDT0=    0
 Symmetry not used in FoFCou.
 FMM levels:  10  Number of levels for PrismC:   9
 E= -1496.33759083023    
 DIIS: error= 3.10D-02 at cycle   1 NSaved=   1.
 NSaved= 1 IEnMin= 1 EnMin= -1496.33759083023     IErMin= 1 ErrMin= 3.10D-02
 ErrMax= 3.10D-02  0.00D+00 EMaxC= 1.00D+00 BMatC= 2.50D+00 BMatP= 2.50D+00
 IDIUse=1 WtCom= 1.00D+00 WtEn= 0.00D+00
 Coeff-Com:  0.100D+01
 Coeff:      0.100D+01
 Gap=     0.282 Goal=   None    Shift=    0.500
 T= 1515. Gap= 0.721 NK=0 IS=  130 IE=  890 IFin=  129
          NO(<0.9)=   0  NV(>0.1)=   0    129.00e < EF      0.00e >EF  Err=0.0D+00
 Gap=     0.080 Goal=   None    Shift=    0.500
 T= 1515. Gap= 0.532 NK=0 IS=  129 IE=  890 IFin=  128
          NO(<0.9)=   0  NV(>0.1)=   0    128.00e < EF      0.00e >EF  Err=0.0D+00
 GapD=    0.080 DampG=0.500 DampE=0.500 DampFc=0.2500 IDamp=-1.
 Damping current iteration by 2.50D-01
 RMSDP=2.03D-03 MaxDP=7.68D-02              OVMax= 9.93D-02

 Cycle   2  Pass 1  IDiag  1:
 E= -1496.56421583890     Delta-E=       -0.226625008672 Rises=F Damp=T
 DIIS: error= 2.25D-02 at cycle   2 NSaved=   2.
 NSaved= 2 IEnMin= 2 EnMin= -1496.56421583890     IErMin= 2 ErrMin= 2.25D-02
 ErrMax= 2.25D-02  0.00D+00 EMaxC= 1.00D+00 BMatC= 1.17D+00 BMatP= 2.50D+00
 IDIUse=1 WtCom= 1.00D+00 WtEn= 0.00D+00
 Coeff-Com: -0.194D+01 0.294D+01
 Coeff:     -0.194D+01 0.294D+01
 Gap=     0.269 Goal=   None    Shift=    0.500
 T= 1458. Gap= 0.733 NK=0 IS=  130 IE=  890 IFin=  129
          NO(<0.9)=   0  NV(>0.1)=   0    129.00e < EF      0.00e >EF  Err=0.0D+00
 Gap=     0.115 Goal=   None    Shift=    0.500
 T= 1458. Gap= 0.574 NK=0 IS=  129 IE=  890 IFin=  128
          NO(<0.9)=   0  NV(>0.1)=   0    128.00e < EF      0.00e >EF  Err=0.0D+00
 GapD=    0.115 DampG=1.000 DampE=0.500 DampFc=0.5000 IDamp=-1.
 Damping current iteration by 5.00D-01
 RMSDP=1.51D-03 MaxDP=7.73D-02 DE=-2.27D-01 OVMax= 3.24D-02

 Cycle   3  Pass 1  IDiag  1:
 E= -1496.80009478878     Delta-E=       -0.235878949881 Rises=F Damp=T
 DIIS: error= 1.04D-02 at cycle   3 NSaved=   3.
 NSaved= 3 IEnMin= 3 EnMin= -1496.80009478878     IErMin= 3 ErrMin= 1.04D-02
 ErrMax= 1.04D-02  0.00D+00 EMaxC= 1.00D+00 BMatC= 2.30D-01 BMatP= 1.17D+00
 IDIUse=1 WtCom= 1.00D+00 WtEn= 0.00D+00
 Coeff-Com:  0.340D-01-0.830D+00 0.180D+01
 Coeff:      0.340D-01-0.830D+00 0.180D+01
 Gap=     0.249 Goal=   None    Shift=    0.500
 T= 1291. Gap= 0.746 NK=4 IS=  130 IE=  145 IFin=  129
          NO(<0.9)=   0  NV(>0.1)=   0    129.00e < EF      0.00e >EF  Err=0.0D+00
 Gap=     0.079 Goal=   None    Shift=    0.500
 T= 1291. Gap= 0.577 NK=4 IS=  129 IE=  143 IFin=  128
          NO(<0.9)=   0  NV(>0.1)=   0    128.00e < EF      0.00e >EF  Err=0.0D+00
 GapD=    0.079 DampG=0.500 DampE=0.500 DampFc=0.2500 IDamp=-1.
 Damping current iteration by 2.50D-01
 RMSDP=7.77D-04 MaxDP=4.59D-02 DE=-2.36D-01 OVMax= 1.10D-02

 Cycle   4  Pass 1  IDiag  1:
 E= -1496.84644515495     Delta-E=       -0.046350366167 Rises=F Damp=T
 DIIS: error= 7.71D-03 at cycle   4 NSaved=   4.
 NSaved= 4 IEnMin= 4 EnMin= -1496.84644515495     IErMin= 4 ErrMin= 7.71D-03
 ErrMax= 7.71D-03  0.00D+00 EMaxC= 1.00D+00 BMatC= 1.22D-01 BMatP= 2.30D-01
 IDIUse=1 WtCom= 1.00D+00 WtEn= 0.00D+00
 Coeff-Com:  0.197D+00-0.314D+00-0.272D+01 0.383D+01
 Coeff:      0.197D+00-0.314D+00-0.272D+01 0.383D+01
 Gap=     0.245 Goal=   None    Shift=    0.500
 T= 1020. Gap= 0.745 NK=4 IS=  130 IE=  146 IFin=  129
          NO(<0.9)=   0  NV(>0.1)=   0    129.00e < EF      0.00e >EF  Err=0.0D+00
 Gap=     0.078 Goal=   None    Shift=    0.500
 T= 1020. Gap= 0.578 NK=4 IS=  129 IE=  143 IFin=  128
          NO(<0.9)=   0  NV(>0.1)=   0    128.00e < EF      0.00e >EF  Err=0.0D+00
 GapD=    0.078 DampG=0.500 DampE=1.000 DampFc=0.5000 IDamp=-1.
 Damping current iteration by 5.00D-01
 RMSDP=5.79D-04 MaxDP=3.86D-02 DE=-4.64D-02 OVMax= 8.71D-03

 Cycle   5  Pass 1  IDiag  1:
 E= -1496.90898535965     Delta-E=       -0.062540204695 Rises=F Damp=T
 DIIS: error= 3.80D-03 at cycle   5 NSaved=   5.
 NSaved= 5 IEnMin= 5 EnMin= -1496.90898535965     IErMin= 5 ErrMin= 3.80D-03
 ErrMax= 3.80D-03  0.00D+00 EMaxC= 1.00D+00 BMatC= 2.86D-02 BMatP= 1.22D-01
 IDIUse=1 WtCom= 1.00D+00 WtEn= 0.00D+00
 Coeff-Com:  0.581D-01-0.377D-01 0.344D+00-0.177D+01 0.241D+01
 Coeff:      0.581D-01-0.377D-01 0.344D+00-0.177D+01 0.241D+01
 Gap=     0.246 Goal=   None    Shift=    0.500
 T=  649. Gap= 0.746 NK=4 IS=  130 IE=  146 IFin=  129
          NO(<0.9)=   0  NV(>0.1)=   0    129.00e < EF      0.00e >EF  Err=0.0D+00
 Gap=     0.079 Goal=   None    Shift=    0.500
 T=  649. Gap= 0.579 NK=4 IS=  129 IE=  143 IFin=  128
          NO(<0.9)=   0  NV(>0.1)=   0    128.00e < EF      0.00e >EF  Err=0.0D+00
 GapD=    0.079 DampG=0.500 DampE=1.000 DampFc=0.5000 IDamp=-1.
 Damping current iteration by 5.00D-01
 RMSDP=3.00D-04 MaxDP=2.15D-02 DE=-6.25D-02 OVMax= 7.32D-03

 Cycle   6  Pass 1  IDiag  1:
 E= -1496.93779833618     Delta-E=       -0.028812976530 Rises=F Damp=T
 DIIS: error= 1.89D-03 at cycle   6 NSaved=   6.
 NSaved= 6 IEnMin= 6 EnMin= -1496.93779833618     IErMin= 6 ErrMin= 1.89D-03
 ErrMax= 1.89D-03  0.00D+00 EMaxC= 1.00D+00 BMatC= 7.09D-03 BMatP= 2.86D-02
 IDIUse=1 WtCom= 1.00D+00 WtEn= 0.00D+00
 Coeff-Com: -0.345D-01 0.622D-01 0.756D+00-0.101D+01-0.146D+01 0.269D+01
 Coeff:     -0.345D-01 0.622D-01 0.756D+00-0.101D+01-0.146D+01 0.269D+01
 Gap=     0.247 Goal=   None    Shift=    0.500
 T=  353. Gap= 0.747 NK=4 IS=  130 IE=  146 IFin=  129
          NO(<0.9)=   0  NV(>0.1)=   0    129.00e < EF      0.00e >EF  Err=0.0D+00
 Gap=     0.080 Goal=   None    Shift=    0.500
 T=  353. Gap= 0.580 NK=4 IS=  129 IE=  143 IFin=  128
          NO(<0.9)=   0  NV(>0.1)=   0    128.00e < EF      0.00e >EF  Err=0.0D+00
 GapD=    0.080 DampG=0.500 DampE=1.000 DampFc=0.5000 IDamp=-1.
 Damping current iteration by 5.00D-01
 RMSDP=1.71D-04 MaxDP=1.20D-02 DE=-2.88D-02 OVMax= 6.63D-03

 Cycle   7  Pass 1  IDiag  1:
 E= -1496.95177618830     Delta-E=       -0.013977852118 Rises=F Damp=T
 DIIS: error= 1.17D-03 at cycle   7 NSaved=   7.
 NSaved= 7 IEnMin= 7 EnMin= -1496.95177618830     IErMin= 7 ErrMin= 1.17D-03
 ErrMax= 1.17D-03  0.00D+00 EMaxC= 1.00D+00 BMatC= 1.86D-03 BMatP= 7.09D-03
 IDIUse=1 WtCom= 1.00D+00 WtEn= 0.00D+00
 Coeff-Com: -0.213D-01 0.211D-01-0.140D+00 0.603D+00-0.973D-01-0.345D+01
 Coeff-Com:  0.409D+01
 Coeff:     -0.213D-01 0.211D-01-0.140D+00 0.603D+00-0.973D-01-0.345D+01
 Coeff:      0.409D+01
 Gap=     0.247 Goal=   None    Shift=    0.500
 Gap=     0.080 Goal=   None    Shift=    0.500
 GapD=    0.080 DampG=0.500 DampE=1.000 DampFc=0.5000 IDamp=-1.
 Damping current iteration by 5.00D-01
 RMSDP=1.09D-04 MaxDP=6.70D-03 DE=-1.40D-02 OVMax= 6.44D-03

 Cycle   8  Pass 1  IDiag  1:
 E= -1496.95872030317     Delta-E=       -0.006944114871 Rises=F Damp=T
 DIIS: error= 9.71D-04 at cycle   8 NSaved=   8.
 NSaved= 8 IEnMin= 8 EnMin= -1496.95872030317     IErMin= 8 ErrMin= 9.71D-04
 ErrMax= 9.71D-04  0.00D+00 EMaxC= 1.00D+00 BMatC= 5.26D-04 BMatP= 1.86D-03
 IDIUse=1 WtCom= 1.00D+00 WtEn= 0.00D+00
 Coeff-Com:  0.637D-02-0.824D-02-0.362D+00 0.507D+00 0.790D+00-0.135D+01
 Coeff-Com: -0.269D+01 0.411D+01
 Coeff:      0.637D-02-0.824D-02-0.362D+00 0.507D+00 0.790D+00-0.135D+01
 Coeff:     -0.269D+01 0.411D+01
 Gap=     0.248 Goal=   None    Shift=    0.500
 Gap=     0.081 Goal=   None    Shift=    0.500
 RMSDP=7.21D-05 MaxDP=4.12D-03 DE=-6.94D-03 OVMax= 5.66D-03

 Cycle   9  Pass 1  IDiag  1:
 E= -1496.96573241232     Delta-E=       -0.007012109156 Rises=F Damp=F
 DIIS: error= 6.46D-04 at cycle   9 NSaved=   9.
 NSaved= 9 IEnMin= 9 EnMin= -1496.96573241232     IErMin= 9 ErrMin= 6.46D-04
 ErrMax= 6.46D-04  0.00D+00 EMaxC= 1.00D+00 BMatC= 3.25D-05 BMatP= 5.26D-04
 IDIUse=1 WtCom= 1.00D+00 WtEn= 0.00D+00
 Coeff-Com:  0.112D-01-0.676D-02-0.166D+00-0.285D-01 0.729D+00 0.783D+00
 Coeff-Com: -0.321D+01 0.115D+01 0.173D+01
 Coeff:      0.112D-01-0.676D-02-0.166D+00-0.285D-01 0.729D+00 0.783D+00
 Coeff:     -0.321D+01 0.115D+01 0.173D+01
 Gap=     0.248 Goal=   None    Shift=    0.500
 Gap=     0.082 Goal=   None    Shift=    0.500
 RMSDP=1.79D-05 MaxDP=1.57D-03 DE=-7.01D-03 OVMax= 5.11D-03

 Cycle  10  Pass 1  IDiag  1:
 E= -1496.96579139444     Delta-E=       -0.000058982117 Rises=F Damp=F
 DIIS: error= 5.07D-04 at cycle  10 NSaved=  10.
 NSaved=10 IEnMin=10 EnMin= -1496.96579139444     IErMin=10 ErrMin= 5.07D-04
 ErrMax= 5.07D-04  0.00D+00 EMaxC= 1.00D+00 BMatC= 2.03D-05 BMatP= 3.25D-05
 IDIUse=1 WtCom= 1.00D+00 WtEn= 0.00D+00
 Coeff-Com: -0.505D-02 0.132D-01 0.114D+00-0.291D+00-0.595D-01 0.865D+00
 Coeff-Com:  0.684D+00-0.242D+01-0.320D+00 0.242D+01
 Coeff:     -0.505D-02 0.132D-01 0.114D+00-0.291D+00-0.595D-01 0.865D+00
 Coeff:      0.684D+00-0.242D+01-0.320D+00 0.242D+01
 Gap=     0.248 Goal=   None    Shift=    0.500
 Gap=     0.082 Goal=   None    Shift=    0.500
 RMSDP=1.43D-05 MaxDP=1.14D-03 DE=-5.90D-05 OVMax= 4.48D-03

 Cycle  11  Pass 1  IDiag  1:
 E= -1496.96583118161     Delta-E=       -0.000039787174 Rises=F Damp=F
 DIIS: error= 4.05D-04 at cycle  11 NSaved=  11.
 NSaved=11 IEnMin=11 EnMin= -1496.96583118161     IErMin=11 ErrMin= 4.05D-04
 ErrMax= 4.05D-04  0.00D+00 EMaxC= 1.00D+00 BMatC= 1.32D-05 BMatP= 2.03D-05
 IDIUse=1 WtCom= 1.00D+00 WtEn= 0.00D+00
 Coeff-Com: -0.980D-02 0.135D-01 0.125D+00-0.116D+00-0.401D+00 0.281D-01
 Coeff-Com:  0.236D+01-0.247D+01-0.954D+00 0.451D+00 0.198D+01
 Coeff:     -0.980D-02 0.135D-01 0.125D+00-0.116D+00-0.401D+00 0.281D-01
 Coeff:      0.236D+01-0.247D+01-0.954D+00 0.451D+00 0.198D+01
 Gap=     0.248 Goal=   None    Shift=    0.500
 Gap=     0.083 Goal=   None    Shift=    0.500
 RMSDP=1.10D-05 MaxDP=8.84D-04 DE=-3.98D-05 OVMax= 3.93D-03

 Cycle  12  Pass 1  IDiag  1:
 E= -1496.96585734394     Delta-E=       -0.000026162330 Rises=F Damp=F
 DIIS: error= 3.46D-04 at cycle  12 NSaved=  12.
 NSaved=12 IEnMin=12 EnMin= -1496.96585734394     IErMin=12 ErrMin= 3.46D-04
 ErrMax= 3.46D-04  0.00D+00 EMaxC= 1.00D+00 BMatC= 8.45D-06 BMatP= 1.32D-05
 IDIUse=1 WtCom= 1.00D+00 WtEn= 0.00D+00
 Coeff-Com: -0.133D-02-0.226D-02-0.211D-01 0.158D+00-0.225D+00-0.509D+00
 Coeff-Com:  0.969D+00-0.151D-01-0.141D+00-0.165D+01-0.326D+00 0.277D+01
 Coeff:     -0.133D-02-0.226D-02-0.211D-01 0.158D+00-0.225D+00-0.509D+00
 Coeff:      0.969D+00-0.151D-01-0.141D+00-0.165D+01-0.326D+00 0.277D+01
 Gap=     0.247 Goal=   None    Shift=    0.500
 Gap=     0.083 Goal=   None    Shift=    0.500
 RMSDP=9.72D-06 MaxDP=8.05D-04 DE=-2.62D-05 OVMax= 3.59D-03

 Cycle  13  Pass 1  IDiag  1:
 E= -1496.96587512456     Delta-E=       -0.000017780620 Rises=F Damp=F
 DIIS: error= 2.95D-04 at cycle  13 NSaved=  13.
 NSaved=13 IEnMin=13 EnMin= -1496.96587512456     IErMin=13 ErrMin= 2.95D-04
 ErrMax= 2.95D-04  0.00D+00 EMaxC= 1.00D+00 BMatC= 5.91D-06 BMatP= 8.45D-06
 IDIUse=1 WtCom= 1.00D+00 WtEn= 0.00D+00
 Coeff-Com:  0.357D-02-0.516D-02-0.624D-01 0.107D+00 0.413D-01-0.641D-01
 Coeff-Com: -0.597D+00 0.776D+00 0.597D+00-0.747D+00-0.196D+01 0.766D+00
 Coeff-Com:  0.215D+01
 Coeff:      0.357D-02-0.516D-02-0.624D-01 0.107D+00 0.413D-01-0.641D-01
 Coeff:     -0.597D+00 0.776D+00 0.597D+00-0.747D+00-0.196D+01 0.766D+00
 Coeff:      0.215D+01
 Gap=     0.247 Goal=   None    Shift=    0.500
 Gap=     0.083 Goal=   None    Shift=    0.500
 RMSDP=7.14D-06 MaxDP=5.80D-04 DE=-1.78D-05 OVMax= 2.99D-03

 Cycle  14  Pass 1  IDiag  1:
 E= -1496.96588628119     Delta-E=       -0.000011156629 Rises=F Damp=F
 DIIS: error= 2.51D-04 at cycle  14 NSaved=  14.
 NSaved=14 IEnMin=14 EnMin= -1496.96588628119     IErMin=14 ErrMin= 2.51D-04
 ErrMax= 2.51D-04  0.00D+00 EMaxC= 1.00D+00 BMatC= 4.02D-06 BMatP= 5.91D-06
 IDIUse=1 WtCom= 1.00D+00 WtEn= 0.00D+00
 Coeff-Com:  0.354D-02-0.205D-02-0.343D-01-0.200D-01 0.151D+00 0.330D+00
 Coeff-Com: -0.962D+00 0.342D+00 0.707D+00 0.637D+00-0.190D+01-0.761D+00
 Coeff-Com:  0.289D+00 0.222D+01
 Coeff:      0.354D-02-0.205D-02-0.343D-01-0.200D-01 0.151D+00 0.330D+00
 Coeff:     -0.962D+00 0.342D+00 0.707D+00 0.637D+00-0.190D+01-0.761D+00
 Coeff:      0.289D+00 0.222D+01
 Gap=     0.247 Goal=   None    Shift=    0.500
 Gap=     0.083 Goal=   None    Shift=    0.500
 RMSDP=5.53D-06 MaxDP=4.42D-04 DE=-1.12D-05 OVMax= 2.53D-03

 Cycle  15  Pass 1  IDiag  1:
 E= -1496.96589353669     Delta-E=       -0.000007255497 Rises=F Damp=F
 DIIS: error= 2.11D-04 at cycle  15 NSaved=  15.
 NSaved=15 IEnMin=15 EnMin= -1496.96589353669     IErMin=15 ErrMin= 2.11D-04
 ErrMax= 2.11D-04  0.00D+00 EMaxC= 1.00D+00 BMatC= 2.90D-06 BMatP= 4.02D-06
 IDIUse=1 WtCom= 1.00D+00 WtEn= 0.00D+00
 Coeff-Com: -0.308D-02 0.423D-02 0.484D-01-0.663D-01-0.103D+00 0.358D-01
 Coeff-Com:  0.971D+00-0.125D+01-0.210D+00 0.722D+00 0.728D+00 0.339D+00
 Coeff-Com: -0.334D+01-0.126D+00 0.325D+01
 Coeff:     -0.308D-02 0.423D-02 0.484D-01-0.663D-01-0.103D+00 0.358D-01
 Coeff:      0.971D+00-0.125D+01-0.210D+00 0.722D+00 0.728D+00 0.339D+00
 Coeff:     -0.334D+01-0.126D+00 0.325D+01
 Gap=     0.247 Goal=   None    Shift=    0.500
 Gap=     0.084 Goal=   None    Shift=    0.500
 RMSDP=4.56D-06 MaxDP=3.83D-04 DE=-7.26D-06 OVMax= 2.23D-03

 Cycle  16  Pass 1  IDiag  1:
 E= -1496.96589870006     Delta-E=       -0.000005163371 Rises=F Damp=F
 DIIS: error= 1.76D-04 at cycle  16 NSaved=  16.
 NSaved=16 IEnMin=16 EnMin= -1496.96589870006     IErMin=16 ErrMin= 1.76D-04
 ErrMax= 1.76D-04  0.00D+00 EMaxC= 1.00D+00 BMatC= 2.01D-06 BMatP= 2.90D-06
 IDIUse=1 WtCom= 1.00D+00 WtEn= 0.00D+00
 Coeff-Com: -0.268D-02 0.339D-02 0.151D-01 0.116D-01-0.114D+00-0.144D+00
 Coeff-Com:  0.919D+00-0.854D+00-0.115D+00-0.501D-01 0.526D+00 0.100D+01
 Coeff-Com: -0.177D+01-0.534D+00-0.352D+00 0.246D+01
 Coeff:     -0.268D-02 0.339D-02 0.151D-01 0.116D-01-0.114D+00-0.144D+00
 Coeff:      0.919D+00-0.854D+00-0.115D+00-0.501D-01 0.526D+00 0.100D+01
 Coeff:     -0.177D+01-0.534D+00-0.352D+00 0.246D+01
 Gap=     0.247 Goal=   None    Shift=    0.500
 Gap=     0.084 Goal=   None    Shift=    0.500
 RMSDP=3.42D-06 MaxDP=2.64D-04 DE=-5.16D-06 OVMax= 1.80D-03

 Cycle  17  Pass 1  IDiag  1:
 E= -1496.96590209345     Delta-E=       -0.000003393387 Rises=F Damp=F
 DIIS: error= 1.47D-04 at cycle  17 NSaved=  17.
 NSaved=17 IEnMin=17 EnMin= -1496.96590209345     IErMin=17 ErrMin= 1.47D-04
 ErrMax= 1.47D-04  0.00D+00 EMaxC= 1.00D+00 BMatC= 1.36D-06 BMatP= 2.01D-06
 IDIUse=1 WtCom= 1.00D+00 WtEn= 0.00D+00
 Coeff-Com:  0.322D-03 0.220D-03-0.271D-01 0.516D-01-0.920D-02-0.660D-01
 Coeff-Com: -0.335D-01 0.135D+00 0.244D+00-0.468D+00-0.507D+00 0.592D+00
 Coeff-Com:  0.805D+00 0.358D-01-0.254D+01 0.646D+00 0.214D+01
 Coeff:      0.322D-03 0.220D-03-0.271D-01 0.516D-01-0.920D-02-0.660D-01
 Coeff:     -0.335D-01 0.135D+00 0.244D+00-0.468D+00-0.507D+00 0.592D+00
 Coeff:      0.805D+00 0.358D-01-0.254D+01 0.646D+00 0.214D+01
 Gap=     0.247 Goal=   None    Shift=    0.500
 Gap=     0.084 Goal=   None    Shift=    0.500
 RMSDP=2.70D-06 MaxDP=1.93D-04 DE=-3.39D-06 OVMax= 1.52D-03

 Cycle  18  Pass 1  IDiag  1:
 E= -1496.96590442424     Delta-E=       -0.000002330791 Rises=F Damp=F
 DIIS: error= 1.20D-04 at cycle  18 NSaved=  18.
 NSaved=18 IEnMin=18 EnMin= -1496.96590442424     IErMin=18 ErrMin= 1.20D-04
 ErrMax= 1.20D-04  0.00D+00 EMaxC= 1.00D+00 BMatC= 8.93D-07 BMatP= 1.36D-06
 IDIUse=1 WtCom= 1.00D+00 WtEn= 0.00D+00
 Coeff-Com:  0.153D-02-0.117D-02-0.149D-01-0.248D-02 0.568D-01 0.144D+00
 Coeff-Com: -0.534D+00 0.360D+00 0.281D+00 0.395D-01-0.803D+00-0.279D+00
 Coeff-Com:  0.968D+00 0.549D+00-0.253D+00-0.190D+01-0.523D+00 0.291D+01
 Coeff:      0.153D-02-0.117D-02-0.149D-01-0.248D-02 0.568D-01 0.144D+00
 Coeff:     -0.534D+00 0.360D+00 0.281D+00 0.395D-01-0.803D+00-0.279D+00
 Coeff:      0.968D+00 0.549D+00-0.253D+00-0.190D+01-0.523D+00 0.291D+01
 Gap=     0.247 Goal=   None    Shift=    0.500
 Gap=     0.084 Goal=   None    Shift=    0.500
 RMSDP=2.43D-06 MaxDP=1.84D-04 DE=-2.33D-06 OVMax= 1.32D-03

 Cycle  19  Pass 1  IDiag  1:
 E= -1496.96590603863     Delta-E=       -0.000001614397 Rises=F Damp=F
 DIIS: error= 9.91D-05 at cycle  19 NSaved=  19.
 NSaved=19 IEnMin=19 EnMin= -1496.96590603863     IErMin=19 ErrMin= 9.91D-05
 ErrMax= 9.91D-05  0.00D+00 EMaxC= 1.00D+00 BMatC= 6.68D-07 BMatP= 8.93D-07
 IDIUse=1 WtCom= 1.00D+00 WtEn= 0.00D+00
 Coeff-Com:  0.772D-03-0.389D-03 0.581D-02-0.373D-01 0.362D-01 0.180D+00
 Coeff-Com: -0.263D+00-0.407D-01 0.139D+00 0.479D+00-0.500D+00-0.417D+00
 Coeff-Com: -0.199D+00 0.568D+00 0.175D+01-0.196D+01-0.238D+01 0.199D+01
 Coeff-Com:  0.166D+01
 Coeff:      0.772D-03-0.389D-03 0.581D-02-0.373D-01 0.362D-01 0.180D+00
 Coeff:     -0.263D+00-0.407D-01 0.139D+00 0.479D+00-0.500D+00-0.417D+00
 Coeff:     -0.199D+00 0.568D+00 0.175D+01-0.196D+01-0.238D+01 0.199D+01
 Coeff:      0.166D+01
 Gap=     0.247 Goal=   None    Shift=    0.500
 Gap=     0.084 Goal=   None    Shift=    0.500
 RMSDP=1.94D-06 MaxDP=1.41D-04 DE=-1.61D-06 OVMax= 1.10D-03

 Cycle  20  Pass 1  IDiag  1:
 E= -1496.96590710688     Delta-E=       -0.000001068249 Rises=F Damp=F
 DIIS: error= 8.12D-05 at cycle  20 NSaved=  20.
 NSaved=20 IEnMin=20 EnMin= -1496.96590710688     IErMin=20 ErrMin= 8.12D-05
 ErrMax= 8.12D-05  0.00D+00 EMaxC= 1.00D+00 BMatC= 4.71D-07 BMatP= 6.68D-07
 IDIUse=1 WtCom= 1.00D+00 WtEn= 0.00D+00
 Coeff-Com: -0.282D-03 0.718D-03 0.116D-01-0.276D-01-0.143D-01 0.712D-01
 Coeff-Com:  0.228D+00-0.452D+00 0.182D-01 0.504D+00-0.119D+00-0.416D-01
 Coeff-Com: -0.111D+01 0.353D+00 0.180D+01-0.289D+00-0.218D+01-0.298D+00
 Coeff-Com:  0.564D+00 0.198D+01
 Coeff:     -0.282D-03 0.718D-03 0.116D-01-0.276D-01-0.143D-01 0.712D-01
 Coeff:      0.228D+00-0.452D+00 0.182D-01 0.504D+00-0.119D+00-0.416D-01
 Coeff:     -0.111D+01 0.353D+00 0.180D+01-0.289D+00-0.218D+01-0.298D+00
 Coeff:      0.564D+00 0.198D+01
 Gap=     0.247 Goal=   None    Shift=    0.500
 Gap=     0.084 Goal=   None    Shift=    0.500
 RMSDP=1.53D-06 MaxDP=1.07D-04 DE=-1.07D-06 OVMax= 9.48D-04

 Cycle  21  Pass 1  IDiag  1:
 E= -1496.96590781794     Delta-E=       -0.000000711054 Rises=F Damp=F
 DIIS: error= 6.51D-05 at cycle  21 NSaved=  20.
 NSaved=20 IEnMin=20 EnMin= -1496.96590781794     IErMin=20 ErrMin= 6.51D-05
 ErrMax= 6.51D-05  0.00D+00 EMaxC= 1.00D+00 BMatC= 3.23D-07 BMatP= 4.71D-07
 IDIUse=1 WtCom= 1.00D+00 WtEn= 0.00D+00
 Coeff-Com:  0.209D-03 0.334D-02-0.837D-02-0.117D-01 0.348D-01 0.140D+00
 Coeff-Com: -0.272D+00 0.687D-01 0.242D+00-0.183D+00 0.864D-01-0.568D+00
 Coeff-Com:  0.284D+00 0.588D+00 0.115D+00-0.809D+00-0.377D+00 0.473D-01
 Coeff-Com: -0.541D+00 0.216D+01
 Coeff:      0.209D-03 0.334D-02-0.837D-02-0.117D-01 0.348D-01 0.140D+00
 Coeff:     -0.272D+00 0.687D-01 0.242D+00-0.183D+00 0.864D-01-0.568D+00
 Coeff:      0.284D+00 0.588D+00 0.115D+00-0.809D+00-0.377D+00 0.473D-01
 Coeff:     -0.541D+00 0.216D+01
 Gap=     0.247 Goal=   None    Shift=    0.500
 Gap=     0.084 Goal=   None    Shift=    0.500
 RMSDP=1.05D-06 MaxDP=6.42D-05 DE=-7.11D-07 OVMax= 7.50D-04

 Cycle  22  Pass 1  IDiag  1:
 E= -1496.96590825042     Delta-E=       -0.000000432481 Rises=F Damp=F
 DIIS: error= 5.18D-05 at cycle  22 NSaved=  20.
 NSaved=20 IEnMin=20 EnMin= -1496.96590825042     IErMin=20 ErrMin= 5.18D-05
 ErrMax= 5.18D-05  0.00D+00 EMaxC= 1.00D+00 BMatC= 2.04D-07 BMatP= 3.23D-07
 IDIUse=1 WtCom= 1.00D+00 WtEn= 0.00D+00
 Coeff-Com:  0.642D-03-0.268D-03-0.388D-02 0.150D-01-0.104D-01-0.169D-01
 Coeff-Com:  0.551D-01-0.136D-01-0.139D+00 0.656D-01 0.624D-01 0.128D+00
 Coeff-Com: -0.197D+00-0.139D+00 0.267D+00 0.398D+00-0.146D+00-0.157D+01
 Coeff-Com: -0.540D+00 0.279D+01
 Coeff:      0.642D-03-0.268D-03-0.388D-02 0.150D-01-0.104D-01-0.169D-01
 Coeff:      0.551D-01-0.136D-01-0.139D+00 0.656D-01 0.624D-01 0.128D+00
 Coeff:     -0.197D+00-0.139D+00 0.267D+00 0.398D+00-0.146D+00-0.157D+01
 Coeff:     -0.540D+00 0.279D+01
 Gap=     0.247 Goal=   None    Shift=    0.500
 Gap=     0.084 Goal=   None    Shift=    0.500
 RMSDP=8.05D-07 MaxDP=4.14D-05 DE=-4.32D-07 OVMax= 5.88D-04

 SCF Done:  E(ULC-wHPBE) =  -1496.96590825     A.U. after   22 cycles
            NFock= 22  Conv=0.80D-06     -V/T= 2.0046
 <Sx>= 0.0000 <Sy>= 0.0000 <Sz>= 0.5000 <S**2>= 0.7720 S= 0.5109
 <L.S>= 0.000000000000E+00
 KE= 1.490070961517D+03 PE=-1.050766187359D+04 EE= 3.991859463980D+03
 Annihilation of the first spin contaminant:
 S**2 before annihilation     0.7720,   after     0.7503
 Leave Link  502 at Mon Jan 18 06:38:17 2021, MaxMem=  4026531840 cpu:           14493.9 elap:            1832.9
 (Enter /opt/ohpc/pub/libs/gaussian/g16-A.03/sandybridge/g16/l508.exe)
 QCSCF skips out because SCF is already converged.
 Leave Link  508 at Mon Jan 18 06:38:17 2021, MaxMem=  4026531840 cpu:               0.1 elap:               0.0
 (Enter /opt/ohpc/pub/libs/gaussian/g16-A.03/sandybridge/g16/l601.exe)
 Copying SCF densities to generalized density rwf, IOpCl= 1 IROHF=0.

 **********************************************************************

            Population analysis using the SCF density.

 **********************************************************************

 Orbital symmetries:
 Alpha Orbitals:
       Occupied  (A) (A) (A) (A) (A) (A) (A) (A) (A) (A) (A) (A)
                 (A) (A) (A) (A) (A) (A) (A) (A) (A) (A) (A) (A)
                 (A) (A) (A) (A) (A) (A) (A) (A) (A) (A) (A) (A)
                 (A) (A) (A) (A) (A) (A) (A) (A) (A) (A) (A) (A)
                 (A) (A) (A) (A) (A) (A) (A) (A) (A) (A) (A) (A)
                 (A) (A) (A) (A) (A) (A) (A) (A) (A) (A) (A) (A)
                 (A) (A) (A) (A) (A) (A) (A) (A) (A) (A) (A) (A)
                 (A) (A) (A) (A) (A) (A) (A) (A) (A) (A) (A) (A)
                 (A) (A) (A) (A) (A) (A) (A) (A) (A) (A) (A) (A)
                 (A) (A) (A) (A) (A) (A) (A) (A) (A) (A) (A) (A)
                 (A) (A) (A) (A) (A) (A) (A) (A) (A)
       Virtual   (A) (A) (A) (A) (A) (A) (A) (A) (A) (A) (A) (A)
                 (A) (A) (A) (A) (A) (A) (A) (A) (A) (A) (A) (A)
                 (A) (A) (A) (A) (A) (A) (A) (A) (A) (A) (A) (A)
                 (A) (A) (A) (A) (A) (A) (A) (A) (A) (A) (A) (A)
                 (A) (A) (A) (A) (A) (A) (A) (A) (A) (A) (A) (A)
                 (A) (A) (A) (A) (A) (A) (A) (A) (A) (A) (A) (A)
                 (A) (A) (A) (A) (A) (A) (A) (A) (A) (A) (A) (A)
                 (A) (A) (A) (A) (A) (A) (A) (A) (A) (A) (A) (A)
                 (A) (A) (A) (A) (A) (A) (A) (A) (A) (A) (A) (A)
                 (A) (A) (A) (A) (A) (A) (A) (A) (A) (A) (A) (A)
                 (A) (A) (A) (A) (A) (A) (A) (A) (A) (A) (A) (A)
                 (A) (A) (A) (A) (A) (A) (A) (A) (A) (A) (A) (A)
                 (A) (A) (A) (A) (A) (A) (A) (A) (A) (A) (A) (A)
                 (A) (A) (A) (A) (A) (A) (A) (A) (A) (A) (A) (A)
                 (A) (A) (A) (A) (A) (A) (A) (A) (A) (A) (A) (A)
                 (A) (A) (A) (A) (A) (A) (A) (A) (A) (A) (A) (A)
                 (A) (A) (A) (A) (A) (A) (A) (A) (A) (A) (A) (A)
                 (A) (A) (A) (A) (A) (A) (A) (A) (A) (A) (A) (A)
                 (A) (A) (A) (A) (A) (A) (A) (A) (A) (A) (A) (A)
                 (A) (A) (A) (A) (A) (A) (A) (A) (A) (A) (A) (A)
                 (A) (A) (A) (A) (A) (A) (A) (A) (A) (A) (A) (A)
                 (A) (A) (A) (A) (A) (A) (A) (A) (A) (A) (A) (A)
                 (A) (A) (A) (A) (A) (A) (A) (A) (A) (A) (A) (A)
                 (A) (A) (A) (A) (A) (A) (A) (A) (A) (A) (A) (A)
                 (A) (A) (A) (A) (A) (A) (A) (A) (A) (A) (A) (A)
                 (A) (A) (A) (A) (A) (A) (A) (A) (A) (A) (A) (A)
                 (A) (A) (A) (A) (A) (A) (A) (A) (A) (A) (A) (A)
                 (A) (A) (A) (A) (A) (A) (A) (A) (A) (A) (A) (A)
                 (A) (A) (A) (A) (A) (A) (A) (A) (A) (A) (A) (A)
                 (A) (A) (A) (A) (A) (A) (A) (A) (A) (A) (A) (A)
                 (A) (A) (A) (A) (A) (A) (A) (A) (A) (A) (A) (A)
                 (A) (A) (A) (A) (A) (A) (A) (A) (A) (A) (A) (A)
                 (A) (A) (A) (A) (A) (A) (A) (A) (A) (A) (A) (A)
                 (A) (A) (A) (A) (A) (A) (A) (A) (A) (A) (A) (A)
                 (A) (A) (A) (A) (A) (A) (A) (A) (A) (A) (A) (A)
                 (A) (A) (A) (A) (A) (A) (A) (A) (A) (A) (A) (A)
                 (A) (A) (A) (A) (A) (A) (A) (A) (A) (A) (A) (A)
                 (A) (A) (A) (A) (A) (A) (A) (A) (A) (A) (A) (A)
                 (A) (A) (A) (A) (A) (A) (A) (A) (A) (A) (A) (A)
                 (A) (A) (A) (A) (A) (A) (A) (A) (A) (A) (A) (A)
                 (A) (A) (A) (A) (A) (A) (A) (A) (A) (A) (A) (A)
                 (A) (A) (A) (A) (A) (A) (A) (A) (A) (A) (A) (A)
                 (A) (A) (A) (A) (A) (A) (A) (A) (A) (A) (A) (A)
                 (A) (A) (A) (A) (A) (A) (A) (A) (A) (A) (A) (A)
                 (A) (A) (A) (A) (A) (A) (A) (A) (A) (A) (A) (A)
                 (A) (A) (A) (A) (A) (A) (A) (A) (A) (A) (A) (A)
                 (A) (A) (A) (A) (A) (A) (A) (A) (A) (A) (A) (A)
                 (A) (A) (A) (A) (A) (A) (A) (A) (A) (A) (A) (A)
                 (A) (A) (A) (A) (A) (A) (A) (A) (A) (A) (A) (A)
                 (A) (A) (A) (A) (A) (A) (A) (A) (A) (A) (A) (A)
                 (A) (A) (A) (A) (A) (A) (A) (A) (A) (A) (A) (A)
                 (A) (A) (A) (A) (A) (A) (A) (A) (A) (A) (A) (A)
                 (A) (A) (A) (A) (A) (A) (A) (A) (A) (A) (A) (A)
                 (A) (A) (A) (A) (A) (A) (A) (A) (A) (A) (A) (A)
                 (A) (A) (A) (A) (A) (A) (A) (A) (A) (A) (A) (A)
                 (A) (A) (A) (A) (A) (A) (A) (A) (A) (A) (A) (A)
                 (A) (A) (A) (A) (A) (A) (A) (A) (A) (A) (A) (A)
                 (A) (A) (A) (A) (A) (A) (A) (A) (A) (A) (A) (A)
                 (A) (A) (A) (A) (A) (A) (A) (A) (A) (A) (A) (A)
                 (A) (A) (A) (A) (A) (A) (A) (A) (A) (A) (A) (A)
                 (A) (A) (A) (A) (A) (A) (A) (A) (A) (A) (A) (A)
                 (A) (A) (A) (A) (A) (A) (A) (A) (A) (A) (A) (A)
                 (A) (A) (A) (A) (A) (A) (A) (A) (A) (A) (A) (A)
                 (A) (A) (A) (A) (A)
 Beta  Orbitals:
       Occupied  (A) (A) (A) (A) (A) (A) (A) (A) (A) (A) (A) (A)
                 (A) (A) (A) (A) (A) (A) (A) (A) (A) (A) (A) (A)
                 (A) (A) (A) (A) (A) (A) (A) (A) (A) (A) (A) (A)
                 (A) (A) (A) (A) (A) (A) (A) (A) (A) (A) (A) (A)
                 (A) (A) (A) (A) (A) (A) (A) (A) (A) (A) (A) (A)
                 (A) (A) (A) (A) (A) (A) (A) (A) (A) (A) (A) (A)
                 (A) (A) (A) (A) (A) (A) (A) (A) (A) (A) (A) (A)
                 (A) (A) (A) (A) (A) (A) (A) (A) (A) (A) (A) (A)
                 (A) (A) (A) (A) (A) (A) (A) (A) (A) (A) (A) (A)
                 (A) (A) (A) (A) (A) (A) (A) (A) (A) (A) (A) (A)
                 (A) (A) (A) (A) (A) (A) (A) (A)
       Virtual   (A) (A) (A) (A) (A) (A) (A) (A) (A) (A) (A) (A)
                 (A) (A) (A) (A) (A) (A) (A) (A) (A) (A) (A) (A)
                 (A) (A) (A) (A) (A) (A) (A) (A) (A) (A) (A) (A)
                 (A) (A) (A) (A) (A) (A) (A) (A) (A) (A) (A) (A)
                 (A) (A) (A) (A) (A) (A) (A) (A) (A) (A) (A) (A)
                 (A) (A) (A) (A) (A) (A) (A) (A) (A) (A) (A) (A)
                 (A) (A) (A) (A) (A) (A) (A) (A) (A) (A) (A) (A)
                 (A) (A) (A) (A) (A) (A) (A) (A) (A) (A) (A) (A)
                 (A) (A) (A) (A) (A) (A) (A) (A) (A) (A) (A) (A)
                 (A) (A) (A) (A) (A) (A) (A) (A) (A) (A) (A) (A)
                 (A) (A) (A) (A) (A) (A) (A) (A) (A) (A) (A) (A)
                 (A) (A) (A) (A) (A) (A) (A) (A) (A) (A) (A) (A)
                 (A) (A) (A) (A) (A) (A) (A) (A) (A) (A) (A) (A)
                 (A) (A) (A) (A) (A) (A) (A) (A) (A) (A) (A) (A)
                 (A) (A) (A) (A) (A) (A) (A) (A) (A) (A) (A) (A)
                 (A) (A) (A) (A) (A) (A) (A) (A) (A) (A) (A) (A)
                 (A) (A) (A) (A) (A) (A) (A) (A) (A) (A) (A) (A)
                 (A) (A) (A) (A) (A) (A) (A) (A) (A) (A) (A) (A)
                 (A) (A) (A) (A) (A) (A) (A) (A) (A) (A) (A) (A)
                 (A) (A) (A) (A) (A) (A) (A) (A) (A) (A) (A) (A)
                 (A) (A) (A) (A) (A) (A) (A) (A) (A) (A) (A) (A)
                 (A) (A) (A) (A) (A) (A) (A) (A) (A) (A) (A) (A)
                 (A) (A) (A) (A) (A) (A) (A) (A) (A) (A) (A) (A)
                 (A) (A) (A) (A) (A) (A) (A) (A) (A) (A) (A) (A)
                 (A) (A) (A) (A) (A) (A) (A) (A) (A) (A) (A) (A)
                 (A) (A) (A) (A) (A) (A) (A) (A) (A) (A) (A) (A)
                 (A) (A) (A) (A) (A) (A) (A) (A) (A) (A) (A) (A)
                 (A) (A) (A) (A) (A) (A) (A) (A) (A) (A) (A) (A)
                 (A) (A) (A) (A) (A) (A) (A) (A) (A) (A) (A) (A)
                 (A) (A) (A) (A) (A) (A) (A) (A) (A) (A) (A) (A)
                 (A) (A) (A) (A) (A) (A) (A) (A) (A) (A) (A) (A)
                 (A) (A) (A) (A) (A) (A) (A) (A) (A) (A) (A) (A)
                 (A) (A) (A) (A) (A) (A) (A) (A) (A) (A) (A) (A)
                 (A) (A) (A) (A) (A) (A) (A) (A) (A) (A) (A) (A)
                 (A) (A) (A) (A) (A) (A) (A) (A) (A) (A) (A) (A)
                 (A) (A) (A) (A) (A) (A) (A) (A) (A) (A) (A) (A)
                 (A) (A) (A) (A) (A) (A) (A) (A) (A) (A) (A) (A)
                 (A) (A) (A) (A) (A) (A) (A) (A) (A) (A) (A) (A)
                 (A) (A) (A) (A) (A) (A) (A) (A) (A) (A) (A) (A)
                 (A) (A) (A) (A) (A) (A) (A) (A) (A) (A) (A) (A)
                 (A) (A) (A) (A) (A) (A) (A) (A) (A) (A) (A) (A)
                 (A) (A) (A) (A) (A) (A) (A) (A) (A) (A) (A) (A)
                 (A) (A) (A) (A) (A) (A) (A) (A) (A) (A) (A) (A)
                 (A) (A) (A) (A) (A) (A) (A) (A) (A) (A) (A) (A)
                 (A) (A) (A) (A) (A) (A) (A) (A) (A) (A) (A) (A)
                 (A) (A) (A) (A) (A) (A) (A) (A) (A) (A) (A) (A)
                 (A) (A) (A) (A) (A) (A) (A) (A) (A) (A) (A) (A)
                 (A) (A) (A) (A) (A) (A) (A) (A) (A) (A) (A) (A)
                 (A) (A) (A) (A) (A) (A) (A) (A) (A) (A) (A) (A)
                 (A) (A) (A) (A) (A) (A) (A) (A) (A) (A) (A) (A)
                 (A) (A) (A) (A) (A) (A) (A) (A) (A) (A) (A) (A)
                 (A) (A) (A) (A) (A) (A) (A) (A) (A) (A) (A) (A)
                 (A) (A) (A) (A) (A) (A) (A) (A) (A) (A) (A) (A)
                 (A) (A) (A) (A) (A) (A) (A) (A) (A) (A) (A) (A)
                 (A) (A) (A) (A) (A) (A) (A) (A) (A) (A) (A) (A)
                 (A) (A) (A) (A) (A) (A) (A) (A) (A) (A) (A) (A)
                 (A) (A) (A) (A) (A) (A) (A) (A) (A) (A) (A) (A)
                 (A) (A) (A) (A) (A) (A) (A) (A) (A) (A) (A) (A)
                 (A) (A) (A) (A) (A) (A) (A) (A) (A) (A) (A) (A)
                 (A) (A) (A) (A) (A) (A) (A) (A) (A) (A) (A) (A)
                 (A) (A) (A) (A) (A) (A) (A) (A) (A) (A) (A) (A)
                 (A) (A) (A) (A) (A) (A) (A) (A) (A) (A) (A) (A)
                 (A) (A) (A) (A) (A) (A) (A) (A) (A) (A) (A) (A)
                 (A) (A) (A) (A) (A) (A)
 The electronic state is 2-A.
 Alpha  occ. eigenvalues --  -14.25353 -14.25353 -10.14670 -10.14667 -10.12973
 Alpha  occ. eigenvalues --  -10.12972 -10.12971 -10.12970 -10.11314 -10.11301
 Alpha  occ. eigenvalues --  -10.10044 -10.10044 -10.10041 -10.10040 -10.10002
 Alpha  occ. eigenvalues --  -10.10002 -10.10002 -10.10002 -10.08618 -10.08617
 Alpha  occ. eigenvalues --  -10.08617 -10.08616 -10.08454 -10.08454 -10.08454
 Alpha  occ. eigenvalues --  -10.08453 -10.08044 -10.08044 -10.08044 -10.08044
 Alpha  occ. eigenvalues --  -10.07971 -10.07971 -10.07971 -10.07971 -10.07863
 Alpha  occ. eigenvalues --  -10.07863 -10.07863 -10.07863  -1.11310  -1.11306
 Alpha  occ. eigenvalues --   -1.01380  -0.99630  -0.98677  -0.98677  -0.97396
 Alpha  occ. eigenvalues --   -0.96867  -0.92688  -0.90094  -0.89750  -0.89274
 Alpha  occ. eigenvalues --   -0.88809  -0.88476  -0.87784  -0.87446  -0.87445
 Alpha  occ. eigenvalues --   -0.87363  -0.85523  -0.83899  -0.79057  -0.78402
 Alpha  occ. eigenvalues --   -0.77265  -0.76343  -0.75895  -0.74720  -0.74397
 Alpha  occ. eigenvalues --   -0.74079  -0.73927  -0.73589  -0.71752  -0.71417
 Alpha  occ. eigenvalues --   -0.69430  -0.68669  -0.68485  -0.68244  -0.66366
 Alpha  occ. eigenvalues --   -0.64037  -0.63909  -0.63386  -0.62517  -0.62222
 Alpha  occ. eigenvalues --   -0.62065  -0.60550  -0.60415  -0.59825  -0.59713
 Alpha  occ. eigenvalues --   -0.59656  -0.58904  -0.58220  -0.57959  -0.57844
 Alpha  occ. eigenvalues --   -0.57756  -0.57682  -0.57627  -0.56573  -0.56440
 Alpha  occ. eigenvalues --   -0.56236  -0.56235  -0.55968  -0.54918  -0.54417
 Alpha  occ. eigenvalues --   -0.53573  -0.53312  -0.52974  -0.52944  -0.51548
 Alpha  occ. eigenvalues --   -0.51342  -0.50853  -0.50547  -0.50321  -0.49943
 Alpha  occ. eigenvalues --   -0.49908  -0.49182  -0.48850  -0.48484  -0.48456
 Alpha  occ. eigenvalues --   -0.47852  -0.46954  -0.44557  -0.43175  -0.43151
 Alpha  occ. eigenvalues --   -0.42133  -0.42127  -0.41812  -0.41305  -0.41285
 Alpha  occ. eigenvalues --   -0.40838  -0.40676  -0.36223  -0.35035
 Alpha virt. eigenvalues --   -0.10335  -0.08120  -0.07994  -0.06988  -0.06978
 Alpha virt. eigenvalues --   -0.06325  -0.05702  -0.05582  -0.04784  -0.04752
 Alpha virt. eigenvalues --   -0.03252  -0.02105   0.00866   0.01494   0.02535
 Alpha virt. eigenvalues --    0.02724   0.02893   0.03008   0.03212   0.04422
 Alpha virt. eigenvalues --    0.04646   0.04765   0.05315   0.05457   0.05483
 Alpha virt. eigenvalues --    0.05819   0.06462   0.06667   0.06789   0.07160
 Alpha virt. eigenvalues --    0.07634   0.08045   0.08180   0.08186   0.08519
 Alpha virt. eigenvalues --    0.08564   0.08828   0.08849   0.08901   0.09121
 Alpha virt. eigenvalues --    0.09525   0.09639   0.10144   0.10366   0.11093
 Alpha virt. eigenvalues --    0.11607   0.11885   0.11917   0.12399   0.13012
 Alpha virt. eigenvalues --    0.14547   0.14911   0.15233   0.15383   0.15448
 Alpha virt. eigenvalues --    0.16083   0.16128   0.16354   0.16501   0.16760
 Alpha virt. eigenvalues --    0.16966   0.17152   0.17421   0.17495   0.17696
 Alpha virt. eigenvalues --    0.17810   0.18936   0.18996   0.19054   0.19087
 Alpha virt. eigenvalues --    0.19153   0.19275   0.19464   0.19503   0.19656
 Alpha virt. eigenvalues --    0.20017   0.20222   0.20594   0.20910   0.21062
 Alpha virt. eigenvalues --    0.21073   0.21117   0.21466   0.21706   0.21738
 Alpha virt. eigenvalues --    0.21873   0.22343   0.22543   0.22662   0.22666
 Alpha virt. eigenvalues --    0.23620   0.24099   0.24592   0.24689   0.24703
 Alpha virt. eigenvalues --    0.24831   0.24996   0.25078   0.25569   0.26358
 Alpha virt. eigenvalues --    0.26413   0.26531   0.26752   0.27052   0.27228
 Alpha virt. eigenvalues --    0.27639   0.27698   0.28132   0.28346   0.28578
 Alpha virt. eigenvalues --    0.28642   0.28828   0.29157   0.29306   0.30577
 Alpha virt. eigenvalues --    0.30725   0.30891   0.31038   0.31157   0.31973
 Alpha virt. eigenvalues --    0.32159   0.32423   0.32440   0.33190   0.33202
 Alpha virt. eigenvalues --    0.33236   0.33456   0.33760   0.34209   0.34365
 Alpha virt. eigenvalues --    0.34414   0.35254   0.35274   0.35457   0.35512
 Alpha virt. eigenvalues --    0.35733   0.35735   0.36042   0.36085   0.36237
 Alpha virt. eigenvalues --    0.36603   0.37049   0.37066   0.37571   0.37911
 Alpha virt. eigenvalues --    0.38195   0.38785   0.38992   0.39061   0.39078
 Alpha virt. eigenvalues --    0.39465   0.39579   0.39741   0.39968   0.39996
 Alpha virt. eigenvalues --    0.40001   0.40015   0.40218   0.40637   0.40802
 Alpha virt. eigenvalues --    0.41278   0.41540   0.42139   0.42407   0.42618
 Alpha virt. eigenvalues --    0.42822   0.42909   0.42959   0.43219   0.44070
 Alpha virt. eigenvalues --    0.44329   0.44636   0.44712   0.44938   0.44993
 Alpha virt. eigenvalues --    0.45285   0.45942   0.46050   0.46151   0.46279
 Alpha virt. eigenvalues --    0.46608   0.46691   0.47056   0.47153   0.47248
 Alpha virt. eigenvalues --    0.47811   0.47980   0.48133   0.48551   0.48563
 Alpha virt. eigenvalues --    0.49409   0.49988   0.50068   0.50371   0.50839
 Alpha virt. eigenvalues --    0.51001   0.51005   0.51567   0.51623   0.51844
 Alpha virt. eigenvalues --    0.52346   0.52939   0.53299   0.53911   0.54301
 Alpha virt. eigenvalues --    0.56596   0.56795   0.56810   0.56843   0.57527
 Alpha virt. eigenvalues --    0.57584   0.58104   0.58348   0.58940   0.59830
 Alpha virt. eigenvalues --    0.60587   0.61521   0.61979   0.62291   0.63020
 Alpha virt. eigenvalues --    0.63084   0.63311   0.63413   0.63923   0.64451
 Alpha virt. eigenvalues --    0.64929   0.65136   0.65426   0.65502   0.65547
 Alpha virt. eigenvalues --    0.65596   0.65615   0.65791   0.65798   0.66778
 Alpha virt. eigenvalues --    0.67003   0.67557   0.68187   0.68551   0.69127
 Alpha virt. eigenvalues --    0.69152   0.70153   0.70609   0.71423   0.71593
 Alpha virt. eigenvalues --    0.72377   0.73419   0.73583   0.73679   0.73794
 Alpha virt. eigenvalues --    0.75460   0.75774   0.76700   0.77099   0.77636
 Alpha virt. eigenvalues --    0.79875   0.79990   0.80109   0.80780   0.81425
 Alpha virt. eigenvalues --    0.81839   0.81969   0.82346   0.86283   0.87440
 Alpha virt. eigenvalues --    0.87716   0.87865   0.90148   0.90282   1.06748
 Alpha virt. eigenvalues --    1.08521   1.09553   1.10063   1.10075   1.13855
 Alpha virt. eigenvalues --    1.14253   1.14263   1.14868   1.15817   1.16079
 Alpha virt. eigenvalues --    1.16392   1.16555   1.17267   1.17363   1.17924
 Alpha virt. eigenvalues --    1.17970   1.18254   1.18437   1.18944   1.19704
 Alpha virt. eigenvalues --    1.19878   1.20075   1.20686   1.20728   1.20791
 Alpha virt. eigenvalues --    1.20800   1.21630   1.21683   1.21878   1.22005
 Alpha virt. eigenvalues --    1.22307   1.22731   1.22936   1.23062   1.23127
 Alpha virt. eigenvalues --    1.23674   1.24254   1.24450   1.24515   1.24539
 Alpha virt. eigenvalues --    1.24955   1.25038   1.25250   1.25417   1.26036
 Alpha virt. eigenvalues --    1.26043   1.26433   1.26554   1.26868   1.27305
 Alpha virt. eigenvalues --    1.27756   1.27802   1.28169   1.28298   1.28830
 Alpha virt. eigenvalues --    1.29012   1.29153   1.33781   1.34253   1.35227
 Alpha virt. eigenvalues --    1.35494   1.35795   1.35991   1.36314   1.36851
 Alpha virt. eigenvalues --    1.37310   1.37355   1.37665   1.37711   1.37846
 Alpha virt. eigenvalues --    1.37860   1.37884   1.37973   1.38552   1.38587
 Alpha virt. eigenvalues --    1.38620   1.38930   1.39031   1.39468   1.39506
 Alpha virt. eigenvalues --    1.39603   1.39733   1.39958   1.39987   1.40035
 Alpha virt. eigenvalues --    1.40192   1.40383   1.40749   1.41109   1.41207
 Alpha virt. eigenvalues --    1.41228   1.41390   1.41491   1.43022   1.43219
 Alpha virt. eigenvalues --    1.43389   1.43448   1.43996   1.44090   1.45015
 Alpha virt. eigenvalues --    1.45407   1.45541   1.45654   1.45852   1.46019
 Alpha virt. eigenvalues --    1.46369   1.46479   1.46794   1.47148   1.47345
 Alpha virt. eigenvalues --    1.47778   1.47805   1.48603   1.48645   1.48905
 Alpha virt. eigenvalues --    1.49015   1.49055   1.49388   1.49780   1.49824
 Alpha virt. eigenvalues --    1.49929   1.50510   1.50670   1.50890   1.51070
 Alpha virt. eigenvalues --    1.51644   1.51668   1.51796   1.51809   1.52423
 Alpha virt. eigenvalues --    1.52605   1.53065   1.53297   1.53573   1.54032
 Alpha virt. eigenvalues --    1.54223   1.56952   1.57465   1.59104   1.59319
 Alpha virt. eigenvalues --    1.60164   1.60251   1.60534   1.60600   1.61629
 Alpha virt. eigenvalues --    1.63611   1.64177   1.64733   1.64908   1.65513
 Alpha virt. eigenvalues --    1.68073   1.68646   1.69254   1.69419   1.69859
 Alpha virt. eigenvalues --    1.70071   1.70134   1.70499   1.70711   1.70765
 Alpha virt. eigenvalues --    1.71062   1.71322   1.71415   1.71624   1.71648
 Alpha virt. eigenvalues --    1.72381   1.72497   1.72551   1.72640   1.73161
 Alpha virt. eigenvalues --    1.73456   1.74392   1.74529   1.74644   1.74862
 Alpha virt. eigenvalues --    1.75299   1.75649   1.75697   1.75859   1.76100
 Alpha virt. eigenvalues --    1.77311   1.77754   1.77779   1.78390   1.80031
 Alpha virt. eigenvalues --    1.80716   1.80846   1.81703   1.81896   1.82069
 Alpha virt. eigenvalues --    1.82079   1.82422   1.82510   1.82528   1.82769
 Alpha virt. eigenvalues --    1.84195   1.84529   1.84780   1.84787   1.85029
 Alpha virt. eigenvalues --    1.85040   1.85243   1.85393   1.85714   1.85766
 Alpha virt. eigenvalues --    1.85767   1.85839   1.86341   1.86606   1.86616
 Alpha virt. eigenvalues --    1.86818   1.86826   1.87141   1.87396   1.87736
 Alpha virt. eigenvalues --    1.88249   1.88991   1.89750   1.91087   1.91195
 Alpha virt. eigenvalues --    1.91214   1.91237   1.91601   1.91762   1.92984
 Alpha virt. eigenvalues --    1.93052   1.93078   1.93719   1.94314   1.95492
 Alpha virt. eigenvalues --    1.95636   1.95807   1.95961   1.97425   1.97631
 Alpha virt. eigenvalues --    1.98066   2.00078   2.00321   2.00952   2.02118
 Alpha virt. eigenvalues --    2.03604   2.04602   2.04629   2.05037   2.05443
 Alpha virt. eigenvalues --    2.07202   2.08229   2.10129   2.11899   2.12370
 Alpha virt. eigenvalues --    2.12585   2.12626   2.14875   2.15441   2.16289
 Alpha virt. eigenvalues --    2.16673   2.16774   2.18437   2.18979   2.19841
 Alpha virt. eigenvalues --    2.21896   2.21932   2.22622   2.22643   2.22807
 Alpha virt. eigenvalues --    2.23143   2.23695   2.23976   2.24078   2.24136
 Alpha virt. eigenvalues --    2.24141   2.24541   2.24995   2.25142   2.25395
 Alpha virt. eigenvalues --    2.25698   2.25879   2.26084   2.26848   2.26947
 Alpha virt. eigenvalues --    2.27623   2.27669   2.27751   2.27922   2.28756
 Alpha virt. eigenvalues --    2.28896   2.28942   2.29004   2.29268   2.29359
 Alpha virt. eigenvalues --    2.29672   2.29986   2.30252   2.30660   2.30672
 Alpha virt. eigenvalues --    2.30733   2.33073   2.35878   2.37105   2.37526
 Alpha virt. eigenvalues --    2.37912   2.38692   2.38764   2.38948   2.43053
 Alpha virt. eigenvalues --    2.43170   2.43208   2.43775   2.44235   2.44339
 Alpha virt. eigenvalues --    2.44888   2.45249   2.45605   2.45761   2.45953
 Alpha virt. eigenvalues --    2.46535   2.47173   2.47616   2.48166   2.48416
 Alpha virt. eigenvalues --    2.48645   2.50441   2.51071   2.51769   2.53050
 Alpha virt. eigenvalues --    2.53185   2.55305   2.55681   2.56021   2.56345
 Alpha virt. eigenvalues --    2.57266   2.57273   2.57311   2.57757   2.57764
 Alpha virt. eigenvalues --    2.57925   2.58164   2.58283   2.58835   2.59213
 Alpha virt. eigenvalues --    2.59276   2.60053   2.60371   2.60626   2.60926
 Alpha virt. eigenvalues --    2.61400   2.65868   2.66915   2.66929   2.67090
 Alpha virt. eigenvalues --    2.67168   2.67964   2.68373   2.68766   2.68896
 Alpha virt. eigenvalues --    2.70070   2.70784   2.71121   2.71169   2.72004
 Alpha virt. eigenvalues --    2.74087   2.75065   2.75361   2.75884   2.76373
 Alpha virt. eigenvalues --    2.77550   2.77601   2.77906   2.77962   2.78054
 Alpha virt. eigenvalues --    2.82059   2.82754   2.87324   2.88450   2.88560
 Alpha virt. eigenvalues --    2.88708   2.90753   2.90770   2.91529   2.91589
 Alpha virt. eigenvalues --    2.94839   2.94871   2.95122   2.95167   2.95316
 Alpha virt. eigenvalues --    2.95796   2.96137   2.96176   2.97042   2.97157
 Alpha virt. eigenvalues --    2.97660   2.97911   2.98468   2.99461   2.99994
 Alpha virt. eigenvalues --    3.01869   3.02953   3.02962   3.03057   3.04376
 Alpha virt. eigenvalues --    3.04563   3.05058   3.07078   3.07281   3.08087
 Alpha virt. eigenvalues --    3.08357   3.09745   3.09924   3.10563   3.10662
 Alpha virt. eigenvalues --    3.11117   3.12337   3.12727   3.13194   3.13393
 Alpha virt. eigenvalues --    3.13892   3.14367   3.14904   3.15268   3.16108
 Alpha virt. eigenvalues --    3.17503   3.18366   3.21440   3.25485   3.25505
 Alpha virt. eigenvalues --    3.25777   3.26257   3.26557   3.26574   3.28887
 Alpha virt. eigenvalues --    3.30471   3.32364   3.32630   3.33880   3.33884
 Alpha virt. eigenvalues --    3.36554   3.37273   3.44846   3.45801   3.47398
 Alpha virt. eigenvalues --    3.47552   3.47732   3.47802   3.49863   3.52442
 Alpha virt. eigenvalues --    3.52934   3.52937   3.70232   3.74003   3.81129
 Alpha virt. eigenvalues --    3.83445   3.83970   3.84053  21.04548  21.10936
 Alpha virt. eigenvalues --   21.11183  21.12711  21.12936  21.25447  21.57230
 Alpha virt. eigenvalues --   21.58716  21.58734  21.61294  21.61918  21.61932
 Alpha virt. eigenvalues --   21.64129  21.64536  21.67448  21.70685  21.70885
 Alpha virt. eigenvalues --   21.79788  21.80673  21.84266  21.84866  21.86238
 Alpha virt. eigenvalues --   21.87067  21.87730  21.87941  21.89410  21.92404
 Alpha virt. eigenvalues --   21.92808  21.93141  21.94659  21.98396  21.99423
 Alpha virt. eigenvalues --   22.04016  22.04919  22.05483  22.05517  31.91086
 Alpha virt. eigenvalues --   31.92031
  Beta  occ. eigenvalues --  -14.24951 -14.24951 -10.14627 -10.14624 -10.13004
  Beta  occ. eigenvalues --  -10.13003 -10.13003 -10.13002 -10.11230 -10.11216
  Beta  occ. eigenvalues --  -10.10027 -10.10026 -10.10024 -10.10022 -10.09962
  Beta  occ. eigenvalues --  -10.09962 -10.09962 -10.09962 -10.08549 -10.08549
  Beta  occ. eigenvalues --  -10.08549 -10.08548 -10.08391 -10.08390 -10.08390
  Beta  occ. eigenvalues --  -10.08389 -10.08072 -10.08071 -10.08071 -10.08071
  Beta  occ. eigenvalues --  -10.07996 -10.07995 -10.07995 -10.07995 -10.07793
  Beta  occ. eigenvalues --  -10.07793 -10.07793 -10.07793  -1.10812  -1.10807
  Beta  occ. eigenvalues --   -1.01207  -0.99473  -0.98593  -0.98592  -0.97268
  Beta  occ. eigenvalues --   -0.96722  -0.92473  -0.90019  -0.89668  -0.89126
  Beta  occ. eigenvalues --   -0.88725  -0.88396  -0.87712  -0.87381  -0.87380
  Beta  occ. eigenvalues --   -0.87273  -0.85333  -0.83594  -0.78950  -0.78260
  Beta  occ. eigenvalues --   -0.77130  -0.76222  -0.75760  -0.74571  -0.74339
  Beta  occ. eigenvalues --   -0.73994  -0.73845  -0.73514  -0.71664  -0.71333
  Beta  occ. eigenvalues --   -0.69359  -0.68575  -0.68412  -0.68166  -0.66277
  Beta  occ. eigenvalues --   -0.63879  -0.63821  -0.63295  -0.62403  -0.62040
  Beta  occ. eigenvalues --   -0.61733  -0.60475  -0.60276  -0.59747  -0.59626
  Beta  occ. eigenvalues --   -0.59615  -0.58833  -0.58175  -0.57923  -0.57749
  Beta  occ. eigenvalues --   -0.57706  -0.57612  -0.57577  -0.56504  -0.56399
  Beta  occ. eigenvalues --   -0.56203  -0.56202  -0.55872  -0.54671  -0.54066
  Beta  occ. eigenvalues --   -0.53276  -0.53072  -0.52786  -0.52757  -0.51490
  Beta  occ. eigenvalues --   -0.51213  -0.50494  -0.50465  -0.50269  -0.49843
  Beta  occ. eigenvalues --   -0.49788  -0.48974  -0.48733  -0.48438  -0.48409
  Beta  occ. eigenvalues --   -0.47562  -0.46329  -0.43790  -0.43027  -0.43016
  Beta  occ. eigenvalues --   -0.41752  -0.41745  -0.41028  -0.41024  -0.40989
  Beta  occ. eigenvalues --   -0.40674  -0.39910  -0.31917
  Beta virt. eigenvalues --   -0.23533  -0.09984  -0.07866  -0.07712  -0.06704
  Beta virt. eigenvalues --   -0.06688  -0.05880  -0.05484  -0.05300  -0.04589
  Beta virt. eigenvalues --   -0.04525  -0.02698  -0.01489   0.00904   0.01537
  Beta virt. eigenvalues --    0.02567   0.02776   0.02925   0.03033   0.03249
  Beta virt. eigenvalues --    0.04465   0.04690   0.04802   0.05350   0.05476
  Beta virt. eigenvalues --    0.05513   0.05851   0.06494   0.06812   0.06859
  Beta virt. eigenvalues --    0.07191   0.07672   0.08109   0.08204   0.08232
  Beta virt. eigenvalues --    0.08535   0.08630   0.08961   0.08991   0.09027
  Beta virt. eigenvalues --    0.09175   0.09599   0.09701   0.10166   0.10391
  Beta virt. eigenvalues --    0.11306   0.11779   0.12009   0.12099   0.12483
  Beta virt. eigenvalues --    0.13159   0.14622   0.14968   0.15315   0.15483
  Beta virt. eigenvalues --    0.15493   0.16161   0.16203   0.16413   0.16569
  Beta virt. eigenvalues --    0.16823   0.17020   0.17255   0.17499   0.17527
  Beta virt. eigenvalues --    0.17763   0.17853   0.19034   0.19085   0.19103
  Beta virt. eigenvalues --    0.19191   0.19209   0.19370   0.19532   0.19577
  Beta virt. eigenvalues --    0.19737   0.20086   0.20298   0.20654   0.20951
  Beta virt. eigenvalues --    0.21089   0.21126   0.21144   0.21537   0.21753
  Beta virt. eigenvalues --    0.21805   0.21922   0.22422   0.22595   0.22718
  Beta virt. eigenvalues --    0.22738   0.23647   0.24164   0.24627   0.24722
  Beta virt. eigenvalues --    0.24758   0.24871   0.25120   0.25196   0.25659
  Beta virt. eigenvalues --    0.26465   0.26519   0.26628   0.26833   0.27140
  Beta virt. eigenvalues --    0.27339   0.27733   0.27835   0.28198   0.28431
  Beta virt. eigenvalues --    0.28646   0.28712   0.28933   0.29235   0.29390
  Beta virt. eigenvalues --    0.30692   0.30828   0.31000   0.31127   0.31258
  Beta virt. eigenvalues --    0.32055   0.32296   0.32532   0.32534   0.33263
  Beta virt. eigenvalues --    0.33267   0.33370   0.33562   0.33805   0.34305
  Beta virt. eigenvalues --    0.34438   0.34505   0.35310   0.35366   0.35531
  Beta virt. eigenvalues --    0.35586   0.35793   0.35798   0.36133   0.36138
  Beta virt. eigenvalues --    0.36343   0.36708   0.37137   0.37148   0.37674
  Beta virt. eigenvalues --    0.38011   0.38292   0.38841   0.39096   0.39108
  Beta virt. eigenvalues --    0.39139   0.39504   0.39606   0.39786   0.40015
  Beta virt. eigenvalues --    0.40037   0.40038   0.40073   0.40294   0.40667
  Beta virt. eigenvalues --    0.40850   0.41362   0.41594   0.42206   0.42479
  Beta virt. eigenvalues --    0.42687   0.42882   0.42964   0.43035   0.43279
  Beta virt. eigenvalues --    0.44160   0.44393   0.44686   0.44756   0.45015
  Beta virt. eigenvalues --    0.45048   0.45345   0.45992   0.46110   0.46215
  Beta virt. eigenvalues --    0.46325   0.46647   0.46734   0.47158   0.47233
  Beta virt. eigenvalues --    0.47297   0.47897   0.48047   0.48221   0.48618
  Beta virt. eigenvalues --    0.48633   0.49450   0.50061   0.50131   0.50439
  Beta virt. eigenvalues --    0.50906   0.51098   0.51098   0.51699   0.51712
  Beta virt. eigenvalues --    0.51921   0.52397   0.53019   0.53354   0.53996
  Beta virt. eigenvalues --    0.54356   0.56659   0.56860   0.56879   0.56917
  Beta virt. eigenvalues --    0.57585   0.57690   0.58177   0.58414   0.58992
  Beta virt. eigenvalues --    0.59904   0.60669   0.61630   0.62033   0.62342
  Beta virt. eigenvalues --    0.63089   0.63152   0.63369   0.63462   0.64010
  Beta virt. eigenvalues --    0.64515   0.64994   0.65191   0.65487   0.65599
  Beta virt. eigenvalues --    0.65628   0.65644   0.65670   0.65855   0.65857
  Beta virt. eigenvalues --    0.66837   0.67091   0.67616   0.68235   0.68646
  Beta virt. eigenvalues --    0.69183   0.69230   0.70216   0.70688   0.71509
  Beta virt. eigenvalues --    0.71668   0.72473   0.73500   0.73619   0.73721
  Beta virt. eigenvalues --    0.73845   0.75561   0.75833   0.76856   0.77312
  Beta virt. eigenvalues --    0.77703   0.80140   0.80314   0.80340   0.80847
  Beta virt. eigenvalues --    0.81480   0.81900   0.82016   0.82459   0.86368
  Beta virt. eigenvalues --    0.87513   0.87767   0.87915   0.90285   0.90429
  Beta virt. eigenvalues --    1.06816   1.08582   1.09616   1.10106   1.10118
  Beta virt. eigenvalues --    1.13926   1.14305   1.14327   1.14924   1.15884
  Beta virt. eigenvalues --    1.16162   1.16465   1.16637   1.17345   1.17440
  Beta virt. eigenvalues --    1.18017   1.18028   1.18320   1.18521   1.19032
  Beta virt. eigenvalues --    1.19807   1.19975   1.20154   1.20822   1.20844
  Beta virt. eigenvalues --    1.20875   1.20895   1.21703   1.21767   1.21998
  Beta virt. eigenvalues --    1.22093   1.22375   1.22798   1.22990   1.23114
  Beta virt. eigenvalues --    1.23171   1.23767   1.24331   1.24531   1.24591
  Beta virt. eigenvalues --    1.24635   1.25020   1.25113   1.25305   1.25502
  Beta virt. eigenvalues --    1.26086   1.26120   1.26526   1.26674   1.26958
  Beta virt. eigenvalues --    1.27420   1.27789   1.27839   1.28246   1.28484
  Beta virt. eigenvalues --    1.28917   1.29140   1.29300   1.33952   1.34412
  Beta virt. eigenvalues --    1.35354   1.35661   1.35889   1.36085   1.36388
  Beta virt. eigenvalues --    1.36919   1.37344   1.37573   1.37714   1.37739
  Beta virt. eigenvalues --    1.37842   1.37859   1.38136   1.38242   1.38677
  Beta virt. eigenvalues --    1.38792   1.38821   1.38997   1.39105   1.39533
  Beta virt. eigenvalues --    1.39551   1.39658   1.39822   1.40060   1.40107
  Beta virt. eigenvalues --    1.40126   1.40310   1.40549   1.40883   1.41246
  Beta virt. eigenvalues --    1.41285   1.41356   1.41530   1.41555   1.43076
  Beta virt. eigenvalues --    1.43310   1.43489   1.43504   1.44085   1.44191
  Beta virt. eigenvalues --    1.45196   1.45502   1.45576   1.45682   1.45895
  Beta virt. eigenvalues --    1.46133   1.46471   1.46576   1.46873   1.47291
  Beta virt. eigenvalues --    1.47455   1.47854   1.47939   1.48638   1.48681
  Beta virt. eigenvalues --    1.48925   1.49088   1.49089   1.49537   1.49927
  Beta virt. eigenvalues --    1.49959   1.50076   1.50641   1.50771   1.51020
  Beta virt. eigenvalues --    1.51182   1.51731   1.51776   1.51898   1.51915
  Beta virt. eigenvalues --    1.52557   1.52725   1.53230   1.53385   1.53694
  Beta virt. eigenvalues --    1.54184   1.54325   1.57104   1.57570   1.59238
  Beta virt. eigenvalues --    1.59420   1.60276   1.60357   1.60616   1.60686
  Beta virt. eigenvalues --    1.61695   1.63676   1.64235   1.64803   1.64980
  Beta virt. eigenvalues --    1.65631   1.68246   1.68763   1.69363   1.69530
  Beta virt. eigenvalues --    1.69995   1.70184   1.70288   1.70605   1.70764
  Beta virt. eigenvalues --    1.70861   1.71143   1.71375   1.71558   1.71651
  Beta virt. eigenvalues --    1.71727   1.72436   1.72644   1.72647   1.72745
  Beta virt. eigenvalues --    1.73232   1.73523   1.74495   1.74645   1.74737
  Beta virt. eigenvalues --    1.74959   1.75357   1.75746   1.75774   1.76002
  Beta virt. eigenvalues --    1.76179   1.77431   1.77865   1.78046   1.78621
  Beta virt. eigenvalues --    1.80131   1.80797   1.80973   1.81814   1.82017
[...]

       Atom             a.u.   MegaHertz   Gauss  10(-4) cm-1        Axes

              Baa    -0.0229    -3.070    -1.095    -1.024  0.5021  0.6614  0.5571
     1 C(13)  Bbb    -0.0189    -2.540    -0.906    -0.847  0.8630 -0.3412 -0.3727
              Bcc     0.0418     5.610     2.002     1.871  0.0564 -0.6679  0.7421
 
              Baa    -0.0310    -4.160    -1.484    -1.388  0.0000  0.9895  0.1448
     2 C(13)  Bbb    -0.0208    -2.790    -0.995    -0.931  1.0000 -0.0000  0.0001
              Bcc     0.0518     6.950     2.480     2.318 -0.0001 -0.1448  0.9895
 
              Baa    -0.0075    -1.012    -0.361    -0.338  0.0657  0.6677  0.7416
     3 C(13)  Bbb    -0.0039    -0.523    -0.187    -0.175  0.9779 -0.1910  0.0853
              Bcc     0.0114     1.536     0.548     0.512  0.1986  0.7196 -0.6654
 
              Baa    -0.0229    -3.071    -1.096    -1.024 -0.5022  0.6615  0.5571
     4 C(13)  Bbb    -0.0189    -2.541    -0.907    -0.847  0.8629  0.3412  0.3728
              Bcc     0.0418     5.611     2.002     1.872 -0.0565 -0.6679  0.7421
 
              Baa    -0.0403    -5.401    -1.927    -1.802  0.0000  0.9879  0.1548
     5 C(13)  Bbb    -0.0350    -4.702    -1.678    -1.568  1.0000 -0.0000  0.0000
              Bcc     0.0753    10.104     3.605     3.370 -0.0000 -0.1548  0.9879
 
              Baa    -0.0075    -1.012    -0.361    -0.338 -0.0655  0.6677  0.7415
     6 C(13)  Bbb    -0.0039    -0.523    -0.187    -0.175  0.9779  0.1907 -0.0853
              Bcc     0.0114     1.536     0.548     0.512 -0.1984  0.7196 -0.6655
 
              Baa    -0.0021    -1.134    -0.405    -0.378 -0.1180 -0.2965  0.9477
     7 H(1)   Bbb    -0.0001    -0.037    -0.013    -0.012  0.9896  0.0444  0.1371
              Bcc     0.0022     1.171     0.418     0.391 -0.0827  0.9540  0.2882
 
              Baa    -0.0027    -1.432    -0.511    -0.478  0.0848 -0.3392  0.9369
     8 H(1)   Bbb    -0.0014    -0.751    -0.268    -0.251  0.9930  0.1058 -0.0516
              Bcc     0.0041     2.183     0.779     0.728 -0.0817  0.9347  0.3459
 
              Baa    -0.0021    -1.134    -0.405    -0.378  0.1179 -0.2966  0.9477
     9 H(1)   Bbb    -0.0001    -0.037    -0.013    -0.012  0.9896 -0.0443 -0.1369
              Bcc     0.0022     1.171     0.418     0.391  0.0827  0.9540  0.2883
 
              Baa    -0.0402    -5.396    -1.925    -1.800  0.0000  0.9878 -0.1556
    10 C(13)  Bbb    -0.0350    -4.696    -1.676    -1.567  1.0000 -0.0000 -0.0000
              Bcc     0.0752    10.092     3.601     3.366  0.0000  0.1556  0.9878
 
              Baa    -0.0076    -1.014    -0.362    -0.338 -0.0644 -0.6679  0.7415
    11 C(13)  Bbb    -0.0039    -0.525    -0.187    -0.175  0.9782 -0.1892 -0.0855
              Bcc     0.0115     1.539     0.549     0.513  0.1974  0.7198  0.6655
 
              Baa    -0.0076    -1.013    -0.362    -0.338  0.0644 -0.6677  0.7417
    12 C(13)  Bbb    -0.0039    -0.524    -0.187    -0.175  0.9782  0.1893  0.0855
              Bcc     0.0115     1.538     0.549     0.513 -0.1974  0.7200  0.6653
 
              Baa    -0.0229    -3.067    -1.094    -1.023  0.5013  0.6611 -0.5583
    13 C(13)  Bbb    -0.0189    -2.536    -0.905    -0.846  0.8634 -0.3398  0.3729
              Bcc     0.0417     5.602     1.999     1.869 -0.0569  0.6690  0.7411
 
              Baa    -0.0229    -3.068    -1.095    -1.023 -0.5013  0.6611 -0.5582
    14 C(13)  Bbb    -0.0189    -2.537    -0.905    -0.846  0.8634  0.3398 -0.3730
              Bcc     0.0418     5.604     2.000     1.869  0.0569  0.6690  0.7411
 
              Baa    -0.0310    -4.162    -1.485    -1.388 -0.0001  0.9893 -0.1456
    15 C(13)  Bbb    -0.0208    -2.792    -0.996    -0.931  1.0000  0.0000 -0.0001
              Bcc     0.0518     6.954     2.481     2.320  0.0001  0.1456  0.9893
 
              Baa    -0.0021    -1.134    -0.405    -0.378  0.1181  0.2975  0.9474
    16 H(1)   Bbb    -0.0001    -0.037    -0.013    -0.012  0.9895  0.0446 -0.1373
              Bcc     0.0022     1.172     0.418     0.391 -0.0831  0.9537 -0.2891
 
              Baa    -0.0021    -1.134    -0.405    -0.378 -0.1179  0.2976  0.9474
    17 H(1)   Bbb    -0.0001    -0.037    -0.013    -0.012  0.9896 -0.0445  0.1371
              Bcc     0.0022     1.171     0.418     0.391  0.0829  0.9537 -0.2892
 
              Baa    -0.0027    -1.432    -0.511    -0.478  0.0842  0.3399  0.9367
    18 H(1)   Bbb    -0.0014    -0.749    -0.267    -0.250  0.9932 -0.1050 -0.0512
              Bcc     0.0041     2.181     0.778     0.727  0.0809  0.9346 -0.3464
 
              Baa    -0.0027    -1.431    -0.511    -0.477 -0.0840  0.3400  0.9367
    19 H(1)   Bbb    -0.0014    -0.750    -0.267    -0.250  0.9932  0.1050  0.0509
              Bcc     0.0041     2.181     0.778     0.728 -0.0810  0.9345 -0.3465
 
              Baa    -0.0027    -1.432    -0.511    -0.477 -0.0850 -0.3392  0.9369
    20 H(1)   Bbb    -0.0014    -0.751    -0.268    -0.250  0.9930 -0.1058  0.0518
              Bcc     0.0041     2.182     0.779     0.728  0.0816  0.9348  0.3458
 
              Baa    -0.2537    -9.786    -3.492    -3.264 -0.0009  0.9478  0.3189
    21 N(14)  Bbb    -0.2526    -9.742    -3.476    -3.250  1.0000  0.0009  0.0002
              Bcc     0.5063    19.529     6.968     6.514  0.0001 -0.3189  0.9478
 
              Baa    -0.0183    -2.450    -0.874    -0.817  0.6153  0.6841 -0.3918
    22 C(13)  Bbb     0.0050     0.677     0.241     0.226  0.6292 -0.1267  0.7669
              Bcc     0.0132     1.774     0.633     0.592 -0.4749  0.7183  0.5083
 
              Baa    -0.0274    -3.681    -1.314    -1.228  0.1022  0.5869  0.8032
    23 C(13)  Bbb    -0.0240    -3.216    -1.148    -1.073 -0.6503  0.6504 -0.3925
              Bcc     0.0514     6.898     2.461     2.301  0.7527  0.4822 -0.4481
 
              Baa    -0.0290    -3.894    -1.390    -1.299  0.7309 -0.5480  0.4068
    24 C(13)  Bbb    -0.0258    -3.458    -1.234    -1.153 -0.0830  0.5202  0.8500
              Bcc     0.0548     7.352     2.624     2.453  0.6774  0.6550 -0.3348
 
              Baa    -0.0197    -2.638    -0.941    -0.880 -0.5205 -0.5937  0.6136
    25 C(13)  Bbb     0.0087     1.164     0.415     0.388  0.6970  0.1197  0.7070
              Bcc     0.0110     1.474     0.526     0.492 -0.4932  0.7957  0.3515
 
              Baa    -0.0216    -2.894    -1.033    -0.965 -0.5611 -0.5366  0.6303
    26 C(13)  Bbb     0.0094     1.265     0.452     0.422  0.6180  0.2350  0.7502
              Bcc     0.0121     1.628     0.581     0.543 -0.5507  0.8105  0.1998
 
              Baa    -0.0318    -4.274    -1.525    -1.426  0.6792  0.2047  0.7049
    27 C(13)  Bbb    -0.0286    -3.842    -1.371    -1.281 -0.5273  0.8042  0.2745
              Bcc     0.0605     8.115     2.896     2.707 -0.5106 -0.5580  0.6541
 
              Baa    -0.0021    -1.134    -0.405    -0.378  0.2503  0.8281 -0.5016
    28 H(1)   Bbb    -0.0011    -0.610    -0.218    -0.203  0.7582 -0.4899 -0.4303
              Bcc     0.0033     1.744     0.622     0.582  0.6020  0.2726  0.7505
 
              Baa    -0.0023    -1.211    -0.432    -0.404 -0.6024 -0.5172  0.6080
    29 H(1)   Bbb    -0.0008    -0.427    -0.153    -0.143 -0.2666  0.8483  0.4576
              Bcc     0.0031     1.638     0.585     0.546  0.7524 -0.1136  0.6488
 
              Baa    -0.0011    -0.602    -0.215    -0.201  0.5772  0.5868 -0.5680
    30 H(1)   Bbb     0.0001     0.075     0.027     0.025  0.7394 -0.0803  0.6684
              Bcc     0.0010     0.526     0.188     0.176 -0.3466  0.8058  0.4802
 
              Baa    -0.0012    -0.634    -0.226    -0.211  0.5849  0.6084 -0.5364
    31 H(1)   Bbb    -0.0001    -0.054    -0.019    -0.018  0.4625  0.2931  0.8368
              Bcc     0.0013     0.688     0.245     0.229 -0.6663  0.7375  0.1099
 
              Baa    -0.0041    -2.175    -0.776    -0.726  0.6742  0.1571  0.7216
    32 H(1)   Bbb    -0.0004    -0.226    -0.081    -0.075 -0.5384 -0.5643  0.6259
              Bcc     0.0045     2.401     0.857     0.801 -0.5055  0.8105  0.2959
 
              Baa    -0.0182    -2.449    -0.874    -0.817 -0.6159  0.6839 -0.3910
    33 C(13)  Bbb     0.0050     0.676     0.241     0.226 -0.6286 -0.1274  0.7673
              Bcc     0.0132     1.772     0.632     0.591  0.4749  0.7183  0.5083
 
              Baa    -0.0274    -3.678    -1.313    -1.227 -0.1021  0.5864  0.8036
    34 C(13)  Bbb    -0.0239    -3.213    -1.146    -1.072  0.6496  0.6511 -0.3926
              Bcc     0.0514     6.891     2.459     2.299  0.7534 -0.4819  0.4474
 
              Baa    -0.0290    -3.892    -1.389    -1.298  0.7305  0.5481 -0.4074
    35 C(13)  Bbb    -0.0257    -3.455    -1.233    -1.152  0.0838  0.5201  0.8500
              Bcc     0.0547     7.346     2.621     2.450  0.6778 -0.6550  0.3339
 
              Baa    -0.0196    -2.635    -0.940    -0.879  0.5211 -0.5938  0.6131
    36 C(13)  Bbb     0.0087     1.162     0.415     0.388 -0.6962  0.1198  0.7077
              Bcc     0.0110     1.473     0.526     0.491  0.4937  0.7957  0.3510
 
              Baa    -0.0215    -2.891    -1.032    -0.964  0.5617 -0.5365  0.6298
    37 C(13)  Bbb     0.0094     1.264     0.451     0.422 -0.6180  0.2340  0.7505
              Bcc     0.0121     1.627     0.581     0.543  0.5500  0.8108  0.2002
 
              Baa    -0.0318    -4.269    -1.523    -1.424 -0.6788  0.2043  0.7054
    38 C(13)  Bbb    -0.0286    -3.837    -1.369    -1.280  0.5271  0.8043  0.2743
              Bcc     0.0604     8.106     2.892     2.704  0.5113 -0.5580  0.6536
 
              Baa    -0.0021    -1.134    -0.405    -0.378 -0.2520  0.8275 -0.5018
    39 H(1)   Bbb    -0.0011    -0.609    -0.217    -0.203  0.7576  0.4913  0.4297
              Bcc     0.0033     1.743     0.622     0.581 -0.6021  0.2719  0.7507
 
              Baa    -0.0023    -1.210    -0.432    -0.404  0.6026 -0.5176  0.6074
    40 H(1)   Bbb    -0.0008    -0.426    -0.152    -0.142  0.2674  0.8481  0.4575
              Bcc     0.0031     1.637     0.584     0.546  0.7519  0.1132 -0.6495
 
              Baa    -0.0011    -0.602    -0.215    -0.201 -0.5778  0.5868 -0.5674
    41 H(1)   Bbb     0.0001     0.075     0.027     0.025  0.7387  0.0801 -0.6693
              Bcc     0.0010     0.526     0.188     0.175  0.3473  0.8058  0.4797
 
              Baa    -0.0012    -0.633    -0.226    -0.211 -0.5855  0.6083 -0.5358
    42 H(1)   Bbb    -0.0001    -0.054    -0.019    -0.018 -0.4624  0.2923  0.8371
              Bcc     0.0013     0.687     0.245     0.229  0.6658  0.7379  0.1101
 
              Baa    -0.0041    -2.173    -0.775    -0.725 -0.6738  0.1566  0.7222
    43 H(1)   Bbb    -0.0004    -0.226    -0.081    -0.075  0.5390 -0.5643  0.6253
              Bcc     0.0045     2.399     0.856     0.800  0.5054  0.8106  0.2958
 
              Baa    -0.2537    -9.786    -3.492    -3.264 -0.0004  0.9478 -0.3189
    44 N(14)  Bbb    -0.2526    -9.743    -3.476    -3.250  1.0000  0.0004 -0.0001
              Bcc     0.5064    19.529     6.968     6.514 -0.0001  0.3189  0.9478
 
              Baa    -0.0182    -2.449    -0.874    -0.817  0.6159  0.6839  0.3912
    45 C(13)  Bbb     0.0050     0.677     0.242     0.226 -0.6285  0.1271  0.7673
              Bcc     0.0132     1.772     0.632     0.591 -0.4750  0.7185 -0.5081
 
              Baa    -0.0274    -3.678    -1.312    -1.227 -0.1020 -0.5865  0.8035
    46 C(13)  Bbb    -0.0239    -3.212    -1.146    -1.072 -0.6497  0.6509  0.3927
              Bcc     0.0513     6.890     2.459     2.298  0.7533  0.4820  0.4474
 
              Baa    -0.0290    -3.891    -1.388    -1.298  0.7306 -0.5479 -0.4074
    47 C(13)  Bbb    -0.0257    -3.454    -1.232    -1.152  0.0840 -0.5201  0.8500
              Bcc     0.0547     7.345     2.621     2.450  0.6776  0.6552  0.3340
 
              Baa    -0.0196    -2.635    -0.940    -0.879  0.5209  0.5939  0.6132
    48 C(13)  Bbb     0.0087     1.162     0.415     0.388 -0.6962 -0.1201  0.7077
              Bcc     0.0110     1.473     0.526     0.491 -0.4940  0.7955 -0.3509
 
              Baa    -0.0215    -2.891    -1.031    -0.964  0.5615  0.5367  0.6298
    49 C(13)  Bbb     0.0094     1.264     0.451     0.422 -0.6180 -0.2342  0.7505
              Bcc     0.0121     1.627     0.580     0.543 -0.5503  0.8107 -0.2002
 
              Baa    -0.0318    -4.268    -1.523    -1.424 -0.6788 -0.2045  0.7053
    50 C(13)  Bbb    -0.0286    -3.837    -1.369    -1.280 -0.5273  0.8042 -0.2743
              Bcc     0.0604     8.105     2.892     2.704  0.5111  0.5581  0.6536
 
              Baa    -0.0021    -1.134    -0.405    -0.378  0.2516  0.8275  0.5019
    51 H(1)   Bbb    -0.0011    -0.609    -0.217    -0.203  0.7576 -0.4911  0.4299
              Bcc     0.0033     1.743     0.622     0.581 -0.6022 -0.2720  0.7505
 
              Baa    -0.0023    -1.210    -0.432    -0.404  0.6024  0.5179  0.6074
    52 H(1)   Bbb    -0.0008    -0.426    -0.152    -0.142 -0.2676  0.8479 -0.4576
              Bcc     0.0031     1.636     0.584     0.546  0.7520 -0.1131 -0.6494
 
              Baa    -0.0011    -0.601    -0.215    -0.201  0.5776  0.5869  0.5674
    53 H(1)   Bbb     0.0001     0.075     0.027     0.025  0.7387 -0.0798 -0.6693
              Bcc     0.0010     0.526     0.188     0.175 -0.3476  0.8057 -0.4797
 
              Baa    -0.0012    -0.633    -0.226    -0.211  0.5853  0.6084  0.5359
    54 H(1)   Bbb    -0.0001    -0.054    -0.019    -0.018 -0.4624 -0.2924  0.8371
              Bcc     0.0013     0.687     0.245     0.229 -0.6660  0.7378 -0.1102
 
              Baa    -0.0041    -2.172    -0.775    -0.725 -0.6738 -0.1568  0.7221
    55 H(1)   Bbb    -0.0004    -0.226    -0.081    -0.075  0.5388  0.5644  0.6253
              Bcc     0.0045     2.398     0.856     0.800 -0.5056  0.8104 -0.2958
 
              Baa    -0.0182    -2.448    -0.874    -0.817 -0.6160  0.6840  0.3908
    56 C(13)  Bbb     0.0050     0.677     0.241     0.226  0.6284  0.1275  0.7674
              Bcc     0.0132     1.772     0.632     0.591  0.4750  0.7183 -0.5083
 
              Baa    -0.0274    -3.677    -1.312    -1.226  0.1020 -0.5863  0.8037
    57 C(13)  Bbb    -0.0239    -3.211    -1.146    -1.071  0.6494  0.6512  0.3926
              Bcc     0.0513     6.888     2.458     2.298  0.7536 -0.4819 -0.4471
 
              Baa    -0.0290    -3.890    -1.388    -1.297  0.7304  0.5481  0.4076
    58 C(13)  Bbb    -0.0257    -3.453    -1.232    -1.152 -0.0843 -0.5199  0.8501
              Bcc     0.0547     7.342     2.620     2.449  0.6778 -0.6552 -0.3335
 
              Baa    -0.0196    -2.634    -0.940    -0.879 -0.5211  0.5940  0.6129
    59 C(13)  Bbb     0.0087     1.162     0.415     0.387  0.6959 -0.1201  0.7080
              Bcc     0.0110     1.472     0.525     0.491  0.4941  0.7955 -0.3508
 
              Baa    -0.0215    -2.890    -1.031    -0.964 -0.5618  0.5367  0.6296
    60 C(13)  Bbb     0.0094     1.263     0.451     0.421  0.6180 -0.2337  0.7507
              Bcc     0.0121     1.626     0.580     0.542  0.5500  0.8108 -0.2004
 
              Baa    -0.0318    -4.267    -1.522    -1.423  0.6786 -0.2042  0.7055
    61 C(13)  Bbb    -0.0286    -3.835    -1.368    -1.279  0.5273  0.8042 -0.2744
              Bcc     0.0604     8.102     2.891     2.702 -0.5113  0.5582  0.6534
 
              Baa    -0.0021    -1.134    -0.405    -0.378 -0.2522  0.8274  0.5018
    62 H(1)   Bbb    -0.0011    -0.609    -0.217    -0.203  0.7574  0.4915 -0.4298
              Bcc     0.0033     1.742     0.622     0.581  0.6023 -0.2717  0.7506
 
              Baa    -0.0023    -1.210    -0.432    -0.404 -0.6025  0.5181  0.6071
    63 H(1)   Bbb    -0.0008    -0.425    -0.152    -0.142  0.2679  0.8478 -0.4577
              Bcc     0.0031     1.635     0.584     0.546  0.7518  0.1131  0.6496
 
              Baa    -0.0011    -0.601    -0.215    -0.201 -0.5778  0.5870  0.5671
    64 H(1)   Bbb     0.0001     0.075     0.027     0.025  0.7384  0.0798  0.6696
              Bcc     0.0010     0.526     0.188     0.175  0.3478  0.8057 -0.4795
 
              Baa    -0.0012    -0.633    -0.226    -0.211 -0.5856  0.6085  0.5356
    65 H(1)   Bbb    -0.0001    -0.054    -0.019    -0.018  0.4624 -0.2920  0.8372
              Bcc     0.0013     0.687     0.245     0.229  0.6658  0.7379 -0.1103
 
              Baa    -0.0041    -2.172    -0.775    -0.724  0.6736 -0.1565  0.7223
    66 H(1)   Bbb    -0.0004    -0.226    -0.081    -0.075 -0.5391  0.5645  0.6251
              Bcc     0.0045     2.398     0.856     0.800  0.5056  0.8105 -0.2959
 

 ---------------------------------------------------------------------------------

 No NMR shielding tensors so no spin-rotation constants.
 Leave Link  601 at Mon Jan 18 06:38:18 2021, MaxMem=  4026531840 cpu:               9.6 elap:               1.3
 (Enter /opt/ohpc/pub/libs/gaussian/g16-A.03/sandybridge/g16/l9999.exe)

 Test job not archived.
 1\1\GINC-CASCADEB019\SP\ULC-wHPBE\TZVP\C36H28N2(1+,2)\RDU230\18-Jan-20
 21\0\\#P LC-wHPBE/TZVP iop(3/107=0177400000, 3/108=0177400000) scf=(co
 nver=6,fermi,ndamp=35,noincfock,novaracc,vshift=500,xqc)\\H28 C36 N2\\
 1,2\C,0,2.849999,-1.125861,0.415638\C,0,3.563139,-0.000026,-0.000017\C
 ,0,1.464492,-1.123667,0.405534\C,0,2.850033,1.125752,-0.415809\C,0,0.7
 41288,-0.000047,-0.000195\C,0,1.464504,1.123547,-0.405879\H,0,0.931596
 ,-2.005844,0.756198\H,0,3.391048,2.006254,-0.75499\H,0,0.931669,2.0057
 28,-0.756629\C,0,-0.741437,-0.000073,-0.000217\C,0,-1.464635,1.123165,
 0.406556\C,0,-1.464638,-1.123302,-0.406976\C,0,-2.850149,1.125343,0.41
 661\C,0,-2.850163,-1.125491,-0.416935\C,0,-3.563257,-0.000095,-0.00011
 6\H,0,-0.931751,2.005025,0.758038\H,0,-0.931783,-2.00514,-0.758553\H,0
 ,-3.391193,2.005527,0.756576\H,0,-3.391211,-2.005669,-0.756913\H,0,3.3
 91005,-2.006357,0.754845\N,0,-4.97843,-0.000102,-0.000065\C,0,-5.68709
 9,-1.154578,0.414287\C,0,-6.831881,-1.566674,-0.27115\C,0,-5.251323,-1
 .896933,1.513908\C,0,-7.528311,-2.692826,0.143324\C,0,-5.943392,-3.032
 223,1.91044\C,0,-7.087522,-3.435368,1.232277\H,0,-7.173684,-0.995181,-
 1.131117\H,0,-4.363437,-1.577947,2.055099\H,0,-8.419174,-2.999763,-0.4
 0155\H,0,-5.58986,-3.599797,2.769285\H,0,-7.631852,-4.321852,1.550225\
 C,0,-5.687025,1.154532,-0.414292\C,0,-6.831191,1.567225,0.271802\C,0,-
 5.251707,1.896381,-1.514415\C,0,-7.527485,2.693516,-0.142525\C,0,-5.94
 362,3.031828,-1.910808\C,0,-7.087137,3.435581,-1.231989\H,0,-7.172616,
 0.996083,1.132151\H,0,-4.364291,1.57691,-2.056093\H,0,-8.417875,3.0009
 45,0.402845\H,0,-5.590451,3.599029,-2.77005\H,0,-7.63135,4.322181,-1.5
 49815\N,0,4.978266,0.00002,0.000103\C,0,5.68699,1.154558,0.414335\C,0,
 6.831289,1.56698,-0.271699\C,0,5.251761,1.896543,1.51441\C,0,7.527834,
 2.693112,0.142653\C,0,5.943923,3.031822,1.910819\C,0,7.08759,3.435293,
 1.232069\H,0,7.172649,0.995729,-1.132\H,0,4.364233,1.577285,2.056034\H
 ,0,8.418333,3.000297,-0.402674\H,0,5.59085,3.599137,2.770027\H,0,7.631
 979,4.321768,1.549941\C,0,5.687017,-1.154516,-0.414141\C,0,6.831068,-1
 .567191,0.272109\C,0,5.251977,-1.896199,-1.514492\C,0,7.527566,-2.6933
 48,-0.142281\C,0,5.944079,-3.031486,-1.910953\C,0,7.087509,-3.435246,-
 1.231958\H,0,7.172277,-0.996155,1.132614\H,0,4.364636,-1.576682,-2.056
 275\H,0,8.417864,-3.000787,0.403227\H,0,5.591165,-3.598572,-2.770374\H
 ,0,7.631874,-4.32173,-1.549857\\Version=EM64L-G16RevA.03\State=2-A\HF=
 -1496.9659083\S2=0.771966\S2-1=0.\S2A=0.750278\RMSD=8.046e-07\Dipole=0
 .0001833,0.0000985,-0.0000485\Quadrupole=73.1520698,-24.0423666,-49.10
 97031,-0.0046021,-0.0004107,0.0025376\PG=C01 [X(C36H28N2)]\\@


 WHEN IT COMES TO CASH FLOW, IT SEEMS LIKE THE TIDE IS ALWAYS GOING OUT.
 Job cpu time:       0 days  4 hours  3 minutes 25.1 seconds.
 Elapsed time:       0 days  0 hours 30 minutes 47.5 seconds.
 File lengths (MBytes):  RWF=    428 Int=      0 D2E=      0 Chk=     60 Scr=      8
 Normal termination of Gaussian 16 at Mon Jan 18 06:38:18 2021.
