 Entering Gaussian System, Link 0=g16
 Input=mol_bp_pa_whol_tune_c7.gjf
 Output=mol_bp_pa_whol_tune_c7.log
 Initial command:
 /opt/ohpc/pub/libs/gaussian/g16-A.03/sandybridge/g16/l1.exe "/mnt/gpfs2_4m/scratch/rdu230/ondemand/projects/init_structures/wtuning/mol_bp_pa_whol/tuning_mol_bp_pa_whol_ocycle0/Gau-125417.inp" -scrdir="/mnt/gpfs2_4m/scratch/rdu230/ondemand/projects/init_structures/wtuning/mol_bp_pa_whol/tuning_mol_bp_pa_whol_ocycle0/"
 Entering Link 1 = /opt/ohpc/pub/libs/gaussian/g16-A.03/sandybridge/g16/l1.exe PID=    125418.
  
 Copyright (c) 1988,1990,1992,1993,1995,1998,2003,2009,2016,
            Gaussian, Inc.  All Rights Reserved.
  
 This is part of the Gaussian(R) 16 program.  It is based on
 the Gaussian(R) 09 system (copyright 2009, Gaussian, Inc.),
 the Gaussian(R) 03 system (copyright 2003, Gaussian, Inc.),
 the Gaussian(R) 98 system (copyright 1998, Gaussian, Inc.),
 the Gaussian(R) 94 system (copyright 1995, Gaussian, Inc.),
 the Gaussian 92(TM) system (copyright 1992, Gaussian, Inc.),
 the Gaussian 90(TM) system (copyright 1990, Gaussian, Inc.),
 the Gaussian 88(TM) system (copyright 1988, Gaussian, Inc.),
 the Gaussian 86(TM) system (copyright 1986, Carnegie Mellon
 University), and the Gaussian 82(TM) system (copyright 1983,
 Carnegie Mellon University). Gaussian is a federally registered
 trademark of Gaussian, Inc.
  
 This software contains proprietary and confidential information,
 including trade secrets, belonging to Gaussian, Inc.
  
 This software is provided under written license and may be
 used, copied, transmitted, or stored only in accord with that
 written license.
  
 The following legend is applicable only to US Government
 contracts under FAR:
  
                    RESTRICTED RIGHTS LEGEND
  
 Use, reproduction and disclosure by the US Government is
 subject to restrictions as set forth in subparagraphs (a)
 and (c) of the Commercial Computer Software - Restricted
 Rights clause in FAR 52.227-19.
  
 Gaussian, Inc.
 340 Quinnipiac St., Bldg. 40, Wallingford CT 06492
  
  
 ---------------------------------------------------------------
 Warning -- This program may not be used in any manner that
 competes with the business of Gaussian, Inc. or will provide
 assistance to any competitor of Gaussian, Inc.  The licensee
 of this program is prohibited from giving any competitor of
 Gaussian, Inc. access to this program.  By using this program,
 the user acknowledges that Gaussian, Inc. is engaged in the
 business of creating and licensing software in the field of
 computational chemistry and represents and warrants to the
 licensee that it is not a competitor of Gaussian, Inc. and that
 it will not use this program in any manner prohibited above.
 ---------------------------------------------------------------
  

 Cite this work as:
 Gaussian 16, Revision A.03,
 M. J. Frisch, G. W. Trucks, H. B. Schlegel, G. E. Scuseria, 
 M. A. Robb, J. R. Cheeseman, G. Scalmani, V. Barone, 
 G. A. Petersson, H. Nakatsuji, X. Li, M. Caricato, A. V. Marenich, 
 J. Bloino, B. G. Janesko, R. Gomperts, B. Mennucci, H. P. Hratchian, 
 J. V. Ortiz, A. F. Izmaylov, J. L. Sonnenberg, D. Williams-Young, 
 F. Ding, F. Lipparini, F. Egidi, J. Goings, B. Peng, A. Petrone, 
 T. Henderson, D. Ranasinghe, V. G. Zakrzewski, J. Gao, N. Rega, 
 G. Zheng, W. Liang, M. Hada, M. Ehara, K. Toyota, R. Fukuda, 
 J. Hasegawa, M. Ishida, T. Nakajima, Y. Honda, O. Kitao, H. Nakai, 
 T. Vreven, K. Throssell, J. A. Montgomery, Jr., J. E. Peralta, 
 F. Ogliaro, M. J. Bearpark, J. J. Heyd, E. N. Brothers, K. N. Kudin, 
 V. N. Staroverov, T. A. Keith, R. Kobayashi, J. Normand, 
 K. Raghavachari, A. P. Rendell, J. C. Burant, S. S. Iyengar, 
 J. Tomasi, M. Cossi, J. M. Millam, M. Klene, C. Adamo, R. Cammi, 
 J. W. Ochterski, R. L. Martin, K. Morokuma, O. Farkas, 
 J. B. Foresman, and D. J. Fox, Gaussian, Inc., Wallingford CT, 2016.
 
 ******************************************
 Gaussian 16:  EM64L-G16RevA.03 25-Dec-2016
                18-Jan-2021 
 ******************************************
 %mem=30GB
 %nproc=8
 Will use up to    8 processors via shared memory.
 ----------------------------------------------------------------------
 #P LC-wHPBE/TZVP iop(3/107=0167700000, 3/108=0167700000) scf=(conver=6
 ,fermi,ndamp=35,noincfock,novaracc,vshift=500,xqc)
 ----------------------------------------------------------------------
 1/38=1,172=1/1;
 2/12=2,17=6,18=5,40=1/2;
 3/5=19,7=101,11=2,25=1,30=1,74=-71,107=167700000,108=167700000/1,2,3;
 4//1;
 5/5=100002,6=6,8=3,10=500,13=1,18=-1,22=13,38=1,93=35/2,8;
 6/7=2,8=2,9=2,10=2,28=1/1;
 99/5=1,9=1/99;
 Leave Link    1 at Mon Jan 18 03:05:06 2021, MaxMem=  4026531840 cpu:               1.1 elap:               0.2
 (Enter /opt/ohpc/pub/libs/gaussian/g16-A.03/sandybridge/g16/l101.exe)
 ----------
 H28 C36 N2
 ----------
 Symbolic Z-matrix:
 Charge =  1 Multiplicity = 2
 C                     2.85     -1.12586   0.41564 
 C                     3.56314  -0.00003  -0.00002 
 C                     1.46449  -1.12367   0.40553 
 C                     2.85003   1.12575  -0.41581 
 C                     0.74129  -0.00005  -0.0002 
 C                     1.4645    1.12355  -0.40588 
 H                     0.9316   -2.00584   0.7562 
 H                     3.39105   2.00625  -0.75499 
 H                     0.93167   2.00573  -0.75663 
 C                    -0.74144  -0.00007  -0.00022 
 C                    -1.46464   1.12316   0.40656 
 C                    -1.46464  -1.1233   -0.40698 
 C                    -2.85015   1.12534   0.41661 
 C                    -2.85016  -1.12549  -0.41694 
 C                    -3.56326  -0.0001   -0.00012 
 H                    -0.93175   2.00502   0.75804 
 H                    -0.93178  -2.00514  -0.75855 
 H                    -3.39119   2.00553   0.75658 
 H                    -3.39121  -2.00567  -0.75691 
 H                     3.39101  -2.00636   0.75485 
 N                    -4.97843  -0.0001   -0.00007 
 C                    -5.6871   -1.15458   0.41429 
 C                    -6.83188  -1.56667  -0.27115 
 C                    -5.25132  -1.89693   1.51391 
 C                    -7.52831  -2.69283   0.14332 
 C                    -5.94339  -3.03222   1.91044 
 C                    -7.08752  -3.43537   1.23228 
 H                    -7.17368  -0.99518  -1.13112 
 H                    -4.36344  -1.57795   2.0551 
 H                    -8.41917  -2.99976  -0.40155 
 H                    -5.58986  -3.5998    2.76929 
 H                    -7.63185  -4.32185   1.55023 
 C                    -5.68703   1.15453  -0.41429 
 C                    -6.83119   1.56723   0.2718 
 C                    -5.25171   1.89638  -1.51442 
 C                    -7.52749   2.69352  -0.14253 
 C                    -5.94362   3.03183  -1.91081 
 C                    -7.08714   3.43558  -1.23199 
 H                    -7.17262   0.99608   1.13215 
 H                    -4.36429   1.57691  -2.05609 
 H                    -8.41788   3.00095   0.40285 
 H                    -5.59045   3.59903  -2.77005 
 H                    -7.63135   4.32218  -1.54982 
 N                     4.97827   0.00002   0.0001 
 C                     5.68699   1.15456   0.41434 
 C                     6.83129   1.56698  -0.2717 
 C                     5.25176   1.89654   1.51441 
 C                     7.52783   2.69311   0.14265 
 C                     5.94392   3.03182   1.91082 
 C                     7.08759   3.43529   1.23207 
 H                     7.17265   0.99573  -1.132 
 H                     4.36423   1.57729   2.05603 
 H                     8.41833   3.0003   -0.40267 
 H                     5.59085   3.59914   2.77003 
 H                     7.63198   4.32177   1.54994 
 C                     5.68702  -1.15452  -0.41414 
 C                     6.83107  -1.56719   0.27211 
 C                     5.25198  -1.8962   -1.51449 
 C                     7.52757  -2.69335  -0.14228 
 C                     5.94408  -3.03149  -1.91095 
 C                     7.08751  -3.43525  -1.23196 
 H                     7.17228  -0.99616   1.13261 
 H                     4.36464  -1.57668  -2.05627 
 H                     8.41786  -3.00079   0.40323 
 H                     5.59117  -3.59857  -2.77037 
 H                     7.63187  -4.32173  -1.54986 
 
 ITRead=  0  0  0  0  0  0  0  0  0  0  0  0  0  0  0  0  0  0  0  0
 ITRead=  0  0  0  0  0  0  0  0  0  0  0  0  0  0  0  0  0  0  0  0
 ITRead=  0  0  0  0  0  0  0  0  0  0  0  0  0  0  0  0  0  0  0  0
 ITRead=  0  0  0  0  0  0
 MicOpt= -1 -1 -1 -1 -1 -1 -1 -1 -1 -1 -1 -1 -1 -1 -1 -1 -1 -1 -1 -1
 MicOpt= -1 -1 -1 -1 -1 -1 -1 -1 -1 -1 -1 -1 -1 -1 -1 -1 -1 -1 -1 -1
 MicOpt= -1 -1 -1 -1 -1 -1 -1 -1 -1 -1 -1 -1 -1 -1 -1 -1 -1 -1 -1 -1
 MicOpt= -1 -1 -1 -1 -1 -1
 NAtoms=     66 NQM=       66 NQMF=       0 NMMI=      0 NMMIF=      0
                NMic=       0 NMicF=      0.
                    Isotopes and Nuclear Properties:
 (Nuclear quadrupole moments (NQMom) in fm**2, nuclear magnetic moments (NMagM)
  in nuclear magnetons)

  Atom         1           2           3           4           5           6           7           8           9          10
 IAtWgt=          12          12          12          12          12          12           1           1           1          12
 AtmWgt=  12.0000000  12.0000000  12.0000000  12.0000000  12.0000000  12.0000000   1.0078250   1.0078250   1.0078250  12.0000000
 NucSpn=           0           0           0           0           0           0           1           1           1           0
 AtZEff=  -0.0000000  -0.0000000  -0.0000000  -0.0000000  -0.0000000  -0.0000000  -0.0000000  -0.0000000  -0.0000000  -0.0000000
 NQMom=    0.0000000   0.0000000   0.0000000   0.0000000   0.0000000   0.0000000   0.0000000   0.0000000   0.0000000   0.0000000
 NMagM=    0.0000000   0.0000000   0.0000000   0.0000000   0.0000000   0.0000000   2.7928460   2.7928460   2.7928460   0.0000000
 AtZNuc=   6.0000000   6.0000000   6.0000000   6.0000000   6.0000000   6.0000000   1.0000000   1.0000000   1.0000000   6.0000000

  Atom        11          12          13          14          15          16          17          18          19          20
 IAtWgt=          12          12          12          12          12           1           1           1           1           1
 AtmWgt=  12.0000000  12.0000000  12.0000000  12.0000000  12.0000000   1.0078250   1.0078250   1.0078250   1.0078250   1.0078250
 NucSpn=           0           0           0           0           0           1           1           1           1           1
 AtZEff=  -0.0000000  -0.0000000  -0.0000000  -0.0000000  -0.0000000  -0.0000000  -0.0000000  -0.0000000  -0.0000000  -0.0000000
 NQMom=    0.0000000   0.0000000   0.0000000   0.0000000   0.0000000   0.0000000   0.0000000   0.0000000   0.0000000   0.0000000
 NMagM=    0.0000000   0.0000000   0.0000000   0.0000000   0.0000000   2.7928460   2.7928460   2.7928460   2.7928460   2.7928460
 AtZNuc=   6.0000000   6.0000000   6.0000000   6.0000000   6.0000000   1.0000000   1.0000000   1.0000000   1.0000000   1.0000000

  Atom        21          22          23          24          25          26          27          28          29          30
 IAtWgt=          14          12          12          12          12          12          12           1           1           1
 AtmWgt=  14.0030740  12.0000000  12.0000000  12.0000000  12.0000000  12.0000000  12.0000000   1.0078250   1.0078250   1.0078250
 NucSpn=           2           0           0           0           0           0           0           1           1           1
 AtZEff=  -0.0000000  -0.0000000  -0.0000000  -0.0000000  -0.0000000  -0.0000000  -0.0000000  -0.0000000  -0.0000000  -0.0000000
 NQMom=    2.0440000   0.0000000   0.0000000   0.0000000   0.0000000   0.0000000   0.0000000   0.0000000   0.0000000   0.0000000
 NMagM=    0.4037610   0.0000000   0.0000000   0.0000000   0.0000000   0.0000000   0.0000000   2.7928460   2.7928460   2.7928460
 AtZNuc=   7.0000000   6.0000000   6.0000000   6.0000000   6.0000000   6.0000000   6.0000000   1.0000000   1.0000000   1.0000000

  Atom        31          32          33          34          35          36          37          38          39          40
 IAtWgt=           1           1          12          12          12          12          12          12           1           1
 AtmWgt=   1.0078250   1.0078250  12.0000000  12.0000000  12.0000000  12.0000000  12.0000000  12.0000000   1.0078250   1.0078250
 NucSpn=           1           1           0           0           0           0           0           0           1           1
 AtZEff=  -0.0000000  -0.0000000  -0.0000000  -0.0000000  -0.0000000  -0.0000000  -0.0000000  -0.0000000  -0.0000000  -0.0000000
 NQMom=    0.0000000   0.0000000   0.0000000   0.0000000   0.0000000   0.0000000   0.0000000   0.0000000   0.0000000   0.0000000
 NMagM=    2.7928460   2.7928460   0.0000000   0.0000000   0.0000000   0.0000000   0.0000000   0.0000000   2.7928460   2.7928460
 AtZNuc=   1.0000000   1.0000000   6.0000000   6.0000000   6.0000000   6.0000000   6.0000000   6.0000000   1.0000000   1.0000000

  Atom        41          42          43          44          45          46          47          48          49          50
 IAtWgt=           1           1           1          14          12          12          12          12          12          12
 AtmWgt=   1.0078250   1.0078250   1.0078250  14.0030740  12.0000000  12.0000000  12.0000000  12.0000000  12.0000000  12.0000000
 NucSpn=           1           1           1           2           0           0           0           0           0           0
 AtZEff=  -0.0000000  -0.0000000  -0.0000000  -0.0000000  -0.0000000  -0.0000000  -0.0000000  -0.0000000  -0.0000000  -0.0000000
 NQMom=    0.0000000   0.0000000   0.0000000   2.0440000   0.0000000   0.0000000   0.0000000   0.0000000   0.0000000   0.0000000
 NMagM=    2.7928460   2.7928460   2.7928460   0.4037610   0.0000000   0.0000000   0.0000000   0.0000000   0.0000000   0.0000000
 AtZNuc=   1.0000000   1.0000000   1.0000000   7.0000000   6.0000000   6.0000000   6.0000000   6.0000000   6.0000000   6.0000000

  Atom        51          52          53          54          55          56          57          58          59          60
 IAtWgt=           1           1           1           1           1          12          12          12          12          12
 AtmWgt=   1.0078250   1.0078250   1.0078250   1.0078250   1.0078250  12.0000000  12.0000000  12.0000000  12.0000000  12.0000000
 NucSpn=           1           1           1           1           1           0           0           0           0           0
 AtZEff=  -0.0000000  -0.0000000  -0.0000000  -0.0000000  -0.0000000  -0.0000000  -0.0000000  -0.0000000  -0.0000000  -0.0000000
 NQMom=    0.0000000   0.0000000   0.0000000   0.0000000   0.0000000   0.0000000   0.0000000   0.0000000   0.0000000   0.0000000
 NMagM=    2.7928460   2.7928460   2.7928460   2.7928460   2.7928460   0.0000000   0.0000000   0.0000000   0.0000000   0.0000000
 AtZNuc=   1.0000000   1.0000000   1.0000000   1.0000000   1.0000000   6.0000000   6.0000000   6.0000000   6.0000000   6.0000000

  Atom        61          62          63          64          65          66
 IAtWgt=          12           1           1           1           1           1
 AtmWgt=  12.0000000   1.0078250   1.0078250   1.0078250   1.0078250   1.0078250
 NucSpn=           0           1           1           1           1           1
 AtZEff=  -0.0000000  -0.0000000  -0.0000000  -0.0000000  -0.0000000  -0.0000000
 NQMom=    0.0000000   0.0000000   0.0000000   0.0000000   0.0000000   0.0000000
 NMagM=    0.0000000   2.7928460   2.7928460   2.7928460   2.7928460   2.7928460
 AtZNuc=   6.0000000   1.0000000   1.0000000   1.0000000   1.0000000   1.0000000
 Leave Link  101 at Mon Jan 18 03:05:07 2021, MaxMem=  4026531840 cpu:               0.7 elap:               0.1
 (Enter /opt/ohpc/pub/libs/gaussian/g16-A.03/sandybridge/g16/l202.exe)
 Stoichiometry    C36H28N2(1+,2)
 Framework group  C1[X(C36H28N2)]
 Deg. of freedom   192
 Full point group                 C1      NOp   1
 Largest Abelian subgroup         C1      NOp   1
 Largest concise Abelian subgroup C1      NOp   1
                         Standard orientation:                         
 ---------------------------------------------------------------------
 Center     Atomic      Atomic             Coordinates (Angstroms)
 Number     Number       Type             X           Y           Z
 ---------------------------------------------------------------------
      1          6           0       -2.849999   -1.125861   -0.415638
      2          6           0       -3.563139   -0.000026    0.000017
      3          6           0       -1.464492   -1.123667   -0.405534
      4          6           0       -2.850033    1.125752    0.415809
      5          6           0       -0.741288   -0.000047    0.000195
      6          6           0       -1.464504    1.123547    0.405879
      7          1           0       -0.931596   -2.005844   -0.756198
      8          1           0       -3.391048    2.006254    0.754990
      9          1           0       -0.931669    2.005728    0.756629
     10          6           0        0.741437   -0.000073    0.000217
     11          6           0        1.464635    1.123165   -0.406556
     12          6           0        1.464638   -1.123302    0.406976
     13          6           0        2.850149    1.125343   -0.416610
     14          6           0        2.850163   -1.125491    0.416935
     15          6           0        3.563257   -0.000095    0.000116
     16          1           0        0.931751    2.005025   -0.758038
     17          1           0        0.931783   -2.005140    0.758553
     18          1           0        3.391193    2.005527   -0.756576
     19          1           0        3.391211   -2.005669    0.756913
     20          1           0       -3.391005   -2.006357   -0.754845
     21          7           0        4.978430   -0.000102    0.000065
     22          6           0        5.687099   -1.154578   -0.414287
     23          6           0        6.831881   -1.566674    0.271150
     24          6           0        5.251323   -1.896933   -1.513908
     25          6           0        7.528311   -2.692826   -0.143324
     26          6           0        5.943392   -3.032223   -1.910440
     27          6           0        7.087522   -3.435368   -1.232277
     28          1           0        7.173684   -0.995181    1.131117
     29          1           0        4.363437   -1.577947   -2.055099
     30          1           0        8.419174   -2.999763    0.401550
     31          1           0        5.589860   -3.599797   -2.769285
     32          1           0        7.631852   -4.321852   -1.550225
     33          6           0        5.687025    1.154532    0.414292
     34          6           0        6.831191    1.567225   -0.271802
     35          6           0        5.251707    1.896381    1.514415
     36          6           0        7.527485    2.693516    0.142525
     37          6           0        5.943620    3.031828    1.910808
     38          6           0        7.087137    3.435581    1.231989
     39          1           0        7.172616    0.996083   -1.132151
     40          1           0        4.364291    1.576910    2.056093
     41          1           0        8.417875    3.000945   -0.402845
     42          1           0        5.590451    3.599029    2.770050
     43          1           0        7.631350    4.322181    1.549815
     44          7           0       -4.978266    0.000020   -0.000103
     45          6           0       -5.686990    1.154558   -0.414335
     46          6           0       -6.831289    1.566980    0.271699
     47          6           0       -5.251761    1.896543   -1.514410
     48          6           0       -7.527834    2.693112   -0.142653
     49          6           0       -5.943923    3.031822   -1.910819
     50          6           0       -7.087590    3.435293   -1.232069
     51          1           0       -7.172649    0.995729    1.132000
     52          1           0       -4.364233    1.577285   -2.056034
     53          1           0       -8.418333    3.000297    0.402674
     54          1           0       -5.590850    3.599137   -2.770027
     55          1           0       -7.631979    4.321768   -1.549941
     56          6           0       -5.687017   -1.154516    0.414141
     57          6           0       -6.831068   -1.567191   -0.272109
     58          6           0       -5.251977   -1.896199    1.514492
     59          6           0       -7.527566   -2.693348    0.142281
     60          6           0       -5.944079   -3.031486    1.910953
     61          6           0       -7.087509   -3.435246    1.231958
     62          1           0       -7.172277   -0.996155   -1.132614
     63          1           0       -4.364636   -1.576682    2.056275
     64          1           0       -8.417864   -3.000787   -0.403227
     65          1           0       -5.591165   -3.598572    2.770374
     66          1           0       -7.631874   -4.321730    1.549857
 ---------------------------------------------------------------------
 Rotational constants (GHZ):           0.2023709           0.0339547           0.0306836
 Leave Link  202 at Mon Jan 18 03:05:07 2021, MaxMem=  4026531840 cpu:               0.2 elap:               0.0
 (Enter /opt/ohpc/pub/libs/gaussian/g16-A.03/sandybridge/g16/l301.exe)
 Standard basis: TZVP (5D, 7F)
 Ernie: Thresh=  0.10000D-02 Tol=  0.10000D-05 Strict=F.
 There are   928 symmetry adapted cartesian basis functions of A   symmetry.
 There are   890 symmetry adapted basis functions of A   symmetry.
   890 basis functions,  1554 primitive gaussians,   928 cartesian basis functions
   129 alpha electrons      128 beta electrons
       nuclear repulsion energy      3528.7655398436 Hartrees.
 IExCor=33909 DFT=T Ex+Corr=LC-wHPBE ExCW=0 ScaHFX=  1.000000
 ScaDFX=  1.000000  1.000000  1.000000  1.000000 ScalE2=  1.000000  1.000000
 IRadAn=      5 IRanWt=     -1 IRanGd=            0 ICorTp=0 IEmpDi=  4
 HFx  wShort=  0.000000 wLong=  0.167700 cFull=  0.000000 cShort=  0.000000 cLong=  1.000000
 DFx  wShort=  0.000000 wLong=  0.167700 cFull=  0.000000 cShort=  1.000000 cLong=  0.000000
 NAtoms=   66 NActive=   66 NUniq=   66 SFac= 1.00D+00 NAtFMM=   60 NAOKFM=T Big=T
 Integral buffers will be    131072 words long.
 Raffenetti 2 integral format.
 Two-electron integral symmetry is turned on.
 Leave Link  301 at Mon Jan 18 03:05:07 2021, MaxMem=  4026531840 cpu:               0.4 elap:               0.1
 (Enter /opt/ohpc/pub/libs/gaussian/g16-A.03/sandybridge/g16/l302.exe)
 NPDir=0 NMtPBC=     1 NCelOv=     1 NCel=       1 NClECP=     1 NCelD=      1
         NCelK=      1 NCelE2=     1 NClLst=     1 CellRange=     0.0.
 One-electron integrals computed using PRISM.
 One-electron integral symmetry used in STVInt
 NBasis=   890 RedAO= T EigKep=  6.71D-06  NBF=   890
 NBsUse=   890 1.00D-06 EigRej= -1.00D+00 NBFU=   890
 Precomputing XC quadrature grid using
 IXCGrd= 4 IRadAn=           5 IRanWt=          -1 IRanGd=           0 AccXCQ= 0.00D+00.
 Generated NRdTot=       0 NPtTot=           0 NUsed=           0 NTot=          32
 NSgBfM=   852   844   846   852   852 MxSgAt=    66 MxSgA2=    66.
 Leave Link  302 at Mon Jan 18 03:05:09 2021, MaxMem=  4026531840 cpu:              17.2 elap:               2.2
 (Enter /opt/ohpc/pub/libs/gaussian/g16-A.03/sandybridge/g16/l303.exe)
 DipDrv:  MaxL=1.
 Leave Link  303 at Mon Jan 18 03:05:09 2021, MaxMem=  4026531840 cpu:               1.1 elap:               0.2
 (Enter /opt/ohpc/pub/libs/gaussian/g16-A.03/sandybridge/g16/l401.exe)
 ExpMin= 9.52D-02 ExpMax= 1.97D+04 ExpMxC= 6.73D+02 IAcc=3 IRadAn=         5 AccDes= 0.00D+00
 Harris functional with IExCor=33909 and IRadAn=       5 diagonalized for initial guess.
 HarFok:  IExCor=33909 AccDes= 0.00D+00 IRadAn=         5 IDoV= 1 UseB2=F ITyADJ=14
 ICtDFT=  3500011 ScaDFX=  1.000000  1.000000  1.000000  1.000000
 FoFCou: FMM=F IPFlag=           0 FMFlag=      100000 FMFlg1=        2001
         NFxFlg=           0 DoJE=T BraDBF=F KetDBF=T FulRan=T
         wScrn=  0.000000 ICntrl=       500 IOpCl=  0 I1Cent=   200000004 NGrid=           0
         NMat0=    1 NMatS0=      1 NMatT0=    0 NMatD0=    1 NMtDS0=    0 NMtDT0=    0
 Petite list used in FoFCou.
 Harris En= -1473.89738597272    
 JPrj=0 DoOrth=F DoCkMO=F.
 Initial guess <Sx>= 0.0000 <Sy>= 0.0000 <Sz>= 0.5000 <S**2>= 0.7500 S= 0.5000
 Leave Link  401 at Mon Jan 18 03:05:19 2021, MaxMem=  4026531840 cpu:              80.4 elap:              10.2
 (Enter /opt/ohpc/pub/libs/gaussian/g16-A.03/sandybridge/g16/l502.exe)
 Integral symmetry usage will be decided dynamically.
 UHF open shell SCF:
 Using DIIS extrapolation, IDIIS=    10.
 NGot=  4026531840 LenX=  4024793050 LenY=  4023930938
 Requested convergence on RMS density matrix=1.00D-06 within  32 cycles.
 Requested convergence on MAX density matrix=1.00D-04.
 Requested convergence on             energy=1.00D-04.
 Virtual orbitals will be shifted by   0.500 hartree.
 No special actions if energy rises.
 Dynamic level shift is on during FON iterations.

 Cycle   1  Pass 1  IDiag  1:
 FoFJK:  IHMeth= 1 ICntrl=       0 DoSepK=T KAlg= 0 I1Cent=           0 FoldK=F
 IRaf=         1 NMat=       1 IRICut=       1 DoRegI=T DoRafI=F ISym2E= 0 IDoP0=0 IntGTp=1.
 FoFCou: FMM=T IPFlag=           0 FMFlag=      100000 FMFlg1=        2001
         NFxFlg=           0 DoJE=T BraDBF=F KetDBF=F FulRan=T
         wScrn=  0.000000 ICntrl=       500 IOpCl=  0 I1Cent=           0 NGrid=           0
         NMat0=    1 NMatS0=      1 NMatT0=    0 NMatD0=    1 NMtDS0=    0 NMtDT0=    0
 Symmetry not used in FoFCou.
 FMM levels:  10  Number of levels for PrismC:   9
 E= -1496.31077776922    
 DIIS: error= 3.13D-02 at cycle   1 NSaved=   1.
 NSaved= 1 IEnMin= 1 EnMin= -1496.31077776922     IErMin= 1 ErrMin= 3.13D-02
 ErrMax= 3.13D-02  0.00D+00 EMaxC= 1.00D+00 BMatC= 2.52D+00 BMatP= 2.52D+00
 IDIUse=1 WtCom= 1.00D+00 WtEn= 0.00D+00
 Coeff-Com:  0.100D+01
 Coeff:      0.100D+01
 Gap=     0.277 Goal=   None    Shift=    0.500
 T= 1522. Gap= 0.715 NK=0 IS=  130 IE=  890 IFin=  129
          NO(<0.9)=   0  NV(>0.1)=   0    129.00e < EF      0.00e >EF  Err=0.0D+00
 Gap=     0.079 Goal=   None    Shift=    0.500
 T= 1522. Gap= 0.531 NK=0 IS=  129 IE=  890 IFin=  128
          NO(<0.9)=   0  NV(>0.1)=   0    128.00e < EF      0.00e >EF  Err=0.0D+00
 GapD=    0.079 DampG=0.500 DampE=0.500 DampFc=0.2500 IDamp=-1.
 Damping current iteration by 2.50D-01
 RMSDP=2.03D-03 MaxDP=7.41D-02              OVMax= 9.95D-02

 Cycle   2  Pass 1  IDiag  1:
 E= -1496.54126090654     Delta-E=       -0.230483137311 Rises=F Damp=T
 DIIS: error= 2.28D-02 at cycle   2 NSaved=   2.
 NSaved= 2 IEnMin= 2 EnMin= -1496.54126090654     IErMin= 2 ErrMin= 2.28D-02
 ErrMax= 2.28D-02  0.00D+00 EMaxC= 1.00D+00 BMatC= 1.18D+00 BMatP= 2.52D+00
 IDIUse=1 WtCom= 1.00D+00 WtEn= 0.00D+00
 Coeff-Com: -0.193D+01 0.293D+01
 Coeff:     -0.193D+01 0.293D+01
 Gap=     0.264 Goal=   None    Shift=    0.500
 T= 1465. Gap= 0.728 NK=0 IS=  130 IE=  890 IFin=  129
          NO(<0.9)=   0  NV(>0.1)=   0    129.00e < EF      0.00e >EF  Err=0.0D+00
 Gap=     0.115 Goal=   None    Shift=    0.500
 T= 1465. Gap= 0.573 NK=0 IS=  129 IE=  890 IFin=  128
          NO(<0.9)=   0  NV(>0.1)=   0    128.00e < EF      0.00e >EF  Err=0.0D+00
 GapD=    0.115 DampG=1.000 DampE=0.500 DampFc=0.5000 IDamp=-1.
 Damping current iteration by 5.00D-01
 RMSDP=1.49D-03 MaxDP=7.42D-02 DE=-2.30D-01 OVMax= 3.27D-02

 Cycle   3  Pass 1  IDiag  1:
 E= -1496.78019695304     Delta-E=       -0.238936046499 Rises=F Damp=T
 DIIS: error= 1.05D-02 at cycle   3 NSaved=   3.
 NSaved= 3 IEnMin= 3 EnMin= -1496.78019695304     IErMin= 3 ErrMin= 1.05D-02
 ErrMax= 1.05D-02  0.00D+00 EMaxC= 1.00D+00 BMatC= 2.29D-01 BMatP= 1.18D+00
 IDIUse=1 WtCom= 1.00D+00 WtEn= 0.00D+00
 Coeff-Com:  0.333D-01-0.822D+00 0.179D+01
 Coeff:      0.333D-01-0.822D+00 0.179D+01
 Gap=     0.244 Goal=   None    Shift=    0.500
 T= 1297. Gap= 0.742 NK=4 IS=  130 IE=  145 IFin=  129
          NO(<0.9)=   0  NV(>0.1)=   0    129.00e < EF      0.00e >EF  Err=0.0D+00
 Gap=     0.078 Goal=   None    Shift=    0.500
 T= 1297. Gap= 0.576 NK=4 IS=  129 IE=  143 IFin=  128
          NO(<0.9)=   0  NV(>0.1)=   0    128.00e < EF      0.00e >EF  Err=0.0D+00
 GapD=    0.078 DampG=0.500 DampE=0.500 DampFc=0.2500 IDamp=-1.
 Damping current iteration by 2.50D-01
 RMSDP=7.61D-04 MaxDP=4.49D-02 DE=-2.39D-01 OVMax= 1.07D-02

 Cycle   4  Pass 1  IDiag  1:
 E= -1496.82696468349     Delta-E=       -0.046767730453 Rises=F Damp=T
 DIIS: error= 7.77D-03 at cycle   4 NSaved=   4.
 NSaved= 4 IEnMin= 4 EnMin= -1496.82696468349     IErMin= 4 ErrMin= 7.77D-03
 ErrMax= 7.77D-03  0.00D+00 EMaxC= 1.00D+00 BMatC= 1.21D-01 BMatP= 2.29D-01
 IDIUse=1 WtCom= 1.00D+00 WtEn= 0.00D+00
 Coeff-Com:  0.198D+00-0.317D+00-0.270D+01 0.381D+01
 Coeff:      0.198D+00-0.317D+00-0.270D+01 0.381D+01
 Gap=     0.240 Goal=   None    Shift=    0.500
 T= 1025. Gap= 0.740 NK=4 IS=  130 IE=  146 IFin=  129
          NO(<0.9)=   0  NV(>0.1)=   0    129.00e < EF      0.00e >EF  Err=0.0D+00
 Gap=     0.077 Goal=   None    Shift=    0.500
 T= 1025. Gap= 0.577 NK=4 IS=  129 IE=  143 IFin=  128
          NO(<0.9)=   0  NV(>0.1)=   0    128.00e < EF      0.00e >EF  Err=0.0D+00
 GapD=    0.077 DampG=0.500 DampE=1.000 DampFc=0.5000 IDamp=-1.
 Damping current iteration by 5.00D-01
 RMSDP=5.66D-04 MaxDP=3.77D-02 DE=-4.68D-02 OVMax= 8.58D-03

 Cycle   5  Pass 1  IDiag  1:
 E= -1496.88997337046     Delta-E=       -0.063008686975 Rises=F Damp=T
 DIIS: error= 3.84D-03 at cycle   5 NSaved=   5.
 NSaved= 5 IEnMin= 5 EnMin= -1496.88997337046     IErMin= 5 ErrMin= 3.84D-03
 ErrMax= 3.84D-03  0.00D+00 EMaxC= 1.00D+00 BMatC= 2.83D-02 BMatP= 1.21D-01
 IDIUse=1 WtCom= 1.00D+00 WtEn= 0.00D+00
 Coeff-Com:  0.602D-01-0.433D-01 0.313D+00-0.171D+01 0.238D+01
 Coeff:      0.602D-01-0.433D-01 0.313D+00-0.171D+01 0.238D+01
 Gap=     0.241 Goal=   None    Shift=    0.500
 T=  654. Gap= 0.741 NK=4 IS=  130 IE=  146 IFin=  129
          NO(<0.9)=   0  NV(>0.1)=   0    129.00e < EF      0.00e >EF  Err=0.0D+00
 Gap=     0.078 Goal=   None    Shift=    0.500
 T=  654. Gap= 0.578 NK=4 IS=  129 IE=  143 IFin=  128
          NO(<0.9)=   0  NV(>0.1)=   0    128.00e < EF      0.00e >EF  Err=0.0D+00
 GapD=    0.078 DampG=0.500 DampE=1.000 DampFc=0.5000 IDamp=-1.
 Damping current iteration by 5.00D-01
 RMSDP=2.95D-04 MaxDP=2.08D-02 DE=-6.30D-02 OVMax= 7.15D-03

 Cycle   6  Pass 1  IDiag  1:
 E= -1496.91897275997     Delta-E=       -0.028999389504 Rises=F Damp=T
 DIIS: error= 1.91D-03 at cycle   6 NSaved=   6.
 NSaved= 6 IEnMin= 6 EnMin= -1496.91897275997     IErMin= 6 ErrMin= 1.91D-03
 ErrMax= 1.91D-03  0.00D+00 EMaxC= 1.00D+00 BMatC= 6.99D-03 BMatP= 2.83D-02
 IDIUse=1 WtCom= 1.00D+00 WtEn= 0.00D+00
 Coeff-Com: -0.322D-01 0.588D-01 0.727D+00-0.983D+00-0.141D+01 0.264D+01
 Coeff:     -0.322D-01 0.588D-01 0.727D+00-0.983D+00-0.141D+01 0.264D+01
 Gap=     0.242 Goal=   None    Shift=    0.500
 T=  359. Gap= 0.742 NK=4 IS=  130 IE=  146 IFin=  129
          NO(<0.9)=   0  NV(>0.1)=   0    129.00e < EF      0.00e >EF  Err=0.0D+00
 Gap=     0.079 Goal=   None    Shift=    0.500
 T=  359. Gap= 0.579 NK=4 IS=  129 IE=  143 IFin=  128
          NO(<0.9)=   0  NV(>0.1)=   0    128.00e < EF      0.00e >EF  Err=0.0D+00
 GapD=    0.079 DampG=0.500 DampE=1.000 DampFc=0.5000 IDamp=-1.
 Damping current iteration by 5.00D-01
 RMSDP=1.70D-04 MaxDP=1.15D-02 DE=-2.90D-02 OVMax= 6.44D-03

 Cycle   7  Pass 1  IDiag  1:
 E= -1496.93302957393     Delta-E=       -0.014056813958 Rises=F Damp=T
 DIIS: error= 1.14D-03 at cycle   7 NSaved=   7.
 NSaved= 7 IEnMin= 7 EnMin= -1496.93302957393     IErMin= 7 ErrMin= 1.14D-03
 ErrMax= 1.14D-03  0.00D+00 EMaxC= 1.00D+00 BMatC= 1.83D-03 BMatP= 6.99D-03
 IDIUse=1 WtCom= 1.00D+00 WtEn= 0.00D+00
 Coeff-Com: -0.208D-01 0.211D-01-0.120D+00 0.554D+00-0.827D-01-0.336D+01
 Coeff-Com:  0.401D+01
 Coeff:     -0.208D-01 0.211D-01-0.120D+00 0.554D+00-0.827D-01-0.336D+01
 Coeff:      0.401D+01
 Gap=     0.242 Goal=   None    Shift=    0.500
 Gap=     0.080 Goal=   None    Shift=    0.500
 GapD=    0.080 DampG=0.500 DampE=1.000 DampFc=0.5000 IDamp=-1.
 Damping current iteration by 5.00D-01
 RMSDP=1.09D-04 MaxDP=6.40D-03 DE=-1.41D-02 OVMax= 6.21D-03

 Cycle   8  Pass 1  IDiag  1:
 E= -1496.94000579904     Delta-E=       -0.006976225111 Rises=F Damp=T
 DIIS: error= 9.46D-04 at cycle   8 NSaved=   8.
 NSaved= 8 IEnMin= 8 EnMin= -1496.94000579904     IErMin= 8 ErrMin= 9.46D-04
 ErrMax= 9.46D-04  0.00D+00 EMaxC= 1.00D+00 BMatC= 5.12D-04 BMatP= 1.83D-03
 IDIUse=1 WtCom= 1.00D+00 WtEn= 0.00D+00
 Coeff-Com:  0.626D-02-0.876D-02-0.347D+00 0.495D+00 0.755D+00-0.130D+01
 Coeff-Com: -0.271D+01 0.411D+01
 Coeff:      0.626D-02-0.876D-02-0.347D+00 0.495D+00 0.755D+00-0.130D+01
 Coeff:     -0.271D+01 0.411D+01
 Gap=     0.242 Goal=   None    Shift=    0.500
 Gap=     0.080 Goal=   None    Shift=    0.500
 RMSDP=7.13D-05 MaxDP=3.82D-03 DE=-6.98D-03 OVMax= 5.47D-03

 Cycle   9  Pass 1  IDiag  1:
 E= -1496.94703564443     Delta-E=       -0.007029845396 Rises=F Damp=F
 DIIS: error= 6.29D-04 at cycle   9 NSaved=   9.
 NSaved= 9 IEnMin= 9 EnMin= -1496.94703564443     IErMin= 9 ErrMin= 6.29D-04
 ErrMax= 6.29D-04  0.00D+00 EMaxC= 1.00D+00 BMatC= 2.99D-05 BMatP= 5.12D-04
 IDIUse=1 WtCom= 1.00D+00 WtEn= 0.00D+00
 Coeff-Com:  0.112D-01-0.786D-02-0.170D+00-0.447D-02 0.696D+00 0.786D+00
 Coeff-Com: -0.325D+01 0.123D+01 0.171D+01
 Coeff:      0.112D-01-0.786D-02-0.170D+00-0.447D-02 0.696D+00 0.786D+00
 Coeff:     -0.325D+01 0.123D+01 0.171D+01
 Gap=     0.242 Goal=   None    Shift=    0.500
 Gap=     0.081 Goal=   None    Shift=    0.500
 RMSDP=1.67D-05 MaxDP=1.43D-03 DE=-7.03D-03 OVMax= 4.94D-03

 Cycle  10  Pass 1  IDiag  1:
 E= -1496.94708944450     Delta-E=       -0.000053800070 Rises=F Damp=F
 DIIS: error= 4.93D-04 at cycle  10 NSaved=  10.
 NSaved=10 IEnMin=10 EnMin= -1496.94708944450     IErMin=10 ErrMin= 4.93D-04
 ErrMax= 4.93D-04  0.00D+00 EMaxC= 1.00D+00 BMatC= 1.86D-05 BMatP= 2.99D-05
 IDIUse=1 WtCom= 1.00D+00 WtEn= 0.00D+00
 Coeff-Com: -0.422D-02 0.122D-01 0.960D-01-0.272D+00-0.236D-01 0.863D+00
 Coeff-Com:  0.488D+00-0.224D+01-0.291D+00 0.237D+01
 Coeff:     -0.422D-02 0.122D-01 0.960D-01-0.272D+00-0.236D-01 0.863D+00
 Coeff:      0.488D+00-0.224D+01-0.291D+00 0.237D+01
 Gap=     0.242 Goal=   None    Shift=    0.500
 Gap=     0.081 Goal=   None    Shift=    0.500
 RMSDP=1.32D-05 MaxDP=1.02D-03 DE=-5.38D-05 OVMax= 4.29D-03

 Cycle  11  Pass 1  IDiag  1:
 E= -1496.94712536764     Delta-E=       -0.000035923138 Rises=F Damp=F
 DIIS: error= 3.81D-04 at cycle  11 NSaved=  11.
 NSaved=11 IEnMin=11 EnMin= -1496.94712536764     IErMin=11 ErrMin= 3.81D-04
 ErrMax= 3.81D-04  0.00D+00 EMaxC= 1.00D+00 BMatC= 1.20D-05 BMatP= 1.86D-05
 IDIUse=1 WtCom= 1.00D+00 WtEn= 0.00D+00
 Coeff-Com: -0.917D-02 0.133D-01 0.114D+00-0.119D+00-0.348D+00 0.339D-01
 Coeff-Com:  0.219D+01-0.234D+01-0.929D+00 0.399D+00 0.199D+01
 Coeff:     -0.917D-02 0.133D-01 0.114D+00-0.119D+00-0.348D+00 0.339D-01
 Coeff:      0.219D+01-0.234D+01-0.929D+00 0.399D+00 0.199D+01
 Gap=     0.242 Goal=   None    Shift=    0.500
 Gap=     0.082 Goal=   None    Shift=    0.500
 RMSDP=1.01D-05 MaxDP=7.82D-04 DE=-3.59D-05 OVMax= 3.59D-03

 Cycle  12  Pass 1  IDiag  1:
 E= -1496.94714888836     Delta-E=       -0.000023520720 Rises=F Damp=F
 DIIS: error= 3.23D-04 at cycle  12 NSaved=  12.
 NSaved=12 IEnMin=12 EnMin= -1496.94714888836     IErMin=12 ErrMin= 3.23D-04
 ErrMax= 3.23D-04  0.00D+00 EMaxC= 1.00D+00 BMatC= 7.64D-06 BMatP= 1.20D-05
 IDIUse=1 WtCom= 1.00D+00 WtEn= 0.00D+00
 Coeff-Com: -0.159D-02-0.158D-02-0.160D-01 0.145D+00-0.213D+00-0.518D+00
 Coeff-Com:  0.994D+00-0.265D-01-0.170D+00-0.169D+01-0.236D+00 0.273D+01
 Coeff:     -0.159D-02-0.158D-02-0.160D-01 0.145D+00-0.213D+00-0.518D+00
 Coeff:      0.994D+00-0.265D-01-0.170D+00-0.169D+01-0.236D+00 0.273D+01
 Gap=     0.242 Goal=   None    Shift=    0.500
 Gap=     0.082 Goal=   None    Shift=    0.500
 RMSDP=8.91D-06 MaxDP=7.09D-04 DE=-2.35D-05 OVMax= 3.28D-03

 Cycle  13  Pass 1  IDiag  1:
 E= -1496.94716480384     Delta-E=       -0.000015915480 Rises=F Damp=F
 DIIS: error= 2.75D-04 at cycle  13 NSaved=  13.
 NSaved=13 IEnMin=13 EnMin= -1496.94716480384     IErMin=13 ErrMin= 2.75D-04
 ErrMax= 2.75D-04  0.00D+00 EMaxC= 1.00D+00 BMatC= 5.27D-06 BMatP= 7.64D-06
 IDIUse=1 WtCom= 1.00D+00 WtEn= 0.00D+00
 Coeff-Com:  0.321D-02-0.498D-02-0.571D-01 0.106D+00 0.263D-01-0.868D-01
 Coeff-Com: -0.525D+00 0.754D+00 0.545D+00-0.763D+00-0.187D+01 0.712D+00
 Coeff-Com:  0.216D+01
 Coeff:      0.321D-02-0.498D-02-0.571D-01 0.106D+00 0.263D-01-0.868D-01
 Coeff:     -0.525D+00 0.754D+00 0.545D+00-0.763D+00-0.187D+01 0.712D+00
 Coeff:      0.216D+01
 Gap=     0.242 Goal=   None    Shift=    0.500
 Gap=     0.082 Goal=   None    Shift=    0.500
 RMSDP=6.57D-06 MaxDP=5.13D-04 DE=-1.59D-05 OVMax= 2.72D-03

 Cycle  14  Pass 1  IDiag  1:
 E= -1496.94717475339     Delta-E=       -0.000009949547 Rises=F Damp=F
 DIIS: error= 2.33D-04 at cycle  14 NSaved=  14.
 NSaved=14 IEnMin=14 EnMin= -1496.94717475339     IErMin=14 ErrMin= 2.33D-04
 ErrMax= 2.33D-04  0.00D+00 EMaxC= 1.00D+00 BMatC= 3.55D-06 BMatP= 5.27D-06
 IDIUse=1 WtCom= 1.00D+00 WtEn= 0.00D+00
 Coeff-Com:  0.358D-02-0.259D-02-0.354D-01-0.941D-02 0.137D+00 0.316D+00
 Coeff-Com: -0.966D+00 0.390D+00 0.687D+00 0.623D+00-0.190D+01-0.813D+00
 Coeff-Com:  0.384D+00 0.219D+01
 Coeff:      0.358D-02-0.259D-02-0.354D-01-0.941D-02 0.137D+00 0.316D+00
 Coeff:     -0.966D+00 0.390D+00 0.687D+00 0.623D+00-0.190D+01-0.813D+00
 Coeff:      0.384D+00 0.219D+01
 Gap=     0.242 Goal=   None    Shift=    0.500
 Gap=     0.082 Goal=   None    Shift=    0.500
 RMSDP=5.11D-06 MaxDP=3.91D-04 DE=-9.95D-06 OVMax= 2.31D-03

 Cycle  15  Pass 1  IDiag  1:
 E= -1496.94718119851     Delta-E=       -0.000006445119 Rises=F Damp=F
 DIIS: error= 1.97D-04 at cycle  15 NSaved=  15.
 NSaved=15 IEnMin=15 EnMin= -1496.94718119851     IErMin=15 ErrMin= 1.97D-04
 ErrMax= 1.97D-04  0.00D+00 EMaxC= 1.00D+00 BMatC= 2.54D-06 BMatP= 3.55D-06
 IDIUse=1 WtCom= 1.00D+00 WtEn= 0.00D+00
 Coeff-Com: -0.251D-02 0.369D-02 0.419D-01-0.653D-01-0.775D-01 0.599D-01
 Coeff-Com:  0.816D+00-0.113D+01-0.156D+00 0.716D+00 0.581D+00 0.305D+00
 Coeff-Com: -0.315D+01-0.137D+00 0.319D+01
 Coeff:     -0.251D-02 0.369D-02 0.419D-01-0.653D-01-0.775D-01 0.599D-01
 Coeff:      0.816D+00-0.113D+01-0.156D+00 0.716D+00 0.581D+00 0.305D+00
 Coeff:     -0.315D+01-0.137D+00 0.319D+01
 Gap=     0.242 Goal=   None    Shift=    0.500
 Gap=     0.082 Goal=   None    Shift=    0.500
 RMSDP=4.13D-06 MaxDP=3.33D-04 DE=-6.45D-06 OVMax= 2.03D-03

 Cycle  16  Pass 1  IDiag  1:
 E= -1496.94718573013     Delta-E=       -0.000004531619 Rises=F Damp=F
 DIIS: error= 1.64D-04 at cycle  16 NSaved=  16.
 NSaved=16 IEnMin=16 EnMin= -1496.94718573013     IErMin=16 ErrMin= 1.64D-04
 ErrMax= 1.64D-04  0.00D+00 EMaxC= 1.00D+00 BMatC= 1.74D-06 BMatP= 2.54D-06
 IDIUse=1 WtCom= 1.00D+00 WtEn= 0.00D+00
 Coeff-Com: -0.253D-02 0.325D-02 0.168D-01 0.386D-02-0.102D+00-0.133D+00
 Coeff-Com:  0.880D+00-0.829D+00-0.129D+00-0.339D-01 0.550D+00 0.981D+00
 Coeff-Com: -0.180D+01-0.565D+00-0.270D+00 0.243D+01
 Coeff:     -0.253D-02 0.325D-02 0.168D-01 0.386D-02-0.102D+00-0.133D+00
 Coeff:      0.880D+00-0.829D+00-0.129D+00-0.339D-01 0.550D+00 0.981D+00
 Coeff:     -0.180D+01-0.565D+00-0.270D+00 0.243D+01
 Gap=     0.242 Goal=   None    Shift=    0.500
 Gap=     0.082 Goal=   None    Shift=    0.500
 RMSDP=3.13D-06 MaxDP=2.33D-04 DE=-4.53D-06 OVMax= 1.63D-03

 Cycle  17  Pass 1  IDiag  1:
 E= -1496.94718869461     Delta-E=       -0.000002964486 Rises=F Damp=F
 DIIS: error= 1.37D-04 at cycle  17 NSaved=  17.
 NSaved=17 IEnMin=17 EnMin= -1496.94718869461     IErMin=17 ErrMin= 1.37D-04
 ErrMax= 1.37D-04  0.00D+00 EMaxC= 1.00D+00 BMatC= 1.18D-06 BMatP= 1.74D-06
 IDIUse=1 WtCom= 1.00D+00 WtEn= 0.00D+00
 Coeff-Com:  0.156D-03 0.246D-03-0.235D-01 0.495D-01-0.163D-01-0.812D-01
 Coeff-Com:  0.201D-01 0.109D+00 0.200D+00-0.470D+00-0.420D+00 0.579D+00
 Coeff-Com:  0.765D+00 0.314D-01-0.261D+01 0.765D+00 0.210D+01
 Coeff:      0.156D-03 0.246D-03-0.235D-01 0.495D-01-0.163D-01-0.812D-01
 Coeff:      0.201D-01 0.109D+00 0.200D+00-0.470D+00-0.420D+00 0.579D+00
 Coeff:      0.765D+00 0.314D-01-0.261D+01 0.765D+00 0.210D+01
 Gap=     0.242 Goal=   None    Shift=    0.500
 Gap=     0.082 Goal=   None    Shift=    0.500
 RMSDP=2.47D-06 MaxDP=1.69D-04 DE=-2.96D-06 OVMax= 1.38D-03

 Cycle  18  Pass 1  IDiag  1:
 E= -1496.94719072723     Delta-E=       -0.000002032622 Rises=F Damp=F
 DIIS: error= 1.12D-04 at cycle  18 NSaved=  18.
 NSaved=18 IEnMin=18 EnMin= -1496.94719072723     IErMin=18 ErrMin= 1.12D-04
 ErrMax= 1.12D-04  0.00D+00 EMaxC= 1.00D+00 BMatC= 7.69D-07 BMatP= 1.18D-06
 IDIUse=1 WtCom= 1.00D+00 WtEn= 0.00D+00
 Coeff-Com:  0.145D-02-0.119D-02-0.172D-01 0.686D-02 0.480D-01 0.121D+00
 Coeff-Com: -0.503D+00 0.368D+00 0.281D+00-0.820D-02-0.813D+00-0.250D+00
 Coeff-Com:  0.108D+01 0.531D+00-0.572D+00-0.154D+01-0.578D+00 0.285D+01
 Coeff:      0.145D-02-0.119D-02-0.172D-01 0.686D-02 0.480D-01 0.121D+00
 Coeff:     -0.503D+00 0.368D+00 0.281D+00-0.820D-02-0.813D+00-0.250D+00
 Coeff:      0.108D+01 0.531D+00-0.572D+00-0.154D+01-0.578D+00 0.285D+01
 Gap=     0.242 Goal=   None    Shift=    0.500
 Gap=     0.082 Goal=   None    Shift=    0.500
 RMSDP=2.18D-06 MaxDP=1.58D-04 DE=-2.03D-06 OVMax= 1.20D-03

 Cycle  19  Pass 1  IDiag  1:
 E= -1496.94719212526     Delta-E=       -0.000001398030 Rises=F Damp=F
 DIIS: error= 9.25D-05 at cycle  19 NSaved=  19.
 NSaved=19 IEnMin=19 EnMin= -1496.94719212526     IErMin=19 ErrMin= 9.25D-05
 ErrMax= 9.25D-05  0.00D+00 EMaxC= 1.00D+00 BMatC= 5.67D-07 BMatP= 7.69D-07
 IDIUse=1 WtCom= 1.00D+00 WtEn= 0.00D+00
 Coeff-Com:  0.919D-03-0.605D-03 0.111D-02-0.282D-01 0.378D-01 0.172D+00
 Coeff-Com: -0.308D+00 0.252D-01 0.168D+00 0.427D+00-0.576D+00-0.406D+00
 Coeff-Com: -0.514D-02 0.540D+00 0.148D+01-0.173D+01-0.240D+01 0.196D+01
 Coeff-Com:  0.165D+01
 Coeff:      0.919D-03-0.605D-03 0.111D-02-0.282D-01 0.378D-01 0.172D+00
 Coeff:     -0.308D+00 0.252D-01 0.168D+00 0.427D+00-0.576D+00-0.406D+00
 Coeff:     -0.514D-02 0.540D+00 0.148D+01-0.173D+01-0.240D+01 0.196D+01
 Coeff:      0.165D+01
 Gap=     0.242 Goal=   None    Shift=    0.500
 Gap=     0.083 Goal=   None    Shift=    0.500
 RMSDP=1.75D-06 MaxDP=1.23D-04 DE=-1.40D-06 OVMax= 1.00D-03

 Cycle  20  Pass 1  IDiag  1:
 E= -1496.94719305122     Delta-E=       -0.000000925960 Rises=F Damp=F
 DIIS: error= 7.58D-05 at cycle  20 NSaved=  20.
 NSaved=20 IEnMin=20 EnMin= -1496.94719305122     IErMin=20 ErrMin= 7.58D-05
 ErrMax= 7.58D-05  0.00D+00 EMaxC= 1.00D+00 BMatC= 3.96D-07 BMatP= 5.67D-07
 IDIUse=1 WtCom= 1.00D+00 WtEn= 0.00D+00
 Coeff-Com: -0.181D-03 0.539D-03 0.101D-01-0.257D-01-0.103D-01 0.691D-01
 Coeff-Com:  0.199D+00-0.414D+00 0.216D-01 0.484D+00-0.129D+00-0.260D-01
 Coeff-Com: -0.108D+01 0.299D+00 0.177D+01-0.190D+00-0.208D+01-0.519D+00
 Coeff-Com:  0.503D+00 0.212D+01
 Coeff:     -0.181D-03 0.539D-03 0.101D-01-0.257D-01-0.103D-01 0.691D-01
 Coeff:      0.199D+00-0.414D+00 0.216D-01 0.484D+00-0.129D+00-0.260D-01
 Coeff:     -0.108D+01 0.299D+00 0.177D+01-0.190D+00-0.208D+01-0.519D+00
 Coeff:      0.503D+00 0.212D+01
 Gap=     0.242 Goal=   None    Shift=    0.500
 Gap=     0.083 Goal=   None    Shift=    0.500
 RMSDP=1.42D-06 MaxDP=9.66D-05 DE=-9.26D-07 OVMax= 8.67D-04

 Cycle  21  Pass 1  IDiag  1:
 E= -1496.94719367181     Delta-E=       -0.000000620589 Rises=F Damp=F
 DIIS: error= 6.10D-05 at cycle  21 NSaved=  20.
 NSaved=20 IEnMin=20 EnMin= -1496.94719367181     IErMin=20 ErrMin= 6.10D-05
 ErrMax= 6.10D-05  0.00D+00 EMaxC= 1.00D+00 BMatC= 2.75D-07 BMatP= 3.96D-07
 IDIUse=1 WtCom= 1.00D+00 WtEn= 0.00D+00
 Coeff-Com:  0.191D-03 0.348D-02-0.895D-02-0.114D-01 0.351D-01 0.146D+00
 Coeff-Com: -0.282D+00 0.611D-01 0.265D+00-0.176D+00 0.885D-01-0.632D+00
 Coeff-Com:  0.266D+00 0.696D+00 0.174D+00-0.918D+00-0.568D+00 0.913D-01
 Coeff-Com: -0.123D+00 0.189D+01
 Coeff:      0.191D-03 0.348D-02-0.895D-02-0.114D-01 0.351D-01 0.146D+00
 Coeff:     -0.282D+00 0.611D-01 0.265D+00-0.176D+00 0.885D-01-0.632D+00
 Coeff:      0.266D+00 0.696D+00 0.174D+00-0.918D+00-0.568D+00 0.913D-01
 Coeff:     -0.123D+00 0.189D+01
 Gap=     0.242 Goal=   None    Shift=    0.500
 Gap=     0.083 Goal=   None    Shift=    0.500
 RMSDP=9.65D-07 MaxDP=5.72D-05 DE=-6.21D-07 OVMax= 6.85D-04

 SCF Done:  E(ULC-wHPBE) =  -1496.94719367     A.U. after   21 cycles
            NFock= 21  Conv=0.96D-06     -V/T= 2.0046
 <Sx>= 0.0000 <Sy>= 0.0000 <Sz>= 0.5000 <S**2>= 0.7703 S= 0.5101
 <L.S>= 0.000000000000E+00
 KE= 1.490118190967D+03 PE=-1.050771599977D+04 EE= 3.991885075292D+03
 Annihilation of the first spin contaminant:
 S**2 before annihilation     0.7703,   after     0.7502
 Leave Link  502 at Mon Jan 18 03:34:22 2021, MaxMem=  4026531840 cpu:           13778.3 elap:            1742.5
 (Enter /opt/ohpc/pub/libs/gaussian/g16-A.03/sandybridge/g16/l508.exe)
 QCSCF skips out because SCF is already converged.
 Leave Link  508 at Mon Jan 18 03:34:22 2021, MaxMem=  4026531840 cpu:               0.1 elap:               0.0
 (Enter /opt/ohpc/pub/libs/gaussian/g16-A.03/sandybridge/g16/l601.exe)
 Copying SCF densities to generalized density rwf, IOpCl= 1 IROHF=0.

 **********************************************************************

            Population analysis using the SCF density.

 **********************************************************************

 Orbital symmetries:
 Alpha Orbitals:
       Occupied  (A) (A) (A) (A) (A) (A) (A) (A) (A) (A) (A) (A)
                 (A) (A) (A) (A) (A) (A) (A) (A) (A) (A) (A) (A)
                 (A) (A) (A) (A) (A) (A) (A) (A) (A) (A) (A) (A)
                 (A) (A) (A) (A) (A) (A) (A) (A) (A) (A) (A) (A)
                 (A) (A) (A) (A) (A) (A) (A) (A) (A) (A) (A) (A)
                 (A) (A) (A) (A) (A) (A) (A) (A) (A) (A) (A) (A)
                 (A) (A) (A) (A) (A) (A) (A) (A) (A) (A) (A) (A)
                 (A) (A) (A) (A) (A) (A) (A) (A) (A) (A) (A) (A)
                 (A) (A) (A) (A) (A) (A) (A) (A) (A) (A) (A) (A)
                 (A) (A) (A) (A) (A) (A) (A) (A) (A) (A) (A) (A)
                 (A) (A) (A) (A) (A) (A) (A) (A) (A)
       Virtual   (A) (A) (A) (A) (A) (A) (A) (A) (A) (A) (A) (A)
                 (A) (A) (A) (A) (A) (A) (A) (A) (A) (A) (A) (A)
                 (A) (A) (A) (A) (A) (A) (A) (A) (A) (A) (A) (A)
                 (A) (A) (A) (A) (A) (A) (A) (A) (A) (A) (A) (A)
                 (A) (A) (A) (A) (A) (A) (A) (A) (A) (A) (A) (A)
                 (A) (A) (A) (A) (A) (A) (A) (A) (A) (A) (A) (A)
                 (A) (A) (A) (A) (A) (A) (A) (A) (A) (A) (A) (A)
                 (A) (A) (A) (A) (A) (A) (A) (A) (A) (A) (A) (A)
                 (A) (A) (A) (A) (A) (A) (A) (A) (A) (A) (A) (A)
                 (A) (A) (A) (A) (A) (A) (A) (A) (A) (A) (A) (A)
                 (A) (A) (A) (A) (A) (A) (A) (A) (A) (A) (A) (A)
                 (A) (A) (A) (A) (A) (A) (A) (A) (A) (A) (A) (A)
                 (A) (A) (A) (A) (A) (A) (A) (A) (A) (A) (A) (A)
                 (A) (A) (A) (A) (A) (A) (A) (A) (A) (A) (A) (A)
                 (A) (A) (A) (A) (A) (A) (A) (A) (A) (A) (A) (A)
                 (A) (A) (A) (A) (A) (A) (A) (A) (A) (A) (A) (A)
                 (A) (A) (A) (A) (A) (A) (A) (A) (A) (A) (A) (A)
                 (A) (A) (A) (A) (A) (A) (A) (A) (A) (A) (A) (A)
                 (A) (A) (A) (A) (A) (A) (A) (A) (A) (A) (A) (A)
                 (A) (A) (A) (A) (A) (A) (A) (A) (A) (A) (A) (A)
                 (A) (A) (A) (A) (A) (A) (A) (A) (A) (A) (A) (A)
                 (A) (A) (A) (A) (A) (A) (A) (A) (A) (A) (A) (A)
                 (A) (A) (A) (A) (A) (A) (A) (A) (A) (A) (A) (A)
                 (A) (A) (A) (A) (A) (A) (A) (A) (A) (A) (A) (A)
                 (A) (A) (A) (A) (A) (A) (A) (A) (A) (A) (A) (A)
                 (A) (A) (A) (A) (A) (A) (A) (A) (A) (A) (A) (A)
                 (A) (A) (A) (A) (A) (A) (A) (A) (A) (A) (A) (A)
                 (A) (A) (A) (A) (A) (A) (A) (A) (A) (A) (A) (A)
                 (A) (A) (A) (A) (A) (A) (A) (A) (A) (A) (A) (A)
                 (A) (A) (A) (A) (A) (A) (A) (A) (A) (A) (A) (A)
                 (A) (A) (A) (A) (A) (A) (A) (A) (A) (A) (A) (A)
                 (A) (A) (A) (A) (A) (A) (A) (A) (A) (A) (A) (A)
                 (A) (A) (A) (A) (A) (A) (A) (A) (A) (A) (A) (A)
                 (A) (A) (A) (A) (A) (A) (A) (A) (A) (A) (A) (A)
                 (A) (A) (A) (A) (A) (A) (A) (A) (A) (A) (A) (A)
                 (A) (A) (A) (A) (A) (A) (A) (A) (A) (A) (A) (A)
                 (A) (A) (A) (A) (A) (A) (A) (A) (A) (A) (A) (A)
                 (A) (A) (A) (A) (A) (A) (A) (A) (A) (A) (A) (A)
                 (A) (A) (A) (A) (A) (A) (A) (A) (A) (A) (A) (A)
                 (A) (A) (A) (A) (A) (A) (A) (A) (A) (A) (A) (A)
                 (A) (A) (A) (A) (A) (A) (A) (A) (A) (A) (A) (A)
                 (A) (A) (A) (A) (A) (A) (A) (A) (A) (A) (A) (A)
                 (A) (A) (A) (A) (A) (A) (A) (A) (A) (A) (A) (A)
                 (A) (A) (A) (A) (A) (A) (A) (A) (A) (A) (A) (A)
                 (A) (A) (A) (A) (A) (A) (A) (A) (A) (A) (A) (A)
                 (A) (A) (A) (A) (A) (A) (A) (A) (A) (A) (A) (A)
                 (A) (A) (A) (A) (A) (A) (A) (A) (A) (A) (A) (A)
                 (A) (A) (A) (A) (A) (A) (A) (A) (A) (A) (A) (A)
                 (A) (A) (A) (A) (A) (A) (A) (A) (A) (A) (A) (A)
                 (A) (A) (A) (A) (A) (A) (A) (A) (A) (A) (A) (A)
                 (A) (A) (A) (A) (A) (A) (A) (A) (A) (A) (A) (A)
                 (A) (A) (A) (A) (A) (A) (A) (A) (A) (A) (A) (A)
                 (A) (A) (A) (A) (A) (A) (A) (A) (A) (A) (A) (A)
                 (A) (A) (A) (A) (A) (A) (A) (A) (A) (A) (A) (A)
                 (A) (A) (A) (A) (A) (A) (A) (A) (A) (A) (A) (A)
                 (A) (A) (A) (A) (A) (A) (A) (A) (A) (A) (A) (A)
                 (A) (A) (A) (A) (A) (A) (A) (A) (A) (A) (A) (A)
                 (A) (A) (A) (A) (A) (A) (A) (A) (A) (A) (A) (A)
                 (A) (A) (A) (A) (A) (A) (A) (A) (A) (A) (A) (A)
                 (A) (A) (A) (A) (A) (A) (A) (A) (A) (A) (A) (A)
                 (A) (A) (A) (A) (A) (A) (A) (A) (A) (A) (A) (A)
                 (A) (A) (A) (A) (A) (A) (A) (A) (A) (A) (A) (A)
                 (A) (A) (A) (A) (A) (A) (A) (A) (A) (A) (A) (A)
                 (A) (A) (A) (A) (A)
 Beta  Orbitals:
       Occupied  (A) (A) (A) (A) (A) (A) (A) (A) (A) (A) (A) (A)
                 (A) (A) (A) (A) (A) (A) (A) (A) (A) (A) (A) (A)
                 (A) (A) (A) (A) (A) (A) (A) (A) (A) (A) (A) (A)
                 (A) (A) (A) (A) (A) (A) (A) (A) (A) (A) (A) (A)
                 (A) (A) (A) (A) (A) (A) (A) (A) (A) (A) (A) (A)
                 (A) (A) (A) (A) (A) (A) (A) (A) (A) (A) (A) (A)
                 (A) (A) (A) (A) (A) (A) (A) (A) (A) (A) (A) (A)
                 (A) (A) (A) (A) (A) (A) (A) (A) (A) (A) (A) (A)
                 (A) (A) (A) (A) (A) (A) (A) (A) (A) (A) (A) (A)
                 (A) (A) (A) (A) (A) (A) (A) (A) (A) (A) (A) (A)
                 (A) (A) (A) (A) (A) (A) (A) (A)
       Virtual   (A) (A) (A) (A) (A) (A) (A) (A) (A) (A) (A) (A)
                 (A) (A) (A) (A) (A) (A) (A) (A) (A) (A) (A) (A)
                 (A) (A) (A) (A) (A) (A) (A) (A) (A) (A) (A) (A)
                 (A) (A) (A) (A) (A) (A) (A) (A) (A) (A) (A) (A)
                 (A) (A) (A) (A) (A) (A) (A) (A) (A) (A) (A) (A)
                 (A) (A) (A) (A) (A) (A) (A) (A) (A) (A) (A) (A)
                 (A) (A) (A) (A) (A) (A) (A) (A) (A) (A) (A) (A)
                 (A) (A) (A) (A) (A) (A) (A) (A) (A) (A) (A) (A)
                 (A) (A) (A) (A) (A) (A) (A) (A) (A) (A) (A) (A)
                 (A) (A) (A) (A) (A) (A) (A) (A) (A) (A) (A) (A)
                 (A) (A) (A) (A) (A) (A) (A) (A) (A) (A) (A) (A)
                 (A) (A) (A) (A) (A) (A) (A) (A) (A) (A) (A) (A)
                 (A) (A) (A) (A) (A) (A) (A) (A) (A) (A) (A) (A)
                 (A) (A) (A) (A) (A) (A) (A) (A) (A) (A) (A) (A)
                 (A) (A) (A) (A) (A) (A) (A) (A) (A) (A) (A) (A)
                 (A) (A) (A) (A) (A) (A) (A) (A) (A) (A) (A) (A)
                 (A) (A) (A) (A) (A) (A) (A) (A) (A) (A) (A) (A)
                 (A) (A) (A) (A) (A) (A) (A) (A) (A) (A) (A) (A)
                 (A) (A) (A) (A) (A) (A) (A) (A) (A) (A) (A) (A)
                 (A) (A) (A) (A) (A) (A) (A) (A) (A) (A) (A) (A)
                 (A) (A) (A) (A) (A) (A) (A) (A) (A) (A) (A) (A)
                 (A) (A) (A) (A) (A) (A) (A) (A) (A) (A) (A) (A)
                 (A) (A) (A) (A) (A) (A) (A) (A) (A) (A) (A) (A)
                 (A) (A) (A) (A) (A) (A) (A) (A) (A) (A) (A) (A)
                 (A) (A) (A) (A) (A) (A) (A) (A) (A) (A) (A) (A)
                 (A) (A) (A) (A) (A) (A) (A) (A) (A) (A) (A) (A)
                 (A) (A) (A) (A) (A) (A) (A) (A) (A) (A) (A) (A)
                 (A) (A) (A) (A) (A) (A) (A) (A) (A) (A) (A) (A)
                 (A) (A) (A) (A) (A) (A) (A) (A) (A) (A) (A) (A)
                 (A) (A) (A) (A) (A) (A) (A) (A) (A) (A) (A) (A)
                 (A) (A) (A) (A) (A) (A) (A) (A) (A) (A) (A) (A)
                 (A) (A) (A) (A) (A) (A) (A) (A) (A) (A) (A) (A)
                 (A) (A) (A) (A) (A) (A) (A) (A) (A) (A) (A) (A)
                 (A) (A) (A) (A) (A) (A) (A) (A) (A) (A) (A) (A)
                 (A) (A) (A) (A) (A) (A) (A) (A) (A) (A) (A) (A)
                 (A) (A) (A) (A) (A) (A) (A) (A) (A) (A) (A) (A)
                 (A) (A) (A) (A) (A) (A) (A) (A) (A) (A) (A) (A)
                 (A) (A) (A) (A) (A) (A) (A) (A) (A) (A) (A) (A)
                 (A) (A) (A) (A) (A) (A) (A) (A) (A) (A) (A) (A)
                 (A) (A) (A) (A) (A) (A) (A) (A) (A) (A) (A) (A)
                 (A) (A) (A) (A) (A) (A) (A) (A) (A) (A) (A) (A)
                 (A) (A) (A) (A) (A) (A) (A) (A) (A) (A) (A) (A)
                 (A) (A) (A) (A) (A) (A) (A) (A) (A) (A) (A) (A)
                 (A) (A) (A) (A) (A) (A) (A) (A) (A) (A) (A) (A)
                 (A) (A) (A) (A) (A) (A) (A) (A) (A) (A) (A) (A)
                 (A) (A) (A) (A) (A) (A) (A) (A) (A) (A) (A) (A)
                 (A) (A) (A) (A) (A) (A) (A) (A) (A) (A) (A) (A)
                 (A) (A) (A) (A) (A) (A) (A) (A) (A) (A) (A) (A)
                 (A) (A) (A) (A) (A) (A) (A) (A) (A) (A) (A) (A)
                 (A) (A) (A) (A) (A) (A) (A) (A) (A) (A) (A) (A)
                 (A) (A) (A) (A) (A) (A) (A) (A) (A) (A) (A) (A)
                 (A) (A) (A) (A) (A) (A) (A) (A) (A) (A) (A) (A)
                 (A) (A) (A) (A) (A) (A) (A) (A) (A) (A) (A) (A)
                 (A) (A) (A) (A) (A) (A) (A) (A) (A) (A) (A) (A)
                 (A) (A) (A) (A) (A) (A) (A) (A) (A) (A) (A) (A)
                 (A) (A) (A) (A) (A) (A) (A) (A) (A) (A) (A) (A)
                 (A) (A) (A) (A) (A) (A) (A) (A) (A) (A) (A) (A)
                 (A) (A) (A) (A) (A) (A) (A) (A) (A) (A) (A) (A)
                 (A) (A) (A) (A) (A) (A) (A) (A) (A) (A) (A) (A)
                 (A) (A) (A) (A) (A) (A) (A) (A) (A) (A) (A) (A)
                 (A) (A) (A) (A) (A) (A) (A) (A) (A) (A) (A) (A)
                 (A) (A) (A) (A) (A) (A) (A) (A) (A) (A) (A) (A)
                 (A) (A) (A) (A) (A) (A) (A) (A) (A) (A) (A) (A)
                 (A) (A) (A) (A) (A) (A)
 The electronic state is 2-A.
 Alpha  occ. eigenvalues --  -14.24809 -14.24808 -10.14075 -10.14075 -10.12428
 Alpha  occ. eigenvalues --  -10.12427 -10.12427 -10.12425 -10.10725 -10.10711
 Alpha  occ. eigenvalues --  -10.09468 -10.09467 -10.09464 -10.09463 -10.09427
 Alpha  occ. eigenvalues --  -10.09426 -10.09426 -10.09426 -10.08074 -10.08074
 Alpha  occ. eigenvalues --  -10.08074 -10.08074 -10.07912 -10.07912 -10.07911
 Alpha  occ. eigenvalues --  -10.07911 -10.07506 -10.07505 -10.07505 -10.07505
 Alpha  occ. eigenvalues --  -10.07434 -10.07434 -10.07433 -10.07433 -10.07326
 Alpha  occ. eigenvalues --  -10.07326 -10.07326 -10.07325  -1.10729  -1.10725
 Alpha  occ. eigenvalues --   -1.00766  -0.99027  -0.98105  -0.98105  -0.96821
 Alpha  occ. eigenvalues --   -0.96292  -0.92100  -0.89514  -0.89181  -0.88706
 Alpha  occ. eigenvalues --   -0.88248  -0.87909  -0.87230  -0.86896  -0.86895
 Alpha  occ. eigenvalues --   -0.86809  -0.84976  -0.83350  -0.78525  -0.77855
 Alpha  occ. eigenvalues --   -0.76742  -0.75822  -0.75375  -0.74194  -0.73881
 Alpha  occ. eigenvalues --   -0.73570  -0.73415  -0.73073  -0.71244  -0.70904
 Alpha  occ. eigenvalues --   -0.68918  -0.68174  -0.67993  -0.67754  -0.65870
 Alpha  occ. eigenvalues --   -0.63541  -0.63431  -0.62913  -0.62043  -0.61755
 Alpha  occ. eigenvalues --   -0.61583  -0.60069  -0.59952  -0.59349  -0.59250
 Alpha  occ. eigenvalues --   -0.59201  -0.58454  -0.57747  -0.57509  -0.57382
 Alpha  occ. eigenvalues --   -0.57310  -0.57234  -0.57161  -0.56125  -0.55997
 Alpha  occ. eigenvalues --   -0.55798  -0.55798  -0.55525  -0.54429  -0.53943
 Alpha  occ. eigenvalues --   -0.53116  -0.52842  -0.52506  -0.52476  -0.51123
 Alpha  occ. eigenvalues --   -0.50905  -0.50410  -0.50141  -0.49912  -0.49537
 Alpha  occ. eigenvalues --   -0.49500  -0.48773  -0.48443  -0.48088  -0.48060
 Alpha  occ. eigenvalues --   -0.47438  -0.46543  -0.44178  -0.42808  -0.42788
 Alpha  occ. eigenvalues --   -0.41798  -0.41791  -0.41470  -0.40970  -0.40950
 Alpha  occ. eigenvalues --   -0.40508  -0.40347  -0.35925  -0.34741
 Alpha virt. eigenvalues --   -0.10551  -0.08377  -0.08250  -0.07261  -0.07251
 Alpha virt. eigenvalues --   -0.06586  -0.05988  -0.05867  -0.05083  -0.05050
 Alpha virt. eigenvalues --   -0.03546  -0.02402   0.00607   0.01227   0.02268
 Alpha virt. eigenvalues --    0.02457   0.02614   0.02733   0.02956   0.04160
 Alpha virt. eigenvalues --    0.04364   0.04498   0.05057   0.05188   0.05211
 Alpha virt. eigenvalues --    0.05551   0.06199   0.06333   0.06525   0.06888
 Alpha virt. eigenvalues --    0.07360   0.07760   0.07899   0.07902   0.08251
 Alpha virt. eigenvalues --    0.08254   0.08433   0.08512   0.08517   0.08845
 Alpha virt. eigenvalues --    0.09195   0.09373   0.09886   0.10111   0.10715
 Alpha virt. eigenvalues --    0.11261   0.11586   0.11604   0.12115   0.12703
 Alpha virt. eigenvalues --    0.14244   0.14611   0.14926   0.15078   0.15153
 Alpha virt. eigenvalues --    0.15783   0.15825   0.16044   0.16186   0.16446
 Alpha virt. eigenvalues --    0.16648   0.16844   0.17104   0.17208   0.17384
 Alpha virt. eigenvalues --    0.17509   0.18637   0.18680   0.18756   0.18770
 Alpha virt. eigenvalues --    0.18861   0.18960   0.19158   0.19190   0.19334
 Alpha virt. eigenvalues --    0.19700   0.19918   0.20283   0.20589   0.20750
 Alpha virt. eigenvalues --    0.20756   0.20815   0.21149   0.21386   0.21405
 Alpha virt. eigenvalues --    0.21552   0.22017   0.22236   0.22346   0.22351
 Alpha virt. eigenvalues --    0.23304   0.23784   0.24273   0.24358   0.24374
 Alpha virt. eigenvalues --    0.24492   0.24678   0.24730   0.25223   0.26041
 Alpha virt. eigenvalues --    0.26096   0.26194   0.26425   0.26719   0.26891
 Alpha virt. eigenvalues --    0.27305   0.27385   0.27802   0.28015   0.28247
 Alpha virt. eigenvalues --    0.28301   0.28491   0.28809   0.28966   0.30245
 Alpha virt. eigenvalues --    0.30378   0.30548   0.30714   0.30824   0.31630
 Alpha virt. eigenvalues --    0.31818   0.32084   0.32095   0.32838   0.32861
 Alpha virt. eigenvalues --    0.32873   0.33123   0.33419   0.33871   0.34026
 Alpha virt. eigenvalues --    0.34052   0.34928   0.34935   0.35129   0.35184
 Alpha virt. eigenvalues --    0.35390   0.35398   0.35696   0.35753   0.35905
 Alpha virt. eigenvalues --    0.36264   0.36709   0.36755   0.37231   0.37576
 Alpha virt. eigenvalues --    0.37854   0.38454   0.38667   0.38745   0.38757
 Alpha virt. eigenvalues --    0.39136   0.39275   0.39432   0.39654   0.39674
 Alpha virt. eigenvalues --    0.39700   0.39703   0.39858   0.40332   0.40489
 Alpha virt. eigenvalues --    0.40961   0.41237   0.41811   0.42071   0.42294
 Alpha virt. eigenvalues --    0.42482   0.42585   0.42601   0.42872   0.43731
 Alpha virt. eigenvalues --    0.43994   0.44298   0.44368   0.44593   0.44642
 Alpha virt. eigenvalues --    0.44958   0.45586   0.45693   0.45805   0.45925
 Alpha virt. eigenvalues --    0.46253   0.46330   0.46711   0.46788   0.46888
 Alpha virt. eigenvalues --    0.47450   0.47660   0.47760   0.48173   0.48187
 Alpha virt. eigenvalues --    0.49043   0.49622   0.49721   0.50016   0.50484
 Alpha virt. eigenvalues --    0.50646   0.50668   0.51217   0.51288   0.51481
 Alpha virt. eigenvalues --    0.51999   0.52577   0.52936   0.53541   0.53934
 Alpha virt. eigenvalues --    0.56218   0.56409   0.56419   0.56490   0.57158
 Alpha virt. eigenvalues --    0.57221   0.57719   0.57990   0.58563   0.59468
 Alpha virt. eigenvalues --    0.60229   0.61138   0.61615   0.61934   0.62643
 Alpha virt. eigenvalues --    0.62697   0.62934   0.63047   0.63538   0.64059
 Alpha virt. eigenvalues --    0.64527   0.64743   0.65063   0.65103   0.65119
 Alpha virt. eigenvalues --    0.65210   0.65214   0.65397   0.65433   0.66408
 Alpha virt. eigenvalues --    0.66611   0.67167   0.67836   0.68172   0.68772
 Alpha virt. eigenvalues --    0.68783   0.69795   0.70243   0.71067   0.71236
 Alpha virt. eigenvalues --    0.72035   0.73043   0.73229   0.73330   0.73441
 Alpha virt. eigenvalues --    0.75106   0.75420   0.76340   0.76754   0.77298
 Alpha virt. eigenvalues --    0.79511   0.79627   0.79774   0.80425   0.81070
 Alpha virt. eigenvalues --    0.81479   0.81624   0.81987   0.85932   0.87077
 Alpha virt. eigenvalues --    0.87360   0.87508   0.89805   0.89938   1.06343
 Alpha virt. eigenvalues --    1.08095   1.09136   1.09631   1.09643   1.13408
 Alpha virt. eigenvalues --    1.13811   1.13815   1.14423   1.15377   1.15644
 Alpha virt. eigenvalues --    1.15941   1.16114   1.16811   1.16906   1.17490
 Alpha virt. eigenvalues --    1.17530   1.17818   1.18001   1.18501   1.19261
 Alpha virt. eigenvalues --    1.19440   1.19629   1.20244   1.20278   1.20342
 Alpha virt. eigenvalues --    1.20347   1.21184   1.21227   1.21423   1.21562
 Alpha virt. eigenvalues --    1.21873   1.22287   1.22500   1.22619   1.22687
 Alpha virt. eigenvalues --    1.23249   1.23800   1.24018   1.24068   1.24108
 Alpha virt. eigenvalues --    1.24513   1.24626   1.24811   1.24984   1.25602
 Alpha virt. eigenvalues --    1.25606   1.26009   1.26118   1.26439   1.26860
 Alpha virt. eigenvalues --    1.27325   1.27367   1.27721   1.27859   1.28373
 Alpha virt. eigenvalues --    1.28566   1.28721   1.33355   1.33825   1.34788
 Alpha virt. eigenvalues --    1.35058   1.35339   1.35535   1.35870   1.36403
 Alpha virt. eigenvalues --    1.36851   1.36910   1.37206   1.37250   1.37385
 Alpha virt. eigenvalues --    1.37397   1.37428   1.37512   1.38093   1.38142
 Alpha virt. eigenvalues --    1.38162   1.38478   1.38577   1.39022   1.39065
 Alpha virt. eigenvalues --    1.39159   1.39286   1.39514   1.39543   1.39593
 Alpha virt. eigenvalues --    1.39746   1.39959   1.40307   1.40662   1.40766
 Alpha virt. eigenvalues --    1.40775   1.40939   1.41043   1.42575   1.42779
 Alpha virt. eigenvalues --    1.42944   1.42999   1.43554   1.43654   1.44579
 Alpha virt. eigenvalues --    1.44966   1.45090   1.45202   1.45404   1.45567
 Alpha virt. eigenvalues --    1.45918   1.46042   1.46345   1.46705   1.46908
 Alpha virt. eigenvalues --    1.47327   1.47367   1.48134   1.48179   1.48441
 Alpha virt. eigenvalues --    1.48560   1.48590   1.48950   1.49348   1.49380
 Alpha virt. eigenvalues --    1.49476   1.50068   1.50215   1.50438   1.50625
 Alpha virt. eigenvalues --    1.51193   1.51222   1.51346   1.51364   1.51987
 Alpha virt. eigenvalues --    1.52168   1.52619   1.52856   1.53141   1.53595
 Alpha virt. eigenvalues --    1.53781   1.56520   1.57041   1.58674   1.58874
 Alpha virt. eigenvalues --    1.59717   1.59805   1.60098   1.60156   1.61197
 Alpha virt. eigenvalues --    1.63181   1.63725   1.64287   1.64457   1.65083
 Alpha virt. eigenvalues --    1.67644   1.68195   1.68798   1.68961   1.69406
 Alpha virt. eigenvalues --    1.69622   1.69667   1.70033   1.70253   1.70309
 Alpha virt. eigenvalues --    1.70591   1.70855   1.70948   1.71167   1.71185
 Alpha virt. eigenvalues --    1.71917   1.72027   1.72094   1.72174   1.72698
 Alpha virt. eigenvalues --    1.72989   1.73932   1.74059   1.74188   1.74388
 Alpha virt. eigenvalues --    1.74840   1.75177   1.75230   1.75393   1.75631
 Alpha virt. eigenvalues --    1.76846   1.77288   1.77332   1.77931   1.79571
 Alpha virt. eigenvalues --    1.80248   1.80384   1.81233   1.81429   1.81599
 Alpha virt. eigenvalues --    1.81608   1.81950   1.82042   1.82058   1.82316
 Alpha virt. eigenvalues --    1.83728   1.84075   1.84308   1.84327   1.84557
 Alpha virt. eigenvalues --    1.84563   1.84780   1.84922   1.85240   1.85297
 Alpha virt. eigenvalues --    1.85302   1.85368   1.85878   1.86137   1.86150
 Alpha virt. eigenvalues --    1.86345   1.86352   1.86684   1.86927   1.87280
 Alpha virt. eigenvalues --    1.87796   1.88545   1.89285   1.90606   1.90709
 Alpha virt. eigenvalues --    1.90731   1.90751   1.91128   1.91311   1.92519
 Alpha virt. eigenvalues --    1.92584   1.92611   1.93256   1.93856   1.95025
 Alpha virt. eigenvalues --    1.95178   1.95327   1.95483   1.96956   1.97179
 Alpha virt. eigenvalues --    1.97597   1.99613   1.99853   2.00488   2.01656
 Alpha virt. eigenvalues --    2.03139   2.04121   2.04150   2.04570   2.04982
 Alpha virt. eigenvalues --    2.06719   2.07757   2.09662   2.11432   2.11882
 Alpha virt. eigenvalues --    2.12096   2.12166   2.14395   2.14956   2.15813
 Alpha virt. eigenvalues --    2.16187   2.16286   2.17980   2.18488   2.19349
 Alpha virt. eigenvalues --    2.21425   2.21476   2.22146   2.22147   2.22325
 Alpha virt. eigenvalues --    2.22653   2.23215   2.23487   2.23596   2.23647
 Alpha virt. eigenvalues --    2.23651   2.24050   2.24503   2.24670   2.24926
 Alpha virt. eigenvalues --    2.25211   2.25399   2.25602   2.26358   2.26452
 Alpha virt. eigenvalues --    2.27138   2.27187   2.27268   2.27451   2.28282
 Alpha virt. eigenvalues --    2.28422   2.28466   2.28526   2.28792   2.28876
 Alpha virt. eigenvalues --    2.29195   2.29491   2.29767   2.30168   2.30182
 Alpha virt. eigenvalues --    2.30262   2.32608   2.35408   2.36633   2.37053
 Alpha virt. eigenvalues --    2.37440   2.38212   2.38285   2.38473   2.42564
 Alpha virt. eigenvalues --    2.42682   2.42712   2.43281   2.43748   2.43853
 Alpha virt. eigenvalues --    2.44404   2.44759   2.45121   2.45275   2.45469
 Alpha virt. eigenvalues --    2.46053   2.46704   2.47139   2.47681   2.47924
 Alpha virt. eigenvalues --    2.48156   2.49977   2.50612   2.51299   2.52579
 Alpha virt. eigenvalues --    2.52718   2.54837   2.55212   2.55551   2.55858
 Alpha virt. eigenvalues --    2.56769   2.56776   2.56811   2.57271   2.57277
 Alpha virt. eigenvalues --    2.57448   2.57674   2.57809   2.58353   2.58741
 Alpha virt. eigenvalues --    2.58788   2.59578   2.59888   2.60142   2.60445
 Alpha virt. eigenvalues --    2.60925   2.65398   2.66427   2.66438   2.66604
 Alpha virt. eigenvalues --    2.66679   2.67474   2.67881   2.68271   2.68403
 Alpha virt. eigenvalues --    2.69587   2.70309   2.70645   2.70690   2.71527
 Alpha virt. eigenvalues --    2.73605   2.74582   2.74883   2.75413   2.75897
 Alpha virt. eigenvalues --    2.77065   2.77119   2.77425   2.77482   2.77575
 Alpha virt. eigenvalues --    2.81576   2.82275   2.86848   2.87971   2.88078
 Alpha virt. eigenvalues --    2.88226   2.90281   2.90296   2.91071   2.91130
 Alpha virt. eigenvalues --    2.94355   2.94387   2.94650   2.94701   2.94840
 Alpha virt. eigenvalues --    2.95335   2.95660   2.95698   2.96568   2.96684
 Alpha virt. eigenvalues --    2.97178   2.97434   2.98010   2.98993   2.99531
 Alpha virt. eigenvalues --    3.01392   3.02466   3.02476   3.02582   3.03905
 Alpha virt. eigenvalues --    3.04079   3.04568   3.06588   3.06794   3.07601
 Alpha virt. eigenvalues --    3.07874   3.09251   3.09433   3.10067   3.10167
 Alpha virt. eigenvalues --    3.10638   3.11847   3.12236   3.12705   3.12900
 Alpha virt. eigenvalues --    3.13406   3.13898   3.14434   3.14787   3.15641
 Alpha virt. eigenvalues --    3.17040   3.17907   3.20985   3.24982   3.25001
 Alpha virt. eigenvalues --    3.25280   3.25755   3.26079   3.26113   3.28411
 Alpha virt. eigenvalues --    3.30004   3.31887   3.32162   3.33399   3.33403
 Alpha virt. eigenvalues --    3.36077   3.36793   3.44356   3.45304   3.46901
 Alpha virt. eigenvalues --    3.47051   3.47238   3.47329   3.49393   3.51953
 Alpha virt. eigenvalues --    3.52427   3.52431   3.69736   3.73502   3.80629
 Alpha virt. eigenvalues --    3.82952   3.83461   3.83543  21.04038  21.10387
 Alpha virt. eigenvalues --   21.10636  21.12161  21.12386  21.24937  21.56714
 Alpha virt. eigenvalues --   21.58181  21.58190  21.60763  21.61369  21.61382
 Alpha virt. eigenvalues --   21.63603  21.63990  21.66907  21.70142  21.70339
 Alpha virt. eigenvalues --   21.79258  21.80140  21.83736  21.84325  21.85688
 Alpha virt. eigenvalues --   21.86531  21.87193  21.87404  21.88888  21.91867
 Alpha virt. eigenvalues --   21.92277  21.92606  21.94131  21.97863  21.98886
 Alpha virt. eigenvalues --   22.03493  22.04371  22.04965  22.04970  31.90541
 Alpha virt. eigenvalues --   31.91486
  Beta  occ. eigenvalues --  -14.24410 -14.24410 -10.14033 -10.14033 -10.12458
  Beta  occ. eigenvalues --  -10.12457 -10.12457 -10.12455 -10.10642 -10.10628
  Beta  occ. eigenvalues --  -10.09447 -10.09447 -10.09444 -10.09443 -10.09390
  Beta  occ. eigenvalues --  -10.09389 -10.09389 -10.09389 -10.08007 -10.08006
  Beta  occ. eigenvalues --  -10.08006 -10.08006 -10.07849 -10.07848 -10.07848
  Beta  occ. eigenvalues --  -10.07848 -10.07532 -10.07532 -10.07532 -10.07532
  Beta  occ. eigenvalues --  -10.07457 -10.07457 -10.07457 -10.07457 -10.07256
  Beta  occ. eigenvalues --  -10.07256 -10.07256 -10.07255  -1.10233  -1.10229
  Beta  occ. eigenvalues --   -1.00596  -0.98873  -0.98019  -0.98019  -0.96694
  Beta  occ. eigenvalues --   -0.96148  -0.91889  -0.89438  -0.89097  -0.88561
  Beta  occ. eigenvalues --   -0.88165  -0.87829  -0.87158  -0.86830  -0.86829
  Beta  occ. eigenvalues --   -0.86720  -0.84787  -0.83053  -0.78418  -0.77715
  Beta  occ. eigenvalues --   -0.76608  -0.75703  -0.75242  -0.74048  -0.73822
  Beta  occ. eigenvalues --   -0.73485  -0.73333  -0.72999  -0.71156  -0.70821
  Beta  occ. eigenvalues --   -0.68847  -0.68081  -0.67919  -0.67676  -0.65781
  Beta  occ. eigenvalues --   -0.63386  -0.63343  -0.62823  -0.61933  -0.61575
  Beta  occ. eigenvalues --   -0.61255  -0.59996  -0.59815  -0.59272  -0.59165
  Beta  occ. eigenvalues --   -0.59159  -0.58382  -0.57703  -0.57472  -0.57288
  Beta  occ. eigenvalues --   -0.57260  -0.57165  -0.57114  -0.56058  -0.55956
  Beta  occ. eigenvalues --   -0.55765  -0.55764  -0.55430  -0.54186  -0.53598
  Beta  occ. eigenvalues --   -0.52819  -0.52607  -0.52322  -0.52294  -0.51065
  Beta  occ. eigenvalues --   -0.50782  -0.50088  -0.50041  -0.49860  -0.49439
  Beta  occ. eigenvalues --   -0.49387  -0.48575  -0.48332  -0.48043  -0.48015
  Beta  occ. eigenvalues --   -0.47155  -0.45945  -0.43465  -0.42654  -0.42646
  Beta  occ. eigenvalues --   -0.41427  -0.41419  -0.40717  -0.40700  -0.40665
  Beta  occ. eigenvalues --   -0.40348  -0.39647  -0.31782
  Beta virt. eigenvalues --   -0.23526  -0.10190  -0.08132  -0.07982  -0.06979
  Beta virt. eigenvalues --   -0.06964  -0.06153  -0.05777  -0.05595  -0.04892
  Beta virt. eigenvalues --   -0.04828  -0.03015  -0.01817   0.00646   0.01271
  Beta virt. eigenvalues --    0.02300   0.02509   0.02647   0.02759   0.02992
  Beta virt. eigenvalues --    0.04204   0.04410   0.04536   0.05094   0.05208
  Beta virt. eigenvalues --    0.05241   0.05583   0.06232   0.06523   0.06548
  Beta virt. eigenvalues --    0.06919   0.07399   0.07824   0.07927   0.07951
  Beta virt. eigenvalues --    0.08268   0.08344   0.08567   0.08628   0.08641
  Beta virt. eigenvalues --    0.08900   0.09272   0.09433   0.09909   0.10137
  Beta virt. eigenvalues --    0.10929   0.11429   0.11711   0.11786   0.12198
  Beta virt. eigenvalues --    0.12848   0.14319   0.14668   0.15007   0.15176
  Beta virt. eigenvalues --    0.15197   0.15862   0.15899   0.16104   0.16254
  Beta virt. eigenvalues --    0.16509   0.16704   0.16947   0.17182   0.17241
  Beta virt. eigenvalues --    0.17451   0.17552   0.18739   0.18770   0.18800
  Beta virt. eigenvalues --    0.18873   0.18917   0.19055   0.19227   0.19264
  Beta virt. eigenvalues --    0.19412   0.19768   0.19993   0.20343   0.20630
  Beta virt. eigenvalues --    0.20783   0.20803   0.20842   0.21221   0.21434
  Beta virt. eigenvalues --    0.21472   0.21601   0.22096   0.22288   0.22403
  Beta virt. eigenvalues --    0.22421   0.23331   0.23850   0.24309   0.24394
  Beta virt. eigenvalues --    0.24427   0.24533   0.24794   0.24854   0.25313
  Beta virt. eigenvalues --    0.26147   0.26201   0.26291   0.26507   0.26806
  Beta virt. eigenvalues --    0.27002   0.27399   0.27519   0.27868   0.28098
  Beta virt. eigenvalues --    0.28315   0.28372   0.28596   0.28888   0.29050
  Beta virt. eigenvalues --    0.30359   0.30483   0.30658   0.30804   0.30924
  Beta virt. eigenvalues --    0.31713   0.31954   0.32176   0.32206   0.32905
  Beta virt. eigenvalues --    0.32936   0.33005   0.33228   0.33465   0.33967
  Beta virt. eigenvalues --    0.34100   0.34144   0.34984   0.35027   0.35204
  Beta virt. eigenvalues --    0.35260   0.35456   0.35457   0.35788   0.35806
  Beta virt. eigenvalues --    0.36012   0.36370   0.36808   0.36826   0.37334
  Beta virt. eigenvalues --    0.37675   0.37951   0.38509   0.38773   0.38804
  Beta virt. eigenvalues --    0.38807   0.39173   0.39301   0.39476   0.39694
  Beta virt. eigenvalues --    0.39724   0.39737   0.39761   0.39933   0.40362
  Beta virt. eigenvalues --    0.40537   0.41043   0.41290   0.41879   0.42143
  Beta virt. eigenvalues --    0.42363   0.42541   0.42642   0.42677   0.42932
  Beta virt. eigenvalues --    0.43820   0.44057   0.44347   0.44412   0.44671
  Beta virt. eigenvalues --    0.44696   0.45019   0.45637   0.45753   0.45869
  Beta virt. eigenvalues --    0.45971   0.46293   0.46373   0.46815   0.46870
  Beta virt. eigenvalues --    0.46936   0.47535   0.47727   0.47848   0.48240
  Beta virt. eigenvalues --    0.48258   0.49085   0.49696   0.49784   0.50084
  Beta virt. eigenvalues --    0.50552   0.50739   0.50764   0.51349   0.51375
  Beta virt. eigenvalues --    0.51558   0.52052   0.52657   0.52992   0.53625
  Beta virt. eigenvalues --    0.53990   0.56281   0.56474   0.56488   0.56564
  Beta virt. eigenvalues --    0.57216   0.57327   0.57791   0.58058   0.58616
  Beta virt. eigenvalues --    0.59544   0.60311   0.61247   0.61669   0.61985
  Beta virt. eigenvalues --    0.62712   0.62765   0.62993   0.63097   0.63625
  Beta virt. eigenvalues --    0.64123   0.64592   0.64799   0.65124   0.65197
  Beta virt. eigenvalues --    0.65206   0.65260   0.65271   0.65456   0.65492
  Beta virt. eigenvalues --    0.66467   0.66699   0.67226   0.67884   0.68266
  Beta virt. eigenvalues --    0.68830   0.68860   0.69860   0.70322   0.71154
  Beta virt. eigenvalues --    0.71311   0.72129   0.73125   0.73266   0.73373
  Beta virt. eigenvalues --    0.73493   0.75207   0.75480   0.76495   0.76966
  Beta virt. eigenvalues --    0.77365   0.79807   0.79948   0.79974   0.80493
  Beta virt. eigenvalues --    0.81126   0.81540   0.81671   0.82100   0.86018
  Beta virt. eigenvalues --    0.87151   0.87411   0.87558   0.89942   0.90084
  Beta virt. eigenvalues --    1.06411   1.08156   1.09199   1.09674   1.09687
  Beta virt. eigenvalues --    1.13479   1.13867   1.13875   1.14479   1.15443
  Beta virt. eigenvalues --    1.15727   1.16015   1.16195   1.16888   1.16983
  Beta virt. eigenvalues --    1.17581   1.17588   1.17884   1.18085   1.18588
  Beta virt. eigenvalues --    1.19363   1.19538   1.19708   1.20373   1.20401
  Beta virt. eigenvalues --    1.20423   1.20446   1.21258   1.21313   1.21543
  Beta virt. eigenvalues --    1.21649   1.21941   1.22355   1.22555   1.22672
  Beta virt. eigenvalues --    1.22731   1.23341   1.23877   1.24099   1.24144
  Beta virt. eigenvalues --    1.24204   1.24578   1.24700   1.24867   1.25068
  Beta virt. eigenvalues --    1.25653   1.25683   1.26103   1.26237   1.26528
  Beta virt. eigenvalues --    1.26974   1.27359   1.27406   1.27797   1.28044
  Beta virt. eigenvalues --    1.28461   1.28694   1.28867   1.33524   1.33983
  Beta virt. eigenvalues --    1.34914   1.35225   1.35433   1.35630   1.35943
  Beta virt. eigenvalues --    1.36474   1.36887   1.37126   1.37258   1.37281
  Beta virt. eigenvalues --    1.37384   1.37405   1.37675   1.37782   1.38232
  Beta virt. eigenvalues --    1.38333   1.38362   1.38545   1.38651   1.39087
  Beta virt. eigenvalues --    1.39111   1.39214   1.39374   1.39617   1.39667
  Beta virt. eigenvalues --    1.39683   1.39864   1.40123   1.40440   1.40800
  Beta virt. eigenvalues --    1.40844   1.40904   1.41078   1.41106   1.42630
  Beta virt. eigenvalues --    1.42867   1.43047   1.43057   1.43643   1.43754
  Beta virt. eigenvalues --    1.44758   1.45062   1.45126   1.45231   1.45446
  Beta virt. eigenvalues --    1.45682   1.46019   1.46139   1.46426   1.46848
  Beta virt. eigenvalues --    1.47016   1.47402   1.47501   1.48169   1.48214
  Beta virt. eigenvalues --    1.48462   1.48625   1.48636   1.49097   1.49494
  Beta virt. eigenvalues --    1.49514   1.49623   1.50200   1.50316   1.50568
  Beta virt. eigenvalues --    1.50737   1.51282   1.51330   1.51448   1.51471
  Beta virt. eigenvalues --    1.52121   1.52287   1.52784   1.52944   1.53260
  Beta virt. eigenvalues --    1.53747   1.53883   1.56671   1.57146   1.58807
  Beta virt. eigenvalues --    1.58975   1.59828   1.59911   1.60181   1.60243
  Beta virt. eigenvalues --    1.61263   1.63247   1.63785   1.64358   1.64530
  Beta virt. eigenvalues --    1.65201   1.67816   1.68312   1.68907   1.69071
  Beta virt. eigenvalues --    1.69539   1.69736   1.69823   1.70140   1.70306
  Beta virt. eigenvalues --    1.70404   1.70673   1.70908   1.71093   1.71188
  Beta virt. eigenvalues --    1.71272   1.71973   1.72173   1.72191   1.72280
  Beta virt. eigenvalues --    1.72771   1.73059   1.74036   1.74174   1.74281
  Beta virt. eigenvalues --    1.74485   1.74898   1.75275   1.75306   1.75536
  Beta virt. eigenvalues --    1.75710   1.76966   1.77398   1.77597   1.78160
  Beta virt. eigenvalues --    1.79672   1.80330   1.80511   1.81345   1.81550
  Beta virt. eigenvalues --    1.81712   1.81721   1.82028   1.82151   1.82160
  Beta virt. eigenvalues --    1.82479   1.83799   1.84177   1.84375   1.84439
  Beta virt. eigenvalues --    1.84629   1.84652   1.84891   1.85014   1.85338
  Beta virt. eigenvalues --    1.85355   1.85364   1.85433   1.85922   1.86184
  Beta virt. eigenvalues --    1.86226   1.86391   1.86406   1.86812   1.87044
  Beta virt. eigenvalues --    1.87423   1.87913   1.88703   1.89407   1.90687
  Beta virt. eigenvalues --    1.90785   1.90806   1.90827   1.91284   1.91491
  Beta virt. eigenvalues --    1.92620   1.92680   1.92761   1.93355   1.93977
  Beta virt. eigenvalues --    1.95131   1.95369   1.95417   1.95577   1.97074
  Beta virt. eigenvalues --    1.97311   1.97782   1.99731   1.99958   2.00597
  Beta virt. eigenvalues --    2.01748   2.03241   2.04204   2.04230   2.04650
  Beta virt. eigenvalues --    2.05110   2.06925   2.07998   2.09859   2.11553
  Beta virt. eigenvalues --    2.12038   2.12250   2.12483   2.14667   2.15235
[...]

              Baa    -0.0228    -3.064    -1.093    -1.022  0.4991  0.6640  0.5569
     1 C(13)  Bbb    -0.0190    -2.543    -0.907    -0.848  0.8647 -0.3389 -0.3708
              Bcc     0.0418     5.607     2.001     1.870  0.0575 -0.6665  0.7433
 
              Baa    -0.0304    -4.075    -1.454    -1.359  0.0000  0.9897  0.1433
     2 C(13)  Bbb    -0.0201    -2.702    -0.964    -0.901  1.0000 -0.0000  0.0001
              Bcc     0.0505     6.777     2.418     2.260 -0.0001 -0.1433  0.9897
 
              Baa    -0.0074    -0.997    -0.356    -0.333  0.0612  0.6710  0.7390
     3 C(13)  Bbb    -0.0038    -0.513    -0.183    -0.171  0.9781 -0.1879  0.0896
              Bcc     0.0113     1.511     0.539     0.504  0.1990  0.7173 -0.6678
 
              Baa    -0.0228    -3.065    -1.094    -1.022 -0.4991  0.6640  0.5568
     4 C(13)  Bbb    -0.0190    -2.544    -0.908    -0.849  0.8646  0.3389  0.3709
              Bcc     0.0418     5.609     2.001     1.871 -0.0576 -0.6665  0.7433
 
              Baa    -0.0397    -5.330    -1.902    -1.778  0.0000  0.9877  0.1560
     5 C(13)  Bbb    -0.0345    -4.636    -1.654    -1.546  1.0000 -0.0000  0.0000
              Bcc     0.0743     9.965     3.556     3.324 -0.0000 -0.1560  0.9877
 
              Baa    -0.0074    -0.997    -0.356    -0.333 -0.0610  0.6710  0.7389
     6 C(13)  Bbb    -0.0038    -0.513    -0.183    -0.171  0.9781  0.1876 -0.0896
              Bcc     0.0113     1.511     0.539     0.504 -0.1988  0.7173 -0.6678
 
              Baa    -0.0021    -1.125    -0.401    -0.375 -0.1162 -0.2961  0.9481
     7 H(1)   Bbb    -0.0000    -0.024    -0.008    -0.008  0.9892  0.0516  0.1374
              Bcc     0.0022     1.149     0.410     0.383 -0.0896  0.9538  0.2869
 
              Baa    -0.0027    -1.423    -0.508    -0.475  0.0820 -0.3386  0.9374
     8 H(1)   Bbb    -0.0014    -0.732    -0.261    -0.244  0.9930  0.1078 -0.0479
              Bcc     0.0040     2.154     0.769     0.719 -0.0849  0.9347  0.3451
 
              Baa    -0.0021    -1.125    -0.401    -0.375  0.1161 -0.2962  0.9480
     9 H(1)   Bbb    -0.0000    -0.024    -0.008    -0.008  0.9892 -0.0516 -0.1373
              Bcc     0.0022     1.149     0.410     0.383  0.0895  0.9537  0.2870
 
              Baa    -0.0397    -5.324    -1.900    -1.776  0.0000  0.9876 -0.1568
    10 C(13)  Bbb    -0.0345    -4.630    -1.652    -1.544  1.0000 -0.0000 -0.0000
              Bcc     0.0742     9.954     3.552     3.320  0.0000  0.1568  0.9876
 
              Baa    -0.0074    -0.999    -0.356    -0.333 -0.0599 -0.6712  0.7389
    11 C(13)  Bbb    -0.0038    -0.515    -0.184    -0.172  0.9784 -0.1862 -0.0898
              Bcc     0.0113     1.514     0.540     0.505  0.1978  0.7176  0.6678
 
              Baa    -0.0074    -0.998    -0.356    -0.333  0.0599 -0.6709  0.7391
    12 C(13)  Bbb    -0.0038    -0.515    -0.184    -0.172  0.9784  0.1863  0.0897
              Bcc     0.0113     1.513     0.540     0.505 -0.1979  0.7177  0.6676
 
              Baa    -0.0228    -3.061    -1.092    -1.021  0.4983  0.6636 -0.5580
    13 C(13)  Bbb    -0.0189    -2.539    -0.906    -0.847  0.8651 -0.3376  0.3710
              Bcc     0.0417     5.600     1.998     1.868 -0.0579  0.6676  0.7423
 
              Baa    -0.0228    -3.062    -1.093    -1.021 -0.4983  0.6636 -0.5580
    14 C(13)  Bbb    -0.0189    -2.540    -0.906    -0.847  0.8651  0.3376 -0.3711
              Bcc     0.0417     5.602     1.999     1.869  0.0579  0.6676  0.7423
 
              Baa    -0.0304    -4.077    -1.455    -1.360 -0.0001  0.9896 -0.1441
    15 C(13)  Bbb    -0.0201    -2.704    -0.965    -0.902  1.0000  0.0000 -0.0001
              Bcc     0.0505     6.781     2.420     2.262  0.0001  0.1441  0.9896
 
              Baa    -0.0021    -1.125    -0.401    -0.375  0.1163  0.2970  0.9478
    16 H(1)   Bbb    -0.0000    -0.024    -0.009    -0.008  0.9891  0.0518 -0.1377
              Bcc     0.0022     1.149     0.410     0.383 -0.0900  0.9535 -0.2877
 
              Baa    -0.0021    -1.125    -0.401    -0.375 -0.1162  0.2971  0.9477
    17 H(1)   Bbb    -0.0000    -0.024    -0.009    -0.008  0.9892 -0.0517  0.1375
              Bcc     0.0022     1.149     0.410     0.383  0.0898  0.9534 -0.2879
 
              Baa    -0.0027    -1.423    -0.508    -0.475  0.0814  0.3392  0.9372
    18 H(1)   Bbb    -0.0014    -0.730    -0.260    -0.243  0.9931 -0.1070 -0.0476
              Bcc     0.0040     2.153     0.768     0.718  0.0841  0.9346 -0.3456
 
              Baa    -0.0027    -1.423    -0.508    -0.475 -0.0811  0.3394  0.9372
    19 H(1)   Bbb    -0.0014    -0.730    -0.261    -0.244  0.9931  0.1070  0.0473
              Bcc     0.0040     2.153     0.768     0.718 -0.0842  0.9346 -0.3457
 
              Baa    -0.0027    -1.423    -0.508    -0.475 -0.0822 -0.3385  0.9374
    20 H(1)   Bbb    -0.0014    -0.731    -0.261    -0.244  0.9930 -0.1078  0.0481
              Bcc     0.0040     2.154     0.769     0.719  0.0847  0.9348  0.3450
 
              Baa    -0.2517    -9.708    -3.464    -3.238 -0.0008  0.9476  0.3194
    21 N(14)  Bbb    -0.2506    -9.664    -3.448    -3.224  1.0000  0.0008  0.0002
              Bcc     0.5023    19.372     6.912     6.462  0.0001 -0.3194  0.9476
 
              Baa    -0.0172    -2.314    -0.826    -0.772  0.6264  0.6864 -0.3694
    22 C(13)  Bbb     0.0046     0.623     0.222     0.208  0.6196 -0.1510  0.7703
              Bcc     0.0126     1.692     0.604     0.564 -0.4729  0.7114  0.5198
 
              Baa    -0.0273    -3.663    -1.307    -1.222  0.1026  0.5847  0.8047
    23 C(13)  Bbb    -0.0239    -3.201    -1.142    -1.068 -0.6482  0.6529 -0.3918
              Bcc     0.0511     6.863     2.449     2.289  0.7545  0.4815 -0.4460
 
              Baa    -0.0288    -3.867    -1.380    -1.290  0.7303 -0.5438  0.4135
    24 C(13)  Bbb    -0.0256    -3.434    -1.225    -1.146 -0.0901  0.5233  0.8474
              Bcc     0.0544     7.302     2.605     2.436  0.6772  0.6561 -0.3331
 
              Baa    -0.0191    -2.558    -0.913    -0.853 -0.5191 -0.5939  0.6147
    25 C(13)  Bbb     0.0084     1.125     0.401     0.375  0.6962  0.1235  0.7072
              Bcc     0.0107     1.433     0.511     0.478 -0.4959  0.7950  0.3493
 
              Baa    -0.0209    -2.807    -1.002    -0.936 -0.5601 -0.5360  0.6317
    26 C(13)  Bbb     0.0091     1.224     0.437     0.408  0.6210  0.2330  0.7484
              Bcc     0.0118     1.583     0.565     0.528 -0.5483  0.8115  0.2023
 
              Baa    -0.0318    -4.267    -1.522    -1.423  0.6797  0.2047  0.7043
    27 C(13)  Bbb    -0.0286    -3.839    -1.370    -1.280 -0.5269  0.8044  0.2747
              Bcc     0.0604     8.105     2.892     2.704 -0.5103 -0.5578  0.6546
 
              Baa    -0.0021    -1.134    -0.405    -0.378  0.2599  0.8221 -0.5066
    28 H(1)   Bbb    -0.0011    -0.604    -0.215    -0.201  0.7557 -0.4998 -0.4233
              Bcc     0.0033     1.737     0.620     0.580  0.6012  0.2728  0.7511
 
              Baa    -0.0023    -1.208    -0.431    -0.403 -0.6020 -0.5145  0.6106
    29 H(1)   Bbb    -0.0008    -0.426    -0.152    -0.142 -0.2667  0.8503  0.4536
              Bcc     0.0031     1.634     0.583     0.545  0.7526 -0.1102  0.6491
 
              Baa    -0.0011    -0.603    -0.215    -0.201  0.5777  0.5867 -0.5676
    30 H(1)   Bbb     0.0002     0.095     0.034     0.032  0.7308 -0.0618  0.6798
              Bcc     0.0010     0.508     0.181     0.169 -0.3637  0.8075  0.4644
 
              Baa    -0.0012    -0.634    -0.226    -0.211  0.5838  0.6076 -0.5385
    31 H(1)   Bbb    -0.0001    -0.031    -0.011    -0.010  0.4718  0.2860  0.8341
              Bcc     0.0012     0.665     0.237     0.222 -0.6608  0.7410  0.1197
 
              Baa    -0.0041    -2.173    -0.775    -0.725  0.6743  0.1573  0.7215
    32 H(1)   Bbb    -0.0004    -0.229    -0.082    -0.076 -0.5383 -0.5642  0.6260
              Bcc     0.0045     2.401     0.857     0.801 -0.5055  0.8105  0.2958
 
              Baa    -0.0172    -2.313    -0.825    -0.771 -0.6271  0.6862 -0.3686
    33 C(13)  Bbb     0.0046     0.622     0.222     0.208 -0.6189 -0.1517  0.7707
              Bcc     0.0126     1.690     0.603     0.564  0.4730  0.7114  0.5199
 
              Baa    -0.0273    -3.660    -1.306    -1.221 -0.1024  0.5842  0.8051
    34 C(13)  Bbb    -0.0238    -3.197    -1.141    -1.066  0.6475  0.6536 -0.3919
              Bcc     0.0511     6.857     2.447     2.287  0.7552 -0.4811  0.4452
 
              Baa    -0.0288    -3.864    -1.379    -1.289  0.7298  0.5439 -0.4141
    35 C(13)  Bbb    -0.0256    -3.431    -1.224    -1.144  0.0910  0.5231  0.8474
              Bcc     0.0544     7.295     2.603     2.433  0.6776 -0.6561  0.3323
 
              Baa    -0.0190    -2.556    -0.912    -0.853  0.5196 -0.5939  0.6142
    36 C(13)  Bbb     0.0084     1.124     0.401     0.375 -0.6954  0.1237  0.7079
              Bcc     0.0107     1.432     0.511     0.478  0.4964  0.7950  0.3488
 
              Baa    -0.0209    -2.804    -1.001    -0.935  0.5608 -0.5359  0.6312
    37 C(13)  Bbb     0.0091     1.223     0.436     0.408 -0.6210  0.2320  0.7487
              Bcc     0.0118     1.581     0.564     0.527  0.5476  0.8118  0.2027
 
              Baa    -0.0318    -4.262    -1.521    -1.422 -0.6793  0.2042  0.7048
    38 C(13)  Bbb    -0.0286    -3.834    -1.368    -1.279  0.5267  0.8045  0.2745
              Bcc     0.0603     8.096     2.889     2.701  0.5110 -0.5577  0.6541
 
              Baa    -0.0021    -1.133    -0.404    -0.378 -0.2615  0.8215 -0.5067
    39 H(1)   Bbb    -0.0011    -0.603    -0.215    -0.201  0.7551  0.5012  0.4227
              Bcc     0.0033     1.736     0.619     0.579 -0.6012  0.2721  0.7513
 
              Baa    -0.0023    -1.208    -0.431    -0.403  0.6022 -0.5150  0.6100
    40 H(1)   Bbb    -0.0008    -0.425    -0.151    -0.142  0.2676  0.8501  0.4535
              Bcc     0.0031     1.632     0.582     0.544  0.7522  0.1099 -0.6497
 
              Baa    -0.0011    -0.603    -0.215    -0.201 -0.5783  0.5867 -0.5670
    41 H(1)   Bbb     0.0002     0.095     0.034     0.032  0.7299  0.0616 -0.6807
              Bcc     0.0010     0.508     0.181     0.169  0.3644  0.8075  0.4638
 
              Baa    -0.0012    -0.634    -0.226    -0.211 -0.5844  0.6075 -0.5380
    42 H(1)   Bbb    -0.0001    -0.031    -0.011    -0.010 -0.4717  0.2851  0.8344
              Bcc     0.0012     0.664     0.237     0.222  0.6603  0.7413  0.1200
 
              Baa    -0.0041    -2.170    -0.774    -0.724 -0.6739  0.1568  0.7220
    43 H(1)   Bbb    -0.0004    -0.229    -0.082    -0.076  0.5390 -0.5641  0.6255
              Bcc     0.0045     2.399     0.856     0.800  0.5054  0.8107  0.2956
 
              Baa    -0.2517    -9.708    -3.464    -3.238 -0.0004  0.9476 -0.3194
    44 N(14)  Bbb    -0.2506    -9.664    -3.448    -3.224  1.0000  0.0004 -0.0001
              Bcc     0.5023    19.372     6.912     6.462 -0.0001  0.3194  0.9476
 
              Baa    -0.0172    -2.313    -0.825    -0.772  0.6270  0.6862  0.3688
    45 C(13)  Bbb     0.0046     0.623     0.222     0.208 -0.6189  0.1514  0.7707
              Bcc     0.0126     1.690     0.603     0.564 -0.4730  0.7115 -0.5196
 
              Baa    -0.0273    -3.659    -1.306    -1.221 -0.1024 -0.5843  0.8050
    46 C(13)  Bbb    -0.0238    -3.197    -1.141    -1.066 -0.6476  0.6534  0.3920
              Bcc     0.0511     6.856     2.446     2.287  0.7551  0.4812  0.4453
 
              Baa    -0.0288    -3.864    -1.379    -1.289  0.7299 -0.5437 -0.4141
    47 C(13)  Bbb    -0.0256    -3.430    -1.224    -1.144  0.0911 -0.5231  0.8474
              Bcc     0.0544     7.294     2.603     2.433  0.6774  0.6563  0.3323
 
              Baa    -0.0190    -2.555    -0.912    -0.852  0.5194  0.5941  0.6143
    48 C(13)  Bbb     0.0084     1.124     0.401     0.375 -0.6954 -0.1240  0.7079
              Bcc     0.0107     1.432     0.511     0.478 -0.4967  0.7948 -0.3487
 
              Baa    -0.0209    -2.804    -1.001    -0.935  0.5606  0.5360  0.6312
    49 C(13)  Bbb     0.0091     1.223     0.436     0.408 -0.6210 -0.2322  0.7487
              Bcc     0.0118     1.581     0.564     0.527 -0.5478  0.8117 -0.2027
 
              Baa    -0.0318    -4.261    -1.521    -1.421 -0.6793 -0.2044  0.7048
    50 C(13)  Bbb    -0.0286    -3.834    -1.368    -1.279 -0.5269  0.8044 -0.2745
              Bcc     0.0603     8.095     2.889     2.700  0.5108  0.5579  0.6541
 
              Baa    -0.0021    -1.134    -0.405    -0.378  0.2612  0.8216  0.5068
    51 H(1)   Bbb    -0.0011    -0.602    -0.215    -0.201  0.7551 -0.5010  0.4230
              Bcc     0.0033     1.736     0.619     0.579 -0.6014 -0.2722  0.7512
 
              Baa    -0.0023    -1.208    -0.431    -0.403  0.6020  0.5152  0.6100
    52 H(1)   Bbb    -0.0008    -0.424    -0.151    -0.142 -0.2678  0.8500 -0.4536
              Bcc     0.0031     1.632     0.582     0.544  0.7522 -0.1097 -0.6497
 
              Baa    -0.0011    -0.603    -0.215    -0.201  0.5781  0.5868  0.5670
    53 H(1)   Bbb     0.0002     0.095     0.034     0.032  0.7299 -0.0613 -0.6808
              Bcc     0.0010     0.508     0.181     0.169 -0.3648  0.8074 -0.4638
 
              Baa    -0.0012    -0.633    -0.226    -0.211  0.5842  0.6077  0.5380
    54 H(1)   Bbb    -0.0001    -0.031    -0.011    -0.010 -0.4717 -0.2852  0.8344
              Bcc     0.0012     0.664     0.237     0.222 -0.6605  0.7412 -0.1200
 
              Baa    -0.0041    -2.170    -0.774    -0.724 -0.6739 -0.1569  0.7220
    55 H(1)   Bbb    -0.0004    -0.229    -0.082    -0.076  0.5388  0.5643  0.6255
              Bcc     0.0045     2.399     0.856     0.800 -0.5056  0.8105 -0.2957
 
              Baa    -0.0172    -2.313    -0.825    -0.771 -0.6272  0.6863  0.3683
    56 C(13)  Bbb     0.0046     0.623     0.222     0.208  0.6188  0.1518  0.7708
              Bcc     0.0126     1.690     0.603     0.564  0.4731  0.7113 -0.5198
 
              Baa    -0.0273    -3.658    -1.305    -1.220  0.1023 -0.5841  0.8052
    57 C(13)  Bbb    -0.0238    -3.195    -1.140    -1.066  0.6473  0.6537  0.3919
              Bcc     0.0511     6.854     2.446     2.286  0.7553 -0.4811 -0.4450
 
              Baa    -0.0288    -3.863    -1.378    -1.288  0.7297  0.5439  0.4143
    58 C(13)  Bbb    -0.0256    -3.429    -1.223    -1.144 -0.0914 -0.5229  0.8475
              Bcc     0.0543     7.291     2.602     2.432  0.6776 -0.6563 -0.3319
 
              Baa    -0.0190    -2.554    -0.911    -0.852 -0.5196  0.5941  0.6140
    59 C(13)  Bbb     0.0084     1.123     0.401     0.375  0.6951 -0.1239  0.7082
              Bcc     0.0107     1.431     0.511     0.477  0.4968  0.7948 -0.3486
 
              Baa    -0.0209    -2.803    -1.000    -0.935 -0.5609  0.5361  0.6309
    60 C(13)  Bbb     0.0091     1.222     0.436     0.408  0.6210 -0.2317  0.7488
              Bcc     0.0118     1.581     0.564     0.527  0.5476  0.8118 -0.2030
 
              Baa    -0.0317    -4.260    -1.520    -1.421  0.6791 -0.2042  0.7050
    61 C(13)  Bbb    -0.0286    -3.832    -1.367    -1.278  0.5269  0.8044 -0.2746
              Bcc     0.0603     8.092     2.887     2.699 -0.5110  0.5579  0.6539
 
              Baa    -0.0021    -1.133    -0.404    -0.378 -0.2617  0.8214  0.5067
    62 H(1)   Bbb    -0.0011    -0.602    -0.215    -0.201  0.7549  0.5014 -0.4229
              Bcc     0.0033     1.736     0.619     0.579  0.6014 -0.2718  0.7513
 
              Baa    -0.0023    -1.207    -0.431    -0.403 -0.6021  0.5155  0.6097
    63 H(1)   Bbb    -0.0008    -0.424    -0.151    -0.141  0.2681  0.8499 -0.4537
              Bcc     0.0031     1.631     0.582     0.544  0.7520  0.1098  0.6499
 
              Baa    -0.0011    -0.602    -0.215    -0.201 -0.5783  0.5869  0.5667
    64 H(1)   Bbb     0.0002     0.095     0.034     0.032  0.7296  0.0612  0.6811
              Bcc     0.0010     0.508     0.181     0.169  0.3650  0.8074 -0.4636
 
              Baa    -0.0012    -0.633    -0.226    -0.211 -0.5844  0.6077  0.5377
    65 H(1)   Bbb    -0.0001    -0.031    -0.011    -0.010  0.4717 -0.2848  0.8345
              Bcc     0.0012     0.664     0.237     0.222  0.6603  0.7413 -0.1202
 
              Baa    -0.0041    -2.169    -0.774    -0.724  0.6737 -0.1567  0.7222
    66 H(1)   Bbb    -0.0004    -0.229    -0.082    -0.076 -0.5390  0.5644  0.6253
              Bcc     0.0045     2.398     0.856     0.800  0.5056  0.8105 -0.2957
 

 ---------------------------------------------------------------------------------

 No NMR shielding tensors so no spin-rotation constants.
 Leave Link  601 at Mon Jan 18 03:34:23 2021, MaxMem=  4026531840 cpu:              10.8 elap:               1.5
 (Enter /opt/ohpc/pub/libs/gaussian/g16-A.03/sandybridge/g16/l9999.exe)

 Test job not archived.
 1\1\GINC-CASCADEB019\SP\ULC-wHPBE\TZVP\C36H28N2(1+,2)\RDU230\18-Jan-20
 21\0\\#P LC-wHPBE/TZVP iop(3/107=0167700000, 3/108=0167700000) scf=(co
 nver=6,fermi,ndamp=35,noincfock,novaracc,vshift=500,xqc)\\H28 C36 N2\\
 1,2\C,0,2.849999,-1.125861,0.415638\C,0,3.563139,-0.000026,-0.000017\C
 ,0,1.464492,-1.123667,0.405534\C,0,2.850033,1.125752,-0.415809\C,0,0.7
 41288,-0.000047,-0.000195\C,0,1.464504,1.123547,-0.405879\H,0,0.931596
 ,-2.005844,0.756198\H,0,3.391048,2.006254,-0.75499\H,0,0.931669,2.0057
 28,-0.756629\C,0,-0.741437,-0.000073,-0.000217\C,0,-1.464635,1.123165,
 0.406556\C,0,-1.464638,-1.123302,-0.406976\C,0,-2.850149,1.125343,0.41
 661\C,0,-2.850163,-1.125491,-0.416935\C,0,-3.563257,-0.000095,-0.00011
 6\H,0,-0.931751,2.005025,0.758038\H,0,-0.931783,-2.00514,-0.758553\H,0
 ,-3.391193,2.005527,0.756576\H,0,-3.391211,-2.005669,-0.756913\H,0,3.3
 91005,-2.006357,0.754845\N,0,-4.97843,-0.000102,-0.000065\C,0,-5.68709
 9,-1.154578,0.414287\C,0,-6.831881,-1.566674,-0.27115\C,0,-5.251323,-1
 .896933,1.513908\C,0,-7.528311,-2.692826,0.143324\C,0,-5.943392,-3.032
 223,1.91044\C,0,-7.087522,-3.435368,1.232277\H,0,-7.173684,-0.995181,-
 1.131117\H,0,-4.363437,-1.577947,2.055099\H,0,-8.419174,-2.999763,-0.4
 0155\H,0,-5.58986,-3.599797,2.769285\H,0,-7.631852,-4.321852,1.550225\
 C,0,-5.687025,1.154532,-0.414292\C,0,-6.831191,1.567225,0.271802\C,0,-
 5.251707,1.896381,-1.514415\C,0,-7.527485,2.693516,-0.142525\C,0,-5.94
 362,3.031828,-1.910808\C,0,-7.087137,3.435581,-1.231989\H,0,-7.172616,
 0.996083,1.132151\H,0,-4.364291,1.57691,-2.056093\H,0,-8.417875,3.0009
 45,0.402845\H,0,-5.590451,3.599029,-2.77005\H,0,-7.63135,4.322181,-1.5
 49815\N,0,4.978266,0.00002,0.000103\C,0,5.68699,1.154558,0.414335\C,0,
 6.831289,1.56698,-0.271699\C,0,5.251761,1.896543,1.51441\C,0,7.527834,
 2.693112,0.142653\C,0,5.943923,3.031822,1.910819\C,0,7.08759,3.435293,
 1.232069\H,0,7.172649,0.995729,-1.132\H,0,4.364233,1.577285,2.056034\H
 ,0,8.418333,3.000297,-0.402674\H,0,5.59085,3.599137,2.770027\H,0,7.631
 979,4.321768,1.549941\C,0,5.687017,-1.154516,-0.414141\C,0,6.831068,-1
 .567191,0.272109\C,0,5.251977,-1.896199,-1.514492\C,0,7.527566,-2.6933
 48,-0.142281\C,0,5.944079,-3.031486,-1.910953\C,0,7.087509,-3.435246,-
 1.231958\H,0,7.172277,-0.996155,1.132614\H,0,4.364636,-1.576682,-2.056
 275\H,0,8.417864,-3.000787,0.403227\H,0,5.591165,-3.598572,-2.770374\H
 ,0,7.631874,-4.32173,-1.549857\\Version=EM64L-G16RevA.03\State=2-A\HF=
 -1496.9471937\S2=0.770261\S2-1=0.\S2A=0.750236\RMSD=9.649e-07\Dipole=0
 .0001662,0.0000979,-0.0000466\Quadrupole=73.3403092,-24.1246204,-49.21
 56887,-0.0045682,-0.0004154,0.002337\PG=C01 [X(C36H28N2)]\\@


  THE LARGE PRINT GIVETH,
  AND THE SMALL PRINT TAKETH AWAY.

                     -- TOM WAITS
 Job cpu time:       0 days  3 hours 51 minutes 30.9 seconds.
 Elapsed time:       0 days  0 hours 29 minutes 17.1 seconds.
 File lengths (MBytes):  RWF=    428 Int=      0 D2E=      0 Chk=     60 Scr=      8
 Normal termination of Gaussian 16 at Mon Jan 18 03:34:23 2021.
