 Entering Gaussian System, Link 0=g16
 Input=mol_bp_pa_whol_tune_c5.gjf
 Output=mol_bp_pa_whol_tune_c5.log
 Initial command:
 /opt/ohpc/pub/libs/gaussian/g16-A.03/sandybridge/g16/l1.exe "/mnt/gpfs2_4m/scratch/rdu230/ondemand/projects/init_structures/wtuning/mol_bp_pa_whol/tuning_mol_bp_pa_whol_ocycle0/Gau-109353.inp" -scrdir="/mnt/gpfs2_4m/scratch/rdu230/ondemand/projects/init_structures/wtuning/mol_bp_pa_whol/tuning_mol_bp_pa_whol_ocycle0/"
 Entering Link 1 = /opt/ohpc/pub/libs/gaussian/g16-A.03/sandybridge/g16/l1.exe PID=    109360.
  
 Copyright (c) 1988,1990,1992,1993,1995,1998,2003,2009,2016,
            Gaussian, Inc.  All Rights Reserved.
  
 This is part of the Gaussian(R) 16 program.  It is based on
 the Gaussian(R) 09 system (copyright 2009, Gaussian, Inc.),
 the Gaussian(R) 03 system (copyright 2003, Gaussian, Inc.),
 the Gaussian(R) 98 system (copyright 1998, Gaussian, Inc.),
 the Gaussian(R) 94 system (copyright 1995, Gaussian, Inc.),
 the Gaussian 92(TM) system (copyright 1992, Gaussian, Inc.),
 the Gaussian 90(TM) system (copyright 1990, Gaussian, Inc.),
 the Gaussian 88(TM) system (copyright 1988, Gaussian, Inc.),
 the Gaussian 86(TM) system (copyright 1986, Carnegie Mellon
 University), and the Gaussian 82(TM) system (copyright 1983,
 Carnegie Mellon University). Gaussian is a federally registered
 trademark of Gaussian, Inc.
  
 This software contains proprietary and confidential information,
 including trade secrets, belonging to Gaussian, Inc.
  
 This software is provided under written license and may be
 used, copied, transmitted, or stored only in accord with that
 written license.
  
 The following legend is applicable only to US Government
 contracts under FAR:
  
                    RESTRICTED RIGHTS LEGEND
  
 Use, reproduction and disclosure by the US Government is
 subject to restrictions as set forth in subparagraphs (a)
 and (c) of the Commercial Computer Software - Restricted
 Rights clause in FAR 52.227-19.
  
 Gaussian, Inc.
 340 Quinnipiac St., Bldg. 40, Wallingford CT 06492
  
  
 ---------------------------------------------------------------
 Warning -- This program may not be used in any manner that
 competes with the business of Gaussian, Inc. or will provide
 assistance to any competitor of Gaussian, Inc.  The licensee
 of this program is prohibited from giving any competitor of
 Gaussian, Inc. access to this program.  By using this program,
 the user acknowledges that Gaussian, Inc. is engaged in the
 business of creating and licensing software in the field of
 computational chemistry and represents and warrants to the
 licensee that it is not a competitor of Gaussian, Inc. and that
 it will not use this program in any manner prohibited above.
 ---------------------------------------------------------------
  

 Cite this work as:
 Gaussian 16, Revision A.03,
 M. J. Frisch, G. W. Trucks, H. B. Schlegel, G. E. Scuseria, 
 M. A. Robb, J. R. Cheeseman, G. Scalmani, V. Barone, 
 G. A. Petersson, H. Nakatsuji, X. Li, M. Caricato, A. V. Marenich, 
 J. Bloino, B. G. Janesko, R. Gomperts, B. Mennucci, H. P. Hratchian, 
 J. V. Ortiz, A. F. Izmaylov, J. L. Sonnenberg, D. Williams-Young, 
 F. Ding, F. Lipparini, F. Egidi, J. Goings, B. Peng, A. Petrone, 
 T. Henderson, D. Ranasinghe, V. G. Zakrzewski, J. Gao, N. Rega, 
 G. Zheng, W. Liang, M. Hada, M. Ehara, K. Toyota, R. Fukuda, 
 J. Hasegawa, M. Ishida, T. Nakajima, Y. Honda, O. Kitao, H. Nakai, 
 T. Vreven, K. Throssell, J. A. Montgomery, Jr., J. E. Peralta, 
 F. Ogliaro, M. J. Bearpark, J. J. Heyd, E. N. Brothers, K. N. Kudin, 
 V. N. Staroverov, T. A. Keith, R. Kobayashi, J. Normand, 
 K. Raghavachari, A. P. Rendell, J. C. Burant, S. S. Iyengar, 
 J. Tomasi, M. Cossi, J. M. Millam, M. Klene, C. Adamo, R. Cammi, 
 J. W. Ochterski, R. L. Martin, K. Morokuma, O. Farkas, 
 J. B. Foresman, and D. J. Fox, Gaussian, Inc., Wallingford CT, 2016.
 
 ******************************************
 Gaussian 16:  EM64L-G16RevA.03 25-Dec-2016
                18-Jan-2021 
 ******************************************
 %mem=30GB
 %nproc=8
 Will use up to    8 processors via shared memory.
 ----------------------------------------------------------------------
 #P LC-wHPBE/TZVP iop(3/107=0184000000, 3/108=0184000000) scf=(conver=6
 ,fermi,ndamp=35,noincfock,novaracc,vshift=500,xqc)
 ----------------------------------------------------------------------
 1/38=1,172=1/1;
 2/12=2,17=6,18=5,40=1/2;
 3/5=19,7=101,11=2,25=1,30=1,74=-71,107=184000000,108=184000000/1,2,3;
 4//1;
 5/5=100002,6=6,8=3,10=500,13=1,18=-1,22=13,38=1,93=35/2,8;
 6/7=2,8=2,9=2,10=2,28=1/1;
 99/5=1,9=1/99;
 Leave Link    1 at Mon Jan 18 01:35:21 2021, MaxMem=  4026531840 cpu:               1.2 elap:               0.2
 (Enter /opt/ohpc/pub/libs/gaussian/g16-A.03/sandybridge/g16/l101.exe)
 ----------
 H28 C36 N2
 ----------
 Symbolic Z-matrix:
 Charge =  1 Multiplicity = 2
 C                     2.85     -1.12586   0.41564 
 C                     3.56314  -0.00003  -0.00002 
 C                     1.46449  -1.12367   0.40553 
 C                     2.85003   1.12575  -0.41581 
 C                     0.74129  -0.00005  -0.0002 
 C                     1.4645    1.12355  -0.40588 
 H                     0.9316   -2.00584   0.7562 
 H                     3.39105   2.00625  -0.75499 
 H                     0.93167   2.00573  -0.75663 
 C                    -0.74144  -0.00007  -0.00022 
 C                    -1.46464   1.12316   0.40656 
 C                    -1.46464  -1.1233   -0.40698 
 C                    -2.85015   1.12534   0.41661 
 C                    -2.85016  -1.12549  -0.41694 
 C                    -3.56326  -0.0001   -0.00012 
 H                    -0.93175   2.00502   0.75804 
 H                    -0.93178  -2.00514  -0.75855 
 H                    -3.39119   2.00553   0.75658 
 H                    -3.39121  -2.00567  -0.75691 
 H                     3.39101  -2.00636   0.75485 
 N                    -4.97843  -0.0001   -0.00007 
 C                    -5.6871   -1.15458   0.41429 
 C                    -6.83188  -1.56667  -0.27115 
 C                    -5.25132  -1.89693   1.51391 
 C                    -7.52831  -2.69283   0.14332 
 C                    -5.94339  -3.03222   1.91044 
 C                    -7.08752  -3.43537   1.23228 
 H                    -7.17368  -0.99518  -1.13112 
 H                    -4.36344  -1.57795   2.0551 
 H                    -8.41917  -2.99976  -0.40155 
 H                    -5.58986  -3.5998    2.76929 
 H                    -7.63185  -4.32185   1.55023 
 C                    -5.68703   1.15453  -0.41429 
 C                    -6.83119   1.56723   0.2718 
 C                    -5.25171   1.89638  -1.51442 
 C                    -7.52749   2.69352  -0.14253 
 C                    -5.94362   3.03183  -1.91081 
 C                    -7.08714   3.43558  -1.23199 
 H                    -7.17262   0.99608   1.13215 
 H                    -4.36429   1.57691  -2.05609 
 H                    -8.41788   3.00095   0.40285 
 H                    -5.59045   3.59903  -2.77005 
 H                    -7.63135   4.32218  -1.54982 
 N                     4.97827   0.00002   0.0001 
 C                     5.68699   1.15456   0.41434 
 C                     6.83129   1.56698  -0.2717 
 C                     5.25176   1.89654   1.51441 
 C                     7.52783   2.69311   0.14265 
 C                     5.94392   3.03182   1.91082 
 C                     7.08759   3.43529   1.23207 
 H                     7.17265   0.99573  -1.132 
 H                     4.36423   1.57729   2.05603 
 H                     8.41833   3.0003   -0.40267 
 H                     5.59085   3.59914   2.77003 
 H                     7.63198   4.32177   1.54994 
 C                     5.68702  -1.15452  -0.41414 
 C                     6.83107  -1.56719   0.27211 
 C                     5.25198  -1.8962   -1.51449 
 C                     7.52757  -2.69335  -0.14228 
 C                     5.94408  -3.03149  -1.91095 
 C                     7.08751  -3.43525  -1.23196 
 H                     7.17228  -0.99616   1.13261 
 H                     4.36464  -1.57668  -2.05627 
 H                     8.41786  -3.00079   0.40323 
 H                     5.59117  -3.59857  -2.77037 
 H                     7.63187  -4.32173  -1.54986 
 
 ITRead=  0  0  0  0  0  0  0  0  0  0  0  0  0  0  0  0  0  0  0  0
 ITRead=  0  0  0  0  0  0  0  0  0  0  0  0  0  0  0  0  0  0  0  0
 ITRead=  0  0  0  0  0  0  0  0  0  0  0  0  0  0  0  0  0  0  0  0
 ITRead=  0  0  0  0  0  0
 MicOpt= -1 -1 -1 -1 -1 -1 -1 -1 -1 -1 -1 -1 -1 -1 -1 -1 -1 -1 -1 -1
 MicOpt= -1 -1 -1 -1 -1 -1 -1 -1 -1 -1 -1 -1 -1 -1 -1 -1 -1 -1 -1 -1
 MicOpt= -1 -1 -1 -1 -1 -1 -1 -1 -1 -1 -1 -1 -1 -1 -1 -1 -1 -1 -1 -1
 MicOpt= -1 -1 -1 -1 -1 -1
 NAtoms=     66 NQM=       66 NQMF=       0 NMMI=      0 NMMIF=      0
                NMic=       0 NMicF=      0.
                    Isotopes and Nuclear Properties:
 (Nuclear quadrupole moments (NQMom) in fm**2, nuclear magnetic moments (NMagM)
  in nuclear magnetons)

  Atom         1           2           3           4           5           6           7           8           9          10
 IAtWgt=          12          12          12          12          12          12           1           1           1          12
 AtmWgt=  12.0000000  12.0000000  12.0000000  12.0000000  12.0000000  12.0000000   1.0078250   1.0078250   1.0078250  12.0000000
 NucSpn=           0           0           0           0           0           0           1           1           1           0
 AtZEff=  -0.0000000  -0.0000000  -0.0000000  -0.0000000  -0.0000000  -0.0000000  -0.0000000  -0.0000000  -0.0000000  -0.0000000
 NQMom=    0.0000000   0.0000000   0.0000000   0.0000000   0.0000000   0.0000000   0.0000000   0.0000000   0.0000000   0.0000000
 NMagM=    0.0000000   0.0000000   0.0000000   0.0000000   0.0000000   0.0000000   2.7928460   2.7928460   2.7928460   0.0000000
 AtZNuc=   6.0000000   6.0000000   6.0000000   6.0000000   6.0000000   6.0000000   1.0000000   1.0000000   1.0000000   6.0000000

  Atom        11          12          13          14          15          16          17          18          19          20
 IAtWgt=          12          12          12          12          12           1           1           1           1           1
 AtmWgt=  12.0000000  12.0000000  12.0000000  12.0000000  12.0000000   1.0078250   1.0078250   1.0078250   1.0078250   1.0078250
 NucSpn=           0           0           0           0           0           1           1           1           1           1
 AtZEff=  -0.0000000  -0.0000000  -0.0000000  -0.0000000  -0.0000000  -0.0000000  -0.0000000  -0.0000000  -0.0000000  -0.0000000
 NQMom=    0.0000000   0.0000000   0.0000000   0.0000000   0.0000000   0.0000000   0.0000000   0.0000000   0.0000000   0.0000000
 NMagM=    0.0000000   0.0000000   0.0000000   0.0000000   0.0000000   2.7928460   2.7928460   2.7928460   2.7928460   2.7928460
 AtZNuc=   6.0000000   6.0000000   6.0000000   6.0000000   6.0000000   1.0000000   1.0000000   1.0000000   1.0000000   1.0000000

  Atom        21          22          23          24          25          26          27          28          29          30
 IAtWgt=          14          12          12          12          12          12          12           1           1           1
 AtmWgt=  14.0030740  12.0000000  12.0000000  12.0000000  12.0000000  12.0000000  12.0000000   1.0078250   1.0078250   1.0078250
 NucSpn=           2           0           0           0           0           0           0           1           1           1
 AtZEff=  -0.0000000  -0.0000000  -0.0000000  -0.0000000  -0.0000000  -0.0000000  -0.0000000  -0.0000000  -0.0000000  -0.0000000
 NQMom=    2.0440000   0.0000000   0.0000000   0.0000000   0.0000000   0.0000000   0.0000000   0.0000000   0.0000000   0.0000000
 NMagM=    0.4037610   0.0000000   0.0000000   0.0000000   0.0000000   0.0000000   0.0000000   2.7928460   2.7928460   2.7928460
 AtZNuc=   7.0000000   6.0000000   6.0000000   6.0000000   6.0000000   6.0000000   6.0000000   1.0000000   1.0000000   1.0000000

  Atom        31          32          33          34          35          36          37          38          39          40
 IAtWgt=           1           1          12          12          12          12          12          12           1           1
 AtmWgt=   1.0078250   1.0078250  12.0000000  12.0000000  12.0000000  12.0000000  12.0000000  12.0000000   1.0078250   1.0078250
 NucSpn=           1           1           0           0           0           0           0           0           1           1
 AtZEff=  -0.0000000  -0.0000000  -0.0000000  -0.0000000  -0.0000000  -0.0000000  -0.0000000  -0.0000000  -0.0000000  -0.0000000
 NQMom=    0.0000000   0.0000000   0.0000000   0.0000000   0.0000000   0.0000000   0.0000000   0.0000000   0.0000000   0.0000000
 NMagM=    2.7928460   2.7928460   0.0000000   0.0000000   0.0000000   0.0000000   0.0000000   0.0000000   2.7928460   2.7928460
 AtZNuc=   1.0000000   1.0000000   6.0000000   6.0000000   6.0000000   6.0000000   6.0000000   6.0000000   1.0000000   1.0000000

  Atom        41          42          43          44          45          46          47          48          49          50
 IAtWgt=           1           1           1          14          12          12          12          12          12          12
 AtmWgt=   1.0078250   1.0078250   1.0078250  14.0030740  12.0000000  12.0000000  12.0000000  12.0000000  12.0000000  12.0000000
 NucSpn=           1           1           1           2           0           0           0           0           0           0
 AtZEff=  -0.0000000  -0.0000000  -0.0000000  -0.0000000  -0.0000000  -0.0000000  -0.0000000  -0.0000000  -0.0000000  -0.0000000
 NQMom=    0.0000000   0.0000000   0.0000000   2.0440000   0.0000000   0.0000000   0.0000000   0.0000000   0.0000000   0.0000000
 NMagM=    2.7928460   2.7928460   2.7928460   0.4037610   0.0000000   0.0000000   0.0000000   0.0000000   0.0000000   0.0000000
 AtZNuc=   1.0000000   1.0000000   1.0000000   7.0000000   6.0000000   6.0000000   6.0000000   6.0000000   6.0000000   6.0000000

  Atom        51          52          53          54          55          56          57          58          59          60
 IAtWgt=           1           1           1           1           1          12          12          12          12          12
 AtmWgt=   1.0078250   1.0078250   1.0078250   1.0078250   1.0078250  12.0000000  12.0000000  12.0000000  12.0000000  12.0000000
 NucSpn=           1           1           1           1           1           0           0           0           0           0
 AtZEff=  -0.0000000  -0.0000000  -0.0000000  -0.0000000  -0.0000000  -0.0000000  -0.0000000  -0.0000000  -0.0000000  -0.0000000
 NQMom=    0.0000000   0.0000000   0.0000000   0.0000000   0.0000000   0.0000000   0.0000000   0.0000000   0.0000000   0.0000000
 NMagM=    2.7928460   2.7928460   2.7928460   2.7928460   2.7928460   0.0000000   0.0000000   0.0000000   0.0000000   0.0000000
 AtZNuc=   1.0000000   1.0000000   1.0000000   1.0000000   1.0000000   6.0000000   6.0000000   6.0000000   6.0000000   6.0000000

  Atom        61          62          63          64          65          66
 IAtWgt=          12           1           1           1           1           1
 AtmWgt=  12.0000000   1.0078250   1.0078250   1.0078250   1.0078250   1.0078250
 NucSpn=           0           1           1           1           1           1
 AtZEff=  -0.0000000  -0.0000000  -0.0000000  -0.0000000  -0.0000000  -0.0000000
 NQMom=    0.0000000   0.0000000   0.0000000   0.0000000   0.0000000   0.0000000
 NMagM=    0.0000000   2.7928460   2.7928460   2.7928460   2.7928460   2.7928460
 AtZNuc=   6.0000000   1.0000000   1.0000000   1.0000000   1.0000000   1.0000000
 Leave Link  101 at Mon Jan 18 01:35:21 2021, MaxMem=  4026531840 cpu:               0.7 elap:               0.1
 (Enter /opt/ohpc/pub/libs/gaussian/g16-A.03/sandybridge/g16/l202.exe)
 Stoichiometry    C36H28N2(1+,2)
 Framework group  C1[X(C36H28N2)]
 Deg. of freedom   192
 Full point group                 C1      NOp   1
 Largest Abelian subgroup         C1      NOp   1
 Largest concise Abelian subgroup C1      NOp   1
                         Standard orientation:                         
 ---------------------------------------------------------------------
 Center     Atomic      Atomic             Coordinates (Angstroms)
 Number     Number       Type             X           Y           Z
 ---------------------------------------------------------------------
      1          6           0       -2.849999   -1.125861   -0.415638
      2          6           0       -3.563139   -0.000026    0.000017
      3          6           0       -1.464492   -1.123667   -0.405534
      4          6           0       -2.850033    1.125752    0.415809
      5          6           0       -0.741288   -0.000047    0.000195
      6          6           0       -1.464504    1.123547    0.405879
      7          1           0       -0.931596   -2.005844   -0.756198
      8          1           0       -3.391048    2.006254    0.754990
      9          1           0       -0.931669    2.005728    0.756629
     10          6           0        0.741437   -0.000073    0.000217
     11          6           0        1.464635    1.123165   -0.406556
     12          6           0        1.464638   -1.123302    0.406976
     13          6           0        2.850149    1.125343   -0.416610
     14          6           0        2.850163   -1.125491    0.416935
     15          6           0        3.563257   -0.000095    0.000116
     16          1           0        0.931751    2.005025   -0.758038
     17          1           0        0.931783   -2.005140    0.758553
     18          1           0        3.391193    2.005527   -0.756576
     19          1           0        3.391211   -2.005669    0.756913
     20          1           0       -3.391005   -2.006357   -0.754845
     21          7           0        4.978430   -0.000102    0.000065
     22          6           0        5.687099   -1.154578   -0.414287
     23          6           0        6.831881   -1.566674    0.271150
     24          6           0        5.251323   -1.896933   -1.513908
     25          6           0        7.528311   -2.692826   -0.143324
     26          6           0        5.943392   -3.032223   -1.910440
     27          6           0        7.087522   -3.435368   -1.232277
     28          1           0        7.173684   -0.995181    1.131117
     29          1           0        4.363437   -1.577947   -2.055099
     30          1           0        8.419174   -2.999763    0.401550
     31          1           0        5.589860   -3.599797   -2.769285
     32          1           0        7.631852   -4.321852   -1.550225
     33          6           0        5.687025    1.154532    0.414292
     34          6           0        6.831191    1.567225   -0.271802
     35          6           0        5.251707    1.896381    1.514415
     36          6           0        7.527485    2.693516    0.142525
     37          6           0        5.943620    3.031828    1.910808
     38          6           0        7.087137    3.435581    1.231989
     39          1           0        7.172616    0.996083   -1.132151
     40          1           0        4.364291    1.576910    2.056093
     41          1           0        8.417875    3.000945   -0.402845
     42          1           0        5.590451    3.599029    2.770050
     43          1           0        7.631350    4.322181    1.549815
     44          7           0       -4.978266    0.000020   -0.000103
     45          6           0       -5.686990    1.154558   -0.414335
     46          6           0       -6.831289    1.566980    0.271699
     47          6           0       -5.251761    1.896543   -1.514410
     48          6           0       -7.527834    2.693112   -0.142653
     49          6           0       -5.943923    3.031822   -1.910819
     50          6           0       -7.087590    3.435293   -1.232069
     51          1           0       -7.172649    0.995729    1.132000
     52          1           0       -4.364233    1.577285   -2.056034
     53          1           0       -8.418333    3.000297    0.402674
     54          1           0       -5.590850    3.599137   -2.770027
     55          1           0       -7.631979    4.321768   -1.549941
     56          6           0       -5.687017   -1.154516    0.414141
     57          6           0       -6.831068   -1.567191   -0.272109
     58          6           0       -5.251977   -1.896199    1.514492
     59          6           0       -7.527566   -2.693348    0.142281
     60          6           0       -5.944079   -3.031486    1.910953
     61          6           0       -7.087509   -3.435246    1.231958
     62          1           0       -7.172277   -0.996155   -1.132614
     63          1           0       -4.364636   -1.576682    2.056275
     64          1           0       -8.417864   -3.000787   -0.403227
     65          1           0       -5.591165   -3.598572    2.770374
     66          1           0       -7.631874   -4.321730    1.549857
 ---------------------------------------------------------------------
 Rotational constants (GHZ):           0.2023709           0.0339547           0.0306836
 Leave Link  202 at Mon Jan 18 01:35:21 2021, MaxMem=  4026531840 cpu:               0.1 elap:               0.0
 (Enter /opt/ohpc/pub/libs/gaussian/g16-A.03/sandybridge/g16/l301.exe)
 Standard basis: TZVP (5D, 7F)
 Ernie: Thresh=  0.10000D-02 Tol=  0.10000D-05 Strict=F.
 There are   928 symmetry adapted cartesian basis functions of A   symmetry.
 There are   890 symmetry adapted basis functions of A   symmetry.
   890 basis functions,  1554 primitive gaussians,   928 cartesian basis functions
   129 alpha electrons      128 beta electrons
       nuclear repulsion energy      3528.7655398436 Hartrees.
 IExCor=33909 DFT=T Ex+Corr=LC-wHPBE ExCW=0 ScaHFX=  1.000000
 ScaDFX=  1.000000  1.000000  1.000000  1.000000 ScalE2=  1.000000  1.000000
 IRadAn=      5 IRanWt=     -1 IRanGd=            0 ICorTp=0 IEmpDi=  4
 HFx  wShort=  0.000000 wLong=  0.184000 cFull=  0.000000 cShort=  0.000000 cLong=  1.000000
 DFx  wShort=  0.000000 wLong=  0.184000 cFull=  0.000000 cShort=  1.000000 cLong=  0.000000
 NAtoms=   66 NActive=   66 NUniq=   66 SFac= 1.00D+00 NAtFMM=   60 NAOKFM=T Big=T
 Integral buffers will be    131072 words long.
 Raffenetti 2 integral format.
 Two-electron integral symmetry is turned on.
 Leave Link  301 at Mon Jan 18 01:35:21 2021, MaxMem=  4026531840 cpu:               0.4 elap:               0.1
 (Enter /opt/ohpc/pub/libs/gaussian/g16-A.03/sandybridge/g16/l302.exe)
 NPDir=0 NMtPBC=     1 NCelOv=     1 NCel=       1 NClECP=     1 NCelD=      1
         NCelK=      1 NCelE2=     1 NClLst=     1 CellRange=     0.0.
 One-electron integrals computed using PRISM.
 One-electron integral symmetry used in STVInt
 NBasis=   890 RedAO= T EigKep=  6.71D-06  NBF=   890
 NBsUse=   890 1.00D-06 EigRej= -1.00D+00 NBFU=   890
 Precomputing XC quadrature grid using
 IXCGrd= 4 IRadAn=           5 IRanWt=          -1 IRanGd=           0 AccXCQ= 0.00D+00.
 Generated NRdTot=       0 NPtTot=           0 NUsed=           0 NTot=          32
 NSgBfM=   852   844   846   852   852 MxSgAt=    66 MxSgA2=    66.
 Leave Link  302 at Mon Jan 18 01:35:24 2021, MaxMem=  4026531840 cpu:              19.4 elap:               2.8
 (Enter /opt/ohpc/pub/libs/gaussian/g16-A.03/sandybridge/g16/l303.exe)
 DipDrv:  MaxL=1.
 Leave Link  303 at Mon Jan 18 01:35:24 2021, MaxMem=  4026531840 cpu:               1.1 elap:               0.2
 (Enter /opt/ohpc/pub/libs/gaussian/g16-A.03/sandybridge/g16/l401.exe)
 ExpMin= 9.52D-02 ExpMax= 1.97D+04 ExpMxC= 6.73D+02 IAcc=3 IRadAn=         5 AccDes= 0.00D+00
 Harris functional with IExCor=33909 and IRadAn=       5 diagonalized for initial guess.
 HarFok:  IExCor=33909 AccDes= 0.00D+00 IRadAn=         5 IDoV= 1 UseB2=F ITyADJ=14
 ICtDFT=  3500011 ScaDFX=  1.000000  1.000000  1.000000  1.000000
 FoFCou: FMM=F IPFlag=           0 FMFlag=      100000 FMFlg1=        2001
         NFxFlg=           0 DoJE=T BraDBF=F KetDBF=T FulRan=T
         wScrn=  0.000000 ICntrl=       500 IOpCl=  0 I1Cent=   200000004 NGrid=           0
         NMat0=    1 NMatS0=      1 NMatT0=    0 NMatD0=    1 NMtDS0=    0 NMtDT0=    0
 Petite list used in FoFCou.
 Harris En= -1471.77729946411    
 JPrj=0 DoOrth=F DoCkMO=F.
 Initial guess <Sx>= 0.0000 <Sy>= 0.0000 <Sz>= 0.5000 <S**2>= 0.7500 S= 0.5000
 Leave Link  401 at Mon Jan 18 01:35:35 2021, MaxMem=  4026531840 cpu:              80.4 elap:              10.1
 (Enter /opt/ohpc/pub/libs/gaussian/g16-A.03/sandybridge/g16/l502.exe)
 Integral symmetry usage will be decided dynamically.
 UHF open shell SCF:
 Using DIIS extrapolation, IDIIS=    10.
 NGot=  4026531840 LenX=  4024793050 LenY=  4023930938
 Requested convergence on RMS density matrix=1.00D-06 within  32 cycles.
 Requested convergence on MAX density matrix=1.00D-04.
 Requested convergence on             energy=1.00D-04.
 Virtual orbitals will be shifted by   0.500 hartree.
 No special actions if energy rises.
 Dynamic level shift is on during FON iterations.

 Cycle   1  Pass 1  IDiag  1:
 FoFJK:  IHMeth= 1 ICntrl=       0 DoSepK=T KAlg= 0 I1Cent=           0 FoldK=F
 IRaf=         1 NMat=       1 IRICut=       1 DoRegI=T DoRafI=F ISym2E= 0 IDoP0=0 IntGTp=1.
 FoFCou: FMM=T IPFlag=           0 FMFlag=      100000 FMFlg1=        2001
         NFxFlg=           0 DoJE=T BraDBF=F KetDBF=F FulRan=T
         wScrn=  0.000000 ICntrl=       500 IOpCl=  0 I1Cent=           0 NGrid=           0
         NMat0=    1 NMatS0=      1 NMatT0=    0 NMatD0=    1 NMtDS0=    0 NMtDT0=    0
 Symmetry not used in FoFCou.
 FMM levels:  10  Number of levels for PrismC:   9
 E= -1496.35593019927    
 DIIS: error= 3.07D-02 at cycle   1 NSaved=   1.
 NSaved= 1 IEnMin= 1 EnMin= -1496.35593019927     IErMin= 1 ErrMin= 3.07D-02
 ErrMax= 3.07D-02  0.00D+00 EMaxC= 1.00D+00 BMatC= 2.48D+00 BMatP= 2.48D+00
 IDIUse=1 WtCom= 1.00D+00 WtEn= 0.00D+00
 Coeff-Com:  0.100D+01
 Coeff:      0.100D+01
 Gap=     0.285 Goal=   None    Shift=    0.500
 T= 1510. Gap= 0.724 NK=0 IS=  130 IE=  890 IFin=  129
          NO(<0.9)=   0  NV(>0.1)=   0    129.00e < EF      0.00e >EF  Err=0.0D+00
 Gap=     0.080 Goal=   None    Shift=    0.500
 T= 1510. Gap= 0.533 NK=0 IS=  129 IE=  890 IFin=  128
          NO(<0.9)=   0  NV(>0.1)=   0    128.00e < EF      0.00e >EF  Err=0.0D+00
 GapD=    0.080 DampG=0.500 DampE=0.500 DampFc=0.2500 IDamp=-1.
 Damping current iteration by 2.50D-01
 RMSDP=2.03D-03 MaxDP=7.86D-02              OVMax= 9.91D-02

 Cycle   2  Pass 1  IDiag  1:
 E= -1496.57992283123     Delta-E=       -0.223992631960 Rises=F Damp=T
 DIIS: error= 2.24D-02 at cycle   2 NSaved=   2.
 NSaved= 2 IEnMin= 2 EnMin= -1496.57992283123     IErMin= 2 ErrMin= 2.24D-02
 ErrMax= 2.24D-02  0.00D+00 EMaxC= 1.00D+00 BMatC= 1.17D+00 BMatP= 2.48D+00
 IDIUse=1 WtCom= 1.00D+00 WtEn= 0.00D+00
 Coeff-Com: -0.195D+01 0.295D+01
 Coeff:     -0.195D+01 0.295D+01
 Gap=     0.271 Goal=   None    Shift=    0.500
 T= 1453. Gap= 0.736 NK=0 IS=  130 IE=  890 IFin=  129
          NO(<0.9)=   0  NV(>0.1)=   0    129.00e < EF      0.00e >EF  Err=0.0D+00
 Gap=     0.115 Goal=   None    Shift=    0.500
 T= 1453. Gap= 0.574 NK=0 IS=  129 IE=  890 IFin=  128
          NO(<0.9)=   0  NV(>0.1)=   0    128.00e < EF      0.00e >EF  Err=0.0D+00
 GapD=    0.115 DampG=1.000 DampE=0.500 DampFc=0.5000 IDamp=-1.
 Damping current iteration by 5.00D-01
 RMSDP=1.52D-03 MaxDP=7.93D-02 DE=-2.24D-01 OVMax= 3.23D-02

 Cycle   3  Pass 1  IDiag  1:
 E= -1496.81365395862     Delta-E=       -0.233731127389 Rises=F Damp=T
 DIIS: error= 1.04D-02 at cycle   3 NSaved=   3.
 NSaved= 3 IEnMin= 3 EnMin= -1496.81365395862     IErMin= 3 ErrMin= 1.04D-02
 ErrMax= 1.04D-02  0.00D+00 EMaxC= 1.00D+00 BMatC= 2.30D-01 BMatP= 1.17D+00
 IDIUse=1 WtCom= 1.00D+00 WtEn= 0.00D+00
 Coeff-Com:  0.345D-01-0.835D+00 0.180D+01
 Coeff:      0.345D-01-0.835D+00 0.180D+01
 Gap=     0.252 Goal=   None    Shift=    0.500
 T= 1286. Gap= 0.750 NK=4 IS=  130 IE=  145 IFin=  129
          NO(<0.9)=   0  NV(>0.1)=   0    129.00e < EF      0.00e >EF  Err=0.0D+00
 Gap=     0.079 Goal=   None    Shift=    0.500
 T= 1286. Gap= 0.577 NK=4 IS=  129 IE=  143 IFin=  128
          NO(<0.9)=   0  NV(>0.1)=   0    128.00e < EF      0.00e >EF  Err=0.0D+00
 GapD=    0.079 DampG=0.500 DampE=0.500 DampFc=0.2500 IDamp=-1.
 Damping current iteration by 2.50D-01
 RMSDP=7.88D-04 MaxDP=4.65D-02 DE=-2.34D-01 OVMax= 1.13D-02

 Cycle   4  Pass 1  IDiag  1:
 E= -1496.85969793588     Delta-E=       -0.046043977260 Rises=F Damp=T
 DIIS: error= 7.66D-03 at cycle   4 NSaved=   4.
 NSaved= 4 IEnMin= 4 EnMin= -1496.85969793588     IErMin= 4 ErrMin= 7.66D-03
 ErrMax= 7.66D-03  0.00D+00 EMaxC= 1.00D+00 BMatC= 1.22D-01 BMatP= 2.30D-01
 IDIUse=1 WtCom= 1.00D+00 WtEn= 0.00D+00
 Coeff-Com:  0.196D+00-0.311D+00-0.273D+01 0.385D+01
 Coeff:      0.196D+00-0.311D+00-0.273D+01 0.385D+01
 Gap=     0.248 Goal=   None    Shift=    0.500
 T= 1015. Gap= 0.748 NK=4 IS=  130 IE=  145 IFin=  129
          NO(<0.9)=   0  NV(>0.1)=   0    129.00e < EF      0.00e >EF  Err=0.0D+00
 Gap=     0.078 Goal=   None    Shift=    0.500
 T= 1015. Gap= 0.578 NK=4 IS=  129 IE=  143 IFin=  128
          NO(<0.9)=   0  NV(>0.1)=   0    128.00e < EF      0.00e >EF  Err=0.0D+00
 GapD=    0.078 DampG=0.500 DampE=1.000 DampFc=0.5000 IDamp=-1.
 Damping current iteration by 5.00D-01
 RMSDP=5.89D-04 MaxDP=3.92D-02 DE=-4.60D-02 OVMax= 8.80D-03

 Cycle   5  Pass 1  IDiag  1:
 E= -1496.92188659812     Delta-E=       -0.062188662241 Rises=F Damp=T
 DIIS: error= 3.78D-03 at cycle   5 NSaved=   5.
 NSaved= 5 IEnMin= 5 EnMin= -1496.92188659812     IErMin= 5 ErrMin= 3.78D-03
 ErrMax= 3.78D-03  0.00D+00 EMaxC= 1.00D+00 BMatC= 2.87D-02 BMatP= 1.22D-01
 IDIUse=1 WtCom= 1.00D+00 WtEn= 0.00D+00
 Coeff-Com:  0.566D-01-0.337D-01 0.367D+00-0.182D+01 0.243D+01
 Coeff:      0.566D-01-0.337D-01 0.367D+00-0.182D+01 0.243D+01
 Gap=     0.250 Goal=   None    Shift=    0.500
 T=  645. Gap= 0.750 NK=4 IS=  130 IE=  146 IFin=  129
          NO(<0.9)=   0  NV(>0.1)=   0    129.00e < EF      0.00e >EF  Err=0.0D+00
 Gap=     0.079 Goal=   None    Shift=    0.500
 T=  645. Gap= 0.579 NK=4 IS=  129 IE=  143 IFin=  128
          NO(<0.9)=   0  NV(>0.1)=   0    128.00e < EF      0.00e >EF  Err=0.0D+00
 GapD=    0.079 DampG=0.500 DampE=1.000 DampFc=0.5000 IDamp=-1.
 Damping current iteration by 5.00D-01
 RMSDP=3.04D-04 MaxDP=2.19D-02 DE=-6.22D-02 OVMax= 7.43D-03

 Cycle   6  Pass 1  IDiag  1:
 E= -1496.95055774643     Delta-E=       -0.028671148306 Rises=F Damp=T
 DIIS: error= 1.88D-03 at cycle   6 NSaved=   6.
 NSaved= 6 IEnMin= 6 EnMin= -1496.95055774643     IErMin= 6 ErrMin= 1.88D-03
 ErrMax= 1.88D-03  0.00D+00 EMaxC= 1.00D+00 BMatC= 7.15D-03 BMatP= 2.87D-02
 IDIUse=1 WtCom= 1.00D+00 WtEn= 0.00D+00
 Coeff-Com: -0.361D-01 0.646D-01 0.777D+00-0.103D+01-0.149D+01 0.272D+01
 Coeff:     -0.361D-01 0.646D-01 0.777D+00-0.103D+01-0.149D+01 0.272D+01
 Gap=     0.250 Goal=   None    Shift=    0.500
 T=  349. Gap= 0.750 NK=4 IS=  130 IE=  146 IFin=  129
          NO(<0.9)=   0  NV(>0.1)=   0    129.00e < EF      0.00e >EF  Err=0.0D+00
 Gap=     0.080 Goal=   None    Shift=    0.500
 T=  349. Gap= 0.580 NK=4 IS=  129 IE=  143 IFin=  128
          NO(<0.9)=   0  NV(>0.1)=   0    128.00e < EF      0.00e >EF  Err=0.0D+00
 GapD=    0.080 DampG=0.500 DampE=1.000 DampFc=0.5000 IDamp=-1.
 Damping current iteration by 5.00D-01
 RMSDP=1.72D-04 MaxDP=1.23D-02 DE=-2.87D-02 OVMax= 6.76D-03

 Cycle   7  Pass 1  IDiag  1:
 E= -1496.96447493391     Delta-E=       -0.013917187483 Rises=F Damp=T
 DIIS: error= 1.19D-03 at cycle   7 NSaved=   7.
 NSaved= 7 IEnMin= 7 EnMin= -1496.96447493391     IErMin= 7 ErrMin= 1.19D-03
 ErrMax= 1.19D-03  0.00D+00 EMaxC= 1.00D+00 BMatC= 1.89D-03 BMatP= 7.15D-03
 IDIUse=1 WtCom= 1.00D+00 WtEn= 0.00D+00
 Coeff-Com: -0.217D-01 0.210D-01-0.154D+00 0.636D+00-0.108D+00-0.351D+01
 Coeff-Com:  0.414D+01
 Coeff:     -0.217D-01 0.210D-01-0.154D+00 0.636D+00-0.108D+00-0.351D+01
 Coeff:      0.414D+01
 Gap=     0.251 Goal=   None    Shift=    0.500
 Gap=     0.081 Goal=   None    Shift=    0.500
 GapD=    0.081 DampG=0.500 DampE=1.000 DampFc=0.5000 IDamp=-1.
 Damping current iteration by 5.00D-01
 RMSDP=1.09D-04 MaxDP=6.90D-03 DE=-1.39D-02 OVMax= 6.59D-03

 Cycle   8  Pass 1  IDiag  1:
 E= -1496.97139391736     Delta-E=       -0.006918983448 Rises=F Damp=T
 DIIS: error= 9.87D-04 at cycle   8 NSaved=   8.
 NSaved= 8 IEnMin= 8 EnMin= -1496.97139391736     IErMin= 8 ErrMin= 9.87D-04
 ErrMax= 9.87D-04  0.00D+00 EMaxC= 1.00D+00 BMatC= 5.35D-04 BMatP= 1.89D-03
 IDIUse=1 WtCom= 1.00D+00 WtEn= 0.00D+00
 Coeff-Com:  0.643D-02-0.783D-02-0.371D+00 0.514D+00 0.812D+00-0.138D+01
 Coeff-Com: -0.268D+01 0.411D+01
 Coeff:      0.643D-02-0.783D-02-0.371D+00 0.514D+00 0.812D+00-0.138D+01
 Coeff:     -0.268D+01 0.411D+01
 Gap=     0.251 Goal=   None    Shift=    0.500
 Gap=     0.082 Goal=   None    Shift=    0.500
 RMSDP=7.28D-05 MaxDP=4.33D-03 DE=-6.92D-03 OVMax= 5.78D-03

 Cycle   9  Pass 1  IDiag  1:
 E= -1496.97839098556     Delta-E=       -0.006997068206 Rises=F Damp=F
 DIIS: error= 6.57D-04 at cycle   9 NSaved=   9.
 NSaved= 9 IEnMin= 9 EnMin= -1496.97839098556     IErMin= 9 ErrMin= 6.57D-04
 ErrMax= 6.57D-04  0.00D+00 EMaxC= 1.00D+00 BMatC= 3.42D-05 BMatP= 5.35D-04
 IDIUse=1 WtCom= 1.00D+00 WtEn= 0.00D+00
 Coeff-Com:  0.112D-01-0.602D-02-0.163D+00-0.459D-01 0.749D+00 0.786D+00
 Coeff-Com: -0.318D+01 0.110D+01 0.175D+01
 Coeff:      0.112D-01-0.602D-02-0.163D+00-0.459D-01 0.749D+00 0.786D+00
 Coeff:     -0.318D+01 0.110D+01 0.175D+01
 Gap=     0.251 Goal=   None    Shift=    0.500
 Gap=     0.082 Goal=   None    Shift=    0.500
 RMSDP=1.87D-05 MaxDP=1.67D-03 DE=-7.00D-03 OVMax= 5.22D-03

 Cycle  10  Pass 1  IDiag  1:
 E= -1496.97845353073     Delta-E=       -0.000062545166 Rises=F Damp=F
 DIIS: error= 5.15D-04 at cycle  10 NSaved=  10.
 NSaved=10 IEnMin=10 EnMin= -1496.97845353073     IErMin=10 ErrMin= 5.15D-04
 ErrMax= 5.15D-04  0.00D+00 EMaxC= 1.00D+00 BMatC= 2.15D-05 BMatP= 3.42D-05
 IDIUse=1 WtCom= 1.00D+00 WtEn= 0.00D+00
 Coeff-Com: -0.561D-02 0.138D-01 0.127D+00-0.304D+00-0.863D-01 0.867D+00
 Coeff-Com:  0.819D+00-0.255D+01-0.339D+00 0.246D+01
 Coeff:     -0.561D-02 0.138D-01 0.127D+00-0.304D+00-0.863D-01 0.867D+00
 Coeff:      0.819D+00-0.255D+01-0.339D+00 0.246D+01
 Gap=     0.251 Goal=   None    Shift=    0.500
 Gap=     0.083 Goal=   None    Shift=    0.500
 RMSDP=1.51D-05 MaxDP=1.23D-03 DE=-6.25D-05 OVMax= 4.64D-03

 Cycle  11  Pass 1  IDiag  1:
 E= -1496.97849602476     Delta-E=       -0.000042494030 Rises=F Damp=F
 DIIS: error= 4.23D-04 at cycle  11 NSaved=  11.
 NSaved=11 IEnMin=11 EnMin= -1496.97849602476     IErMin=11 ErrMin= 4.23D-04
 ErrMax= 4.23D-04  0.00D+00 EMaxC= 1.00D+00 BMatC= 1.40D-05 BMatP= 2.15D-05
 IDIUse=1 WtCom= 1.00D+00 WtEn= 0.00D+00
 Coeff-Com: -0.102D-01 0.135D-01 0.131D+00-0.113D+00-0.436D+00 0.262D-01
 Coeff-Com:  0.246D+01-0.256D+01-0.967D+00 0.488D+00 0.197D+01
 Coeff:     -0.102D-01 0.135D-01 0.131D+00-0.113D+00-0.436D+00 0.262D-01
 Coeff:      0.246D+01-0.256D+01-0.967D+00 0.488D+00 0.197D+01
 Gap=     0.251 Goal=   None    Shift=    0.500
 Gap=     0.083 Goal=   None    Shift=    0.500
 RMSDP=1.16D-05 MaxDP=9.54D-04 DE=-4.25D-05 OVMax= 4.16D-03

 Cycle  12  Pass 1  IDiag  1:
 E= -1496.97852402855     Delta-E=       -0.000028003791 Rises=F Damp=F
 DIIS: error= 3.61D-04 at cycle  12 NSaved=  12.
 NSaved=12 IEnMin=12 EnMin= -1496.97852402855     IErMin=12 ErrMin= 3.61D-04
 ErrMax= 3.61D-04  0.00D+00 EMaxC= 1.00D+00 BMatC= 9.01D-06 BMatP= 1.40D-05
 IDIUse=1 WtCom= 1.00D+00 WtEn= 0.00D+00
 Coeff-Com: -0.114D-02-0.269D-02-0.250D-01 0.167D+00-0.231D+00-0.501D+00
 Coeff-Com:  0.945D+00-0.395D-02-0.118D+00-0.163D+01-0.390D+00 0.279D+01
 Coeff:     -0.114D-02-0.269D-02-0.250D-01 0.167D+00-0.231D+00-0.501D+00
 Coeff:      0.945D+00-0.395D-02-0.118D+00-0.163D+01-0.390D+00 0.279D+01
 Gap=     0.251 Goal=   None    Shift=    0.500
 Gap=     0.084 Goal=   None    Shift=    0.500
 RMSDP=1.03D-05 MaxDP=8.72D-04 DE=-2.80D-05 OVMax= 3.80D-03

 Cycle  13  Pass 1  IDiag  1:
 E= -1496.97854311276     Delta-E=       -0.000019084209 Rises=F Damp=F
 DIIS: error= 3.09D-04 at cycle  13 NSaved=  13.
 NSaved=13 IEnMin=13 EnMin= -1496.97854311276     IErMin=13 ErrMin= 3.09D-04
 ErrMax= 3.09D-04  0.00D+00 EMaxC= 1.00D+00 BMatC= 6.37D-06 BMatP= 9.01D-06
 IDIUse=1 WtCom= 1.00D+00 WtEn= 0.00D+00
 Coeff-Com:  0.380D-02-0.523D-02-0.658D-01 0.106D+00 0.522D-01-0.493D-01
 Coeff-Com: -0.646D+00 0.792D+00 0.630D+00-0.739D+00-0.202D+01 0.807D+00
 Coeff-Com:  0.213D+01
 Coeff:      0.380D-02-0.523D-02-0.658D-01 0.106D+00 0.522D-01-0.493D-01
 Coeff:     -0.646D+00 0.792D+00 0.630D+00-0.739D+00-0.202D+01 0.807D+00
 Coeff:      0.213D+01
 Gap=     0.251 Goal=   None    Shift=    0.500
 Gap=     0.084 Goal=   None    Shift=    0.500
 RMSDP=7.53D-06 MaxDP=6.27D-04 DE=-1.91D-05 OVMax= 3.16D-03

 Cycle  14  Pass 1  IDiag  1:
 E= -1496.97855511347     Delta-E=       -0.000012000706 Rises=F Damp=F
 DIIS: error= 2.62D-04 at cycle  14 NSaved=  14.
 NSaved=14 IEnMin=14 EnMin= -1496.97855511347     IErMin=14 ErrMin= 2.62D-04
 ErrMax= 2.62D-04  0.00D+00 EMaxC= 1.00D+00 BMatC= 4.35D-06 BMatP= 6.37D-06
 IDIUse=1 WtCom= 1.00D+00 WtEn= 0.00D+00
 Coeff-Com:  0.349D-02-0.165D-02-0.331D-01-0.278D-01 0.160D+00 0.339D+00
 Coeff-Com: -0.957D+00 0.307D+00 0.718D+00 0.651D+00-0.190D+01-0.733D+00
 Coeff-Com:  0.221D+00 0.225D+01
 Coeff:      0.349D-02-0.165D-02-0.331D-01-0.278D-01 0.160D+00 0.339D+00
 Coeff:     -0.957D+00 0.307D+00 0.718D+00 0.651D+00-0.190D+01-0.733D+00
 Coeff:      0.221D+00 0.225D+01
 Gap=     0.251 Goal=   None    Shift=    0.500
 Gap=     0.084 Goal=   None    Shift=    0.500
 RMSDP=5.83D-06 MaxDP=4.78D-04 DE=-1.20D-05 OVMax= 2.67D-03

 Cycle  15  Pass 1  IDiag  1:
 E= -1496.97856294046     Delta-E=       -0.000007826995 Rises=F Damp=F
 DIIS: error= 2.21D-04 at cycle  15 NSaved=  15.
 NSaved=15 IEnMin=15 EnMin= -1496.97856294046     IErMin=15 ErrMin= 2.21D-04
 ErrMax= 2.21D-04  0.00D+00 EMaxC= 1.00D+00 BMatC= 3.16D-06 BMatP= 4.35D-06
 IDIUse=1 WtCom= 1.00D+00 WtEn= 0.00D+00
 Coeff-Com: -0.345D-02 0.454D-02 0.524D-01-0.660D-01-0.120D+00 0.194D-01
 Coeff-Com:  0.107D+01-0.134D+01-0.243D+00 0.729D+00 0.818D+00 0.352D+00
 Coeff-Com: -0.345D+01-0.109D+00 0.328D+01
 Coeff:     -0.345D-02 0.454D-02 0.524D-01-0.660D-01-0.120D+00 0.194D-01
 Coeff:      0.107D+01-0.134D+01-0.243D+00 0.729D+00 0.818D+00 0.352D+00
 Coeff:     -0.345D+01-0.109D+00 0.328D+01
 Gap=     0.251 Goal=   None    Shift=    0.500
 Gap=     0.084 Goal=   None    Shift=    0.500
 RMSDP=4.85D-06 MaxDP=4.19D-04 DE=-7.83D-06 OVMax= 2.37D-03

 Cycle  16  Pass 1  IDiag  1:
 E= -1496.97856855397     Delta-E=       -0.000005613504 Rises=F Damp=F
 DIIS: error= 1.84D-04 at cycle  16 NSaved=  16.
 NSaved=16 IEnMin=16 EnMin= -1496.97856855397     IErMin=16 ErrMin= 1.84D-04
 ErrMax= 1.84D-04  0.00D+00 EMaxC= 1.00D+00 BMatC= 2.21D-06 BMatP= 3.16D-06
 IDIUse=1 WtCom= 1.00D+00 WtEn= 0.00D+00
 Coeff-Com: -0.276D-02 0.348D-02 0.137D-01 0.169D-01-0.121D+00-0.149D+00
 Coeff-Com:  0.938D+00-0.868D+00-0.102D+00-0.598D-01 0.503D+00 0.101D+01
 Coeff-Com: -0.175D+01-0.510D+00-0.406D+00 0.248D+01
 Coeff:     -0.276D-02 0.348D-02 0.137D-01 0.169D-01-0.121D+00-0.149D+00
 Coeff:      0.938D+00-0.868D+00-0.102D+00-0.598D-01 0.503D+00 0.101D+01
 Coeff:     -0.175D+01-0.510D+00-0.406D+00 0.248D+01
 Gap=     0.251 Goal=   None    Shift=    0.500
 Gap=     0.084 Goal=   None    Shift=    0.500
 RMSDP=3.62D-06 MaxDP=2.86D-04 DE=-5.61D-06 OVMax= 1.91D-03

 Cycle  17  Pass 1  IDiag  1:
 E= -1496.97857225517     Delta-E=       -0.000003701206 Rises=F Damp=F
 DIIS: error= 1.53D-04 at cycle  17 NSaved=  17.
 NSaved=17 IEnMin=17 EnMin= -1496.97857225517     IErMin=17 ErrMin= 1.53D-04
 ErrMax= 1.53D-04  0.00D+00 EMaxC= 1.00D+00 BMatC= 1.50D-06 BMatP= 2.21D-06
 IDIUse=1 WtCom= 1.00D+00 WtEn= 0.00D+00
 Coeff-Com:  0.430D-03 0.217D-03-0.293D-01 0.522D-01-0.363D-02-0.546D-01
 Coeff-Com: -0.720D-01 0.153D+00 0.271D+00-0.467D+00-0.559D+00 0.600D+00
 Coeff-Com:  0.824D+00 0.410D-01-0.248D+01 0.546D+00 0.218D+01
 Coeff:      0.430D-03 0.217D-03-0.293D-01 0.522D-01-0.363D-02-0.546D-01
 Coeff:     -0.720D-01 0.153D+00 0.271D+00-0.467D+00-0.559D+00 0.600D+00
 Coeff:      0.824D+00 0.410D-01-0.248D+01 0.546D+00 0.218D+01
 Gap=     0.250 Goal=   None    Shift=    0.500
 Gap=     0.084 Goal=   None    Shift=    0.500
 RMSDP=2.87D-06 MaxDP=2.11D-04 DE=-3.70D-06 OVMax= 1.61D-03

 Cycle  18  Pass 1  IDiag  1:
 E= -1496.97857480138     Delta-E=       -0.000002546208 Rises=F Damp=F
 DIIS: error= 1.26D-04 at cycle  18 NSaved=  18.
 NSaved=18 IEnMin=18 EnMin= -1496.97857480138     IErMin=18 ErrMin= 1.26D-04
 ErrMax= 1.26D-04  0.00D+00 EMaxC= 1.00D+00 BMatC= 9.85D-07 BMatP= 1.50D-06
 IDIUse=1 WtCom= 1.00D+00 WtEn= 0.00D+00
 Coeff-Com:  0.155D-02-0.113D-02-0.127D-01-0.940D-02 0.618D-01 0.159D+00
 Coeff-Com: -0.548D+00 0.350D+00 0.274D+00 0.729D-01-0.785D+00-0.300D+00
 Coeff-Com:  0.884D+00 0.565D+00-0.379D-01-0.215D+01-0.462D+00 0.294D+01
 Coeff:      0.155D-02-0.113D-02-0.127D-01-0.940D-02 0.618D-01 0.159D+00
 Coeff:     -0.548D+00 0.350D+00 0.274D+00 0.729D-01-0.785D+00-0.300D+00
 Coeff:      0.884D+00 0.565D+00-0.379D-01-0.215D+01-0.462D+00 0.294D+01
 Gap=     0.250 Goal=   None    Shift=    0.500
 Gap=     0.085 Goal=   None    Shift=    0.500
 RMSDP=2.61D-06 MaxDP=2.03D-04 DE=-2.55D-06 OVMax= 1.41D-03

 Cycle  19  Pass 1  IDiag  1:
 E= -1496.97857657398     Delta-E=       -0.000001772599 Rises=F Damp=F
 DIIS: error= 1.04D-04 at cycle  19 NSaved=  19.
 NSaved=19 IEnMin=19 EnMin= -1496.97857657398     IErMin=19 ErrMin= 1.04D-04
 ErrMax= 1.04D-04  0.00D+00 EMaxC= 1.00D+00 BMatC= 7.43D-07 BMatP= 9.85D-07
 IDIUse=1 WtCom= 1.00D+00 WtEn= 0.00D+00
 Coeff-Com:  0.659D-03-0.236D-03 0.912D-02-0.430D-01 0.338D-01 0.183D+00
 Coeff-Com: -0.226D+00-0.884D-01 0.118D+00 0.513D+00-0.447D+00-0.427D+00
 Coeff-Com: -0.322D+00 0.593D+00 0.191D+01-0.211D+01-0.235D+01 0.199D+01
 Coeff-Com:  0.166D+01
 Coeff:      0.659D-03-0.236D-03 0.912D-02-0.430D-01 0.338D-01 0.183D+00
 Coeff:     -0.226D+00-0.884D-01 0.118D+00 0.513D+00-0.447D+00-0.427D+00
 Coeff:     -0.322D+00 0.593D+00 0.191D+01-0.211D+01-0.235D+01 0.199D+01
 Coeff:      0.166D+01
 Gap=     0.250 Goal=   None    Shift=    0.500
 Gap=     0.085 Goal=   None    Shift=    0.500
 RMSDP=2.06D-06 MaxDP=1.54D-04 DE=-1.77D-06 OVMax= 1.18D-03

 Cycle  20  Pass 1  IDiag  1:
 E= -1496.97857774675     Delta-E=       -0.000001172772 Rises=F Damp=F
 DIIS: error= 8.49D-05 at cycle  20 NSaved=  20.
 NSaved=20 IEnMin=20 EnMin= -1496.97857774675     IErMin=20 ErrMin= 8.49D-05
 ErrMax= 8.49D-05  0.00D+00 EMaxC= 1.00D+00 BMatC= 5.26D-07 BMatP= 7.43D-07
 IDIUse=1 WtCom= 1.00D+00 WtEn= 0.00D+00
 Coeff-Com: -0.352D-03 0.837D-03 0.127D-01-0.289D-01-0.172D-01 0.719D-01
 Coeff-Com:  0.250D+00-0.479D+00 0.155D-01 0.518D+00-0.111D+00-0.535D-01
 Coeff-Com: -0.113D+01 0.389D+00 0.182D+01-0.358D+00-0.222D+01-0.173D+00
 Coeff-Com:  0.598D+00 0.190D+01
 Coeff:     -0.352D-03 0.837D-03 0.127D-01-0.289D-01-0.172D-01 0.719D-01
 Coeff:      0.250D+00-0.479D+00 0.155D-01 0.518D+00-0.111D+00-0.535D-01
 Coeff:     -0.113D+01 0.389D+00 0.182D+01-0.358D+00-0.222D+01-0.173D+00
 Coeff:      0.598D+00 0.190D+01
 Gap=     0.250 Goal=   None    Shift=    0.500
 Gap=     0.085 Goal=   None    Shift=    0.500
 RMSDP=1.61D-06 MaxDP=1.14D-04 DE=-1.17D-06 OVMax= 1.00D-03

 Cycle  21  Pass 1  IDiag  1:
 E= -1496.97857852406     Delta-E=       -0.000000777314 Rises=F Damp=F
 DIIS: error= 6.79D-05 at cycle  21 NSaved=  20.
 NSaved=20 IEnMin=20 EnMin= -1496.97857852406     IErMin=20 ErrMin= 6.79D-05
 ErrMax= 6.79D-05  0.00D+00 EMaxC= 1.00D+00 BMatC= 3.58D-07 BMatP= 5.26D-07
 IDIUse=1 WtCom= 1.00D+00 WtEn= 0.00D+00
 Coeff-Com:  0.206D-03 0.331D-02-0.792D-02-0.118D-01 0.336D-01 0.134D+00
 Coeff-Com: -0.261D+00 0.727D-01 0.222D+00-0.185D+00 0.872D-01-0.519D+00
 Coeff-Com:  0.289D+00 0.503D+00 0.786D-01-0.691D+00-0.273D+00-0.110D-01
 Coeff-Com: -0.834D+00 0.237D+01
 Coeff:      0.206D-03 0.331D-02-0.792D-02-0.118D-01 0.336D-01 0.134D+00
 Coeff:     -0.261D+00 0.727D-01 0.222D+00-0.185D+00 0.872D-01-0.519D+00
 Coeff:      0.289D+00 0.503D+00 0.786D-01-0.691D+00-0.273D+00-0.110D-01
 Coeff:     -0.834D+00 0.237D+01
 Gap=     0.250 Goal=   None    Shift=    0.500
 Gap=     0.085 Goal=   None    Shift=    0.500
 RMSDP=1.12D-06 MaxDP=6.94D-05 DE=-7.77D-07 OVMax= 7.94D-04

 Cycle  22  Pass 1  IDiag  1:
 E= -1496.97857899773     Delta-E=       -0.000000473664 Rises=F Damp=F
 DIIS: error= 5.41D-05 at cycle  22 NSaved=  20.
 NSaved=20 IEnMin=20 EnMin= -1496.97857899773     IErMin=20 ErrMin= 5.41D-05
 ErrMax= 5.41D-05  0.00D+00 EMaxC= 1.00D+00 BMatC= 2.28D-07 BMatP= 3.58D-07
 IDIUse=1 WtCom= 1.00D+00 WtEn= 0.00D+00
 Coeff-Com:  0.110D-02-0.166D-02-0.259D-02 0.191D-01-0.198D-01-0.124D-01
 Coeff-Com:  0.558D-01-0.102D-01-0.140D+00 0.584D-01 0.573D-01 0.131D+00
 Coeff-Com: -0.142D+00-0.240D+00 0.293D+00 0.469D+00-0.166D+00-0.168D+01
 Coeff-Com: -0.349D+00 0.268D+01
 Coeff:      0.110D-02-0.166D-02-0.259D-02 0.191D-01-0.198D-01-0.124D-01
 Coeff:      0.558D-01-0.102D-01-0.140D+00 0.584D-01 0.573D-01 0.131D+00
 Coeff:     -0.142D+00-0.240D+00 0.293D+00 0.469D+00-0.166D+00-0.168D+01
 Coeff:     -0.349D+00 0.268D+01
 Gap=     0.250 Goal=   None    Shift=    0.500
 Gap=     0.085 Goal=   None    Shift=    0.500
 RMSDP=8.38D-07 MaxDP=4.27D-05 DE=-4.74D-07 OVMax= 6.18D-04

 SCF Done:  E(ULC-wHPBE) =  -1496.97857900     A.U. after   22 cycles
            NFock= 22  Conv=0.84D-06     -V/T= 2.0047
 <Sx>= 0.0000 <Sy>= 0.0000 <Sz>= 0.5000 <S**2>= 0.7731 S= 0.5115
 <L.S>= 0.000000000000E+00
 KE= 1.490038287468D+03 PE=-1.050762524053D+04 EE= 3.991842834223D+03
 Annihilation of the first spin contaminant:
 S**2 before annihilation     0.7731,   after     0.7503
 Leave Link  502 at Mon Jan 18 02:06:10 2021, MaxMem=  4026531840 cpu:           14512.5 elap:            1835.4
 (Enter /opt/ohpc/pub/libs/gaussian/g16-A.03/sandybridge/g16/l508.exe)
 QCSCF skips out because SCF is already converged.
 Leave Link  508 at Mon Jan 18 02:06:10 2021, MaxMem=  4026531840 cpu:               0.1 elap:               0.0
 (Enter /opt/ohpc/pub/libs/gaussian/g16-A.03/sandybridge/g16/l601.exe)
 Copying SCF densities to generalized density rwf, IOpCl= 1 IROHF=0.

 **********************************************************************

            Population analysis using the SCF density.

 **********************************************************************

 Orbital symmetries:
 Alpha Orbitals:
       Occupied  (A) (A) (A) (A) (A) (A) (A) (A) (A) (A) (A) (A)
                 (A) (A) (A) (A) (A) (A) (A) (A) (A) (A) (A) (A)
                 (A) (A) (A) (A) (A) (A) (A) (A) (A) (A) (A) (A)
                 (A) (A) (A) (A) (A) (A) (A) (A) (A) (A) (A) (A)
                 (A) (A) (A) (A) (A) (A) (A) (A) (A) (A) (A) (A)
                 (A) (A) (A) (A) (A) (A) (A) (A) (A) (A) (A) (A)
                 (A) (A) (A) (A) (A) (A) (A) (A) (A) (A) (A) (A)
                 (A) (A) (A) (A) (A) (A) (A) (A) (A) (A) (A) (A)
                 (A) (A) (A) (A) (A) (A) (A) (A) (A) (A) (A) (A)
                 (A) (A) (A) (A) (A) (A) (A) (A) (A) (A) (A) (A)
                 (A) (A) (A) (A) (A) (A) (A) (A) (A)
       Virtual   (A) (A) (A) (A) (A) (A) (A) (A) (A) (A) (A) (A)
                 (A) (A) (A) (A) (A) (A) (A) (A) (A) (A) (A) (A)
                 (A) (A) (A) (A) (A) (A) (A) (A) (A) (A) (A) (A)
                 (A) (A) (A) (A) (A) (A) (A) (A) (A) (A) (A) (A)
                 (A) (A) (A) (A) (A) (A) (A) (A) (A) (A) (A) (A)
                 (A) (A) (A) (A) (A) (A) (A) (A) (A) (A) (A) (A)
                 (A) (A) (A) (A) (A) (A) (A) (A) (A) (A) (A) (A)
                 (A) (A) (A) (A) (A) (A) (A) (A) (A) (A) (A) (A)
                 (A) (A) (A) (A) (A) (A) (A) (A) (A) (A) (A) (A)
                 (A) (A) (A) (A) (A) (A) (A) (A) (A) (A) (A) (A)
                 (A) (A) (A) (A) (A) (A) (A) (A) (A) (A) (A) (A)
                 (A) (A) (A) (A) (A) (A) (A) (A) (A) (A) (A) (A)
                 (A) (A) (A) (A) (A) (A) (A) (A) (A) (A) (A) (A)
                 (A) (A) (A) (A) (A) (A) (A) (A) (A) (A) (A) (A)
                 (A) (A) (A) (A) (A) (A) (A) (A) (A) (A) (A) (A)
                 (A) (A) (A) (A) (A) (A) (A) (A) (A) (A) (A) (A)
                 (A) (A) (A) (A) (A) (A) (A) (A) (A) (A) (A) (A)
                 (A) (A) (A) (A) (A) (A) (A) (A) (A) (A) (A) (A)
                 (A) (A) (A) (A) (A) (A) (A) (A) (A) (A) (A) (A)
                 (A) (A) (A) (A) (A) (A) (A) (A) (A) (A) (A) (A)
                 (A) (A) (A) (A) (A) (A) (A) (A) (A) (A) (A) (A)
                 (A) (A) (A) (A) (A) (A) (A) (A) (A) (A) (A) (A)
                 (A) (A) (A) (A) (A) (A) (A) (A) (A) (A) (A) (A)
                 (A) (A) (A) (A) (A) (A) (A) (A) (A) (A) (A) (A)
                 (A) (A) (A) (A) (A) (A) (A) (A) (A) (A) (A) (A)
                 (A) (A) (A) (A) (A) (A) (A) (A) (A) (A) (A) (A)
                 (A) (A) (A) (A) (A) (A) (A) (A) (A) (A) (A) (A)
                 (A) (A) (A) (A) (A) (A) (A) (A) (A) (A) (A) (A)
                 (A) (A) (A) (A) (A) (A) (A) (A) (A) (A) (A) (A)
                 (A) (A) (A) (A) (A) (A) (A) (A) (A) (A) (A) (A)
                 (A) (A) (A) (A) (A) (A) (A) (A) (A) (A) (A) (A)
                 (A) (A) (A) (A) (A) (A) (A) (A) (A) (A) (A) (A)
                 (A) (A) (A) (A) (A) (A) (A) (A) (A) (A) (A) (A)
                 (A) (A) (A) (A) (A) (A) (A) (A) (A) (A) (A) (A)
                 (A) (A) (A) (A) (A) (A) (A) (A) (A) (A) (A) (A)
                 (A) (A) (A) (A) (A) (A) (A) (A) (A) (A) (A) (A)
                 (A) (A) (A) (A) (A) (A) (A) (A) (A) (A) (A) (A)
                 (A) (A) (A) (A) (A) (A) (A) (A) (A) (A) (A) (A)
                 (A) (A) (A) (A) (A) (A) (A) (A) (A) (A) (A) (A)
                 (A) (A) (A) (A) (A) (A) (A) (A) (A) (A) (A) (A)
                 (A) (A) (A) (A) (A) (A) (A) (A) (A) (A) (A) (A)
                 (A) (A) (A) (A) (A) (A) (A) (A) (A) (A) (A) (A)
                 (A) (A) (A) (A) (A) (A) (A) (A) (A) (A) (A) (A)
                 (A) (A) (A) (A) (A) (A) (A) (A) (A) (A) (A) (A)
                 (A) (A) (A) (A) (A) (A) (A) (A) (A) (A) (A) (A)
                 (A) (A) (A) (A) (A) (A) (A) (A) (A) (A) (A) (A)
                 (A) (A) (A) (A) (A) (A) (A) (A) (A) (A) (A) (A)
                 (A) (A) (A) (A) (A) (A) (A) (A) (A) (A) (A) (A)
                 (A) (A) (A) (A) (A) (A) (A) (A) (A) (A) (A) (A)
                 (A) (A) (A) (A) (A) (A) (A) (A) (A) (A) (A) (A)
                 (A) (A) (A) (A) (A) (A) (A) (A) (A) (A) (A) (A)
                 (A) (A) (A) (A) (A) (A) (A) (A) (A) (A) (A) (A)
                 (A) (A) (A) (A) (A) (A) (A) (A) (A) (A) (A) (A)
                 (A) (A) (A) (A) (A) (A) (A) (A) (A) (A) (A) (A)
                 (A) (A) (A) (A) (A) (A) (A) (A) (A) (A) (A) (A)
                 (A) (A) (A) (A) (A) (A) (A) (A) (A) (A) (A) (A)
                 (A) (A) (A) (A) (A) (A) (A) (A) (A) (A) (A) (A)
                 (A) (A) (A) (A) (A) (A) (A) (A) (A) (A) (A) (A)
                 (A) (A) (A) (A) (A) (A) (A) (A) (A) (A) (A) (A)
                 (A) (A) (A) (A) (A) (A) (A) (A) (A) (A) (A) (A)
                 (A) (A) (A) (A) (A) (A) (A) (A) (A) (A) (A) (A)
                 (A) (A) (A) (A) (A) (A) (A) (A) (A) (A) (A) (A)
                 (A) (A) (A) (A) (A) (A) (A) (A) (A) (A) (A) (A)
                 (A) (A) (A) (A) (A)
 Beta  Orbitals:
       Occupied  (A) (A) (A) (A) (A) (A) (A) (A) (A) (A) (A) (A)
                 (A) (A) (A) (A) (A) (A) (A) (A) (A) (A) (A) (A)
                 (A) (A) (A) (A) (A) (A) (A) (A) (A) (A) (A) (A)
                 (A) (A) (A) (A) (A) (A) (A) (A) (A) (A) (A) (A)
                 (A) (A) (A) (A) (A) (A) (A) (A) (A) (A) (A) (A)
                 (A) (A) (A) (A) (A) (A) (A) (A) (A) (A) (A) (A)
                 (A) (A) (A) (A) (A) (A) (A) (A) (A) (A) (A) (A)
                 (A) (A) (A) (A) (A) (A) (A) (A) (A) (A) (A) (A)
                 (A) (A) (A) (A) (A) (A) (A) (A) (A) (A) (A) (A)
                 (A) (A) (A) (A) (A) (A) (A) (A) (A) (A) (A) (A)
                 (A) (A) (A) (A) (A) (A) (A) (A)
       Virtual   (A) (A) (A) (A) (A) (A) (A) (A) (A) (A) (A) (A)
                 (A) (A) (A) (A) (A) (A) (A) (A) (A) (A) (A) (A)
                 (A) (A) (A) (A) (A) (A) (A) (A) (A) (A) (A) (A)
                 (A) (A) (A) (A) (A) (A) (A) (A) (A) (A) (A) (A)
                 (A) (A) (A) (A) (A) (A) (A) (A) (A) (A) (A) (A)
                 (A) (A) (A) (A) (A) (A) (A) (A) (A) (A) (A) (A)
                 (A) (A) (A) (A) (A) (A) (A) (A) (A) (A) (A) (A)
                 (A) (A) (A) (A) (A) (A) (A) (A) (A) (A) (A) (A)
                 (A) (A) (A) (A) (A) (A) (A) (A) (A) (A) (A) (A)
                 (A) (A) (A) (A) (A) (A) (A) (A) (A) (A) (A) (A)
                 (A) (A) (A) (A) (A) (A) (A) (A) (A) (A) (A) (A)
                 (A) (A) (A) (A) (A) (A) (A) (A) (A) (A) (A) (A)
                 (A) (A) (A) (A) (A) (A) (A) (A) (A) (A) (A) (A)
                 (A) (A) (A) (A) (A) (A) (A) (A) (A) (A) (A) (A)
                 (A) (A) (A) (A) (A) (A) (A) (A) (A) (A) (A) (A)
                 (A) (A) (A) (A) (A) (A) (A) (A) (A) (A) (A) (A)
                 (A) (A) (A) (A) (A) (A) (A) (A) (A) (A) (A) (A)
                 (A) (A) (A) (A) (A) (A) (A) (A) (A) (A) (A) (A)
                 (A) (A) (A) (A) (A) (A) (A) (A) (A) (A) (A) (A)
                 (A) (A) (A) (A) (A) (A) (A) (A) (A) (A) (A) (A)
                 (A) (A) (A) (A) (A) (A) (A) (A) (A) (A) (A) (A)
                 (A) (A) (A) (A) (A) (A) (A) (A) (A) (A) (A) (A)
                 (A) (A) (A) (A) (A) (A) (A) (A) (A) (A) (A) (A)
                 (A) (A) (A) (A) (A) (A) (A) (A) (A) (A) (A) (A)
                 (A) (A) (A) (A) (A) (A) (A) (A) (A) (A) (A) (A)
                 (A) (A) (A) (A) (A) (A) (A) (A) (A) (A) (A) (A)
                 (A) (A) (A) (A) (A) (A) (A) (A) (A) (A) (A) (A)
                 (A) (A) (A) (A) (A) (A) (A) (A) (A) (A) (A) (A)
                 (A) (A) (A) (A) (A) (A) (A) (A) (A) (A) (A) (A)
                 (A) (A) (A) (A) (A) (A) (A) (A) (A) (A) (A) (A)
                 (A) (A) (A) (A) (A) (A) (A) (A) (A) (A) (A) (A)
                 (A) (A) (A) (A) (A) (A) (A) (A) (A) (A) (A) (A)
                 (A) (A) (A) (A) (A) (A) (A) (A) (A) (A) (A) (A)
                 (A) (A) (A) (A) (A) (A) (A) (A) (A) (A) (A) (A)
                 (A) (A) (A) (A) (A) (A) (A) (A) (A) (A) (A) (A)
                 (A) (A) (A) (A) (A) (A) (A) (A) (A) (A) (A) (A)
                 (A) (A) (A) (A) (A) (A) (A) (A) (A) (A) (A) (A)
                 (A) (A) (A) (A) (A) (A) (A) (A) (A) (A) (A) (A)
                 (A) (A) (A) (A) (A) (A) (A) (A) (A) (A) (A) (A)
                 (A) (A) (A) (A) (A) (A) (A) (A) (A) (A) (A) (A)
                 (A) (A) (A) (A) (A) (A) (A) (A) (A) (A) (A) (A)
                 (A) (A) (A) (A) (A) (A) (A) (A) (A) (A) (A) (A)
                 (A) (A) (A) (A) (A) (A) (A) (A) (A) (A) (A) (A)
                 (A) (A) (A) (A) (A) (A) (A) (A) (A) (A) (A) (A)
                 (A) (A) (A) (A) (A) (A) (A) (A) (A) (A) (A) (A)
                 (A) (A) (A) (A) (A) (A) (A) (A) (A) (A) (A) (A)
                 (A) (A) (A) (A) (A) (A) (A) (A) (A) (A) (A) (A)
                 (A) (A) (A) (A) (A) (A) (A) (A) (A) (A) (A) (A)
                 (A) (A) (A) (A) (A) (A) (A) (A) (A) (A) (A) (A)
                 (A) (A) (A) (A) (A) (A) (A) (A) (A) (A) (A) (A)
                 (A) (A) (A) (A) (A) (A) (A) (A) (A) (A) (A) (A)
                 (A) (A) (A) (A) (A) (A) (A) (A) (A) (A) (A) (A)
                 (A) (A) (A) (A) (A) (A) (A) (A) (A) (A) (A) (A)
                 (A) (A) (A) (A) (A) (A) (A) (A) (A) (A) (A) (A)
                 (A) (A) (A) (A) (A) (A) (A) (A) (A) (A) (A) (A)
                 (A) (A) (A) (A) (A) (A) (A) (A) (A) (A) (A) (A)
                 (A) (A) (A) (A) (A) (A) (A) (A) (A) (A) (A) (A)
                 (A) (A) (A) (A) (A) (A) (A) (A) (A) (A) (A) (A)
                 (A) (A) (A) (A) (A) (A) (A) (A) (A) (A) (A) (A)
                 (A) (A) (A) (A) (A) (A) (A) (A) (A) (A) (A) (A)
                 (A) (A) (A) (A) (A) (A) (A) (A) (A) (A) (A) (A)
                 (A) (A) (A) (A) (A) (A) (A) (A) (A) (A) (A) (A)
                 (A) (A) (A) (A) (A) (A) (A) (A) (A) (A) (A) (A)
                 (A) (A) (A) (A) (A) (A)
 The electronic state is 2-A.
 Alpha  occ. eigenvalues --  -14.25724 -14.25723 -10.15072 -10.15069 -10.13345
 Alpha  occ. eigenvalues --  -10.13344 -10.13343 -10.13342 -10.11713 -10.11700
 Alpha  occ. eigenvalues --  -10.10436 -10.10435 -10.10432 -10.10431 -10.10393
 Alpha  occ. eigenvalues --  -10.10392 -10.10392 -10.10392 -10.08988 -10.08987
 Alpha  occ. eigenvalues --  -10.08987 -10.08986 -10.08822 -10.08822 -10.08822
 Alpha  occ. eigenvalues --  -10.08821 -10.08411 -10.08411 -10.08411 -10.08411
 Alpha  occ. eigenvalues --  -10.08338 -10.08338 -10.08337 -10.08337 -10.08230
 Alpha  occ. eigenvalues --  -10.08230 -10.08230 -10.08229  -1.11707  -1.11703
 Alpha  occ. eigenvalues --   -1.01797  -1.00039  -0.99068  -0.99068  -0.97787
 Alpha  occ. eigenvalues --   -0.97258  -0.93086  -0.90487  -0.90137  -0.89659
 Alpha  occ. eigenvalues --   -0.89189  -0.88859  -0.88160  -0.87820  -0.87819
 Alpha  occ. eigenvalues --   -0.87739  -0.85894  -0.84270  -0.79416  -0.78770
 Alpha  occ. eigenvalues --   -0.77619  -0.76693  -0.76246  -0.75075  -0.74745
 Alpha  occ. eigenvalues --   -0.74423  -0.74272  -0.73936  -0.72094  -0.71761
 Alpha  occ. eigenvalues --   -0.69774  -0.69001  -0.68816  -0.68573  -0.66699
 Alpha  occ. eigenvalues --   -0.64368  -0.64230  -0.63704  -0.62835  -0.62536
 Alpha  occ. eigenvalues --   -0.62387  -0.60871  -0.60724  -0.60144  -0.60022
 Alpha  occ. eigenvalues --   -0.59961  -0.59206  -0.58535  -0.58260  -0.58153
 Alpha  occ. eigenvalues --   -0.58055  -0.57982  -0.57938  -0.56873  -0.56737
 Alpha  occ. eigenvalues --   -0.56529  -0.56528  -0.56263  -0.55242  -0.54733
 Alpha  occ. eigenvalues --   -0.53879  -0.53625  -0.53287  -0.53256  -0.51831
 Alpha  occ. eigenvalues --   -0.51633  -0.51148  -0.50818  -0.50593  -0.50213
 Alpha  occ. eigenvalues --   -0.50180  -0.49454  -0.49121  -0.48747  -0.48719
 Alpha  occ. eigenvalues --   -0.48125  -0.47227  -0.44805  -0.43415  -0.43389
 Alpha  occ. eigenvalues --   -0.42353  -0.42347  -0.42035  -0.41524  -0.41505
 Alpha  occ. eigenvalues --   -0.41054  -0.40891  -0.36419  -0.35229
 Alpha virt. eigenvalues --   -0.10195  -0.07955  -0.07829  -0.06812  -0.06802
 Alpha virt. eigenvalues --   -0.06156  -0.05517  -0.05397  -0.04591  -0.04559
 Alpha virt. eigenvalues --   -0.03062  -0.01913   0.01033   0.01666   0.02707
 Alpha virt. eigenvalues --    0.02897   0.03074   0.03185   0.03378   0.04590
 Alpha virt. eigenvalues --    0.04829   0.04937   0.05481   0.05630   0.05658
 Alpha virt. eigenvalues --    0.05992   0.06631   0.06887   0.06960   0.07335
 Alpha virt. eigenvalues --    0.07811   0.08230   0.08360   0.08368   0.08692
 Alpha virt. eigenvalues --    0.08757   0.09080   0.09089   0.09156   0.09299
 Alpha virt. eigenvalues --    0.09740   0.09813   0.10311   0.10531   0.11343
 Alpha virt. eigenvalues --    0.11837   0.12080   0.12122   0.12584   0.13214
 Alpha virt. eigenvalues --    0.14744   0.15107   0.15434   0.15582   0.15640
 Alpha virt. eigenvalues --    0.16277   0.16325   0.16555   0.16707   0.16965
 Alpha virt. eigenvalues --    0.17172   0.17354   0.17627   0.17681   0.17899
 Alpha virt. eigenvalues --    0.18006   0.19127   0.19201   0.19250   0.19295
 Alpha virt. eigenvalues --    0.19342   0.19480   0.19663   0.19706   0.19867
 Alpha virt. eigenvalues --    0.20225   0.20419   0.20796   0.21120   0.21261
 Alpha virt. eigenvalues --    0.21284   0.21313   0.21672   0.21915   0.21955
 Alpha virt. eigenvalues --    0.22083   0.22556   0.22743   0.22868   0.22872
 Alpha virt. eigenvalues --    0.23827   0.24304   0.24800   0.24906   0.24918
 Alpha virt. eigenvalues --    0.25054   0.25203   0.25307   0.25796   0.26565
 Alpha virt. eigenvalues --    0.26620   0.26752   0.26965   0.27272   0.27449
 Alpha virt. eigenvalues --    0.27858   0.27903   0.28349   0.28564   0.28795
 Alpha virt. eigenvalues --    0.28865   0.29049   0.29386   0.29529   0.30796
 Alpha virt. eigenvalues --    0.30952   0.31115   0.31252   0.31375   0.32199
 Alpha virt. eigenvalues --    0.32383   0.32638   0.32675   0.33406   0.33441
 Alpha virt. eigenvalues --    0.33476   0.33674   0.33984   0.34431   0.34590
 Alpha virt. eigenvalues --    0.34653   0.35467   0.35498   0.35673   0.35727
 Alpha virt. eigenvalues --    0.35958   0.35960   0.36270   0.36302   0.36455
 Alpha virt. eigenvalues --    0.36825   0.37270   0.37274   0.37794   0.38133
 Alpha virt. eigenvalues --    0.38419   0.39004   0.39205   0.39261   0.39297
 Alpha virt. eigenvalues --    0.39681   0.39780   0.39944   0.40176   0.40199
 Alpha virt. eigenvalues --    0.40208   0.40220   0.40457   0.40838   0.41008
 Alpha virt. eigenvalues --    0.41487   0.41740   0.42355   0.42629   0.42831
 Alpha virt. eigenvalues --    0.43048   0.43121   0.43195   0.43449   0.44294
 Alpha virt. eigenvalues --    0.44552   0.44859   0.44940   0.45165   0.45225
 Alpha virt. eigenvalues --    0.45502   0.46177   0.46285   0.46379   0.46513
 Alpha virt. eigenvalues --    0.46842   0.46930   0.47283   0.47394   0.47485
 Alpha virt. eigenvalues --    0.48050   0.48191   0.48379   0.48802   0.48811
 Alpha virt. eigenvalues --    0.49651   0.50229   0.50296   0.50605   0.51075
 Alpha virt. eigenvalues --    0.51221   0.51241   0.51799   0.51845   0.52084
 Alpha virt. eigenvalues --    0.52574   0.53178   0.53538   0.54155   0.54543
 Alpha virt. eigenvalues --    0.56848   0.57052   0.57069   0.57075   0.57771
 Alpha virt. eigenvalues --    0.57823   0.58361   0.58584   0.59189   0.60069
 Alpha virt. eigenvalues --    0.60824   0.61776   0.62219   0.62527   0.63269
 Alpha virt. eigenvalues --    0.63341   0.63561   0.63655   0.64178   0.64710
 Alpha virt. eigenvalues --    0.65196   0.65397   0.65666   0.65762   0.65835
 Alpha virt. eigenvalues --    0.65852   0.65881   0.66039   0.66059   0.67023
 Alpha virt. eigenvalues --    0.67264   0.67817   0.68420   0.68803   0.69361
 Alpha virt. eigenvalues --    0.69398   0.70389   0.70851   0.71657   0.71830
 Alpha virt. eigenvalues --    0.72604   0.73668   0.73817   0.73908   0.74027
 Alpha virt. eigenvalues --    0.75694   0.76008   0.76938   0.77327   0.77860
 Alpha virt. eigenvalues --    0.80117   0.80231   0.80331   0.81014   0.81659
 Alpha virt. eigenvalues --    0.82077   0.82197   0.82584   0.86515   0.87681
 Alpha virt. eigenvalues --    0.87953   0.88102   0.90374   0.90510   1.07018
 Alpha virt. eigenvalues --    1.08806   1.09833   1.10351   1.10363   1.14155
 Alpha virt. eigenvalues --    1.14546   1.14566   1.15167   1.16113   1.16372
 Alpha virt. eigenvalues --    1.16694   1.16852   1.17573   1.17670   1.18215
 Alpha virt. eigenvalues --    1.18265   1.18547   1.18729   1.19241   1.20002
 Alpha virt. eigenvalues --    1.20171   1.20375   1.20984   1.21029   1.21092
 Alpha virt. eigenvalues --    1.21103   1.21928   1.21988   1.22183   1.22302
 Alpha virt. eigenvalues --    1.22599   1.23028   1.23228   1.23359   1.23422
 Alpha virt. eigenvalues --    1.23960   1.24558   1.24739   1.24815   1.24828
 Alpha virt. eigenvalues --    1.25250   1.25313   1.25544   1.25708   1.26326
 Alpha virt. eigenvalues --    1.26336   1.26717   1.26848   1.27157   1.27604
 Alpha virt. eigenvalues --    1.28044   1.28094   1.28470   1.28594   1.29137
 Alpha virt. eigenvalues --    1.29312   1.29443   1.34069   1.34542   1.35523
 Alpha virt. eigenvalues --    1.35787   1.36101   1.36297   1.36612   1.37151
 Alpha virt. eigenvalues --    1.37619   1.37654   1.37973   1.38020   1.38155
 Alpha virt. eigenvalues --    1.38170   1.38190   1.38282   1.38859   1.38886
 Alpha virt. eigenvalues --    1.38927   1.39234   1.39335   1.39767   1.39802
 Alpha virt. eigenvalues --    1.39901   1.40033   1.40257   1.40284   1.40333
 Alpha virt. eigenvalues --    1.40492   1.40669   1.41046   1.41409   1.41504
 Alpha virt. eigenvalues --    1.41532   1.41694   1.41792   1.43322   1.43514
 Alpha virt. eigenvalues --    1.43687   1.43749   1.44293   1.44384   1.45308
 Alpha virt. eigenvalues --    1.45703   1.45843   1.45957   1.46153   1.46323
 Alpha virt. eigenvalues --    1.46672   1.46774   1.47095   1.47445   1.47640
 Alpha virt. eigenvalues --    1.48082   1.48099   1.48918   1.48958   1.49216
 Alpha virt. eigenvalues --    1.49321   1.49366   1.49683   1.50071   1.50122
 Alpha virt. eigenvalues --    1.50233   1.50807   1.50976   1.51194   1.51369
 Alpha virt. eigenvalues --    1.51947   1.51968   1.52098   1.52107   1.52716
 Alpha virt. eigenvalues --    1.52900   1.53366   1.53593   1.53865   1.54326
 Alpha virt. eigenvalues --    1.54520   1.57243   1.57751   1.59393   1.59618
 Alpha virt. eigenvalues --    1.60465   1.60550   1.60826   1.60898   1.61919
 Alpha virt. eigenvalues --    1.63900   1.64480   1.65033   1.65210   1.65802
 Alpha virt. eigenvalues --    1.68362   1.68951   1.69561   1.69728   1.70164
 Alpha virt. eigenvalues --    1.70373   1.70449   1.70813   1.71020   1.71072
 Alpha virt. eigenvalues --    1.71378   1.71635   1.71729   1.71932   1.71960
 Alpha virt. eigenvalues --    1.72694   1.72813   1.72859   1.72953   1.73472
 Alpha virt. eigenvalues --    1.73770   1.74701   1.74846   1.74952   1.75181
 Alpha virt. eigenvalues --    1.75608   1.75967   1.76012   1.76173   1.76416
 Alpha virt. eigenvalues --    1.77624   1.78068   1.78080   1.78700   1.80341
 Alpha virt. eigenvalues --    1.81030   1.81156   1.82019   1.82211   1.82384
 Alpha virt. eigenvalues --    1.82395   1.82739   1.82825   1.82844   1.83075
 Alpha virt. eigenvalues --    1.84509   1.84835   1.85097   1.85097   1.85346
 Alpha virt. eigenvalues --    1.85360   1.85555   1.85710   1.86032   1.86078
 Alpha virt. eigenvalues --    1.86083   1.86156   1.86652   1.86922   1.86930
 Alpha virt. eigenvalues --    1.87136   1.87145   1.87449   1.87713   1.88044
 Alpha virt. eigenvalues --    1.88554   1.89292   1.90064   1.91412   1.91522
 Alpha virt. eigenvalues --    1.91539   1.91564   1.91920   1.92067   1.93297
 Alpha virt. eigenvalues --    1.93367   1.93393   1.94031   1.94623   1.95807
 Alpha virt. eigenvalues --    1.95945   1.96131   1.96283   1.97742   1.97937
 Alpha virt. eigenvalues --    1.98382   2.00391   2.00636   2.01264   2.02429
 Alpha virt. eigenvalues --    2.03918   2.04925   2.04952   2.05352   2.05754
 Alpha virt. eigenvalues --    2.07528   2.08549   2.10445   2.12214   2.12698
 Alpha virt. eigenvalues --    2.12915   2.12938   2.15200   2.15769   2.16610
 Alpha virt. eigenvalues --    2.17001   2.17103   2.18747   2.19310   2.20173
 Alpha virt. eigenvalues --    2.22215   2.22241   2.22943   2.22978   2.23132
 Alpha virt. eigenvalues --    2.23473   2.24019   2.24305   2.24404   2.24465
 Alpha virt. eigenvalues --    2.24471   2.24872   2.25328   2.25462   2.25712
 Alpha virt. eigenvalues --    2.26028   2.26204   2.26409   2.27179   2.27280
 Alpha virt. eigenvalues --    2.27950   2.27995   2.28077   2.28241   2.29077
 Alpha virt. eigenvalues --    2.29217   2.29264   2.29327   2.29589   2.29684
 Alpha virt. eigenvalues --    2.29995   2.30320   2.30580   2.30993   2.31004
 Alpha virt. eigenvalues --    2.31051   2.33388   2.36196   2.37424   2.37845
 Alpha virt. eigenvalues --    2.38230   2.39015   2.39087   2.39270   2.43382
 Alpha virt. eigenvalues --    2.43499   2.43543   2.44108   2.44563   2.44667
 Alpha virt. eigenvalues --    2.45215   2.45580   2.45931   2.46088   2.46279
 Alpha virt. eigenvalues --    2.46860   2.47490   2.47938   2.48494   2.48748
 Alpha virt. eigenvalues --    2.48975   2.50754   2.51382   2.52087   2.53368
 Alpha virt. eigenvalues --    2.53501   2.55622   2.55997   2.56340   2.56674
 Alpha virt. eigenvalues --    2.57601   2.57609   2.57648   2.58085   2.58093
 Alpha virt. eigenvalues --    2.58248   2.58494   2.58604   2.59160   2.59531
 Alpha virt. eigenvalues --    2.59605   2.60372   2.60697   2.60952   2.61250
 Alpha virt. eigenvalues --    2.61720   2.66186   2.67244   2.67260   2.67418
 Alpha virt. eigenvalues --    2.67499   2.68295   2.68706   2.69100   2.69228
 Alpha virt. eigenvalues --    2.70395   2.71104   2.71442   2.71493   2.72325
 Alpha virt. eigenvalues --    2.74413   2.75390   2.75683   2.76202   2.76695
 Alpha virt. eigenvalues --    2.77877   2.77927   2.78231   2.78286   2.78377
 Alpha virt. eigenvalues --    2.82385   2.83076   2.87646   2.88773   2.88885
 Alpha virt. eigenvalues --    2.89033   2.91070   2.91088   2.91837   2.91899
 Alpha virt. eigenvalues --    2.95164   2.95197   2.95441   2.95480   2.95637
 Alpha virt. eigenvalues --    2.96106   2.96459   2.96499   2.97362   2.97476
 Alpha virt. eigenvalues --    2.97985   2.98233   2.98779   2.99776   3.00307
 Alpha virt. eigenvalues --    3.02190   3.03280   3.03290   3.03376   3.04694
 Alpha virt. eigenvalues --    3.04890   3.05387   3.07409   3.07610   3.08414
 Alpha virt. eigenvalues --    3.08683   3.10079   3.10256   3.10897   3.10995
 Alpha virt. eigenvalues --    3.11441   3.12668   3.13058   3.13525   3.13726
 Alpha virt. eigenvalues --    3.14220   3.14684   3.15222   3.15593   3.16424
 Alpha virt. eigenvalues --    3.17817   3.18677   3.21748   3.25825   3.25846
 Alpha virt. eigenvalues --    3.26112   3.26597   3.26881   3.26886   3.29210
 Alpha virt. eigenvalues --    3.30787   3.32685   3.32946   3.34204   3.34208
 Alpha virt. eigenvalues --    3.36876   3.37598   3.45176   3.46136   3.47734
 Alpha virt. eigenvalues --    3.47889   3.48066   3.48123   3.50181   3.52773
 Alpha virt. eigenvalues --    3.53275   3.53279   3.70567   3.74341   3.81468
 Alpha virt. eigenvalues --    3.83778   3.84314   3.84397  21.04897  21.11310
 Alpha virt. eigenvalues --   21.11555  21.13085  21.13310  21.25796  21.57581
 Alpha virt. eigenvalues --   21.59080  21.59103  21.61656  21.62291  21.62305
 Alpha virt. eigenvalues --   21.64488  21.64907  21.67816  21.71054  21.71256
 Alpha virt. eigenvalues --   21.80148  21.81036  21.84627  21.85235  21.86612
 Alpha virt. eigenvalues --   21.87432  21.88095  21.88306  21.89766  21.92769
 Alpha virt. eigenvalues --   21.93170  21.93506  21.95018  21.98759  21.99789
 Alpha virt. eigenvalues --   22.04373  22.05291  22.05836  22.05889  31.91457
 Alpha virt. eigenvalues --   31.92402
  Beta  occ. eigenvalues --  -14.25319 -14.25319 -10.15027 -10.15025 -10.13378
  Beta  occ. eigenvalues --  -10.13376 -10.13376 -10.13375 -10.11629 -10.11615
  Beta  occ. eigenvalues --  -10.10419 -10.10418 -10.10416 -10.10415 -10.10352
  Beta  occ. eigenvalues --  -10.10351 -10.10351 -10.10351 -10.08919 -10.08918
  Beta  occ. eigenvalues --  -10.08918 -10.08917 -10.08758 -10.08758 -10.08757
  Beta  occ. eigenvalues --  -10.08757 -10.08439 -10.08439 -10.08439 -10.08439
  Beta  occ. eigenvalues --  -10.08363 -10.08362 -10.08362 -10.08362 -10.08160
  Beta  occ. eigenvalues --  -10.08160 -10.08160 -10.08159  -1.11206  -1.11202
  Beta  occ. eigenvalues --   -1.01622  -0.99881  -0.98984  -0.98983  -0.97659
  Beta  occ. eigenvalues --   -0.97112  -0.92868  -0.90413  -0.90055  -0.89509
  Beta  occ. eigenvalues --   -0.89106  -0.88780  -0.88088  -0.87755  -0.87754
  Beta  occ. eigenvalues --   -0.87649  -0.85702  -0.83960  -0.79309  -0.78627
  Beta  occ. eigenvalues --   -0.77482  -0.76572  -0.76109  -0.74924  -0.74687
  Beta  occ. eigenvalues --   -0.74337  -0.74190  -0.73862  -0.72005  -0.71678
  Beta  occ. eigenvalues --   -0.69702  -0.68907  -0.68742  -0.68495  -0.66609
  Beta  occ. eigenvalues --   -0.64208  -0.64141  -0.63612  -0.62719  -0.62352
  Beta  occ. eigenvalues --   -0.62053  -0.60795  -0.60585  -0.60064  -0.59934
  Beta  occ. eigenvalues --   -0.59920  -0.59134  -0.58490  -0.58224  -0.58057
  Beta  occ. eigenvalues --   -0.58004  -0.57910  -0.57885  -0.56803  -0.56695
  Beta  occ. eigenvalues --   -0.56495  -0.56494  -0.56166  -0.54994  -0.54377
  Beta  occ. eigenvalues --   -0.53582  -0.53382  -0.53096  -0.53067  -0.51773
  Beta  occ. eigenvalues --   -0.51499  -0.50764  -0.50746  -0.50540  -0.50112
  Beta  occ. eigenvalues --   -0.50056  -0.49240  -0.49000  -0.48701  -0.48672
  Beta  occ. eigenvalues --   -0.47831  -0.46582  -0.44003  -0.43271  -0.43258
  Beta  occ. eigenvalues --   -0.41965  -0.41959  -0.41236  -0.41233  -0.41200
  Beta  occ. eigenvalues --   -0.40888  -0.40080  -0.32007
  Beta virt. eigenvalues --   -0.23539  -0.09852  -0.07693  -0.07538  -0.06526
  Beta virt. eigenvalues --   -0.06511  -0.05704  -0.05295  -0.05109  -0.04393
  Beta virt. eigenvalues --   -0.04329  -0.02494  -0.01275   0.01070   0.01709
  Beta virt. eigenvalues --    0.02740   0.02950   0.03106   0.03211   0.03416
  Beta virt. eigenvalues --    0.04633   0.04870   0.04974   0.05516   0.05649
  Beta virt. eigenvalues --    0.05688   0.06024   0.06663   0.06982   0.07079
  Beta virt. eigenvalues --    0.07368   0.07847   0.08292   0.08382   0.08413
  Beta virt. eigenvalues --    0.08708   0.08812   0.09220   0.09235   0.09281
  Beta virt. eigenvalues --    0.09355   0.09812   0.09876   0.10333   0.10556
  Beta virt. eigenvalues --    0.11556   0.12010   0.12203   0.12303   0.12670
  Beta virt. eigenvalues --    0.13363   0.14819   0.15163   0.15516   0.15682
  Beta virt. eigenvalues --    0.15684   0.16355   0.16400   0.16614   0.16774
  Beta virt. eigenvalues --    0.17027   0.17225   0.17457   0.17705   0.17713
  Beta virt. eigenvalues --    0.17966   0.18049   0.19221   0.19291   0.19304
  Beta virt. eigenvalues --    0.19398   0.19399   0.19576   0.19731   0.19781
  Beta virt. eigenvalues --    0.19950   0.20293   0.20496   0.20855   0.21160
  Beta virt. eigenvalues --    0.21288   0.21337   0.21340   0.21743   0.21963
  Beta virt. eigenvalues --    0.22023   0.22131   0.22635   0.22794   0.22924
  Beta virt. eigenvalues --    0.22945   0.23853   0.24369   0.24835   0.24937
  Beta virt. eigenvalues --    0.24974   0.25093   0.25330   0.25422   0.25886
  Beta virt. eigenvalues --    0.26673   0.26727   0.26849   0.27046   0.27359
  Beta virt. eigenvalues --    0.27561   0.27952   0.28042   0.28415   0.28650
  Beta virt. eigenvalues --    0.28862   0.28936   0.29154   0.29463   0.29613
  Beta virt. eigenvalues --    0.30911   0.31055   0.31224   0.31341   0.31478
  Beta virt. eigenvalues --    0.32280   0.32522   0.32750   0.32766   0.33479
  Beta virt. eigenvalues --    0.33506   0.33610   0.33782   0.34028   0.34527
  Beta virt. eigenvalues --    0.34663   0.34744   0.35523   0.35589   0.35747
  Beta virt. eigenvalues --    0.35801   0.36015   0.36025   0.36356   0.36361
  Beta virt. eigenvalues --    0.36560   0.36930   0.37341   0.37373   0.37898
  Beta virt. eigenvalues --    0.38233   0.38515   0.39060   0.39308   0.39308
  Beta virt. eigenvalues --    0.39358   0.39721   0.39807   0.39988   0.40227
  Beta virt. eigenvalues --    0.40234   0.40245   0.40278   0.40533   0.40868
  Beta virt. eigenvalues --    0.41056   0.41571   0.41794   0.42422   0.42701
  Beta virt. eigenvalues --    0.42900   0.43108   0.43176   0.43270   0.43509
  Beta virt. eigenvalues --    0.44384   0.44615   0.44909   0.44984   0.45243
  Beta virt. eigenvalues --    0.45281   0.45562   0.46226   0.46346   0.46444
  Beta virt. eigenvalues --    0.46559   0.46880   0.46972   0.47384   0.47474
  Beta virt. eigenvalues --    0.47535   0.48136   0.48258   0.48468   0.48869
  Beta virt. eigenvalues --    0.48882   0.49692   0.50303   0.50359   0.50673
  Beta virt. eigenvalues --    0.51141   0.51318   0.51335   0.51929   0.51934
  Beta virt. eigenvalues --    0.52161   0.52625   0.53258   0.53593   0.54241
  Beta virt. eigenvalues --    0.54597   0.56910   0.57116   0.57138   0.57149
  Beta virt. eigenvalues --    0.57829   0.57929   0.58433   0.58649   0.59240
  Beta virt. eigenvalues --    0.60143   0.60906   0.61885   0.62272   0.62578
  Beta virt. eigenvalues --    0.63338   0.63409   0.63619   0.63704   0.64266
  Beta virt. eigenvalues --    0.64774   0.65262   0.65450   0.65726   0.65855
  Beta virt. eigenvalues --    0.65900   0.65916   0.65936   0.66097   0.66127
  Beta virt. eigenvalues --    0.67082   0.67353   0.67875   0.68468   0.68898
  Beta virt. eigenvalues --    0.69417   0.69476   0.70452   0.70930   0.71744
  Beta virt. eigenvalues --    0.71905   0.72699   0.73749   0.73853   0.73950
  Beta virt. eigenvalues --    0.74077   0.75794   0.76066   0.77094   0.77541
  Beta virt. eigenvalues --    0.77927   0.80361   0.80556   0.80581   0.81081
  Beta virt. eigenvalues --    0.81714   0.82138   0.82243   0.82697   0.86600
  Beta virt. eigenvalues --    0.87754   0.88004   0.88151   0.90511   0.90657
  Beta virt. eigenvalues --    1.07087   1.08866   1.09896   1.10393   1.10405
  Beta virt. eigenvalues --    1.14226   1.14598   1.14629   1.15223   1.16179
  Beta virt. eigenvalues --    1.16455   1.16767   1.16933   1.17650   1.17747
  Beta virt. eigenvalues --    1.18309   1.18323   1.18612   1.18813   1.19330
  Beta virt. eigenvalues --    1.20105   1.20268   1.20453   1.21123   1.21142
  Beta virt. eigenvalues --    1.21178   1.21196   1.22001   1.22071   1.22304
  Beta virt. eigenvalues --    1.22390   1.22667   1.23095   1.23282   1.23410
  Beta virt. eigenvalues --    1.23465   1.24053   1.24636   1.24819   1.24890
  Beta virt. eigenvalues --    1.24924   1.25315   1.25389   1.25600   1.25792
  Beta virt. eigenvalues --    1.26376   1.26413   1.26809   1.26968   1.27247
  Beta virt. eigenvalues --    1.27720   1.28076   1.28129   1.28547   1.28780
  Beta virt. eigenvalues --    1.29223   1.29440   1.29591   1.34241   1.34701
  Beta virt. eigenvalues --    1.35650   1.35954   1.36194   1.36391   1.36687
  Beta virt. eigenvalues --    1.37219   1.37650   1.37873   1.38019   1.38047
  Beta virt. eigenvalues --    1.38149   1.38164   1.38444   1.38551   1.38976
  Beta virt. eigenvalues --    1.39100   1.39129   1.39300   1.39409   1.39833
  Beta virt. eigenvalues --    1.39846   1.39956   1.40123   1.40358   1.40404
  Beta virt. eigenvalues --    1.40424   1.40610   1.40836   1.41180   1.41545
  Beta virt. eigenvalues --    1.41581   1.41661   1.41834   1.41857   1.43376
  Beta virt. eigenvalues --    1.43607   1.43786   1.43805   1.44382   1.44485
  Beta virt. eigenvalues --    1.45490   1.45797   1.45878   1.45985   1.46197
  Beta virt. eigenvalues --    1.46435   1.46775   1.46871   1.47172   1.47588
  Beta virt. eigenvalues --    1.47750   1.48158   1.48234   1.48953   1.48994
  Beta virt. eigenvalues --    1.49236   1.49394   1.49399   1.49833   1.50219
  Beta virt. eigenvalues --    1.50258   1.50380   1.50938   1.51076   1.51323
  Beta virt. eigenvalues --    1.51480   1.52033   1.52075   1.52200   1.52213
  Beta virt. eigenvalues --    1.52850   1.53019   1.53530   1.53682   1.53985
  Beta virt. eigenvalues --    1.54478   1.54622   1.57394   1.57856   1.59527
  Beta virt. eigenvalues --    1.59719   1.60576   1.60656   1.60907   1.60984
  Beta virt. eigenvalues --    1.61986   1.63965   1.64537   1.65102   1.65281
  Beta virt. eigenvalues --    1.65920   1.68535   1.69067   1.69670   1.69838
  Beta virt. eigenvalues --    1.70302   1.70486   1.70602   1.70918   1.71072
  Beta virt. eigenvalues --    1.71168   1.71459   1.71689   1.71871   1.71963
  Beta virt. eigenvalues --    1.72034   1.72747   1.72954   1.72960   1.73059
  Beta virt. eigenvalues --    1.73542   1.73836   1.74804   1.74962   1.75044
  Beta virt. eigenvalues --    1.75277   1.75666   1.76063   1.76089   1.76315
  Beta virt. eigenvalues --    1.76494   1.77744   1.78179   1.78349   1.78932
  Beta virt. eigenvalues --    1.80441   1.81112   1.81283   1.82130   1.82331
[...]

              Baa    -0.0229    -3.071    -1.096    -1.024  0.5030  0.6601  0.5580
     1 C(13)  Bbb    -0.0189    -2.534    -0.904    -0.845  0.8625 -0.3415 -0.3734
              Bcc     0.0418     5.605     2.000     1.870  0.0559 -0.6691  0.7411
 
              Baa    -0.0314    -4.216    -1.504    -1.406  0.0000  0.9893  0.1458
     2 C(13)  Bbb    -0.0212    -2.850    -1.017    -0.951  1.0000 -0.0000  0.0001
              Bcc     0.0527     7.066     2.521     2.357 -0.0001 -0.1458  0.9893
 
              Baa    -0.0076    -1.022    -0.365    -0.341  0.0687  0.6659  0.7428
     3 C(13)  Bbb    -0.0040    -0.530    -0.189    -0.177  0.9778 -0.1926  0.0823
              Bcc     0.0116     1.552     0.554     0.518  0.1979  0.7207 -0.6644
 
              Baa    -0.0229    -3.072    -1.096    -1.025 -0.5030  0.6601  0.5579
     4 C(13)  Bbb    -0.0189    -2.535    -0.904    -0.846  0.8625  0.3415  0.3735
              Bcc     0.0418     5.607     2.001     1.870 -0.0560 -0.6691  0.7411
 
              Baa    -0.0406    -5.445    -1.943    -1.816  0.0000  0.9881  0.1540
     5 C(13)  Bbb    -0.0353    -4.741    -1.692    -1.582  1.0000 -0.0000  0.0000
              Bcc     0.0759    10.186     3.635     3.398 -0.0000 -0.1540  0.9881
 
              Baa    -0.0076    -1.022    -0.365    -0.341 -0.0685  0.6660  0.7428
     6 C(13)  Bbb    -0.0040    -0.530    -0.189    -0.177  0.9779  0.1923 -0.0823
              Bcc     0.0116     1.552     0.554     0.518 -0.1977  0.7208 -0.6644
 
              Baa    -0.0021    -1.140    -0.407    -0.380 -0.1190 -0.2970  0.9474
     7 H(1)   Bbb    -0.0001    -0.046    -0.016    -0.015  0.9898  0.0404  0.1370
              Bcc     0.0022     1.186     0.423     0.396 -0.0789  0.9540  0.2891
 
              Baa    -0.0027    -1.437    -0.513    -0.479  0.0867 -0.3398  0.9365
     8 H(1)   Bbb    -0.0014    -0.763    -0.272    -0.254  0.9931  0.1040 -0.0542
              Bcc     0.0041     2.199     0.785     0.734 -0.0790  0.9347  0.3464
 
              Baa    -0.0021    -1.140    -0.407    -0.380  0.1189 -0.2971  0.9474
     9 H(1)   Bbb    -0.0001    -0.046    -0.016    -0.015  0.9898 -0.0404 -0.1368
              Bcc     0.0022     1.186     0.423     0.396  0.0789  0.9540  0.2892
 
              Baa    -0.0405    -5.439    -1.941    -1.814  0.0000  0.9880 -0.1547
    10 C(13)  Bbb    -0.0353    -4.735    -1.690    -1.580  1.0000 -0.0000 -0.0000
              Bcc     0.0758    10.174     3.630     3.394  0.0000  0.1547  0.9880
 
              Baa    -0.0076    -1.023    -0.365    -0.341 -0.0673 -0.6662  0.7427
    11 C(13)  Bbb    -0.0040    -0.532    -0.190    -0.177  0.9782 -0.1908 -0.0825
              Bcc     0.0116     1.555     0.555     0.519  0.1967  0.7209  0.6645
 
              Baa    -0.0076    -1.023    -0.365    -0.341  0.0673 -0.6660  0.7429
    12 C(13)  Bbb    -0.0040    -0.531    -0.190    -0.177  0.9781  0.1909  0.0825
              Bcc     0.0116     1.554     0.555     0.519 -0.1967  0.7211  0.6643
 
              Baa    -0.0229    -3.068    -1.095    -1.023  0.5021  0.6597 -0.5592
    13 C(13)  Bbb    -0.0189    -2.530    -0.903    -0.844  0.8630 -0.3401  0.3736
              Bcc     0.0417     5.598     1.997     1.867 -0.0563  0.6701  0.7401
 
              Baa    -0.0229    -3.069    -1.095    -1.024 -0.5022  0.6597 -0.5591
    14 C(13)  Bbb    -0.0189    -2.531    -0.903    -0.844  0.8629  0.3401 -0.3737
              Bcc     0.0417     5.599     1.998     1.868  0.0563  0.6701  0.7401
 
              Baa    -0.0314    -4.218    -1.505    -1.407 -0.0001  0.9892 -0.1466
    15 C(13)  Bbb    -0.0213    -2.852    -1.018    -0.951  1.0000  0.0000 -0.0001
              Bcc     0.0527     7.070     2.523     2.358  0.0001  0.1466  0.9892
 
              Baa    -0.0021    -1.140    -0.407    -0.380  0.1191  0.2979  0.9471
    16 H(1)   Bbb    -0.0001    -0.047    -0.017    -0.016  0.9897  0.0406 -0.1372
              Bcc     0.0022     1.186     0.423     0.396 -0.0794  0.9537 -0.2900
 
              Baa    -0.0021    -1.140    -0.407    -0.380 -0.1189  0.2980  0.9471
    17 H(1)   Bbb    -0.0001    -0.046    -0.017    -0.015  0.9897 -0.0405  0.1370
              Bcc     0.0022     1.186     0.423     0.396  0.0792  0.9537 -0.2901
 
              Baa    -0.0027    -1.437    -0.513    -0.479  0.0861  0.3404  0.9363
    18 H(1)   Bbb    -0.0014    -0.761    -0.272    -0.254  0.9932 -0.1031 -0.0538
              Bcc     0.0041     2.198     0.784     0.733  0.0782  0.9346 -0.3470
 
              Baa    -0.0027    -1.437    -0.513    -0.479 -0.0858  0.3405  0.9363
    19 H(1)   Bbb    -0.0014    -0.761    -0.272    -0.254  0.9932  0.1031  0.0535
              Bcc     0.0041     2.198     0.784     0.733 -0.0783  0.9346 -0.3471
 
              Baa    -0.0027    -1.437    -0.513    -0.479 -0.0869 -0.3397  0.9365
    20 H(1)   Bbb    -0.0014    -0.762    -0.272    -0.254  0.9931 -0.1040  0.0544
              Bcc     0.0041     2.199     0.785     0.734  0.0789  0.9348  0.3464
 
              Baa    -0.2551    -9.839    -3.511    -3.282 -0.0009  0.9479  0.3185
    21 N(14)  Bbb    -0.2540    -9.795    -3.495    -3.267  1.0000  0.0009  0.0002
              Bcc     0.5091    19.634     7.006     6.549  0.0001 -0.3185  0.9479
 
              Baa    -0.0190    -2.551    -0.910    -0.851  0.6084  0.6819 -0.4059
    22 C(13)  Bbb     0.0054     0.720     0.257     0.240  0.6351 -0.1117  0.7643
              Bcc     0.0136     1.831     0.653     0.611 -0.4758  0.7228  0.5011
 
              Baa    -0.0276    -3.702    -1.321    -1.235  0.1013  0.5892  0.8016
    23 C(13)  Bbb    -0.0241    -3.235    -1.154    -1.079  0.6522 -0.6477  0.3937
              Bcc     0.0517     6.937     2.475     2.314  0.7512  0.4830 -0.4499
 
              Baa    -0.0292    -3.919    -1.399    -1.307  0.7317 -0.5517  0.4003
    24 C(13)  Bbb    -0.0259    -3.480    -1.242    -1.161 -0.0763  0.5173  0.8524
              Bcc     0.0551     7.399     2.640     2.468  0.6774  0.6542 -0.3364
 
              Baa    -0.0202    -2.707    -0.966    -0.903 -0.5216 -0.5935  0.6129
    25 C(13)  Bbb     0.0089     1.197     0.427     0.399  0.6979  0.1164  0.7067
              Bcc     0.0113     1.510     0.539     0.504 -0.4907  0.7964  0.3535
 
              Baa    -0.0221    -2.967    -1.059    -0.990 -0.5617 -0.5371  0.6294
    26 C(13)  Bbb     0.0097     1.300     0.464     0.434  0.6157  0.2368  0.7516
              Bcc     0.0124     1.666     0.595     0.556 -0.5527  0.8096  0.1977
 
              Baa    -0.0320    -4.288    -1.530    -1.430  0.6788  0.2046  0.7053
    27 C(13)  Bbb    -0.0287    -3.853    -1.375    -1.285 -0.5274  0.8041  0.2744
              Bcc     0.0607     8.142     2.905     2.716 -0.5110 -0.5582  0.6537
 
              Baa    -0.0021    -1.134    -0.405    -0.378  0.2413  0.8335 -0.4970
    28 H(1)   Bbb    -0.0012    -0.617    -0.220    -0.206  0.7612 -0.4802 -0.4358
              Bcc     0.0033     1.751     0.625     0.584  0.6019  0.2732  0.7504
 
              Baa    -0.0023    -1.212    -0.432    -0.404 -0.6027 -0.5185  0.6065
    29 H(1)   Bbb    -0.0008    -0.432    -0.154    -0.144 -0.2659  0.8471  0.4601
              Bcc     0.0031     1.644     0.587     0.548  0.7523 -0.1160  0.6485
 
              Baa    -0.0011    -0.602    -0.215    -0.201  0.5770  0.5867 -0.5683
    30 H(1)   Bbb     0.0001     0.060     0.022     0.020  0.7453 -0.0937  0.6601
              Bcc     0.0010     0.542     0.193     0.181 -0.3340  0.8044  0.4913
 
              Baa    -0.0012    -0.635    -0.226    -0.212  0.5859  0.6090 -0.5346
    31 H(1)   Bbb    -0.0001    -0.071    -0.025    -0.024  0.4550  0.2986  0.8389
              Bcc     0.0013     0.706     0.252     0.235 -0.6706  0.7348  0.1022
 
              Baa    -0.0041    -2.181    -0.778    -0.728  0.6741  0.1570  0.7217
    32 H(1)   Bbb    -0.0004    -0.224    -0.080    -0.075 -0.5385 -0.5644  0.6257
              Bcc     0.0045     2.405     0.858     0.802 -0.5056  0.8104  0.2960
 
              Baa    -0.0190    -2.549    -0.910    -0.850 -0.6091  0.6818 -0.4052
    33 C(13)  Bbb     0.0054     0.720     0.257     0.240 -0.6345 -0.1124  0.7647
              Bcc     0.0136     1.830     0.653     0.610  0.4758  0.7228  0.5011
 
              Baa    -0.0276    -3.699    -1.320    -1.234 -0.1011  0.5888  0.8020
    34 C(13)  Bbb    -0.0241    -3.231    -1.153    -1.078  0.6515  0.6484 -0.3939
              Bcc     0.0516     6.930     2.473     2.312  0.7519 -0.4827  0.4491
 
              Baa    -0.0292    -3.916    -1.397    -1.306  0.7312  0.5519 -0.4010
    35 C(13)  Bbb    -0.0259    -3.476    -1.240    -1.159  0.0771  0.5172  0.8524
              Bcc     0.0551     7.392     2.638     2.466  0.6778 -0.6542  0.3356
 
              Baa    -0.0202    -2.704    -0.965    -0.902  0.5222 -0.5935  0.6124
    36 C(13)  Bbb     0.0089     1.196     0.427     0.399 -0.6971  0.1165  0.7074
              Bcc     0.0112     1.508     0.538     0.503  0.4912  0.7963  0.3529
 
              Baa    -0.0221    -2.964    -1.058    -0.989  0.5623 -0.5370  0.6288
    37 C(13)  Bbb     0.0097     1.299     0.464     0.433 -0.6157  0.2358  0.7519
              Bcc     0.0124     1.665     0.594     0.555  0.5520  0.8100  0.1980
 
              Baa    -0.0319    -4.284    -1.529    -1.429 -0.6784  0.2041  0.7058
    38 C(13)  Bbb    -0.0287    -3.849    -1.373    -1.284  0.5273  0.8042  0.2743
              Bcc     0.0606     8.132     2.902     2.713  0.5116 -0.5582  0.6532
 
              Baa    -0.0021    -1.134    -0.405    -0.378 -0.2430  0.8329 -0.4972
    39 H(1)   Bbb    -0.0012    -0.616    -0.220    -0.205  0.7606  0.4817  0.4352
              Bcc     0.0033     1.750     0.624     0.584 -0.6020  0.2724  0.7506
 
              Baa    -0.0023    -1.211    -0.432    -0.404  0.6029 -0.5189  0.6059
    40 H(1)   Bbb    -0.0008    -0.431    -0.154    -0.144  0.2667  0.8469  0.4599
              Bcc     0.0031     1.642     0.586     0.548  0.7519  0.1157 -0.6491
 
              Baa    -0.0011    -0.602    -0.215    -0.201 -0.5776  0.5867 -0.5677
    41 H(1)   Bbb     0.0001     0.060     0.022     0.020  0.7446  0.0935 -0.6609
              Bcc     0.0010     0.542     0.193     0.181  0.3347  0.8044  0.4908
 
              Baa    -0.0012    -0.634    -0.226    -0.212 -0.5865  0.6090 -0.5341
    42 H(1)   Bbb    -0.0001    -0.071    -0.025    -0.024 -0.4550  0.2978  0.8392
              Bcc     0.0013     0.705     0.252     0.235  0.6701  0.7352  0.1024
 
              Baa    -0.0041    -2.179    -0.778    -0.727 -0.6737  0.1565  0.7223
    43 H(1)   Bbb    -0.0004    -0.224    -0.080    -0.075  0.5391 -0.5644  0.6252
              Bcc     0.0045     2.403     0.857     0.801  0.5054  0.8106  0.2958
 
              Baa    -0.2551    -9.839    -3.511    -3.282 -0.0004  0.9479 -0.3186
    44 N(14)  Bbb    -0.2540    -9.795    -3.495    -3.267  1.0000  0.0004 -0.0001
              Bcc     0.5091    19.635     7.006     6.549 -0.0001  0.3186  0.9479
 
              Baa    -0.0190    -2.550    -0.910    -0.851  0.6090  0.6817  0.4054
    45 C(13)  Bbb     0.0054     0.720     0.257     0.240 -0.6345  0.1121  0.7647
              Bcc     0.0136     1.830     0.653     0.610 -0.4759  0.7229 -0.5008
 
              Baa    -0.0276    -3.699    -1.320    -1.234 -0.1010 -0.5888  0.8019
    46 C(13)  Bbb    -0.0241    -3.231    -1.153    -1.078  0.6516 -0.6483 -0.3939
              Bcc     0.0516     6.930     2.473     2.312  0.7518  0.4827  0.4492
 
              Baa    -0.0292    -3.916    -1.397    -1.306  0.7313 -0.5517 -0.4010
    47 C(13)  Bbb    -0.0259    -3.476    -1.240    -1.159  0.0772 -0.5172  0.8524
              Bcc     0.0551     7.391     2.637     2.466  0.6776  0.6544  0.3356
 
              Baa    -0.0201    -2.704    -0.965    -0.902  0.5220  0.5937  0.6124
    48 C(13)  Bbb     0.0089     1.196     0.427     0.399 -0.6971 -0.1169  0.7074
              Bcc     0.0112     1.508     0.538     0.503 -0.4915  0.7962 -0.3528
 
              Baa    -0.0221    -2.964    -1.058    -0.989  0.5621  0.5371  0.6289
    49 C(13)  Bbb     0.0097     1.299     0.463     0.433 -0.6157 -0.2360  0.7519
              Bcc     0.0124     1.665     0.594     0.555 -0.5522  0.8098 -0.1980
 
              Baa    -0.0319    -4.283    -1.528    -1.429 -0.6784 -0.2043  0.7057
    50 C(13)  Bbb    -0.0287    -3.848    -1.373    -1.284 -0.5275  0.8041 -0.2743
              Bcc     0.0606     8.131     2.901     2.712  0.5114  0.5583  0.6532
 
              Baa    -0.0021    -1.134    -0.405    -0.378  0.2427  0.8330  0.4973
    51 H(1)   Bbb    -0.0012    -0.616    -0.220    -0.205  0.7606 -0.4815  0.4354
              Bcc     0.0033     1.750     0.624     0.584 -0.6021 -0.2726  0.7504
 
              Baa    -0.0023    -1.211    -0.432    -0.404  0.6028  0.5192  0.6059
    52 H(1)   Bbb    -0.0008    -0.430    -0.154    -0.144 -0.2670  0.8468 -0.4601
              Bcc     0.0031     1.642     0.586     0.548  0.7519 -0.1155 -0.6490
 
              Baa    -0.0011    -0.602    -0.215    -0.201  0.5774  0.5868  0.5677
    53 H(1)   Bbb     0.0001     0.060     0.022     0.020  0.7446 -0.0932 -0.6610
              Bcc     0.0010     0.541     0.193     0.181 -0.3350  0.8043 -0.4908
 
              Baa    -0.0012    -0.634    -0.226    -0.212  0.5863  0.6091  0.5341
    54 H(1)   Bbb    -0.0001    -0.071    -0.025    -0.024 -0.4549 -0.2979  0.8392
              Bcc     0.0013     0.705     0.252     0.235 -0.6703  0.7350 -0.1024
 
              Baa    -0.0041    -2.179    -0.777    -0.727 -0.6737 -0.1566  0.7222
    55 H(1)   Bbb    -0.0004    -0.224    -0.080    -0.075  0.5389  0.5645  0.6252
              Bcc     0.0045     2.402     0.857     0.801 -0.5056  0.8104 -0.2959
 
              Baa    -0.0190    -2.549    -0.910    -0.850 -0.6092  0.6819  0.4049
    56 C(13)  Bbb     0.0054     0.720     0.257     0.240  0.6343  0.1125  0.7648
              Bcc     0.0136     1.829     0.653     0.610  0.4759  0.7228 -0.5011
 
              Baa    -0.0276    -3.698    -1.320    -1.234  0.1010 -0.5886  0.8021
    57 C(13)  Bbb    -0.0241    -3.229    -1.152    -1.077  0.6513  0.6485  0.3939
              Bcc     0.0516     6.927     2.472     2.311  0.7520 -0.4827 -0.4489
 
              Baa    -0.0292    -3.915    -1.397    -1.306  0.7311  0.5518  0.4012
    58 C(13)  Bbb    -0.0259    -3.474    -1.240    -1.159 -0.0776 -0.5170  0.8525
              Bcc     0.0551     7.389     2.636     2.465  0.6778 -0.6544 -0.3352
 
              Baa    -0.0201    -2.703    -0.964    -0.902 -0.5222  0.5937  0.6122
    59 C(13)  Bbb     0.0089     1.195     0.426     0.399  0.6968 -0.1168  0.7077
              Bcc     0.0112     1.508     0.538     0.503  0.4917  0.7961 -0.3527
 
              Baa    -0.0221    -2.963    -1.057    -0.988 -0.5624  0.5372  0.6286
    60 C(13)  Bbb     0.0097     1.298     0.463     0.433  0.6157 -0.2355  0.7520
              Bcc     0.0124     1.664     0.594     0.555  0.5520  0.8099 -0.1983
 
              Baa    -0.0319    -4.281    -1.528    -1.428  0.6782 -0.2041  0.7059
    61 C(13)  Bbb    -0.0287    -3.847    -1.373    -1.283  0.5275  0.8041 -0.2743
              Bcc     0.0606     8.128     2.900     2.711 -0.5117  0.5584  0.6530
 
              Baa    -0.0021    -1.134    -0.405    -0.378 -0.2432  0.8328  0.4972
    62 H(1)   Bbb    -0.0012    -0.615    -0.220    -0.205  0.7604  0.4820 -0.4353
              Bcc     0.0033     1.749     0.624     0.584  0.6022 -0.2722  0.7505
 
              Baa    -0.0023    -1.211    -0.432    -0.404 -0.6029  0.5194  0.6056
    63 H(1)   Bbb    -0.0008    -0.430    -0.153    -0.143  0.2673  0.8467 -0.4602
              Bcc     0.0031     1.641     0.585     0.547  0.7517  0.1156  0.6493
 
              Baa    -0.0011    -0.602    -0.215    -0.201 -0.5776  0.5869  0.5674
    64 H(1)   Bbb     0.0001     0.060     0.022     0.020  0.7443  0.0932  0.6613
              Bcc     0.0010     0.541     0.193     0.181  0.3352  0.8043 -0.4907
 
              Baa    -0.0012    -0.634    -0.226    -0.211 -0.5865  0.6091  0.5338
    65 H(1)   Bbb    -0.0001    -0.071    -0.025    -0.024  0.4549 -0.2975  0.8394
              Bcc     0.0013     0.705     0.252     0.235  0.6701  0.7351 -0.1026
 
              Baa    -0.0041    -2.178    -0.777    -0.726  0.6735 -0.1564  0.7224
    66 H(1)   Bbb    -0.0004    -0.224    -0.080    -0.075 -0.5392  0.5646  0.6249
              Bcc     0.0045     2.402     0.857     0.801  0.5056  0.8104 -0.2959
 

 ---------------------------------------------------------------------------------

 No NMR shielding tensors so no spin-rotation constants.
 Leave Link  601 at Mon Jan 18 02:06:11 2021, MaxMem=  4026531840 cpu:               9.3 elap:               1.2
 (Enter /opt/ohpc/pub/libs/gaussian/g16-A.03/sandybridge/g16/l9999.exe)

 Test job not archived.
 1\1\GINC-CASCADEB019\SP\ULC-wHPBE\TZVP\C36H28N2(1+,2)\RDU230\18-Jan-20
 21\0\\#P LC-wHPBE/TZVP iop(3/107=0184000000, 3/108=0184000000) scf=(co
 nver=6,fermi,ndamp=35,noincfock,novaracc,vshift=500,xqc)\\H28 C36 N2\\
 1,2\C,0,2.849999,-1.125861,0.415638\C,0,3.563139,-0.000026,-0.000017\C
 ,0,1.464492,-1.123667,0.405534\C,0,2.850033,1.125752,-0.415809\C,0,0.7
 41288,-0.000047,-0.000195\C,0,1.464504,1.123547,-0.405879\H,0,0.931596
 ,-2.005844,0.756198\H,0,3.391048,2.006254,-0.75499\H,0,0.931669,2.0057
 28,-0.756629\C,0,-0.741437,-0.000073,-0.000217\C,0,-1.464635,1.123165,
 0.406556\C,0,-1.464638,-1.123302,-0.406976\C,0,-2.850149,1.125343,0.41
 661\C,0,-2.850163,-1.125491,-0.416935\C,0,-3.563257,-0.000095,-0.00011
 6\H,0,-0.931751,2.005025,0.758038\H,0,-0.931783,-2.00514,-0.758553\H,0
 ,-3.391193,2.005527,0.756576\H,0,-3.391211,-2.005669,-0.756913\H,0,3.3
 91005,-2.006357,0.754845\N,0,-4.97843,-0.000102,-0.000065\C,0,-5.68709
 9,-1.154578,0.414287\C,0,-6.831881,-1.566674,-0.27115\C,0,-5.251323,-1
 .896933,1.513908\C,0,-7.528311,-2.692826,0.143324\C,0,-5.943392,-3.032
 223,1.91044\C,0,-7.087522,-3.435368,1.232277\H,0,-7.173684,-0.995181,-
 1.131117\H,0,-4.363437,-1.577947,2.055099\H,0,-8.419174,-2.999763,-0.4
 0155\H,0,-5.58986,-3.599797,2.769285\H,0,-7.631852,-4.321852,1.550225\
 C,0,-5.687025,1.154532,-0.414292\C,0,-6.831191,1.567225,0.271802\C,0,-
 5.251707,1.896381,-1.514415\C,0,-7.527485,2.693516,-0.142525\C,0,-5.94
 362,3.031828,-1.910808\C,0,-7.087137,3.435581,-1.231989\H,0,-7.172616,
 0.996083,1.132151\H,0,-4.364291,1.57691,-2.056093\H,0,-8.417875,3.0009
 45,0.402845\H,0,-5.590451,3.599029,-2.77005\H,0,-7.63135,4.322181,-1.5
 49815\N,0,4.978266,0.00002,0.000103\C,0,5.68699,1.154558,0.414335\C,0,
 6.831289,1.56698,-0.271699\C,0,5.251761,1.896543,1.51441\C,0,7.527834,
 2.693112,0.142653\C,0,5.943923,3.031822,1.910819\C,0,7.08759,3.435293,
 1.232069\H,0,7.172649,0.995729,-1.132\H,0,4.364233,1.577285,2.056034\H
 ,0,8.418333,3.000297,-0.402674\H,0,5.59085,3.599137,2.770027\H,0,7.631
 979,4.321768,1.549941\C,0,5.687017,-1.154516,-0.414141\C,0,6.831068,-1
 .567191,0.272109\C,0,5.251977,-1.896199,-1.514492\C,0,7.527566,-2.6933
 48,-0.142281\C,0,5.944079,-3.031486,-1.910953\C,0,7.087509,-3.435246,-
 1.231958\H,0,7.172277,-0.996155,1.132614\H,0,4.364636,-1.576682,-2.056
 275\H,0,8.417864,-3.000787,0.403227\H,0,5.591165,-3.598572,-2.770374\H
 ,0,7.631874,-4.32173,-1.549857\\Version=EM64L-G16RevA.03\State=2-A\HF=
 -1496.978579\S2=0.773147\S2-1=0.\S2A=0.75031\RMSD=8.379e-07\Dipole=0.0
 002379,0.0000988,-0.0000496\Quadrupole=73.0380363,-23.9917591,-49.0462
 772,-0.0046204,-0.0004084,0.002587\PG=C01 [X(C36H28N2)]\\@


 A MAN IS NEVER SO BRILLIANT AS WHEN HE TAKES THE WORDS RIGHT OUT
 OF YOUR MOUTH. -- ARNOT SHEPPARD, JR.
 Job cpu time:       0 days  4 hours  3 minutes 45.9 seconds.
 Elapsed time:       0 days  0 hours 30 minutes 50.4 seconds.
 File lengths (MBytes):  RWF=    428 Int=      0 D2E=      0 Chk=     60 Scr=      8
 Normal termination of Gaussian 16 at Mon Jan 18 02:06:12 2021.
