 Entering Gaussian System, Link 0=g16
 Input=mol_bp_pa_whol_tune_c2.gjf
 Output=mol_bp_pa_whol_tune_c2.log
 Initial command:
 /opt/ohpc/pub/libs/gaussian/g16-A.03/sandybridge/g16/l1.exe "/mnt/gpfs2_4m/scratch/rdu230/ondemand/projects/init_structures/wtuning/mol_bp_pa_whol/tuning_mol_bp_pa_whol_ocycle0/Gau-84548.inp" -scrdir="/mnt/gpfs2_4m/scratch/rdu230/ondemand/projects/init_structures/wtuning/mol_bp_pa_whol/tuning_mol_bp_pa_whol_ocycle0/"
 Entering Link 1 = /opt/ohpc/pub/libs/gaussian/g16-A.03/sandybridge/g16/l1.exe PID=     84549.
  
 Copyright (c) 1988,1990,1992,1993,1995,1998,2003,2009,2016,
            Gaussian, Inc.  All Rights Reserved.
  
 This is part of the Gaussian(R) 16 program.  It is based on
 the Gaussian(R) 09 system (copyright 2009, Gaussian, Inc.),
 the Gaussian(R) 03 system (copyright 2003, Gaussian, Inc.),
 the Gaussian(R) 98 system (copyright 1998, Gaussian, Inc.),
 the Gaussian(R) 94 system (copyright 1995, Gaussian, Inc.),
 the Gaussian 92(TM) system (copyright 1992, Gaussian, Inc.),
 the Gaussian 90(TM) system (copyright 1990, Gaussian, Inc.),
 the Gaussian 88(TM) system (copyright 1988, Gaussian, Inc.),
 the Gaussian 86(TM) system (copyright 1986, Carnegie Mellon
 University), and the Gaussian 82(TM) system (copyright 1983,
 Carnegie Mellon University). Gaussian is a federally registered
 trademark of Gaussian, Inc.
  
 This software contains proprietary and confidential information,
 including trade secrets, belonging to Gaussian, Inc.
  
 This software is provided under written license and may be
 used, copied, transmitted, or stored only in accord with that
 written license.
  
 The following legend is applicable only to US Government
 contracts under FAR:
  
                    RESTRICTED RIGHTS LEGEND
  
 Use, reproduction and disclosure by the US Government is
 subject to restrictions as set forth in subparagraphs (a)
 and (c) of the Commercial Computer Software - Restricted
 Rights clause in FAR 52.227-19.
  
 Gaussian, Inc.
 340 Quinnipiac St., Bldg. 40, Wallingford CT 06492
  
  
 ---------------------------------------------------------------
 Warning -- This program may not be used in any manner that
 competes with the business of Gaussian, Inc. or will provide
 assistance to any competitor of Gaussian, Inc.  The licensee
 of this program is prohibited from giving any competitor of
 Gaussian, Inc. access to this program.  By using this program,
 the user acknowledges that Gaussian, Inc. is engaged in the
 business of creating and licensing software in the field of
 computational chemistry and represents and warrants to the
 licensee that it is not a competitor of Gaussian, Inc. and that
 it will not use this program in any manner prohibited above.
 ---------------------------------------------------------------
  

 Cite this work as:
 Gaussian 16, Revision A.03,
 M. J. Frisch, G. W. Trucks, H. B. Schlegel, G. E. Scuseria, 
 M. A. Robb, J. R. Cheeseman, G. Scalmani, V. Barone, 
 G. A. Petersson, H. Nakatsuji, X. Li, M. Caricato, A. V. Marenich, 
 J. Bloino, B. G. Janesko, R. Gomperts, B. Mennucci, H. P. Hratchian, 
 J. V. Ortiz, A. F. Izmaylov, J. L. Sonnenberg, D. Williams-Young, 
 F. Ding, F. Lipparini, F. Egidi, J. Goings, B. Peng, A. Petrone, 
 T. Henderson, D. Ranasinghe, V. G. Zakrzewski, J. Gao, N. Rega, 
 G. Zheng, W. Liang, M. Hada, M. Ehara, K. Toyota, R. Fukuda, 
 J. Hasegawa, M. Ishida, T. Nakajima, Y. Honda, O. Kitao, H. Nakai, 
 T. Vreven, K. Throssell, J. A. Montgomery, Jr., J. E. Peralta, 
 F. Ogliaro, M. J. Bearpark, J. J. Heyd, E. N. Brothers, K. N. Kudin, 
 V. N. Staroverov, T. A. Keith, R. Kobayashi, J. Normand, 
 K. Raghavachari, A. P. Rendell, J. C. Burant, S. S. Iyengar, 
 J. Tomasi, M. Cossi, J. M. Millam, M. Klene, C. Adamo, R. Cammi, 
 J. W. Ochterski, R. L. Martin, K. Morokuma, O. Farkas, 
 J. B. Foresman, and D. J. Fox, Gaussian, Inc., Wallingford CT, 2016.
 
 ******************************************
 Gaussian 16:  EM64L-G16RevA.03 25-Dec-2016
                17-Jan-2021 
 ******************************************
 %mem=30GB
 %nproc=8
 Will use up to    8 processors via shared memory.
 ----------------------------------------------------------------------
 #P LC-wHPBE/TZVP iop(3/107=0156200000, 3/108=0156200000) scf=(conver=6
 ,fermi,ndamp=35,noincfock,novaracc,vshift=500,xqc)
 ----------------------------------------------------------------------
 1/38=1,172=1/1;
 2/12=2,17=6,18=5,40=1/2;
 3/5=19,7=101,11=2,25=1,30=1,74=-71,107=156200000,108=156200000/1,2,3;
 4//1;
 5/5=100002,6=6,8=3,10=500,13=1,18=-1,22=13,38=1,93=35/2,8;
 6/7=2,8=2,9=2,10=2,28=1/1;
 99/5=1,9=1/99;
 Leave Link    1 at Sun Jan 17 23:22:54 2021, MaxMem=  4026531840 cpu:               0.8 elap:               0.2
 (Enter /opt/ohpc/pub/libs/gaussian/g16-A.03/sandybridge/g16/l101.exe)
 ----------
 H28 C36 N2
 ----------
 Symbolic Z-matrix:
 Charge =  1 Multiplicity = 2
 C                     2.85     -1.12586   0.41564 
 C                     3.56314  -0.00003  -0.00002 
 C                     1.46449  -1.12367   0.40553 
 C                     2.85003   1.12575  -0.41581 
 C                     0.74129  -0.00005  -0.0002 
 C                     1.4645    1.12355  -0.40588 
 H                     0.9316   -2.00584   0.7562 
 H                     3.39105   2.00625  -0.75499 
 H                     0.93167   2.00573  -0.75663 
 C                    -0.74144  -0.00007  -0.00022 
 C                    -1.46464   1.12316   0.40656 
 C                    -1.46464  -1.1233   -0.40698 
 C                    -2.85015   1.12534   0.41661 
 C                    -2.85016  -1.12549  -0.41694 
 C                    -3.56326  -0.0001   -0.00012 
 H                    -0.93175   2.00502   0.75804 
 H                    -0.93178  -2.00514  -0.75855 
 H                    -3.39119   2.00553   0.75658 
 H                    -3.39121  -2.00567  -0.75691 
 H                     3.39101  -2.00636   0.75485 
 N                    -4.97843  -0.0001   -0.00007 
 C                    -5.6871   -1.15458   0.41429 
 C                    -6.83188  -1.56667  -0.27115 
 C                    -5.25132  -1.89693   1.51391 
 C                    -7.52831  -2.69283   0.14332 
 C                    -5.94339  -3.03222   1.91044 
 C                    -7.08752  -3.43537   1.23228 
 H                    -7.17368  -0.99518  -1.13112 
 H                    -4.36344  -1.57795   2.0551 
 H                    -8.41917  -2.99976  -0.40155 
 H                    -5.58986  -3.5998    2.76929 
 H                    -7.63185  -4.32185   1.55023 
 C                    -5.68703   1.15453  -0.41429 
 C                    -6.83119   1.56723   0.2718 
 C                    -5.25171   1.89638  -1.51442 
 C                    -7.52749   2.69352  -0.14253 
 C                    -5.94362   3.03183  -1.91081 
 C                    -7.08714   3.43558  -1.23199 
 H                    -7.17262   0.99608   1.13215 
 H                    -4.36429   1.57691  -2.05609 
 H                    -8.41788   3.00095   0.40285 
 H                    -5.59045   3.59903  -2.77005 
 H                    -7.63135   4.32218  -1.54982 
 N                     4.97827   0.00002   0.0001 
 C                     5.68699   1.15456   0.41434 
 C                     6.83129   1.56698  -0.2717 
 C                     5.25176   1.89654   1.51441 
 C                     7.52783   2.69311   0.14265 
 C                     5.94392   3.03182   1.91082 
 C                     7.08759   3.43529   1.23207 
 H                     7.17265   0.99573  -1.132 
 H                     4.36423   1.57729   2.05603 
 H                     8.41833   3.0003   -0.40267 
 H                     5.59085   3.59914   2.77003 
 H                     7.63198   4.32177   1.54994 
 C                     5.68702  -1.15452  -0.41414 
 C                     6.83107  -1.56719   0.27211 
 C                     5.25198  -1.8962   -1.51449 
 C                     7.52757  -2.69335  -0.14228 
 C                     5.94408  -3.03149  -1.91095 
 C                     7.08751  -3.43525  -1.23196 
 H                     7.17228  -0.99616   1.13261 
 H                     4.36464  -1.57668  -2.05627 
 H                     8.41786  -3.00079   0.40323 
 H                     5.59117  -3.59857  -2.77037 
 H                     7.63187  -4.32173  -1.54986 
 
 ITRead=  0  0  0  0  0  0  0  0  0  0  0  0  0  0  0  0  0  0  0  0
 ITRead=  0  0  0  0  0  0  0  0  0  0  0  0  0  0  0  0  0  0  0  0
 ITRead=  0  0  0  0  0  0  0  0  0  0  0  0  0  0  0  0  0  0  0  0
 ITRead=  0  0  0  0  0  0
 MicOpt= -1 -1 -1 -1 -1 -1 -1 -1 -1 -1 -1 -1 -1 -1 -1 -1 -1 -1 -1 -1
 MicOpt= -1 -1 -1 -1 -1 -1 -1 -1 -1 -1 -1 -1 -1 -1 -1 -1 -1 -1 -1 -1
 MicOpt= -1 -1 -1 -1 -1 -1 -1 -1 -1 -1 -1 -1 -1 -1 -1 -1 -1 -1 -1 -1
 MicOpt= -1 -1 -1 -1 -1 -1
 NAtoms=     66 NQM=       66 NQMF=       0 NMMI=      0 NMMIF=      0
                NMic=       0 NMicF=      0.
                    Isotopes and Nuclear Properties:
 (Nuclear quadrupole moments (NQMom) in fm**2, nuclear magnetic moments (NMagM)
  in nuclear magnetons)

  Atom         1           2           3           4           5           6           7           8           9          10
 IAtWgt=          12          12          12          12          12          12           1           1           1          12
 AtmWgt=  12.0000000  12.0000000  12.0000000  12.0000000  12.0000000  12.0000000   1.0078250   1.0078250   1.0078250  12.0000000
 NucSpn=           0           0           0           0           0           0           1           1           1           0
 AtZEff=  -0.0000000  -0.0000000  -0.0000000  -0.0000000  -0.0000000  -0.0000000  -0.0000000  -0.0000000  -0.0000000  -0.0000000
 NQMom=    0.0000000   0.0000000   0.0000000   0.0000000   0.0000000   0.0000000   0.0000000   0.0000000   0.0000000   0.0000000
 NMagM=    0.0000000   0.0000000   0.0000000   0.0000000   0.0000000   0.0000000   2.7928460   2.7928460   2.7928460   0.0000000
 AtZNuc=   6.0000000   6.0000000   6.0000000   6.0000000   6.0000000   6.0000000   1.0000000   1.0000000   1.0000000   6.0000000

  Atom        11          12          13          14          15          16          17          18          19          20
 IAtWgt=          12          12          12          12          12           1           1           1           1           1
 AtmWgt=  12.0000000  12.0000000  12.0000000  12.0000000  12.0000000   1.0078250   1.0078250   1.0078250   1.0078250   1.0078250
 NucSpn=           0           0           0           0           0           1           1           1           1           1
 AtZEff=  -0.0000000  -0.0000000  -0.0000000  -0.0000000  -0.0000000  -0.0000000  -0.0000000  -0.0000000  -0.0000000  -0.0000000
 NQMom=    0.0000000   0.0000000   0.0000000   0.0000000   0.0000000   0.0000000   0.0000000   0.0000000   0.0000000   0.0000000
 NMagM=    0.0000000   0.0000000   0.0000000   0.0000000   0.0000000   2.7928460   2.7928460   2.7928460   2.7928460   2.7928460
 AtZNuc=   6.0000000   6.0000000   6.0000000   6.0000000   6.0000000   1.0000000   1.0000000   1.0000000   1.0000000   1.0000000

  Atom        21          22          23          24          25          26          27          28          29          30
 IAtWgt=          14          12          12          12          12          12          12           1           1           1
 AtmWgt=  14.0030740  12.0000000  12.0000000  12.0000000  12.0000000  12.0000000  12.0000000   1.0078250   1.0078250   1.0078250
 NucSpn=           2           0           0           0           0           0           0           1           1           1
 AtZEff=  -0.0000000  -0.0000000  -0.0000000  -0.0000000  -0.0000000  -0.0000000  -0.0000000  -0.0000000  -0.0000000  -0.0000000
 NQMom=    2.0440000   0.0000000   0.0000000   0.0000000   0.0000000   0.0000000   0.0000000   0.0000000   0.0000000   0.0000000
 NMagM=    0.4037610   0.0000000   0.0000000   0.0000000   0.0000000   0.0000000   0.0000000   2.7928460   2.7928460   2.7928460
 AtZNuc=   7.0000000   6.0000000   6.0000000   6.0000000   6.0000000   6.0000000   6.0000000   1.0000000   1.0000000   1.0000000

  Atom        31          32          33          34          35          36          37          38          39          40
 IAtWgt=           1           1          12          12          12          12          12          12           1           1
 AtmWgt=   1.0078250   1.0078250  12.0000000  12.0000000  12.0000000  12.0000000  12.0000000  12.0000000   1.0078250   1.0078250
 NucSpn=           1           1           0           0           0           0           0           0           1           1
 AtZEff=  -0.0000000  -0.0000000  -0.0000000  -0.0000000  -0.0000000  -0.0000000  -0.0000000  -0.0000000  -0.0000000  -0.0000000
 NQMom=    0.0000000   0.0000000   0.0000000   0.0000000   0.0000000   0.0000000   0.0000000   0.0000000   0.0000000   0.0000000
 NMagM=    2.7928460   2.7928460   0.0000000   0.0000000   0.0000000   0.0000000   0.0000000   0.0000000   2.7928460   2.7928460
 AtZNuc=   1.0000000   1.0000000   6.0000000   6.0000000   6.0000000   6.0000000   6.0000000   6.0000000   1.0000000   1.0000000

  Atom        41          42          43          44          45          46          47          48          49          50
 IAtWgt=           1           1           1          14          12          12          12          12          12          12
 AtmWgt=   1.0078250   1.0078250   1.0078250  14.0030740  12.0000000  12.0000000  12.0000000  12.0000000  12.0000000  12.0000000
 NucSpn=           1           1           1           2           0           0           0           0           0           0
 AtZEff=  -0.0000000  -0.0000000  -0.0000000  -0.0000000  -0.0000000  -0.0000000  -0.0000000  -0.0000000  -0.0000000  -0.0000000
 NQMom=    0.0000000   0.0000000   0.0000000   2.0440000   0.0000000   0.0000000   0.0000000   0.0000000   0.0000000   0.0000000
 NMagM=    2.7928460   2.7928460   2.7928460   0.4037610   0.0000000   0.0000000   0.0000000   0.0000000   0.0000000   0.0000000
 AtZNuc=   1.0000000   1.0000000   1.0000000   7.0000000   6.0000000   6.0000000   6.0000000   6.0000000   6.0000000   6.0000000

  Atom        51          52          53          54          55          56          57          58          59          60
 IAtWgt=           1           1           1           1           1          12          12          12          12          12
 AtmWgt=   1.0078250   1.0078250   1.0078250   1.0078250   1.0078250  12.0000000  12.0000000  12.0000000  12.0000000  12.0000000
 NucSpn=           1           1           1           1           1           0           0           0           0           0
 AtZEff=  -0.0000000  -0.0000000  -0.0000000  -0.0000000  -0.0000000  -0.0000000  -0.0000000  -0.0000000  -0.0000000  -0.0000000
 NQMom=    0.0000000   0.0000000   0.0000000   0.0000000   0.0000000   0.0000000   0.0000000   0.0000000   0.0000000   0.0000000
 NMagM=    2.7928460   2.7928460   2.7928460   2.7928460   2.7928460   0.0000000   0.0000000   0.0000000   0.0000000   0.0000000
 AtZNuc=   1.0000000   1.0000000   1.0000000   1.0000000   1.0000000   6.0000000   6.0000000   6.0000000   6.0000000   6.0000000

  Atom        61          62          63          64          65          66
 IAtWgt=          12           1           1           1           1           1
 AtmWgt=  12.0000000   1.0078250   1.0078250   1.0078250   1.0078250   1.0078250
 NucSpn=           0           1           1           1           1           1
 AtZEff=  -0.0000000  -0.0000000  -0.0000000  -0.0000000  -0.0000000  -0.0000000
 NQMom=    0.0000000   0.0000000   0.0000000   0.0000000   0.0000000   0.0000000
 NMagM=    0.0000000   2.7928460   2.7928460   2.7928460   2.7928460   2.7928460
 AtZNuc=   6.0000000   1.0000000   1.0000000   1.0000000   1.0000000   1.0000000
 Leave Link  101 at Sun Jan 17 23:22:54 2021, MaxMem=  4026531840 cpu:               0.7 elap:               0.1
 (Enter /opt/ohpc/pub/libs/gaussian/g16-A.03/sandybridge/g16/l202.exe)
 Stoichiometry    C36H28N2(1+,2)
 Framework group  C1[X(C36H28N2)]
 Deg. of freedom   192
 Full point group                 C1      NOp   1
 Largest Abelian subgroup         C1      NOp   1
 Largest concise Abelian subgroup C1      NOp   1
                         Standard orientation:                         
 ---------------------------------------------------------------------
 Center     Atomic      Atomic             Coordinates (Angstroms)
 Number     Number       Type             X           Y           Z
 ---------------------------------------------------------------------
      1          6           0       -2.849999   -1.125861   -0.415638
      2          6           0       -3.563139   -0.000026    0.000017
      3          6           0       -1.464492   -1.123667   -0.405534
      4          6           0       -2.850033    1.125752    0.415809
      5          6           0       -0.741288   -0.000047    0.000195
      6          6           0       -1.464504    1.123547    0.405879
      7          1           0       -0.931596   -2.005844   -0.756198
      8          1           0       -3.391048    2.006254    0.754990
      9          1           0       -0.931669    2.005728    0.756629
     10          6           0        0.741437   -0.000073    0.000217
     11          6           0        1.464635    1.123165   -0.406556
     12          6           0        1.464638   -1.123302    0.406976
     13          6           0        2.850149    1.125343   -0.416610
     14          6           0        2.850163   -1.125491    0.416935
     15          6           0        3.563257   -0.000095    0.000116
     16          1           0        0.931751    2.005025   -0.758038
     17          1           0        0.931783   -2.005140    0.758553
     18          1           0        3.391193    2.005527   -0.756576
     19          1           0        3.391211   -2.005669    0.756913
     20          1           0       -3.391005   -2.006357   -0.754845
     21          7           0        4.978430   -0.000102    0.000065
     22          6           0        5.687099   -1.154578   -0.414287
     23          6           0        6.831881   -1.566674    0.271150
     24          6           0        5.251323   -1.896933   -1.513908
     25          6           0        7.528311   -2.692826   -0.143324
     26          6           0        5.943392   -3.032223   -1.910440
     27          6           0        7.087522   -3.435368   -1.232277
     28          1           0        7.173684   -0.995181    1.131117
     29          1           0        4.363437   -1.577947   -2.055099
     30          1           0        8.419174   -2.999763    0.401550
     31          1           0        5.589860   -3.599797   -2.769285
     32          1           0        7.631852   -4.321852   -1.550225
     33          6           0        5.687025    1.154532    0.414292
     34          6           0        6.831191    1.567225   -0.271802
     35          6           0        5.251707    1.896381    1.514415
     36          6           0        7.527485    2.693516    0.142525
     37          6           0        5.943620    3.031828    1.910808
     38          6           0        7.087137    3.435581    1.231989
     39          1           0        7.172616    0.996083   -1.132151
     40          1           0        4.364291    1.576910    2.056093
     41          1           0        8.417875    3.000945   -0.402845
     42          1           0        5.590451    3.599029    2.770050
     43          1           0        7.631350    4.322181    1.549815
     44          7           0       -4.978266    0.000020   -0.000103
     45          6           0       -5.686990    1.154558   -0.414335
     46          6           0       -6.831289    1.566980    0.271699
     47          6           0       -5.251761    1.896543   -1.514410
     48          6           0       -7.527834    2.693112   -0.142653
     49          6           0       -5.943923    3.031822   -1.910819
     50          6           0       -7.087590    3.435293   -1.232069
     51          1           0       -7.172649    0.995729    1.132000
     52          1           0       -4.364233    1.577285   -2.056034
     53          1           0       -8.418333    3.000297    0.402674
     54          1           0       -5.590850    3.599137   -2.770027
     55          1           0       -7.631979    4.321768   -1.549941
     56          6           0       -5.687017   -1.154516    0.414141
     57          6           0       -6.831068   -1.567191   -0.272109
     58          6           0       -5.251977   -1.896199    1.514492
     59          6           0       -7.527566   -2.693348    0.142281
     60          6           0       -5.944079   -3.031486    1.910953
     61          6           0       -7.087509   -3.435246    1.231958
     62          1           0       -7.172277   -0.996155   -1.132614
     63          1           0       -4.364636   -1.576682    2.056275
     64          1           0       -8.417864   -3.000787   -0.403227
     65          1           0       -5.591165   -3.598572    2.770374
     66          1           0       -7.631874   -4.321730    1.549857
 ---------------------------------------------------------------------
 Rotational constants (GHZ):           0.2023709           0.0339547           0.0306836
 Leave Link  202 at Sun Jan 17 23:22:54 2021, MaxMem=  4026531840 cpu:               0.3 elap:               0.1
 (Enter /opt/ohpc/pub/libs/gaussian/g16-A.03/sandybridge/g16/l301.exe)
 Standard basis: TZVP (5D, 7F)
 Ernie: Thresh=  0.10000D-02 Tol=  0.10000D-05 Strict=F.
 There are   928 symmetry adapted cartesian basis functions of A   symmetry.
 There are   890 symmetry adapted basis functions of A   symmetry.
   890 basis functions,  1554 primitive gaussians,   928 cartesian basis functions
   129 alpha electrons      128 beta electrons
       nuclear repulsion energy      3528.7655398436 Hartrees.
 IExCor=33909 DFT=T Ex+Corr=LC-wHPBE ExCW=0 ScaHFX=  1.000000
 ScaDFX=  1.000000  1.000000  1.000000  1.000000 ScalE2=  1.000000  1.000000
 IRadAn=      5 IRanWt=     -1 IRanGd=            0 ICorTp=0 IEmpDi=  4
 HFx  wShort=  0.000000 wLong=  0.156200 cFull=  0.000000 cShort=  0.000000 cLong=  1.000000
 DFx  wShort=  0.000000 wLong=  0.156200 cFull=  0.000000 cShort=  1.000000 cLong=  0.000000
 NAtoms=   66 NActive=   66 NUniq=   66 SFac= 1.00D+00 NAtFMM=   60 NAOKFM=T Big=T
 Integral buffers will be    131072 words long.
 Raffenetti 2 integral format.
 Two-electron integral symmetry is turned on.
 Leave Link  301 at Sun Jan 17 23:22:54 2021, MaxMem=  4026531840 cpu:               0.4 elap:               0.1
 (Enter /opt/ohpc/pub/libs/gaussian/g16-A.03/sandybridge/g16/l302.exe)
 NPDir=0 NMtPBC=     1 NCelOv=     1 NCel=       1 NClECP=     1 NCelD=      1
         NCelK=      1 NCelE2=     1 NClLst=     1 CellRange=     0.0.
 One-electron integrals computed using PRISM.
 One-electron integral symmetry used in STVInt
 NBasis=   890 RedAO= T EigKep=  6.71D-06  NBF=   890
 NBsUse=   890 1.00D-06 EigRej= -1.00D+00 NBFU=   890
 Precomputing XC quadrature grid using
 IXCGrd= 4 IRadAn=           5 IRanWt=          -1 IRanGd=           0 AccXCQ= 0.00D+00.
 Generated NRdTot=       0 NPtTot=           0 NUsed=           0 NTot=          32
 NSgBfM=   852   844   846   852   852 MxSgAt=    66 MxSgA2=    66.
 Leave Link  302 at Sun Jan 17 23:22:56 2021, MaxMem=  4026531840 cpu:              16.9 elap:               2.2
 (Enter /opt/ohpc/pub/libs/gaussian/g16-A.03/sandybridge/g16/l303.exe)
 DipDrv:  MaxL=1.
 Leave Link  303 at Sun Jan 17 23:22:57 2021, MaxMem=  4026531840 cpu:               1.1 elap:               0.2
 (Enter /opt/ohpc/pub/libs/gaussian/g16-A.03/sandybridge/g16/l401.exe)
 ExpMin= 9.52D-02 ExpMax= 1.97D+04 ExpMxC= 6.73D+02 IAcc=3 IRadAn=         5 AccDes= 0.00D+00
 Harris functional with IExCor=33909 and IRadAn=       5 diagonalized for initial guess.
 HarFok:  IExCor=33909 AccDes= 0.00D+00 IRadAn=         5 IDoV= 1 UseB2=F ITyADJ=14
 ICtDFT=  3500011 ScaDFX=  1.000000  1.000000  1.000000  1.000000
 FoFCou: FMM=F IPFlag=           0 FMFlag=      100000 FMFlg1=        2001
         NFxFlg=           0 DoJE=T BraDBF=F KetDBF=T FulRan=T
         wScrn=  0.000000 ICntrl=       500 IOpCl=  0 I1Cent=   200000004 NGrid=           0
         NMat0=    1 NMatS0=      1 NMatT0=    0 NMatD0=    1 NMtDS0=    0 NMtDT0=    0
 Petite list used in FoFCou.
 Harris En= -1475.41214237173    
 JPrj=0 DoOrth=F DoCkMO=F.
 Initial guess <Sx>= 0.0000 <Sy>= 0.0000 <Sz>= 0.5000 <S**2>= 0.7500 S= 0.5000
 Leave Link  401 at Sun Jan 17 23:23:07 2021, MaxMem=  4026531840 cpu:              80.5 elap:              10.2
 (Enter /opt/ohpc/pub/libs/gaussian/g16-A.03/sandybridge/g16/l502.exe)
 Integral symmetry usage will be decided dynamically.
 UHF open shell SCF:
 Using DIIS extrapolation, IDIIS=    10.
 NGot=  4026531840 LenX=  4024793050 LenY=  4023930938
 Requested convergence on RMS density matrix=1.00D-06 within  32 cycles.
 Requested convergence on MAX density matrix=1.00D-04.
 Requested convergence on             energy=1.00D-04.
 Virtual orbitals will be shifted by   0.500 hartree.
 No special actions if energy rises.
 Dynamic level shift is on during FON iterations.

 Cycle   1  Pass 1  IDiag  1:
 FoFJK:  IHMeth= 1 ICntrl=       0 DoSepK=T KAlg= 0 I1Cent=           0 FoldK=F
 IRaf=         1 NMat=       1 IRICut=       1 DoRegI=T DoRafI=F ISym2E= 0 IDoP0=0 IntGTp=1.
 FoFCou: FMM=T IPFlag=           0 FMFlag=      100000 FMFlg1=        2001
         NFxFlg=           0 DoJE=T BraDBF=F KetDBF=F FulRan=T
         wScrn=  0.000000 ICntrl=       500 IOpCl=  0 I1Cent=           0 NGrid=           0
         NMat0=    1 NMatS0=      1 NMatT0=    0 NMatD0=    1 NMtDS0=    0 NMtDT0=    0
 Symmetry not used in FoFCou.
 FMM levels:  10  Number of levels for PrismC:   9
 E= -1496.27936966929    
 DIIS: error= 3.17D-02 at cycle   1 NSaved=   1.
 NSaved= 1 IEnMin= 1 EnMin= -1496.27936966929     IErMin= 1 ErrMin= 3.17D-02
 ErrMax= 3.17D-02  0.00D+00 EMaxC= 1.00D+00 BMatC= 2.55D+00 BMatP= 2.55D+00
 IDIUse=1 WtCom= 1.00D+00 WtEn= 0.00D+00
 Coeff-Com:  0.100D+01
 Coeff:      0.100D+01
 Gap=     0.271 Goal=   None    Shift=    0.500
 T= 1529. Gap= 0.709 NK=0 IS=  130 IE=  890 IFin=  129
          NO(<0.9)=   0  NV(>0.1)=   0    129.00e < EF      0.00e >EF  Err=0.0D+00
 Gap=     0.078 Goal=   None    Shift=    0.500
 T= 1529. Gap= 0.529 NK=0 IS=  129 IE=  890 IFin=  128
          NO(<0.9)=   0  NV(>0.1)=   0    128.00e < EF      0.00e >EF  Err=0.0D+00
 GapD=    0.078 DampG=0.500 DampE=0.500 DampFc=0.2500 IDamp=-1.
 Damping current iteration by 2.50D-01
 RMSDP=2.03D-03 MaxDP=7.07D-02              OVMax= 9.99D-02

 Cycle   2  Pass 1  IDiag  1:
 E= -1496.51440395099     Delta-E=       -0.235034281700 Rises=F Damp=T
 DIIS: error= 2.30D-02 at cycle   2 NSaved=   2.
 NSaved= 2 IEnMin= 2 EnMin= -1496.51440395099     IErMin= 2 ErrMin= 2.30D-02
 ErrMax= 2.30D-02  0.00D+00 EMaxC= 1.00D+00 BMatC= 1.19D+00 BMatP= 2.55D+00
 IDIUse=1 WtCom= 1.00D+00 WtEn= 0.00D+00
 Coeff-Com: -0.191D+01 0.291D+01
 Coeff:     -0.191D+01 0.291D+01
 Gap=     0.259 Goal=   None    Shift=    0.500
 T= 1472. Gap= 0.722 NK=0 IS=  130 IE=  890 IFin=  129
          NO(<0.9)=   0  NV(>0.1)=   0    129.00e < EF      0.00e >EF  Err=0.0D+00
 Gap=     0.116 Goal=   None    Shift=    0.500
 T= 1472. Gap= 0.572 NK=0 IS=  129 IE=  890 IFin=  128
          NO(<0.9)=   0  NV(>0.1)=   0    128.00e < EF      0.00e >EF  Err=0.0D+00
 GapD=    0.116 DampG=1.000 DampE=0.500 DampFc=0.5000 IDamp=-1.
 Damping current iteration by 5.00D-01
 RMSDP=1.47D-03 MaxDP=7.04D-02 DE=-2.35D-01 OVMax= 3.30D-02

 Cycle   3  Pass 1  IDiag  1:
 E= -1496.75679580192     Delta-E=       -0.242391850933 Rises=F Damp=T
 DIIS: error= 1.06D-02 at cycle   3 NSaved=   3.
 NSaved= 3 IEnMin= 3 EnMin= -1496.75679580192     IErMin= 3 ErrMin= 1.06D-02
 ErrMax= 1.06D-02  0.00D+00 EMaxC= 1.00D+00 BMatC= 2.28D-01 BMatP= 1.19D+00
 IDIUse=1 WtCom= 1.00D+00 WtEn= 0.00D+00
 Coeff-Com:  0.328D-01-0.813D+00 0.178D+01
 Coeff:      0.328D-01-0.813D+00 0.178D+01
 Gap=     0.238 Goal=   None    Shift=    0.500
 T= 1304. Gap= 0.735 NK=4 IS=  130 IE=  145 IFin=  129
          NO(<0.9)=   0  NV(>0.1)=   0    129.00e < EF      0.00e >EF  Err=0.0D+00
 Gap=     0.078 Goal=   None    Shift=    0.500
 T= 1304. Gap= 0.575 NK=4 IS=  129 IE=  143 IFin=  128
          NO(<0.9)=   0  NV(>0.1)=   0    128.00e < EF      0.00e >EF  Err=0.0D+00
 GapD=    0.078 DampG=0.500 DampE=0.500 DampFc=0.2500 IDamp=-1.
 Damping current iteration by 2.50D-01
 RMSDP=7.44D-04 MaxDP=4.37D-02 DE=-2.42D-01 OVMax= 1.03D-02

 Cycle   4  Pass 1  IDiag  1:
 E= -1496.80400345984     Delta-E=       -0.047207657923 Rises=F Damp=T
 DIIS: error= 7.84D-03 at cycle   4 NSaved=   4.
 NSaved= 4 IEnMin= 4 EnMin= -1496.80400345984     IErMin= 4 ErrMin= 7.84D-03
 ErrMax= 7.84D-03  0.00D+00 EMaxC= 1.00D+00 BMatC= 1.20D-01 BMatP= 2.28D-01
 IDIUse=1 WtCom= 1.00D+00 WtEn= 0.00D+00
 Coeff-Com:  0.199D+00-0.321D+00-0.267D+01 0.379D+01
 Coeff:      0.199D+00-0.321D+00-0.267D+01 0.379D+01
 Gap=     0.234 Goal=   None    Shift=    0.500
 T= 1031. Gap= 0.734 NK=4 IS=  130 IE=  146 IFin=  129
          NO(<0.9)=   0  NV(>0.1)=   0    129.00e < EF      0.00e >EF  Err=0.0D+00
 Gap=     0.076 Goal=   None    Shift=    0.500
 T= 1031. Gap= 0.576 NK=4 IS=  129 IE=  143 IFin=  128
          NO(<0.9)=   0  NV(>0.1)=   0    128.00e < EF      0.00e >EF  Err=0.0D+00
 GapD=    0.076 DampG=0.500 DampE=1.000 DampFc=0.5000 IDamp=-1.
 Damping current iteration by 5.00D-01
 RMSDP=5.52D-04 MaxDP=3.64D-02 DE=-4.72D-02 OVMax= 8.40D-03

 Cycle   5  Pass 1  IDiag  1:
 E= -1496.86748743865     Delta-E=       -0.063483978804 Rises=F Damp=T
 DIIS: error= 3.87D-03 at cycle   5 NSaved=   5.
 NSaved= 5 IEnMin= 5 EnMin= -1496.86748743865     IErMin= 5 ErrMin= 3.87D-03
 ErrMax= 3.87D-03  0.00D+00 EMaxC= 1.00D+00 BMatC= 2.79D-02 BMatP= 1.20D-01
 IDIUse=1 WtCom= 1.00D+00 WtEn= 0.00D+00
 Coeff-Com:  0.626D-01-0.498D-01 0.279D+00-0.163D+01 0.234D+01
 Coeff:      0.626D-01-0.498D-01 0.279D+00-0.163D+01 0.234D+01
 Gap=     0.235 Goal=   None    Shift=    0.500
 T=  659. Gap= 0.735 NK=4 IS=  130 IE=  146 IFin=  129
          NO(<0.9)=   0  NV(>0.1)=   0    129.00e < EF      0.00e >EF  Err=0.0D+00
 Gap=     0.077 Goal=   None    Shift=    0.500
 T=  659. Gap= 0.577 NK=4 IS=  129 IE=  143 IFin=  128
          NO(<0.9)=   0  NV(>0.1)=   0    128.00e < EF      0.00e >EF  Err=0.0D+00
 GapD=    0.077 DampG=0.500 DampE=1.000 DampFc=0.5000 IDamp=-1.
 Damping current iteration by 5.00D-01
 RMSDP=2.90D-04 MaxDP=2.00D-02 DE=-6.35D-02 OVMax= 6.93D-03

 Cycle   6  Pass 1  IDiag  1:
 E= -1496.89667115010     Delta-E=       -0.029183711453 Rises=F Damp=T
 DIIS: error= 1.93D-03 at cycle   6 NSaved=   6.
 NSaved= 6 IEnMin= 6 EnMin= -1496.89667115010     IErMin= 6 ErrMin= 1.93D-03
 ErrMax= 1.93D-03  0.00D+00 EMaxC= 1.00D+00 BMatC= 6.87D-03 BMatP= 2.79D-02
 IDIUse=1 WtCom= 1.00D+00 WtEn= 0.00D+00
 Coeff-Com: -0.295D-01 0.548D-01 0.694D+00-0.953D+00-0.136D+01 0.259D+01
 Coeff:     -0.295D-01 0.548D-01 0.694D+00-0.953D+00-0.136D+01 0.259D+01
 Gap=     0.235 Goal=   None    Shift=    0.500
 T=  364. Gap= 0.735 NK=4 IS=  130 IE=  146 IFin=  129
          NO(<0.9)=   0  NV(>0.1)=   0    129.00e < EF      0.00e >EF  Err=0.0D+00
 Gap=     0.078 Goal=   None    Shift=    0.500
 T=  364. Gap= 0.578 NK=4 IS=  129 IE=  143 IFin=  128
          NO(<0.9)=   0  NV(>0.1)=   0    128.00e < EF      0.00e >EF  Err=0.0D+00
 GapD=    0.078 DampG=0.500 DampE=1.000 DampFc=0.5000 IDamp=-1.
 Damping current iteration by 5.00D-01
 RMSDP=1.70D-04 MaxDP=1.10D-02 DE=-2.92D-02 OVMax= 6.20D-03

 Cycle   7  Pass 1  IDiag  1:
 E= -1496.91080457397     Delta-E=       -0.014133423872 Rises=F Damp=T
 DIIS: error= 1.10D-03 at cycle   7 NSaved=   7.
 NSaved= 7 IEnMin= 7 EnMin= -1496.91080457397     IErMin= 7 ErrMin= 1.10D-03
 ErrMax= 1.10D-03  0.00D+00 EMaxC= 1.00D+00 BMatC= 1.78D-03 BMatP= 6.87D-03
 IDIUse=1 WtCom= 1.00D+00 WtEn= 0.00D+00
 Coeff-Com: -0.201D-01 0.212D-01-0.973D-01 0.495D+00-0.680D-01-0.324D+01
 Coeff-Com:  0.391D+01
 Coeff:     -0.201D-01 0.212D-01-0.973D-01 0.495D+00-0.680D-01-0.324D+01
 Coeff:      0.391D+01
 Gap=     0.235 Goal=   None    Shift=    0.500
 Gap=     0.078 Goal=   None    Shift=    0.500
 GapD=    0.078 DampG=0.500 DampE=1.000 DampFc=0.5000 IDamp=-1.
 Damping current iteration by 5.00D-01
 RMSDP=1.09D-04 MaxDP=6.04D-03 DE=-1.41D-02 OVMax= 5.92D-03

 Cycle   8  Pass 1  IDiag  1:
 E= -1496.91781083110     Delta-E=       -0.007006257130 Rises=F Damp=T
 DIIS: error= 9.13D-04 at cycle   8 NSaved=   8.
 NSaved= 8 IEnMin= 8 EnMin= -1496.91781083110     IErMin= 8 ErrMin= 9.13D-04
 ErrMax= 9.13D-04  0.00D+00 EMaxC= 1.00D+00 BMatC= 4.94D-04 BMatP= 1.78D-03
 IDIUse=1 WtCom= 1.00D+00 WtEn= 0.00D+00
 Coeff-Com:  0.607D-02-0.917D-02-0.328D+00 0.479D+00 0.709D+00-0.122D+01
 Coeff-Com: -0.274D+01 0.410D+01
 Coeff:      0.607D-02-0.917D-02-0.328D+00 0.479D+00 0.709D+00-0.122D+01
 Coeff:     -0.274D+01 0.410D+01
 Gap=     0.236 Goal=   None    Shift=    0.500
 Gap=     0.079 Goal=   None    Shift=    0.500
 RMSDP=7.05D-05 MaxDP=3.46D-03 DE=-7.01D-03 OVMax= 5.23D-03

 Cycle   9  Pass 1  IDiag  1:
 E= -1496.92485442670     Delta-E=       -0.007043595596 Rises=F Damp=F
 DIIS: error= 6.07D-04 at cycle   9 NSaved=   9.
 NSaved= 9 IEnMin= 9 EnMin= -1496.92485442670     IErMin= 9 ErrMin= 6.07D-04
 ErrMax= 6.07D-04  0.00D+00 EMaxC= 1.00D+00 BMatC= 2.69D-05 BMatP= 4.94D-04
 IDIUse=1 WtCom= 1.00D+00 WtEn= 0.00D+00
 Coeff-Com:  0.112D-01-0.915D-02-0.172D+00 0.216D-01 0.652D+00 0.796D+00
 Coeff-Com: -0.330D+01 0.132D+01 0.168D+01
 Coeff:      0.112D-01-0.915D-02-0.172D+00 0.216D-01 0.652D+00 0.796D+00
 Coeff:     -0.330D+01 0.132D+01 0.168D+01
 Gap=     0.236 Goal=   None    Shift=    0.500
 Gap=     0.079 Goal=   None    Shift=    0.500
 RMSDP=1.54D-05 MaxDP=1.26D-03 DE=-7.04D-03 OVMax= 4.71D-03

 Cycle  10  Pass 1  IDiag  1:
 E= -1496.92490216446     Delta-E=       -0.000047737766 Rises=F Damp=F
 DIIS: error= 4.76D-04 at cycle  10 NSaved=  10.
 NSaved=10 IEnMin=10 EnMin= -1496.92490216446     IErMin=10 ErrMin= 4.76D-04
 ErrMax= 4.76D-04  0.00D+00 EMaxC= 1.00D+00 BMatC= 1.66D-05 BMatP= 2.69D-05
 IDIUse=1 WtCom= 1.00D+00 WtEn= 0.00D+00
 Coeff-Com: -0.322D-02 0.108D-01 0.761D-01-0.248D+00 0.127D-01 0.862D+00
 Coeff-Com:  0.263D+00-0.202D+01-0.257D+00 0.230D+01
 Coeff:     -0.322D-02 0.108D-01 0.761D-01-0.248D+00 0.127D-01 0.862D+00
 Coeff:      0.263D+00-0.202D+01-0.257D+00 0.230D+01
 Gap=     0.236 Goal=   None    Shift=    0.500
 Gap=     0.080 Goal=   None    Shift=    0.500
 RMSDP=1.19D-05 MaxDP=8.71D-04 DE=-4.77D-05 OVMax= 4.07D-03

 Cycle  11  Pass 1  IDiag  1:
 E= -1496.92493367535     Delta-E=       -0.000031510886 Rises=F Damp=F
 DIIS: error= 3.68D-04 at cycle  11 NSaved=  11.
 NSaved=11 IEnMin=11 EnMin= -1496.92493367535     IErMin=11 ErrMin= 3.68D-04
 ErrMax= 3.68D-04  0.00D+00 EMaxC= 1.00D+00 BMatC= 1.06D-05 BMatP= 1.66D-05
 IDIUse=1 WtCom= 1.00D+00 WtEn= 0.00D+00
 Coeff-Com: -0.835D-02 0.130D-01 0.101D+00-0.121D+00-0.287D+00 0.465D-01
 Coeff-Com:  0.198D+01-0.218D+01-0.892D+00 0.345D+00 0.200D+01
 Coeff:     -0.835D-02 0.130D-01 0.101D+00-0.121D+00-0.287D+00 0.465D-01
 Coeff:      0.198D+01-0.218D+01-0.892D+00 0.345D+00 0.200D+01
 Gap=     0.236 Goal=   None    Shift=    0.500
 Gap=     0.080 Goal=   None    Shift=    0.500
 RMSDP=9.11D-06 MaxDP=6.65D-04 DE=-3.15D-05 OVMax= 3.35D-03

 Cycle  12  Pass 1  IDiag  1:
 E= -1496.92495417020     Delta-E=       -0.000020494848 Rises=F Damp=F
 DIIS: error= 2.94D-04 at cycle  12 NSaved=  12.
 NSaved=12 IEnMin=12 EnMin= -1496.92495417020     IErMin=12 ErrMin= 2.94D-04
 ErrMax= 2.94D-04  0.00D+00 EMaxC= 1.00D+00 BMatC= 6.71D-06 BMatP= 1.06D-05
 IDIUse=1 WtCom= 1.00D+00 WtEn= 0.00D+00
 Coeff-Com: -0.187D-02-0.728D-03-0.109D-01 0.128D+00-0.195D+00-0.524D+00
 Coeff-Com:  0.101D+01-0.327D-01-0.198D+00-0.172D+01-0.139D+00 0.269D+01
 Coeff:     -0.187D-02-0.728D-03-0.109D-01 0.128D+00-0.195D+00-0.524D+00
 Coeff:      0.101D+01-0.327D-01-0.198D+00-0.172D+01-0.139D+00 0.269D+01
 Gap=     0.236 Goal=   None    Shift=    0.500
 Gap=     0.080 Goal=   None    Shift=    0.500
 RMSDP=7.97D-06 MaxDP=6.00D-04 DE=-2.05D-05 OVMax= 2.89D-03

 Cycle  13  Pass 1  IDiag  1:
 E= -1496.92496795776     Delta-E=       -0.000013787559 Rises=F Damp=F
 DIIS: error= 2.50D-04 at cycle  13 NSaved=  13.
 NSaved=13 IEnMin=13 EnMin= -1496.92496795776     IErMin=13 ErrMin= 2.50D-04
 ErrMax= 2.50D-04  0.00D+00 EMaxC= 1.00D+00 BMatC= 4.56D-06 BMatP= 6.71D-06
 IDIUse=1 WtCom= 1.00D+00 WtEn= 0.00D+00
 Coeff-Com:  0.275D-02-0.463D-02-0.507D-01 0.103D+00 0.103D-01-0.115D+00
 Coeff-Com: -0.438D+00 0.730D+00 0.478D+00-0.792D+00-0.175D+01 0.657D+00
 Coeff-Com:  0.217D+01
 Coeff:      0.275D-02-0.463D-02-0.507D-01 0.103D+00 0.103D-01-0.115D+00
 Coeff:     -0.438D+00 0.730D+00 0.478D+00-0.792D+00-0.175D+01 0.657D+00
 Coeff:      0.217D+01
 Gap=     0.236 Goal=   None    Shift=    0.500
 Gap=     0.081 Goal=   None    Shift=    0.500
 RMSDP=5.91D-06 MaxDP=4.37D-04 DE=-1.38D-05 OVMax= 2.41D-03

 Cycle  14  Pass 1  IDiag  1:
 E= -1496.92497653169     Delta-E=       -0.000008573933 Rises=F Damp=F
 DIIS: error= 2.12D-04 at cycle  14 NSaved=  14.
 NSaved=14 IEnMin=14 EnMin= -1496.92497653169     IErMin=14 ErrMin= 2.12D-04
 ErrMax= 2.12D-04  0.00D+00 EMaxC= 1.00D+00 BMatC= 3.04D-06 BMatP= 4.56D-06
 IDIUse=1 WtCom= 1.00D+00 WtEn= 0.00D+00
 Coeff-Com:  0.357D-02-0.313D-02-0.356D-01 0.138D-02 0.120D+00 0.299D+00
 Coeff-Com: -0.961D+00 0.442D+00 0.653D+00 0.612D+00-0.189D+01-0.892D+00
 Coeff-Com:  0.485D+00 0.216D+01
 Coeff:      0.357D-02-0.313D-02-0.356D-01 0.138D-02 0.120D+00 0.299D+00
 Coeff:     -0.961D+00 0.442D+00 0.653D+00 0.612D+00-0.189D+01-0.892D+00
 Coeff:      0.485D+00 0.216D+01
 Gap=     0.236 Goal=   None    Shift=    0.500
 Gap=     0.081 Goal=   None    Shift=    0.500
 RMSDP=4.62D-06 MaxDP=3.35D-04 DE=-8.57D-06 OVMax= 2.04D-03

 Cycle  15  Pass 1  IDiag  1:
 E= -1496.92498206172     Delta-E=       -0.000005530028 Rises=F Damp=F
 DIIS: error= 1.79D-04 at cycle  15 NSaved=  15.
 NSaved=15 IEnMin=15 EnMin= -1496.92498206172     IErMin=15 ErrMin= 1.79D-04
 ErrMax= 1.79D-04  0.00D+00 EMaxC= 1.00D+00 BMatC= 2.15D-06 BMatP= 3.04D-06
 IDIUse=1 WtCom= 1.00D+00 WtEn= 0.00D+00
 Coeff-Com: -0.182D-02 0.296D-02 0.339D-01-0.620D-01-0.499D-01 0.878D-01
 Coeff-Com:  0.629D+00-0.975D+00-0.879D-01 0.721D+00 0.387D+00 0.236D+00
 Coeff-Com: -0.290D+01-0.120D+00 0.310D+01
 Coeff:     -0.182D-02 0.296D-02 0.339D-01-0.620D-01-0.499D-01 0.878D-01
 Coeff:      0.629D+00-0.975D+00-0.879D-01 0.721D+00 0.387D+00 0.236D+00
 Coeff:     -0.290D+01-0.120D+00 0.310D+01
 Gap=     0.236 Goal=   None    Shift=    0.500
 Gap=     0.081 Goal=   None    Shift=    0.500
 RMSDP=3.66D-06 MaxDP=2.78D-04 DE=-5.53D-06 OVMax= 1.78D-03

 Cycle  16  Pass 1  IDiag  1:
 E= -1496.92498589107     Delta-E=       -0.000003829354 Rises=F Damp=F
 DIIS: error= 1.49D-04 at cycle  16 NSaved=  16.
 NSaved=16 IEnMin=16 EnMin= -1496.92498589107     IErMin=16 ErrMin= 1.49D-04
 ErrMax= 1.49D-04  0.00D+00 EMaxC= 1.00D+00 BMatC= 1.44D-06 BMatP= 2.15D-06
 IDIUse=1 WtCom= 1.00D+00 WtEn= 0.00D+00
 Coeff-Com: -0.231D-02 0.303D-02 0.180D-01-0.493D-02-0.863D-01-0.116D+00
 Coeff-Com:  0.820D+00-0.795D+00-0.136D+00-0.762D-02 0.560D+00 0.949D+00
 Coeff-Com: -0.183D+01-0.590D+00-0.165D+00 0.238D+01
 Coeff:     -0.231D-02 0.303D-02 0.180D-01-0.493D-02-0.863D-01-0.116D+00
 Coeff:      0.820D+00-0.795D+00-0.136D+00-0.762D-02 0.560D+00 0.949D+00
 Coeff:     -0.183D+01-0.590D+00-0.165D+00 0.238D+01
 Gap=     0.236 Goal=   None    Shift=    0.500
 Gap=     0.081 Goal=   None    Shift=    0.500
 RMSDP=2.81D-06 MaxDP=1.99D-04 DE=-3.83D-06 OVMax= 1.44D-03

 Cycle  17  Pass 1  IDiag  1:
 E= -1496.92498838352     Delta-E=       -0.000002492451 Rises=F Damp=F
 DIIS: error= 1.25D-04 at cycle  17 NSaved=  17.
 NSaved=17 IEnMin=17 EnMin= -1496.92498838352     IErMin=17 ErrMin= 1.25D-04
 ErrMax= 1.25D-04  0.00D+00 EMaxC= 1.00D+00 BMatC= 9.84D-07 BMatP= 1.44D-06
 IDIUse=1 WtCom= 1.00D+00 WtEn= 0.00D+00
 Coeff-Com: -0.471D-04 0.322D-03-0.187D-01 0.452D-01-0.229D-01-0.960D-01
 Coeff-Com:  0.780D-01 0.799D-01 0.145D+00-0.472D+00-0.304D+00 0.563D+00
 Coeff-Com:  0.696D+00 0.268D-01-0.265D+01 0.854D+00 0.208D+01
 Coeff:     -0.471D-04 0.322D-03-0.187D-01 0.452D-01-0.229D-01-0.960D-01
 Coeff:      0.780D-01 0.799D-01 0.145D+00-0.472D+00-0.304D+00 0.563D+00
 Coeff:      0.696D+00 0.268D-01-0.265D+01 0.854D+00 0.208D+01
 Gap=     0.236 Goal=   None    Shift=    0.500
 Gap=     0.081 Goal=   None    Shift=    0.500
 RMSDP=2.22D-06 MaxDP=1.43D-04 DE=-2.49D-06 OVMax= 1.22D-03

 Cycle  18  Pass 1  IDiag  1:
 E= -1496.92499009075     Delta-E=       -0.000001707223 Rises=F Damp=F
 DIIS: error= 1.03D-04 at cycle  18 NSaved=  18.
 NSaved=18 IEnMin=18 EnMin= -1496.92499009075     IErMin=18 ErrMin= 1.03D-04
 ErrMax= 1.03D-04  0.00D+00 EMaxC= 1.00D+00 BMatC= 6.38D-07 BMatP= 9.84D-07
 IDIUse=1 WtCom= 1.00D+00 WtEn= 0.00D+00
 Coeff-Com:  0.131D-02-0.115D-02-0.185D-01 0.160D-01 0.360D-01 0.907D-01
 Coeff-Com: -0.450D+00 0.368D+00 0.267D+00-0.644D-01-0.793D+00-0.219D+00
 Coeff-Com:  0.118D+01 0.515D+00-0.937D+00-0.116D+01-0.583D+00 0.275D+01
 Coeff:      0.131D-02-0.115D-02-0.185D-01 0.160D-01 0.360D-01 0.907D-01
 Coeff:     -0.450D+00 0.368D+00 0.267D+00-0.644D-01-0.793D+00-0.219D+00
 Coeff:      0.118D+01 0.515D+00-0.937D+00-0.116D+01-0.583D+00 0.275D+01
 Gap=     0.236 Goal=   None    Shift=    0.500
 Gap=     0.081 Goal=   None    Shift=    0.500
 RMSDP=1.91D-06 MaxDP=1.30D-04 DE=-1.71D-06 OVMax= 1.05D-03

 Cycle  19  Pass 1  IDiag  1:
 E= -1496.92499125593     Delta-E=       -0.000001165182 Rises=F Damp=F
 DIIS: error= 8.46D-05 at cycle  19 NSaved=  19.
 NSaved=19 IEnMin=19 EnMin= -1496.92499125593     IErMin=19 ErrMin= 8.46D-05
 ErrMax= 8.46D-05  0.00D+00 EMaxC= 1.00D+00 BMatC= 4.62D-07 BMatP= 6.38D-07
 IDIUse=1 WtCom= 1.00D+00 WtEn= 0.00D+00
 Coeff-Com:  0.105D-02-0.834D-03-0.383D-02-0.170D-01 0.366D-01 0.157D+00
 Coeff-Com: -0.344D+00 0.962D-01 0.194D+00 0.361D+00-0.654D+00-0.398D+00
 Coeff-Com:  0.237D+00 0.519D+00 0.110D+01-0.144D+01-0.236D+01 0.189D+01
 Coeff-Com:  0.163D+01
 Coeff:      0.105D-02-0.834D-03-0.383D-02-0.170D-01 0.366D-01 0.157D+00
 Coeff:     -0.344D+00 0.962D-01 0.194D+00 0.361D+00-0.654D+00-0.398D+00
 Coeff:      0.237D+00 0.519D+00 0.110D+01-0.144D+01-0.236D+01 0.189D+01
 Coeff:      0.163D+01
 Gap=     0.235 Goal=   None    Shift=    0.500
 Gap=     0.081 Goal=   None    Shift=    0.500
 RMSDP=1.55D-06 MaxDP=1.04D-04 DE=-1.17D-06 OVMax= 8.81D-04

 Cycle  20  Pass 1  IDiag  1:
 E= -1496.92499202857     Delta-E=       -0.000000772640 Rises=F Damp=F
 DIIS: error= 6.95D-05 at cycle  20 NSaved=  20.
 NSaved=20 IEnMin=20 EnMin= -1496.92499202857     IErMin=20 ErrMin= 6.95D-05
 ErrMax= 6.95D-05  0.00D+00 EMaxC= 1.00D+00 BMatC= 3.18D-07 BMatP= 4.62D-07
 IDIUse=1 WtCom= 1.00D+00 WtEn= 0.00D+00
 Coeff-Com: -0.645D-04 0.322D-03 0.854D-02-0.234D-01-0.585D-02 0.659D-01
 Coeff-Com:  0.166D+00-0.370D+00 0.248D-01 0.462D+00-0.141D+00-0.140D-01
 Coeff-Com: -0.103D+01 0.240D+00 0.172D+01-0.811D-01-0.191D+01-0.825D+00
 Coeff-Com:  0.413D+00 0.231D+01
 Coeff:     -0.645D-04 0.322D-03 0.854D-02-0.234D-01-0.585D-02 0.659D-01
 Coeff:      0.166D+00-0.370D+00 0.248D-01 0.462D+00-0.141D+00-0.140D-01
 Coeff:     -0.103D+01 0.240D+00 0.172D+01-0.811D-01-0.191D+01-0.825D+00
 Coeff:      0.413D+00 0.231D+01
 Gap=     0.235 Goal=   None    Shift=    0.500
 Gap=     0.081 Goal=   None    Shift=    0.500
 RMSDP=1.29D-06 MaxDP=8.57D-05 DE=-7.73D-07 OVMax= 7.71D-04

 Cycle  21  Pass 1  IDiag  1:
 E= -1496.92499255128     Delta-E=       -0.000000522710 Rises=F Damp=F
 DIIS: error= 5.61D-05 at cycle  21 NSaved=  20.
 NSaved=20 IEnMin=20 EnMin= -1496.92499255128     IErMin=20 ErrMin= 5.61D-05
 ErrMax= 5.61D-05  0.00D+00 EMaxC= 1.00D+00 BMatC= 2.25D-07 BMatP= 3.18D-07
 IDIUse=1 WtCom= 1.00D+00 WtEn= 0.00D+00
 Coeff-Com:  0.147D-03 0.375D-02-0.952D-02-0.106D-01 0.333D-01 0.151D+00
 Coeff-Com: -0.285D+00 0.502D-01 0.280D+00-0.160D+00 0.941D-01-0.693D+00
 Coeff-Com:  0.235D+00 0.789D+00 0.247D+00-0.939D+00-0.843D+00 0.838D-01
 Coeff-Com:  0.311D+00 0.166D+01
 Coeff:      0.147D-03 0.375D-02-0.952D-02-0.106D-01 0.333D-01 0.151D+00
 Coeff:     -0.285D+00 0.502D-01 0.280D+00-0.160D+00 0.941D-01-0.693D+00
 Coeff:      0.235D+00 0.789D+00 0.247D+00-0.939D+00-0.843D+00 0.838D-01
 Coeff:      0.311D+00 0.166D+01
 Gap=     0.235 Goal=   None    Shift=    0.500
 Gap=     0.081 Goal=   None    Shift=    0.500
 RMSDP=8.73D-07 MaxDP=4.98D-05 DE=-5.23D-07 OVMax= 6.10D-04

 SCF Done:  E(ULC-wHPBE) =  -1496.92499255     A.U. after   21 cycles
            NFock= 21  Conv=0.87D-06     -V/T= 2.0045
 <Sx>= 0.0000 <Sy>= 0.0000 <Sz>= 0.5000 <S**2>= 0.7682 S= 0.5091
 <L.S>= 0.000000000000E+00
 KE= 1.490172653446D+03 PE=-1.050777708357D+04 EE= 3.991913897734D+03
 Annihilation of the first spin contaminant:
 S**2 before annihilation     0.7682,   after     0.7502
 Leave Link  502 at Sun Jan 17 23:52:08 2021, MaxMem=  4026531840 cpu:           13771.7 elap:            1741.6
 (Enter /opt/ohpc/pub/libs/gaussian/g16-A.03/sandybridge/g16/l508.exe)
 QCSCF skips out because SCF is already converged.
 Leave Link  508 at Sun Jan 17 23:52:09 2021, MaxMem=  4026531840 cpu:               0.1 elap:               0.0
 (Enter /opt/ohpc/pub/libs/gaussian/g16-A.03/sandybridge/g16/l601.exe)
 Copying SCF densities to generalized density rwf, IOpCl= 1 IROHF=0.

 **********************************************************************

            Population analysis using the SCF density.

 **********************************************************************

 Orbital symmetries:
 Alpha Orbitals:
       Occupied  (A) (A) (A) (A) (A) (A) (A) (A) (A) (A) (A) (A)
                 (A) (A) (A) (A) (A) (A) (A) (A) (A) (A) (A) (A)
                 (A) (A) (A) (A) (A) (A) (A) (A) (A) (A) (A) (A)
                 (A) (A) (A) (A) (A) (A) (A) (A) (A) (A) (A) (A)
                 (A) (A) (A) (A) (A) (A) (A) (A) (A) (A) (A) (A)
                 (A) (A) (A) (A) (A) (A) (A) (A) (A) (A) (A) (A)
                 (A) (A) (A) (A) (A) (A) (A) (A) (A) (A) (A) (A)
                 (A) (A) (A) (A) (A) (A) (A) (A) (A) (A) (A) (A)
                 (A) (A) (A) (A) (A) (A) (A) (A) (A) (A) (A) (A)
                 (A) (A) (A) (A) (A) (A) (A) (A) (A) (A) (A) (A)
                 (A) (A) (A) (A) (A) (A) (A) (A) (A)
       Virtual   (A) (A) (A) (A) (A) (A) (A) (A) (A) (A) (A) (A)
                 (A) (A) (A) (A) (A) (A) (A) (A) (A) (A) (A) (A)
                 (A) (A) (A) (A) (A) (A) (A) (A) (A) (A) (A) (A)
                 (A) (A) (A) (A) (A) (A) (A) (A) (A) (A) (A) (A)
                 (A) (A) (A) (A) (A) (A) (A) (A) (A) (A) (A) (A)
                 (A) (A) (A) (A) (A) (A) (A) (A) (A) (A) (A) (A)
                 (A) (A) (A) (A) (A) (A) (A) (A) (A) (A) (A) (A)
                 (A) (A) (A) (A) (A) (A) (A) (A) (A) (A) (A) (A)
                 (A) (A) (A) (A) (A) (A) (A) (A) (A) (A) (A) (A)
                 (A) (A) (A) (A) (A) (A) (A) (A) (A) (A) (A) (A)
                 (A) (A) (A) (A) (A) (A) (A) (A) (A) (A) (A) (A)
                 (A) (A) (A) (A) (A) (A) (A) (A) (A) (A) (A) (A)
                 (A) (A) (A) (A) (A) (A) (A) (A) (A) (A) (A) (A)
                 (A) (A) (A) (A) (A) (A) (A) (A) (A) (A) (A) (A)
                 (A) (A) (A) (A) (A) (A) (A) (A) (A) (A) (A) (A)
                 (A) (A) (A) (A) (A) (A) (A) (A) (A) (A) (A) (A)
                 (A) (A) (A) (A) (A) (A) (A) (A) (A) (A) (A) (A)
                 (A) (A) (A) (A) (A) (A) (A) (A) (A) (A) (A) (A)
                 (A) (A) (A) (A) (A) (A) (A) (A) (A) (A) (A) (A)
                 (A) (A) (A) (A) (A) (A) (A) (A) (A) (A) (A) (A)
                 (A) (A) (A) (A) (A) (A) (A) (A) (A) (A) (A) (A)
                 (A) (A) (A) (A) (A) (A) (A) (A) (A) (A) (A) (A)
                 (A) (A) (A) (A) (A) (A) (A) (A) (A) (A) (A) (A)
                 (A) (A) (A) (A) (A) (A) (A) (A) (A) (A) (A) (A)
                 (A) (A) (A) (A) (A) (A) (A) (A) (A) (A) (A) (A)
                 (A) (A) (A) (A) (A) (A) (A) (A) (A) (A) (A) (A)
                 (A) (A) (A) (A) (A) (A) (A) (A) (A) (A) (A) (A)
                 (A) (A) (A) (A) (A) (A) (A) (A) (A) (A) (A) (A)
                 (A) (A) (A) (A) (A) (A) (A) (A) (A) (A) (A) (A)
                 (A) (A) (A) (A) (A) (A) (A) (A) (A) (A) (A) (A)
                 (A) (A) (A) (A) (A) (A) (A) (A) (A) (A) (A) (A)
                 (A) (A) (A) (A) (A) (A) (A) (A) (A) (A) (A) (A)
                 (A) (A) (A) (A) (A) (A) (A) (A) (A) (A) (A) (A)
                 (A) (A) (A) (A) (A) (A) (A) (A) (A) (A) (A) (A)
                 (A) (A) (A) (A) (A) (A) (A) (A) (A) (A) (A) (A)
                 (A) (A) (A) (A) (A) (A) (A) (A) (A) (A) (A) (A)
                 (A) (A) (A) (A) (A) (A) (A) (A) (A) (A) (A) (A)
                 (A) (A) (A) (A) (A) (A) (A) (A) (A) (A) (A) (A)
                 (A) (A) (A) (A) (A) (A) (A) (A) (A) (A) (A) (A)
                 (A) (A) (A) (A) (A) (A) (A) (A) (A) (A) (A) (A)
                 (A) (A) (A) (A) (A) (A) (A) (A) (A) (A) (A) (A)
                 (A) (A) (A) (A) (A) (A) (A) (A) (A) (A) (A) (A)
                 (A) (A) (A) (A) (A) (A) (A) (A) (A) (A) (A) (A)
                 (A) (A) (A) (A) (A) (A) (A) (A) (A) (A) (A) (A)
                 (A) (A) (A) (A) (A) (A) (A) (A) (A) (A) (A) (A)
                 (A) (A) (A) (A) (A) (A) (A) (A) (A) (A) (A) (A)
                 (A) (A) (A) (A) (A) (A) (A) (A) (A) (A) (A) (A)
                 (A) (A) (A) (A) (A) (A) (A) (A) (A) (A) (A) (A)
                 (A) (A) (A) (A) (A) (A) (A) (A) (A) (A) (A) (A)
                 (A) (A) (A) (A) (A) (A) (A) (A) (A) (A) (A) (A)
                 (A) (A) (A) (A) (A) (A) (A) (A) (A) (A) (A) (A)
                 (A) (A) (A) (A) (A) (A) (A) (A) (A) (A) (A) (A)
                 (A) (A) (A) (A) (A) (A) (A) (A) (A) (A) (A) (A)
                 (A) (A) (A) (A) (A) (A) (A) (A) (A) (A) (A) (A)
                 (A) (A) (A) (A) (A) (A) (A) (A) (A) (A) (A) (A)
                 (A) (A) (A) (A) (A) (A) (A) (A) (A) (A) (A) (A)
                 (A) (A) (A) (A) (A) (A) (A) (A) (A) (A) (A) (A)
                 (A) (A) (A) (A) (A) (A) (A) (A) (A) (A) (A) (A)
                 (A) (A) (A) (A) (A) (A) (A) (A) (A) (A) (A) (A)
                 (A) (A) (A) (A) (A) (A) (A) (A) (A) (A) (A) (A)
                 (A) (A) (A) (A) (A) (A) (A) (A) (A) (A) (A) (A)
                 (A) (A) (A) (A) (A) (A) (A) (A) (A) (A) (A) (A)
                 (A) (A) (A) (A) (A) (A) (A) (A) (A) (A) (A) (A)
                 (A) (A) (A) (A) (A)
 Beta  Orbitals:
       Occupied  (A) (A) (A) (A) (A) (A) (A) (A) (A) (A) (A) (A)
                 (A) (A) (A) (A) (A) (A) (A) (A) (A) (A) (A) (A)
                 (A) (A) (A) (A) (A) (A) (A) (A) (A) (A) (A) (A)
                 (A) (A) (A) (A) (A) (A) (A) (A) (A) (A) (A) (A)
                 (A) (A) (A) (A) (A) (A) (A) (A) (A) (A) (A) (A)
                 (A) (A) (A) (A) (A) (A) (A) (A) (A) (A) (A) (A)
                 (A) (A) (A) (A) (A) (A) (A) (A) (A) (A) (A) (A)
                 (A) (A) (A) (A) (A) (A) (A) (A) (A) (A) (A) (A)
                 (A) (A) (A) (A) (A) (A) (A) (A) (A) (A) (A) (A)
                 (A) (A) (A) (A) (A) (A) (A) (A) (A) (A) (A) (A)
                 (A) (A) (A) (A) (A) (A) (A) (A)
       Virtual   (A) (A) (A) (A) (A) (A) (A) (A) (A) (A) (A) (A)
                 (A) (A) (A) (A) (A) (A) (A) (A) (A) (A) (A) (A)
                 (A) (A) (A) (A) (A) (A) (A) (A) (A) (A) (A) (A)
                 (A) (A) (A) (A) (A) (A) (A) (A) (A) (A) (A) (A)
                 (A) (A) (A) (A) (A) (A) (A) (A) (A) (A) (A) (A)
                 (A) (A) (A) (A) (A) (A) (A) (A) (A) (A) (A) (A)
                 (A) (A) (A) (A) (A) (A) (A) (A) (A) (A) (A) (A)
                 (A) (A) (A) (A) (A) (A) (A) (A) (A) (A) (A) (A)
                 (A) (A) (A) (A) (A) (A) (A) (A) (A) (A) (A) (A)
                 (A) (A) (A) (A) (A) (A) (A) (A) (A) (A) (A) (A)
                 (A) (A) (A) (A) (A) (A) (A) (A) (A) (A) (A) (A)
                 (A) (A) (A) (A) (A) (A) (A) (A) (A) (A) (A) (A)
                 (A) (A) (A) (A) (A) (A) (A) (A) (A) (A) (A) (A)
                 (A) (A) (A) (A) (A) (A) (A) (A) (A) (A) (A) (A)
                 (A) (A) (A) (A) (A) (A) (A) (A) (A) (A) (A) (A)
                 (A) (A) (A) (A) (A) (A) (A) (A) (A) (A) (A) (A)
                 (A) (A) (A) (A) (A) (A) (A) (A) (A) (A) (A) (A)
                 (A) (A) (A) (A) (A) (A) (A) (A) (A) (A) (A) (A)
                 (A) (A) (A) (A) (A) (A) (A) (A) (A) (A) (A) (A)
                 (A) (A) (A) (A) (A) (A) (A) (A) (A) (A) (A) (A)
                 (A) (A) (A) (A) (A) (A) (A) (A) (A) (A) (A) (A)
                 (A) (A) (A) (A) (A) (A) (A) (A) (A) (A) (A) (A)
                 (A) (A) (A) (A) (A) (A) (A) (A) (A) (A) (A) (A)
                 (A) (A) (A) (A) (A) (A) (A) (A) (A) (A) (A) (A)
                 (A) (A) (A) (A) (A) (A) (A) (A) (A) (A) (A) (A)
                 (A) (A) (A) (A) (A) (A) (A) (A) (A) (A) (A) (A)
                 (A) (A) (A) (A) (A) (A) (A) (A) (A) (A) (A) (A)
                 (A) (A) (A) (A) (A) (A) (A) (A) (A) (A) (A) (A)
                 (A) (A) (A) (A) (A) (A) (A) (A) (A) (A) (A) (A)
                 (A) (A) (A) (A) (A) (A) (A) (A) (A) (A) (A) (A)
                 (A) (A) (A) (A) (A) (A) (A) (A) (A) (A) (A) (A)
                 (A) (A) (A) (A) (A) (A) (A) (A) (A) (A) (A) (A)
                 (A) (A) (A) (A) (A) (A) (A) (A) (A) (A) (A) (A)
                 (A) (A) (A) (A) (A) (A) (A) (A) (A) (A) (A) (A)
                 (A) (A) (A) (A) (A) (A) (A) (A) (A) (A) (A) (A)
                 (A) (A) (A) (A) (A) (A) (A) (A) (A) (A) (A) (A)
                 (A) (A) (A) (A) (A) (A) (A) (A) (A) (A) (A) (A)
                 (A) (A) (A) (A) (A) (A) (A) (A) (A) (A) (A) (A)
                 (A) (A) (A) (A) (A) (A) (A) (A) (A) (A) (A) (A)
                 (A) (A) (A) (A) (A) (A) (A) (A) (A) (A) (A) (A)
                 (A) (A) (A) (A) (A) (A) (A) (A) (A) (A) (A) (A)
                 (A) (A) (A) (A) (A) (A) (A) (A) (A) (A) (A) (A)
                 (A) (A) (A) (A) (A) (A) (A) (A) (A) (A) (A) (A)
                 (A) (A) (A) (A) (A) (A) (A) (A) (A) (A) (A) (A)
                 (A) (A) (A) (A) (A) (A) (A) (A) (A) (A) (A) (A)
                 (A) (A) (A) (A) (A) (A) (A) (A) (A) (A) (A) (A)
                 (A) (A) (A) (A) (A) (A) (A) (A) (A) (A) (A) (A)
                 (A) (A) (A) (A) (A) (A) (A) (A) (A) (A) (A) (A)
                 (A) (A) (A) (A) (A) (A) (A) (A) (A) (A) (A) (A)
                 (A) (A) (A) (A) (A) (A) (A) (A) (A) (A) (A) (A)
                 (A) (A) (A) (A) (A) (A) (A) (A) (A) (A) (A) (A)
                 (A) (A) (A) (A) (A) (A) (A) (A) (A) (A) (A) (A)
                 (A) (A) (A) (A) (A) (A) (A) (A) (A) (A) (A) (A)
                 (A) (A) (A) (A) (A) (A) (A) (A) (A) (A) (A) (A)
                 (A) (A) (A) (A) (A) (A) (A) (A) (A) (A) (A) (A)
                 (A) (A) (A) (A) (A) (A) (A) (A) (A) (A) (A) (A)
                 (A) (A) (A) (A) (A) (A) (A) (A) (A) (A) (A) (A)
                 (A) (A) (A) (A) (A) (A) (A) (A) (A) (A) (A) (A)
                 (A) (A) (A) (A) (A) (A) (A) (A) (A) (A) (A) (A)
                 (A) (A) (A) (A) (A) (A) (A) (A) (A) (A) (A) (A)
                 (A) (A) (A) (A) (A) (A) (A) (A) (A) (A) (A) (A)
                 (A) (A) (A) (A) (A) (A) (A) (A) (A) (A) (A) (A)
                 (A) (A) (A) (A) (A) (A) (A) (A) (A) (A) (A) (A)
                 (A) (A) (A) (A) (A) (A)
 The electronic state is 2-A.
 Alpha  occ. eigenvalues --  -14.24161 -14.24161 -10.13375 -10.13375 -10.11781
 Alpha  occ. eigenvalues --  -10.11780 -10.11779 -10.11778 -10.10028 -10.10014
 Alpha  occ. eigenvalues --  -10.08786 -10.08785 -10.08783 -10.08782 -10.08744
 Alpha  occ. eigenvalues --  -10.08744 -10.08743 -10.08743 -10.07430 -10.07429
 Alpha  occ. eigenvalues --  -10.07429 -10.07429 -10.07272 -10.07271 -10.07271
 Alpha  occ. eigenvalues --  -10.07271 -10.06866 -10.06866 -10.06866 -10.06865
 Alpha  occ. eigenvalues --  -10.06795 -10.06795 -10.06794 -10.06794 -10.06687
 Alpha  occ. eigenvalues --  -10.06687 -10.06686 -10.06686  -1.10039  -1.10036
 Alpha  occ. eigenvalues --   -1.00042  -0.98314  -0.97426  -0.97426  -0.96140
 Alpha  occ. eigenvalues --   -0.95610  -0.91403  -0.88826  -0.88504  -0.88030
 Alpha  occ. eigenvalues --   -0.87581  -0.87234  -0.86570  -0.86240  -0.86239
 Alpha  occ. eigenvalues --   -0.86149  -0.84324  -0.82696  -0.77888  -0.77202
 Alpha  occ. eigenvalues --   -0.76114  -0.75198  -0.74752  -0.73564  -0.73262
 Alpha  occ. eigenvalues --   -0.72959  -0.72800  -0.72455  -0.70633  -0.70288
 Alpha  occ. eigenvalues --   -0.68302  -0.67578  -0.67399  -0.67162  -0.65270
 Alpha  occ. eigenvalues --   -0.62943  -0.62852  -0.62340  -0.61471  -0.61189
 Alpha  occ. eigenvalues --   -0.61001  -0.59488  -0.59392  -0.58774  -0.58690
 Alpha  occ. eigenvalues --   -0.58647  -0.57907  -0.57177  -0.56963  -0.56825
 Alpha  occ. eigenvalues --   -0.56769  -0.56690  -0.56596  -0.55582  -0.55460
 Alpha  occ. eigenvalues --   -0.55267  -0.55267  -0.54988  -0.53838  -0.53370
 Alpha  occ. eigenvalues --   -0.52562  -0.52272  -0.51937  -0.51908  -0.50606
 Alpha  occ. eigenvalues --   -0.50373  -0.49871  -0.49646  -0.49414  -0.49042
 Alpha  occ. eigenvalues --   -0.49003  -0.48273  -0.47947  -0.47605  -0.47577
 Alpha  occ. eigenvalues --   -0.46933  -0.46039  -0.43711  -0.42353  -0.42337
 Alpha  occ. eigenvalues --   -0.41378  -0.41371  -0.41046  -0.40553  -0.40532
 Alpha  occ. eigenvalues --   -0.40097  -0.39938  -0.35553  -0.34375
 Alpha virt. eigenvalues --   -0.10829  -0.08705  -0.08577  -0.07605  -0.07596
 Alpha virt. eigenvalues --   -0.06918  -0.06349  -0.06227  -0.05459  -0.05426
 Alpha virt. eigenvalues --   -0.03917  -0.02779   0.00279   0.00889   0.01930
 Alpha virt. eigenvalues --    0.02118   0.02261   0.02386   0.02629   0.03827
 Alpha virt. eigenvalues --    0.04006   0.04159   0.04730   0.04847   0.04865
 Alpha virt. eigenvalues --    0.05210   0.05864   0.05917   0.06189   0.06544
 Alpha virt. eigenvalues --    0.07011   0.07400   0.07538   0.07540   0.07845
 Alpha virt. eigenvalues --    0.07912   0.07952   0.08051   0.08115   0.08498
 Alpha virt. eigenvalues --    0.08778   0.09035   0.09560   0.09786   0.10249
 Alpha virt. eigenvalues --    0.10836   0.11212   0.11215   0.11756   0.12317
 Alpha virt. eigenvalues --    0.13863   0.14235   0.14541   0.14695   0.14780
 Alpha virt. eigenvalues --    0.15406   0.15444   0.15655   0.15791   0.16052
 Alpha virt. eigenvalues --    0.16250   0.16458   0.16707   0.16846   0.16993
 Alpha virt. eigenvalues --    0.17130   0.18256   0.18286   0.18373   0.18387
 Alpha virt. eigenvalues --    0.18491   0.18566   0.18773   0.18799   0.18934
 Alpha virt. eigenvalues --    0.19305   0.19538   0.19893   0.20188   0.20346
 Alpha virt. eigenvalues --    0.20372   0.20436   0.20754   0.20986   0.20991
 Alpha virt. eigenvalues --    0.21151   0.21612   0.21852   0.21950   0.21957
 Alpha virt. eigenvalues --    0.22907   0.23390   0.23874   0.23946   0.23964
 Alpha virt. eigenvalues --    0.24071   0.24281   0.24299   0.24794   0.25645
 Alpha virt. eigenvalues --    0.25700   0.25777   0.26019   0.26305   0.26473
 Alpha virt. eigenvalues --    0.26891   0.26992   0.27390   0.27603   0.27835
 Alpha virt. eigenvalues --    0.27879   0.28072   0.28378   0.28544   0.29830
 Alpha virt. eigenvalues --    0.29948   0.30122   0.30314   0.30410   0.31204
 Alpha virt. eigenvalues --    0.31396   0.31644   0.31686   0.32390   0.32425
 Alpha virt. eigenvalues --    0.32455   0.32710   0.32995   0.33453   0.33608
 Alpha virt. eigenvalues --    0.33610   0.34516   0.34521   0.34725   0.34779
 Alpha virt. eigenvalues --    0.34971   0.34985   0.35268   0.35338   0.35496
 Alpha virt. eigenvalues --    0.35845   0.36290   0.36367   0.36810   0.37164
 Alpha virt. eigenvalues --    0.37431   0.38043   0.38262   0.38334   0.38379
 Alpha virt. eigenvalues --    0.38731   0.38897   0.39048   0.39264   0.39278
 Alpha virt. eigenvalues --    0.39317   0.39324   0.39416   0.39952   0.40100
 Alpha virt. eigenvalues --    0.40566   0.40860   0.41406   0.41658   0.41893
 Alpha virt. eigenvalues --    0.42064   0.42159   0.42182   0.42444   0.43312
 Alpha virt. eigenvalues --    0.43579   0.43880   0.43946   0.44169   0.44213
 Alpha virt. eigenvalues --    0.44556   0.45147   0.45253   0.45376   0.45489
 Alpha virt. eigenvalues --    0.45816   0.45885   0.46284   0.46340   0.46445
 Alpha virt. eigenvalues --    0.47006   0.47262   0.47302   0.47709   0.47727
 Alpha virt. eigenvalues --    0.48593   0.49172   0.49290   0.49578   0.50047
 Alpha virt. eigenvalues --    0.50203   0.50254   0.50783   0.50871   0.51033
 Alpha virt. eigenvalues --    0.51571   0.52130   0.52488   0.53086   0.53483
 Alpha virt. eigenvalues --    0.55754   0.55936   0.55941   0.56053   0.56704
 Alpha virt. eigenvalues --    0.56775   0.57246   0.57549   0.58100   0.59024
 Alpha virt. eigenvalues --    0.59788   0.60668   0.61166   0.61493   0.62179
 Alpha virt. eigenvalues --    0.62223   0.62471   0.62595   0.63067   0.63579
 Alpha virt. eigenvalues --    0.64039   0.64260   0.64603   0.64608   0.64615
 Alpha virt. eigenvalues --    0.64726   0.64740   0.64926   0.64984   0.65954
 Alpha virt. eigenvalues --    0.66132   0.66690   0.67403   0.67707   0.68329
 Alpha virt. eigenvalues --    0.68335   0.69355   0.69793   0.70629   0.70795
 Alpha virt. eigenvalues --    0.71611   0.72582   0.72793   0.72900   0.73006
 Alpha virt. eigenvalues --    0.74669   0.74983   0.75896   0.76328   0.76879
 Alpha virt. eigenvalues --    0.79064   0.79181   0.79360   0.79988   0.80632
 Alpha virt. eigenvalues --    0.81037   0.81198   0.81546   0.85501   0.86633
 Alpha virt. eigenvalues --    0.86923   0.87070   0.89382   0.89513   1.05850
 Alpha virt. eigenvalues --    1.07578   1.08628   1.09108   1.09120   1.12868
 Alpha virt. eigenvalues --    1.13267   1.13286   1.13885   1.14844   1.15118
 Alpha virt. eigenvalues --    1.15398   1.15581   1.16261   1.16355   1.16964
 Alpha virt. eigenvalues --    1.16998   1.17291   1.17474   1.17966   1.18725
 Alpha virt. eigenvalues --    1.18911   1.19090   1.19710   1.19735   1.19801
 Alpha virt. eigenvalues --    1.19801   1.20646   1.20677   1.20876   1.21028
 Alpha virt. eigenvalues --    1.21347   1.21752   1.21973   1.22084   1.22155
 Alpha virt. eigenvalues --    1.22734   1.23253   1.23496   1.23529   1.23586
 Alpha virt. eigenvalues --    1.23980   1.24126   1.24280   1.24460   1.25076
 Alpha virt. eigenvalues --    1.25078   1.25497   1.25591   1.25919   1.26322
 Alpha virt. eigenvalues --    1.26803   1.26839   1.27180   1.27328   1.27821
 Alpha virt. eigenvalues --    1.28027   1.28199   1.32840   1.33306   1.34258
 Alpha virt. eigenvalues --    1.34531   1.34789   1.34985   1.35333   1.35864
 Alpha virt. eigenvalues --    1.36299   1.36372   1.36654   1.36696   1.36831
 Alpha virt. eigenvalues --    1.36840   1.36880   1.36958   1.37542   1.37605
 Alpha virt. eigenvalues --    1.37611   1.37933   1.38031   1.38485   1.38532
 Alpha virt. eigenvalues --    1.38622   1.38747   1.38978   1.39009   1.39061
 Alpha virt. eigenvalues --    1.39208   1.39446   1.39773   1.40124   1.40230
 Alpha virt. eigenvalues --    1.40233   1.40395   1.40504   1.42036   1.42247
 Alpha virt. eigenvalues --    1.42409   1.42458   1.43021   1.43126   1.44053
 Alpha virt. eigenvalues --    1.44433   1.44547   1.44657   1.44864   1.45022
 Alpha virt. eigenvalues --    1.45374   1.45515   1.45805   1.46171   1.46379
 Alpha virt. eigenvalues --    1.46783   1.46839   1.47569   1.47618   1.47883
 Alpha virt. eigenvalues --    1.48013   1.48032   1.48421   1.48826   1.48844
 Alpha virt. eigenvalues --    1.48930   1.49533   1.49666   1.49893   1.50087
 Alpha virt. eigenvalues --    1.50650   1.50683   1.50804   1.50827   1.51461
 Alpha virt. eigenvalues --    1.51639   1.52079   1.52322   1.52617   1.53066
 Alpha virt. eigenvalues --    1.53246   1.55997   1.56527   1.58155   1.58338
 Alpha virt. eigenvalues --    1.59177   1.59268   1.59571   1.59619   1.60675
 Alpha virt. eigenvalues --    1.62662   1.63181   1.63748   1.63914   1.64563
 Alpha virt. eigenvalues --    1.67125   1.67651   1.68250   1.68409   1.68859
 Alpha virt. eigenvalues --    1.69081   1.69106   1.69473   1.69701   1.69760
 Alpha virt. eigenvalues --    1.70026   1.70295   1.70387   1.70617   1.70628
 Alpha virt. eigenvalues --    1.71359   1.71463   1.71545   1.71615   1.72142
 Alpha virt. eigenvalues --    1.72428   1.73379   1.73493   1.73640   1.73819
 Alpha virt. eigenvalues --    1.74288   1.74611   1.74667   1.74833   1.75068
 Alpha virt. eigenvalues --    1.76288   1.76726   1.76794   1.77378   1.79017
 Alpha virt. eigenvalues --    1.79685   1.79828   1.80668   1.80867   1.81035
 Alpha virt. eigenvalues --    1.81043   1.81383   1.81478   1.81493   1.81770
 Alpha virt. eigenvalues --    1.83166   1.83528   1.83741   1.83773   1.83989
 Alpha virt. eigenvalues --    1.83991   1.84224   1.84356   1.84672   1.84732
 Alpha virt. eigenvalues --    1.84744   1.84802   1.85322   1.85573   1.85589
 Alpha virt. eigenvalues --    1.85775   1.85783   1.86133   1.86363   1.86731
 Alpha virt. eigenvalues --    1.87252   1.88008   1.88726   1.90028   1.90127
 Alpha virt. eigenvalues --    1.90151   1.90169   1.90561   1.90768   1.91961
 Alpha virt. eigenvalues --    1.92022   1.92049   1.92699   1.93306   1.94464
 Alpha virt. eigenvalues --    1.94628   1.94750   1.94909   1.96392   1.96634
 Alpha virt. eigenvalues --    1.97035   1.99055   1.99292   1.99931   2.01101
 Alpha virt. eigenvalues --    2.02581   2.03545   2.03575   2.04009   2.04427
 Alpha virt. eigenvalues --    2.06140   2.07190   2.09101   2.10871   2.11299
 Alpha virt. eigenvalues --    2.11511   2.11614   2.13819   2.14374   2.15243
 Alpha virt. eigenvalues --    2.15604   2.15702   2.17430   2.17900   2.18760
 Alpha virt. eigenvalues --    2.20859   2.20927   2.21552   2.21578   2.21747
 Alpha virt. eigenvalues --    2.22068   2.22640   2.22902   2.23018   2.23062
 Alpha virt. eigenvalues --    2.23065   2.23462   2.23914   2.24104   2.24363
 Alpha virt. eigenvalues --    2.24628   2.24824   2.25025   2.25772   2.25860
 Alpha virt. eigenvalues --    2.26558   2.26609   2.26690   2.26886   2.27714
 Alpha virt. eigenvalues --    2.27853   2.27896   2.27953   2.28223   2.28299
 Alpha virt. eigenvalues --    2.28623   2.28900   2.29186   2.29580   2.29596
 Alpha virt. eigenvalues --    2.29698   2.32050   2.34845   2.36067   2.36485
 Alpha virt. eigenvalues --    2.36874   2.37638   2.37711   2.37903   2.41980
 Alpha virt. eigenvalues --    2.42097   2.42118   2.42690   2.43165   2.43271
 Alpha virt. eigenvalues --    2.43823   2.44171   2.44541   2.44693   2.44889
 Alpha virt. eigenvalues --    2.45475   2.46141   2.46566   2.47100   2.47335
 Alpha virt. eigenvalues --    2.47571   2.49421   2.50059   2.50736   2.52014
 Alpha virt. eigenvalues --    2.52157   2.54276   2.54648   2.54987   2.55274
 Alpha virt. eigenvalues --    2.56175   2.56182   2.56215   2.56689   2.56694
 Alpha virt. eigenvalues --    2.56876   2.57088   2.57239   2.57776   2.58174
 Alpha virt. eigenvalues --    2.58204   2.59010   2.59309   2.59563   2.59868
 Alpha virt. eigenvalues --    2.60356   2.64834   2.65844   2.65850   2.66023
 Alpha virt. eigenvalues --    2.66094   2.66887   2.67292   2.67679   2.67814
 Alpha virt. eigenvalues --    2.69009   2.69740   2.70075   2.70116   2.70956
 Alpha virt. eigenvalues --    2.73027   2.74004   2.74310   2.74848   2.75326
 Alpha virt. eigenvalues --    2.76484   2.76540   2.76847   2.76908   2.77001
 Alpha virt. eigenvalues --    2.80996   2.81702   2.86277   2.87398   2.87501
 Alpha virt. eigenvalues --    2.87649   2.89714   2.89728   2.90521   2.90577
 Alpha virt. eigenvalues --    2.93775   2.93807   2.94083   2.94142   2.94268
 Alpha virt. eigenvalues --    2.94781   2.95088   2.95125   2.95998   2.96115
 Alpha virt. eigenvalues --    2.96600   2.96861   2.97458   2.98431   2.98973
 Alpha virt. eigenvalues --    3.00821   3.01883   3.01893   3.02013   3.03340
 Alpha virt. eigenvalues --    3.03499   3.03982   3.06001   3.06211   3.07020
 Alpha virt. eigenvalues --    3.07294   3.08660   3.08846   3.09474   3.09575
 Alpha virt. eigenvalues --    3.10064   3.11259   3.11648   3.12118   3.12309
 Alpha virt. eigenvalues --    3.12824   3.13335   3.13869   3.14210   3.15080
 Alpha virt. eigenvalues --    3.16482   3.17354   3.20438   3.24379   3.24397
 Alpha virt. eigenvalues --    3.24685   3.25153   3.25506   3.25559   3.27839
 Alpha virt. eigenvalues --    3.29443   3.31316   3.31601   3.32823   3.32827
 Alpha virt. eigenvalues --    3.35507   3.36218   3.43769   3.44709   3.46306
 Alpha virt. eigenvalues --    3.46452   3.46648   3.46761   3.48829   3.51367
 Alpha virt. eigenvalues --    3.51823   3.51827   3.69144   3.72904   3.80031
 Alpha virt. eigenvalues --    3.82364   3.82853   3.82935  21.03431  21.09735
 Alpha virt. eigenvalues --   21.09986  21.11508  21.11734  21.24329  21.56100
 Alpha virt. eigenvalues --   21.57544  21.57545  21.60132  21.60718  21.60731
 Alpha virt. eigenvalues --   21.62978  21.63343  21.66265  21.69497  21.69691
 Alpha virt. eigenvalues --   21.78628  21.79507  21.83107  21.83682  21.85036
 Alpha virt. eigenvalues --   21.85894  21.86555  21.86766  21.88267  21.91230
 Alpha virt. eigenvalues --   21.91645  21.91970  21.93504  21.97230  21.98247
 Alpha virt. eigenvalues --   22.02871  22.03722  22.04321  22.04349  31.89896
 Alpha virt. eigenvalues --   31.90841
  Beta  occ. eigenvalues --  -14.23766 -14.23766 -10.13335 -10.13334 -10.11809
  Beta  occ. eigenvalues --  -10.11808 -10.11807 -10.11806 -10.09946 -10.09932
  Beta  occ. eigenvalues --  -10.08763 -10.08762 -10.08760 -10.08758 -10.08710
  Beta  occ. eigenvalues --  -10.08710 -10.08709 -10.08709 -10.07363 -10.07362
  Beta  occ. eigenvalues --  -10.07362 -10.07362 -10.07209 -10.07208 -10.07208
  Beta  occ. eigenvalues --  -10.07208 -10.06891 -10.06891 -10.06891 -10.06891
  Beta  occ. eigenvalues --  -10.06817 -10.06817 -10.06817 -10.06817 -10.06617
  Beta  occ. eigenvalues --  -10.06617 -10.06617 -10.06616  -1.09547  -1.09543
  Beta  occ. eigenvalues --   -0.99873  -0.98163  -0.97340  -0.97340  -0.96014
  Beta  occ. eigenvalues --   -0.95467  -0.91197  -0.88749  -0.88420  -0.87889
  Beta  occ. eigenvalues --   -0.87497  -0.87154  -0.86498  -0.86174  -0.86173
  Beta  occ. eigenvalues --   -0.86061  -0.84137  -0.82407  -0.77781  -0.77064
  Beta  occ. eigenvalues --   -0.75983  -0.75080  -0.74620  -0.73420  -0.73203
  Beta  occ. eigenvalues --   -0.72874  -0.72719  -0.72380  -0.70546  -0.70205
  Beta  occ. eigenvalues --   -0.68230  -0.67484  -0.67326  -0.67085  -0.65182
  Beta  occ. eigenvalues --   -0.62792  -0.62766  -0.62251  -0.61364  -0.61012
  Beta  occ. eigenvalues --   -0.60678  -0.59417  -0.59257  -0.58700  -0.58606
  Beta  occ. eigenvalues --   -0.58604  -0.57837  -0.57133  -0.56926  -0.56732
  Beta  occ. eigenvalues --   -0.56720  -0.56624  -0.56552  -0.55518  -0.55420
  Beta  occ. eigenvalues --   -0.55235  -0.55234  -0.54895  -0.53598  -0.53030
  Beta  occ. eigenvalues --   -0.52263  -0.52041  -0.51758  -0.51730  -0.50549
  Beta  occ. eigenvalues --   -0.50258  -0.49593  -0.49523  -0.49363  -0.48946
  Beta  occ. eigenvalues --   -0.48896  -0.48086  -0.47842  -0.47561  -0.47532
  Beta  occ. eigenvalues --   -0.46656  -0.45472  -0.43057  -0.42192  -0.42189
  Beta  occ. eigenvalues --   -0.41021  -0.41013  -0.40330  -0.40296  -0.40260
  Beta  occ. eigenvalues --   -0.39940  -0.39314  -0.31619
  Beta virt. eigenvalues --   -0.23522  -0.10457  -0.08471  -0.08323  -0.07328
  Beta virt. eigenvalues --   -0.07313  -0.06499  -0.06145  -0.05967  -0.05274
  Beta virt. eigenvalues --   -0.05210  -0.03413  -0.02228   0.00318   0.00933
  Beta virt. eigenvalues --    0.01962   0.02169   0.02295   0.02412   0.02664
  Beta virt. eigenvalues --    0.03871   0.04055   0.04197   0.04767   0.04868
  Beta virt. eigenvalues --    0.04896   0.05243   0.05898   0.06103   0.06212
  Beta virt. eigenvalues --    0.06575   0.07053   0.07465   0.07572   0.07593
  Beta virt. eigenvalues --    0.07928   0.07969   0.08085   0.08171   0.08194
  Beta virt. eigenvalues --    0.08552   0.08860   0.09094   0.09583   0.09814
  Beta virt. eigenvalues --    0.10462   0.10999   0.11338   0.11397   0.11837
  Beta virt. eigenvalues --    0.12459   0.13939   0.14292   0.14622   0.14792
  Beta virt. eigenvalues --    0.14825   0.15485   0.15518   0.15716   0.15861
  Beta virt. eigenvalues --    0.16117   0.16308   0.16561   0.16786   0.16881
  Beta virt. eigenvalues --    0.17060   0.17174   0.18357   0.18376   0.18431
  Beta virt. eigenvalues --    0.18476   0.18547   0.18660   0.18844   0.18873
  Beta virt. eigenvalues --    0.19008   0.19373   0.19612   0.19954   0.20228
  Beta virt. eigenvalues --    0.20398   0.20400   0.20463   0.20825   0.21034
  Beta virt. eigenvalues --    0.21059   0.21200   0.21691   0.21905   0.22008
  Beta virt. eigenvalues --    0.22025   0.22935   0.23456   0.23910   0.23985
  Beta virt. eigenvalues --    0.24016   0.24113   0.24381   0.24438   0.24885
  Beta virt. eigenvalues --    0.25750   0.25804   0.25873   0.26100   0.26392
  Beta virt. eigenvalues --    0.26583   0.26985   0.27122   0.27457   0.27685
  Beta virt. eigenvalues --    0.27904   0.27949   0.28177   0.28458   0.28628
  Beta virt. eigenvalues --    0.29944   0.30055   0.30234   0.30404   0.30508
  Beta virt. eigenvalues --    0.31288   0.31529   0.31736   0.31797   0.32458
  Beta virt. eigenvalues --    0.32531   0.32556   0.32813   0.33042   0.33550
  Beta virt. eigenvalues --    0.33685   0.33701   0.34577   0.34609   0.34800
  Beta virt. eigenvalues --    0.34856   0.35039   0.35045   0.35359   0.35391
  Beta virt. eigenvalues --    0.35602   0.35951   0.36389   0.36439   0.36913
  Beta virt. eigenvalues --    0.37261   0.37529   0.38099   0.38371   0.38397
  Beta virt. eigenvalues --    0.38426   0.38766   0.38923   0.39091   0.39298
  Beta virt. eigenvalues --    0.39334   0.39364   0.39374   0.39490   0.39982
  Beta virt. eigenvalues --    0.40148   0.40647   0.40913   0.41474   0.41731
  Beta virt. eigenvalues --    0.41962   0.42122   0.42235   0.42241   0.42504
  Beta virt. eigenvalues --    0.43400   0.43643   0.43929   0.43990   0.44245
  Beta virt. eigenvalues --    0.44267   0.44617   0.45199   0.45312   0.45440
  Beta virt. eigenvalues --    0.45534   0.45856   0.45928   0.46390   0.46422
  Beta virt. eigenvalues --    0.46491   0.47092   0.47329   0.47390   0.47777
  Beta virt. eigenvalues --    0.47797   0.48636   0.49246   0.49353   0.49646
  Beta virt. eigenvalues --    0.50115   0.50295   0.50350   0.50916   0.50958
  Beta virt. eigenvalues --    0.51111   0.51624   0.52210   0.52545   0.53170
  Beta virt. eigenvalues --    0.53540   0.55816   0.56001   0.56010   0.56126
  Beta virt. eigenvalues --    0.56763   0.56882   0.57318   0.57618   0.58154
  Beta virt. eigenvalues --    0.59101   0.59868   0.60776   0.61221   0.61543
  Beta virt. eigenvalues --    0.62248   0.62291   0.62531   0.62647   0.63154
  Beta virt. eigenvalues --    0.63643   0.64102   0.64320   0.64678   0.64678
  Beta virt. eigenvalues --    0.64714   0.64784   0.64792   0.64981   0.65043
  Beta virt. eigenvalues --    0.66013   0.66220   0.66750   0.67451   0.67801
  Beta virt. eigenvalues --    0.68393   0.68406   0.69420   0.69872   0.70716
  Beta virt. eigenvalues --    0.70871   0.71706   0.72664   0.72830   0.72944
  Beta virt. eigenvalues --    0.73058   0.74771   0.75043   0.76052   0.76539
  Beta virt. eigenvalues --    0.76947   0.79394   0.79498   0.79526   0.80056
  Beta virt. eigenvalues --    0.80690   0.81098   0.81246   0.81659   0.85587
  Beta virt. eigenvalues --    0.86706   0.86974   0.87120   0.89519   0.89658
  Beta virt. eigenvalues --    1.05917   1.07639   1.08691   1.09151   1.09164
  Beta virt. eigenvalues --    1.12940   1.13332   1.13338   1.13941   1.14911
  Beta virt. eigenvalues --    1.15201   1.15473   1.15662   1.16338   1.16431
  Beta virt. eigenvalues --    1.17053   1.17056   1.17357   1.17558   1.18051
  Beta virt. eigenvalues --    1.18828   1.19011   1.19170   1.19830   1.19867
  Beta virt. eigenvalues --    1.19877   1.19905   1.20721   1.20765   1.20994
  Beta virt. eigenvalues --    1.21114   1.21416   1.21821   1.22029   1.22138
  Beta virt. eigenvalues --    1.22201   1.22825   1.23331   1.23577   1.23604
  Beta virt. eigenvalues --    1.23682   1.24045   1.24199   1.24336   1.24542
  Beta virt. eigenvalues --    1.25129   1.25154   1.25591   1.25708   1.26008
  Beta virt. eigenvalues --    1.26436   1.26838   1.26881   1.27256   1.27513
  Beta virt. eigenvalues --    1.27911   1.28156   1.28343   1.33007   1.33464
  Beta virt. eigenvalues --    1.34383   1.34697   1.34884   1.35081   1.35406
  Beta virt. eigenvalues --    1.35937   1.36338   1.36588   1.36710   1.36730
  Beta virt. eigenvalues --    1.36833   1.36858   1.37122   1.37228   1.37695
  Beta virt. eigenvalues --    1.37781   1.37811   1.38002   1.38106   1.38550
  Beta virt. eigenvalues --    1.38580   1.38677   1.38833   1.39083   1.39136
  Beta virt. eigenvalues --    1.39149   1.39326   1.39608   1.39907   1.40263
  Beta virt. eigenvalues --    1.40311   1.40359   1.40534   1.40565   1.42091
  Beta virt. eigenvalues --    1.42333   1.42515   1.42517   1.43109   1.43225
  Beta virt. eigenvalues --    1.44229   1.44530   1.44584   1.44687   1.44904
  Beta virt. eigenvalues --    1.45140   1.45474   1.45611   1.45888   1.46313
  Beta virt. eigenvalues --    1.46486   1.46858   1.46972   1.47605   1.47653
  Beta virt. eigenvalues --    1.47904   1.48068   1.48090   1.48566   1.48970
  Beta virt. eigenvalues --    1.48978   1.49077   1.49667   1.49768   1.50024
  Beta virt. eigenvalues --    1.50201   1.50741   1.50793   1.50906   1.50934
  Beta virt. eigenvalues --    1.51595   1.51759   1.52245   1.52411   1.52736
  Beta virt. eigenvalues --    1.53218   1.53349   1.56149   1.56632   1.58286
  Beta virt. eigenvalues --    1.58439   1.59288   1.59374   1.59655   1.59708
  Beta virt. eigenvalues --    1.60741   1.62727   1.63243   1.63821   1.63989
  Beta virt. eigenvalues --    1.64681   1.67296   1.67768   1.68359   1.68520
  Beta virt. eigenvalues --    1.68990   1.69196   1.69263   1.69581   1.69756
  Beta virt. eigenvalues --    1.69855   1.70108   1.70348   1.70534   1.70632
  Beta virt. eigenvalues --    1.70725   1.71417   1.71609   1.71643   1.71720
  Beta virt. eigenvalues --    1.72218   1.72500   1.73483   1.73607   1.73732
  Beta virt. eigenvalues --    1.73916   1.74347   1.74708   1.74744   1.74977
  Beta virt. eigenvalues --    1.75148   1.76407   1.76836   1.77057   1.77605
  Beta virt. eigenvalues --    1.79119   1.79768   1.79954   1.80780   1.80988
  Beta virt. eigenvalues --    1.81147   1.81156   1.81462   1.81587   1.81597
  Beta virt. eigenvalues --    1.81933   1.83239   1.83630   1.83809   1.83884
  Beta virt. eigenvalues --    1.84063   1.84081   1.84335   1.84450   1.84771
  Beta virt. eigenvalues --    1.84797   1.84799   1.84868   1.85367   1.85622
  Beta virt. eigenvalues --    1.85666   1.85824   1.85837   1.86262   1.86480
  Beta virt. eigenvalues --    1.86874   1.87368   1.88164   1.88848   1.90111
  Beta virt. eigenvalues --    1.90204   1.90228   1.90246   1.90717   1.90947
  Beta virt. eigenvalues --    1.92063   1.92118   1.92199   1.92799   1.93426
  Beta virt. eigenvalues --    1.94571   1.94818   1.94840   1.95004   1.96510
  Beta virt. eigenvalues --    1.96765   1.97220   1.99172   1.99396   2.00040
  Beta virt. eigenvalues --    2.01193   2.02682   2.03630   2.03656   2.04090
  Beta virt. eigenvalues --    2.04555   2.06346   2.07431   2.09298   2.10992
  Beta virt. eigenvalues --    2.11454   2.11665   2.11929   2.14090   2.14651
[...]

              Baa    -0.0228    -3.060    -1.092    -1.021  0.4970  0.6666  0.5555
     1 C(13)  Bbb    -0.0190    -2.551    -0.910    -0.851  0.8658 -0.3378 -0.3692
              Bcc     0.0418     5.612     2.002     1.872  0.0585 -0.6644  0.7450
 
              Baa    -0.0297    -3.980    -1.420    -1.328  0.0000  0.9899  0.1418
     2 C(13)  Bbb    -0.0194    -2.601    -0.928    -0.868  1.0000 -0.0000  0.0001
              Bcc     0.0490     6.581     2.348     2.195 -0.0001 -0.1418  0.9899
 
              Baa    -0.0073    -0.979    -0.349    -0.327  0.0570  0.6734  0.7371
     3 C(13)  Bbb    -0.0037    -0.500    -0.178    -0.167  0.9779 -0.1864  0.0947
              Bcc     0.0110     1.479     0.528     0.493  0.2012  0.7154 -0.6691
 
              Baa    -0.0228    -3.061    -1.092    -1.021 -0.4971  0.6667  0.5554
     4 C(13)  Bbb    -0.0190    -2.552    -0.911    -0.851  0.8657  0.3378  0.3693
              Bcc     0.0418     5.613     2.003     1.872 -0.0586 -0.6644  0.7450
 
              Baa    -0.0392    -5.257    -1.876    -1.754  0.0000  0.9874  0.1581
     5 C(13)  Bbb    -0.0341    -4.572    -1.631    -1.525  1.0000 -0.0000  0.0000
              Bcc     0.0732     9.829     3.507     3.278 -0.0000 -0.1581  0.9874
 
              Baa    -0.0073    -0.979    -0.349    -0.327 -0.0568  0.6734  0.7371
     6 C(13)  Bbb    -0.0037    -0.500    -0.178    -0.167  0.9780  0.1861 -0.0947
              Bcc     0.0110     1.479     0.528     0.493 -0.2010  0.7154 -0.6692
 
              Baa    -0.0021    -1.116    -0.398    -0.372 -0.1143 -0.2951  0.9486
     7 H(1)   Bbb    -0.0000    -0.007    -0.003    -0.002  0.9888  0.0589  0.1375
              Bcc     0.0021     1.123     0.401     0.375 -0.0964  0.9537  0.2850
 
              Baa    -0.0026    -1.413    -0.504    -0.471  0.0788 -0.3378  0.9379
     8 H(1)   Bbb    -0.0013    -0.711    -0.254    -0.237  0.9928  0.1114 -0.0433
              Bcc     0.0040     2.124     0.758     0.709 -0.0899  0.9346  0.3441
 
              Baa    -0.0021    -1.116    -0.398    -0.372  0.1142 -0.2952  0.9486
     9 H(1)   Bbb    -0.0000    -0.007    -0.003    -0.002  0.9888 -0.0588 -0.1374
              Bcc     0.0021     1.123     0.401     0.375  0.0964  0.9536  0.2851
 
              Baa    -0.0391    -5.252    -1.874    -1.752  0.0000  0.9873 -0.1588
    10 C(13)  Bbb    -0.0340    -4.566    -1.629    -1.523  1.0000 -0.0000 -0.0000
              Bcc     0.0732     9.818     3.503     3.275  0.0000  0.1588  0.9873
 
              Baa    -0.0073    -0.981    -0.350    -0.327 -0.0557 -0.6736  0.7370
    11 C(13)  Bbb    -0.0037    -0.502    -0.179    -0.167  0.9782 -0.1847 -0.0948
              Bcc     0.0110     1.482     0.529     0.494  0.2000  0.7157  0.6692
 
              Baa    -0.0073    -0.980    -0.350    -0.327  0.0557 -0.6733  0.7372
    12 C(13)  Bbb    -0.0037    -0.501    -0.179    -0.167  0.9782  0.1848  0.0948
              Bcc     0.0110     1.481     0.529     0.494 -0.2000  0.7159  0.6690
 
              Baa    -0.0228    -3.057    -1.091    -1.020  0.4963  0.6663 -0.5566
    13 C(13)  Bbb    -0.0190    -2.548    -0.909    -0.850  0.8662 -0.3365  0.3695
              Bcc     0.0418     5.605     2.000     1.869 -0.0589  0.6655  0.7441
 
              Baa    -0.0228    -3.058    -1.091    -1.020 -0.4963  0.6663 -0.5566
    14 C(13)  Bbb    -0.0190    -2.548    -0.909    -0.850  0.8662  0.3365 -0.3695
              Bcc     0.0418     5.606     2.000     1.870  0.0590  0.6655  0.7441
 
              Baa    -0.0297    -3.982    -1.421    -1.328 -0.0001  0.9898 -0.1426
    15 C(13)  Bbb    -0.0194    -2.604    -0.929    -0.868  1.0000  0.0000 -0.0001
              Bcc     0.0491     6.585     2.350     2.197  0.0001  0.1426  0.9898
 
              Baa    -0.0021    -1.115    -0.398    -0.372  0.1144  0.2960  0.9483
    16 H(1)   Bbb    -0.0000    -0.008    -0.003    -0.003  0.9887  0.0591 -0.1377
              Bcc     0.0021     1.123     0.401     0.375 -0.0968  0.9534 -0.2859
 
              Baa    -0.0021    -1.115    -0.398    -0.372 -0.1143  0.2961  0.9483
    17 H(1)   Bbb    -0.0000    -0.007    -0.003    -0.002  0.9887 -0.0590  0.1375
              Bcc     0.0021     1.123     0.401     0.375  0.0966  0.9533 -0.2860
 
              Baa    -0.0026    -1.413    -0.504    -0.471  0.0782  0.3384  0.9378
    18 H(1)   Bbb    -0.0013    -0.709    -0.253    -0.237  0.9929 -0.1105 -0.0429
              Bcc     0.0040     2.122     0.757     0.708  0.0891  0.9345 -0.3446
 
              Baa    -0.0026    -1.413    -0.504    -0.471 -0.0779  0.3385  0.9377
    19 H(1)   Bbb    -0.0013    -0.709    -0.253    -0.237  0.9930  0.1105  0.0426
              Bcc     0.0040     2.123     0.757     0.708 -0.0892  0.9344 -0.3447
 
              Baa    -0.0026    -1.413    -0.504    -0.471 -0.0790 -0.3377  0.9379
    20 H(1)   Bbb    -0.0013    -0.710    -0.254    -0.237  0.9928 -0.1114  0.0435
              Bcc     0.0040     2.124     0.758     0.708  0.0898  0.9347  0.3440
 
              Baa    -0.2491    -9.609    -3.429    -3.205 -0.0008  0.9474  0.3201
    21 N(14)  Bbb    -0.2480    -9.566    -3.413    -3.191  1.0000  0.0008  0.0002
              Bcc     0.4972    19.175     6.842     6.396  0.0001 -0.3201  0.9474
 
              Baa    -0.0160    -2.149    -0.767    -0.717  0.6416  0.6889 -0.3372
    22 C(13)  Bbb     0.0041     0.556     0.199     0.186  0.6057 -0.1854  0.7738
              Bcc     0.0119     1.592     0.568     0.531 -0.4706  0.7007  0.5362
 
              Baa    -0.0271    -3.631    -1.295    -1.211  0.1038  0.5811  0.8072
    23 C(13)  Bbb    -0.0237    -3.174    -1.133    -1.059 -0.6452  0.6570 -0.3899
              Bcc     0.0507     6.804     2.428     2.270  0.7569  0.4803 -0.4431
 
              Baa    -0.0285    -3.828    -1.366    -1.277  0.7291 -0.5378  0.4234
    24 C(13)  Bbb    -0.0253    -3.400    -1.213    -1.134 -0.1005  0.5278  0.8434
              Bcc     0.0539     7.228     2.579     2.411  0.6770  0.6575 -0.3307
 
              Baa    -0.0183    -2.451    -0.874    -0.817 -0.5169 -0.5942  0.6162
    25 C(13)  Bbb     0.0080     1.073     0.383     0.358  0.6952  0.1287  0.7072
              Bcc     0.0103     1.378     0.492     0.460 -0.4996  0.7939  0.3466
 
              Baa    -0.0201    -2.691    -0.960    -0.898 -0.5589 -0.5350  0.6336
    26 C(13)  Bbb     0.0087     1.169     0.417     0.390  0.6248  0.2306  0.7459
              Bcc     0.0113     1.522     0.543     0.508 -0.5452  0.8128  0.2054
 
              Baa    -0.0317    -4.252    -1.517    -1.418  0.6803  0.2048  0.7037
    27 C(13)  Bbb    -0.0285    -3.829    -1.366    -1.277 -0.5265  0.8046  0.2748
              Bcc     0.0602     8.081     2.884     2.696 -0.5099 -0.5574  0.6552
 
              Baa    -0.0021    -1.134    -0.405    -0.378  0.2733  0.8135 -0.5133
    28 H(1)   Bbb    -0.0011    -0.593    -0.212    -0.198  0.7514 -0.5137 -0.4142
              Bcc     0.0032     1.728     0.616     0.576  0.6006  0.2725  0.7516
 
              Baa    -0.0023    -1.206    -0.430    -0.402 -0.6011 -0.5126  0.6131
    29 H(1)   Bbb    -0.0008    -0.421    -0.150    -0.140 -0.2678  0.8520  0.4498
              Bcc     0.0030     1.627     0.581     0.543  0.7529 -0.1062  0.6495
 
              Baa    -0.0011    -0.603    -0.215    -0.201  0.5781  0.5867 -0.5671
    30 H(1)   Bbb     0.0002     0.118     0.042     0.039  0.7168 -0.0331  0.6965
              Bcc     0.0009     0.485     0.173     0.162 -0.3899  0.8091  0.4397
 
              Baa    -0.0012    -0.633    -0.226    -0.211  0.5825  0.6069 -0.5408
    31 H(1)   Bbb    -0.0000    -0.003    -0.001    -0.001  0.4848  0.2746  0.8304
              Bcc     0.0012     0.636     0.227     0.212 -0.6524  0.7458  0.1343
 
              Baa    -0.0041    -2.167    -0.773    -0.723  0.6744  0.1575  0.7214
    32 H(1)   Bbb    -0.0004    -0.233    -0.083    -0.078 -0.5382 -0.5640  0.6263
              Bcc     0.0045     2.400     0.856     0.800 -0.5055  0.8106  0.2956
 
              Baa    -0.0160    -2.147    -0.766    -0.716 -0.6422  0.6887 -0.3364
    33 C(13)  Bbb     0.0041     0.556     0.199     0.186 -0.6050 -0.1861  0.7741
              Bcc     0.0119     1.591     0.568     0.531  0.4706  0.7007  0.5362
 
              Baa    -0.0270    -3.628    -1.294    -1.210 -0.1037  0.5806  0.8075
    34 C(13)  Bbb    -0.0236    -3.171    -1.131    -1.058  0.6444  0.6576 -0.3901
              Bcc     0.0507     6.798     2.426     2.268  0.7576 -0.4800  0.4424
 
              Baa    -0.0285    -3.825    -1.365    -1.276  0.7286  0.5379 -0.4241
    35 C(13)  Bbb    -0.0253    -3.397    -1.212    -1.133  0.1014  0.5276  0.8434
              Bcc     0.0538     7.222     2.577     2.409  0.6774 -0.6575  0.3299
 
              Baa    -0.0182    -2.448    -0.874    -0.817  0.5175 -0.5943  0.6157
    36 C(13)  Bbb     0.0080     1.072     0.382     0.357 -0.6944  0.1288  0.7080
              Bcc     0.0103     1.377     0.491     0.459  0.5000  0.7939  0.3460
 
              Baa    -0.0200    -2.689    -0.959    -0.897  0.5596 -0.5349  0.6331
    37 C(13)  Bbb     0.0087     1.168     0.417     0.390 -0.6248  0.2296  0.7463
              Bcc     0.0113     1.521     0.543     0.507  0.5445  0.8131  0.2058
 
              Baa    -0.0317    -4.248    -1.516    -1.417 -0.6800  0.2043  0.7042
    38 C(13)  Bbb    -0.0285    -3.825    -1.365    -1.276  0.5263  0.8047  0.2747
              Bcc     0.0602     8.072     2.880     2.693  0.5105 -0.5574  0.6547
 
              Baa    -0.0021    -1.134    -0.404    -0.378 -0.2748  0.8129 -0.5135
    39 H(1)   Bbb    -0.0011    -0.592    -0.211    -0.198  0.7508  0.5151  0.4136
              Bcc     0.0032     1.726     0.616     0.576 -0.6007  0.2718  0.7519
 
              Baa    -0.0023    -1.206    -0.430    -0.402  0.6014 -0.5130  0.6125
    40 H(1)   Bbb    -0.0008    -0.420    -0.150    -0.140  0.2687  0.8518  0.4497
              Bcc     0.0030     1.625     0.580     0.542  0.7524  0.1059 -0.6501
 
              Baa    -0.0011    -0.603    -0.215    -0.201 -0.5787  0.5867 -0.5665
    41 H(1)   Bbb     0.0002     0.118     0.042     0.039  0.7159  0.0328 -0.6974
              Bcc     0.0009     0.484     0.173     0.162  0.3906  0.8092  0.4390
 
              Baa    -0.0012    -0.632    -0.226    -0.211 -0.5830  0.6068 -0.5402
    42 H(1)   Bbb    -0.0000    -0.003    -0.001    -0.001 -0.4848  0.2737  0.8307
              Bcc     0.0012     0.635     0.227     0.212  0.6519  0.7462  0.1346
 
              Baa    -0.0041    -2.165    -0.772    -0.722 -0.6740  0.1570  0.7219
    43 H(1)   Bbb    -0.0004    -0.233    -0.083    -0.078  0.5388 -0.5640  0.6257
              Bcc     0.0045     2.397     0.855     0.800  0.5054  0.8107  0.2955
 
              Baa    -0.2491    -9.609    -3.429    -3.205 -0.0004  0.9474 -0.3201
    44 N(14)  Bbb    -0.2480    -9.566    -3.413    -3.191  1.0000  0.0004 -0.0001
              Bcc     0.4972    19.174     6.842     6.396 -0.0001  0.3201  0.9474
 
              Baa    -0.0160    -2.148    -0.766    -0.716  0.6422  0.6887  0.3366
    45 C(13)  Bbb     0.0041     0.557     0.199     0.186 -0.6050  0.1858  0.7742
              Bcc     0.0119     1.591     0.568     0.531 -0.4707  0.7009 -0.5360
 
              Baa    -0.0270    -3.627    -1.294    -1.210 -0.1036 -0.5807  0.8075
    46 C(13)  Bbb    -0.0236    -3.170    -1.131    -1.057 -0.6446  0.6575  0.3902
              Bcc     0.0507     6.797     2.425     2.267  0.7575  0.4801  0.4424
 
              Baa    -0.0285    -3.824    -1.365    -1.276  0.7287 -0.5377 -0.4241
    47 C(13)  Bbb    -0.0253    -3.397    -1.212    -1.133  0.1015 -0.5276  0.8434
              Bcc     0.0538     7.221     2.577     2.409  0.6773  0.6576  0.3299
 
              Baa    -0.0182    -2.448    -0.873    -0.817  0.5172  0.5944  0.6157
    48 C(13)  Bbb     0.0080     1.071     0.382     0.357 -0.6943 -0.1292  0.7080
              Bcc     0.0103     1.377     0.491     0.459 -0.5004  0.7937 -0.3459
 
              Baa    -0.0200    -2.689    -0.959    -0.897  0.5594  0.5350  0.6331
    49 C(13)  Bbb     0.0087     1.168     0.417     0.390 -0.6248 -0.2298  0.7462
              Bcc     0.0113     1.521     0.543     0.507 -0.5447  0.8130 -0.2058
 
              Baa    -0.0316    -4.247    -1.515    -1.417 -0.6799 -0.2045  0.7042
    50 C(13)  Bbb    -0.0285    -3.824    -1.365    -1.276 -0.5265  0.8046 -0.2747
              Bcc     0.0601     8.071     2.880     2.692  0.5103  0.5575  0.6548
 
              Baa    -0.0021    -1.134    -0.405    -0.378  0.2745  0.8130  0.5135
    51 H(1)   Bbb    -0.0011    -0.592    -0.211    -0.198  0.7508 -0.5148  0.4139
              Bcc     0.0032     1.726     0.616     0.576 -0.6008 -0.2719  0.7517
 
              Baa    -0.0023    -1.205    -0.430    -0.402  0.6012  0.5133  0.6124
    52 H(1)   Bbb    -0.0008    -0.420    -0.150    -0.140 -0.2689  0.8517 -0.4499
              Bcc     0.0030     1.625     0.580     0.542  0.7525 -0.1057 -0.6500
 
              Baa    -0.0011    -0.603    -0.215    -0.201  0.5785  0.5869  0.5665
    53 H(1)   Bbb     0.0002     0.118     0.042     0.039  0.7159 -0.0324 -0.6975
              Bcc     0.0009     0.484     0.173     0.162 -0.3909  0.8090 -0.4389
 
              Baa    -0.0012    -0.632    -0.226    -0.211  0.5829  0.6069  0.5403
    54 H(1)   Bbb    -0.0000    -0.003    -0.001    -0.001 -0.4848 -0.2738  0.8307
              Bcc     0.0012     0.635     0.227     0.212 -0.6521  0.7461 -0.1346
 
              Baa    -0.0041    -2.164    -0.772    -0.722 -0.6740 -0.1572  0.7218
    55 H(1)   Bbb    -0.0004    -0.232    -0.083    -0.078  0.5387  0.5642  0.6258
              Bcc     0.0045     2.397     0.855     0.800 -0.5056  0.8106 -0.2956
 
              Baa    -0.0160    -2.147    -0.766    -0.716 -0.6423  0.6888  0.3362
    56 C(13)  Bbb     0.0041     0.557     0.199     0.186  0.6049  0.1862  0.7743
              Bcc     0.0119     1.591     0.568     0.531  0.4707  0.7007 -0.5362
 
              Baa    -0.0270    -3.626    -1.294    -1.210  0.1036 -0.5805  0.8077
    57 C(13)  Bbb    -0.0236    -3.169    -1.131    -1.057  0.6443  0.6578  0.3901
              Bcc     0.0506     6.795     2.425     2.267  0.7577 -0.4800 -0.4421
 
              Baa    -0.0285    -3.823    -1.364    -1.275  0.7285  0.5379  0.4243
    58 C(13)  Bbb    -0.0253    -3.395    -1.211    -1.132 -0.1018 -0.5274  0.8435
              Bcc     0.0538     7.218     2.576     2.408  0.6774 -0.6577 -0.3294
 
              Baa    -0.0182    -2.447    -0.873    -0.816 -0.5175  0.5945  0.6155
    59 C(13)  Bbb     0.0080     1.071     0.382     0.357  0.6940 -0.1291  0.7083
              Bcc     0.0103     1.376     0.491     0.459  0.5005  0.7937 -0.3458
 
              Baa    -0.0200    -2.688    -0.959    -0.897 -0.5596  0.5351  0.6328
    60 C(13)  Bbb     0.0087     1.167     0.417     0.389  0.6248 -0.2293  0.7464
              Bcc     0.0113     1.520     0.542     0.507  0.5445  0.8131 -0.2060
 
              Baa    -0.0316    -4.245    -1.515    -1.416  0.6798 -0.2043  0.7044
    61 C(13)  Bbb    -0.0285    -3.822    -1.364    -1.275  0.5265  0.8046 -0.2747
              Bcc     0.0601     8.068     2.879     2.691 -0.5106  0.5576  0.6545
 
              Baa    -0.0021    -1.134    -0.405    -0.378 -0.2750  0.8129  0.5134
    62 H(1)   Bbb    -0.0011    -0.592    -0.211    -0.197  0.7505  0.5152 -0.4138
              Bcc     0.0032     1.726     0.616     0.576  0.6009 -0.2716  0.7518
 
              Baa    -0.0023    -1.205    -0.430    -0.402 -0.6013  0.5135  0.6121
    63 H(1)   Bbb    -0.0008    -0.419    -0.149    -0.140  0.2692  0.8515 -0.4500
              Bcc     0.0030     1.624     0.580     0.542  0.7523  0.1058  0.6503
 
              Baa    -0.0011    -0.602    -0.215    -0.201 -0.5787  0.5869  0.5662
    64 H(1)   Bbb     0.0002     0.118     0.042     0.039  0.7156  0.0324  0.6978
              Bcc     0.0009     0.484     0.173     0.162  0.3912  0.8090 -0.4387
 
              Baa    -0.0012    -0.632    -0.226    -0.211 -0.5831  0.6070  0.5400
    65 H(1)   Bbb    -0.0000    -0.003    -0.001    -0.001  0.4848 -0.2734  0.8308
              Bcc     0.0012     0.635     0.227     0.212  0.6519  0.7462 -0.1348
 
              Baa    -0.0041    -2.164    -0.772    -0.722  0.6738 -0.1569  0.7221
    66 H(1)   Bbb    -0.0004    -0.232    -0.083    -0.078 -0.5389  0.5642  0.6255
              Bcc     0.0045     2.396     0.855     0.799  0.5055  0.8106 -0.2956
 

 ---------------------------------------------------------------------------------

 No NMR shielding tensors so no spin-rotation constants.
 Leave Link  601 at Sun Jan 17 23:52:10 2021, MaxMem=  4026531840 cpu:              11.0 elap:               1.5
 (Enter /opt/ohpc/pub/libs/gaussian/g16-A.03/sandybridge/g16/l9999.exe)

 Test job not archived.
 1\1\GINC-CASCADEB019\SP\ULC-wHPBE\TZVP\C36H28N2(1+,2)\RDU230\17-Jan-20
 21\0\\#P LC-wHPBE/TZVP iop(3/107=0156200000, 3/108=0156200000) scf=(co
 nver=6,fermi,ndamp=35,noincfock,novaracc,vshift=500,xqc)\\H28 C36 N2\\
 1,2\C,0,2.849999,-1.125861,0.415638\C,0,3.563139,-0.000026,-0.000017\C
 ,0,1.464492,-1.123667,0.405534\C,0,2.850033,1.125752,-0.415809\C,0,0.7
 41288,-0.000047,-0.000195\C,0,1.464504,1.123547,-0.405879\H,0,0.931596
 ,-2.005844,0.756198\H,0,3.391048,2.006254,-0.75499\H,0,0.931669,2.0057
 28,-0.756629\C,0,-0.741437,-0.000073,-0.000217\C,0,-1.464635,1.123165,
 0.406556\C,0,-1.464638,-1.123302,-0.406976\C,0,-2.850149,1.125343,0.41
 661\C,0,-2.850163,-1.125491,-0.416935\C,0,-3.563257,-0.000095,-0.00011
 6\H,0,-0.931751,2.005025,0.758038\H,0,-0.931783,-2.00514,-0.758553\H,0
 ,-3.391193,2.005527,0.756576\H,0,-3.391211,-2.005669,-0.756913\H,0,3.3
 91005,-2.006357,0.754845\N,0,-4.97843,-0.000102,-0.000065\C,0,-5.68709
 9,-1.154578,0.414287\C,0,-6.831881,-1.566674,-0.27115\C,0,-5.251323,-1
 .896933,1.513908\C,0,-7.528311,-2.692826,0.143324\C,0,-5.943392,-3.032
 223,1.91044\C,0,-7.087522,-3.435368,1.232277\H,0,-7.173684,-0.995181,-
 1.131117\H,0,-4.363437,-1.577947,2.055099\H,0,-8.419174,-2.999763,-0.4
 0155\H,0,-5.58986,-3.599797,2.769285\H,0,-7.631852,-4.321852,1.550225\
 C,0,-5.687025,1.154532,-0.414292\C,0,-6.831191,1.567225,0.271802\C,0,-
 5.251707,1.896381,-1.514415\C,0,-7.527485,2.693516,-0.142525\C,0,-5.94
 362,3.031828,-1.910808\C,0,-7.087137,3.435581,-1.231989\H,0,-7.172616,
 0.996083,1.132151\H,0,-4.364291,1.57691,-2.056093\H,0,-8.417875,3.0009
 45,0.402845\H,0,-5.590451,3.599029,-2.77005\H,0,-7.63135,4.322181,-1.5
 49815\N,0,4.978266,0.00002,0.000103\C,0,5.68699,1.154558,0.414335\C,0,
 6.831289,1.56698,-0.271699\C,0,5.251761,1.896543,1.51441\C,0,7.527834,
 2.693112,0.142653\C,0,5.943923,3.031822,1.910819\C,0,7.08759,3.435293,
 1.232069\H,0,7.172649,0.995729,-1.132\H,0,4.364233,1.577285,2.056034\H
 ,0,8.418333,3.000297,-0.402674\H,0,5.59085,3.599137,2.770027\H,0,7.631
 979,4.321768,1.549941\C,0,5.687017,-1.154516,-0.414141\C,0,6.831068,-1
 .567191,0.272109\C,0,5.251977,-1.896199,-1.514492\C,0,7.527566,-2.6933
 48,-0.142281\C,0,5.944079,-3.031486,-1.910953\C,0,7.087509,-3.435246,-
 1.231958\H,0,7.172277,-0.996155,1.132614\H,0,4.364636,-1.576682,-2.056
 275\H,0,8.417864,-3.000787,0.403227\H,0,5.591165,-3.598572,-2.770374\H
 ,0,7.631874,-4.32173,-1.549857\\Version=EM64L-G16RevA.03\State=2-A\HF=
 -1496.9249926\S2=0.768237\S2-1=0.\S2A=0.750191\RMSD=8.729e-07\Dipole=0
 .0000877,0.0000972,-0.0000446\Quadrupole=73.5486922,-24.2148322,-49.33
 386,-0.0045329,-0.0004205,0.0023154\PG=C01 [X(C36H28N2)]\\@


 THE REASON MAN'S BEST FRIEND IS A DOG IS BECAUSE
 HE WAGS HIS TAIL INSTEAD OF HIS TONGUE.
 Job cpu time:       0 days  3 hours 51 minutes 24.2 seconds.
 Elapsed time:       0 days  0 hours 29 minutes 16.3 seconds.
 File lengths (MBytes):  RWF=    428 Int=      0 D2E=      0 Chk=     60 Scr=      8
 Normal termination of Gaussian 16 at Sun Jan 17 23:52:10 2021.
