 Entering Gaussian System, Link 0=g16
 Input=mol_bp_pa_whol_tune_n8.gjf
 Output=mol_bp_pa_whol_tune_n8.log
 Initial command:
 /opt/ohpc/pub/libs/gaussian/g16-A.03/sandybridge/g16/l1.exe "/mnt/gpfs2_4m/scratch/rdu230/ondemand/projects/init_structures/wtuning/mol_bp_pa_whol/tuning_mol_bp_pa_whol_ocycle0/Gau-130221.inp" -scrdir="/mnt/gpfs2_4m/scratch/rdu230/ondemand/projects/init_structures/wtuning/mol_bp_pa_whol/tuning_mol_bp_pa_whol_ocycle0/"
 Entering Link 1 = /opt/ohpc/pub/libs/gaussian/g16-A.03/sandybridge/g16/l1.exe PID=    130222.
  
 Copyright (c) 1988,1990,1992,1993,1995,1998,2003,2009,2016,
            Gaussian, Inc.  All Rights Reserved.
  
 This is part of the Gaussian(R) 16 program.  It is based on
 the Gaussian(R) 09 system (copyright 2009, Gaussian, Inc.),
 the Gaussian(R) 03 system (copyright 2003, Gaussian, Inc.),
 the Gaussian(R) 98 system (copyright 1998, Gaussian, Inc.),
 the Gaussian(R) 94 system (copyright 1995, Gaussian, Inc.),
 the Gaussian 92(TM) system (copyright 1992, Gaussian, Inc.),
 the Gaussian 90(TM) system (copyright 1990, Gaussian, Inc.),
 the Gaussian 88(TM) system (copyright 1988, Gaussian, Inc.),
 the Gaussian 86(TM) system (copyright 1986, Carnegie Mellon
 University), and the Gaussian 82(TM) system (copyright 1983,
 Carnegie Mellon University). Gaussian is a federally registered
 trademark of Gaussian, Inc.
  
 This software contains proprietary and confidential information,
 including trade secrets, belonging to Gaussian, Inc.
  
 This software is provided under written license and may be
 used, copied, transmitted, or stored only in accord with that
 written license.
  
 The following legend is applicable only to US Government
 contracts under FAR:
  
                    RESTRICTED RIGHTS LEGEND
  
 Use, reproduction and disclosure by the US Government is
 subject to restrictions as set forth in subparagraphs (a)
 and (c) of the Commercial Computer Software - Restricted
 Rights clause in FAR 52.227-19.
  
 Gaussian, Inc.
 340 Quinnipiac St., Bldg. 40, Wallingford CT 06492
  
  
 ---------------------------------------------------------------
 Warning -- This program may not be used in any manner that
 competes with the business of Gaussian, Inc. or will provide
 assistance to any competitor of Gaussian, Inc.  The licensee
 of this program is prohibited from giving any competitor of
 Gaussian, Inc. access to this program.  By using this program,
 the user acknowledges that Gaussian, Inc. is engaged in the
 business of creating and licensing software in the field of
 computational chemistry and represents and warrants to the
 licensee that it is not a competitor of Gaussian, Inc. and that
 it will not use this program in any manner prohibited above.
 ---------------------------------------------------------------
  

 Cite this work as:
 Gaussian 16, Revision A.03,
 M. J. Frisch, G. W. Trucks, H. B. Schlegel, G. E. Scuseria, 
 M. A. Robb, J. R. Cheeseman, G. Scalmani, V. Barone, 
 G. A. Petersson, H. Nakatsuji, X. Li, M. Caricato, A. V. Marenich, 
 J. Bloino, B. G. Janesko, R. Gomperts, B. Mennucci, H. P. Hratchian, 
 J. V. Ortiz, A. F. Izmaylov, J. L. Sonnenberg, D. Williams-Young, 
 F. Ding, F. Lipparini, F. Egidi, J. Goings, B. Peng, A. Petrone, 
 T. Henderson, D. Ranasinghe, V. G. Zakrzewski, J. Gao, N. Rega, 
 G. Zheng, W. Liang, M. Hada, M. Ehara, K. Toyota, R. Fukuda, 
 J. Hasegawa, M. Ishida, T. Nakajima, Y. Honda, O. Kitao, H. Nakai, 
 T. Vreven, K. Throssell, J. A. Montgomery, Jr., J. E. Peralta, 
 F. Ogliaro, M. J. Bearpark, J. J. Heyd, E. N. Brothers, K. N. Kudin, 
 V. N. Staroverov, T. A. Keith, R. Kobayashi, J. Normand, 
 K. Raghavachari, A. P. Rendell, J. C. Burant, S. S. Iyengar, 
 J. Tomasi, M. Cossi, J. M. Millam, M. Klene, C. Adamo, R. Cammi, 
 J. W. Ochterski, R. L. Martin, K. Morokuma, O. Farkas, 
 J. B. Foresman, and D. J. Fox, Gaussian, Inc., Wallingford CT, 2016.
 
 ******************************************
 Gaussian 16:  EM64L-G16RevA.03 25-Dec-2016
                18-Jan-2021 
 ******************************************
 %mem=30GB
 %nproc=8
 Will use up to    8 processors via shared memory.
 ----------------------------------------------------------------------
 #P LC-wHPBE/TZVP iop(3/107=0176900000, 3/108=0176900000) scf=(conver=6
 ,fermi,ndamp=35,noincfock,novaracc,vshift=500,xqc)
 ----------------------------------------------------------------------
 1/38=1,172=1/1;
 2/12=2,17=6,18=5,40=1/2;
 3/5=19,7=101,11=2,25=1,30=1,74=-71,107=176900000,108=176900000/1,2,3;
 4//1;
 5/5=100002,6=6,8=3,10=500,13=1,18=-1,22=13,38=1,93=35/2,8;
 6/7=2,8=2,9=2,10=2,28=1/1;
 99/5=1,9=1/99;
 Leave Link    1 at Mon Jan 18 03:34:24 2021, MaxMem=  4026531840 cpu:               1.7 elap:               0.3
 (Enter /opt/ohpc/pub/libs/gaussian/g16-A.03/sandybridge/g16/l101.exe)
 ----------
 H28 C36 N2
 ----------
 Symbolic Z-matrix:
 Charge =  0 Multiplicity = 1
 C                     2.85     -1.12586   0.41564 
 C                     3.56314  -0.00003  -0.00002 
 C                     1.46449  -1.12367   0.40553 
 C                     2.85003   1.12575  -0.41581 
 C                     0.74129  -0.00005  -0.0002 
 C                     1.4645    1.12355  -0.40588 
 H                     0.9316   -2.00584   0.7562 
 H                     3.39105   2.00625  -0.75499 
 H                     0.93167   2.00573  -0.75663 
 C                    -0.74144  -0.00007  -0.00022 
 C                    -1.46464   1.12316   0.40656 
 C                    -1.46464  -1.1233   -0.40698 
 C                    -2.85015   1.12534   0.41661 
 C                    -2.85016  -1.12549  -0.41694 
 C                    -3.56326  -0.0001   -0.00012 
 H                    -0.93175   2.00502   0.75804 
 H                    -0.93178  -2.00514  -0.75855 
 H                    -3.39119   2.00553   0.75658 
 H                    -3.39121  -2.00567  -0.75691 
 H                     3.39101  -2.00636   0.75485 
 N                    -4.97843  -0.0001   -0.00007 
 C                    -5.6871   -1.15458   0.41429 
 C                    -6.83188  -1.56667  -0.27115 
 C                    -5.25132  -1.89693   1.51391 
 C                    -7.52831  -2.69283   0.14332 
 C                    -5.94339  -3.03222   1.91044 
 C                    -7.08752  -3.43537   1.23228 
 H                    -7.17368  -0.99518  -1.13112 
 H                    -4.36344  -1.57795   2.0551 
 H                    -8.41917  -2.99976  -0.40155 
 H                    -5.58986  -3.5998    2.76929 
 H                    -7.63185  -4.32185   1.55023 
 C                    -5.68703   1.15453  -0.41429 
 C                    -6.83119   1.56723   0.2718 
 C                    -5.25171   1.89638  -1.51442 
 C                    -7.52749   2.69352  -0.14253 
 C                    -5.94362   3.03183  -1.91081 
 C                    -7.08714   3.43558  -1.23199 
 H                    -7.17262   0.99608   1.13215 
 H                    -4.36429   1.57691  -2.05609 
 H                    -8.41788   3.00095   0.40285 
 H                    -5.59045   3.59903  -2.77005 
 H                    -7.63135   4.32218  -1.54982 
 N                     4.97827   0.00002   0.0001 
 C                     5.68699   1.15456   0.41434 
 C                     6.83129   1.56698  -0.2717 
 C                     5.25176   1.89654   1.51441 
 C                     7.52783   2.69311   0.14265 
 C                     5.94392   3.03182   1.91082 
 C                     7.08759   3.43529   1.23207 
 H                     7.17265   0.99573  -1.132 
 H                     4.36423   1.57729   2.05603 
 H                     8.41833   3.0003   -0.40267 
 H                     5.59085   3.59914   2.77003 
 H                     7.63198   4.32177   1.54994 
 C                     5.68702  -1.15452  -0.41414 
 C                     6.83107  -1.56719   0.27211 
 C                     5.25198  -1.8962   -1.51449 
 C                     7.52757  -2.69335  -0.14228 
 C                     5.94408  -3.03149  -1.91095 
 C                     7.08751  -3.43525  -1.23196 
 H                     7.17228  -0.99616   1.13261 
 H                     4.36464  -1.57668  -2.05627 
 H                     8.41786  -3.00079   0.40323 
 H                     5.59117  -3.59857  -2.77037 
 H                     7.63187  -4.32173  -1.54986 
 
 ITRead=  0  0  0  0  0  0  0  0  0  0  0  0  0  0  0  0  0  0  0  0
 ITRead=  0  0  0  0  0  0  0  0  0  0  0  0  0  0  0  0  0  0  0  0
 ITRead=  0  0  0  0  0  0  0  0  0  0  0  0  0  0  0  0  0  0  0  0
 ITRead=  0  0  0  0  0  0
 MicOpt= -1 -1 -1 -1 -1 -1 -1 -1 -1 -1 -1 -1 -1 -1 -1 -1 -1 -1 -1 -1
 MicOpt= -1 -1 -1 -1 -1 -1 -1 -1 -1 -1 -1 -1 -1 -1 -1 -1 -1 -1 -1 -1
 MicOpt= -1 -1 -1 -1 -1 -1 -1 -1 -1 -1 -1 -1 -1 -1 -1 -1 -1 -1 -1 -1
 MicOpt= -1 -1 -1 -1 -1 -1
 NAtoms=     66 NQM=       66 NQMF=       0 NMMI=      0 NMMIF=      0
                NMic=       0 NMicF=      0.
                    Isotopes and Nuclear Properties:
 (Nuclear quadrupole moments (NQMom) in fm**2, nuclear magnetic moments (NMagM)
  in nuclear magnetons)

  Atom         1           2           3           4           5           6           7           8           9          10
 IAtWgt=          12          12          12          12          12          12           1           1           1          12
 AtmWgt=  12.0000000  12.0000000  12.0000000  12.0000000  12.0000000  12.0000000   1.0078250   1.0078250   1.0078250  12.0000000
 NucSpn=           0           0           0           0           0           0           1           1           1           0
 AtZEff=  -0.0000000  -0.0000000  -0.0000000  -0.0000000  -0.0000000  -0.0000000  -0.0000000  -0.0000000  -0.0000000  -0.0000000
 NQMom=    0.0000000   0.0000000   0.0000000   0.0000000   0.0000000   0.0000000   0.0000000   0.0000000   0.0000000   0.0000000
 NMagM=    0.0000000   0.0000000   0.0000000   0.0000000   0.0000000   0.0000000   2.7928460   2.7928460   2.7928460   0.0000000
 AtZNuc=   6.0000000   6.0000000   6.0000000   6.0000000   6.0000000   6.0000000   1.0000000   1.0000000   1.0000000   6.0000000

  Atom        11          12          13          14          15          16          17          18          19          20
 IAtWgt=          12          12          12          12          12           1           1           1           1           1
 AtmWgt=  12.0000000  12.0000000  12.0000000  12.0000000  12.0000000   1.0078250   1.0078250   1.0078250   1.0078250   1.0078250
 NucSpn=           0           0           0           0           0           1           1           1           1           1
 AtZEff=  -0.0000000  -0.0000000  -0.0000000  -0.0000000  -0.0000000  -0.0000000  -0.0000000  -0.0000000  -0.0000000  -0.0000000
 NQMom=    0.0000000   0.0000000   0.0000000   0.0000000   0.0000000   0.0000000   0.0000000   0.0000000   0.0000000   0.0000000
 NMagM=    0.0000000   0.0000000   0.0000000   0.0000000   0.0000000   2.7928460   2.7928460   2.7928460   2.7928460   2.7928460
 AtZNuc=   6.0000000   6.0000000   6.0000000   6.0000000   6.0000000   1.0000000   1.0000000   1.0000000   1.0000000   1.0000000

  Atom        21          22          23          24          25          26          27          28          29          30
 IAtWgt=          14          12          12          12          12          12          12           1           1           1
 AtmWgt=  14.0030740  12.0000000  12.0000000  12.0000000  12.0000000  12.0000000  12.0000000   1.0078250   1.0078250   1.0078250
 NucSpn=           2           0           0           0           0           0           0           1           1           1
 AtZEff=  -0.0000000  -0.0000000  -0.0000000  -0.0000000  -0.0000000  -0.0000000  -0.0000000  -0.0000000  -0.0000000  -0.0000000
 NQMom=    2.0440000   0.0000000   0.0000000   0.0000000   0.0000000   0.0000000   0.0000000   0.0000000   0.0000000   0.0000000
 NMagM=    0.4037610   0.0000000   0.0000000   0.0000000   0.0000000   0.0000000   0.0000000   2.7928460   2.7928460   2.7928460
 AtZNuc=   7.0000000   6.0000000   6.0000000   6.0000000   6.0000000   6.0000000   6.0000000   1.0000000   1.0000000   1.0000000

  Atom        31          32          33          34          35          36          37          38          39          40
 IAtWgt=           1           1          12          12          12          12          12          12           1           1
 AtmWgt=   1.0078250   1.0078250  12.0000000  12.0000000  12.0000000  12.0000000  12.0000000  12.0000000   1.0078250   1.0078250
 NucSpn=           1           1           0           0           0           0           0           0           1           1
 AtZEff=  -0.0000000  -0.0000000  -0.0000000  -0.0000000  -0.0000000  -0.0000000  -0.0000000  -0.0000000  -0.0000000  -0.0000000
 NQMom=    0.0000000   0.0000000   0.0000000   0.0000000   0.0000000   0.0000000   0.0000000   0.0000000   0.0000000   0.0000000
 NMagM=    2.7928460   2.7928460   0.0000000   0.0000000   0.0000000   0.0000000   0.0000000   0.0000000   2.7928460   2.7928460
 AtZNuc=   1.0000000   1.0000000   6.0000000   6.0000000   6.0000000   6.0000000   6.0000000   6.0000000   1.0000000   1.0000000

  Atom        41          42          43          44          45          46          47          48          49          50
 IAtWgt=           1           1           1          14          12          12          12          12          12          12
 AtmWgt=   1.0078250   1.0078250   1.0078250  14.0030740  12.0000000  12.0000000  12.0000000  12.0000000  12.0000000  12.0000000
 NucSpn=           1           1           1           2           0           0           0           0           0           0
 AtZEff=  -0.0000000  -0.0000000  -0.0000000  -0.0000000  -0.0000000  -0.0000000  -0.0000000  -0.0000000  -0.0000000  -0.0000000
 NQMom=    0.0000000   0.0000000   0.0000000   2.0440000   0.0000000   0.0000000   0.0000000   0.0000000   0.0000000   0.0000000
 NMagM=    2.7928460   2.7928460   2.7928460   0.4037610   0.0000000   0.0000000   0.0000000   0.0000000   0.0000000   0.0000000
 AtZNuc=   1.0000000   1.0000000   1.0000000   7.0000000   6.0000000   6.0000000   6.0000000   6.0000000   6.0000000   6.0000000

  Atom        51          52          53          54          55          56          57          58          59          60
 IAtWgt=           1           1           1           1           1          12          12          12          12          12
 AtmWgt=   1.0078250   1.0078250   1.0078250   1.0078250   1.0078250  12.0000000  12.0000000  12.0000000  12.0000000  12.0000000
 NucSpn=           1           1           1           1           1           0           0           0           0           0
 AtZEff=  -0.0000000  -0.0000000  -0.0000000  -0.0000000  -0.0000000  -0.0000000  -0.0000000  -0.0000000  -0.0000000  -0.0000000
 NQMom=    0.0000000   0.0000000   0.0000000   0.0000000   0.0000000   0.0000000   0.0000000   0.0000000   0.0000000   0.0000000
 NMagM=    2.7928460   2.7928460   2.7928460   2.7928460   2.7928460   0.0000000   0.0000000   0.0000000   0.0000000   0.0000000
 AtZNuc=   1.0000000   1.0000000   1.0000000   1.0000000   1.0000000   6.0000000   6.0000000   6.0000000   6.0000000   6.0000000

  Atom        61          62          63          64          65          66
 IAtWgt=          12           1           1           1           1           1
 AtmWgt=  12.0000000   1.0078250   1.0078250   1.0078250   1.0078250   1.0078250
 NucSpn=           0           1           1           1           1           1
 AtZEff=  -0.0000000  -0.0000000  -0.0000000  -0.0000000  -0.0000000  -0.0000000
 NQMom=    0.0000000   0.0000000   0.0000000   0.0000000   0.0000000   0.0000000
 NMagM=    0.0000000   2.7928460   2.7928460   2.7928460   2.7928460   2.7928460
 AtZNuc=   6.0000000   1.0000000   1.0000000   1.0000000   1.0000000   1.0000000
 Leave Link  101 at Mon Jan 18 03:34:24 2021, MaxMem=  4026531840 cpu:               0.8 elap:               0.1
 (Enter /opt/ohpc/pub/libs/gaussian/g16-A.03/sandybridge/g16/l202.exe)
 Stoichiometry    C36H28N2
 Framework group  C1[X(C36H28N2)]
 Deg. of freedom   192
 Full point group                 C1      NOp   1
 Largest Abelian subgroup         C1      NOp   1
 Largest concise Abelian subgroup C1      NOp   1
                         Standard orientation:                         
 ---------------------------------------------------------------------
 Center     Atomic      Atomic             Coordinates (Angstroms)
 Number     Number       Type             X           Y           Z
 ---------------------------------------------------------------------
      1          6           0       -2.849999   -1.125861   -0.415638
      2          6           0       -3.563139   -0.000026    0.000017
      3          6           0       -1.464492   -1.123667   -0.405534
      4          6           0       -2.850033    1.125752    0.415809
      5          6           0       -0.741288   -0.000047    0.000195
      6          6           0       -1.464504    1.123547    0.405879
      7          1           0       -0.931596   -2.005844   -0.756198
      8          1           0       -3.391048    2.006254    0.754990
      9          1           0       -0.931669    2.005728    0.756629
     10          6           0        0.741437   -0.000073    0.000217
     11          6           0        1.464635    1.123165   -0.406556
     12          6           0        1.464638   -1.123302    0.406976
     13          6           0        2.850149    1.125343   -0.416610
     14          6           0        2.850163   -1.125491    0.416935
     15          6           0        3.563257   -0.000095    0.000116
     16          1           0        0.931751    2.005025   -0.758038
     17          1           0        0.931783   -2.005140    0.758553
     18          1           0        3.391193    2.005527   -0.756576
     19          1           0        3.391211   -2.005669    0.756913
     20          1           0       -3.391005   -2.006357   -0.754845
     21          7           0        4.978430   -0.000102    0.000065
     22          6           0        5.687099   -1.154578   -0.414287
     23          6           0        6.831881   -1.566674    0.271150
     24          6           0        5.251323   -1.896933   -1.513908
     25          6           0        7.528311   -2.692826   -0.143324
     26          6           0        5.943392   -3.032223   -1.910440
     27          6           0        7.087522   -3.435368   -1.232277
     28          1           0        7.173684   -0.995181    1.131117
     29          1           0        4.363437   -1.577947   -2.055099
     30          1           0        8.419174   -2.999763    0.401550
     31          1           0        5.589860   -3.599797   -2.769285
     32          1           0        7.631852   -4.321852   -1.550225
     33          6           0        5.687025    1.154532    0.414292
     34          6           0        6.831191    1.567225   -0.271802
     35          6           0        5.251707    1.896381    1.514415
     36          6           0        7.527485    2.693516    0.142525
     37          6           0        5.943620    3.031828    1.910808
     38          6           0        7.087137    3.435581    1.231989
     39          1           0        7.172616    0.996083   -1.132151
     40          1           0        4.364291    1.576910    2.056093
     41          1           0        8.417875    3.000945   -0.402845
     42          1           0        5.590451    3.599029    2.770050
     43          1           0        7.631350    4.322181    1.549815
     44          7           0       -4.978266    0.000020   -0.000103
     45          6           0       -5.686990    1.154558   -0.414335
     46          6           0       -6.831289    1.566980    0.271699
     47          6           0       -5.251761    1.896543   -1.514410
     48          6           0       -7.527834    2.693112   -0.142653
     49          6           0       -5.943923    3.031822   -1.910819
     50          6           0       -7.087590    3.435293   -1.232069
     51          1           0       -7.172649    0.995729    1.132000
     52          1           0       -4.364233    1.577285   -2.056034
     53          1           0       -8.418333    3.000297    0.402674
     54          1           0       -5.590850    3.599137   -2.770027
     55          1           0       -7.631979    4.321768   -1.549941
     56          6           0       -5.687017   -1.154516    0.414141
     57          6           0       -6.831068   -1.567191   -0.272109
     58          6           0       -5.251977   -1.896199    1.514492
     59          6           0       -7.527566   -2.693348    0.142281
     60          6           0       -5.944079   -3.031486    1.910953
     61          6           0       -7.087509   -3.435246    1.231958
     62          1           0       -7.172277   -0.996155   -1.132614
     63          1           0       -4.364636   -1.576682    2.056275
     64          1           0       -8.417864   -3.000787   -0.403227
     65          1           0       -5.591165   -3.598572    2.770374
     66          1           0       -7.631874   -4.321730    1.549857
 ---------------------------------------------------------------------
 Rotational constants (GHZ):           0.2023709           0.0339547           0.0306836
 Leave Link  202 at Mon Jan 18 03:34:24 2021, MaxMem=  4026531840 cpu:               0.2 elap:               0.0
 (Enter /opt/ohpc/pub/libs/gaussian/g16-A.03/sandybridge/g16/l301.exe)
 Standard basis: TZVP (5D, 7F)
 Ernie: Thresh=  0.10000D-02 Tol=  0.10000D-05 Strict=F.
 There are   928 symmetry adapted cartesian basis functions of A   symmetry.
 There are   890 symmetry adapted basis functions of A   symmetry.
   890 basis functions,  1554 primitive gaussians,   928 cartesian basis functions
   129 alpha electrons      129 beta electrons
       nuclear repulsion energy      3528.7655398436 Hartrees.
 IExCor=33909 DFT=T Ex+Corr=LC-wHPBE ExCW=0 ScaHFX=  1.000000
 ScaDFX=  1.000000  1.000000  1.000000  1.000000 ScalE2=  1.000000  1.000000
 IRadAn=      5 IRanWt=     -1 IRanGd=            0 ICorTp=0 IEmpDi=  4
 HFx  wShort=  0.000000 wLong=  0.176900 cFull=  0.000000 cShort=  0.000000 cLong=  1.000000
 DFx  wShort=  0.000000 wLong=  0.176900 cFull=  0.000000 cShort=  1.000000 cLong=  0.000000
 NAtoms=   66 NActive=   66 NUniq=   66 SFac= 1.00D+00 NAtFMM=   60 NAOKFM=T Big=T
 Integral buffers will be    131072 words long.
 Raffenetti 2 integral format.
 Two-electron integral symmetry is turned on.
 Leave Link  301 at Mon Jan 18 03:34:24 2021, MaxMem=  4026531840 cpu:               0.4 elap:               0.1
 (Enter /opt/ohpc/pub/libs/gaussian/g16-A.03/sandybridge/g16/l302.exe)
 NPDir=0 NMtPBC=     1 NCelOv=     1 NCel=       1 NClECP=     1 NCelD=      1
         NCelK=      1 NCelE2=     1 NClLst=     1 CellRange=     0.0.
 One-electron integrals computed using PRISM.
 One-electron integral symmetry used in STVInt
 NBasis=   890 RedAO= T EigKep=  6.71D-06  NBF=   890
 NBsUse=   890 1.00D-06 EigRej= -1.00D+00 NBFU=   890
 Precomputing XC quadrature grid using
 IXCGrd= 4 IRadAn=           5 IRanWt=          -1 IRanGd=           0 AccXCQ= 0.00D+00.
 Generated NRdTot=       0 NPtTot=           0 NUsed=           0 NTot=          32
 NSgBfM=   852   844   846   852   852 MxSgAt=    66 MxSgA2=    66.
 Leave Link  302 at Mon Jan 18 03:34:26 2021, MaxMem=  4026531840 cpu:              17.0 elap:               2.2
 (Enter /opt/ohpc/pub/libs/gaussian/g16-A.03/sandybridge/g16/l303.exe)
 DipDrv:  MaxL=1.
 Leave Link  303 at Mon Jan 18 03:34:26 2021, MaxMem=  4026531840 cpu:               1.3 elap:               0.2
 (Enter /opt/ohpc/pub/libs/gaussian/g16-A.03/sandybridge/g16/l401.exe)
 ExpMin= 9.52D-02 ExpMax= 1.97D+04 ExpMxC= 6.73D+02 IAcc=3 IRadAn=         5 AccDes= 0.00D+00
 Harris functional with IExCor=33909 and IRadAn=       5 diagonalized for initial guess.
 HarFok:  IExCor=33909 AccDes= 0.00D+00 IRadAn=         5 IDoV= 1 UseB2=F ITyADJ=14
 ICtDFT=  3500011 ScaDFX=  1.000000  1.000000  1.000000  1.000000
 FoFCou: FMM=F IPFlag=           0 FMFlag=      100000 FMFlg1=        2001
         NFxFlg=           0 DoJE=T BraDBF=F KetDBF=T FulRan=T
         wScrn=  0.000000 ICntrl=       500 IOpCl=  0 I1Cent=   200000004 NGrid=           0
         NMat0=    1 NMatS0=      1 NMatT0=    0 NMatD0=    1 NMtDS0=    0 NMtDT0=    0
 Petite list used in FoFCou.
 Harris En= -1472.87882819763    
 JPrj=0 DoOrth=F DoCkMO=F.
 Leave Link  401 at Mon Jan 18 03:34:36 2021, MaxMem=  4026531840 cpu:              77.7 elap:               9.8
 (Enter /opt/ohpc/pub/libs/gaussian/g16-A.03/sandybridge/g16/l502.exe)
 Integral symmetry usage will be decided dynamically.
 Closed shell SCF:
 Using DIIS extrapolation, IDIIS=    10.
 NGot=  4026531840 LenX=  4024793050 LenY=  4023930938
 Requested convergence on RMS density matrix=1.00D-06 within  32 cycles.
 Requested convergence on MAX density matrix=1.00D-04.
 Requested convergence on             energy=1.00D-04.
 Virtual orbitals will be shifted by   0.500 hartree.
 No special actions if energy rises.
 Dynamic level shift is on during FON iterations.

 Cycle   1  Pass 1  IDiag  1:
 FoFJK:  IHMeth= 1 ICntrl=       0 DoSepK=T KAlg= 0 I1Cent=           0 FoldK=F
 IRaf=         1 NMat=       1 IRICut=       1 DoRegI=T DoRafI=F ISym2E= 0 IDoP0=0 IntGTp=1.
 FoFCou: FMM=T IPFlag=           0 FMFlag=      100000 FMFlg1=        2001
         NFxFlg=           0 DoJE=T BraDBF=F KetDBF=F FulRan=T
         wScrn=  0.000000 ICntrl=       500 IOpCl=  0 I1Cent=           0 NGrid=           0
         NMat0=    1 NMatS0=      1 NMatT0=    0 NMatD0=    1 NMtDS0=    0 NMtDT0=    0
 Symmetry not used in FoFCou.
 FMM levels:  10  Number of levels for PrismC:   9
 E= -1496.53609989495    
 DIIS: error= 3.29D-02 at cycle   1 NSaved=   1.
 NSaved= 1 IEnMin= 1 EnMin= -1496.53609989495     IErMin= 1 ErrMin= 3.29D-02
 ErrMax= 3.29D-02  0.00D+00 EMaxC= 1.00D+00 BMatC= 6.43D-01 BMatP= 6.43D-01
 IDIUse=1 WtCom= 1.00D+00 WtEn= 0.00D+00
 Coeff-Com:  0.100D+01
 Coeff:      0.100D+01
 Gap=     0.265 Goal=   None    Shift=    0.500
 T= 1551. Gap= 0.730 NK=0 IS=  130 IE=  890 IFin=  129
          NO(<0.9)=   0  NV(>0.1)=   0    129.00e < EF      0.00e >EF  Err=0.0D+00
 GapD=    0.265 DampG=1.000 DampE=0.500 DampFc=0.5000 IDamp=-1.
 Damping current iteration by 5.00D-01
 RMSDP=2.00D-03 MaxDP=8.50D-02              OVMax= 8.42D-02

 Cycle   2  Pass 1  IDiag  1:
 E= -1496.94494140858     Delta-E=       -0.408841513631 Rises=F Damp=T
 DIIS: error= 1.52D-02 at cycle   2 NSaved=   2.
 NSaved= 2 IEnMin= 2 EnMin= -1496.94494140858     IErMin= 2 ErrMin= 1.52D-02
 ErrMax= 1.52D-02  0.00D+00 EMaxC= 1.00D+00 BMatC= 1.09D-01 BMatP= 6.43D-01
 IDIUse=1 WtCom= 1.00D+00 WtEn= 0.00D+00
 Coeff-Com: -0.547D+00 0.155D+01
 Coeff:     -0.547D+00 0.155D+01
 Gap=     0.255 Goal=   None    Shift=    0.500
 T= 1432. Gap= 0.732 NK=0 IS=  130 IE=  890 IFin=  129
          NO(<0.9)=   0  NV(>0.1)=   0    129.00e < EF      0.00e >EF  Err=0.0D+00
 GapD=    0.255 DampG=1.000 DampE=0.500 DampFc=0.5000 IDamp=-1.
 Damping current iteration by 5.00D-01
 RMSDP=1.16D-03 MaxDP=6.17D-02 DE=-4.09D-01 OVMax= 2.03D-02

 Cycle   3  Pass 1  IDiag  1:
 E= -1497.08408222597     Delta-E=       -0.139140817394 Rises=F Damp=T
 DIIS: error= 6.94D-03 at cycle   3 NSaved=   3.
 NSaved= 3 IEnMin= 3 EnMin= -1497.08408222597     IErMin= 3 ErrMin= 6.94D-03
 ErrMax= 6.94D-03  0.00D+00 EMaxC= 1.00D+00 BMatC= 2.05D-02 BMatP= 1.09D-01
 IDIUse=1 WtCom= 1.00D+00 WtEn= 0.00D+00
 Coeff-Com:  0.434D-01-0.839D+00 0.180D+01
 Coeff:      0.434D-01-0.839D+00 0.180D+01
 Gap=     0.245 Goal=   None    Shift=    0.500
 T= 1200. Gap= 0.743 NK=0 IS=  130 IE=  890 IFin=  129
          NO(<0.9)=   0  NV(>0.1)=   0    129.00e < EF      0.00e >EF  Err=0.0D+00
 GapD=    0.245 DampG=1.000 DampE=1.000 DampFc=1.0000 IDamp=-1.
 RMSDP=6.45D-04 MaxDP=3.92D-02 DE=-1.39D-01 OVMax= 1.13D-02

 Cycle   4  Pass 1  IDiag  1:
 E= -1497.19946078469     Delta-E=       -0.115378558720 Rises=F Damp=F
 DIIS: error= 1.15D-03 at cycle   4 NSaved=   4.
 NSaved= 4 IEnMin= 4 EnMin= -1497.19946078469     IErMin= 4 ErrMin= 1.15D-03
 ErrMax= 1.15D-03  0.00D+00 EMaxC= 1.00D+00 BMatC= 9.52D-04 BMatP= 2.05D-02
 IDIUse=1 WtCom= 1.00D+00 WtEn= 0.00D+00
 Coeff-Com:  0.781D-01-0.221D+00 0.205D+00 0.938D+00
 Coeff:      0.781D-01-0.221D+00 0.205D+00 0.938D+00
 Gap=     0.241 Goal=   None    Shift=    0.500
 T=  684. Gap= 0.741 NK=0 IS=  130 IE=  890 IFin=  129
          NO(<0.9)=   0  NV(>0.1)=   0    129.00e < EF      0.00e >EF  Err=0.0D+00
 GapD=    0.241 DampG=1.000 DampE=1.000 DampFc=1.0000 IDamp=-1.
 RMSDP=1.46D-04 MaxDP=4.96D-03 DE=-1.15D-01 OVMax= 5.54D-03

 Cycle   5  Pass 1  IDiag  1:
 E= -1497.20048270727     Delta-E=       -0.001021922580 Rises=F Damp=F
 DIIS: error= 6.15D-04 at cycle   5 NSaved=   5.
 NSaved= 5 IEnMin= 5 EnMin= -1497.20048270727     IErMin= 5 ErrMin= 6.15D-04
 ErrMax= 6.15D-04  0.00D+00 EMaxC= 1.00D+00 BMatC= 1.45D-04 BMatP= 9.52D-04
 IDIUse=1 WtCom= 1.00D+00 WtEn= 0.00D+00
 Coeff-Com:  0.183D-01-0.650D-02-0.613D-01-0.170D+00 0.122D+01
 Coeff:      0.183D-01-0.650D-02-0.613D-01-0.170D+00 0.122D+01
 Gap=     0.242 Goal=   None    Shift=    0.500
 RMSDP=1.06D-04 MaxDP=4.17D-03 DE=-1.02D-03 OVMax= 4.46D-03

 Cycle   6  Pass 1  IDiag  1:
 E= -1497.20074693585     Delta-E=       -0.000264228576 Rises=F Damp=F
 DIIS: error= 5.18D-04 at cycle   6 NSaved=   6.
 NSaved= 6 IEnMin= 6 EnMin= -1497.20074693585     IErMin= 6 ErrMin= 5.18D-04
 ErrMax= 5.18D-04  0.00D+00 EMaxC= 1.00D+00 BMatC= 2.96D-05 BMatP= 1.45D-04
 IDIUse=1 WtCom= 1.00D+00 WtEn= 0.00D+00
 Coeff-Com: -0.103D-01 0.385D-01-0.514D-01-0.243D+00 0.709D-01 0.120D+01
 Coeff:     -0.103D-01 0.385D-01-0.514D-01-0.243D+00 0.709D-01 0.120D+01
 Gap=     0.242 Goal=   None    Shift=    0.500
 RMSDP=6.42D-05 MaxDP=3.04D-03 DE=-2.64D-04 OVMax= 3.73D-03

 Cycle   7  Pass 1  IDiag  1:
 E= -1497.20084032097     Delta-E=       -0.000093385126 Rises=F Damp=F
 DIIS: error= 3.88D-04 at cycle   7 NSaved=   7.
 NSaved= 7 IEnMin= 7 EnMin= -1497.20084032097     IErMin= 7 ErrMin= 3.88D-04
 ErrMax= 3.88D-04  0.00D+00 EMaxC= 1.00D+00 BMatC= 9.24D-06 BMatP= 2.96D-05
 IDIUse=1 WtCom= 1.00D+00 WtEn= 0.00D+00
 Coeff-Com: -0.642D-02 0.706D-02 0.636D-02 0.300D-01-0.330D+00-0.487D+00
 Coeff-Com:  0.178D+01
 Coeff:     -0.642D-02 0.706D-02 0.636D-02 0.300D-01-0.330D+00-0.487D+00
 Coeff:      0.178D+01
 Gap=     0.242 Goal=   None    Shift=    0.500
 RMSDP=3.66D-05 MaxDP=1.92D-03 DE=-9.34D-05 OVMax= 2.91D-03

 Cycle   8  Pass 1  IDiag  1:
 E= -1497.20088290348     Delta-E=       -0.000042582511 Rises=F Damp=F
 DIIS: error= 2.74D-04 at cycle   8 NSaved=   8.
 NSaved= 8 IEnMin= 8 EnMin= -1497.20088290348     IErMin= 8 ErrMin= 2.74D-04
 ErrMax= 2.74D-04  0.00D+00 EMaxC= 1.00D+00 BMatC= 3.82D-06 BMatP= 9.24D-06
 IDIUse=1 WtCom= 1.00D+00 WtEn= 0.00D+00
 Coeff-Com:  0.166D-02-0.472D-02 0.430D-02 0.846D-01-0.646D-01-0.474D+00
 Coeff-Com: -0.520D+00 0.197D+01
 Coeff:      0.166D-02-0.472D-02 0.430D-02 0.846D-01-0.646D-01-0.474D+00
 Coeff:     -0.520D+00 0.197D+01
 Gap=     0.243 Goal=   None    Shift=    0.500
 RMSDP=1.71D-05 MaxDP=8.55D-04 DE=-4.26D-05 OVMax= 2.22D-03

 Cycle   9  Pass 1  IDiag  1:
 E= -1497.20090270687     Delta-E=       -0.000019803386 Rises=F Damp=F
 DIIS: error= 1.89D-04 at cycle   9 NSaved=   9.
 NSaved= 9 IEnMin= 9 EnMin= -1497.20090270687     IErMin= 9 ErrMin= 1.89D-04
 ErrMax= 1.89D-04  0.00D+00 EMaxC= 1.00D+00 BMatC= 1.73D-06 BMatP= 3.82D-06
 IDIUse=1 WtCom= 1.00D+00 WtEn= 0.00D+00
 Coeff-Com:  0.206D-02 0.162D-02-0.979D-02 0.403D-01 0.895D-01-0.128D+00
 Coeff-Com: -0.917D+00 0.387D+00 0.154D+01
 Coeff:      0.206D-02 0.162D-02-0.979D-02 0.403D-01 0.895D-01-0.128D+00
 Coeff:     -0.917D+00 0.387D+00 0.154D+01
 Gap=     0.243 Goal=   None    Shift=    0.500
 RMSDP=7.90D-06 MaxDP=4.19D-04 DE=-1.98D-05 OVMax= 1.53D-03

 Cycle  10  Pass 1  IDiag  1:
 E= -1497.20091161245     Delta-E=       -0.000008905584 Rises=F Damp=F
 DIIS: error= 1.31D-04 at cycle  10 NSaved=  10.
 NSaved=10 IEnMin=10 EnMin= -1497.20091161245     IErMin=10 ErrMin= 1.31D-04
 ErrMax= 1.31D-04  0.00D+00 EMaxC= 1.00D+00 BMatC= 7.97D-07 BMatP= 1.73D-06
 IDIUse=1 WtCom= 1.00D+00 WtEn= 0.00D+00
 Coeff-Com: -0.478D-03 0.802D-02-0.141D-01-0.330D-02 0.749D-01 0.811D-01
 Coeff-Com: -0.231D+00-0.682D+00-0.888D-02 0.178D+01
 Coeff:     -0.478D-03 0.802D-02-0.141D-01-0.330D-02 0.749D-01 0.811D-01
 Coeff:     -0.231D+00-0.682D+00-0.888D-02 0.178D+01
 Gap=     0.243 Goal=   None    Shift=    0.500
 RMSDP=4.24D-06 MaxDP=1.19D-04 DE=-8.91D-06 OVMax= 1.08D-03

 Cycle  11  Pass 1  IDiag  1:
 E= -1497.20091553914     Delta-E=       -0.000003926690 Rises=F Damp=F
 DIIS: error= 8.63D-05 at cycle  11 NSaved=  11.
 NSaved=11 IEnMin=11 EnMin= -1497.20091553914     IErMin=11 ErrMin= 8.63D-05
 ErrMax= 8.63D-05  0.00D+00 EMaxC= 1.00D+00 BMatC= 3.68D-07 BMatP= 7.97D-07
 IDIUse=1 WtCom= 1.00D+00 WtEn= 0.00D+00
 Coeff-Com: -0.106D-02 0.516D-02-0.642D-02-0.382D-02 0.322D-02 0.476D-01
 Coeff-Com:  0.156D+00-0.394D+00-0.477D+00-0.195D+00 0.187D+01
 Coeff:     -0.106D-02 0.516D-02-0.642D-02-0.382D-02 0.322D-02 0.476D-01
 Coeff:      0.156D+00-0.394D+00-0.477D+00-0.195D+00 0.187D+01
 Gap=     0.243 Goal=   None    Shift=    0.500
 RMSDP=2.67D-06 MaxDP=7.04D-05 DE=-3.93D-06 OVMax= 7.21D-04

 Cycle  12  Pass 1  IDiag  1:
 E= -1497.20091721016     Delta-E=       -0.000001671012 Rises=F Damp=F
 DIIS: error= 5.75D-05 at cycle  12 NSaved=  12.
 NSaved=12 IEnMin=12 EnMin= -1497.20091721016     IErMin=12 ErrMin= 5.75D-05
 ErrMax= 5.75D-05  0.00D+00 EMaxC= 1.00D+00 BMatC= 1.70D-07 BMatP= 3.68D-07
 IDIUse=1 WtCom= 1.00D+00 WtEn= 0.00D+00
 Coeff-Com: -0.459D-03 0.904D-03-0.928D-04 0.422D-02-0.274D-01-0.856D-02
 Coeff-Com:  0.138D+00 0.961D-01-0.272D+00-0.995D+00 0.361D+00 0.170D+01
 Coeff:     -0.459D-03 0.904D-03-0.928D-04 0.422D-02-0.274D-01-0.856D-02
 Coeff:      0.138D+00 0.961D-01-0.272D+00-0.995D+00 0.361D+00 0.170D+01
 Gap=     0.243 Goal=   None    Shift=    0.500
 RMSDP=1.63D-06 MaxDP=4.69D-05 DE=-1.67D-06 OVMax= 4.76D-04

 Cycle  13  Pass 1  IDiag  1:
 E= -1497.20091791413     Delta-E=       -0.000000703976 Rises=F Damp=F
 DIIS: error= 3.75D-05 at cycle  13 NSaved=  13.
 NSaved=13 IEnMin=13 EnMin= -1497.20091791413     IErMin=13 ErrMin= 3.75D-05
 ErrMax= 3.75D-05  0.00D+00 EMaxC= 1.00D+00 BMatC= 7.68D-08 BMatP= 1.70D-07
 IDIUse=1 WtCom= 1.00D+00 WtEn= 0.00D+00
 Coeff-Com:  0.115D-03-0.894D-04-0.176D-03 0.504D-02-0.621D-02-0.127D-01
 Coeff-Com: -0.496D-01 0.176D+00 0.812D-01-0.211D+00-0.590D+00-0.806D+00
 Coeff-Com:  0.241D+01
 Coeff:      0.115D-03-0.894D-04-0.176D-03 0.504D-02-0.621D-02-0.127D-01
 Coeff:     -0.496D-01 0.176D+00 0.812D-01-0.211D+00-0.590D+00-0.806D+00
 Coeff:      0.241D+01
 Gap=     0.243 Goal=   None    Shift=    0.500
 RMSDP=1.00D-06 MaxDP=3.05D-05 DE=-7.04D-07 OVMax= 3.08D-04

 Cycle  14  Pass 1  IDiag  1:
 E= -1497.20091820521     Delta-E=       -0.000000291075 Rises=F Damp=F
 DIIS: error= 2.40D-05 at cycle  14 NSaved=  14.
 NSaved=14 IEnMin=14 EnMin= -1497.20091820521     IErMin=14 ErrMin= 2.40D-05
 ErrMax= 2.40D-05  0.00D+00 EMaxC= 1.00D+00 BMatC= 3.52D-08 BMatP= 7.68D-08
 IDIUse=1 WtCom= 1.00D+00 WtEn= 0.00D+00
 Coeff-Com:  0.178D-03-0.327D-04-0.549D-03 0.280D-02 0.263D-02-0.448D-02
 Coeff-Com: -0.730D-01 0.100D+00 0.137D+00 0.118D+00-0.570D+00-0.109D+01
 Coeff-Com:  0.106D+01 0.132D+01
 Coeff:      0.178D-03-0.327D-04-0.549D-03 0.280D-02 0.263D-02-0.448D-02
 Coeff:     -0.730D-01 0.100D+00 0.137D+00 0.118D+00-0.570D+00-0.109D+01
 Coeff:      0.106D+01 0.132D+01
 Gap=     0.243 Goal=   None    Shift=    0.500
 RMSDP=6.37D-07 MaxDP=1.73D-05 DE=-2.91D-07 OVMax= 2.02D-04

 SCF Done:  E(RLC-wHPBE) =  -1497.20091821     A.U. after   14 cycles
            NFock= 14  Conv=0.64D-06     -V/T= 2.0046
 KE= 1.490343820065D+03 PE=-1.053413470716D+04 EE= 4.017824429047D+03
 Leave Link  502 at Mon Jan 18 03:49:32 2021, MaxMem=  4026531840 cpu:            7068.4 elap:             896.1
 (Enter /opt/ohpc/pub/libs/gaussian/g16-A.03/sandybridge/g16/l508.exe)
 QCSCF skips out because SCF is already converged.
 Leave Link  508 at Mon Jan 18 03:49:32 2021, MaxMem=  4026531840 cpu:               0.1 elap:               0.0
 (Enter /opt/ohpc/pub/libs/gaussian/g16-A.03/sandybridge/g16/l601.exe)
 Copying SCF densities to generalized density rwf, IOpCl= 0 IROHF=0.

 **********************************************************************

            Population analysis using the SCF density.

 **********************************************************************

 Orbital symmetries:
       Occupied  (A) (A) (A) (A) (A) (A) (A) (A) (A) (A) (A) (A)
                 (A) (A) (A) (A) (A) (A) (A) (A) (A) (A) (A) (A)
                 (A) (A) (A) (A) (A) (A) (A) (A) (A) (A) (A) (A)
                 (A) (A) (A) (A) (A) (A) (A) (A) (A) (A) (A) (A)
                 (A) (A) (A) (A) (A) (A) (A) (A) (A) (A) (A) (A)
                 (A) (A) (A) (A) (A) (A) (A) (A) (A) (A) (A) (A)
                 (A) (A) (A) (A) (A) (A) (A) (A) (A) (A) (A) (A)
                 (A) (A) (A) (A) (A) (A) (A) (A) (A) (A) (A) (A)
                 (A) (A) (A) (A) (A) (A) (A) (A) (A) (A) (A) (A)
                 (A) (A) (A) (A) (A) (A) (A) (A) (A) (A) (A) (A)
                 (A) (A) (A) (A) (A) (A) (A) (A) (A)
       Virtual   (A) (A) (A) (A) (A) (A) (A) (A) (A) (A) (A) (A)
                 (A) (A) (A) (A) (A) (A) (A) (A) (A) (A) (A) (A)
                 (A) (A) (A) (A) (A) (A) (A) (A) (A) (A) (A) (A)
                 (A) (A) (A) (A) (A) (A) (A) (A) (A) (A) (A) (A)
                 (A) (A) (A) (A) (A) (A) (A) (A) (A) (A) (A) (A)
                 (A) (A) (A) (A) (A) (A) (A) (A) (A) (A) (A) (A)
                 (A) (A) (A) (A) (A) (A) (A) (A) (A) (A) (A) (A)
                 (A) (A) (A) (A) (A) (A) (A) (A) (A) (A) (A) (A)
                 (A) (A) (A) (A) (A) (A) (A) (A) (A) (A) (A) (A)
                 (A) (A) (A) (A) (A) (A) (A) (A) (A) (A) (A) (A)
                 (A) (A) (A) (A) (A) (A) (A) (A) (A) (A) (A) (A)
                 (A) (A) (A) (A) (A) (A) (A) (A) (A) (A) (A) (A)
                 (A) (A) (A) (A) (A) (A) (A) (A) (A) (A) (A) (A)
                 (A) (A) (A) (A) (A) (A) (A) (A) (A) (A) (A) (A)
                 (A) (A) (A) (A) (A) (A) (A) (A) (A) (A) (A) (A)
                 (A) (A) (A) (A) (A) (A) (A) (A) (A) (A) (A) (A)
                 (A) (A) (A) (A) (A) (A) (A) (A) (A) (A) (A) (A)
                 (A) (A) (A) (A) (A) (A) (A) (A) (A) (A) (A) (A)
                 (A) (A) (A) (A) (A) (A) (A) (A) (A) (A) (A) (A)
                 (A) (A) (A) (A) (A) (A) (A) (A) (A) (A) (A) (A)
                 (A) (A) (A) (A) (A) (A) (A) (A) (A) (A) (A) (A)
                 (A) (A) (A) (A) (A) (A) (A) (A) (A) (A) (A) (A)
                 (A) (A) (A) (A) (A) (A) (A) (A) (A) (A) (A) (A)
                 (A) (A) (A) (A) (A) (A) (A) (A) (A) (A) (A) (A)
                 (A) (A) (A) (A) (A) (A) (A) (A) (A) (A) (A) (A)
                 (A) (A) (A) (A) (A) (A) (A) (A) (A) (A) (A) (A)
                 (A) (A) (A) (A) (A) (A) (A) (A) (A) (A) (A) (A)
                 (A) (A) (A) (A) (A) (A) (A) (A) (A) (A) (A) (A)
                 (A) (A) (A) (A) (A) (A) (A) (A) (A) (A) (A) (A)
                 (A) (A) (A) (A) (A) (A) (A) (A) (A) (A) (A) (A)
                 (A) (A) (A) (A) (A) (A) (A) (A) (A) (A) (A) (A)
                 (A) (A) (A) (A) (A) (A) (A) (A) (A) (A) (A) (A)
                 (A) (A) (A) (A) (A) (A) (A) (A) (A) (A) (A) (A)
                 (A) (A) (A) (A) (A) (A) (A) (A) (A) (A) (A) (A)
                 (A) (A) (A) (A) (A) (A) (A) (A) (A) (A) (A) (A)
                 (A) (A) (A) (A) (A) (A) (A) (A) (A) (A) (A) (A)
                 (A) (A) (A) (A) (A) (A) (A) (A) (A) (A) (A) (A)
                 (A) (A) (A) (A) (A) (A) (A) (A) (A) (A) (A) (A)
                 (A) (A) (A) (A) (A) (A) (A) (A) (A) (A) (A) (A)
                 (A) (A) (A) (A) (A) (A) (A) (A) (A) (A) (A) (A)
                 (A) (A) (A) (A) (A) (A) (A) (A) (A) (A) (A) (A)
                 (A) (A) (A) (A) (A) (A) (A) (A) (A) (A) (A) (A)
                 (A) (A) (A) (A) (A) (A) (A) (A) (A) (A) (A) (A)
                 (A) (A) (A) (A) (A) (A) (A) (A) (A) (A) (A) (A)
                 (A) (A) (A) (A) (A) (A) (A) (A) (A) (A) (A) (A)
                 (A) (A) (A) (A) (A) (A) (A) (A) (A) (A) (A) (A)
                 (A) (A) (A) (A) (A) (A) (A) (A) (A) (A) (A) (A)
                 (A) (A) (A) (A) (A) (A) (A) (A) (A) (A) (A) (A)
                 (A) (A) (A) (A) (A) (A) (A) (A) (A) (A) (A) (A)
                 (A) (A) (A) (A) (A) (A) (A) (A) (A) (A) (A) (A)
                 (A) (A) (A) (A) (A) (A) (A) (A) (A) (A) (A) (A)
                 (A) (A) (A) (A) (A) (A) (A) (A) (A) (A) (A) (A)
                 (A) (A) (A) (A) (A) (A) (A) (A) (A) (A) (A) (A)
                 (A) (A) (A) (A) (A) (A) (A) (A) (A) (A) (A) (A)
                 (A) (A) (A) (A) (A) (A) (A) (A) (A) (A) (A) (A)
                 (A) (A) (A) (A) (A) (A) (A) (A) (A) (A) (A) (A)
                 (A) (A) (A) (A) (A) (A) (A) (A) (A) (A) (A) (A)
                 (A) (A) (A) (A) (A) (A) (A) (A) (A) (A) (A) (A)
                 (A) (A) (A) (A) (A) (A) (A) (A) (A) (A) (A) (A)
                 (A) (A) (A) (A) (A) (A) (A) (A) (A) (A) (A) (A)
                 (A) (A) (A) (A) (A) (A) (A) (A) (A) (A) (A) (A)
                 (A) (A) (A) (A) (A) (A) (A) (A) (A) (A) (A) (A)
                 (A) (A) (A) (A) (A) (A) (A) (A) (A) (A) (A) (A)
                 (A) (A) (A) (A) (A)
 The electronic state is 1-A.
 Alpha  occ. eigenvalues --  -14.12010 -14.12009 -10.02880 -10.02879 -10.02878
 Alpha  occ. eigenvalues --  -10.02877 -10.02802 -10.02801  -9.99468  -9.99454
 Alpha  occ. eigenvalues --   -9.98861  -9.98860  -9.98860  -9.98858  -9.98858
 Alpha  occ. eigenvalues --   -9.98858  -9.98857  -9.98856  -9.98798  -9.98797
 Alpha  occ. eigenvalues --   -9.98796  -9.98794  -9.98604  -9.98603  -9.98603
 Alpha  occ. eigenvalues --   -9.98602  -9.98587  -9.98586  -9.98586  -9.98584
 Alpha  occ. eigenvalues --   -9.98580  -9.98580  -9.98579  -9.98577  -9.98392
 Alpha  occ. eigenvalues --   -9.98391  -9.98391  -9.98389  -0.99412  -0.99408
 Alpha  occ. eigenvalues --   -0.89967  -0.88932  -0.88930  -0.88641  -0.87454
 Alpha  occ. eigenvalues --   -0.86612  -0.81420  -0.79574  -0.79496  -0.78849
 Alpha  occ. eigenvalues --   -0.78298  -0.78191  -0.77971  -0.77951  -0.77681
 Alpha  occ. eigenvalues --   -0.77418  -0.75339  -0.73318  -0.68290  -0.67565
 Alpha  occ. eigenvalues --   -0.66971  -0.66034  -0.65523  -0.64607  -0.64575
 Alpha  occ. eigenvalues --   -0.64461  -0.63563  -0.63485  -0.61790  -0.61164
 Alpha  occ. eigenvalues --   -0.58840  -0.58661  -0.58436  -0.58197  -0.55865
 Alpha  occ. eigenvalues --   -0.54334  -0.53383  -0.53284  -0.52712  -0.52166
 Alpha  occ. eigenvalues --   -0.51448  -0.50441  -0.50176  -0.49950  -0.49473
 Alpha  occ. eigenvalues --   -0.49020  -0.48978  -0.48584  -0.48132  -0.48091
 Alpha  occ. eigenvalues --   -0.47985  -0.47327  -0.47136  -0.47070  -0.46927
 Alpha  occ. eigenvalues --   -0.46920  -0.46617  -0.45044  -0.43868  -0.43667
 Alpha  occ. eigenvalues --   -0.43373  -0.43316  -0.43262  -0.42934  -0.41607
 Alpha  occ. eigenvalues --   -0.41268  -0.40775  -0.40580  -0.40271  -0.40208
 Alpha  occ. eigenvalues --   -0.39954  -0.39357  -0.39127  -0.38946  -0.38763
 Alpha  occ. eigenvalues --   -0.37058  -0.36406  -0.33787  -0.32574  -0.32549
 Alpha  occ. eigenvalues --   -0.32514  -0.32508  -0.31651  -0.31404  -0.31348
 Alpha  occ. eigenvalues --   -0.31313  -0.30486  -0.25032  -0.23591
 Alpha virt. eigenvalues --    0.00671   0.02100   0.02156   0.02544   0.02546
 Alpha virt. eigenvalues --    0.04060   0.04360   0.04549   0.04586   0.04594
 Alpha virt. eigenvalues --    0.06765   0.08514   0.10015   0.10232   0.11005
 Alpha virt. eigenvalues --    0.11051   0.11363   0.12065   0.12654   0.13291
 Alpha virt. eigenvalues --    0.13393   0.13657   0.13883   0.13909   0.14168
 Alpha virt. eigenvalues --    0.14198   0.15016   0.15238   0.15337   0.16220
 Alpha virt. eigenvalues --    0.16291   0.16328   0.16550   0.16574   0.16754
 Alpha virt. eigenvalues --    0.17067   0.17451   0.17952   0.18134   0.18140
 Alpha virt. eigenvalues --    0.18267   0.18622   0.18947   0.18953   0.21079
 Alpha virt. eigenvalues --    0.21206   0.21375   0.21415   0.22645   0.22942
 Alpha virt. eigenvalues --    0.23913   0.24202   0.24263   0.24425   0.24693
 Alpha virt. eigenvalues --    0.25038   0.25152   0.25288   0.25299   0.25787
 Alpha virt. eigenvalues --    0.26042   0.26319   0.26620   0.26750   0.26757
 Alpha virt. eigenvalues --    0.27323   0.27860   0.27941   0.28025   0.28078
 Alpha virt. eigenvalues --    0.28303   0.28711   0.28786   0.28934   0.29007
 Alpha virt. eigenvalues --    0.29172   0.29184   0.29293   0.29756   0.29868
 Alpha virt. eigenvalues --    0.30028   0.30201   0.30660   0.30777   0.30932
 Alpha virt. eigenvalues --    0.31266   0.31743   0.32012   0.32291   0.32401
 Alpha virt. eigenvalues --    0.32407   0.32926   0.33464   0.33609   0.33909
 Alpha virt. eigenvalues --    0.33986   0.34322   0.34385   0.34636   0.35607
 Alpha virt. eigenvalues --    0.35780   0.35964   0.36042   0.36364   0.37185
 Alpha virt. eigenvalues --    0.37341   0.37357   0.37634   0.37769   0.37791
 Alpha virt. eigenvalues --    0.37990   0.38014   0.38593   0.38640   0.39583
 Alpha virt. eigenvalues --    0.40108   0.40326   0.40701   0.40978   0.41347
 Alpha virt. eigenvalues --    0.41612   0.41953   0.42061   0.42378   0.42809
 Alpha virt. eigenvalues --    0.42817   0.42954   0.43224   0.43593   0.43761
 Alpha virt. eigenvalues --    0.43801   0.44002   0.44341   0.44352   0.44365
 Alpha virt. eigenvalues --    0.44392   0.44637   0.45212   0.45602   0.45618
 Alpha virt. eigenvalues --    0.45631   0.46063   0.46236   0.46610   0.46626
 Alpha virt. eigenvalues --    0.47367   0.47543   0.47689   0.47691   0.47830
 Alpha virt. eigenvalues --    0.47958   0.48306   0.48567   0.48676   0.48844
 Alpha virt. eigenvalues --    0.49018   0.49491   0.49733   0.49974   0.50096
 Alpha virt. eigenvalues --    0.50575   0.50620   0.50903   0.51033   0.51545
 Alpha virt. eigenvalues --    0.51568   0.52370   0.52403   0.52575   0.53551
 Alpha virt. eigenvalues --    0.53653   0.53673   0.53763   0.54109   0.54157
 Alpha virt. eigenvalues --    0.54174   0.54726   0.54825   0.55006   0.55033
 Alpha virt. eigenvalues --    0.55635   0.55680   0.56121   0.56300   0.56315
 Alpha virt. eigenvalues --    0.57380   0.57404   0.57467   0.57652   0.57745
 Alpha virt. eigenvalues --    0.58960   0.59655   0.59875   0.59929   0.60294
 Alpha virt. eigenvalues --    0.60406   0.60631   0.61448   0.61492   0.61586
 Alpha virt. eigenvalues --    0.61908   0.62444   0.62567   0.63317   0.63402
 Alpha virt. eigenvalues --    0.66260   0.66478   0.66708   0.66726   0.67005
 Alpha virt. eigenvalues --    0.67131   0.67914   0.68279   0.68410   0.69744
 Alpha virt. eigenvalues --    0.70781   0.71232   0.71351   0.71750   0.72332
 Alpha virt. eigenvalues --    0.72813   0.73002   0.73131   0.73426   0.73493
 Alpha virt. eigenvalues --    0.74108   0.74304   0.74396   0.74513   0.74664
 Alpha virt. eigenvalues --    0.74816   0.74857   0.75218   0.75266   0.75954
 Alpha virt. eigenvalues --    0.76557   0.77260   0.77845   0.78379   0.78910
 Alpha virt. eigenvalues --    0.79530   0.79693   0.80551   0.80700   0.81176
 Alpha virt. eigenvalues --    0.82083   0.82416   0.82854   0.83138   0.83267
 Alpha virt. eigenvalues --    0.84931   0.85449   0.86197   0.87038   0.87580
 Alpha virt. eigenvalues --    0.90034   0.90210   0.90310   0.90343   0.90498
 Alpha virt. eigenvalues --    0.90949   0.91004   0.92270   0.96186   0.96823
 Alpha virt. eigenvalues --    0.97002   0.97100   1.00036   1.00100   1.16977
 Alpha virt. eigenvalues --    1.18065   1.19548   1.19553   1.19755   1.23075
 Alpha virt. eigenvalues --    1.23379   1.23941   1.24196   1.25310   1.25765
 Alpha virt. eigenvalues --    1.26438   1.26561   1.26691   1.26734   1.27291
 Alpha virt. eigenvalues --    1.27450   1.28170   1.28634   1.28765   1.29474
 Alpha virt. eigenvalues --    1.29682   1.29803   1.30075   1.30159   1.30579
 Alpha virt. eigenvalues --    1.31099   1.31326   1.31345   1.31378   1.31824
 Alpha virt. eigenvalues --    1.31923   1.31985   1.32243   1.32248   1.32765
 Alpha virt. eigenvalues --    1.33395   1.33772   1.33856   1.33897   1.34141
 Alpha virt. eigenvalues --    1.34521   1.34693   1.34728   1.34892   1.35490
 Alpha virt. eigenvalues --    1.35540   1.36720   1.36727   1.36974   1.37177
 Alpha virt. eigenvalues --    1.37333   1.37449   1.37766   1.38439   1.38972
 Alpha virt. eigenvalues --    1.39194   1.39630   1.44634   1.45095   1.45278
 Alpha virt. eigenvalues --    1.45390   1.45453   1.45760   1.46097   1.46446
 Alpha virt. eigenvalues --    1.46549   1.46927   1.46956   1.46971   1.47070
 Alpha virt. eigenvalues --    1.47217   1.47263   1.47558   1.47571   1.47660
 Alpha virt. eigenvalues --    1.48050   1.48078   1.48529   1.49207   1.49414
 Alpha virt. eigenvalues --    1.49451   1.49603   1.50007   1.50099   1.50260
 Alpha virt. eigenvalues --    1.50396   1.50721   1.50773   1.50877   1.51082
 Alpha virt. eigenvalues --    1.51216   1.51282   1.51412   1.52471   1.52825
 Alpha virt. eigenvalues --    1.53121   1.53546   1.53829   1.54011   1.54599
 Alpha virt. eigenvalues --    1.54894   1.55053   1.55198   1.55528   1.55991
 Alpha virt. eigenvalues --    1.56063   1.56844   1.57211   1.57231   1.57865
 Alpha virt. eigenvalues --    1.57867   1.58081   1.58127   1.58222   1.58310
 Alpha virt. eigenvalues --    1.58536   1.58824   1.59690   1.59723   1.60211
 Alpha virt. eigenvalues --    1.60333   1.60420   1.60503   1.60772   1.60874
 Alpha virt. eigenvalues --    1.61308   1.61379   1.61463   1.61501   1.62598
 Alpha virt. eigenvalues --    1.62600   1.62744   1.63421   1.64015   1.64163
 Alpha virt. eigenvalues --    1.64404   1.67371   1.68109   1.69595   1.69668
 Alpha virt. eigenvalues --    1.70131   1.70187   1.70218   1.70270   1.71978
 Alpha virt. eigenvalues --    1.73857   1.74004   1.74831   1.74945   1.76035
 Alpha virt. eigenvalues --    1.78519   1.78753   1.79219   1.79251   1.79437
 Alpha virt. eigenvalues --    1.79524   1.79685   1.79746   1.79820   1.80348
 Alpha virt. eigenvalues --    1.80476   1.80782   1.80790   1.81280   1.81893
 Alpha virt. eigenvalues --    1.82055   1.82055   1.82182   1.82616   1.83423
 Alpha virt. eigenvalues --    1.83525   1.83945   1.84209   1.84408   1.84807
 Alpha virt. eigenvalues --    1.84851   1.84899   1.85073   1.85469   1.85933
 Alpha virt. eigenvalues --    1.87137   1.87455   1.88537   1.88752   1.90106
 Alpha virt. eigenvalues --    1.90121   1.90491   1.90849   1.91130   1.91217
 Alpha virt. eigenvalues --    1.91227   1.91775   1.91972   1.92079   1.93259
 Alpha virt. eigenvalues --    1.93797   1.94093   1.94332   1.94461   1.94467
 Alpha virt. eigenvalues --    1.94473   1.94944   1.95045   1.95262   1.95341
 Alpha virt. eigenvalues --    1.95353   1.95415   1.96042   1.96152   1.96250
 Alpha virt. eigenvalues --    1.96391   1.96489   1.97265   1.97478   1.98066
 Alpha virt. eigenvalues --    1.98812   1.99616   1.99636   2.00013   2.00029
 Alpha virt. eigenvalues --    2.00184   2.00229   2.01687   2.02390   2.02962
 Alpha virt. eigenvalues --    2.03158   2.03173   2.03782   2.04903   2.05214
 Alpha virt. eigenvalues --    2.05459   2.05559   2.06215   2.07283   2.08007
 Alpha virt. eigenvalues --    2.08789   2.10099   2.10158   2.10999   2.12110
 Alpha virt. eigenvalues --    2.13952   2.14208   2.14265   2.15298   2.15730
 Alpha virt. eigenvalues --    2.17254   2.18884   2.20795   2.22171   2.22362
 Alpha virt. eigenvalues --    2.22515   2.23863   2.25373   2.25795   2.26727
 Alpha virt. eigenvalues --    2.26812   2.26882   2.28901   2.29616   2.29754
 Alpha virt. eigenvalues --    2.31880   2.31991   2.32867   2.32868   2.33082
 Alpha virt. eigenvalues --    2.33546   2.33699   2.33772   2.33859   2.34036
 Alpha virt. eigenvalues --    2.34040   2.34234   2.34888   2.35584   2.35832
 Alpha virt. eigenvalues --    2.36135   2.36153   2.36356   2.36528   2.36683
 Alpha virt. eigenvalues --    2.37499   2.37502   2.38117   2.38860   2.39125
 Alpha virt. eigenvalues --    2.39128   2.39130   2.39213   2.39473   2.39538
 Alpha virt. eigenvalues --    2.39747   2.40010   2.40717   2.40804   2.40955
 Alpha virt. eigenvalues --    2.41570   2.44092   2.46754   2.47865   2.48225
 Alpha virt. eigenvalues --    2.48525   2.48990   2.49011   2.49578   2.52471
 Alpha virt. eigenvalues --    2.52621   2.52695   2.52922   2.53984   2.53993
 Alpha virt. eigenvalues --    2.54081   2.54232   2.54854   2.54865   2.55203
 Alpha virt. eigenvalues --    2.55813   2.57484   2.57758   2.57909   2.57932
 Alpha virt. eigenvalues --    2.58345   2.60956   2.61677   2.62740   2.63275
 Alpha virt. eigenvalues --    2.63565   2.65647   2.65881   2.66108   2.66168
 Alpha virt. eigenvalues --    2.66762   2.66788   2.66931   2.67095   2.67144
 Alpha virt. eigenvalues --    2.67864   2.68127   2.68512   2.68549   2.68817
 Alpha virt. eigenvalues --    2.69439   2.69737   2.69847   2.70177   2.70736
 Alpha virt. eigenvalues --    2.71620   2.76358   2.76480   2.76491   2.76626
 Alpha virt. eigenvalues --    2.76712   2.78554   2.78790   2.78934   2.79058
 Alpha virt. eigenvalues --    2.80199   2.81273   2.81473   2.81812   2.82260
 Alpha virt. eigenvalues --    2.83825   2.84762   2.85131   2.86032   2.86689
 Alpha virt. eigenvalues --    2.87350   2.87424   2.87503   2.87797   2.88198
 Alpha virt. eigenvalues --    2.91999   2.92821   2.98196   2.99193   2.99253
 Alpha virt. eigenvalues --    2.99377   3.00037   3.00199   3.01406   3.01495
 Alpha virt. eigenvalues --    3.03691   3.03727   3.04390   3.04396   3.05154
 Alpha virt. eigenvalues --    3.05599   3.05778   3.05903   3.06586   3.06699
 Alpha virt. eigenvalues --    3.07204   3.07735   3.09344   3.09853   3.10299
 Alpha virt. eigenvalues --    3.11874   3.12421   3.12435   3.13035   3.14164
 Alpha virt. eigenvalues --    3.14511   3.14701   3.16843   3.16936   3.17382
 Alpha virt. eigenvalues --    3.17902   3.19589   3.19784   3.20490   3.20600
 Alpha virt. eigenvalues --    3.21649   3.21969   3.22361   3.22869   3.22995
 Alpha virt. eigenvalues --    3.23917   3.24912   3.25267   3.25699   3.26638
 Alpha virt. eigenvalues --    3.28357   3.28952   3.32245   3.34783   3.34796
 Alpha virt. eigenvalues --    3.35238   3.35705   3.37223   3.37334   3.39663
 Alpha virt. eigenvalues --    3.40644   3.42023   3.42982   3.43055   3.43056
 Alpha virt. eigenvalues --    3.47640   3.48381   3.54625   3.55410   3.57032
 Alpha virt. eigenvalues --    3.57134   3.58650   3.58694   3.60971   3.63195
 Alpha virt. eigenvalues --    3.63275   3.63547   3.80733   3.84155   3.91907
 Alpha virt. eigenvalues --    3.94257   3.94345   3.94569  21.15823  21.20387
 Alpha virt. eigenvalues --   21.20756  21.22113  21.22335  21.36795  21.68338
 Alpha virt. eigenvalues --   21.68391  21.68627  21.71419  21.71430  21.71861
 Alpha virt. eigenvalues --   21.74221  21.74829  21.77460  21.80600  21.80662
 Alpha virt. eigenvalues --   21.90198  21.90994  21.94728  21.94744  21.95768
 Alpha virt. eigenvalues --   21.97212  21.97862  21.98004  22.00276  22.02762
 Alpha virt. eigenvalues --   22.03247  22.03374  22.05342  22.08640  22.09525
 Alpha virt. eigenvalues --   22.14751  22.14983  22.15400  22.16625  32.04290
 Alpha virt. eigenvalues --   32.05235
          Condensed to atoms (all electrons):
 Mulliken charges:
               1
     1  C   -0.121074
     2  C   -0.036789
     3  C   -0.150449
     4  C   -0.121101
     5  C    0.034675
     6  C   -0.150438
     7  H    0.123092
     8  H    0.143197
     9  H    0.123090
    10  C    0.034767
    11  C   -0.150463
    12  C   -0.150455
    13  C   -0.120749
    14  C   -0.120855
    15  C   -0.037387
    16  H    0.123093
    17  H    0.123094
    18  H    0.143121
    19  H    0.143143
    20  H    0.143190
    21  N   -0.004525
    22  C   -0.053501
    23  C   -0.113417
    24  C   -0.107435
    25  C   -0.110241
    26  C   -0.110222
    27  C   -0.100633
    28  H    0.147742
    29  H    0.146042
    30  H    0.103881
    31  H    0.103845
    32  H    0.102559
    33  C   -0.053908
    34  C   -0.113243
    35  C   -0.107212
    36  C   -0.110257
    37  C   -0.110225
    38  C   -0.100588
    39  H    0.147722
    40  H    0.145982
    41  H    0.103888
    42  H    0.103851
    43  H    0.102569
    44  N   -0.004532
    45  C   -0.053885
    46  C   -0.113144
    47  C   -0.107339
    48  C   -0.110240
    49  C   -0.110227
    50  C   -0.100595
    51  H    0.147679
    52  H    0.146027
    53  H    0.103889
    54  H    0.103853
    55  H    0.102571
    56  C   -0.054084
    57  C   -0.113071
    58  C   -0.107218
    59  C   -0.110252
    60  C   -0.110239
    61  C   -0.100574
    62  H    0.147663
    63  H    0.146017
    64  H    0.103893
    65  H    0.103856
    66  H    0.102574
 Sum of Mulliken charges =  -0.00000
 Mulliken charges with hydrogens summed into heavy atoms:
               1
     1  C    0.022116
     2  C   -0.036789
     3  C   -0.027358
     4  C    0.022096
     5  C    0.034675
     6  C   -0.027348
    10  C    0.034767
    11  C   -0.027370
    12  C   -0.027361
    13  C    0.022372
    14  C    0.022289
    15  C   -0.037387
    21  N   -0.004525
    22  C   -0.053501
    23  C    0.034324
    24  C    0.038607
    25  C   -0.006360
    26  C   -0.006377
    27  C    0.001926
    33  C   -0.053908
    34  C    0.034479
    35  C    0.038769
    36  C   -0.006369
    37  C   -0.006374
    38  C    0.001981
    44  N   -0.004532
    45  C   -0.053885
    46  C    0.034535
    47  C    0.038688
    48  C   -0.006351
    49  C   -0.006373
    50  C    0.001977
    56  C   -0.054084
    57  C    0.034592
    58  C    0.038799
    59  C   -0.006359
    60  C   -0.006383
    61  C    0.002001
 Electronic spatial extent (au):  <R**2>=          32902.7639
 Charge=             -0.0000 electrons
 Dipole moment (field-independent basis, Debye):
    X=             -0.0038    Y=              0.0007    Z=              0.0005  Tot=              0.0039
 Quadrupole moment (field-independent basis, Debye-Ang):
   XX=           -204.8253   YY=           -207.0452   ZZ=           -218.0521
   XY=              0.0143   XZ=              0.0007   YZ=             -0.0051
 Traceless Quadrupole moment (field-independent basis, Debye-Ang):
   XX=              5.1489   YY=              2.9290   ZZ=             -8.0779
   XY=              0.0143   XZ=              0.0007   YZ=             -0.0051
 Octapole moment (field-independent basis, Debye-Ang**2):
  XXX=             -0.1312  YYY=              0.0117  ZZZ=              0.0202  XYY=             -0.0447
  XXY=              0.0413  XXZ=              0.0052  XZZ=             -0.0469  YZZ=              0.0053
  YYZ=             -0.0100  XYZ=             34.0151
 Hexadecapole moment (field-independent basis, Debye-Ang**3):
 XXXX=         -37521.4736 YYYY=          -5747.7146 ZZZZ=          -1533.1472 XXXY=              0.6203
 XXXZ=             -0.0296 YYYX=              0.1889 YYYZ=              0.0250 ZZZX=              0.0404
 ZZZY=             -0.0662 XXYY=          -6734.0441 XXZZ=          -6858.4997 YYZZ=          -1117.3477
 XXYZ=             -0.0745 YYXZ=             -0.0212 ZZXY=              0.1121
 N-N= 3.528765539844D+03 E-N=-1.053413543463D+04  KE= 1.490343820065D+03
 No NMR shielding tensors so no spin-rotation constants.
 Leave Link  601 at Mon Jan 18 03:49:33 2021, MaxMem=  4026531840 cpu:               5.5 elap:               0.8
 (Enter /opt/ohpc/pub/libs/gaussian/g16-A.03/sandybridge/g16/l9999.exe)

 Test job not archived.
 1\1\GINC-CASCADEB019\SP\RLC-wHPBE\TZVP\C36H28N2\RDU230\18-Jan-2021\0\\
 #P LC-wHPBE/TZVP iop(3/107=0176900000, 3/108=0176900000) scf=(conver=6
 ,fermi,ndamp=35,noincfock,novaracc,vshift=500,xqc)\\H28 C36 N2\\0,1\C,
 0,2.849999,-1.125861,0.415638\C,0,3.563139,-0.000026,-0.000017\C,0,1.4
 64492,-1.123667,0.405534\C,0,2.850033,1.125752,-0.415809\C,0,0.741288,
 -0.000047,-0.000195\C,0,1.464504,1.123547,-0.405879\H,0,0.931596,-2.00
 5844,0.756198\H,0,3.391048,2.006254,-0.75499\H,0,0.931669,2.005728,-0.
 756629\C,0,-0.741437,-0.000073,-0.000217\C,0,-1.464635,1.123165,0.4065
 56\C,0,-1.464638,-1.123302,-0.406976\C,0,-2.850149,1.125343,0.41661\C,
 0,-2.850163,-1.125491,-0.416935\C,0,-3.563257,-0.000095,-0.000116\H,0,
 -0.931751,2.005025,0.758038\H,0,-0.931783,-2.00514,-0.758553\H,0,-3.39
 1193,2.005527,0.756576\H,0,-3.391211,-2.005669,-0.756913\H,0,3.391005,
 -2.006357,0.754845\N,0,-4.97843,-0.000102,-0.000065\C,0,-5.687099,-1.1
 54578,0.414287\C,0,-6.831881,-1.566674,-0.27115\C,0,-5.251323,-1.89693
 3,1.513908\C,0,-7.528311,-2.692826,0.143324\C,0,-5.943392,-3.032223,1.
 91044\C,0,-7.087522,-3.435368,1.232277\H,0,-7.173684,-0.995181,-1.1311
 17\H,0,-4.363437,-1.577947,2.055099\H,0,-8.419174,-2.999763,-0.40155\H
 ,0,-5.58986,-3.599797,2.769285\H,0,-7.631852,-4.321852,1.550225\C,0,-5
 .687025,1.154532,-0.414292\C,0,-6.831191,1.567225,0.271802\C,0,-5.2517
 07,1.896381,-1.514415\C,0,-7.527485,2.693516,-0.142525\C,0,-5.94362,3.
 031828,-1.910808\C,0,-7.087137,3.435581,-1.231989\H,0,-7.172616,0.9960
 83,1.132151\H,0,-4.364291,1.57691,-2.056093\H,0,-8.417875,3.000945,0.4
 02845\H,0,-5.590451,3.599029,-2.77005\H,0,-7.63135,4.322181,-1.549815\
 N,0,4.978266,0.00002,0.000103\C,0,5.68699,1.154558,0.414335\C,0,6.8312
 89,1.56698,-0.271699\C,0,5.251761,1.896543,1.51441\C,0,7.527834,2.6931
 12,0.142653\C,0,5.943923,3.031822,1.910819\C,0,7.08759,3.435293,1.2320
 69\H,0,7.172649,0.995729,-1.132\H,0,4.364233,1.577285,2.056034\H,0,8.4
 18333,3.000297,-0.402674\H,0,5.59085,3.599137,2.770027\H,0,7.631979,4.
 321768,1.549941\C,0,5.687017,-1.154516,-0.414141\C,0,6.831068,-1.56719
 1,0.272109\C,0,5.251977,-1.896199,-1.514492\C,0,7.527566,-2.693348,-0.
 142281\C,0,5.944079,-3.031486,-1.910953\C,0,7.087509,-3.435246,-1.2319
 58\H,0,7.172277,-0.996155,1.132614\H,0,4.364636,-1.576682,-2.056275\H,
 0,8.417864,-3.000787,0.403227\H,0,5.591165,-3.598572,-2.770374\H,0,7.6
 31874,-4.32173,-1.549857\\Version=EM64L-G16RevA.03\State=1-A\HF=-1497.
 2009182\RMSD=6.369e-07\Dipole=0.001477,0.0002915,-0.0002098\Quadrupole
 =3.8280882,2.1776305,-6.0057187,-0.0106454,0.0004963,0.0037752\PG=C01 
 [X(C36H28N2)]\\@


 GOORD'S AXIOM:  A MEETING IS AN EVENT AT WHICH
 THE MINUTES ARE KEPT AND THE HOURS ARE LOST.
 Job cpu time:       0 days  1 hours 59 minutes 33.9 seconds.
 Elapsed time:       0 days  0 hours 15 minutes  9.9 seconds.
 File lengths (MBytes):  RWF=    284 Int=      0 D2E=      0 Chk=     52 Scr=      8
 Normal termination of Gaussian 16 at Mon Jan 18 03:49:33 2021.
