 Entering Gaussian System, Link 0=g16
 Input=mol_bp_pa_whol_tune_c10.gjf
 Output=mol_bp_pa_whol_tune_c10.log
 Initial command:
 /opt/ohpc/pub/libs/gaussian/g16-A.03/sandybridge/g16/l1.exe "/mnt/gpfs2_4m/scratch/rdu230/ondemand/projects/init_structures/wtuning/mol_bp_pa_whol/tuning_mol_bp_pa_whol_ocycle0/Gau-148162.inp" -scrdir="/mnt/gpfs2_4m/scratch/rdu230/ondemand/projects/init_structures/wtuning/mol_bp_pa_whol/tuning_mol_bp_pa_whol_ocycle0/"
 Entering Link 1 = /opt/ohpc/pub/libs/gaussian/g16-A.03/sandybridge/g16/l1.exe PID=    148163.
  
 Copyright (c) 1988,1990,1992,1993,1995,1998,2003,2009,2016,
            Gaussian, Inc.  All Rights Reserved.
  
 This is part of the Gaussian(R) 16 program.  It is based on
 the Gaussian(R) 09 system (copyright 2009, Gaussian, Inc.),
 the Gaussian(R) 03 system (copyright 2003, Gaussian, Inc.),
 the Gaussian(R) 98 system (copyright 1998, Gaussian, Inc.),
 the Gaussian(R) 94 system (copyright 1995, Gaussian, Inc.),
 the Gaussian 92(TM) system (copyright 1992, Gaussian, Inc.),
 the Gaussian 90(TM) system (copyright 1990, Gaussian, Inc.),
 the Gaussian 88(TM) system (copyright 1988, Gaussian, Inc.),
 the Gaussian 86(TM) system (copyright 1986, Carnegie Mellon
 University), and the Gaussian 82(TM) system (copyright 1983,
 Carnegie Mellon University). Gaussian is a federally registered
 trademark of Gaussian, Inc.
  
 This software contains proprietary and confidential information,
 including trade secrets, belonging to Gaussian, Inc.
  
 This software is provided under written license and may be
 used, copied, transmitted, or stored only in accord with that
 written license.
  
 The following legend is applicable only to US Government
 contracts under FAR:
  
                    RESTRICTED RIGHTS LEGEND
  
 Use, reproduction and disclosure by the US Government is
 subject to restrictions as set forth in subparagraphs (a)
 and (c) of the Commercial Computer Software - Restricted
 Rights clause in FAR 52.227-19.
  
 Gaussian, Inc.
 340 Quinnipiac St., Bldg. 40, Wallingford CT 06492
  
  
 ---------------------------------------------------------------
 Warning -- This program may not be used in any manner that
 competes with the business of Gaussian, Inc. or will provide
 assistance to any competitor of Gaussian, Inc.  The licensee
 of this program is prohibited from giving any competitor of
 Gaussian, Inc. access to this program.  By using this program,
 the user acknowledges that Gaussian, Inc. is engaged in the
 business of creating and licensing software in the field of
 computational chemistry and represents and warrants to the
 licensee that it is not a competitor of Gaussian, Inc. and that
 it will not use this program in any manner prohibited above.
 ---------------------------------------------------------------
  

 Cite this work as:
 Gaussian 16, Revision A.03,
 M. J. Frisch, G. W. Trucks, H. B. Schlegel, G. E. Scuseria, 
 M. A. Robb, J. R. Cheeseman, G. Scalmani, V. Barone, 
 G. A. Petersson, H. Nakatsuji, X. Li, M. Caricato, A. V. Marenich, 
 J. Bloino, B. G. Janesko, R. Gomperts, B. Mennucci, H. P. Hratchian, 
 J. V. Ortiz, A. F. Izmaylov, J. L. Sonnenberg, D. Williams-Young, 
 F. Ding, F. Lipparini, F. Egidi, J. Goings, B. Peng, A. Petrone, 
 T. Henderson, D. Ranasinghe, V. G. Zakrzewski, J. Gao, N. Rega, 
 G. Zheng, W. Liang, M. Hada, M. Ehara, K. Toyota, R. Fukuda, 
 J. Hasegawa, M. Ishida, T. Nakajima, Y. Honda, O. Kitao, H. Nakai, 
 T. Vreven, K. Throssell, J. A. Montgomery, Jr., J. E. Peralta, 
 F. Ogliaro, M. J. Bearpark, J. J. Heyd, E. N. Brothers, K. N. Kudin, 
 V. N. Staroverov, T. A. Keith, R. Kobayashi, J. Normand, 
 K. Raghavachari, A. P. Rendell, J. C. Burant, S. S. Iyengar, 
 J. Tomasi, M. Cossi, J. M. Millam, M. Klene, C. Adamo, R. Cammi, 
 J. W. Ochterski, R. L. Martin, K. Morokuma, O. Farkas, 
 J. B. Foresman, and D. J. Fox, Gaussian, Inc., Wallingford CT, 2016.
 
 ******************************************
 Gaussian 16:  EM64L-G16RevA.03 25-Dec-2016
                18-Jan-2021 
 ******************************************
 %mem=30GB
 %nproc=8
 Will use up to    8 processors via shared memory.
 ----------------------------------------------------------------------
 #P LC-wHPBE/TZVP iop(3/107=0178100000, 3/108=0178100000) scf=(conver=6
 ,fermi,ndamp=35,noincfock,novaracc,vshift=500,xqc)
 ----------------------------------------------------------------------
 1/38=1,172=1/1;
 2/12=2,17=6,18=5,40=1/2;
 3/5=19,7=101,11=2,25=1,30=1,74=-71,107=178100000,108=178100000/1,2,3;
 4//1;
 5/5=100002,6=6,8=3,10=500,13=1,18=-1,22=13,38=1,93=35/2,8;
 6/7=2,8=2,9=2,10=2,28=1/1;
 99/5=1,9=1/99;
 Leave Link    1 at Mon Jan 18 05:21:34 2021, MaxMem=  4026531840 cpu:               1.3 elap:               0.3
 (Enter /opt/ohpc/pub/libs/gaussian/g16-A.03/sandybridge/g16/l101.exe)
 ----------
 H28 C36 N2
 ----------
 Symbolic Z-matrix:
 Charge =  1 Multiplicity = 2
 C                     2.85     -1.12586   0.41564 
 C                     3.56314  -0.00003  -0.00002 
 C                     1.46449  -1.12367   0.40553 
 C                     2.85003   1.12575  -0.41581 
 C                     0.74129  -0.00005  -0.0002 
 C                     1.4645    1.12355  -0.40588 
 H                     0.9316   -2.00584   0.7562 
 H                     3.39105   2.00625  -0.75499 
 H                     0.93167   2.00573  -0.75663 
 C                    -0.74144  -0.00007  -0.00022 
 C                    -1.46464   1.12316   0.40656 
 C                    -1.46464  -1.1233   -0.40698 
 C                    -2.85015   1.12534   0.41661 
 C                    -2.85016  -1.12549  -0.41694 
 C                    -3.56326  -0.0001   -0.00012 
 H                    -0.93175   2.00502   0.75804 
 H                    -0.93178  -2.00514  -0.75855 
 H                    -3.39119   2.00553   0.75658 
 H                    -3.39121  -2.00567  -0.75691 
 H                     3.39101  -2.00636   0.75485 
 N                    -4.97843  -0.0001   -0.00007 
 C                    -5.6871   -1.15458   0.41429 
 C                    -6.83188  -1.56667  -0.27115 
 C                    -5.25132  -1.89693   1.51391 
 C                    -7.52831  -2.69283   0.14332 
 C                    -5.94339  -3.03222   1.91044 
 C                    -7.08752  -3.43537   1.23228 
 H                    -7.17368  -0.99518  -1.13112 
 H                    -4.36344  -1.57795   2.0551 
 H                    -8.41917  -2.99976  -0.40155 
 H                    -5.58986  -3.5998    2.76929 
 H                    -7.63185  -4.32185   1.55023 
 C                    -5.68703   1.15453  -0.41429 
 C                    -6.83119   1.56723   0.2718 
 C                    -5.25171   1.89638  -1.51442 
 C                    -7.52749   2.69352  -0.14253 
 C                    -5.94362   3.03183  -1.91081 
 C                    -7.08714   3.43558  -1.23199 
 H                    -7.17262   0.99608   1.13215 
 H                    -4.36429   1.57691  -2.05609 
 H                    -8.41788   3.00095   0.40285 
 H                    -5.59045   3.59903  -2.77005 
 H                    -7.63135   4.32218  -1.54982 
 N                     4.97827   0.00002   0.0001 
 C                     5.68699   1.15456   0.41434 
 C                     6.83129   1.56698  -0.2717 
 C                     5.25176   1.89654   1.51441 
 C                     7.52783   2.69311   0.14265 
 C                     5.94392   3.03182   1.91082 
 C                     7.08759   3.43529   1.23207 
 H                     7.17265   0.99573  -1.132 
 H                     4.36423   1.57729   2.05603 
 H                     8.41833   3.0003   -0.40267 
 H                     5.59085   3.59914   2.77003 
 H                     7.63198   4.32177   1.54994 
 C                     5.68702  -1.15452  -0.41414 
 C                     6.83107  -1.56719   0.27211 
 C                     5.25198  -1.8962   -1.51449 
 C                     7.52757  -2.69335  -0.14228 
 C                     5.94408  -3.03149  -1.91095 
 C                     7.08751  -3.43525  -1.23196 
 H                     7.17228  -0.99616   1.13261 
 H                     4.36464  -1.57668  -2.05627 
 H                     8.41786  -3.00079   0.40323 
 H                     5.59117  -3.59857  -2.77037 
 H                     7.63187  -4.32173  -1.54986 
 
 ITRead=  0  0  0  0  0  0  0  0  0  0  0  0  0  0  0  0  0  0  0  0
 ITRead=  0  0  0  0  0  0  0  0  0  0  0  0  0  0  0  0  0  0  0  0
 ITRead=  0  0  0  0  0  0  0  0  0  0  0  0  0  0  0  0  0  0  0  0
 ITRead=  0  0  0  0  0  0
 MicOpt= -1 -1 -1 -1 -1 -1 -1 -1 -1 -1 -1 -1 -1 -1 -1 -1 -1 -1 -1 -1
 MicOpt= -1 -1 -1 -1 -1 -1 -1 -1 -1 -1 -1 -1 -1 -1 -1 -1 -1 -1 -1 -1
 MicOpt= -1 -1 -1 -1 -1 -1 -1 -1 -1 -1 -1 -1 -1 -1 -1 -1 -1 -1 -1 -1
 MicOpt= -1 -1 -1 -1 -1 -1
 NAtoms=     66 NQM=       66 NQMF=       0 NMMI=      0 NMMIF=      0
                NMic=       0 NMicF=      0.
                    Isotopes and Nuclear Properties:
 (Nuclear quadrupole moments (NQMom) in fm**2, nuclear magnetic moments (NMagM)
  in nuclear magnetons)

  Atom         1           2           3           4           5           6           7           8           9          10
 IAtWgt=          12          12          12          12          12          12           1           1           1          12
 AtmWgt=  12.0000000  12.0000000  12.0000000  12.0000000  12.0000000  12.0000000   1.0078250   1.0078250   1.0078250  12.0000000
 NucSpn=           0           0           0           0           0           0           1           1           1           0
 AtZEff=  -0.0000000  -0.0000000  -0.0000000  -0.0000000  -0.0000000  -0.0000000  -0.0000000  -0.0000000  -0.0000000  -0.0000000
 NQMom=    0.0000000   0.0000000   0.0000000   0.0000000   0.0000000   0.0000000   0.0000000   0.0000000   0.0000000   0.0000000
 NMagM=    0.0000000   0.0000000   0.0000000   0.0000000   0.0000000   0.0000000   2.7928460   2.7928460   2.7928460   0.0000000
 AtZNuc=   6.0000000   6.0000000   6.0000000   6.0000000   6.0000000   6.0000000   1.0000000   1.0000000   1.0000000   6.0000000

  Atom        11          12          13          14          15          16          17          18          19          20
 IAtWgt=          12          12          12          12          12           1           1           1           1           1
 AtmWgt=  12.0000000  12.0000000  12.0000000  12.0000000  12.0000000   1.0078250   1.0078250   1.0078250   1.0078250   1.0078250
 NucSpn=           0           0           0           0           0           1           1           1           1           1
 AtZEff=  -0.0000000  -0.0000000  -0.0000000  -0.0000000  -0.0000000  -0.0000000  -0.0000000  -0.0000000  -0.0000000  -0.0000000
 NQMom=    0.0000000   0.0000000   0.0000000   0.0000000   0.0000000   0.0000000   0.0000000   0.0000000   0.0000000   0.0000000
 NMagM=    0.0000000   0.0000000   0.0000000   0.0000000   0.0000000   2.7928460   2.7928460   2.7928460   2.7928460   2.7928460
 AtZNuc=   6.0000000   6.0000000   6.0000000   6.0000000   6.0000000   1.0000000   1.0000000   1.0000000   1.0000000   1.0000000

  Atom        21          22          23          24          25          26          27          28          29          30
 IAtWgt=          14          12          12          12          12          12          12           1           1           1
 AtmWgt=  14.0030740  12.0000000  12.0000000  12.0000000  12.0000000  12.0000000  12.0000000   1.0078250   1.0078250   1.0078250
 NucSpn=           2           0           0           0           0           0           0           1           1           1
 AtZEff=  -0.0000000  -0.0000000  -0.0000000  -0.0000000  -0.0000000  -0.0000000  -0.0000000  -0.0000000  -0.0000000  -0.0000000
 NQMom=    2.0440000   0.0000000   0.0000000   0.0000000   0.0000000   0.0000000   0.0000000   0.0000000   0.0000000   0.0000000
 NMagM=    0.4037610   0.0000000   0.0000000   0.0000000   0.0000000   0.0000000   0.0000000   2.7928460   2.7928460   2.7928460
 AtZNuc=   7.0000000   6.0000000   6.0000000   6.0000000   6.0000000   6.0000000   6.0000000   1.0000000   1.0000000   1.0000000

  Atom        31          32          33          34          35          36          37          38          39          40
 IAtWgt=           1           1          12          12          12          12          12          12           1           1
 AtmWgt=   1.0078250   1.0078250  12.0000000  12.0000000  12.0000000  12.0000000  12.0000000  12.0000000   1.0078250   1.0078250
 NucSpn=           1           1           0           0           0           0           0           0           1           1
 AtZEff=  -0.0000000  -0.0000000  -0.0000000  -0.0000000  -0.0000000  -0.0000000  -0.0000000  -0.0000000  -0.0000000  -0.0000000
 NQMom=    0.0000000   0.0000000   0.0000000   0.0000000   0.0000000   0.0000000   0.0000000   0.0000000   0.0000000   0.0000000
 NMagM=    2.7928460   2.7928460   0.0000000   0.0000000   0.0000000   0.0000000   0.0000000   0.0000000   2.7928460   2.7928460
 AtZNuc=   1.0000000   1.0000000   6.0000000   6.0000000   6.0000000   6.0000000   6.0000000   6.0000000   1.0000000   1.0000000

  Atom        41          42          43          44          45          46          47          48          49          50
 IAtWgt=           1           1           1          14          12          12          12          12          12          12
 AtmWgt=   1.0078250   1.0078250   1.0078250  14.0030740  12.0000000  12.0000000  12.0000000  12.0000000  12.0000000  12.0000000
 NucSpn=           1           1           1           2           0           0           0           0           0           0
 AtZEff=  -0.0000000  -0.0000000  -0.0000000  -0.0000000  -0.0000000  -0.0000000  -0.0000000  -0.0000000  -0.0000000  -0.0000000
 NQMom=    0.0000000   0.0000000   0.0000000   2.0440000   0.0000000   0.0000000   0.0000000   0.0000000   0.0000000   0.0000000
 NMagM=    2.7928460   2.7928460   2.7928460   0.4037610   0.0000000   0.0000000   0.0000000   0.0000000   0.0000000   0.0000000
 AtZNuc=   1.0000000   1.0000000   1.0000000   7.0000000   6.0000000   6.0000000   6.0000000   6.0000000   6.0000000   6.0000000

  Atom        51          52          53          54          55          56          57          58          59          60
 IAtWgt=           1           1           1           1           1          12          12          12          12          12
 AtmWgt=   1.0078250   1.0078250   1.0078250   1.0078250   1.0078250  12.0000000  12.0000000  12.0000000  12.0000000  12.0000000
 NucSpn=           1           1           1           1           1           0           0           0           0           0
 AtZEff=  -0.0000000  -0.0000000  -0.0000000  -0.0000000  -0.0000000  -0.0000000  -0.0000000  -0.0000000  -0.0000000  -0.0000000
 NQMom=    0.0000000   0.0000000   0.0000000   0.0000000   0.0000000   0.0000000   0.0000000   0.0000000   0.0000000   0.0000000
 NMagM=    2.7928460   2.7928460   2.7928460   2.7928460   2.7928460   0.0000000   0.0000000   0.0000000   0.0000000   0.0000000
 AtZNuc=   1.0000000   1.0000000   1.0000000   1.0000000   1.0000000   6.0000000   6.0000000   6.0000000   6.0000000   6.0000000

  Atom        61          62          63          64          65          66
 IAtWgt=          12           1           1           1           1           1
 AtmWgt=  12.0000000   1.0078250   1.0078250   1.0078250   1.0078250   1.0078250
 NucSpn=           0           1           1           1           1           1
 AtZEff=  -0.0000000  -0.0000000  -0.0000000  -0.0000000  -0.0000000  -0.0000000
 NQMom=    0.0000000   0.0000000   0.0000000   0.0000000   0.0000000   0.0000000
 NMagM=    0.0000000   2.7928460   2.7928460   2.7928460   2.7928460   2.7928460
 AtZNuc=   6.0000000   1.0000000   1.0000000   1.0000000   1.0000000   1.0000000
 Leave Link  101 at Mon Jan 18 05:21:34 2021, MaxMem=  4026531840 cpu:               0.7 elap:               0.1
 (Enter /opt/ohpc/pub/libs/gaussian/g16-A.03/sandybridge/g16/l202.exe)
 Stoichiometry    C36H28N2(1+,2)
 Framework group  C1[X(C36H28N2)]
 Deg. of freedom   192
 Full point group                 C1      NOp   1
 Largest Abelian subgroup         C1      NOp   1
 Largest concise Abelian subgroup C1      NOp   1
                         Standard orientation:                         
 ---------------------------------------------------------------------
 Center     Atomic      Atomic             Coordinates (Angstroms)
 Number     Number       Type             X           Y           Z
 ---------------------------------------------------------------------
      1          6           0       -2.849999   -1.125861   -0.415638
      2          6           0       -3.563139   -0.000026    0.000017
      3          6           0       -1.464492   -1.123667   -0.405534
      4          6           0       -2.850033    1.125752    0.415809
      5          6           0       -0.741288   -0.000047    0.000195
      6          6           0       -1.464504    1.123547    0.405879
      7          1           0       -0.931596   -2.005844   -0.756198
      8          1           0       -3.391048    2.006254    0.754990
      9          1           0       -0.931669    2.005728    0.756629
     10          6           0        0.741437   -0.000073    0.000217
     11          6           0        1.464635    1.123165   -0.406556
     12          6           0        1.464638   -1.123302    0.406976
     13          6           0        2.850149    1.125343   -0.416610
     14          6           0        2.850163   -1.125491    0.416935
     15          6           0        3.563257   -0.000095    0.000116
     16          1           0        0.931751    2.005025   -0.758038
     17          1           0        0.931783   -2.005140    0.758553
     18          1           0        3.391193    2.005527   -0.756576
     19          1           0        3.391211   -2.005669    0.756913
     20          1           0       -3.391005   -2.006357   -0.754845
     21          7           0        4.978430   -0.000102    0.000065
     22          6           0        5.687099   -1.154578   -0.414287
     23          6           0        6.831881   -1.566674    0.271150
     24          6           0        5.251323   -1.896933   -1.513908
     25          6           0        7.528311   -2.692826   -0.143324
     26          6           0        5.943392   -3.032223   -1.910440
     27          6           0        7.087522   -3.435368   -1.232277
     28          1           0        7.173684   -0.995181    1.131117
     29          1           0        4.363437   -1.577947   -2.055099
     30          1           0        8.419174   -2.999763    0.401550
     31          1           0        5.589860   -3.599797   -2.769285
     32          1           0        7.631852   -4.321852   -1.550225
     33          6           0        5.687025    1.154532    0.414292
     34          6           0        6.831191    1.567225   -0.271802
     35          6           0        5.251707    1.896381    1.514415
     36          6           0        7.527485    2.693516    0.142525
     37          6           0        5.943620    3.031828    1.910808
     38          6           0        7.087137    3.435581    1.231989
     39          1           0        7.172616    0.996083   -1.132151
     40          1           0        4.364291    1.576910    2.056093
     41          1           0        8.417875    3.000945   -0.402845
     42          1           0        5.590451    3.599029    2.770050
     43          1           0        7.631350    4.322181    1.549815
     44          7           0       -4.978266    0.000020   -0.000103
     45          6           0       -5.686990    1.154558   -0.414335
     46          6           0       -6.831289    1.566980    0.271699
     47          6           0       -5.251761    1.896543   -1.514410
     48          6           0       -7.527834    2.693112   -0.142653
     49          6           0       -5.943923    3.031822   -1.910819
     50          6           0       -7.087590    3.435293   -1.232069
     51          1           0       -7.172649    0.995729    1.132000
     52          1           0       -4.364233    1.577285   -2.056034
     53          1           0       -8.418333    3.000297    0.402674
     54          1           0       -5.590850    3.599137   -2.770027
     55          1           0       -7.631979    4.321768   -1.549941
     56          6           0       -5.687017   -1.154516    0.414141
     57          6           0       -6.831068   -1.567191   -0.272109
     58          6           0       -5.251977   -1.896199    1.514492
     59          6           0       -7.527566   -2.693348    0.142281
     60          6           0       -5.944079   -3.031486    1.910953
     61          6           0       -7.087509   -3.435246    1.231958
     62          1           0       -7.172277   -0.996155   -1.132614
     63          1           0       -4.364636   -1.576682    2.056275
     64          1           0       -8.417864   -3.000787   -0.403227
     65          1           0       -5.591165   -3.598572    2.770374
     66          1           0       -7.631874   -4.321730    1.549857
 ---------------------------------------------------------------------
 Rotational constants (GHZ):           0.2023709           0.0339547           0.0306836
 Leave Link  202 at Mon Jan 18 05:21:34 2021, MaxMem=  4026531840 cpu:               0.3 elap:               0.1
 (Enter /opt/ohpc/pub/libs/gaussian/g16-A.03/sandybridge/g16/l301.exe)
 Standard basis: TZVP (5D, 7F)
 Ernie: Thresh=  0.10000D-02 Tol=  0.10000D-05 Strict=F.
 There are   928 symmetry adapted cartesian basis functions of A   symmetry.
 There are   890 symmetry adapted basis functions of A   symmetry.
   890 basis functions,  1554 primitive gaussians,   928 cartesian basis functions
   129 alpha electrons      128 beta electrons
       nuclear repulsion energy      3528.7655398436 Hartrees.
 IExCor=33909 DFT=T Ex+Corr=LC-wHPBE ExCW=0 ScaHFX=  1.000000
 ScaDFX=  1.000000  1.000000  1.000000  1.000000 ScalE2=  1.000000  1.000000
 IRadAn=      5 IRanWt=     -1 IRanGd=            0 ICorTp=0 IEmpDi=  4
 HFx  wShort=  0.000000 wLong=  0.178100 cFull=  0.000000 cShort=  0.000000 cLong=  1.000000
 DFx  wShort=  0.000000 wLong=  0.178100 cFull=  0.000000 cShort=  1.000000 cLong=  0.000000
 NAtoms=   66 NActive=   66 NUniq=   66 SFac= 1.00D+00 NAtFMM=   60 NAOKFM=T Big=T
 Integral buffers will be    131072 words long.
 Raffenetti 2 integral format.
 Two-electron integral symmetry is turned on.
 Leave Link  301 at Mon Jan 18 05:21:34 2021, MaxMem=  4026531840 cpu:               0.4 elap:               0.1
 (Enter /opt/ohpc/pub/libs/gaussian/g16-A.03/sandybridge/g16/l302.exe)
 NPDir=0 NMtPBC=     1 NCelOv=     1 NCel=       1 NClECP=     1 NCelD=      1
         NCelK=      1 NCelE2=     1 NClLst=     1 CellRange=     0.0.
 One-electron integrals computed using PRISM.
 One-electron integral symmetry used in STVInt
 NBasis=   890 RedAO= T EigKep=  6.71D-06  NBF=   890
 NBsUse=   890 1.00D-06 EigRej= -1.00D+00 NBFU=   890
 Precomputing XC quadrature grid using
 IXCGrd= 4 IRadAn=           5 IRanWt=          -1 IRanGd=           0 AccXCQ= 0.00D+00.
 Generated NRdTot=       0 NPtTot=           0 NUsed=           0 NTot=          32
 NSgBfM=   852   844   846   852   852 MxSgAt=    66 MxSgA2=    66.
 Leave Link  302 at Mon Jan 18 05:21:37 2021, MaxMem=  4026531840 cpu:              17.0 elap:               2.2
 (Enter /opt/ohpc/pub/libs/gaussian/g16-A.03/sandybridge/g16/l303.exe)
 DipDrv:  MaxL=1.
 Leave Link  303 at Mon Jan 18 05:21:37 2021, MaxMem=  4026531840 cpu:               1.0 elap:               0.2
 (Enter /opt/ohpc/pub/libs/gaussian/g16-A.03/sandybridge/g16/l401.exe)
 ExpMin= 9.52D-02 ExpMax= 1.97D+04 ExpMxC= 6.73D+02 IAcc=3 IRadAn=         5 AccDes= 0.00D+00
 Harris functional with IExCor=33909 and IRadAn=       5 diagonalized for initial guess.
 HarFok:  IExCor=33909 AccDes= 0.00D+00 IRadAn=         5 IDoV= 1 UseB2=F ITyADJ=14
 ICtDFT=  3500011 ScaDFX=  1.000000  1.000000  1.000000  1.000000
 FoFCou: FMM=F IPFlag=           0 FMFlag=      100000 FMFlg1=        2001
         NFxFlg=           0 DoJE=T BraDBF=F KetDBF=T FulRan=T
         wScrn=  0.000000 ICntrl=       500 IOpCl=  0 I1Cent=   200000004 NGrid=           0
         NMat0=    1 NMatS0=      1 NMatT0=    0 NMatD0=    1 NMtDS0=    0 NMtDT0=    0
 Petite list used in FoFCou.
 Harris En= -1472.54101650008    
 JPrj=0 DoOrth=F DoCkMO=F.
 Initial guess <Sx>= 0.0000 <Sy>= 0.0000 <Sz>= 0.5000 <S**2>= 0.7500 S= 0.5000
 Leave Link  401 at Mon Jan 18 05:21:47 2021, MaxMem=  4026531840 cpu:              80.5 elap:              10.2
 (Enter /opt/ohpc/pub/libs/gaussian/g16-A.03/sandybridge/g16/l502.exe)
 Integral symmetry usage will be decided dynamically.
 UHF open shell SCF:
 Using DIIS extrapolation, IDIIS=    10.
 NGot=  4026531840 LenX=  4024793050 LenY=  4023930938
 Requested convergence on RMS density matrix=1.00D-06 within  32 cycles.
 Requested convergence on MAX density matrix=1.00D-04.
 Requested convergence on             energy=1.00D-04.
 Virtual orbitals will be shifted by   0.500 hartree.
 No special actions if energy rises.
 Dynamic level shift is on during FON iterations.

 Cycle   1  Pass 1  IDiag  1:
 FoFJK:  IHMeth= 1 ICntrl=       0 DoSepK=T KAlg= 0 I1Cent=           0 FoldK=F
 IRaf=         1 NMat=       1 IRICut=       1 DoRegI=T DoRafI=F ISym2E= 0 IDoP0=0 IntGTp=1.
 FoFCou: FMM=T IPFlag=           0 FMFlag=      100000 FMFlg1=        2001
         NFxFlg=           0 DoJE=T BraDBF=F KetDBF=F FulRan=T
         wScrn=  0.000000 ICntrl=       500 IOpCl=  0 I1Cent=           0 NGrid=           0
         NMat0=    1 NMatS0=      1 NMatT0=    0 NMatD0=    1 NMtDS0=    0 NMtDT0=    0
 Symmetry not used in FoFCou.
 FMM levels:  10  Number of levels for PrismC:   9
 E= -1496.33953324267    
 DIIS: error= 3.09D-02 at cycle   1 NSaved=   1.
 NSaved= 1 IEnMin= 1 EnMin= -1496.33953324267     IErMin= 1 ErrMin= 3.09D-02
 ErrMax= 3.09D-02  0.00D+00 EMaxC= 1.00D+00 BMatC= 2.50D+00 BMatP= 2.50D+00
 IDIUse=1 WtCom= 1.00D+00 WtEn= 0.00D+00
 Coeff-Com:  0.100D+01
 Coeff:      0.100D+01
 Gap=     0.282 Goal=   None    Shift=    0.500
 T= 1515. Gap= 0.721 NK=0 IS=  130 IE=  890 IFin=  129
          NO(<0.9)=   0  NV(>0.1)=   0    129.00e < EF      0.00e >EF  Err=0.0D+00
 Gap=     0.080 Goal=   None    Shift=    0.500
 T= 1515. Gap= 0.532 NK=0 IS=  129 IE=  890 IFin=  128
          NO(<0.9)=   0  NV(>0.1)=   0    128.00e < EF      0.00e >EF  Err=0.0D+00
 GapD=    0.080 DampG=0.500 DampE=0.500 DampFc=0.2500 IDamp=-1.
 Damping current iteration by 2.50D-01
 RMSDP=2.03D-03 MaxDP=7.70D-02              OVMax= 9.92D-02

 Cycle   2  Pass 1  IDiag  1:
 E= -1496.56587929766     Delta-E=       -0.226346054984 Rises=F Damp=T
 DIIS: error= 2.25D-02 at cycle   2 NSaved=   2.
 NSaved= 2 IEnMin= 2 EnMin= -1496.56587929766     IErMin= 2 ErrMin= 2.25D-02
 ErrMax= 2.25D-02  0.00D+00 EMaxC= 1.00D+00 BMatC= 1.17D+00 BMatP= 2.50D+00
 IDIUse=1 WtCom= 1.00D+00 WtEn= 0.00D+00
 Coeff-Com: -0.194D+01 0.294D+01
 Coeff:     -0.194D+01 0.294D+01
 Gap=     0.269 Goal=   None    Shift=    0.500
 T= 1458. Gap= 0.733 NK=0 IS=  130 IE=  890 IFin=  129
          NO(<0.9)=   0  NV(>0.1)=   0    129.00e < EF      0.00e >EF  Err=0.0D+00
 Gap=     0.115 Goal=   None    Shift=    0.500
 T= 1458. Gap= 0.574 NK=0 IS=  129 IE=  890 IFin=  128
          NO(<0.9)=   0  NV(>0.1)=   0    128.00e < EF      0.00e >EF  Err=0.0D+00
 GapD=    0.115 DampG=1.000 DampE=0.500 DampFc=0.5000 IDamp=-1.
 Damping current iteration by 5.00D-01
 RMSDP=1.51D-03 MaxDP=7.75D-02 DE=-2.26D-01 OVMax= 3.24D-02

 Cycle   3  Pass 1  IDiag  1:
 E= -1496.80153295292     Delta-E=       -0.235653655262 Rises=F Damp=T
 DIIS: error= 1.04D-02 at cycle   3 NSaved=   3.
 NSaved= 3 IEnMin= 3 EnMin= -1496.80153295292     IErMin= 3 ErrMin= 1.04D-02
 ErrMax= 1.04D-02  0.00D+00 EMaxC= 1.00D+00 BMatC= 2.30D-01 BMatP= 1.17D+00
 IDIUse=1 WtCom= 1.00D+00 WtEn= 0.00D+00
 Coeff-Com:  0.340D-01-0.830D+00 0.180D+01
 Coeff:      0.340D-01-0.830D+00 0.180D+01
 Gap=     0.249 Goal=   None    Shift=    0.500
 T= 1290. Gap= 0.747 NK=4 IS=  130 IE=  145 IFin=  129
          NO(<0.9)=   0  NV(>0.1)=   0    129.00e < EF      0.00e >EF  Err=0.0D+00
 Gap=     0.079 Goal=   None    Shift=    0.500
 T= 1290. Gap= 0.577 NK=4 IS=  129 IE=  143 IFin=  128
          NO(<0.9)=   0  NV(>0.1)=   0    128.00e < EF      0.00e >EF  Err=0.0D+00
 GapD=    0.079 DampG=0.500 DampE=0.500 DampFc=0.2500 IDamp=-1.
 Damping current iteration by 2.50D-01
 RMSDP=7.78D-04 MaxDP=4.59D-02 DE=-2.36D-01 OVMax= 1.11D-02

 Cycle   4  Pass 1  IDiag  1:
 E= -1496.84785165719     Delta-E=       -0.046318704272 Rises=F Damp=T
 DIIS: error= 7.70D-03 at cycle   4 NSaved=   4.
 NSaved= 4 IEnMin= 4 EnMin= -1496.84785165719     IErMin= 4 ErrMin= 7.70D-03
 ErrMax= 7.70D-03  0.00D+00 EMaxC= 1.00D+00 BMatC= 1.22D-01 BMatP= 2.30D-01
 IDIUse=1 WtCom= 1.00D+00 WtEn= 0.00D+00
 Coeff-Com:  0.197D+00-0.314D+00-0.272D+01 0.384D+01
 Coeff:      0.197D+00-0.314D+00-0.272D+01 0.384D+01
 Gap=     0.245 Goal=   None    Shift=    0.500
 T= 1019. Gap= 0.745 NK=4 IS=  130 IE=  146 IFin=  129
          NO(<0.9)=   0  NV(>0.1)=   0    129.00e < EF      0.00e >EF  Err=0.0D+00
 Gap=     0.078 Goal=   None    Shift=    0.500
 T= 1019. Gap= 0.578 NK=4 IS=  129 IE=  143 IFin=  128
          NO(<0.9)=   0  NV(>0.1)=   0    128.00e < EF      0.00e >EF  Err=0.0D+00
 GapD=    0.078 DampG=0.500 DampE=1.000 DampFc=0.5000 IDamp=-1.
 Damping current iteration by 5.00D-01
 RMSDP=5.80D-04 MaxDP=3.87D-02 DE=-4.63D-02 OVMax= 8.72D-03

 Cycle   5  Pass 1  IDiag  1:
 E= -1496.91035579813     Delta-E=       -0.062504140936 Rises=F Damp=T
 DIIS: error= 3.80D-03 at cycle   5 NSaved=   5.
 NSaved= 5 IEnMin= 5 EnMin= -1496.91035579813     IErMin= 5 ErrMin= 3.80D-03
 ErrMax= 3.80D-03  0.00D+00 EMaxC= 1.00D+00 BMatC= 2.86D-02 BMatP= 1.22D-01
 IDIUse=1 WtCom= 1.00D+00 WtEn= 0.00D+00
 Coeff-Com:  0.579D-01-0.373D-01 0.346D+00-0.178D+01 0.241D+01
 Coeff:      0.579D-01-0.373D-01 0.346D+00-0.178D+01 0.241D+01
 Gap=     0.247 Goal=   None    Shift=    0.500
 T=  649. Gap= 0.747 NK=4 IS=  130 IE=  146 IFin=  129
          NO(<0.9)=   0  NV(>0.1)=   0    129.00e < EF      0.00e >EF  Err=0.0D+00
 Gap=     0.079 Goal=   None    Shift=    0.500
 T=  649. Gap= 0.579 NK=4 IS=  129 IE=  143 IFin=  128
          NO(<0.9)=   0  NV(>0.1)=   0    128.00e < EF      0.00e >EF  Err=0.0D+00
 GapD=    0.079 DampG=0.500 DampE=1.000 DampFc=0.5000 IDamp=-1.
 Damping current iteration by 5.00D-01
 RMSDP=3.00D-04 MaxDP=2.16D-02 DE=-6.25D-02 OVMax= 7.33D-03

 Cycle   6  Pass 1  IDiag  1:
 E= -1496.93915429008     Delta-E=       -0.028798491959 Rises=F Damp=T
 DIIS: error= 1.89D-03 at cycle   6 NSaved=   6.
 NSaved= 6 IEnMin= 6 EnMin= -1496.93915429008     IErMin= 6 ErrMin= 1.89D-03
 ErrMax= 1.89D-03  0.00D+00 EMaxC= 1.00D+00 BMatC= 7.09D-03 BMatP= 2.86D-02
 IDIUse=1 WtCom= 1.00D+00 WtEn= 0.00D+00
 Coeff-Com: -0.347D-01 0.625D-01 0.758D+00-0.101D+01-0.146D+01 0.269D+01
 Coeff:     -0.347D-01 0.625D-01 0.758D+00-0.101D+01-0.146D+01 0.269D+01
 Gap=     0.247 Goal=   None    Shift=    0.500
 T=  353. Gap= 0.747 NK=4 IS=  130 IE=  146 IFin=  129
          NO(<0.9)=   0  NV(>0.1)=   0    129.00e < EF      0.00e >EF  Err=0.0D+00
 Gap=     0.080 Goal=   None    Shift=    0.500
 T=  353. Gap= 0.580 NK=4 IS=  129 IE=  143 IFin=  128
          NO(<0.9)=   0  NV(>0.1)=   0    128.00e < EF      0.00e >EF  Err=0.0D+00
 GapD=    0.080 DampG=0.500 DampE=1.000 DampFc=0.5000 IDamp=-1.
 Damping current iteration by 5.00D-01
 RMSDP=1.71D-04 MaxDP=1.20D-02 DE=-2.88D-02 OVMax= 6.65D-03

 Cycle   7  Pass 1  IDiag  1:
 E= -1496.95312596588     Delta-E=       -0.013971675799 Rises=F Damp=T
 DIIS: error= 1.17D-03 at cycle   7 NSaved=   7.
 NSaved= 7 IEnMin= 7 EnMin= -1496.95312596588     IErMin= 7 ErrMin= 1.17D-03
 ErrMax= 1.17D-03  0.00D+00 EMaxC= 1.00D+00 BMatC= 1.87D-03 BMatP= 7.09D-03
 IDIUse=1 WtCom= 1.00D+00 WtEn= 0.00D+00
 Coeff-Com: -0.214D-01 0.211D-01-0.142D+00 0.607D+00-0.984D-01-0.346D+01
 Coeff-Com:  0.409D+01
 Coeff:     -0.214D-01 0.211D-01-0.142D+00 0.607D+00-0.984D-01-0.346D+01
 Coeff:      0.409D+01
 Gap=     0.248 Goal=   None    Shift=    0.500
 Gap=     0.081 Goal=   None    Shift=    0.500
 GapD=    0.081 DampG=0.500 DampE=1.000 DampFc=0.5000 IDamp=-1.
 Damping current iteration by 5.00D-01
 RMSDP=1.09D-04 MaxDP=6.72D-03 DE=-1.40D-02 OVMax= 6.45D-03

 Cycle   8  Pass 1  IDiag  1:
 E= -1496.96006753740     Delta-E=       -0.006941571519 Rises=F Damp=T
 DIIS: error= 9.72D-04 at cycle   8 NSaved=   8.
 NSaved= 8 IEnMin= 8 EnMin= -1496.96006753740     IErMin= 8 ErrMin= 9.72D-04
 ErrMax= 9.72D-04  0.00D+00 EMaxC= 1.00D+00 BMatC= 5.27D-04 BMatP= 1.87D-03
 IDIUse=1 WtCom= 1.00D+00 WtEn= 0.00D+00
 Coeff-Com:  0.638D-02-0.820D-02-0.363D+00 0.508D+00 0.793D+00-0.135D+01
 Coeff-Com: -0.269D+01 0.411D+01
 Coeff:      0.638D-02-0.820D-02-0.363D+00 0.508D+00 0.793D+00-0.135D+01
 Coeff:     -0.269D+01 0.411D+01
 Gap=     0.248 Goal=   None    Shift=    0.500
 Gap=     0.081 Goal=   None    Shift=    0.500
 RMSDP=7.22D-05 MaxDP=4.14D-03 DE=-6.94D-03 OVMax= 5.67D-03

 Cycle   9  Pass 1  IDiag  1:
 E= -1496.96707816209     Delta-E=       -0.007010624686 Rises=F Damp=F
 DIIS: error= 6.47D-04 at cycle   9 NSaved=   9.
 NSaved= 9 IEnMin= 9 EnMin= -1496.96707816209     IErMin= 9 ErrMin= 6.47D-04
 ErrMax= 6.47D-04  0.00D+00 EMaxC= 1.00D+00 BMatC= 3.27D-05 BMatP= 5.27D-04
 IDIUse=1 WtCom= 1.00D+00 WtEn= 0.00D+00
 Coeff-Com:  0.112D-01-0.668D-02-0.166D+00-0.303D-01 0.731D+00 0.784D+00
 Coeff-Com: -0.320D+01 0.115D+01 0.173D+01
 Coeff:      0.112D-01-0.668D-02-0.166D+00-0.303D-01 0.731D+00 0.784D+00
 Coeff:     -0.320D+01 0.115D+01 0.173D+01
 Gap=     0.248 Goal=   None    Shift=    0.500
 Gap=     0.082 Goal=   None    Shift=    0.500
 RMSDP=1.80D-05 MaxDP=1.58D-03 DE=-7.01D-03 OVMax= 5.12D-03

 Cycle  10  Pass 1  IDiag  1:
 E= -1496.96713752057     Delta-E=       -0.000059358484 Rises=F Damp=F
 DIIS: error= 5.07D-04 at cycle  10 NSaved=  10.
 NSaved=10 IEnMin=10 EnMin= -1496.96713752057     IErMin=10 ErrMin= 5.07D-04
 ErrMax= 5.07D-04  0.00D+00 EMaxC= 1.00D+00 BMatC= 2.05D-05 BMatP= 3.27D-05
 IDIUse=1 WtCom= 1.00D+00 WtEn= 0.00D+00
 Coeff-Com: -0.511D-02 0.133D-01 0.115D+00-0.292D+00-0.623D-01 0.865D+00
 Coeff-Com:  0.698D+00-0.244D+01-0.322D+00 0.243D+01
 Coeff:     -0.511D-02 0.133D-01 0.115D+00-0.292D+00-0.623D-01 0.865D+00
 Coeff:      0.698D+00-0.244D+01-0.322D+00 0.243D+01
 Gap=     0.248 Goal=   None    Shift=    0.500
 Gap=     0.082 Goal=   None    Shift=    0.500
 RMSDP=1.44D-05 MaxDP=1.15D-03 DE=-5.94D-05 OVMax= 4.49D-03

 Cycle  11  Pass 1  IDiag  1:
 E= -1496.96717759171     Delta-E=       -0.000040071133 Rises=F Damp=F
 DIIS: error= 4.07D-04 at cycle  11 NSaved=  11.
 NSaved=11 IEnMin=11 EnMin= -1496.96717759171     IErMin=11 ErrMin= 4.07D-04
 ErrMax= 4.07D-04  0.00D+00 EMaxC= 1.00D+00 BMatC= 1.33D-05 BMatP= 2.05D-05
 IDIUse=1 WtCom= 1.00D+00 WtEn= 0.00D+00
 Coeff-Com: -0.984D-02 0.135D-01 0.125D+00-0.115D+00-0.405D+00 0.278D-01
 Coeff-Com:  0.237D+01-0.248D+01-0.956D+00 0.455D+00 0.198D+01
 Coeff:     -0.984D-02 0.135D-01 0.125D+00-0.115D+00-0.405D+00 0.278D-01
 Coeff:      0.237D+01-0.248D+01-0.956D+00 0.455D+00 0.198D+01
 Gap=     0.248 Goal=   None    Shift=    0.500
 Gap=     0.083 Goal=   None    Shift=    0.500
 RMSDP=1.11D-05 MaxDP=8.91D-04 DE=-4.01D-05 OVMax= 3.96D-03

 Cycle  12  Pass 1  IDiag  1:
 E= -1496.96720394783     Delta-E=       -0.000026356129 Rises=F Damp=F
 DIIS: error= 3.48D-04 at cycle  12 NSaved=  12.
 NSaved=12 IEnMin=12 EnMin= -1496.96720394783     IErMin=12 ErrMin= 3.48D-04
 ErrMax= 3.48D-04  0.00D+00 EMaxC= 1.00D+00 BMatC= 8.51D-06 BMatP= 1.33D-05
 IDIUse=1 WtCom= 1.00D+00 WtEn= 0.00D+00
 Coeff-Com: -0.131D-02-0.231D-02-0.215D-01 0.159D+00-0.225D+00-0.508D+00
 Coeff-Com:  0.967D+00-0.140D-01-0.139D+00-0.165D+01-0.333D+00 0.277D+01
 Coeff:     -0.131D-02-0.231D-02-0.215D-01 0.159D+00-0.225D+00-0.508D+00
 Coeff:      0.967D+00-0.140D-01-0.139D+00-0.165D+01-0.333D+00 0.277D+01
 Gap=     0.248 Goal=   None    Shift=    0.500
 Gap=     0.083 Goal=   None    Shift=    0.500
 RMSDP=9.78D-06 MaxDP=8.12D-04 DE=-2.64D-05 OVMax= 3.61D-03

 Cycle  13  Pass 1  IDiag  1:
 E= -1496.96722186545     Delta-E=       -0.000017917620 Rises=F Damp=F
 DIIS: error= 2.97D-04 at cycle  13 NSaved=  13.
 NSaved=13 IEnMin=13 EnMin= -1496.96722186545     IErMin=13 ErrMin= 2.97D-04
 ErrMax= 2.97D-04  0.00D+00 EMaxC= 1.00D+00 BMatC= 5.96D-06 BMatP= 8.51D-06
 IDIUse=1 WtCom= 1.00D+00 WtEn= 0.00D+00
 Coeff-Com:  0.359D-02-0.517D-02-0.627D-01 0.107D+00 0.424D-01-0.625D-01
 Coeff-Com: -0.602D+00 0.777D+00 0.600D+00-0.746D+00-0.197D+01 0.771D+00
 Coeff-Com:  0.214D+01
 Coeff:      0.359D-02-0.517D-02-0.627D-01 0.107D+00 0.424D-01-0.625D-01
 Coeff:     -0.602D+00 0.777D+00 0.600D+00-0.746D+00-0.197D+01 0.771D+00
 Coeff:      0.214D+01
 Gap=     0.248 Goal=   None    Shift=    0.500
 Gap=     0.083 Goal=   None    Shift=    0.500
 RMSDP=7.18D-06 MaxDP=5.85D-04 DE=-1.79D-05 OVMax= 3.00D-03

 Cycle  14  Pass 1  IDiag  1:
 E= -1496.96723311058     Delta-E=       -0.000011245127 Rises=F Damp=F
 DIIS: error= 2.52D-04 at cycle  14 NSaved=  14.
 NSaved=14 IEnMin=14 EnMin= -1496.96723311058     IErMin=14 ErrMin= 2.52D-04
 ErrMax= 2.52D-04  0.00D+00 EMaxC= 1.00D+00 BMatC= 4.05D-06 BMatP= 5.96D-06
 IDIUse=1 WtCom= 1.00D+00 WtEn= 0.00D+00
 Coeff-Com:  0.354D-02-0.201D-02-0.342D-01-0.208D-01 0.152D+00 0.331D+00
 Coeff-Com: -0.962D+00 0.338D+00 0.709D+00 0.639D+00-0.190D+01-0.758D+00
 Coeff-Com:  0.282D+00 0.222D+01
 Coeff:      0.354D-02-0.201D-02-0.342D-01-0.208D-01 0.152D+00 0.331D+00
 Coeff:     -0.962D+00 0.338D+00 0.709D+00 0.639D+00-0.190D+01-0.758D+00
 Coeff:      0.282D+00 0.222D+01
 Gap=     0.248 Goal=   None    Shift=    0.500
 Gap=     0.083 Goal=   None    Shift=    0.500
 RMSDP=5.56D-06 MaxDP=4.46D-04 DE=-1.12D-05 OVMax= 2.54D-03

 Cycle  15  Pass 1  IDiag  1:
 E= -1496.96724042605     Delta-E=       -0.000007315472 Rises=F Damp=F
 DIIS: error= 2.12D-04 at cycle  15 NSaved=  15.
 NSaved=15 IEnMin=15 EnMin= -1496.96724042605     IErMin=15 ErrMin= 2.12D-04
 ErrMax= 2.12D-04  0.00D+00 EMaxC= 1.00D+00 BMatC= 2.93D-06 BMatP= 4.05D-06
 IDIUse=1 WtCom= 1.00D+00 WtEn= 0.00D+00
 Coeff-Com: -0.312D-02 0.426D-02 0.488D-01-0.663D-01-0.105D+00 0.341D-01
 Coeff-Com:  0.982D+00-0.126D+01-0.214D+00 0.722D+00 0.738D+00 0.341D+00
 Coeff-Com: -0.335D+01-0.124D+00 0.325D+01
 Coeff:     -0.312D-02 0.426D-02 0.488D-01-0.663D-01-0.105D+00 0.341D-01
 Coeff:      0.982D+00-0.126D+01-0.214D+00 0.722D+00 0.738D+00 0.341D+00
 Coeff:     -0.335D+01-0.124D+00 0.325D+01
 Gap=     0.248 Goal=   None    Shift=    0.500
 Gap=     0.084 Goal=   None    Shift=    0.500
 RMSDP=4.59D-06 MaxDP=3.87D-04 DE=-7.32D-06 OVMax= 2.24D-03

 Cycle  16  Pass 1  IDiag  1:
 E= -1496.96724563649     Delta-E=       -0.000005210439 Rises=F Damp=F
 DIIS: error= 1.77D-04 at cycle  16 NSaved=  16.
 NSaved=16 IEnMin=16 EnMin= -1496.96724563649     IErMin=16 ErrMin= 1.77D-04
 ErrMax= 1.77D-04  0.00D+00 EMaxC= 1.00D+00 BMatC= 2.03D-06 BMatP= 2.93D-06
 IDIUse=1 WtCom= 1.00D+00 WtEn= 0.00D+00
 Coeff-Com: -0.269D-02 0.340D-02 0.150D-01 0.122D-01-0.115D+00-0.144D+00
 Coeff-Com:  0.921D+00-0.855D+00-0.114D+00-0.511D-01 0.524D+00 0.100D+01
 Coeff-Com: -0.177D+01-0.532D+00-0.358D+00 0.247D+01
 Coeff:     -0.269D-02 0.340D-02 0.150D-01 0.122D-01-0.115D+00-0.144D+00
 Coeff:      0.921D+00-0.855D+00-0.114D+00-0.511D-01 0.524D+00 0.100D+01
 Coeff:     -0.177D+01-0.532D+00-0.358D+00 0.247D+01
 Gap=     0.248 Goal=   None    Shift=    0.500
 Gap=     0.084 Goal=   None    Shift=    0.500
 RMSDP=3.44D-06 MaxDP=2.66D-04 DE=-5.21D-06 OVMax= 1.81D-03

 Cycle  17  Pass 1  IDiag  1:
 E= -1496.96724906195     Delta-E=       -0.000003425461 Rises=F Damp=F
 DIIS: error= 1.47D-04 at cycle  17 NSaved=  17.
 NSaved=17 IEnMin=17 EnMin= -1496.96724906195     IErMin=17 ErrMin= 1.47D-04
 ErrMax= 1.47D-04  0.00D+00 EMaxC= 1.00D+00 BMatC= 1.38D-06 BMatP= 2.03D-06
 IDIUse=1 WtCom= 1.00D+00 WtEn= 0.00D+00
 Coeff-Com:  0.333D-03 0.219D-03-0.273D-01 0.517D-01-0.863D-02-0.649D-01
 Coeff-Com: -0.375D-01 0.136D+00 0.247D+00-0.468D+00-0.513D+00 0.593D+00
 Coeff-Com:  0.807D+00 0.363D-01-0.253D+01 0.636D+00 0.214D+01
 Coeff:      0.333D-03 0.219D-03-0.273D-01 0.517D-01-0.863D-02-0.649D-01
 Coeff:     -0.375D-01 0.136D+00 0.247D+00-0.468D+00-0.513D+00 0.593D+00
 Coeff:      0.807D+00 0.363D-01-0.253D+01 0.636D+00 0.214D+01
 Gap=     0.247 Goal=   None    Shift=    0.500
 Gap=     0.084 Goal=   None    Shift=    0.500
 RMSDP=2.72D-06 MaxDP=1.95D-04 DE=-3.43D-06 OVMax= 1.53D-03

 Cycle  18  Pass 1  IDiag  1:
 E= -1496.96725141477     Delta-E=       -0.000002352815 Rises=F Damp=F
 DIIS: error= 1.21D-04 at cycle  18 NSaved=  18.
 NSaved=18 IEnMin=18 EnMin= -1496.96725141477     IErMin=18 ErrMin= 1.21D-04
 ErrMax= 1.21D-04  0.00D+00 EMaxC= 1.00D+00 BMatC= 9.02D-07 BMatP= 1.38D-06
 IDIUse=1 WtCom= 1.00D+00 WtEn= 0.00D+00
 Coeff-Com:  0.153D-02-0.116D-02-0.147D-01-0.320D-02 0.574D-01 0.146D+00
 Coeff-Com: -0.536D+00 0.360D+00 0.280D+00 0.430D-01-0.801D+00-0.281D+00
 Coeff-Com:  0.959D+00 0.551D+00-0.230D+00-0.193D+01-0.518D+00 0.291D+01
 Coeff:      0.153D-02-0.116D-02-0.147D-01-0.320D-02 0.574D-01 0.146D+00
 Coeff:     -0.536D+00 0.360D+00 0.280D+00 0.430D-01-0.801D+00-0.281D+00
 Coeff:      0.959D+00 0.551D+00-0.230D+00-0.193D+01-0.518D+00 0.291D+01
 Gap=     0.247 Goal=   None    Shift=    0.500
 Gap=     0.084 Goal=   None    Shift=    0.500
 RMSDP=2.45D-06 MaxDP=1.86D-04 DE=-2.35D-06 OVMax= 1.33D-03

 Cycle  19  Pass 1  IDiag  1:
 E= -1496.96725304566     Delta-E=       -0.000001630893 Rises=F Damp=F
 DIIS: error= 9.96D-05 at cycle  19 NSaved=  19.
 NSaved=19 IEnMin=19 EnMin= -1496.96725304566     IErMin=19 ErrMin= 9.96D-05
 ErrMax= 9.96D-05  0.00D+00 EMaxC= 1.00D+00 BMatC= 6.76D-07 BMatP= 9.02D-07
 IDIUse=1 WtCom= 1.00D+00 WtEn= 0.00D+00
 Coeff-Com:  0.761D-03-0.373D-03 0.616D-02-0.379D-01 0.360D-01 0.180D+00
 Coeff-Com: -0.259D+00-0.457D-01 0.137D+00 0.482D+00-0.494D+00-0.418D+00
 Coeff-Com: -0.213D+00 0.571D+00 0.177D+01-0.198D+01-0.238D+01 0.199D+01
 Coeff-Com:  0.166D+01
 Coeff:      0.761D-03-0.373D-03 0.616D-02-0.379D-01 0.360D-01 0.180D+00
 Coeff:     -0.259D+00-0.457D-01 0.137D+00 0.482D+00-0.494D+00-0.418D+00
 Coeff:     -0.213D+00 0.571D+00 0.177D+01-0.198D+01-0.238D+01 0.199D+01
 Coeff:      0.166D+01
 Gap=     0.247 Goal=   None    Shift=    0.500
 Gap=     0.084 Goal=   None    Shift=    0.500
 RMSDP=1.95D-06 MaxDP=1.43D-04 DE=-1.63D-06 OVMax= 1.11D-03

 Cycle  20  Pass 1  IDiag  1:
 E= -1496.96725412466     Delta-E=       -0.000001079004 Rises=F Damp=F
 DIIS: error= 8.16D-05 at cycle  20 NSaved=  20.
 NSaved=20 IEnMin=20 EnMin= -1496.96725412466     IErMin=20 ErrMin= 8.16D-05
 ErrMax= 8.16D-05  0.00D+00 EMaxC= 1.00D+00 BMatC= 4.76D-07 BMatP= 6.76D-07
 IDIUse=1 WtCom= 1.00D+00 WtEn= 0.00D+00
 Coeff-Com: -0.289D-03 0.731D-03 0.117D-01-0.278D-01-0.146D-01 0.713D-01
 Coeff-Com:  0.231D+00-0.455D+00 0.179D-01 0.506D+00-0.118D+00-0.429D-01
 Coeff-Com: -0.111D+01 0.356D+00 0.180D+01-0.296D+00-0.219D+01-0.283D+00
 Coeff-Com:  0.568D+00 0.197D+01
 Coeff:     -0.289D-03 0.731D-03 0.117D-01-0.278D-01-0.146D-01 0.713D-01
 Coeff:      0.231D+00-0.455D+00 0.179D-01 0.506D+00-0.118D+00-0.429D-01
 Coeff:     -0.111D+01 0.356D+00 0.180D+01-0.296D+00-0.219D+01-0.283D+00
 Coeff:      0.568D+00 0.197D+01
 Gap=     0.247 Goal=   None    Shift=    0.500
 Gap=     0.084 Goal=   None    Shift=    0.500
 RMSDP=1.54D-06 MaxDP=1.08D-04 DE=-1.08D-06 OVMax= 9.53D-04

 Cycle  21  Pass 1  IDiag  1:
 E= -1496.96725484242     Delta-E=       -0.000000717760 Rises=F Damp=F
 DIIS: error= 6.54D-05 at cycle  21 NSaved=  20.
 NSaved=20 IEnMin=20 EnMin= -1496.96725484242     IErMin=20 ErrMin= 6.54D-05
 ErrMax= 6.54D-05  0.00D+00 EMaxC= 1.00D+00 BMatC= 3.26D-07 BMatP= 4.76D-07
 IDIUse=1 WtCom= 1.00D+00 WtEn= 0.00D+00
 Coeff-Com:  0.209D-03 0.333D-02-0.832D-02-0.118D-01 0.347D-01 0.139D+00
 Coeff-Com: -0.271D+00 0.692D-01 0.240D+00-0.184D+00 0.864D-01-0.563D+00
 Coeff-Com:  0.284D+00 0.579D+00 0.111D+00-0.798D+00-0.365D+00 0.422D-01
 Coeff-Com: -0.572D+00 0.218D+01
 Coeff:      0.209D-03 0.333D-02-0.832D-02-0.118D-01 0.347D-01 0.139D+00
 Coeff:     -0.271D+00 0.692D-01 0.240D+00-0.184D+00 0.864D-01-0.563D+00
 Coeff:      0.284D+00 0.579D+00 0.111D+00-0.798D+00-0.365D+00 0.422D-01
 Coeff:     -0.572D+00 0.218D+01
 Gap=     0.247 Goal=   None    Shift=    0.500
 Gap=     0.084 Goal=   None    Shift=    0.500
 RMSDP=1.06D-06 MaxDP=6.47D-05 DE=-7.18D-07 OVMax= 7.54D-04

 Cycle  22  Pass 1  IDiag  1:
 E= -1496.96725527919     Delta-E=       -0.000000436768 Rises=F Damp=F
 DIIS: error= 5.21D-05 at cycle  22 NSaved=  20.
 NSaved=20 IEnMin=20 EnMin= -1496.96725527919     IErMin=20 ErrMin= 5.21D-05
 ErrMax= 5.21D-05  0.00D+00 EMaxC= 1.00D+00 BMatC= 2.07D-07 BMatP= 3.26D-07
 IDIUse=1 WtCom= 1.00D+00 WtEn= 0.00D+00
 Coeff-Com:  0.689D-03-0.411D-03-0.375D-02 0.154D-01-0.113D-01-0.164D-01
 Coeff-Com:  0.552D-01-0.132D-01-0.139D+00 0.649D-01 0.617D-01 0.128D+00
 Coeff-Com: -0.191D+00-0.149D+00 0.269D+00 0.405D+00-0.148D+00-0.159D+01
 Coeff-Com: -0.519D+00 0.278D+01
 Coeff:      0.689D-03-0.411D-03-0.375D-02 0.154D-01-0.113D-01-0.164D-01
 Coeff:      0.552D-01-0.132D-01-0.139D+00 0.649D-01 0.617D-01 0.128D+00
 Coeff:     -0.191D+00-0.149D+00 0.269D+00 0.405D+00-0.148D+00-0.159D+01
 Coeff:     -0.519D+00 0.278D+01
 Gap=     0.247 Goal=   None    Shift=    0.500
 Gap=     0.084 Goal=   None    Shift=    0.500
 RMSDP=8.08D-07 MaxDP=4.15D-05 DE=-4.37D-07 OVMax= 5.91D-04

 SCF Done:  E(ULC-wHPBE) =  -1496.96725528     A.U. after   22 cycles
            NFock= 22  Conv=0.81D-06     -V/T= 2.0046
 <Sx>= 0.0000 <Sy>= 0.0000 <Sz>= 0.5000 <S**2>= 0.7721 S= 0.5110
 <L.S>= 0.000000000000E+00
 KE= 1.490067516234D+03 PE=-1.050765801227D+04 EE= 3.991857700917D+03
 Annihilation of the first spin contaminant:
 S**2 before annihilation     0.7721,   after     0.7503
 Leave Link  502 at Mon Jan 18 05:52:19 2021, MaxMem=  4026531840 cpu:           14484.6 elap:            1831.7
 (Enter /opt/ohpc/pub/libs/gaussian/g16-A.03/sandybridge/g16/l508.exe)
 QCSCF skips out because SCF is already converged.
 Leave Link  508 at Mon Jan 18 05:52:19 2021, MaxMem=  4026531840 cpu:               0.1 elap:               0.0
 (Enter /opt/ohpc/pub/libs/gaussian/g16-A.03/sandybridge/g16/l601.exe)
 Copying SCF densities to generalized density rwf, IOpCl= 1 IROHF=0.

 **********************************************************************

            Population analysis using the SCF density.

 **********************************************************************

 Orbital symmetries:
 Alpha Orbitals:
       Occupied  (A) (A) (A) (A) (A) (A) (A) (A) (A) (A) (A) (A)
                 (A) (A) (A) (A) (A) (A) (A) (A) (A) (A) (A) (A)
                 (A) (A) (A) (A) (A) (A) (A) (A) (A) (A) (A) (A)
                 (A) (A) (A) (A) (A) (A) (A) (A) (A) (A) (A) (A)
                 (A) (A) (A) (A) (A) (A) (A) (A) (A) (A) (A) (A)
                 (A) (A) (A) (A) (A) (A) (A) (A) (A) (A) (A) (A)
                 (A) (A) (A) (A) (A) (A) (A) (A) (A) (A) (A) (A)
                 (A) (A) (A) (A) (A) (A) (A) (A) (A) (A) (A) (A)
                 (A) (A) (A) (A) (A) (A) (A) (A) (A) (A) (A) (A)
                 (A) (A) (A) (A) (A) (A) (A) (A) (A) (A) (A) (A)
                 (A) (A) (A) (A) (A) (A) (A) (A) (A)
       Virtual   (A) (A) (A) (A) (A) (A) (A) (A) (A) (A) (A) (A)
                 (A) (A) (A) (A) (A) (A) (A) (A) (A) (A) (A) (A)
                 (A) (A) (A) (A) (A) (A) (A) (A) (A) (A) (A) (A)
                 (A) (A) (A) (A) (A) (A) (A) (A) (A) (A) (A) (A)
                 (A) (A) (A) (A) (A) (A) (A) (A) (A) (A) (A) (A)
                 (A) (A) (A) (A) (A) (A) (A) (A) (A) (A) (A) (A)
                 (A) (A) (A) (A) (A) (A) (A) (A) (A) (A) (A) (A)
                 (A) (A) (A) (A) (A) (A) (A) (A) (A) (A) (A) (A)
                 (A) (A) (A) (A) (A) (A) (A) (A) (A) (A) (A) (A)
                 (A) (A) (A) (A) (A) (A) (A) (A) (A) (A) (A) (A)
                 (A) (A) (A) (A) (A) (A) (A) (A) (A) (A) (A) (A)
                 (A) (A) (A) (A) (A) (A) (A) (A) (A) (A) (A) (A)
                 (A) (A) (A) (A) (A) (A) (A) (A) (A) (A) (A) (A)
                 (A) (A) (A) (A) (A) (A) (A) (A) (A) (A) (A) (A)
                 (A) (A) (A) (A) (A) (A) (A) (A) (A) (A) (A) (A)
                 (A) (A) (A) (A) (A) (A) (A) (A) (A) (A) (A) (A)
                 (A) (A) (A) (A) (A) (A) (A) (A) (A) (A) (A) (A)
                 (A) (A) (A) (A) (A) (A) (A) (A) (A) (A) (A) (A)
                 (A) (A) (A) (A) (A) (A) (A) (A) (A) (A) (A) (A)
                 (A) (A) (A) (A) (A) (A) (A) (A) (A) (A) (A) (A)
                 (A) (A) (A) (A) (A) (A) (A) (A) (A) (A) (A) (A)
                 (A) (A) (A) (A) (A) (A) (A) (A) (A) (A) (A) (A)
                 (A) (A) (A) (A) (A) (A) (A) (A) (A) (A) (A) (A)
                 (A) (A) (A) (A) (A) (A) (A) (A) (A) (A) (A) (A)
                 (A) (A) (A) (A) (A) (A) (A) (A) (A) (A) (A) (A)
                 (A) (A) (A) (A) (A) (A) (A) (A) (A) (A) (A) (A)
                 (A) (A) (A) (A) (A) (A) (A) (A) (A) (A) (A) (A)
                 (A) (A) (A) (A) (A) (A) (A) (A) (A) (A) (A) (A)
                 (A) (A) (A) (A) (A) (A) (A) (A) (A) (A) (A) (A)
                 (A) (A) (A) (A) (A) (A) (A) (A) (A) (A) (A) (A)
                 (A) (A) (A) (A) (A) (A) (A) (A) (A) (A) (A) (A)
                 (A) (A) (A) (A) (A) (A) (A) (A) (A) (A) (A) (A)
                 (A) (A) (A) (A) (A) (A) (A) (A) (A) (A) (A) (A)
                 (A) (A) (A) (A) (A) (A) (A) (A) (A) (A) (A) (A)
                 (A) (A) (A) (A) (A) (A) (A) (A) (A) (A) (A) (A)
                 (A) (A) (A) (A) (A) (A) (A) (A) (A) (A) (A) (A)
                 (A) (A) (A) (A) (A) (A) (A) (A) (A) (A) (A) (A)
                 (A) (A) (A) (A) (A) (A) (A) (A) (A) (A) (A) (A)
                 (A) (A) (A) (A) (A) (A) (A) (A) (A) (A) (A) (A)
                 (A) (A) (A) (A) (A) (A) (A) (A) (A) (A) (A) (A)
                 (A) (A) (A) (A) (A) (A) (A) (A) (A) (A) (A) (A)
                 (A) (A) (A) (A) (A) (A) (A) (A) (A) (A) (A) (A)
                 (A) (A) (A) (A) (A) (A) (A) (A) (A) (A) (A) (A)
                 (A) (A) (A) (A) (A) (A) (A) (A) (A) (A) (A) (A)
                 (A) (A) (A) (A) (A) (A) (A) (A) (A) (A) (A) (A)
                 (A) (A) (A) (A) (A) (A) (A) (A) (A) (A) (A) (A)
                 (A) (A) (A) (A) (A) (A) (A) (A) (A) (A) (A) (A)
                 (A) (A) (A) (A) (A) (A) (A) (A) (A) (A) (A) (A)
                 (A) (A) (A) (A) (A) (A) (A) (A) (A) (A) (A) (A)
                 (A) (A) (A) (A) (A) (A) (A) (A) (A) (A) (A) (A)
                 (A) (A) (A) (A) (A) (A) (A) (A) (A) (A) (A) (A)
                 (A) (A) (A) (A) (A) (A) (A) (A) (A) (A) (A) (A)
                 (A) (A) (A) (A) (A) (A) (A) (A) (A) (A) (A) (A)
                 (A) (A) (A) (A) (A) (A) (A) (A) (A) (A) (A) (A)
                 (A) (A) (A) (A) (A) (A) (A) (A) (A) (A) (A) (A)
                 (A) (A) (A) (A) (A) (A) (A) (A) (A) (A) (A) (A)
                 (A) (A) (A) (A) (A) (A) (A) (A) (A) (A) (A) (A)
                 (A) (A) (A) (A) (A) (A) (A) (A) (A) (A) (A) (A)
                 (A) (A) (A) (A) (A) (A) (A) (A) (A) (A) (A) (A)
                 (A) (A) (A) (A) (A) (A) (A) (A) (A) (A) (A) (A)
                 (A) (A) (A) (A) (A) (A) (A) (A) (A) (A) (A) (A)
                 (A) (A) (A) (A) (A) (A) (A) (A) (A) (A) (A) (A)
                 (A) (A) (A) (A) (A) (A) (A) (A) (A) (A) (A) (A)
                 (A) (A) (A) (A) (A)
 Beta  Orbitals:
       Occupied  (A) (A) (A) (A) (A) (A) (A) (A) (A) (A) (A) (A)
                 (A) (A) (A) (A) (A) (A) (A) (A) (A) (A) (A) (A)
                 (A) (A) (A) (A) (A) (A) (A) (A) (A) (A) (A) (A)
                 (A) (A) (A) (A) (A) (A) (A) (A) (A) (A) (A) (A)
                 (A) (A) (A) (A) (A) (A) (A) (A) (A) (A) (A) (A)
                 (A) (A) (A) (A) (A) (A) (A) (A) (A) (A) (A) (A)
                 (A) (A) (A) (A) (A) (A) (A) (A) (A) (A) (A) (A)
                 (A) (A) (A) (A) (A) (A) (A) (A) (A) (A) (A) (A)
                 (A) (A) (A) (A) (A) (A) (A) (A) (A) (A) (A) (A)
                 (A) (A) (A) (A) (A) (A) (A) (A) (A) (A) (A) (A)
                 (A) (A) (A) (A) (A) (A) (A) (A)
       Virtual   (A) (A) (A) (A) (A) (A) (A) (A) (A) (A) (A) (A)
                 (A) (A) (A) (A) (A) (A) (A) (A) (A) (A) (A) (A)
                 (A) (A) (A) (A) (A) (A) (A) (A) (A) (A) (A) (A)
                 (A) (A) (A) (A) (A) (A) (A) (A) (A) (A) (A) (A)
                 (A) (A) (A) (A) (A) (A) (A) (A) (A) (A) (A) (A)
                 (A) (A) (A) (A) (A) (A) (A) (A) (A) (A) (A) (A)
                 (A) (A) (A) (A) (A) (A) (A) (A) (A) (A) (A) (A)
                 (A) (A) (A) (A) (A) (A) (A) (A) (A) (A) (A) (A)
                 (A) (A) (A) (A) (A) (A) (A) (A) (A) (A) (A) (A)
                 (A) (A) (A) (A) (A) (A) (A) (A) (A) (A) (A) (A)
                 (A) (A) (A) (A) (A) (A) (A) (A) (A) (A) (A) (A)
                 (A) (A) (A) (A) (A) (A) (A) (A) (A) (A) (A) (A)
                 (A) (A) (A) (A) (A) (A) (A) (A) (A) (A) (A) (A)
                 (A) (A) (A) (A) (A) (A) (A) (A) (A) (A) (A) (A)
                 (A) (A) (A) (A) (A) (A) (A) (A) (A) (A) (A) (A)
                 (A) (A) (A) (A) (A) (A) (A) (A) (A) (A) (A) (A)
                 (A) (A) (A) (A) (A) (A) (A) (A) (A) (A) (A) (A)
                 (A) (A) (A) (A) (A) (A) (A) (A) (A) (A) (A) (A)
                 (A) (A) (A) (A) (A) (A) (A) (A) (A) (A) (A) (A)
                 (A) (A) (A) (A) (A) (A) (A) (A) (A) (A) (A) (A)
                 (A) (A) (A) (A) (A) (A) (A) (A) (A) (A) (A) (A)
                 (A) (A) (A) (A) (A) (A) (A) (A) (A) (A) (A) (A)
                 (A) (A) (A) (A) (A) (A) (A) (A) (A) (A) (A) (A)
                 (A) (A) (A) (A) (A) (A) (A) (A) (A) (A) (A) (A)
                 (A) (A) (A) (A) (A) (A) (A) (A) (A) (A) (A) (A)
                 (A) (A) (A) (A) (A) (A) (A) (A) (A) (A) (A) (A)
                 (A) (A) (A) (A) (A) (A) (A) (A) (A) (A) (A) (A)
                 (A) (A) (A) (A) (A) (A) (A) (A) (A) (A) (A) (A)
                 (A) (A) (A) (A) (A) (A) (A) (A) (A) (A) (A) (A)
                 (A) (A) (A) (A) (A) (A) (A) (A) (A) (A) (A) (A)
                 (A) (A) (A) (A) (A) (A) (A) (A) (A) (A) (A) (A)
                 (A) (A) (A) (A) (A) (A) (A) (A) (A) (A) (A) (A)
                 (A) (A) (A) (A) (A) (A) (A) (A) (A) (A) (A) (A)
                 (A) (A) (A) (A) (A) (A) (A) (A) (A) (A) (A) (A)
                 (A) (A) (A) (A) (A) (A) (A) (A) (A) (A) (A) (A)
                 (A) (A) (A) (A) (A) (A) (A) (A) (A) (A) (A) (A)
                 (A) (A) (A) (A) (A) (A) (A) (A) (A) (A) (A) (A)
                 (A) (A) (A) (A) (A) (A) (A) (A) (A) (A) (A) (A)
                 (A) (A) (A) (A) (A) (A) (A) (A) (A) (A) (A) (A)
                 (A) (A) (A) (A) (A) (A) (A) (A) (A) (A) (A) (A)
                 (A) (A) (A) (A) (A) (A) (A) (A) (A) (A) (A) (A)
                 (A) (A) (A) (A) (A) (A) (A) (A) (A) (A) (A) (A)
                 (A) (A) (A) (A) (A) (A) (A) (A) (A) (A) (A) (A)
                 (A) (A) (A) (A) (A) (A) (A) (A) (A) (A) (A) (A)
                 (A) (A) (A) (A) (A) (A) (A) (A) (A) (A) (A) (A)
                 (A) (A) (A) (A) (A) (A) (A) (A) (A) (A) (A) (A)
                 (A) (A) (A) (A) (A) (A) (A) (A) (A) (A) (A) (A)
                 (A) (A) (A) (A) (A) (A) (A) (A) (A) (A) (A) (A)
                 (A) (A) (A) (A) (A) (A) (A) (A) (A) (A) (A) (A)
                 (A) (A) (A) (A) (A) (A) (A) (A) (A) (A) (A) (A)
                 (A) (A) (A) (A) (A) (A) (A) (A) (A) (A) (A) (A)
                 (A) (A) (A) (A) (A) (A) (A) (A) (A) (A) (A) (A)
                 (A) (A) (A) (A) (A) (A) (A) (A) (A) (A) (A) (A)
                 (A) (A) (A) (A) (A) (A) (A) (A) (A) (A) (A) (A)
                 (A) (A) (A) (A) (A) (A) (A) (A) (A) (A) (A) (A)
                 (A) (A) (A) (A) (A) (A) (A) (A) (A) (A) (A) (A)
                 (A) (A) (A) (A) (A) (A) (A) (A) (A) (A) (A) (A)
                 (A) (A) (A) (A) (A) (A) (A) (A) (A) (A) (A) (A)
                 (A) (A) (A) (A) (A) (A) (A) (A) (A) (A) (A) (A)
                 (A) (A) (A) (A) (A) (A) (A) (A) (A) (A) (A) (A)
                 (A) (A) (A) (A) (A) (A) (A) (A) (A) (A) (A) (A)
                 (A) (A) (A) (A) (A) (A) (A) (A) (A) (A) (A) (A)
                 (A) (A) (A) (A) (A) (A) (A) (A) (A) (A) (A) (A)
                 (A) (A) (A) (A) (A) (A)
 The electronic state is 2-A.
 Alpha  occ. eigenvalues --  -14.25393 -14.25392 -10.14712 -10.14710 -10.13012
 Alpha  occ. eigenvalues --  -10.13011 -10.13010 -10.13010 -10.11357 -10.11343
 Alpha  occ. eigenvalues --  -10.10086 -10.10085 -10.10083 -10.10081 -10.10044
 Alpha  occ. eigenvalues --  -10.10043 -10.10043 -10.10043 -10.08657 -10.08656
 Alpha  occ. eigenvalues --  -10.08656 -10.08656 -10.08493 -10.08493 -10.08493
 Alpha  occ. eigenvalues --  -10.08492 -10.08083 -10.08083 -10.08083 -10.08083
 Alpha  occ. eigenvalues --  -10.08010 -10.08010 -10.08010 -10.08009 -10.07902
 Alpha  occ. eigenvalues --  -10.07902 -10.07902 -10.07901  -1.11352  -1.11348
 Alpha  occ. eigenvalues --   -1.01425  -0.99673  -0.98719  -0.98719  -0.97437
 Alpha  occ. eigenvalues --   -0.96908  -0.92730  -0.90136  -0.89791  -0.89315
 Alpha  occ. eigenvalues --   -0.88849  -0.88516  -0.87824  -0.87486  -0.87485
 Alpha  occ. eigenvalues --   -0.87403  -0.85563  -0.83938  -0.79096  -0.78441
 Alpha  occ. eigenvalues --   -0.77303  -0.76380  -0.75932  -0.74758  -0.74434
 Alpha  occ. eigenvalues --   -0.74116  -0.73963  -0.73625  -0.71789  -0.71454
 Alpha  occ. eigenvalues --   -0.69467  -0.68705  -0.68521  -0.68279  -0.66402
 Alpha  occ. eigenvalues --   -0.64072  -0.63943  -0.63420  -0.62551  -0.62256
 Alpha  occ. eigenvalues --   -0.62099  -0.60585  -0.60448  -0.59859  -0.59746
 Alpha  occ. eigenvalues --   -0.59689  -0.58936  -0.58253  -0.57991  -0.57877
 Alpha  occ. eigenvalues --   -0.57788  -0.57714  -0.57660  -0.56605  -0.56472
 Alpha  occ. eigenvalues --   -0.56267  -0.56267  -0.56000  -0.54952  -0.54451
 Alpha  occ. eigenvalues --   -0.53606  -0.53345  -0.53008  -0.52977  -0.51579
 Alpha  occ. eigenvalues --   -0.51373  -0.50885  -0.50576  -0.50350  -0.49972
 Alpha  occ. eigenvalues --   -0.49937  -0.49211  -0.48879  -0.48512  -0.48484
 Alpha  occ. eigenvalues --   -0.47881  -0.46984  -0.44583  -0.43201  -0.43177
 Alpha  occ. eigenvalues --   -0.42157  -0.42150  -0.41836  -0.41328  -0.41309
 Alpha  occ. eigenvalues --   -0.40861  -0.40699  -0.36244  -0.35056
 Alpha virt. eigenvalues --   -0.10320  -0.08102  -0.07976  -0.06969  -0.06959
 Alpha virt. eigenvalues --   -0.06307  -0.05682  -0.05562  -0.04763  -0.04731
 Alpha virt. eigenvalues --   -0.03231  -0.02085   0.00884   0.01512   0.02554
 Alpha virt. eigenvalues --    0.02743   0.02913   0.03027   0.03230   0.04440
 Alpha virt. eigenvalues --    0.04666   0.04783   0.05333   0.05475   0.05502
 Alpha virt. eigenvalues --    0.05838   0.06480   0.06691   0.06808   0.07179
 Alpha virt. eigenvalues --    0.07653   0.08065   0.08200   0.08206   0.08538
 Alpha virt. eigenvalues --    0.08585   0.08856   0.08874   0.08928   0.09140
 Alpha virt. eigenvalues --    0.09549   0.09658   0.10162   0.10384   0.11120
 Alpha virt. eigenvalues --    0.11632   0.11906   0.11939   0.12419   0.13034
 Alpha virt. eigenvalues --    0.14568   0.14932   0.15255   0.15405   0.15469
 Alpha virt. eigenvalues --    0.16104   0.16149   0.16375   0.16523   0.16782
 Alpha virt. eigenvalues --    0.16988   0.17173   0.17443   0.17515   0.17718
 Alpha virt. eigenvalues --    0.17831   0.18957   0.19018   0.19075   0.19110
 Alpha virt. eigenvalues --    0.19173   0.19297   0.19485   0.19525   0.19678
 Alpha virt. eigenvalues --    0.20040   0.20243   0.20616   0.20933   0.21083
 Alpha virt. eigenvalues --    0.21096   0.21138   0.21488   0.21728   0.21761
 Alpha virt. eigenvalues --    0.21896   0.22366   0.22564   0.22684   0.22688
 Alpha virt. eigenvalues --    0.23643   0.24121   0.24615   0.24712   0.24726
 Alpha virt. eigenvalues --    0.24855   0.25018   0.25103   0.25593   0.26380
 Alpha virt. eigenvalues --    0.26435   0.26555   0.26775   0.27076   0.27252
 Alpha virt. eigenvalues --    0.27662   0.27720   0.28156   0.28370   0.28601
 Alpha virt. eigenvalues --    0.28666   0.28852   0.29182   0.29330   0.30601
 Alpha virt. eigenvalues --    0.30749   0.30915   0.31061   0.31180   0.31998
 Alpha virt. eigenvalues --    0.32183   0.32446   0.32466   0.33213   0.33228
 Alpha virt. eigenvalues --    0.33262   0.33479   0.33784   0.34233   0.34389
 Alpha virt. eigenvalues --    0.34439   0.35277   0.35298   0.35480   0.35535
 Alpha virt. eigenvalues --    0.35757   0.35759   0.36066   0.36108   0.36260
 Alpha virt. eigenvalues --    0.36627   0.37073   0.37088   0.37595   0.37935
 Alpha virt. eigenvalues --    0.38219   0.38809   0.39015   0.39082   0.39101
 Alpha virt. eigenvalues --    0.39488   0.39601   0.39763   0.39990   0.40019
 Alpha virt. eigenvalues --    0.40023   0.40037   0.40244   0.40659   0.40824
 Alpha virt. eigenvalues --    0.41301   0.41562   0.42162   0.42431   0.42641
 Alpha virt. eigenvalues --    0.42846   0.42932   0.42985   0.43244   0.44094
 Alpha virt. eigenvalues --    0.44353   0.44660   0.44737   0.44962   0.45017
 Alpha virt. eigenvalues --    0.45309   0.45967   0.46075   0.46175   0.46304
 Alpha virt. eigenvalues --    0.46633   0.46717   0.47080   0.47179   0.47274
 Alpha virt. eigenvalues --    0.47837   0.48003   0.48159   0.48578   0.48589
 Alpha virt. eigenvalues --    0.49435   0.50014   0.50092   0.50396   0.50865
 Alpha virt. eigenvalues --    0.51025   0.51030   0.51592   0.51647   0.51869
 Alpha virt. eigenvalues --    0.52370   0.52965   0.53324   0.53937   0.54327
 Alpha virt. eigenvalues --    0.56623   0.56823   0.56837   0.56868   0.57553
 Alpha virt. eigenvalues --    0.57610   0.58132   0.58373   0.58966   0.59855
 Alpha virt. eigenvalues --    0.60612   0.61548   0.62005   0.62317   0.63047
 Alpha virt. eigenvalues --    0.63111   0.63338   0.63439   0.63950   0.64479
 Alpha virt. eigenvalues --    0.64957   0.65164   0.65452   0.65530   0.65578
 Alpha virt. eigenvalues --    0.65623   0.65643   0.65819   0.65824   0.66804
 Alpha virt. eigenvalues --    0.67031   0.67585   0.68212   0.68578   0.69152
 Alpha virt. eigenvalues --    0.69178   0.70178   0.70635   0.71448   0.71619
 Alpha virt. eigenvalues --    0.72402   0.73445   0.73608   0.73703   0.73819
 Alpha virt. eigenvalues --    0.75485   0.75799   0.76726   0.77123   0.77660
 Alpha virt. eigenvalues --    0.79901   0.80016   0.80133   0.80805   0.81450
 Alpha virt. eigenvalues --    0.81865   0.81994   0.82372   0.86308   0.87466
 Alpha virt. eigenvalues --    0.87742   0.87890   0.90172   0.90307   1.06776
 Alpha virt. eigenvalues --    1.08552   1.09583   1.10094   1.10106   1.13887
 Alpha virt. eigenvalues --    1.14284   1.14296   1.14900   1.15849   1.16110
 Alpha virt. eigenvalues --    1.16424   1.16587   1.17300   1.17396   1.17955
 Alpha virt. eigenvalues --    1.18002   1.18285   1.18468   1.18976   1.19736
 Alpha virt. eigenvalues --    1.19909   1.20107   1.20718   1.20760   1.20823
 Alpha virt. eigenvalues --    1.20832   1.21661   1.21715   1.21911   1.22037
 Alpha virt. eigenvalues --    1.22338   1.22762   1.22967   1.23094   1.23159
 Alpha virt. eigenvalues --    1.23705   1.24286   1.24481   1.24547   1.24570
 Alpha virt. eigenvalues --    1.24986   1.25067   1.25281   1.25448   1.26067
 Alpha virt. eigenvalues --    1.26074   1.26463   1.26585   1.26899   1.27337
 Alpha virt. eigenvalues --    1.27786   1.27833   1.28201   1.28330   1.28863
 Alpha virt. eigenvalues --    1.29044   1.29184   1.33812   1.34284   1.35259
 Alpha virt. eigenvalues --    1.35525   1.35828   1.36023   1.36346   1.36883
 Alpha virt. eigenvalues --    1.37343   1.37386   1.37698   1.37744   1.37879
 Alpha virt. eigenvalues --    1.37893   1.37916   1.38006   1.38584   1.38619
 Alpha virt. eigenvalues --    1.38652   1.38963   1.39063   1.39500   1.39537
 Alpha virt. eigenvalues --    1.39634   1.39765   1.39990   1.40018   1.40067
 Alpha virt. eigenvalues --    1.40224   1.40414   1.40780   1.41141   1.41239
 Alpha virt. eigenvalues --    1.41260   1.41423   1.41523   1.43054   1.43250
 Alpha virt. eigenvalues --    1.43421   1.43480   1.44028   1.44122   1.45046
 Alpha virt. eigenvalues --    1.45438   1.45573   1.45686   1.45884   1.46052
 Alpha virt. eigenvalues --    1.46402   1.46511   1.46826   1.47180   1.47377
 Alpha virt. eigenvalues --    1.47811   1.47836   1.48637   1.48679   1.48938
 Alpha virt. eigenvalues --    1.49047   1.49088   1.49420   1.49811   1.49856
 Alpha virt. eigenvalues --    1.49961   1.50542   1.50703   1.50923   1.51102
 Alpha virt. eigenvalues --    1.51677   1.51700   1.51828   1.51841   1.52455
 Alpha virt. eigenvalues --    1.52637   1.53097   1.53329   1.53604   1.54063
 Alpha virt. eigenvalues --    1.54255   1.56983   1.57495   1.59135   1.59351
 Alpha virt. eigenvalues --    1.60196   1.60283   1.60565   1.60632   1.61660
 Alpha virt. eigenvalues --    1.63642   1.64209   1.64765   1.64940   1.65544
 Alpha virt. eigenvalues --    1.68104   1.68679   1.69287   1.69452   1.69891
 Alpha virt. eigenvalues --    1.70103   1.70168   1.70533   1.70744   1.70798
 Alpha virt. eigenvalues --    1.71096   1.71355   1.71448   1.71657   1.71682
 Alpha virt. eigenvalues --    1.72415   1.72530   1.72584   1.72674   1.73194
 Alpha virt. eigenvalues --    1.73490   1.74425   1.74563   1.74677   1.74896
 Alpha virt. eigenvalues --    1.75331   1.75683   1.75731   1.75892   1.76134
 Alpha virt. eigenvalues --    1.77344   1.77788   1.77811   1.78423   1.80064
 Alpha virt. eigenvalues --    1.80749   1.80879   1.81737   1.81930   1.82102
 Alpha virt. eigenvalues --    1.82112   1.82456   1.82544   1.82562   1.82802
 Alpha virt. eigenvalues --    1.84228   1.84561   1.84814   1.84820   1.85063
 Alpha virt. eigenvalues --    1.85074   1.85277   1.85427   1.85747   1.85799
 Alpha virt. eigenvalues --    1.85800   1.85873   1.86374   1.86640   1.86649
 Alpha virt. eigenvalues --    1.86852   1.86860   1.87174   1.87430   1.87769
 Alpha virt. eigenvalues --    1.88281   1.89023   1.89784   1.91122   1.91230
 Alpha virt. eigenvalues --    1.91249   1.91272   1.91635   1.91794   1.93017
 Alpha virt. eigenvalues --    1.93085   1.93111   1.93752   1.94347   1.95526
 Alpha virt. eigenvalues --    1.95669   1.95842   1.95995   1.97459   1.97663
 Alpha virt. eigenvalues --    1.98100   2.00111   2.00354   2.00985   2.02151
 Alpha virt. eigenvalues --    2.03637   2.04636   2.04664   2.05070   2.05476
 Alpha virt. eigenvalues --    2.07237   2.08263   2.10163   2.11932   2.12405
 Alpha virt. eigenvalues --    2.12620   2.12659   2.14910   2.15476   2.16323
 Alpha virt. eigenvalues --    2.16708   2.16809   2.18470   2.19014   2.19876
 Alpha virt. eigenvalues --    2.21930   2.21965   2.22656   2.22679   2.22841
 Alpha virt. eigenvalues --    2.23178   2.23729   2.24011   2.24113   2.24171
 Alpha virt. eigenvalues --    2.24176   2.24576   2.25031   2.25176   2.25428
 Alpha virt. eigenvalues --    2.25733   2.25914   2.26118   2.26883   2.26982
 Alpha virt. eigenvalues --    2.27658   2.27704   2.27786   2.27956   2.28790
 Alpha virt. eigenvalues --    2.28930   2.28977   2.29038   2.29302   2.29393
 Alpha virt. eigenvalues --    2.29706   2.30021   2.30287   2.30696   2.30708
 Alpha virt. eigenvalues --    2.30766   2.33107   2.35912   2.37139   2.37560
 Alpha virt. eigenvalues --    2.37946   2.38726   2.38798   2.38983   2.43088
 Alpha virt. eigenvalues --    2.43205   2.43244   2.43810   2.44270   2.44374
 Alpha virt. eigenvalues --    2.44923   2.45285   2.45639   2.45795   2.45988
 Alpha virt. eigenvalues --    2.46569   2.47206   2.47650   2.48201   2.48451
 Alpha virt. eigenvalues --    2.48680   2.50474   2.51104   2.51803   2.53084
 Alpha virt. eigenvalues --    2.53219   2.55339   2.55715   2.56055   2.56380
 Alpha virt. eigenvalues --    2.57301   2.57309   2.57346   2.57792   2.57799
 Alpha virt. eigenvalues --    2.57960   2.58199   2.58317   2.58870   2.59246
 Alpha virt. eigenvalues --    2.59311   2.60087   2.60406   2.60660   2.60960
 Alpha virt. eigenvalues --    2.61434   2.65902   2.66950   2.66964   2.67125
 Alpha virt. eigenvalues --    2.67203   2.67999   2.68409   2.68801   2.68931
 Alpha virt. eigenvalues --    2.70104   2.70818   2.71155   2.71204   2.72038
 Alpha virt. eigenvalues --    2.74122   2.75099   2.75395   2.75918   2.76407
 Alpha virt. eigenvalues --    2.77585   2.77636   2.77941   2.77997   2.78089
 Alpha virt. eigenvalues --    2.82094   2.82788   2.87358   2.88484   2.88595
 Alpha virt. eigenvalues --    2.88743   2.90787   2.90803   2.91562   2.91622
 Alpha virt. eigenvalues --    2.94873   2.94906   2.95156   2.95200   2.95350
 Alpha virt. eigenvalues --    2.95829   2.96172   2.96211   2.97076   2.97191
 Alpha virt. eigenvalues --    2.97695   2.97945   2.98501   2.99494   3.00028
 Alpha virt. eigenvalues --    3.01903   3.02988   3.02997   3.03091   3.04410
 Alpha virt. eigenvalues --    3.04598   3.05093   3.07113   3.07316   3.08121
 Alpha virt. eigenvalues --    3.08392   3.09781   3.09960   3.10598   3.10697
 Alpha virt. eigenvalues --    3.11152   3.12373   3.12762   3.13229   3.13428
 Alpha virt. eigenvalues --    3.13927   3.14401   3.14937   3.15303   3.16142
 Alpha virt. eigenvalues --    3.17537   3.18400   3.21473   3.25521   3.25542
 Alpha virt. eigenvalues --    3.25813   3.26293   3.26592   3.26607   3.28921
 Alpha virt. eigenvalues --    3.30505   3.32398   3.32664   3.33915   3.33918
 Alpha virt. eigenvalues --    3.36588   3.37308   3.44881   3.45837   3.47434
 Alpha virt. eigenvalues --    3.47588   3.47767   3.47837   3.49897   3.52477
 Alpha virt. eigenvalues --    3.52970   3.52973   3.70267   3.74039   3.81165
 Alpha virt. eigenvalues --    3.83480   3.84007   3.84089  21.04585  21.10976
 Alpha virt. eigenvalues --   21.11223  21.12751  21.12976  21.25484  21.57267
 Alpha virt. eigenvalues --   21.58755  21.58773  21.61333  21.61958  21.61972
 Alpha virt. eigenvalues --   21.64168  21.64575  21.67487  21.70724  21.70925
 Alpha virt. eigenvalues --   21.79826  21.80712  21.84304  21.84905  21.86278
 Alpha virt. eigenvalues --   21.87106  21.87769  21.87980  21.89447  21.92443
 Alpha virt. eigenvalues --   21.92847  21.93180  21.94697  21.98435  21.99462
 Alpha virt. eigenvalues --   22.04054  22.04959  22.05521  22.05557  31.91125
 Alpha virt. eigenvalues --   31.92071
  Beta  occ. eigenvalues --  -14.24990 -14.24990 -10.14669 -10.14667 -10.13044
  Beta  occ. eigenvalues --  -10.13043 -10.13042 -10.13041 -10.11273 -10.11259
  Beta  occ. eigenvalues --  -10.10068 -10.10068 -10.10065 -10.10064 -10.10004
  Beta  occ. eigenvalues --  -10.10004 -10.10003 -10.10003 -10.08589 -10.08588
  Beta  occ. eigenvalues --  -10.08588 -10.08587 -10.08430 -10.08429 -10.08429
  Beta  occ. eigenvalues --  -10.08428 -10.08111 -10.08110 -10.08110 -10.08110
  Beta  occ. eigenvalues --  -10.08035 -10.08034 -10.08034 -10.08034 -10.07832
  Beta  occ. eigenvalues --  -10.07832 -10.07832 -10.07831  -1.10854  -1.10849
  Beta  occ. eigenvalues --   -1.01251  -0.99516  -0.98634  -0.98634  -0.97310
  Beta  occ. eigenvalues --   -0.96763  -0.92515  -0.90061  -0.89709  -0.89167
  Beta  occ. eigenvalues --   -0.88766  -0.88437  -0.87752  -0.87421  -0.87420
  Beta  occ. eigenvalues --   -0.87313  -0.85372  -0.83633  -0.78988  -0.78299
  Beta  occ. eigenvalues --   -0.77168  -0.76259  -0.75797  -0.74609  -0.74376
  Beta  occ. eigenvalues --   -0.74030  -0.73882  -0.73551  -0.71700  -0.71370
  Beta  occ. eigenvalues --   -0.69395  -0.68611  -0.68447  -0.68201  -0.66312
  Beta  occ. eigenvalues --   -0.63914  -0.63855  -0.63329  -0.62437  -0.62073
  Beta  occ. eigenvalues --   -0.61767  -0.60509  -0.60309  -0.59780  -0.59659
  Beta  occ. eigenvalues --   -0.59648  -0.58865  -0.58209  -0.57955  -0.57781
  Beta  occ. eigenvalues --   -0.57738  -0.57643  -0.57610  -0.56536  -0.56430
  Beta  occ. eigenvalues --   -0.56234  -0.56233  -0.55903  -0.54706  -0.54099
  Beta  occ. eigenvalues --   -0.53309  -0.53106  -0.52819  -0.52790  -0.51521
  Beta  occ. eigenvalues --   -0.51244  -0.50523  -0.50495  -0.50298  -0.49872
  Beta  occ. eigenvalues --   -0.49817  -0.49003  -0.48762  -0.48466  -0.48438
  Beta  occ. eigenvalues --   -0.47591  -0.46356  -0.43813  -0.43053  -0.43042
  Beta  occ. eigenvalues --   -0.41775  -0.41768  -0.41050  -0.41047  -0.41011
  Beta  occ. eigenvalues --   -0.40697  -0.39928  -0.31927
  Beta virt. eigenvalues --   -0.23534  -0.09970  -0.07847  -0.07693  -0.06685
  Beta virt. eigenvalues --   -0.06669  -0.05861  -0.05464  -0.05280  -0.04568
  Beta virt. eigenvalues --   -0.04504  -0.02676  -0.01466   0.00922   0.01556
  Beta virt. eigenvalues --    0.02586   0.02795   0.02945   0.03053   0.03267
  Beta virt. eigenvalues --    0.04483   0.04709   0.04821   0.05368   0.05495
  Beta virt. eigenvalues --    0.05532   0.05870   0.06513   0.06830   0.06883
  Beta virt. eigenvalues --    0.07210   0.07691   0.08128   0.08223   0.08252
  Beta virt. eigenvalues --    0.08554   0.08650   0.08988   0.09017   0.09054
  Beta virt. eigenvalues --    0.09195   0.09622   0.09720   0.10184   0.10409
  Beta virt. eigenvalues --    0.11333   0.11803   0.12030   0.12121   0.12503
  Beta virt. eigenvalues --    0.13181   0.14643   0.14989   0.15337   0.15504
  Beta virt. eigenvalues --    0.15513   0.16182   0.16224   0.16434   0.16591
  Beta virt. eigenvalues --    0.16845   0.17042   0.17277   0.17521   0.17548
  Beta virt. eigenvalues --    0.17785   0.17874   0.19054   0.19107   0.19124
  Beta virt. eigenvalues --    0.19213   0.19229   0.19392   0.19554   0.19599
  Beta virt. eigenvalues --    0.19760   0.20108   0.20319   0.20675   0.20973
  Beta virt. eigenvalues --    0.21110   0.21149   0.21165   0.21559   0.21776
  Beta virt. eigenvalues --    0.21829   0.21944   0.22445   0.22616   0.22740
  Beta virt. eigenvalues --    0.22760   0.23669   0.24186   0.24650   0.24745
  Beta virt. eigenvalues --    0.24781   0.24895   0.25143   0.25220   0.25683
  Beta virt. eigenvalues --    0.26488   0.26541   0.26652   0.26855   0.27163
  Beta virt. eigenvalues --    0.27363   0.27756   0.27858   0.28222   0.28454
  Beta virt. eigenvalues --    0.28669   0.28736   0.28957   0.29260   0.29414
  Beta virt. eigenvalues --    0.30716   0.30853   0.31024   0.31150   0.31282
  Beta virt. eigenvalues --    0.32079   0.32320   0.32557   0.32558   0.33287
  Beta virt. eigenvalues --    0.33293   0.33395   0.33586   0.33829   0.34328
  Beta virt. eigenvalues --    0.34462   0.34530   0.35333   0.35389   0.35554
  Beta virt. eigenvalues --    0.35609   0.35816   0.35822   0.36158   0.36162
  Beta virt. eigenvalues --    0.36366   0.36732   0.37159   0.37172   0.37698
  Beta virt. eigenvalues --    0.38035   0.38316   0.38865   0.39119   0.39130
  Beta virt. eigenvalues --    0.39163   0.39527   0.39628   0.39807   0.40037
  Beta virt. eigenvalues --    0.40058   0.40060   0.40095   0.40320   0.40688
  Beta virt. eigenvalues --    0.40872   0.41384   0.41615   0.42229   0.42503
  Beta virt. eigenvalues --    0.42710   0.42906   0.42987   0.43060   0.43304
  Beta virt. eigenvalues --    0.44184   0.44417   0.44710   0.44781   0.45040
  Beta virt. eigenvalues --    0.45073   0.45369   0.46017   0.46136   0.46240
  Beta virt. eigenvalues --    0.46350   0.46672   0.46759   0.47183   0.47259
  Beta virt. eigenvalues --    0.47323   0.47922   0.48070   0.48248   0.48645
  Beta virt. eigenvalues --    0.48660   0.49476   0.50087   0.50155   0.50464
  Beta virt. eigenvalues --    0.50931   0.51122   0.51124   0.51724   0.51736
  Beta virt. eigenvalues --    0.51947   0.52422   0.53045   0.53380   0.54022
  Beta virt. eigenvalues --    0.54382   0.56686   0.56887   0.56907   0.56941
  Beta virt. eigenvalues --    0.57611   0.57715   0.58204   0.58439   0.59018
  Beta virt. eigenvalues --    0.59930   0.60695   0.61657   0.62058   0.62368
  Beta virt. eigenvalues --    0.63116   0.63179   0.63396   0.63488   0.64037
  Beta virt. eigenvalues --    0.64543   0.65023   0.65218   0.65512   0.65627
  Beta virt. eigenvalues --    0.65658   0.65672   0.65699   0.65883   0.65884
  Beta virt. eigenvalues --    0.66863   0.67119   0.67643   0.68260   0.68673
  Beta virt. eigenvalues --    0.69208   0.69256   0.70242   0.70714   0.71534
  Beta virt. eigenvalues --    0.71694   0.72497   0.73527   0.73644   0.73745
  Beta virt. eigenvalues --    0.73870   0.75586   0.75858   0.76881   0.77336
  Beta virt. eigenvalues --    0.77727   0.80164   0.80340   0.80365   0.80872
  Beta virt. eigenvalues --    0.81506   0.81925   0.82040   0.82485   0.86393
  Beta virt. eigenvalues --    0.87539   0.87793   0.87940   0.90309   0.90454
  Beta virt. eigenvalues --    1.06845   1.08612   1.09646   1.10136   1.10149
  Beta virt. eigenvalues --    1.13958   1.14336   1.14359   1.14956   1.15916
  Beta virt. eigenvalues --    1.16193   1.16498   1.16668   1.17377   1.17473
  Beta virt. eigenvalues --    1.18048   1.18060   1.18351   1.18552   1.19064
  Beta virt. eigenvalues --    1.19839   1.20006   1.20186   1.20854   1.20876
  Beta virt. eigenvalues --    1.20907   1.20927   1.21735   1.21799   1.22031
  Beta virt. eigenvalues --    1.22124   1.22406   1.22830   1.23022   1.23146
  Beta virt. eigenvalues --    1.23202   1.23797   1.24364   1.24562   1.24623
  Beta virt. eigenvalues --    1.24666   1.25051   1.25142   1.25337   1.25533
  Beta virt. eigenvalues --    1.26117   1.26152   1.26556   1.26705   1.26989
  Beta virt. eigenvalues --    1.27452   1.27819   1.27870   1.28278   1.28515
  Beta virt. eigenvalues --    1.28949   1.29172   1.29331   1.33983   1.34443
  Beta virt. eigenvalues --    1.35386   1.35692   1.35921   1.36117   1.36420
  Beta virt. eigenvalues --    1.36951   1.37376   1.37605   1.37746   1.37772
  Beta virt. eigenvalues --    1.37875   1.37892   1.38168   1.38275   1.38709
  Beta virt. eigenvalues --    1.38825   1.38854   1.39029   1.39137   1.39565
  Beta virt. eigenvalues --    1.39582   1.39690   1.39854   1.40092   1.40139
  Beta virt. eigenvalues --    1.40158   1.40342   1.40580   1.40914   1.41278
  Beta virt. eigenvalues --    1.41317   1.41389   1.41562   1.41587   1.43108
  Beta virt. eigenvalues --    1.43341   1.43521   1.43537   1.44116   1.44222
  Beta virt. eigenvalues --    1.45227   1.45534   1.45608   1.45715   1.45928
  Beta virt. eigenvalues --    1.46165   1.46503   1.46608   1.46905   1.47323
  Beta virt. eigenvalues --    1.47486   1.47886   1.47970   1.48672   1.48714
  Beta virt. eigenvalues --    1.48958   1.49121   1.49122   1.49569   1.49958
  Beta virt. eigenvalues --    1.49991   1.50109   1.50673   1.50803   1.51052
  Beta virt. eigenvalues --    1.51213   1.51764   1.51807   1.51930   1.51947
  Beta virt. eigenvalues --    1.52588   1.52756   1.53262   1.53417   1.53725
  Beta virt. eigenvalues --    1.54216   1.54357   1.57135   1.57601   1.59268
  Beta virt. eigenvalues --    1.59451   1.60308   1.60389   1.60647   1.60718
  Beta virt. eigenvalues --    1.61726   1.63707   1.64267   1.64835   1.65012
  Beta virt. eigenvalues --    1.65662   1.68276   1.68796   1.69396   1.69562
  Beta virt. eigenvalues --    1.70028   1.70216   1.70322   1.70638   1.70797
  Beta virt. eigenvalues --    1.70894   1.71177   1.71409   1.71591   1.71685
  Beta virt. eigenvalues --    1.71760   1.72469   1.72677   1.72679   1.72779
  Beta virt. eigenvalues --    1.73265   1.73557   1.74528   1.74679   1.74769
  Beta virt. eigenvalues --    1.74993   1.75390   1.75780   1.75807   1.76035
  Beta virt. eigenvalues --    1.76212   1.77464   1.77898   1.78078   1.78654
  Beta virt. eigenvalues --    1.80164   1.80831   1.81006   1.81848   1.82050
[...]
 
              Baa    -0.0310    -4.166    -1.486    -1.390  0.0000  0.9895  0.1449
     2 C(13)  Bbb    -0.0208    -2.796    -0.998    -0.933  1.0000 -0.0000  0.0001
              Bcc     0.0519     6.962     2.484     2.322 -0.0001 -0.1449  0.9895
 
              Baa    -0.0076    -1.013    -0.362    -0.338  0.0660  0.6675  0.7417
     3 C(13)  Bbb    -0.0039    -0.524    -0.187    -0.175  0.9779 -0.1911  0.0850
              Bcc     0.0115     1.537     0.549     0.513  0.1985  0.7197 -0.6653
 
              Baa    -0.0229    -3.071    -1.096    -1.024 -0.5023  0.6613  0.5571
     4 C(13)  Bbb    -0.0189    -2.540    -0.906    -0.847  0.8629  0.3412  0.3729
              Bcc     0.0418     5.611     2.002     1.872 -0.0565 -0.6680  0.7420
 
              Baa    -0.0403    -5.406    -1.929    -1.803  0.0000  0.9880  0.1547
     5 C(13)  Bbb    -0.0351    -4.706    -1.679    -1.570  1.0000 -0.0000  0.0000
              Bcc     0.0754    10.112     3.608     3.373 -0.0000 -0.1547  0.9880
 
              Baa    -0.0076    -1.013    -0.362    -0.338 -0.0658  0.6675  0.7417
     6 C(13)  Bbb    -0.0039    -0.524    -0.187    -0.175  0.9779  0.1908 -0.0850
              Bcc     0.0115     1.537     0.549     0.513 -0.1983  0.7197 -0.6654
 
              Baa    -0.0021    -1.135    -0.405    -0.379 -0.1181 -0.2966  0.9477
     7 H(1)   Bbb    -0.0001    -0.038    -0.014    -0.013  0.9896  0.0440  0.1370
              Bcc     0.0022     1.173     0.419     0.391 -0.0823  0.9540  0.2883
 
              Baa    -0.0027    -1.432    -0.511    -0.478  0.0850 -0.3393  0.9368
     8 H(1)   Bbb    -0.0014    -0.752    -0.268    -0.251  0.9931  0.1057 -0.0519
              Bcc     0.0041     2.184     0.779     0.729 -0.0814  0.9347  0.3459
 
              Baa    -0.0021    -1.135    -0.405    -0.379  0.1180 -0.2967  0.9477
     9 H(1)   Bbb    -0.0001    -0.038    -0.014    -0.013  0.9896 -0.0439 -0.1369
              Bcc     0.0022     1.173     0.419     0.391  0.0822  0.9540  0.2884
 
              Baa    -0.0402    -5.401    -1.927    -1.801  0.0000  0.9878 -0.1555
    10 C(13)  Bbb    -0.0350    -4.700    -1.677    -1.568  1.0000 -0.0000 -0.0000
              Bcc     0.0753    10.101     3.604     3.369  0.0000  0.1555  0.9878
 
              Baa    -0.0076    -1.015    -0.362    -0.338 -0.0647 -0.6677  0.7416
    11 C(13)  Bbb    -0.0039    -0.526    -0.188    -0.175  0.9782 -0.1893 -0.0852
              Bcc     0.0115     1.540     0.550     0.514  0.1973  0.7199  0.6654
 
              Baa    -0.0076    -1.014    -0.362    -0.338  0.0647 -0.6675  0.7418
    12 C(13)  Bbb    -0.0039    -0.525    -0.187    -0.175  0.9782  0.1894  0.0851
              Bcc     0.0115     1.539     0.549     0.513 -0.1973  0.7201  0.6652
 
              Baa    -0.0229    -3.067    -1.094    -1.023  0.5014  0.6609 -0.5584
    13 C(13)  Bbb    -0.0189    -2.535    -0.905    -0.846  0.8634 -0.3398  0.3730
              Bcc     0.0417     5.602     1.999     1.869 -0.0568  0.6691  0.7410
 
              Baa    -0.0229    -3.068    -1.095    -1.023 -0.5014  0.6610 -0.5583
    14 C(13)  Bbb    -0.0189    -2.536    -0.905    -0.846  0.8633  0.3398 -0.3730
              Bcc     0.0418     5.604     2.000     1.869  0.0568  0.6691  0.7410
 
              Baa    -0.0311    -4.168    -1.487    -1.390 -0.0001  0.9893 -0.1457
    15 C(13)  Bbb    -0.0209    -2.799    -0.999    -0.933  1.0000  0.0000 -0.0001
              Bcc     0.0519     6.966     2.486     2.324  0.0001  0.1457  0.9893
 
              Baa    -0.0021    -1.135    -0.405    -0.378  0.1182  0.2975  0.9474
    16 H(1)   Bbb    -0.0001    -0.038    -0.014    -0.013  0.9895  0.0442 -0.1373
              Bcc     0.0022     1.173     0.419     0.391 -0.0827  0.9537 -0.2892
 
              Baa    -0.0021    -1.135    -0.405    -0.378 -0.1180  0.2976  0.9474
    17 H(1)   Bbb    -0.0001    -0.038    -0.014    -0.013  0.9896 -0.0441  0.1371
              Bcc     0.0022     1.173     0.419     0.391  0.0825  0.9537 -0.2893
 
              Baa    -0.0027    -1.432    -0.511    -0.478  0.0844  0.3399  0.9366
    18 H(1)   Bbb    -0.0014    -0.751    -0.268    -0.250  0.9932 -0.1048 -0.0515
              Bcc     0.0041     2.183     0.779     0.728  0.0806  0.9346 -0.3465
 
              Baa    -0.0027    -1.432    -0.511    -0.478 -0.0842  0.3401  0.9366
    19 H(1)   Bbb    -0.0014    -0.751    -0.268    -0.250  0.9932  0.1048  0.0512
              Bcc     0.0041     2.183     0.779     0.728 -0.0807  0.9345 -0.3466
 
              Baa    -0.0027    -1.432    -0.511    -0.478 -0.0852 -0.3392  0.9368
    20 H(1)   Bbb    -0.0014    -0.752    -0.268    -0.251  0.9930 -0.1056  0.0521
              Bcc     0.0041     2.184     0.779     0.729  0.0813  0.9348  0.3459
 
              Baa    -0.2539    -9.792    -3.494    -3.266 -0.0009  0.9478  0.3188
    21 N(14)  Bbb    -0.2528    -9.748    -3.478    -3.252  1.0000  0.0009  0.0002
              Bcc     0.5066    19.540     6.972     6.518  0.0001 -0.3188  0.9478
 
              Baa    -0.0183    -2.461    -0.878    -0.821  0.6145  0.6838 -0.3934
    22 C(13)  Bbb     0.0051     0.681     0.243     0.227  0.6299 -0.1250  0.7666
              Bcc     0.0133     1.780     0.635     0.594 -0.4750  0.7188  0.5075
 
              Baa    -0.0275    -3.684    -1.314    -1.229  0.1021  0.5871  0.8030
    23 C(13)  Bbb    -0.0240    -3.218    -1.148    -1.073  0.6505 -0.6501  0.3926
              Bcc     0.0514     6.902     2.463     2.302  0.7526  0.4823 -0.4483
 
              Baa    -0.0290    -3.897    -1.391    -1.300  0.7310 -0.5484  0.4061
    24 C(13)  Bbb    -0.0258    -3.460    -1.235    -1.154 -0.0823  0.5199  0.8502
              Bcc     0.0548     7.357     2.625     2.454  0.6774  0.6549 -0.3350
 
              Baa    -0.0197    -2.645    -0.944    -0.882 -0.5206 -0.5937  0.6136
    25 C(13)  Bbb     0.0087     1.167     0.416     0.389  0.6971  0.1193  0.7070
              Bcc     0.0110     1.478     0.527     0.493 -0.4929  0.7958  0.3517
 
              Baa    -0.0216    -2.901    -1.035    -0.968 -0.5611 -0.5367  0.6302
    26 C(13)  Bbb     0.0095     1.269     0.453     0.423  0.6178  0.2352  0.7504
              Bcc     0.0122     1.632     0.582     0.544 -0.5509  0.8104  0.1996
 
              Baa    -0.0319    -4.275    -1.525    -1.426  0.6791  0.2047  0.7049
    27 C(13)  Bbb    -0.0286    -3.843    -1.371    -1.282 -0.5273  0.8042  0.2744
              Bcc     0.0605     8.118     2.897     2.708 -0.5107 -0.5581  0.6541
 
              Baa    -0.0021    -1.134    -0.405    -0.378  0.2494  0.8286 -0.5012
    28 H(1)   Bbb    -0.0011    -0.611    -0.218    -0.204  0.7585 -0.4889 -0.4309
              Bcc     0.0033     1.745     0.623     0.582  0.6020  0.2727  0.7505
 
              Baa    -0.0023    -1.211    -0.432    -0.404 -0.6024 -0.5174  0.6078
    29 H(1)   Bbb    -0.0008    -0.428    -0.153    -0.143 -0.2665  0.8482  0.4578
              Bcc     0.0031     1.639     0.585     0.547  0.7524 -0.1138  0.6488
 
              Baa    -0.0011    -0.602    -0.215    -0.201  0.5771  0.5868 -0.5680
    30 H(1)   Bbb     0.0001     0.074     0.026     0.025  0.7401 -0.0818  0.6675
              Bcc     0.0010     0.528     0.188     0.176 -0.3452  0.8056  0.4815
 
              Baa    -0.0012    -0.634    -0.226    -0.211  0.5850  0.6084 -0.5362
    31 H(1)   Bbb    -0.0001    -0.056    -0.020    -0.019  0.4617  0.2937  0.8370
              Bcc     0.0013     0.690     0.246     0.230 -0.6668  0.7372  0.1091
 
              Baa    -0.0041    -2.176    -0.776    -0.726  0.6742  0.1571  0.7216
    32 H(1)   Bbb    -0.0004    -0.226    -0.081    -0.075 -0.5384 -0.5643  0.6258
              Bcc     0.0045     2.402     0.857     0.801 -0.5055  0.8105  0.2959
 
              Baa    -0.0183    -2.459    -0.878    -0.820 -0.6152  0.6837 -0.3926
    33 C(13)  Bbb     0.0051     0.681     0.243     0.227 -0.6292 -0.1257  0.7670
              Bcc     0.0133     1.778     0.635     0.593  0.4750  0.7188  0.5075
 
              Baa    -0.0274    -3.680    -1.313    -1.228 -0.1020  0.5867  0.8034
    34 C(13)  Bbb    -0.0240    -3.215    -1.147    -1.072  0.6498  0.6508 -0.3928
              Bcc     0.0514     6.895     2.460     2.300  0.7533 -0.4820  0.4475
 
              Baa    -0.0290    -3.894    -1.390    -1.299  0.7305  0.5485 -0.4068
    35 C(13)  Bbb    -0.0258    -3.457    -1.233    -1.153  0.0831  0.5198  0.8503
              Bcc     0.0548     7.351     2.623     2.452  0.6778 -0.6550  0.3341
 
              Baa    -0.0197    -2.643    -0.943    -0.881  0.5212 -0.5937  0.6131
    36 C(13)  Bbb     0.0087     1.166     0.416     0.389 -0.6963  0.1195  0.7077
              Bcc     0.0110     1.477     0.527     0.493  0.4934  0.7958  0.3512
 
              Baa    -0.0216    -2.899    -1.034    -0.967  0.5618 -0.5366  0.6297
    37 C(13)  Bbb     0.0094     1.268     0.452     0.423 -0.6178  0.2342  0.7507
              Bcc     0.0122     1.631     0.582     0.544  0.5502  0.8107  0.1999
 
              Baa    -0.0318    -4.270    -1.524    -1.424 -0.6787  0.2042  0.7054
    38 C(13)  Bbb    -0.0286    -3.838    -1.370    -1.280  0.5271  0.8043  0.2743
              Bcc     0.0604     8.109     2.893     2.705  0.5113 -0.5580  0.6536
 
              Baa    -0.0021    -1.134    -0.405    -0.378 -0.2511  0.8280 -0.5013
    39 H(1)   Bbb    -0.0011    -0.610    -0.218    -0.203  0.7579  0.4903  0.4303
              Bcc     0.0033     1.744     0.622     0.582 -0.6021  0.2719  0.7507
 
              Baa    -0.0023    -1.210    -0.432    -0.404  0.6026 -0.5178  0.6073
    40 H(1)   Bbb    -0.0008    -0.427    -0.152    -0.142  0.2673  0.8480  0.4577
              Bcc     0.0031     1.637     0.584     0.546  0.7519  0.1135 -0.6494
 
              Baa    -0.0011    -0.602    -0.215    -0.201 -0.5777  0.5868 -0.5674
    41 H(1)   Bbb     0.0001     0.074     0.026     0.025  0.7393  0.0816 -0.6684
              Bcc     0.0010     0.528     0.188     0.176  0.3459  0.8056  0.4809
 
              Baa    -0.0012    -0.633    -0.226    -0.211 -0.5856  0.6084 -0.5357
    42 H(1)   Bbb    -0.0001    -0.056    -0.020    -0.019 -0.4616  0.2929  0.8373
              Bcc     0.0013     0.689     0.246     0.230  0.6663  0.7376  0.1093
 
              Baa    -0.0041    -2.173    -0.776    -0.725 -0.6738  0.1566  0.7222
    43 H(1)   Bbb    -0.0004    -0.226    -0.081    -0.075  0.5390 -0.5643  0.6253
              Bcc     0.0045     2.399     0.856     0.800  0.5054  0.8106  0.2958
 
              Baa    -0.2539    -9.792    -3.494    -3.266 -0.0004  0.9478 -0.3189
    44 N(14)  Bbb    -0.2528    -9.748    -3.478    -3.252  1.0000  0.0004 -0.0001
              Bcc     0.5067    19.540     6.973     6.518 -0.0001  0.3189  0.9478
 
              Baa    -0.0183    -2.460    -0.878    -0.820  0.6151  0.6836  0.3928
    45 C(13)  Bbb     0.0051     0.681     0.243     0.227 -0.6292  0.1254  0.7671
              Bcc     0.0133     1.778     0.635     0.593 -0.4751  0.7190 -0.5073
 
              Baa    -0.0274    -3.680    -1.313    -1.228 -0.1019 -0.5867  0.8033
    46 C(13)  Bbb    -0.0240    -3.214    -1.147    -1.072 -0.6499  0.6507  0.3928
              Bcc     0.0514     6.894     2.460     2.300  0.7532  0.4820  0.4476
 
              Baa    -0.0290    -3.894    -1.389    -1.299  0.7307 -0.5483 -0.4068
    47 C(13)  Bbb    -0.0258    -3.456    -1.233    -1.153  0.0833 -0.5198  0.8502
              Bcc     0.0548     7.350     2.623     2.452  0.6776  0.6551  0.3341
 
              Baa    -0.0197    -2.642    -0.943    -0.881  0.5210  0.5939  0.6131
    48 C(13)  Bbb     0.0087     1.166     0.416     0.389 -0.6963 -0.1198  0.7077
              Bcc     0.0110     1.477     0.527     0.493 -0.4937  0.7956 -0.3511
 
              Baa    -0.0216    -2.898    -1.034    -0.967  0.5616  0.5367  0.6297
    49 C(13)  Bbb     0.0094     1.268     0.452     0.423 -0.6177 -0.2344  0.7507
              Bcc     0.0122     1.631     0.582     0.544 -0.5505  0.8106 -0.1999
 
              Baa    -0.0318    -4.270    -1.524    -1.424 -0.6787 -0.2044  0.7054
    50 C(13)  Bbb    -0.0286    -3.838    -1.369    -1.280 -0.5273  0.8041 -0.2743
              Bcc     0.0604     8.107     2.893     2.704  0.5111  0.5582  0.6536
 
              Baa    -0.0021    -1.134    -0.405    -0.378  0.2507  0.8281  0.5014
    51 H(1)   Bbb    -0.0011    -0.610    -0.218    -0.203  0.7579 -0.4901  0.4305
              Bcc     0.0033     1.744     0.622     0.582 -0.6022 -0.2721  0.7505
 
              Baa    -0.0023    -1.210    -0.432    -0.404  0.6024  0.5180  0.6072
    52 H(1)   Bbb    -0.0008    -0.426    -0.152    -0.142 -0.2676  0.8478 -0.4578
              Bcc     0.0031     1.637     0.584     0.546  0.7520 -0.1133 -0.6494
 
              Baa    -0.0011    -0.601    -0.215    -0.201  0.5775  0.5869  0.5674
    53 H(1)   Bbb     0.0001     0.074     0.026     0.025  0.7393 -0.0813 -0.6684
              Bcc     0.0010     0.528     0.188     0.176 -0.3462  0.8055 -0.4809
 
              Baa    -0.0012    -0.633    -0.226    -0.211  0.5854  0.6085  0.5357
    54 H(1)   Bbb    -0.0001    -0.056    -0.020    -0.019 -0.4616 -0.2930  0.8373
              Bcc     0.0013     0.689     0.246     0.230 -0.6665  0.7375 -0.1094
 
              Baa    -0.0041    -2.173    -0.775    -0.725 -0.6738 -0.1568  0.7221
    55 H(1)   Bbb    -0.0004    -0.226    -0.081    -0.075  0.5389  0.5644  0.6253
              Bcc     0.0045     2.399     0.856     0.800 -0.5056  0.8104 -0.2958
 
              Baa    -0.0183    -2.459    -0.877    -0.820 -0.6153  0.6837  0.3924
    56 C(13)  Bbb     0.0051     0.681     0.243     0.227  0.6290  0.1258  0.7671
              Bcc     0.0132     1.778     0.634     0.593  0.4751  0.7188 -0.5075
 
              Baa    -0.0274    -3.679    -1.313    -1.227  0.1019 -0.5865  0.8035
    57 C(13)  Bbb    -0.0239    -3.213    -1.146    -1.072  0.6496  0.6509  0.3928
              Bcc     0.0514     6.892     2.459     2.299  0.7534 -0.4820 -0.4473
 
              Baa    -0.0290    -3.892    -1.389    -1.298  0.7305  0.5485  0.4069
    58 C(13)  Bbb    -0.0257    -3.455    -1.233    -1.152 -0.0836 -0.5196  0.8503
              Bcc     0.0548     7.347     2.622     2.451  0.6778 -0.6551 -0.3337
 
              Baa    -0.0197    -2.641    -0.942    -0.881 -0.5212  0.5939  0.6128
    59 C(13)  Bbb     0.0087     1.165     0.416     0.389  0.6960 -0.1197  0.7080
              Bcc     0.0110     1.476     0.527     0.492  0.4939  0.7956 -0.3510
 
              Baa    -0.0216    -2.897    -1.034    -0.966 -0.5619  0.5368  0.6295
    60 C(13)  Bbb     0.0094     1.267     0.452     0.423  0.6177 -0.2338  0.7508
              Bcc     0.0121     1.630     0.582     0.544  0.5502  0.8107 -0.2002
 
              Baa    -0.0318    -4.268    -1.523    -1.424  0.6786 -0.2042  0.7056
    61 C(13)  Bbb    -0.0286    -3.836    -1.369    -1.280  0.5273  0.8042 -0.2743
              Bcc     0.0604     8.104     2.892     2.703 -0.5114  0.5582  0.6534
 
              Baa    -0.0021    -1.134    -0.405    -0.378 -0.2513  0.8280  0.5013
    62 H(1)   Bbb    -0.0011    -0.609    -0.217    -0.203  0.7577  0.4905 -0.4304
              Bcc     0.0033     1.743     0.622     0.581  0.6023 -0.2717  0.7506
 
              Baa    -0.0023    -1.210    -0.432    -0.404 -0.6026  0.5183  0.6069
    63 H(1)   Bbb    -0.0008    -0.426    -0.152    -0.142  0.2678  0.8477 -0.4579
              Bcc     0.0031     1.636     0.584     0.546  0.7518  0.1134  0.6496
 
              Baa    -0.0011    -0.601    -0.215    -0.201 -0.5778  0.5870  0.5671
    64 H(1)   Bbb     0.0001     0.074     0.026     0.025  0.7390  0.0813  0.6687
              Bcc     0.0010     0.527     0.188     0.176  0.3464  0.8055 -0.4808
 
              Baa    -0.0012    -0.633    -0.226    -0.211 -0.5857  0.6085  0.5354
    65 H(1)   Bbb    -0.0001    -0.056    -0.020    -0.019  0.4616 -0.2926  0.8375
              Bcc     0.0013     0.689     0.246     0.230  0.6663  0.7376 -0.1095
 
              Baa    -0.0041    -2.172    -0.775    -0.725  0.6736 -0.1565  0.7223
    66 H(1)   Bbb    -0.0004    -0.226    -0.081    -0.075 -0.5391  0.5645  0.6251
              Bcc     0.0045     2.398     0.856     0.800  0.5056  0.8105 -0.2959
 

 ---------------------------------------------------------------------------------

 No NMR shielding tensors so no spin-rotation constants.
 Leave Link  601 at Mon Jan 18 05:52:20 2021, MaxMem=  4026531840 cpu:              11.3 elap:               1.6
 (Enter /opt/ohpc/pub/libs/gaussian/g16-A.03/sandybridge/g16/l9999.exe)

 Test job not archived.
 1\1\GINC-CASCADEB019\SP\ULC-wHPBE\TZVP\C36H28N2(1+,2)\RDU230\18-Jan-20
 21\0\\#P LC-wHPBE/TZVP iop(3/107=0178100000, 3/108=0178100000) scf=(co
 nver=6,fermi,ndamp=35,noincfock,novaracc,vshift=500,xqc)\\H28 C36 N2\\
 1,2\C,0,2.849999,-1.125861,0.415638\C,0,3.563139,-0.000026,-0.000017\C
 ,0,1.464492,-1.123667,0.405534\C,0,2.850033,1.125752,-0.415809\C,0,0.7
 41288,-0.000047,-0.000195\C,0,1.464504,1.123547,-0.405879\H,0,0.931596
 ,-2.005844,0.756198\H,0,3.391048,2.006254,-0.75499\H,0,0.931669,2.0057
 28,-0.756629\C,0,-0.741437,-0.000073,-0.000217\C,0,-1.464635,1.123165,
 0.406556\C,0,-1.464638,-1.123302,-0.406976\C,0,-2.850149,1.125343,0.41
 661\C,0,-2.850163,-1.125491,-0.416935\C,0,-3.563257,-0.000095,-0.00011
 6\H,0,-0.931751,2.005025,0.758038\H,0,-0.931783,-2.00514,-0.758553\H,0
 ,-3.391193,2.005527,0.756576\H,0,-3.391211,-2.005669,-0.756913\H,0,3.3
 91005,-2.006357,0.754845\N,0,-4.97843,-0.000102,-0.000065\C,0,-5.68709
 9,-1.154578,0.414287\C,0,-6.831881,-1.566674,-0.27115\C,0,-5.251323,-1
 .896933,1.513908\C,0,-7.528311,-2.692826,0.143324\C,0,-5.943392,-3.032
 223,1.91044\C,0,-7.087522,-3.435368,1.232277\H,0,-7.173684,-0.995181,-
 1.131117\H,0,-4.363437,-1.577947,2.055099\H,0,-8.419174,-2.999763,-0.4
 0155\H,0,-5.58986,-3.599797,2.769285\H,0,-7.631852,-4.321852,1.550225\
 C,0,-5.687025,1.154532,-0.414292\C,0,-6.831191,1.567225,0.271802\C,0,-
 5.251707,1.896381,-1.514415\C,0,-7.527485,2.693516,-0.142525\C,0,-5.94
 362,3.031828,-1.910808\C,0,-7.087137,3.435581,-1.231989\H,0,-7.172616,
 0.996083,1.132151\H,0,-4.364291,1.57691,-2.056093\H,0,-8.417875,3.0009
 45,0.402845\H,0,-5.590451,3.599029,-2.77005\H,0,-7.63135,4.322181,-1.5
 49815\N,0,4.978266,0.00002,0.000103\C,0,5.68699,1.154558,0.414335\C,0,
 6.831289,1.56698,-0.271699\C,0,5.251761,1.896543,1.51441\C,0,7.527834,
 2.693112,0.142653\C,0,5.943923,3.031822,1.910819\C,0,7.08759,3.435293,
 1.232069\H,0,7.172649,0.995729,-1.132\H,0,4.364233,1.577285,2.056034\H
 ,0,8.418333,3.000297,-0.402674\H,0,5.59085,3.599137,2.770027\H,0,7.631
 979,4.321768,1.549941\C,0,5.687017,-1.154516,-0.414141\C,0,6.831068,-1
 .567191,0.272109\C,0,5.251977,-1.896199,-1.514492\C,0,7.527566,-2.6933
 48,-0.142281\C,0,5.944079,-3.031486,-1.910953\C,0,7.087509,-3.435246,-
 1.231958\H,0,7.172277,-0.996155,1.132614\H,0,4.364636,-1.576682,-2.056
 275\H,0,8.417864,-3.000787,0.403227\H,0,5.591165,-3.598572,-2.770374\H
 ,0,7.631874,-4.32173,-1.549857\\Version=EM64L-G16RevA.03\State=2-A\HF=
 -1496.9672553\S2=0.772091\S2-1=0.\S2A=0.750281\RMSD=8.081e-07\Dipole=0
 .0001888,0.0000985,-0.0000487\Quadrupole=73.1398666,-24.0369731,-49.10
 28935,-0.0046041,-0.0004105,0.0025426\PG=C01 [X(C36H28N2)]\\@


 THE CHYMISTS ARE A STRANGE CLASS OF MORTALS IMPELLED
 BY AN ALMOST INSANE IMPULSE TO SEEK THEIR PLEASURE
 AMONG SMOKE AND VAPOR, SOOT AND FLAME, POISONS AND
 POVERTY; YET AMONG ALL THESE EVILS I SEEM TO LIVE
 SO SWEETLY, THAT I MAY DIE IF I WOULD CHANGE PLACES
 WITH THE PERSIAN KING.
   --  JOHANN JOACHIM BECHER, 1635-1682
 ACTA LABORATORII CHYMICA MONACENSIS, 1669
 Job cpu time:       0 days  4 hours  3 minutes 17.8 seconds.
 Elapsed time:       0 days  0 hours 30 minutes 46.6 seconds.
 File lengths (MBytes):  RWF=    428 Int=      0 D2E=      0 Chk=     60 Scr=      8
 Normal termination of Gaussian 16 at Mon Jan 18 05:52:21 2021.
