 Entering Gaussian System, Link 0=g16
 Input=mol_bp_pa_whol_tune_c1.gjf
 Output=mol_bp_pa_whol_tune_c1.log
 Initial command:
 /opt/ohpc/pub/libs/gaussian/g16-A.03/sandybridge/g16/l1.exe "/mnt/gpfs2_4m/scratch/rdu230/ondemand/projects/init_structures/wtuning/mol_bp_pa_whol/tuning_mol_bp_pa_whol_ocycle0/Gau-76228.inp" -scrdir="/mnt/gpfs2_4m/scratch/rdu230/ondemand/projects/init_structures/wtuning/mol_bp_pa_whol/tuning_mol_bp_pa_whol_ocycle0/"
 Entering Link 1 = /opt/ohpc/pub/libs/gaussian/g16-A.03/sandybridge/g16/l1.exe PID=     76229.
  
 Copyright (c) 1988,1990,1992,1993,1995,1998,2003,2009,2016,
            Gaussian, Inc.  All Rights Reserved.
  
 This is part of the Gaussian(R) 16 program.  It is based on
 the Gaussian(R) 09 system (copyright 2009, Gaussian, Inc.),
 the Gaussian(R) 03 system (copyright 2003, Gaussian, Inc.),
 the Gaussian(R) 98 system (copyright 1998, Gaussian, Inc.),
 the Gaussian(R) 94 system (copyright 1995, Gaussian, Inc.),
 the Gaussian 92(TM) system (copyright 1992, Gaussian, Inc.),
 the Gaussian 90(TM) system (copyright 1990, Gaussian, Inc.),
 the Gaussian 88(TM) system (copyright 1988, Gaussian, Inc.),
 the Gaussian 86(TM) system (copyright 1986, Carnegie Mellon
 University), and the Gaussian 82(TM) system (copyright 1983,
 Carnegie Mellon University). Gaussian is a federally registered
 trademark of Gaussian, Inc.
  
 This software contains proprietary and confidential information,
 including trade secrets, belonging to Gaussian, Inc.
  
 This software is provided under written license and may be
 used, copied, transmitted, or stored only in accord with that
 written license.
  
 The following legend is applicable only to US Government
 contracts under FAR:
  
                    RESTRICTED RIGHTS LEGEND
  
 Use, reproduction and disclosure by the US Government is
 subject to restrictions as set forth in subparagraphs (a)
 and (c) of the Commercial Computer Software - Restricted
 Rights clause in FAR 52.227-19.
  
 Gaussian, Inc.
 340 Quinnipiac St., Bldg. 40, Wallingford CT 06492
  
  
 ---------------------------------------------------------------
 Warning -- This program may not be used in any manner that
 competes with the business of Gaussian, Inc. or will provide
 assistance to any competitor of Gaussian, Inc.  The licensee
 of this program is prohibited from giving any competitor of
 Gaussian, Inc. access to this program.  By using this program,
 the user acknowledges that Gaussian, Inc. is engaged in the
 business of creating and licensing software in the field of
 computational chemistry and represents and warrants to the
 licensee that it is not a competitor of Gaussian, Inc. and that
 it will not use this program in any manner prohibited above.
 ---------------------------------------------------------------
  

 Cite this work as:
 Gaussian 16, Revision A.03,
 M. J. Frisch, G. W. Trucks, H. B. Schlegel, G. E. Scuseria, 
 M. A. Robb, J. R. Cheeseman, G. Scalmani, V. Barone, 
 G. A. Petersson, H. Nakatsuji, X. Li, M. Caricato, A. V. Marenich, 
 J. Bloino, B. G. Janesko, R. Gomperts, B. Mennucci, H. P. Hratchian, 
 J. V. Ortiz, A. F. Izmaylov, J. L. Sonnenberg, D. Williams-Young, 
 F. Ding, F. Lipparini, F. Egidi, J. Goings, B. Peng, A. Petrone, 
 T. Henderson, D. Ranasinghe, V. G. Zakrzewski, J. Gao, N. Rega, 
 G. Zheng, W. Liang, M. Hada, M. Ehara, K. Toyota, R. Fukuda, 
 J. Hasegawa, M. Ishida, T. Nakajima, Y. Honda, O. Kitao, H. Nakai, 
 T. Vreven, K. Throssell, J. A. Montgomery, Jr., J. E. Peralta, 
 F. Ogliaro, M. J. Bearpark, J. J. Heyd, E. N. Brothers, K. N. Kudin, 
 V. N. Staroverov, T. A. Keith, R. Kobayashi, J. Normand, 
 K. Raghavachari, A. P. Rendell, J. C. Burant, S. S. Iyengar, 
 J. Tomasi, M. Cossi, J. M. Millam, M. Klene, C. Adamo, R. Cammi, 
 J. W. Ochterski, R. L. Martin, K. Morokuma, O. Farkas, 
 J. B. Foresman, and D. J. Fox, Gaussian, Inc., Wallingford CT, 2016.
 
 ******************************************
 Gaussian 16:  EM64L-G16RevA.03 25-Dec-2016
                17-Jan-2021 
 ******************************************
 %mem=30GB
 %nproc=8
 Will use up to    8 processors via shared memory.
 ----------------------------------------------------------------------
 #P LC-wHPBE/TZVP iop(3/107=0328100000, 3/108=0328100000) scf=(conver=6
 ,fermi,ndamp=35,noincfock,novaracc,vshift=500,xqc)
 ----------------------------------------------------------------------
 1/38=1,172=1/1;
 2/12=2,17=6,18=5,40=1/2;
 3/5=19,7=101,11=2,25=1,30=1,74=-71,107=328100000,108=328100000/1,2,3;
 4//1;
 5/5=100002,6=6,8=3,10=500,13=1,18=-1,22=13,38=1,93=35/2,8;
 6/7=2,8=2,9=2,10=2,28=1/1;
 99/5=1,9=1/99;
 Leave Link    1 at Sun Jan 17 22:32:25 2021, MaxMem=  4026531840 cpu:               1.2 elap:               0.2
 (Enter /opt/ohpc/pub/libs/gaussian/g16-A.03/sandybridge/g16/l101.exe)
 ----------
 H28 C36 N2
 ----------
 Symbolic Z-matrix:
 Charge =  1 Multiplicity = 2
 C                     2.85     -1.12586   0.41564 
 C                     3.56314  -0.00003  -0.00002 
 C                     1.46449  -1.12367   0.40553 
 C                     2.85003   1.12575  -0.41581 
 C                     0.74129  -0.00005  -0.0002 
 C                     1.4645    1.12355  -0.40588 
 H                     0.9316   -2.00584   0.7562 
 H                     3.39105   2.00625  -0.75499 
 H                     0.93167   2.00573  -0.75663 
 C                    -0.74144  -0.00007  -0.00022 
 C                    -1.46464   1.12316   0.40656 
 C                    -1.46464  -1.1233   -0.40698 
 C                    -2.85015   1.12534   0.41661 
 C                    -2.85016  -1.12549  -0.41694 
 C                    -3.56326  -0.0001   -0.00012 
 H                    -0.93175   2.00502   0.75804 
 H                    -0.93178  -2.00514  -0.75855 
 H                    -3.39119   2.00553   0.75658 
 H                    -3.39121  -2.00567  -0.75691 
 H                     3.39101  -2.00636   0.75485 
 N                    -4.97843  -0.0001   -0.00007 
 C                    -5.6871   -1.15458   0.41429 
 C                    -6.83188  -1.56667  -0.27115 
 C                    -5.25132  -1.89693   1.51391 
 C                    -7.52831  -2.69283   0.14332 
 C                    -5.94339  -3.03222   1.91044 
 C                    -7.08752  -3.43537   1.23228 
 H                    -7.17368  -0.99518  -1.13112 
 H                    -4.36344  -1.57795   2.0551 
 H                    -8.41917  -2.99976  -0.40155 
 H                    -5.58986  -3.5998    2.76929 
 H                    -7.63185  -4.32185   1.55023 
 C                    -5.68703   1.15453  -0.41429 
 C                    -6.83119   1.56723   0.2718 
 C                    -5.25171   1.89638  -1.51442 
 C                    -7.52749   2.69352  -0.14253 
 C                    -5.94362   3.03183  -1.91081 
 C                    -7.08714   3.43558  -1.23199 
 H                    -7.17262   0.99608   1.13215 
 H                    -4.36429   1.57691  -2.05609 
 H                    -8.41788   3.00095   0.40285 
 H                    -5.59045   3.59903  -2.77005 
 H                    -7.63135   4.32218  -1.54982 
 N                     4.97827   0.00002   0.0001 
 C                     5.68699   1.15456   0.41434 
 C                     6.83129   1.56698  -0.2717 
 C                     5.25176   1.89654   1.51441 
 C                     7.52783   2.69311   0.14265 
 C                     5.94392   3.03182   1.91082 
 C                     7.08759   3.43529   1.23207 
 H                     7.17265   0.99573  -1.132 
 H                     4.36423   1.57729   2.05603 
 H                     8.41833   3.0003   -0.40267 
 H                     5.59085   3.59914   2.77003 
 H                     7.63198   4.32177   1.54994 
 C                     5.68702  -1.15452  -0.41414 
 C                     6.83107  -1.56719   0.27211 
 C                     5.25198  -1.8962   -1.51449 
 C                     7.52757  -2.69335  -0.14228 
 C                     5.94408  -3.03149  -1.91095 
 C                     7.08751  -3.43525  -1.23196 
 H                     7.17228  -0.99616   1.13261 
 H                     4.36464  -1.57668  -2.05627 
 H                     8.41786  -3.00079   0.40323 
 H                     5.59117  -3.59857  -2.77037 
 H                     7.63187  -4.32173  -1.54986 
 
 ITRead=  0  0  0  0  0  0  0  0  0  0  0  0  0  0  0  0  0  0  0  0
 ITRead=  0  0  0  0  0  0  0  0  0  0  0  0  0  0  0  0  0  0  0  0
 ITRead=  0  0  0  0  0  0  0  0  0  0  0  0  0  0  0  0  0  0  0  0
 ITRead=  0  0  0  0  0  0
 MicOpt= -1 -1 -1 -1 -1 -1 -1 -1 -1 -1 -1 -1 -1 -1 -1 -1 -1 -1 -1 -1
 MicOpt= -1 -1 -1 -1 -1 -1 -1 -1 -1 -1 -1 -1 -1 -1 -1 -1 -1 -1 -1 -1
 MicOpt= -1 -1 -1 -1 -1 -1 -1 -1 -1 -1 -1 -1 -1 -1 -1 -1 -1 -1 -1 -1
 MicOpt= -1 -1 -1 -1 -1 -1
 NAtoms=     66 NQM=       66 NQMF=       0 NMMI=      0 NMMIF=      0
                NMic=       0 NMicF=      0.
                    Isotopes and Nuclear Properties:
 (Nuclear quadrupole moments (NQMom) in fm**2, nuclear magnetic moments (NMagM)
  in nuclear magnetons)

  Atom         1           2           3           4           5           6           7           8           9          10
 IAtWgt=          12          12          12          12          12          12           1           1           1          12
 AtmWgt=  12.0000000  12.0000000  12.0000000  12.0000000  12.0000000  12.0000000   1.0078250   1.0078250   1.0078250  12.0000000
 NucSpn=           0           0           0           0           0           0           1           1           1           0
 AtZEff=  -0.0000000  -0.0000000  -0.0000000  -0.0000000  -0.0000000  -0.0000000  -0.0000000  -0.0000000  -0.0000000  -0.0000000
 NQMom=    0.0000000   0.0000000   0.0000000   0.0000000   0.0000000   0.0000000   0.0000000   0.0000000   0.0000000   0.0000000
 NMagM=    0.0000000   0.0000000   0.0000000   0.0000000   0.0000000   0.0000000   2.7928460   2.7928460   2.7928460   0.0000000
 AtZNuc=   6.0000000   6.0000000   6.0000000   6.0000000   6.0000000   6.0000000   1.0000000   1.0000000   1.0000000   6.0000000

  Atom        11          12          13          14          15          16          17          18          19          20
 IAtWgt=          12          12          12          12          12           1           1           1           1           1
 AtmWgt=  12.0000000  12.0000000  12.0000000  12.0000000  12.0000000   1.0078250   1.0078250   1.0078250   1.0078250   1.0078250
 NucSpn=           0           0           0           0           0           1           1           1           1           1
 AtZEff=  -0.0000000  -0.0000000  -0.0000000  -0.0000000  -0.0000000  -0.0000000  -0.0000000  -0.0000000  -0.0000000  -0.0000000
 NQMom=    0.0000000   0.0000000   0.0000000   0.0000000   0.0000000   0.0000000   0.0000000   0.0000000   0.0000000   0.0000000
 NMagM=    0.0000000   0.0000000   0.0000000   0.0000000   0.0000000   2.7928460   2.7928460   2.7928460   2.7928460   2.7928460
 AtZNuc=   6.0000000   6.0000000   6.0000000   6.0000000   6.0000000   1.0000000   1.0000000   1.0000000   1.0000000   1.0000000

  Atom        21          22          23          24          25          26          27          28          29          30
 IAtWgt=          14          12          12          12          12          12          12           1           1           1
 AtmWgt=  14.0030740  12.0000000  12.0000000  12.0000000  12.0000000  12.0000000  12.0000000   1.0078250   1.0078250   1.0078250
 NucSpn=           2           0           0           0           0           0           0           1           1           1
 AtZEff=  -0.0000000  -0.0000000  -0.0000000  -0.0000000  -0.0000000  -0.0000000  -0.0000000  -0.0000000  -0.0000000  -0.0000000
 NQMom=    2.0440000   0.0000000   0.0000000   0.0000000   0.0000000   0.0000000   0.0000000   0.0000000   0.0000000   0.0000000
 NMagM=    0.4037610   0.0000000   0.0000000   0.0000000   0.0000000   0.0000000   0.0000000   2.7928460   2.7928460   2.7928460
 AtZNuc=   7.0000000   6.0000000   6.0000000   6.0000000   6.0000000   6.0000000   6.0000000   1.0000000   1.0000000   1.0000000

  Atom        31          32          33          34          35          36          37          38          39          40
 IAtWgt=           1           1          12          12          12          12          12          12           1           1
 AtmWgt=   1.0078250   1.0078250  12.0000000  12.0000000  12.0000000  12.0000000  12.0000000  12.0000000   1.0078250   1.0078250
 NucSpn=           1           1           0           0           0           0           0           0           1           1
 AtZEff=  -0.0000000  -0.0000000  -0.0000000  -0.0000000  -0.0000000  -0.0000000  -0.0000000  -0.0000000  -0.0000000  -0.0000000
 NQMom=    0.0000000   0.0000000   0.0000000   0.0000000   0.0000000   0.0000000   0.0000000   0.0000000   0.0000000   0.0000000
 NMagM=    2.7928460   2.7928460   0.0000000   0.0000000   0.0000000   0.0000000   0.0000000   0.0000000   2.7928460   2.7928460
 AtZNuc=   1.0000000   1.0000000   6.0000000   6.0000000   6.0000000   6.0000000   6.0000000   6.0000000   1.0000000   1.0000000

  Atom        41          42          43          44          45          46          47          48          49          50
 IAtWgt=           1           1           1          14          12          12          12          12          12          12
 AtmWgt=   1.0078250   1.0078250   1.0078250  14.0030740  12.0000000  12.0000000  12.0000000  12.0000000  12.0000000  12.0000000
 NucSpn=           1           1           1           2           0           0           0           0           0           0
 AtZEff=  -0.0000000  -0.0000000  -0.0000000  -0.0000000  -0.0000000  -0.0000000  -0.0000000  -0.0000000  -0.0000000  -0.0000000
 NQMom=    0.0000000   0.0000000   0.0000000   2.0440000   0.0000000   0.0000000   0.0000000   0.0000000   0.0000000   0.0000000
 NMagM=    2.7928460   2.7928460   2.7928460   0.4037610   0.0000000   0.0000000   0.0000000   0.0000000   0.0000000   0.0000000
 AtZNuc=   1.0000000   1.0000000   1.0000000   7.0000000   6.0000000   6.0000000   6.0000000   6.0000000   6.0000000   6.0000000

  Atom        51          52          53          54          55          56          57          58          59          60
 IAtWgt=           1           1           1           1           1          12          12          12          12          12
 AtmWgt=   1.0078250   1.0078250   1.0078250   1.0078250   1.0078250  12.0000000  12.0000000  12.0000000  12.0000000  12.0000000
 NucSpn=           1           1           1           1           1           0           0           0           0           0
 AtZEff=  -0.0000000  -0.0000000  -0.0000000  -0.0000000  -0.0000000  -0.0000000  -0.0000000  -0.0000000  -0.0000000  -0.0000000
 NQMom=    0.0000000   0.0000000   0.0000000   0.0000000   0.0000000   0.0000000   0.0000000   0.0000000   0.0000000   0.0000000
 NMagM=    2.7928460   2.7928460   2.7928460   2.7928460   2.7928460   0.0000000   0.0000000   0.0000000   0.0000000   0.0000000
 AtZNuc=   1.0000000   1.0000000   1.0000000   1.0000000   1.0000000   6.0000000   6.0000000   6.0000000   6.0000000   6.0000000

  Atom        61          62          63          64          65          66
 IAtWgt=          12           1           1           1           1           1
 AtmWgt=  12.0000000   1.0078250   1.0078250   1.0078250   1.0078250   1.0078250
 NucSpn=           0           1           1           1           1           1
 AtZEff=  -0.0000000  -0.0000000  -0.0000000  -0.0000000  -0.0000000  -0.0000000
 NQMom=    0.0000000   0.0000000   0.0000000   0.0000000   0.0000000   0.0000000
 NMagM=    0.0000000   2.7928460   2.7928460   2.7928460   2.7928460   2.7928460
 AtZNuc=   6.0000000   1.0000000   1.0000000   1.0000000   1.0000000   1.0000000
 Leave Link  101 at Sun Jan 17 22:32:25 2021, MaxMem=  4026531840 cpu:               0.8 elap:               0.1
 (Enter /opt/ohpc/pub/libs/gaussian/g16-A.03/sandybridge/g16/l202.exe)
 Stoichiometry    C36H28N2(1+,2)
 Framework group  C1[X(C36H28N2)]
 Deg. of freedom   192
 Full point group                 C1      NOp   1
 Largest Abelian subgroup         C1      NOp   1
 Largest concise Abelian subgroup C1      NOp   1
                         Standard orientation:                         
 ---------------------------------------------------------------------
 Center     Atomic      Atomic             Coordinates (Angstroms)
 Number     Number       Type             X           Y           Z
 ---------------------------------------------------------------------
      1          6           0       -2.849999   -1.125861   -0.415638
      2          6           0       -3.563139   -0.000026    0.000017
      3          6           0       -1.464492   -1.123667   -0.405534
      4          6           0       -2.850033    1.125752    0.415809
      5          6           0       -0.741288   -0.000047    0.000195
      6          6           0       -1.464504    1.123547    0.405879
      7          1           0       -0.931596   -2.005844   -0.756198
      8          1           0       -3.391048    2.006254    0.754990
      9          1           0       -0.931669    2.005728    0.756629
     10          6           0        0.741437   -0.000073    0.000217
     11          6           0        1.464635    1.123165   -0.406556
     12          6           0        1.464638   -1.123302    0.406976
     13          6           0        2.850149    1.125343   -0.416610
     14          6           0        2.850163   -1.125491    0.416935
     15          6           0        3.563257   -0.000095    0.000116
     16          1           0        0.931751    2.005025   -0.758038
     17          1           0        0.931783   -2.005140    0.758553
     18          1           0        3.391193    2.005527   -0.756576
     19          1           0        3.391211   -2.005669    0.756913
     20          1           0       -3.391005   -2.006357   -0.754845
     21          7           0        4.978430   -0.000102    0.000065
     22          6           0        5.687099   -1.154578   -0.414287
     23          6           0        6.831881   -1.566674    0.271150
     24          6           0        5.251323   -1.896933   -1.513908
     25          6           0        7.528311   -2.692826   -0.143324
     26          6           0        5.943392   -3.032223   -1.910440
     27          6           0        7.087522   -3.435368   -1.232277
     28          1           0        7.173684   -0.995181    1.131117
     29          1           0        4.363437   -1.577947   -2.055099
     30          1           0        8.419174   -2.999763    0.401550
     31          1           0        5.589860   -3.599797   -2.769285
     32          1           0        7.631852   -4.321852   -1.550225
     33          6           0        5.687025    1.154532    0.414292
     34          6           0        6.831191    1.567225   -0.271802
     35          6           0        5.251707    1.896381    1.514415
     36          6           0        7.527485    2.693516    0.142525
     37          6           0        5.943620    3.031828    1.910808
     38          6           0        7.087137    3.435581    1.231989
     39          1           0        7.172616    0.996083   -1.132151
     40          1           0        4.364291    1.576910    2.056093
     41          1           0        8.417875    3.000945   -0.402845
     42          1           0        5.590451    3.599029    2.770050
     43          1           0        7.631350    4.322181    1.549815
     44          7           0       -4.978266    0.000020   -0.000103
     45          6           0       -5.686990    1.154558   -0.414335
     46          6           0       -6.831289    1.566980    0.271699
     47          6           0       -5.251761    1.896543   -1.514410
     48          6           0       -7.527834    2.693112   -0.142653
     49          6           0       -5.943923    3.031822   -1.910819
     50          6           0       -7.087590    3.435293   -1.232069
     51          1           0       -7.172649    0.995729    1.132000
     52          1           0       -4.364233    1.577285   -2.056034
     53          1           0       -8.418333    3.000297    0.402674
     54          1           0       -5.590850    3.599137   -2.770027
     55          1           0       -7.631979    4.321768   -1.549941
     56          6           0       -5.687017   -1.154516    0.414141
     57          6           0       -6.831068   -1.567191   -0.272109
     58          6           0       -5.251977   -1.896199    1.514492
     59          6           0       -7.527566   -2.693348    0.142281
     60          6           0       -5.944079   -3.031486    1.910953
     61          6           0       -7.087509   -3.435246    1.231958
     62          1           0       -7.172277   -0.996155   -1.132614
     63          1           0       -4.364636   -1.576682    2.056275
     64          1           0       -8.417864   -3.000787   -0.403227
     65          1           0       -5.591165   -3.598572    2.770374
     66          1           0       -7.631874   -4.321730    1.549857
 ---------------------------------------------------------------------
 Rotational constants (GHZ):           0.2023709           0.0339547           0.0306836
 Leave Link  202 at Sun Jan 17 22:32:25 2021, MaxMem=  4026531840 cpu:               0.1 elap:               0.0
 (Enter /opt/ohpc/pub/libs/gaussian/g16-A.03/sandybridge/g16/l301.exe)
 Standard basis: TZVP (5D, 7F)
 Ernie: Thresh=  0.10000D-02 Tol=  0.10000D-05 Strict=F.
 There are   928 symmetry adapted cartesian basis functions of A   symmetry.
 There are   890 symmetry adapted basis functions of A   symmetry.
   890 basis functions,  1554 primitive gaussians,   928 cartesian basis functions
   129 alpha electrons      128 beta electrons
       nuclear repulsion energy      3528.7655398436 Hartrees.
 IExCor=33909 DFT=T Ex+Corr=LC-wHPBE ExCW=0 ScaHFX=  1.000000
 ScaDFX=  1.000000  1.000000  1.000000  1.000000 ScalE2=  1.000000  1.000000
 IRadAn=      5 IRanWt=     -1 IRanGd=            0 ICorTp=0 IEmpDi=  4
 HFx  wShort=  0.000000 wLong=  0.328100 cFull=  0.000000 cShort=  0.000000 cLong=  1.000000
 DFx  wShort=  0.000000 wLong=  0.328100 cFull=  0.000000 cShort=  1.000000 cLong=  0.000000
 NAtoms=   66 NActive=   66 NUniq=   66 SFac= 1.00D+00 NAtFMM=   60 NAOKFM=T Big=T
 Integral buffers will be    131072 words long.
 Raffenetti 2 integral format.
 Two-electron integral symmetry is turned on.
 Leave Link  301 at Sun Jan 17 22:32:25 2021, MaxMem=  4026531840 cpu:               0.4 elap:               0.1
 (Enter /opt/ohpc/pub/libs/gaussian/g16-A.03/sandybridge/g16/l302.exe)
 NPDir=0 NMtPBC=     1 NCelOv=     1 NCel=       1 NClECP=     1 NCelD=      1
         NCelK=      1 NCelE2=     1 NClLst=     1 CellRange=     0.0.
 One-electron integrals computed using PRISM.
 One-electron integral symmetry used in STVInt
 NBasis=   890 RedAO= T EigKep=  6.71D-06  NBF=   890
 NBsUse=   890 1.00D-06 EigRej= -1.00D+00 NBFU=   890
 Precomputing XC quadrature grid using
 IXCGrd= 4 IRadAn=           5 IRanWt=          -1 IRanGd=           0 AccXCQ= 0.00D+00.
 Generated NRdTot=       0 NPtTot=           0 NUsed=           0 NTot=          32
 NSgBfM=   852   844   846   852   852 MxSgAt=    66 MxSgA2=    66.
 Leave Link  302 at Sun Jan 17 22:32:27 2021, MaxMem=  4026531840 cpu:              17.3 elap:               2.2
 (Enter /opt/ohpc/pub/libs/gaussian/g16-A.03/sandybridge/g16/l303.exe)
 DipDrv:  MaxL=1.
 Leave Link  303 at Sun Jan 17 22:32:27 2021, MaxMem=  4026531840 cpu:               1.2 elap:               0.2
 (Enter /opt/ohpc/pub/libs/gaussian/g16-A.03/sandybridge/g16/l401.exe)
 ExpMin= 9.52D-02 ExpMax= 1.97D+04 ExpMxC= 6.73D+02 IAcc=3 IRadAn=         5 AccDes= 0.00D+00
 Harris functional with IExCor=33909 and IRadAn=       5 diagonalized for initial guess.
 HarFok:  IExCor=33909 AccDes= 0.00D+00 IRadAn=         5 IDoV= 1 UseB2=F ITyADJ=14
 ICtDFT=  3500011 ScaDFX=  1.000000  1.000000  1.000000  1.000000
 FoFCou: FMM=F IPFlag=           0 FMFlag=      100000 FMFlg1=        2001
         NFxFlg=           0 DoJE=T BraDBF=F KetDBF=T FulRan=T
         wScrn=  0.000000 ICntrl=       500 IOpCl=  0 I1Cent=   200000004 NGrid=           0
         NMat0=    1 NMatS0=      1 NMatT0=    0 NMatD0=    1 NMtDS0=    0 NMtDT0=    0
 Petite list used in FoFCou.
 Harris En= -1454.45394923625    
 JPrj=0 DoOrth=F DoCkMO=F.
 Initial guess <Sx>= 0.0000 <Sy>= 0.0000 <Sz>= 0.5000 <S**2>= 0.7500 S= 0.5000
 Leave Link  401 at Sun Jan 17 22:32:38 2021, MaxMem=  4026531840 cpu:              80.9 elap:              10.2
 (Enter /opt/ohpc/pub/libs/gaussian/g16-A.03/sandybridge/g16/l502.exe)
 Integral symmetry usage will be decided dynamically.
 UHF open shell SCF:
 Using DIIS extrapolation, IDIIS=    10.
 NGot=  4026531840 LenX=  4024793050 LenY=  4023930938
 Requested convergence on RMS density matrix=1.00D-06 within  32 cycles.
 Requested convergence on MAX density matrix=1.00D-04.
 Requested convergence on             energy=1.00D-04.
 Virtual orbitals will be shifted by   0.500 hartree.
 No special actions if energy rises.
 Dynamic level shift is on during FON iterations.

 Cycle   1  Pass 1  IDiag  1:
 FoFJK:  IHMeth= 1 ICntrl=       0 DoSepK=T KAlg= 0 I1Cent=           0 FoldK=F
 IRaf=         1 NMat=       1 IRICut=       1 DoRegI=T DoRafI=F ISym2E= 0 IDoP0=0 IntGTp=1.
 FoFCou: FMM=T IPFlag=           0 FMFlag=      100000 FMFlg1=        2001
         NFxFlg=           0 DoJE=T BraDBF=F KetDBF=F FulRan=T
         wScrn=  0.000000 ICntrl=       500 IOpCl=  0 I1Cent=           0 NGrid=           0
         NMat0=    1 NMatS0=      1 NMatT0=    0 NMatD0=    1 NMtDS0=    0 NMtDT0=    0
 Symmetry not used in FoFCou.
 FMM levels:  10  Number of levels for PrismC:   9
 E= -1496.71663921485    
 DIIS: error= 2.77D-02 at cycle   1 NSaved=   1.
 NSaved= 1 IEnMin= 1 EnMin= -1496.71663921485     IErMin= 1 ErrMin= 2.77D-02
 ErrMax= 2.77D-02  0.00D+00 EMaxC= 1.00D+00 BMatC= 2.05D+00 BMatP= 2.05D+00
 IDIUse=1 WtCom= 1.00D+00 WtEn= 0.00D+00
 Coeff-Com:  0.100D+01
 Coeff:      0.100D+01
 Gap=     0.333 Goal=   None    Shift=    0.500
 T= 1447. Gap= 0.771 NK=0 IS=  130 IE=  890 IFin=  129
          NO(<0.9)=   0  NV(>0.1)=   0    129.00e < EF      0.00e >EF  Err=0.0D+00
 Gap=     0.085 Goal=   None    Shift=    0.500
 T= 1447. Gap= 0.541 NK=0 IS=  129 IE=  890 IFin=  128
          NO(<0.9)=   0  NV(>0.1)=   0    128.00e < EF      0.00e >EF  Err=0.0D+00
 GapD=    0.085 DampG=0.500 DampE=0.500 DampFc=0.2500 IDamp=-1.
 Damping current iteration by 2.50D-01
 RMSDP=2.07D-03 MaxDP=1.06D-01              OVMax= 9.64D-02

 Cycle   2  Pass 1  IDiag  1:
 E= -1496.88501565181     Delta-E=       -0.168376436953 Rises=F Damp=T
 DIIS: error= 1.78D-02 at cycle   2 NSaved=   2.
 NSaved= 2 IEnMin= 2 EnMin= -1496.88501565181     IErMin= 2 ErrMin= 1.78D-02
 ErrMax= 1.78D-02  0.00D+00 EMaxC= 1.00D+00 BMatC= 9.91D-01 BMatP= 2.05D+00
 IDIUse=1 WtCom= 1.00D+00 WtEn= 0.00D+00
 Coeff-Com: -0.206D+01 0.306D+01
 Coeff:     -0.206D+01 0.306D+01
 Gap=     0.310 Goal=   None    Shift=    0.500
 T= 1371. Gap= 0.782 NK=0 IS=  130 IE=  890 IFin=  129
          NO(<0.9)=   0  NV(>0.1)=   0    129.00e < EF      0.00e >EF  Err=0.0D+00
 Gap=     0.113 Goal=   None    Shift=    0.500
 T= 1371. Gap= 0.580 NK=0 IS=  129 IE=  890 IFin=  128
          NO(<0.9)=   0  NV(>0.1)=   0    128.00e < EF      0.00e >EF  Err=0.0D+00
 GapD=    0.113 DampG=1.000 DampE=0.500 DampFc=0.5000 IDamp=-1.
 Damping current iteration by 5.00D-01
 RMSDP=1.81D-03 MaxDP=1.22D-01 DE=-1.68D-01 OVMax= 2.85D-02

 Cycle   3  Pass 1  IDiag  1:
 E= -1497.06577178591     Delta-E=       -0.180756134100 Rises=F Damp=T
 DIIS: error= 9.44D-03 at cycle   3 NSaved=   3.
 NSaved= 3 IEnMin= 3 EnMin= -1497.06577178591     IErMin= 3 ErrMin= 9.44D-03
 ErrMax= 9.44D-03  0.00D+00 EMaxC= 1.00D+00 BMatC= 2.12D-01 BMatP= 9.91D-01
 IDIUse=1 WtCom= 1.00D+00 WtEn= 0.00D+00
 Coeff-Com:  0.982D-01-0.101D+01 0.191D+01
 Coeff:      0.982D-01-0.101D+01 0.191D+01
 Gap=     0.296 Goal=   None    Shift=    0.500
 T= 1199. Gap= 0.795 NK=0 IS=  130 IE=  890 IFin=  129
          NO(<0.9)=   0  NV(>0.1)=   0    129.00e < EF      0.00e >EF  Err=0.0D+00
 Gap=     0.084 Goal=   None    Shift=    0.500
 T= 1199. Gap= 0.583 NK=0 IS=  129 IE=  890 IFin=  128
          NO(<0.9)=   0  NV(>0.1)=   0    128.00e < EF      0.00e >EF  Err=0.0D+00
 GapD=    0.084 DampG=0.500 DampE=1.000 DampFc=0.5000 IDamp=-1.
 Damping current iteration by 5.00D-01
 RMSDP=1.08D-03 MaxDP=7.90D-02 DE=-1.81D-01 OVMax= 1.49D-02

 Cycle   4  Pass 1  IDiag  1:
 E= -1497.13723278739     Delta-E=       -0.071461001487 Rises=F Damp=T
 DIIS: error= 4.79D-03 at cycle   4 NSaved=   4.
 NSaved= 4 IEnMin= 4 EnMin= -1497.13723278739     IErMin= 4 ErrMin= 4.79D-03
 ErrMax= 4.79D-03  0.00D+00 EMaxC= 1.00D+00 BMatC= 4.91D-02 BMatP= 2.12D-01
 IDIUse=1 WtCom= 1.00D+00 WtEn= 0.00D+00
 Coeff-Com:  0.197D+00-0.266D+00-0.102D+01 0.209D+01
 Coeff:      0.197D+00-0.266D+00-0.102D+01 0.209D+01
 Gap=     0.296 Goal=   None    Shift=    0.500
 T=  876. Gap= 0.796 NK=0 IS=  130 IE=  890 IFin=  129
          NO(<0.9)=   0  NV(>0.1)=   0    129.00e < EF      0.00e >EF  Err=0.0D+00
 Gap=     0.085 Goal=   None    Shift=    0.500
 T=  876. Gap= 0.585 NK=0 IS=  129 IE=  890 IFin=  128
          NO(<0.9)=   0  NV(>0.1)=   0    128.00e < EF      0.00e >EF  Err=0.0D+00
 GapD=    0.085 DampG=0.500 DampE=1.000 DampFc=0.5000 IDamp=-1.
 Damping current iteration by 5.00D-01
 RMSDP=6.31D-04 MaxDP=4.74D-02 DE=-7.15D-02 OVMax= 1.12D-02

 Cycle   5  Pass 1  IDiag  1:
 E= -1497.16965225151     Delta-E=       -0.032419464113 Rises=F Damp=T
 DIIS: error= 3.11D-03 at cycle   5 NSaved=   5.
 NSaved= 5 IEnMin= 5 EnMin= -1497.16965225151     IErMin= 5 ErrMin= 3.11D-03
 ErrMax= 3.11D-03  0.00D+00 EMaxC= 1.00D+00 BMatC= 1.24D-02 BMatP= 4.91D-02
 IDIUse=1 WtCom= 1.00D+00 WtEn= 0.00D+00
 Coeff-Com:  0.515D-02 0.104D+00 0.211D+00-0.250D+01 0.318D+01
 Coeff:      0.515D-02 0.104D+00 0.211D+00-0.250D+01 0.318D+01
 Gap=     0.299 Goal=   None    Shift=    0.500
 T=  508. Gap= 0.799 NK=0 IS=  130 IE=  890 IFin=  129
          NO(<0.9)=   0  NV(>0.1)=   0    129.00e < EF      0.00e >EF  Err=0.0D+00
 Gap=     0.087 Goal=   None    Shift=    0.500
 T=  508. Gap= 0.587 NK=0 IS=  129 IE=  890 IFin=  128
          NO(<0.9)=   0  NV(>0.1)=   0    128.00e < EF      0.00e >EF  Err=0.0D+00
 GapD=    0.087 DampG=0.500 DampE=1.000 DampFc=0.5000 IDamp=-1.
 Damping current iteration by 5.00D-01
 RMSDP=3.76D-04 MaxDP=2.81D-02 DE=-3.24D-02 OVMax= 1.05D-02

 Cycle   6  Pass 1  IDiag  1:
 E= -1497.18547542259     Delta-E=       -0.015823171084 Rises=F Damp=T
 DIIS: error= 2.12D-03 at cycle   6 NSaved=   6.
 NSaved= 6 IEnMin= 6 EnMin= -1497.18547542259     IErMin= 6 ErrMin= 2.12D-03
 ErrMax= 2.12D-03  0.00D+00 EMaxC= 1.00D+00 BMatC= 3.48D-03 BMatP= 1.24D-02
 IDIUse=1 WtCom= 1.00D+00 WtEn= 0.00D+00
 Coeff-Com: -0.685D-01 0.118D+00 0.341D+00-0.782D+00-0.152D+01 0.291D+01
 Coeff:     -0.685D-01 0.118D+00 0.341D+00-0.782D+00-0.152D+01 0.291D+01
 Gap=     0.300 Goal=   None    Shift=    0.500
 T=  179. Gap= 0.800 NK=0 IS=  130 IE=  890 IFin=  129
          NO(<0.9)=   0  NV(>0.1)=   0    129.00e < EF      0.00e >EF  Err=0.0D+00
 Gap=     0.089 Goal=   None    Shift=    0.500
 T=  179. Gap= 0.589 NK=0 IS=  129 IE=  890 IFin=  128
          NO(<0.9)=   0  NV(>0.1)=   0    128.00e < EF      0.00e >EF  Err=0.0D+00
 GapD=    0.089 DampG=0.500 DampE=1.000 DampFc=0.5000 IDamp=-1.
 Damping current iteration by 5.00D-01
 RMSDP=2.23D-04 MaxDP=1.57D-02 DE=-1.58D-02 OVMax= 1.02D-02

 Cycle   7  Pass 1  IDiag  1:
 E= -1497.19350598107     Delta-E=       -0.008030558483 Rises=F Damp=T
 DIIS: error= 1.44D-03 at cycle   7 NSaved=   7.
 NSaved= 7 IEnMin= 7 EnMin= -1497.19350598107     IErMin= 7 ErrMin= 1.44D-03
 ErrMax= 1.44D-03  0.00D+00 EMaxC= 1.00D+00 BMatC= 1.09D-03 BMatP= 3.48D-03
 IDIUse=1 WtCom= 1.00D+00 WtEn= 0.00D+00
 Coeff-Com: -0.148D-01-0.296D-02-0.133D+00 0.975D+00-0.277D+00-0.423D+01
 Coeff-Com:  0.468D+01
 Coeff:     -0.148D-01-0.296D-02-0.133D+00 0.975D+00-0.277D+00-0.423D+01
 Coeff:      0.468D+01
 Gap=     0.301 Goal=   None    Shift=    0.500
 Gap=     0.091 Goal=   None    Shift=    0.500
 GapD=    0.091 DampG=0.500 DampE=1.000 DampFc=0.5000 IDamp=-1.
 Damping current iteration by 5.00D-01
 RMSDP=1.45D-04 MaxDP=9.66D-03 DE=-8.03D-03 OVMax= 1.05D-02

 Cycle   8  Pass 1  IDiag  1:
 E= -1497.19766910944     Delta-E=       -0.004163128360 Rises=F Damp=T
 DIIS: error= 1.23D-03 at cycle   8 NSaved=   8.
 NSaved= 8 IEnMin= 8 EnMin= -1497.19766910944     IErMin= 8 ErrMin= 1.23D-03
 ErrMax= 1.23D-03  0.00D+00 EMaxC= 1.00D+00 BMatC= 3.96D-04 BMatP= 1.09D-03
 IDIUse=1 WtCom= 1.00D+00 WtEn= 0.00D+00
 Coeff-Com:  0.110D-01-0.918D-02-0.183D+00 0.342D+00 0.958D+00-0.159D+01
 Coeff-Com: -0.263D+01 0.410D+01
 Coeff:      0.110D-01-0.918D-02-0.183D+00 0.342D+00 0.958D+00-0.159D+01
 Coeff:     -0.263D+01 0.410D+01
 Gap=     0.301 Goal=   None    Shift=    0.500
 Gap=     0.092 Goal=   None    Shift=    0.500
 GapD=    0.092 DampG=0.500 DampE=1.000 DampFc=0.5000 IDamp=-1.
 Damping current iteration by 5.00D-01
 RMSDP=1.04D-04 MaxDP=8.61D-03 DE=-4.16D-03 OVMax= 1.00D-02

 Cycle   9  Pass 1  IDiag  1:
 E= -1497.19987008017     Delta-E=       -0.002200970730 Rises=F Damp=T
 DIIS: error= 1.08D-03 at cycle   9 NSaved=   9.
 NSaved= 9 IEnMin= 9 EnMin= -1497.19987008017     IErMin= 9 ErrMin= 1.08D-03
 ErrMax= 1.08D-03  0.00D+00 EMaxC= 1.00D+00 BMatC= 1.74D-04 BMatP= 3.96D-04
 IDIUse=1 WtCom= 1.00D+00 WtEn= 0.00D+00
 Coeff-Com:  0.857D-02 0.810D-02-0.248D-01-0.432D+00 0.914D+00 0.115D+01
 Coeff-Com: -0.270D+01-0.229D+01 0.436D+01
 Coeff:      0.857D-02 0.810D-02-0.248D-01-0.432D+00 0.914D+00 0.115D+01
 Coeff:     -0.270D+01-0.229D+01 0.436D+01
 Gap=     0.301 Goal=   None    Shift=    0.500
 Gap=     0.094 Goal=   None    Shift=    0.500
 GapD=    0.094 DampG=0.500 DampE=1.000 DampFc=0.5000 IDamp=-1.
 Damping current iteration by 5.00D-01
 RMSDP=8.64D-05 MaxDP=8.37D-03 DE=-2.20D-03 OVMax= 9.55D-03

 Cycle  10  Pass 1  IDiag  1:
 E= -1497.20105771773     Delta-E=       -0.001187637562 Rises=F Damp=T
 DIIS: error= 9.63D-04 at cycle  10 NSaved=  10.
 NSaved=10 IEnMin=10 EnMin= -1497.20105771773     IErMin=10 ErrMin= 9.63D-04
 ErrMax= 9.63D-04  0.00D+00 EMaxC= 1.00D+00 BMatC= 9.30D-05 BMatP= 1.74D-04
 IDIUse=1 WtCom= 1.00D+00 WtEn= 0.00D+00
 Coeff-Com: -0.158D-01 0.187D-01 0.121D+00-0.249D+00-0.582D+00 0.731D+00
 Coeff-Com:  0.350D+01-0.478D+01-0.359D+01 0.585D+01
 Coeff:     -0.158D-01 0.187D-01 0.121D+00-0.249D+00-0.582D+00 0.731D+00
 Coeff:      0.350D+01-0.478D+01-0.359D+01 0.585D+01
 Gap=     0.301 Goal=   None    Shift=    0.500
 Gap=     0.095 Goal=   None    Shift=    0.500
 RMSDP=7.75D-05 MaxDP=7.84D-03 DE=-1.19D-03 OVMax= 9.52D-03

 Cycle  11  Pass 1  IDiag  1:
 E= -1497.20247462304     Delta-E=       -0.001416905312 Rises=F Damp=F
 DIIS: error= 7.43D-04 at cycle  11 NSaved=  11.
 NSaved=11 IEnMin=11 EnMin= -1497.20247462304     IErMin=11 ErrMin= 7.43D-04
 ErrMax= 7.43D-04  0.00D+00 EMaxC= 1.00D+00 BMatC= 3.64D-05 BMatP= 9.30D-05
 IDIUse=1 WtCom= 1.00D+00 WtEn= 0.00D+00
 Coeff-Com: -0.133D-01 0.928D-02 0.708D-01 0.592D-01-0.756D+00-0.781D-01
 Coeff-Com:  0.379D+01-0.348D+01-0.176D+01 0.159D+01 0.156D+01
 Coeff:     -0.133D-01 0.928D-02 0.708D-01 0.592D-01-0.756D+00-0.781D-01
 Coeff:      0.379D+01-0.348D+01-0.176D+01 0.159D+01 0.156D+01
 Gap=     0.301 Goal=   None    Shift=    0.500
 Gap=     0.096 Goal=   None    Shift=    0.500
 RMSDP=2.40D-05 MaxDP=2.39D-03 DE=-1.42D-03 OVMax= 7.78D-03

 Cycle  12  Pass 1  IDiag  1:
 E= -1497.20254830612     Delta-E=       -0.000073683080 Rises=F Damp=F
 DIIS: error= 6.44D-04 at cycle  12 NSaved=  12.
 NSaved=12 IEnMin=12 EnMin= -1497.20254830612     IErMin=12 ErrMin= 6.44D-04
 ErrMax= 6.44D-04  0.00D+00 EMaxC= 1.00D+00 BMatC= 2.52D-05 BMatP= 3.64D-05
 IDIUse=1 WtCom= 1.00D+00 WtEn= 0.00D+00
 Coeff-Com:  0.696D-02-0.112D-01-0.505D-01 0.189D+00 0.306D-01-0.372D+00
 Coeff-Com: -0.689D+00 0.969D+00 0.258D+01-0.345D+01-0.189D+01 0.369D+01
 Coeff:      0.696D-02-0.112D-01-0.505D-01 0.189D+00 0.306D-01-0.372D+00
 Coeff:     -0.689D+00 0.969D+00 0.258D+01-0.345D+01-0.189D+01 0.369D+01
 Gap=     0.300 Goal=   None    Shift=    0.500
 Gap=     0.097 Goal=   None    Shift=    0.500
 RMSDP=2.45D-05 MaxDP=2.60D-03 DE=-7.37D-05 OVMax= 7.55D-03

 Cycle  13  Pass 1  IDiag  1:
 E= -1497.20260300377     Delta-E=       -0.000054697646 Rises=F Damp=F
 DIIS: error= 5.59D-04 at cycle  13 NSaved=  13.
 NSaved=13 IEnMin=13 EnMin= -1497.20260300377     IErMin=13 ErrMin= 5.59D-04
 ErrMax= 5.59D-04  0.00D+00 EMaxC= 1.00D+00 BMatC= 2.09D-05 BMatP= 2.52D-05
 IDIUse=1 WtCom= 1.00D+00 WtEn= 0.00D+00
 Coeff-Com:  0.810D-02-0.300D-02-0.527D-01-0.113D-01 0.364D+00 0.172D+00
 Coeff-Com: -0.196D+01 0.797D+00 0.248D+01-0.127D+01-0.344D+01 0.228D+01
 Coeff-Com:  0.164D+01
 Coeff:      0.810D-02-0.300D-02-0.527D-01-0.113D-01 0.364D+00 0.172D+00
 Coeff:     -0.196D+01 0.797D+00 0.248D+01-0.127D+01-0.344D+01 0.228D+01
 Coeff:      0.164D+01
 Gap=     0.300 Goal=   None    Shift=    0.500
 Gap=     0.097 Goal=   None    Shift=    0.500
 RMSDP=1.70D-05 MaxDP=1.79D-03 DE=-5.47D-05 OVMax= 6.18D-03

 Cycle  14  Pass 1  IDiag  1:
 E= -1497.20263731836     Delta-E=       -0.000034314595 Rises=F Damp=F
 DIIS: error= 4.80D-04 at cycle  14 NSaved=  14.
 NSaved=14 IEnMin=14 EnMin= -1497.20263731836     IErMin=14 ErrMin= 4.80D-04
 ErrMax= 4.80D-04  0.00D+00 EMaxC= 1.00D+00 BMatC= 1.51D-05 BMatP= 2.09D-05
 IDIUse=1 WtCom= 1.00D+00 WtEn= 0.00D+00
 Coeff-Com: -0.893D-03 0.963D-02 0.107D-01-0.200D+00 0.222D+00 0.507D+00
 Coeff-Com: -0.363D+00-0.144D+01-0.127D+00 0.289D+01-0.217D+01-0.166D+00
 Coeff-Com: -0.891D+00 0.272D+01
 Coeff:     -0.893D-03 0.963D-02 0.107D-01-0.200D+00 0.222D+00 0.507D+00
 Coeff:     -0.363D+00-0.144D+01-0.127D+00 0.289D+01-0.217D+01-0.166D+00
 Coeff:     -0.891D+00 0.272D+01
 Gap=     0.300 Goal=   None    Shift=    0.500
 Gap=     0.098 Goal=   None    Shift=    0.500
 RMSDP=1.32D-05 MaxDP=1.38D-03 DE=-3.43D-05 OVMax= 5.24D-03

 Cycle  15  Pass 1  IDiag  1:
 E= -1497.20266028982     Delta-E=       -0.000022971462 Rises=F Damp=F
 DIIS: error= 4.08D-04 at cycle  15 NSaved=  15.
 NSaved=15 IEnMin=15 EnMin= -1497.20266028982     IErMin=15 ErrMin= 4.08D-04
 ErrMax= 4.08D-04  0.00D+00 EMaxC= 1.00D+00 BMatC= 1.12D-05 BMatP= 1.51D-05
 IDIUse=1 WtCom= 1.00D+00 WtEn= 0.00D+00
 Coeff-Com: -0.630D-02 0.445D-02 0.305D-01 0.156D-01-0.273D+00-0.190D+00
 Coeff-Com:  0.210D+01-0.218D+01-0.856D+00 0.138D+01 0.125D+01-0.339D+00
 Coeff-Com: -0.278D+01-0.336D+00 0.317D+01
 Coeff:     -0.630D-02 0.445D-02 0.305D-01 0.156D-01-0.273D+00-0.190D+00
 Coeff:      0.210D+01-0.218D+01-0.856D+00 0.138D+01 0.125D+01-0.339D+00
 Coeff:     -0.278D+01-0.336D+00 0.317D+01
 Gap=     0.300 Goal=   None    Shift=    0.500
 Gap=     0.098 Goal=   None    Shift=    0.500
 RMSDP=1.21D-05 MaxDP=1.31D-03 DE=-2.30D-05 OVMax= 4.67D-03

 Cycle  16  Pass 1  IDiag  1:
 E= -1497.20267739629     Delta-E=       -0.000017106469 Rises=F Damp=F
 DIIS: error= 3.46D-04 at cycle  16 NSaved=  16.
 NSaved=16 IEnMin=16 EnMin= -1497.20267739629     IErMin=16 ErrMin= 3.46D-04
 ErrMax= 3.46D-04  0.00D+00 EMaxC= 1.00D+00 BMatC= 8.34D-06 BMatP= 1.12D-05
 IDIUse=1 WtCom= 1.00D+00 WtEn= 0.00D+00
 Coeff-Com: -0.605D-03 0.173D-02-0.247D-01 0.946D-01-0.626D-01-0.200D+00
 Coeff-Com:  0.353D+00-0.502D+00 0.131D+01-0.136D+01-0.583D-01 0.109D+01
 Coeff-Com: -0.309D+00-0.104D+01-0.111D+01 0.282D+01
 Coeff:     -0.605D-03 0.173D-02-0.247D-01 0.946D-01-0.626D-01-0.200D+00
 Coeff:      0.353D+00-0.502D+00 0.131D+01-0.136D+01-0.583D-01 0.109D+01
 Coeff:     -0.309D+00-0.104D+01-0.111D+01 0.282D+01
 Gap=     0.300 Goal=   None    Shift=    0.500
 Gap=     0.099 Goal=   None    Shift=    0.500
 RMSDP=9.39D-06 MaxDP=9.64D-04 DE=-1.71D-05 OVMax= 3.90D-03

 Cycle  17  Pass 1  IDiag  1:
 E= -1497.20268971288     Delta-E=       -0.000012316592 Rises=F Damp=F
 DIIS: error= 2.92D-04 at cycle  17 NSaved=  17.
 NSaved=17 IEnMin=17 EnMin= -1497.20268971288     IErMin=17 ErrMin= 2.92D-04
 ErrMax= 2.92D-04  0.00D+00 EMaxC= 1.00D+00 BMatC= 6.05D-06 BMatP= 8.34D-06
 IDIUse=1 WtCom= 1.00D+00 WtEn= 0.00D+00
 Coeff-Com:  0.204D-02 0.107D-02-0.264D-01 0.146D-01 0.118D+00 0.851D-01
 Coeff-Com: -0.817D+00 0.281D+00 0.145D+01-0.110D+01-0.123D+01 0.117D+01
 Coeff-Com:  0.932D+00-0.942D-01-0.196D+01-0.582D+00 0.275D+01
 Coeff:      0.204D-02 0.107D-02-0.264D-01 0.146D-01 0.118D+00 0.851D-01
 Coeff:     -0.817D+00 0.281D+00 0.145D+01-0.110D+01-0.123D+01 0.117D+01
 Coeff:      0.932D+00-0.942D-01-0.196D+01-0.582D+00 0.275D+01
 Gap=     0.300 Goal=   None    Shift=    0.500
 Gap=     0.099 Goal=   None    Shift=    0.500
 RMSDP=7.88D-06 MaxDP=7.96D-04 DE=-1.23D-05 OVMax= 3.33D-03

 Cycle  18  Pass 1  IDiag  1:
 E= -1497.20269918650     Delta-E=       -0.000009473620 Rises=F Damp=F
 DIIS: error= 2.47D-04 at cycle  18 NSaved=  18.
 NSaved=18 IEnMin=18 EnMin= -1497.20269918650     IErMin=18 ErrMin= 2.47D-04
 ErrMax= 2.47D-04  0.00D+00 EMaxC= 1.00D+00 BMatC= 4.42D-06 BMatP= 6.05D-06
 IDIUse=1 WtCom= 1.00D+00 WtEn= 0.00D+00
 Coeff-Com: -0.211D-02 0.186D-02 0.398D-01-0.124D+00-0.323D-01 0.271D+00
 Coeff-Com:  0.477D+00-0.936D+00-0.141D+01 0.248D+01-0.298D+00-0.774D+00
 Coeff-Com: -0.113D+01 0.169D+01 0.305D+01-0.590D+01-0.988D-01 0.370D+01
 Coeff:     -0.211D-02 0.186D-02 0.398D-01-0.124D+00-0.323D-01 0.271D+00
 Coeff:      0.477D+00-0.936D+00-0.141D+01 0.248D+01-0.298D+00-0.774D+00
 Coeff:     -0.113D+01 0.169D+01 0.305D+01-0.590D+01-0.988D-01 0.370D+01
 Gap=     0.299 Goal=   None    Shift=    0.500
 Gap=     0.099 Goal=   None    Shift=    0.500
 RMSDP=7.89D-06 MaxDP=8.02D-04 DE=-9.47D-06 OVMax= 3.17D-03

 Cycle  19  Pass 1  IDiag  1:
 E= -1497.20270736072     Delta-E=       -0.000008174221 Rises=F Damp=F
 DIIS: error= 2.09D-04 at cycle  19 NSaved=  19.
 NSaved=19 IEnMin=19 EnMin= -1497.20270736072     IErMin=19 ErrMin= 2.09D-04
 ErrMax= 2.09D-04  0.00D+00 EMaxC= 1.00D+00 BMatC= 3.48D-06 BMatP= 4.42D-06
 IDIUse=1 WtCom= 1.00D+00 WtEn= 0.00D+00
 Coeff-Com: -0.266D-02 0.284D-02 0.259D-01-0.581D-01-0.960D-01 0.965D-01
 Coeff-Com:  0.902D+00-0.127D+01-0.102D+01 0.196D+01-0.995D-01-0.478D+00
 Coeff-Com: -0.131D+01 0.122D+01 0.262D+01-0.349D+01-0.875D+00 0.122D+01
 Coeff-Com:  0.166D+01
 Coeff:     -0.266D-02 0.284D-02 0.259D-01-0.581D-01-0.960D-01 0.965D-01
 Coeff:      0.902D+00-0.127D+01-0.102D+01 0.196D+01-0.995D-01-0.478D+00
 Coeff:     -0.131D+01 0.122D+01 0.262D+01-0.349D+01-0.875D+00 0.122D+01
 Coeff:      0.166D+01
 Gap=     0.299 Goal=   None    Shift=    0.500
 Gap=     0.099 Goal=   None    Shift=    0.500
 RMSDP=5.00D-06 MaxDP=4.73D-04 DE=-8.17D-06 OVMax= 2.50D-03

 Cycle  20  Pass 1  IDiag  1:
 E= -1497.20271266972     Delta-E=       -0.000005308997 Rises=F Damp=F
 DIIS: error= 1.74D-04 at cycle  20 NSaved=  20.
 NSaved=20 IEnMin=20 EnMin= -1497.20271266972     IErMin=20 ErrMin= 1.74D-04
 ErrMax= 1.74D-04  0.00D+00 EMaxC= 1.00D+00 BMatC= 2.30D-06 BMatP= 3.48D-06
 IDIUse=1 WtCom= 1.00D+00 WtEn= 0.00D+00
 Coeff-Com: -0.341D-03-0.242D-03 0.864D-03 0.155D-01-0.322D-01-0.764D-01
 Coeff-Com:  0.304D+00-0.310D+00 0.872D-01-0.343D-01 0.874D-01 0.960D-01
 Coeff-Com: -0.284D+00-0.388D-01-0.450D-02 0.682D+00-0.188D+00-0.451D+00
 Coeff-Com: -0.255D+01 0.370D+01
 Coeff:     -0.341D-03-0.242D-03 0.864D-03 0.155D-01-0.322D-01-0.764D-01
 Coeff:      0.304D+00-0.310D+00 0.872D-01-0.343D-01 0.874D-01 0.960D-01
 Coeff:     -0.284D+00-0.388D-01-0.450D-02 0.682D+00-0.188D+00-0.451D+00
 Coeff:     -0.255D+01 0.370D+01
 Gap=     0.299 Goal=   None    Shift=    0.500
 Gap=     0.100 Goal=   None    Shift=    0.500
 RMSDP=5.03D-06 MaxDP=5.10D-04 DE=-5.31D-06 OVMax= 2.28D-03

 Cycle  21  Pass 1  IDiag  1:
 E= -1497.20271662776     Delta-E=       -0.000003958041 Rises=F Damp=F
 DIIS: error= 1.46D-04 at cycle  21 NSaved=  20.
 NSaved=20 IEnMin=20 EnMin= -1497.20271662776     IErMin=20 ErrMin= 1.46D-04
 ErrMax= 1.46D-04  0.00D+00 EMaxC= 1.00D+00 BMatC= 1.84D-06 BMatP= 2.30D-06
 IDIUse=1 WtCom= 1.00D+00 WtEn= 0.00D+00
 Coeff-Com: -0.712D-03 0.623D-02-0.199D-01 0.298D-01 0.482D-01-0.285D+00
 Coeff-Com:  0.284D+00 0.227D+00-0.378D+00-0.560D-01 0.126D+00 0.287D+00
 Coeff-Com: -0.140D+00-0.619D+00 0.848D-01 0.937D+00 0.120D+01-0.512D+01
 Coeff-Com:  0.258D+01 0.181D+01
 Coeff:     -0.712D-03 0.623D-02-0.199D-01 0.298D-01 0.482D-01-0.285D+00
 Coeff:      0.284D+00 0.227D+00-0.378D+00-0.560D-01 0.126D+00 0.287D+00
 Coeff:     -0.140D+00-0.619D+00 0.848D-01 0.937D+00 0.120D+01-0.512D+01
 Coeff:      0.258D+01 0.181D+01
 Gap=     0.299 Goal=   None    Shift=    0.500
 Gap=     0.100 Goal=   None    Shift=    0.500
 RMSDP=4.01D-06 MaxDP=3.92D-04 DE=-3.96D-06 OVMax= 1.93D-03

 Cycle  22  Pass 1  IDiag  1:
 E= -1497.20271922708     Delta-E=       -0.000002599318 Rises=F Damp=F
 DIIS: error= 1.21D-04 at cycle  22 NSaved=  20.
 NSaved=20 IEnMin=20 EnMin= -1497.20271922708     IErMin=20 ErrMin= 1.21D-04
 ErrMax= 1.21D-04  0.00D+00 EMaxC= 1.00D+00 BMatC= 1.36D-06 BMatP= 1.84D-06
 IDIUse=1 WtCom= 1.00D+00 WtEn= 0.00D+00
 Coeff-Com:  0.530D-02-0.371D-01 0.470D-01 0.136D+00-0.337D+00 0.830D-01
 Coeff-Com:  0.103D+00 0.161D+00-0.463D+00 0.165D+00 0.137D+00 0.362D+00
 Coeff-Com:  0.319D+00-0.221D+01 0.110D+01 0.235D+01-0.248D+01-0.721D+00
 Coeff-Com: -0.165D+00 0.245D+01
 Coeff:      0.530D-02-0.371D-01 0.470D-01 0.136D+00-0.337D+00 0.830D-01
 Coeff:      0.103D+00 0.161D+00-0.463D+00 0.165D+00 0.137D+00 0.362D+00
 Coeff:      0.319D+00-0.221D+01 0.110D+01 0.235D+01-0.248D+01-0.721D+00
 Coeff:     -0.165D+00 0.245D+01
 Gap=     0.299 Goal=   None    Shift=    0.500
 Gap=     0.100 Goal=   None    Shift=    0.500
 RMSDP=3.22D-06 MaxDP=3.13D-04 DE=-2.60D-06 OVMax= 1.63D-03

 Cycle  23  Pass 1  IDiag  1:
 E= -1497.20272091284     Delta-E=       -0.000001685763 Rises=F Damp=F
 DIIS: error= 9.72D-05 at cycle  23 NSaved=  20.
 NSaved=20 IEnMin=20 EnMin= -1497.20272091284     IErMin=20 ErrMin= 9.72D-05
 ErrMax= 9.72D-05  0.00D+00 EMaxC= 1.00D+00 BMatC= 9.80D-07 BMatP= 1.36D-06
 IDIUse=1 WtCom= 1.00D+00 WtEn= 0.00D+00
 Coeff-Com: -0.764D-02 0.131D-01 0.519D-01-0.849D-01-0.126D+00 0.122D+00
 Coeff-Com:  0.186D+00-0.434D+00 0.245D+00-0.883D-01 0.368D+00 0.414D+00
 Coeff-Com: -0.171D+01 0.619D+00 0.145D+01-0.614D+00-0.104D+01-0.385D+00
 Coeff-Com: -0.370D-01 0.206D+01
 Coeff:     -0.764D-02 0.131D-01 0.519D-01-0.849D-01-0.126D+00 0.122D+00
 Coeff:      0.186D+00-0.434D+00 0.245D+00-0.883D-01 0.368D+00 0.414D+00
 Coeff:     -0.171D+01 0.619D+00 0.145D+01-0.614D+00-0.104D+01-0.385D+00
 Coeff:     -0.370D-01 0.206D+01
 Gap=     0.299 Goal=   None    Shift=    0.500
 Gap=     0.100 Goal=   None    Shift=    0.500
 RMSDP=2.21D-06 MaxDP=1.94D-04 DE=-1.69D-06 OVMax= 1.29D-03

 Cycle  24  Pass 1  IDiag  1:
 E= -1497.20272194346     Delta-E=       -0.000001030621 Rises=F Damp=F
 DIIS: error= 7.74D-05 at cycle  24 NSaved=  20.
 NSaved=20 IEnMin=20 EnMin= -1497.20272194346     IErMin=20 ErrMin= 7.74D-05
 ErrMax= 7.74D-05  0.00D+00 EMaxC= 1.00D+00 BMatC= 6.45D-07 BMatP= 9.80D-07
 IDIUse=1 WtCom= 1.00D+00 WtEn= 0.00D+00
 Coeff-Com:  0.213D-02-0.837D-03 0.617D-02-0.390D-01-0.151D-01 0.959D-01
 Coeff-Com: -0.660D-01 0.280D-01-0.160D+00 0.151D+00-0.146D-01 0.496D-01
 Coeff-Com:  0.687D-02 0.125D+00-0.624D+00 0.826D+00 0.519D+00-0.191D+01
 Coeff-Com: -0.132D+01 0.334D+01
 Coeff:      0.213D-02-0.837D-03 0.617D-02-0.390D-01-0.151D-01 0.959D-01
 Coeff:     -0.660D-01 0.280D-01-0.160D+00 0.151D+00-0.146D-01 0.496D-01
 Coeff:      0.687D-02 0.125D+00-0.624D+00 0.826D+00 0.519D+00-0.191D+01
 Coeff:     -0.132D+01 0.334D+01
 Gap=     0.299 Goal=   None    Shift=    0.500
 Gap=     0.100 Goal=   None    Shift=    0.500
 RMSDP=1.62D-06 MaxDP=1.21D-04 DE=-1.03D-06 OVMax= 1.01D-03

 Cycle  25  Pass 1  IDiag  1:
 E= -1497.20272257618     Delta-E=       -0.000000632712 Rises=F Damp=F
 DIIS: error= 6.09D-05 at cycle  25 NSaved=  20.
 NSaved=20 IEnMin=20 EnMin= -1497.20272257618     IErMin=20 ErrMin= 6.09D-05
 ErrMax= 6.09D-05  0.00D+00 EMaxC= 1.00D+00 BMatC= 4.39D-07 BMatP= 6.45D-07
 IDIUse=1 WtCom= 1.00D+00 WtEn= 0.00D+00
 Coeff-Com: -0.460D-02 0.557D-02 0.238D-01-0.767D-02-0.509D-01 0.685D-01
 Coeff-Com: -0.229D-01-0.718D-02-0.573D-01-0.187D+00 0.377D+00 0.324D-01
 Coeff-Com:  0.153D-01-0.120D+01 0.133D+01 0.645D+00-0.415D+00-0.259D+01
 Coeff-Com:  0.816D+00 0.223D+01
 Coeff:     -0.460D-02 0.557D-02 0.238D-01-0.767D-02-0.509D-01 0.685D-01
 Coeff:     -0.229D-01-0.718D-02-0.573D-01-0.187D+00 0.377D+00 0.324D-01
 Coeff:      0.153D-01-0.120D+01 0.133D+01 0.645D+00-0.415D+00-0.259D+01
 Coeff:      0.816D+00 0.223D+01
 Gap=     0.299 Goal=   None    Shift=    0.500
 Gap=     0.100 Goal=   None    Shift=    0.500
 RMSDP=1.13D-06 MaxDP=7.72D-05 DE=-6.33D-07 OVMax= 7.94D-04

 Cycle  26  Pass 1  IDiag  1:
 E= -1497.20272295815     Delta-E=       -0.000000381970 Rises=F Damp=F
 DIIS: error= 4.66D-05 at cycle  26 NSaved=  20.
 NSaved=20 IEnMin=20 EnMin= -1497.20272295815     IErMin=20 ErrMin= 4.66D-05
 ErrMax= 4.66D-05  0.00D+00 EMaxC= 1.00D+00 BMatC= 2.63D-07 BMatP= 4.39D-07
 IDIUse=1 WtCom= 1.00D+00 WtEn= 0.00D+00
 Coeff-Com:  0.127D-01-0.780D-01 0.118D+00-0.301D-01-0.750D-01 0.594D-01
 Coeff-Com:  0.266D-01-0.652D-01-0.104D+00 0.763D-01 0.154D+00 0.106D+00
 Coeff-Com: -0.578D+00 0.257D+00 0.933D-01 0.679D+00-0.614D+00-0.684D+00
 Coeff-Com: -0.101D+01 0.265D+01
 Coeff:      0.127D-01-0.780D-01 0.118D+00-0.301D-01-0.750D-01 0.594D-01
 Coeff:      0.266D-01-0.652D-01-0.104D+00 0.763D-01 0.154D+00 0.106D+00
 Coeff:     -0.578D+00 0.257D+00 0.933D-01 0.679D+00-0.614D+00-0.684D+00
 Coeff:     -0.101D+01 0.265D+01
 Gap=     0.299 Goal=   None    Shift=    0.500
 Gap=     0.100 Goal=   None    Shift=    0.500
 RMSDP=7.81D-07 MaxDP=4.30D-05 DE=-3.82D-07 OVMax= 6.12D-04

 SCF Done:  E(ULC-wHPBE) =  -1497.20272296     A.U. after   26 cycles
            NFock= 26  Conv=0.78D-06     -V/T= 2.0053
 <Sx>= 0.0000 <Sy>= 0.0000 <Sz>= 0.5000 <S**2>= 0.8012 S= 0.5253
 <L.S>= 0.000000000000E+00
 KE= 1.489297238338D+03 PE=-1.050673060201D+04 EE= 3.991465100869D+03
 Annihilation of the first spin contaminant:
 S**2 before annihilation     0.8012,   after     0.7519
 Leave Link  502 at Sun Jan 17 23:08:50 2021, MaxMem=  4026531840 cpu:           17175.9 elap:            2172.0
 (Enter /opt/ohpc/pub/libs/gaussian/g16-A.03/sandybridge/g16/l508.exe)
 QCSCF skips out because SCF is already converged.
 Leave Link  508 at Sun Jan 17 23:08:50 2021, MaxMem=  4026531840 cpu:               0.0 elap:               0.0
 (Enter /opt/ohpc/pub/libs/gaussian/g16-A.03/sandybridge/g16/l601.exe)
 Copying SCF densities to generalized density rwf, IOpCl= 1 IROHF=0.

 **********************************************************************

            Population analysis using the SCF density.

 **********************************************************************

 Orbital symmetries:
 Alpha Orbitals:
       Occupied  (A) (A) (A) (A) (A) (A) (A) (A) (A) (A) (A) (A)
                 (A) (A) (A) (A) (A) (A) (A) (A) (A) (A) (A) (A)
                 (A) (A) (A) (A) (A) (A) (A) (A) (A) (A) (A) (A)
                 (A) (A) (A) (A) (A) (A) (A) (A) (A) (A) (A) (A)
                 (A) (A) (A) (A) (A) (A) (A) (A) (A) (A) (A) (A)
                 (A) (A) (A) (A) (A) (A) (A) (A) (A) (A) (A) (A)
                 (A) (A) (A) (A) (A) (A) (A) (A) (A) (A) (A) (A)
                 (A) (A) (A) (A) (A) (A) (A) (A) (A) (A) (A) (A)
                 (A) (A) (A) (A) (A) (A) (A) (A) (A) (A) (A) (A)
                 (A) (A) (A) (A) (A) (A) (A) (A) (A) (A) (A) (A)
                 (A) (A) (A) (A) (A) (A) (A) (A) (A)
       Virtual   (A) (A) (A) (A) (A) (A) (A) (A) (A) (A) (A) (A)
                 (A) (A) (A) (A) (A) (A) (A) (A) (A) (A) (A) (A)
                 (A) (A) (A) (A) (A) (A) (A) (A) (A) (A) (A) (A)
                 (A) (A) (A) (A) (A) (A) (A) (A) (A) (A) (A) (A)
                 (A) (A) (A) (A) (A) (A) (A) (A) (A) (A) (A) (A)
                 (A) (A) (A) (A) (A) (A) (A) (A) (A) (A) (A) (A)
                 (A) (A) (A) (A) (A) (A) (A) (A) (A) (A) (A) (A)
                 (A) (A) (A) (A) (A) (A) (A) (A) (A) (A) (A) (A)
                 (A) (A) (A) (A) (A) (A) (A) (A) (A) (A) (A) (A)
                 (A) (A) (A) (A) (A) (A) (A) (A) (A) (A) (A) (A)
                 (A) (A) (A) (A) (A) (A) (A) (A) (A) (A) (A) (A)
                 (A) (A) (A) (A) (A) (A) (A) (A) (A) (A) (A) (A)
                 (A) (A) (A) (A) (A) (A) (A) (A) (A) (A) (A) (A)
                 (A) (A) (A) (A) (A) (A) (A) (A) (A) (A) (A) (A)
                 (A) (A) (A) (A) (A) (A) (A) (A) (A) (A) (A) (A)
                 (A) (A) (A) (A) (A) (A) (A) (A) (A) (A) (A) (A)
                 (A) (A) (A) (A) (A) (A) (A) (A) (A) (A) (A) (A)
                 (A) (A) (A) (A) (A) (A) (A) (A) (A) (A) (A) (A)
                 (A) (A) (A) (A) (A) (A) (A) (A) (A) (A) (A) (A)
                 (A) (A) (A) (A) (A) (A) (A) (A) (A) (A) (A) (A)
                 (A) (A) (A) (A) (A) (A) (A) (A) (A) (A) (A) (A)
                 (A) (A) (A) (A) (A) (A) (A) (A) (A) (A) (A) (A)
                 (A) (A) (A) (A) (A) (A) (A) (A) (A) (A) (A) (A)
                 (A) (A) (A) (A) (A) (A) (A) (A) (A) (A) (A) (A)
                 (A) (A) (A) (A) (A) (A) (A) (A) (A) (A) (A) (A)
                 (A) (A) (A) (A) (A) (A) (A) (A) (A) (A) (A) (A)
                 (A) (A) (A) (A) (A) (A) (A) (A) (A) (A) (A) (A)
                 (A) (A) (A) (A) (A) (A) (A) (A) (A) (A) (A) (A)
                 (A) (A) (A) (A) (A) (A) (A) (A) (A) (A) (A) (A)
                 (A) (A) (A) (A) (A) (A) (A) (A) (A) (A) (A) (A)
                 (A) (A) (A) (A) (A) (A) (A) (A) (A) (A) (A) (A)
                 (A) (A) (A) (A) (A) (A) (A) (A) (A) (A) (A) (A)
                 (A) (A) (A) (A) (A) (A) (A) (A) (A) (A) (A) (A)
                 (A) (A) (A) (A) (A) (A) (A) (A) (A) (A) (A) (A)
                 (A) (A) (A) (A) (A) (A) (A) (A) (A) (A) (A) (A)
                 (A) (A) (A) (A) (A) (A) (A) (A) (A) (A) (A) (A)
                 (A) (A) (A) (A) (A) (A) (A) (A) (A) (A) (A) (A)
                 (A) (A) (A) (A) (A) (A) (A) (A) (A) (A) (A) (A)
                 (A) (A) (A) (A) (A) (A) (A) (A) (A) (A) (A) (A)
                 (A) (A) (A) (A) (A) (A) (A) (A) (A) (A) (A) (A)
                 (A) (A) (A) (A) (A) (A) (A) (A) (A) (A) (A) (A)
                 (A) (A) (A) (A) (A) (A) (A) (A) (A) (A) (A) (A)
                 (A) (A) (A) (A) (A) (A) (A) (A) (A) (A) (A) (A)
                 (A) (A) (A) (A) (A) (A) (A) (A) (A) (A) (A) (A)
                 (A) (A) (A) (A) (A) (A) (A) (A) (A) (A) (A) (A)
                 (A) (A) (A) (A) (A) (A) (A) (A) (A) (A) (A) (A)
                 (A) (A) (A) (A) (A) (A) (A) (A) (A) (A) (A) (A)
                 (A) (A) (A) (A) (A) (A) (A) (A) (A) (A) (A) (A)
                 (A) (A) (A) (A) (A) (A) (A) (A) (A) (A) (A) (A)
                 (A) (A) (A) (A) (A) (A) (A) (A) (A) (A) (A) (A)
                 (A) (A) (A) (A) (A) (A) (A) (A) (A) (A) (A) (A)
                 (A) (A) (A) (A) (A) (A) (A) (A) (A) (A) (A) (A)
                 (A) (A) (A) (A) (A) (A) (A) (A) (A) (A) (A) (A)
                 (A) (A) (A) (A) (A) (A) (A) (A) (A) (A) (A) (A)
                 (A) (A) (A) (A) (A) (A) (A) (A) (A) (A) (A) (A)
                 (A) (A) (A) (A) (A) (A) (A) (A) (A) (A) (A) (A)
                 (A) (A) (A) (A) (A) (A) (A) (A) (A) (A) (A) (A)
                 (A) (A) (A) (A) (A) (A) (A) (A) (A) (A) (A) (A)
                 (A) (A) (A) (A) (A) (A) (A) (A) (A) (A) (A) (A)
                 (A) (A) (A) (A) (A) (A) (A) (A) (A) (A) (A) (A)
                 (A) (A) (A) (A) (A) (A) (A) (A) (A) (A) (A) (A)
                 (A) (A) (A) (A) (A) (A) (A) (A) (A) (A) (A) (A)
                 (A) (A) (A) (A) (A) (A) (A) (A) (A) (A) (A) (A)
                 (A) (A) (A) (A) (A)
 Beta  Orbitals:
       Occupied  (A) (A) (A) (A) (A) (A) (A) (A) (A) (A) (A) (A)
                 (A) (A) (A) (A) (A) (A) (A) (A) (A) (A) (A) (A)
                 (A) (A) (A) (A) (A) (A) (A) (A) (A) (A) (A) (A)
                 (A) (A) (A) (A) (A) (A) (A) (A) (A) (A) (A) (A)
                 (A) (A) (A) (A) (A) (A) (A) (A) (A) (A) (A) (A)
                 (A) (A) (A) (A) (A) (A) (A) (A) (A) (A) (A) (A)
                 (A) (A) (A) (A) (A) (A) (A) (A) (A) (A) (A) (A)
                 (A) (A) (A) (A) (A) (A) (A) (A) (A) (A) (A) (A)
                 (A) (A) (A) (A) (A) (A) (A) (A) (A) (A) (A) (A)
                 (A) (A) (A) (A) (A) (A) (A) (A) (A) (A) (A) (A)
                 (A) (A) (A) (A) (A) (A) (A) (A)
       Virtual   (A) (A) (A) (A) (A) (A) (A) (A) (A) (A) (A) (A)
                 (A) (A) (A) (A) (A) (A) (A) (A) (A) (A) (A) (A)
                 (A) (A) (A) (A) (A) (A) (A) (A) (A) (A) (A) (A)
                 (A) (A) (A) (A) (A) (A) (A) (A) (A) (A) (A) (A)
                 (A) (A) (A) (A) (A) (A) (A) (A) (A) (A) (A) (A)
                 (A) (A) (A) (A) (A) (A) (A) (A) (A) (A) (A) (A)
                 (A) (A) (A) (A) (A) (A) (A) (A) (A) (A) (A) (A)
                 (A) (A) (A) (A) (A) (A) (A) (A) (A) (A) (A) (A)
                 (A) (A) (A) (A) (A) (A) (A) (A) (A) (A) (A) (A)
                 (A) (A) (A) (A) (A) (A) (A) (A) (A) (A) (A) (A)
                 (A) (A) (A) (A) (A) (A) (A) (A) (A) (A) (A) (A)
                 (A) (A) (A) (A) (A) (A) (A) (A) (A) (A) (A) (A)
                 (A) (A) (A) (A) (A) (A) (A) (A) (A) (A) (A) (A)
                 (A) (A) (A) (A) (A) (A) (A) (A) (A) (A) (A) (A)
                 (A) (A) (A) (A) (A) (A) (A) (A) (A) (A) (A) (A)
                 (A) (A) (A) (A) (A) (A) (A) (A) (A) (A) (A) (A)
                 (A) (A) (A) (A) (A) (A) (A) (A) (A) (A) (A) (A)
                 (A) (A) (A) (A) (A) (A) (A) (A) (A) (A) (A) (A)
                 (A) (A) (A) (A) (A) (A) (A) (A) (A) (A) (A) (A)
                 (A) (A) (A) (A) (A) (A) (A) (A) (A) (A) (A) (A)
                 (A) (A) (A) (A) (A) (A) (A) (A) (A) (A) (A) (A)
                 (A) (A) (A) (A) (A) (A) (A) (A) (A) (A) (A) (A)
                 (A) (A) (A) (A) (A) (A) (A) (A) (A) (A) (A) (A)
                 (A) (A) (A) (A) (A) (A) (A) (A) (A) (A) (A) (A)
                 (A) (A) (A) (A) (A) (A) (A) (A) (A) (A) (A) (A)
                 (A) (A) (A) (A) (A) (A) (A) (A) (A) (A) (A) (A)
                 (A) (A) (A) (A) (A) (A) (A) (A) (A) (A) (A) (A)
                 (A) (A) (A) (A) (A) (A) (A) (A) (A) (A) (A) (A)
                 (A) (A) (A) (A) (A) (A) (A) (A) (A) (A) (A) (A)
                 (A) (A) (A) (A) (A) (A) (A) (A) (A) (A) (A) (A)
                 (A) (A) (A) (A) (A) (A) (A) (A) (A) (A) (A) (A)
                 (A) (A) (A) (A) (A) (A) (A) (A) (A) (A) (A) (A)
                 (A) (A) (A) (A) (A) (A) (A) (A) (A) (A) (A) (A)
                 (A) (A) (A) (A) (A) (A) (A) (A) (A) (A) (A) (A)
                 (A) (A) (A) (A) (A) (A) (A) (A) (A) (A) (A) (A)
                 (A) (A) (A) (A) (A) (A) (A) (A) (A) (A) (A) (A)
                 (A) (A) (A) (A) (A) (A) (A) (A) (A) (A) (A) (A)
                 (A) (A) (A) (A) (A) (A) (A) (A) (A) (A) (A) (A)
                 (A) (A) (A) (A) (A) (A) (A) (A) (A) (A) (A) (A)
                 (A) (A) (A) (A) (A) (A) (A) (A) (A) (A) (A) (A)
                 (A) (A) (A) (A) (A) (A) (A) (A) (A) (A) (A) (A)
                 (A) (A) (A) (A) (A) (A) (A) (A) (A) (A) (A) (A)
                 (A) (A) (A) (A) (A) (A) (A) (A) (A) (A) (A) (A)
                 (A) (A) (A) (A) (A) (A) (A) (A) (A) (A) (A) (A)
                 (A) (A) (A) (A) (A) (A) (A) (A) (A) (A) (A) (A)
                 (A) (A) (A) (A) (A) (A) (A) (A) (A) (A) (A) (A)
                 (A) (A) (A) (A) (A) (A) (A) (A) (A) (A) (A) (A)
                 (A) (A) (A) (A) (A) (A) (A) (A) (A) (A) (A) (A)
                 (A) (A) (A) (A) (A) (A) (A) (A) (A) (A) (A) (A)
                 (A) (A) (A) (A) (A) (A) (A) (A) (A) (A) (A) (A)
                 (A) (A) (A) (A) (A) (A) (A) (A) (A) (A) (A) (A)
                 (A) (A) (A) (A) (A) (A) (A) (A) (A) (A) (A) (A)
                 (A) (A) (A) (A) (A) (A) (A) (A) (A) (A) (A) (A)
                 (A) (A) (A) (A) (A) (A) (A) (A) (A) (A) (A) (A)
                 (A) (A) (A) (A) (A) (A) (A) (A) (A) (A) (A) (A)
                 (A) (A) (A) (A) (A) (A) (A) (A) (A) (A) (A) (A)
                 (A) (A) (A) (A) (A) (A) (A) (A) (A) (A) (A) (A)
                 (A) (A) (A) (A) (A) (A) (A) (A) (A) (A) (A) (A)
                 (A) (A) (A) (A) (A) (A) (A) (A) (A) (A) (A) (A)
                 (A) (A) (A) (A) (A) (A) (A) (A) (A) (A) (A) (A)
                 (A) (A) (A) (A) (A) (A) (A) (A) (A) (A) (A) (A)
                 (A) (A) (A) (A) (A) (A) (A) (A) (A) (A) (A) (A)
                 (A) (A) (A) (A) (A) (A) (A) (A) (A) (A) (A) (A)
                 (A) (A) (A) (A) (A) (A)
 The electronic state is 2-A.
 Alpha  occ. eigenvalues --  -14.33699 -14.33691 -10.23828 -10.23821 -10.21508
 Alpha  occ. eigenvalues --  -10.21506 -10.21502 -10.21499 -10.20385 -10.20371
 Alpha  occ. eigenvalues --  -10.18966 -10.18964 -10.18963 -10.18960 -10.18838
 Alpha  occ. eigenvalues --  -10.18838 -10.18834 -10.18833 -10.17073 -10.17073
 Alpha  occ. eigenvalues --  -10.17067 -10.17067 -10.16868 -10.16867 -10.16862
 Alpha  occ. eigenvalues --  -10.16861 -10.16437 -10.16437 -10.16433 -10.16433
 Alpha  occ. eigenvalues --  -10.16355 -10.16355 -10.16352 -10.16351 -10.16261
 Alpha  occ. eigenvalues --  -10.16260 -10.16257 -10.16256  -1.20202  -1.20192
 Alpha  occ. eigenvalues --   -1.10689  -1.08725  -1.07408  -1.07403  -1.06086
 Alpha  occ. eigenvalues --   -1.05522  -1.01309  -0.98605  -0.98111  -0.97536
 Alpha  occ. eigenvalues --   -0.96966  -0.96696  -0.95903  -0.95513  -0.95507
 Alpha  occ. eigenvalues --   -0.95456  -0.93407  -0.91737  -0.86432  -0.86011
 Alpha  occ. eigenvalues --   -0.84518  -0.83499  -0.83051  -0.81978  -0.81520
 Alpha  occ. eigenvalues --   -0.81118  -0.80974  -0.80667  -0.78642  -0.78332
 Alpha  occ. eigenvalues --   -0.76217  -0.75192  -0.74994  -0.74718  -0.72857
 Alpha  occ. eigenvalues --   -0.70528  -0.70169  -0.69577  -0.68784  -0.68344
 Alpha  occ. eigenvalues --   -0.68329  -0.66774  -0.66430  -0.66008  -0.65695
 Alpha  occ. eigenvalues --   -0.65524  -0.64724  -0.64312  -0.63830  -0.63767
 Alpha  occ. eigenvalues --   -0.63577  -0.63503  -0.63453  -0.62340  -0.62153
 Alpha  occ. eigenvalues --   -0.61880  -0.61875  -0.61610  -0.60964  -0.60372
 Alpha  occ. eigenvalues --   -0.59347  -0.59105  -0.58699  -0.58664  -0.56902
 Alpha  occ. eigenvalues --   -0.56815  -0.56304  -0.55657  -0.55455  -0.55041
 Alpha  occ. eigenvalues --   -0.55022  -0.54276  -0.53939  -0.53430  -0.53401
 Alpha  occ. eigenvalues --   -0.52845  -0.51916  -0.48800  -0.47145  -0.47090
 Alpha  occ. eigenvalues --   -0.45717  -0.45710  -0.45522  -0.44863  -0.44848
 Alpha  occ. eigenvalues --   -0.44344  -0.44171  -0.39551  -0.38319
 Alpha virt. eigenvalues --   -0.08421  -0.05811  -0.05666  -0.04403  -0.04389
 Alpha virt. eigenvalues --   -0.03873  -0.02998  -0.02870  -0.01913  -0.01881
 Alpha virt. eigenvalues --   -0.00437   0.00717   0.03269   0.04004   0.05043
 Alpha virt. eigenvalues --    0.05235   0.05481   0.05565   0.05713   0.06788
 Alpha virt. eigenvalues --    0.07239   0.07256   0.07694   0.07943   0.08015
 Alpha virt. eigenvalues --    0.08330   0.08859   0.09257   0.09648   0.10175
 Alpha virt. eigenvalues --    0.10221   0.10719   0.10784   0.10833   0.11035
 Alpha virt. eigenvalues --    0.11180   0.11755   0.12120   0.12488   0.12739
 Alpha virt. eigenvalues --    0.12856   0.13009   0.13312   0.13342   0.14909
 Alpha virt. eigenvalues --    0.15076   0.15118   0.15345   0.15529   0.16275
 Alpha virt. eigenvalues --    0.17575   0.17977   0.18302   0.18415   0.18490
 Alpha virt. eigenvalues --    0.18991   0.19133   0.19467   0.19718   0.19955
 Alpha virt. eigenvalues --    0.19998   0.20393   0.20408   0.20595   0.20790
 Alpha virt. eigenvalues --    0.20801   0.21651   0.21934   0.22143   0.22185
 Alpha virt. eigenvalues --    0.22354   0.22489   0.22511   0.22736   0.23179
 Alpha virt. eigenvalues --    0.23340   0.23390   0.23712   0.24127   0.24160
 Alpha virt. eigenvalues --    0.24166   0.24377   0.24721   0.25052   0.25177
 Alpha virt. eigenvalues --    0.25312   0.25676   0.25861   0.25926   0.25978
 Alpha virt. eigenvalues --    0.26811   0.27233   0.27883   0.28158   0.28230
 Alpha virt. eigenvalues --    0.28251   0.28507   0.28932   0.29387   0.29703
 Alpha virt. eigenvalues --    0.29781   0.30145   0.30288   0.30737   0.30878
 Alpha virt. eigenvalues --    0.30914   0.31248   0.31617   0.31954   0.32091
 Alpha virt. eigenvalues --    0.32403   0.32464   0.32970   0.32994   0.34089
 Alpha virt. eigenvalues --    0.34433   0.34576   0.34731   0.34765   0.35586
 Alpha virt. eigenvalues --    0.35900   0.35977   0.36441   0.36935   0.37225
 Alpha virt. eigenvalues --    0.37339   0.37363   0.37536   0.38009   0.38328
 Alpha virt. eigenvalues --    0.38677   0.38725   0.39048   0.39288   0.39361
 Alpha virt. eigenvalues --    0.39501   0.39846   0.39916   0.39920   0.39970
 Alpha virt. eigenvalues --    0.40333   0.40419   0.41039   0.41380   0.41831
 Alpha virt. eigenvalues --    0.41909   0.42409   0.42518   0.42539   0.42880
 Alpha virt. eigenvalues --    0.43036   0.43101   0.43198   0.43341   0.43456
 Alpha virt. eigenvalues --    0.43541   0.43753   0.43985   0.44260   0.44422
 Alpha virt. eigenvalues --    0.44767   0.44908   0.45786   0.46148   0.46346
 Alpha virt. eigenvalues --    0.46381   0.46909   0.46990   0.47219   0.47834
 Alpha virt. eigenvalues --    0.48229   0.48411   0.48763   0.48966   0.49226
 Alpha virt. eigenvalues --    0.49238   0.50021   0.50077   0.50080   0.50345
 Alpha virt. eigenvalues --    0.50670   0.50843   0.50916   0.51307   0.51380
 Alpha virt. eigenvalues --    0.51543   0.52124   0.52450   0.53021   0.53139
 Alpha virt. eigenvalues --    0.53793   0.53867   0.54176   0.54377   0.54729
 Alpha virt. eigenvalues --    0.55021   0.55033   0.55395   0.55550   0.56002
 Alpha virt. eigenvalues --    0.56274   0.57088   0.57417   0.58182   0.58497
 Alpha virt. eigenvalues --    0.60755   0.61021   0.61432   0.61437   0.61894
 Alpha virt. eigenvalues --    0.61907   0.62469   0.62708   0.63388   0.64177
 Alpha virt. eigenvalues --    0.64718   0.66093   0.66125   0.66319   0.67382
 Alpha virt. eigenvalues --    0.67623   0.67735   0.67796   0.68468   0.69015
 Alpha virt. eigenvalues --    0.69628   0.69755   0.70019   0.70058   0.70082
 Alpha virt. eigenvalues --    0.70595   0.70735   0.71135   0.71258   0.71291
 Alpha virt. eigenvalues --    0.71935   0.72434   0.72451   0.73167   0.73259
 Alpha virt. eigenvalues --    0.73785   0.74326   0.74933   0.75560   0.75790
 Alpha virt. eigenvalues --    0.76393   0.77665   0.77728   0.77874   0.77915
 Alpha virt. eigenvalues --    0.79580   0.79839   0.80946   0.81150   0.81614
 Alpha virt. eigenvalues --    0.84034   0.84219   0.84318   0.84884   0.85548
 Alpha virt. eigenvalues --    0.85928   0.86187   0.86601   0.90489   0.91924
 Alpha virt. eigenvalues --    0.92117   0.92252   0.94149   0.94359   1.11940
 Alpha virt. eigenvalues --    1.14014   1.14931   1.15609   1.15617   1.19778
 Alpha virt. eigenvalues --    1.20021   1.20262   1.20769   1.21632   1.21889
 Alpha virt. eigenvalues --    1.22404   1.22439   1.23330   1.23450   1.23635
 Alpha virt. eigenvalues --    1.23764   1.24001   1.24182   1.24771   1.25582
 Alpha virt. eigenvalues --    1.25681   1.26015   1.26596   1.26680   1.26759
 Alpha virt. eigenvalues --    1.26794   1.27545   1.27637   1.27941   1.27976
 Alpha virt. eigenvalues --    1.28096   1.28641   1.28775   1.28958   1.28996
 Alpha virt. eigenvalues --    1.29352   1.30057   1.30241   1.30336   1.30465
 Alpha virt. eigenvalues --    1.30492   1.30837   1.31098   1.31156   1.31774
 Alpha virt. eigenvalues --    1.31875   1.32068   1.32414   1.32612   1.33305
 Alpha virt. eigenvalues --    1.33429   1.33524   1.34190   1.34244   1.34956
 Alpha virt. eigenvalues --    1.34997   1.35002   1.39619   1.40033   1.41205
 Alpha virt. eigenvalues --    1.41403   1.42006   1.42209   1.42324   1.42979
 Alpha virt. eigenvalues --    1.43409   1.43594   1.43940   1.44037   1.44111
 Alpha virt. eigenvalues --    1.44124   1.44177   1.44274   1.44663   1.44839
 Alpha virt. eigenvalues --    1.44884   1.45093   1.45233   1.45507   1.45566
 Alpha virt. eigenvalues --    1.45613   1.45751   1.46021   1.46057   1.46162
 Alpha virt. eigenvalues --    1.46199   1.46316   1.46799   1.47167   1.47197
 Alpha virt. eigenvalues --    1.47411   1.47562   1.47618   1.49082   1.49152
 Alpha virt. eigenvalues --    1.49463   1.49551   1.49982   1.50008   1.50926
 Alpha virt. eigenvalues --    1.51332   1.51686   1.51804   1.51891   1.52221
 Alpha virt. eigenvalues --    1.52463   1.52500   1.52908   1.53086   1.53310
 Alpha virt. eigenvalues --    1.53792   1.53974   1.54972   1.55051   1.55238
 Alpha virt. eigenvalues --    1.55312   1.55327   1.55373   1.55644   1.55874
 Alpha virt. eigenvalues --    1.56046   1.56481   1.56900   1.57053   1.57054
 Alpha virt. eigenvalues --    1.57765   1.57767   1.57813   1.57956   1.58347
 Alpha virt. eigenvalues --    1.58557   1.59166   1.59262   1.59446   1.59952
 Alpha virt. eigenvalues --    1.60221   1.62817   1.63232   1.64915   1.65382
 Alpha virt. eigenvalues --    1.66249   1.66302   1.66390   1.66591   1.67520
 Alpha virt. eigenvalues --    1.69454   1.70305   1.70821   1.71027   1.71345
 Alpha virt. eigenvalues --    1.73901   1.74862   1.75531   1.75755   1.76055
 Alpha virt. eigenvalues --    1.76238   1.76581   1.76894   1.77010   1.77063
 Alpha virt. eigenvalues --    1.77542   1.77764   1.77868   1.77972   1.78035
 Alpha virt. eigenvalues --    1.78796   1.78867   1.78987   1.79068   1.79527
 Alpha virt. eigenvalues --    1.79873   1.80729   1.80945   1.80998   1.81399
 Alpha virt. eigenvalues --    1.81648   1.82150   1.82154   1.82299   1.82568
 Alpha virt. eigenvalues --    1.83731   1.83995   1.84203   1.84742   1.86383
 Alpha virt. eigenvalues --    1.87148   1.87161   1.88140   1.88343   1.88471
 Alpha virt. eigenvalues --    1.88572   1.88919   1.88946   1.88998   1.89065
 Alpha virt. eigenvalues --    1.90645   1.90799   1.91152   1.91281   1.91567
 Alpha virt. eigenvalues --    1.91630   1.91661   1.91905   1.92171   1.92248
 Alpha virt. eigenvalues --    1.92259   1.92337   1.92782   1.93051   1.93119
 Alpha virt. eigenvalues --    1.93335   1.93402   1.93499   1.93896   1.94052
 Alpha virt. eigenvalues --    1.94558   1.95184   1.96178   1.97765   1.97926
 Alpha virt. eigenvalues --    1.97941   1.97970   1.98054   1.98208   1.99459
 Alpha virt. eigenvalues --    1.99562   1.99597   2.00159   2.00707   2.02008
 Alpha virt. eigenvalues --    2.02042   2.02506   2.02621   2.03963   2.03989
 Alpha virt. eigenvalues --    2.04620   2.06558   2.06847   2.07418   2.08551
 Alpha virt. eigenvalues --    2.10139   2.11330   2.11346   2.11600   2.11890
 Alpha virt. eigenvalues --    2.14012   2.14929   2.16751   2.18511   2.19186
 Alpha virt. eigenvalues --    2.19273   2.19512   2.21709   2.22345   2.23056
 Alpha virt. eigenvalues --    2.23539   2.23670   2.24951   2.25952   2.26835
 Alpha virt. eigenvalues --    2.28447   2.28591   2.29360   2.29673   2.29703
 Alpha virt. eigenvalues --    2.30151   2.30513   2.30899   2.30943   2.31079
 Alpha virt. eigenvalues --    2.31099   2.31516   2.31872   2.32025   2.32059
 Alpha virt. eigenvalues --    2.32671   2.32747   2.32933   2.33828   2.34002
 Alpha virt. eigenvalues --    2.34497   2.34536   2.34671   2.34702   2.35577
 Alpha virt. eigenvalues --    2.35655   2.35741   2.35845   2.36042   2.36239
 Alpha virt. eigenvalues --    2.36487   2.37039   2.37214   2.37467   2.37695
 Alpha virt. eigenvalues --    2.37701   2.39717   2.42557   2.43787   2.44232
 Alpha virt. eigenvalues --    2.44578   2.45489   2.45552   2.45718   2.50022
 Alpha virt. eigenvalues --    2.50156   2.50303   2.50815   2.51144   2.51217
 Alpha virt. eigenvalues --    2.51722   2.52180   2.52426   2.52599   2.52773
 Alpha virt. eigenvalues --    2.53319   2.53875   2.54362   2.55091   2.55428
 Alpha virt. eigenvalues --    2.55616   2.57010   2.57563   2.58514   2.59712
 Alpha virt. eigenvalues --    2.59797   2.62039   2.62232   2.62769   2.63246
 Alpha virt. eigenvalues --    2.64394   2.64443   2.64490   2.64683   2.64726
 Alpha virt. eigenvalues --    2.64762   2.65023   2.65158   2.65665   2.65903
 Alpha virt. eigenvalues --    2.66231   2.66743   2.67193   2.67475   2.67733
 Alpha virt. eigenvalues --    2.68155   2.72585   2.73887   2.73959   2.74018
 Alpha virt. eigenvalues --    2.74164   2.74987   2.75419   2.75862   2.75953
 Alpha virt. eigenvalues --    2.76946   2.77509   2.77866   2.77994   2.78805
 Alpha virt. eigenvalues --    2.80927   2.81906   2.82132   2.82551   2.83154
 Alpha virt. eigenvalues --    2.84418   2.84448   2.84724   2.84769   2.84833
 Alpha virt. eigenvalues --    2.88924   2.89540   2.94119   2.95292   2.95439
 Alpha virt. eigenvalues --    2.95582   2.97302   2.97346   2.97899   2.97975
 Alpha virt. eigenvalues --    3.01573   3.01639   3.01726   3.01734   3.01974
 Alpha virt. eigenvalues --    3.02249   3.02826   3.02891   3.03689   3.03775
 Alpha virt. eigenvalues --    3.04423   3.04622   3.04962   3.06045   3.06510
 Alpha virt. eigenvalues --    3.08572   3.09730   3.09793   3.09802   3.11039
 Alpha virt. eigenvalues --    3.11413   3.11989   3.14049   3.14200   3.14912
 Alpha virt. eigenvalues --    3.15171   3.16812   3.16934   3.17650   3.17741
 Alpha virt. eigenvalues --    3.17952   3.19305   3.19688   3.20132   3.20402
 Alpha virt. eigenvalues --    3.20826   3.21059   3.21622   3.22048   3.22709
 Alpha virt. eigenvalues --    3.24119   3.24849   3.27864   3.32657   3.32716
 Alpha virt. eigenvalues --    3.32831   3.33115   3.33447   3.33476   3.35740
 Alpha virt. eigenvalues --    3.37073   3.39098   3.39266   3.40643   3.40646
 Alpha virt. eigenvalues --    3.43382   3.44161   3.51803   3.52882   3.54502
 Alpha virt. eigenvalues --    3.54591   3.54706   3.54887   3.56623   3.59541
 Alpha virt. eigenvalues --    3.60250   3.60271   3.77413   3.81252   3.88392
 Alpha virt. eigenvalues --    3.90607   3.91348   3.91430  21.12442  21.19348
 Alpha virt. eigenvalues --   21.19572  21.21133  21.21358  21.33348  21.65186
 Alpha virt. eigenvalues --   21.66932  21.67077  21.69495  21.70320  21.70343
 Alpha virt. eigenvalues --   21.72249  21.72892  21.75750  21.79017  21.79252
 Alpha virt. eigenvalues --   21.87920  21.88848  21.92419  21.93180  21.94669
 Alpha virt. eigenvalues --   21.95307  21.95988  21.96187  21.97463  22.00666
 Alpha virt. eigenvalues --   22.01003  22.01381  22.02807  22.06601  22.07686
 Alpha virt. eigenvalues --   22.12087  22.13299  22.13487  22.13886  31.99606
 Alpha virt. eigenvalues --   32.00551
  Beta  occ. eigenvalues --  -14.33257 -14.33249 -10.23762 -10.23755 -10.21570
  Beta  occ. eigenvalues --  -10.21567 -10.21564 -10.21561 -10.20286 -10.20270
  Beta  occ. eigenvalues --  -10.18955 -10.18953 -10.18952 -10.18949 -10.18795
  Beta  occ. eigenvalues --  -10.18794 -10.18791 -10.18790 -10.16986 -10.16985
  Beta  occ. eigenvalues --  -10.16980 -10.16979 -10.16787 -10.16786 -10.16781
  Beta  occ. eigenvalues --  -10.16780 -10.16487 -10.16487 -10.16484 -10.16483
  Beta  occ. eigenvalues --  -10.16401 -10.16401 -10.16397 -10.16396 -10.16175
  Beta  occ. eigenvalues --  -10.16175 -10.16171 -10.16171  -1.19662  -1.19652
  Beta  occ. eigenvalues --   -1.10467  -1.08511  -1.07325  -1.07320  -1.05936
  Beta  occ. eigenvalues --   -1.05348  -1.00998  -0.98546  -0.98045  -0.97315
  Beta  occ. eigenvalues --   -0.96885  -0.96619  -0.95828  -0.95449  -0.95444
  Beta  occ. eigenvalues --   -0.95343  -0.93173  -0.91287  -0.86320  -0.85825
  Beta  occ. eigenvalues --   -0.84346  -0.83363  -0.82886  -0.81775  -0.81462
  Beta  occ. eigenvalues --   -0.81029  -0.80887  -0.80594  -0.78547  -0.78240
  Beta  occ. eigenvalues --   -0.76144  -0.75093  -0.74917  -0.74632  -0.72754
  Beta  occ. eigenvalues --   -0.70307  -0.70056  -0.69468  -0.68562  -0.68090
  Beta  occ. eigenvalues --   -0.67932  -0.66672  -0.66255  -0.65913  -0.65582
  Beta  occ. eigenvalues --   -0.65482  -0.64647  -0.64259  -0.63732  -0.63724
  Beta  occ. eigenvalues --   -0.63447  -0.63438  -0.63333  -0.62218  -0.62094
  Beta  occ. eigenvalues --   -0.61837  -0.61832  -0.61490  -0.60602  -0.59796
  Beta  occ. eigenvalues --   -0.58978  -0.58711  -0.58406  -0.58374  -0.56838
  Beta  occ. eigenvalues --   -0.56604  -0.55647  -0.55597  -0.55398  -0.54892
  Beta  occ. eigenvalues --   -0.54821  -0.53938  -0.53755  -0.53381  -0.53352
  Beta  occ. eigenvalues --   -0.52358  -0.50784  -0.47223  -0.47128  -0.47097
  Beta  occ. eigenvalues --   -0.45236  -0.45230  -0.44463  -0.44432  -0.44398
  Beta  occ. eigenvalues --   -0.44131  -0.42542  -0.33715
  Beta virt. eigenvalues --   -0.23732  -0.08172  -0.05361  -0.05166  -0.04094
  Beta virt. eigenvalues --   -0.04074  -0.03301  -0.02667  -0.02424  -0.01644
  Beta virt. eigenvalues --   -0.01576   0.00373   0.01804   0.03299   0.04039
  Beta virt. eigenvalues --    0.05074   0.05303   0.05518   0.05593   0.05749
  Beta virt. eigenvalues --    0.06828   0.07264   0.07290   0.07714   0.07958
  Beta virt. eigenvalues --    0.08045   0.08356   0.08887   0.09275   0.09685
  Beta virt. eigenvalues --    0.10206   0.10379   0.10729   0.10831   0.10858
  Beta virt. eigenvalues --    0.11044   0.11193   0.11788   0.12162   0.12520
  Beta virt. eigenvalues --    0.12761   0.12917   0.13250   0.13450   0.13492
  Beta virt. eigenvalues --    0.14996   0.15142   0.15326   0.15526   0.15735
  Beta virt. eigenvalues --    0.16451   0.17643   0.18042   0.18347   0.18513
  Beta virt. eigenvalues --    0.18626   0.19065   0.19231   0.19523   0.19778
  Beta virt. eigenvalues --    0.20001   0.20033   0.20431   0.20507   0.20660
  Beta virt. eigenvalues --    0.20819   0.20870   0.21725   0.21985   0.22223
  Beta virt. eigenvalues --    0.22295   0.22465   0.22593   0.22615   0.22834
  Beta virt. eigenvalues --    0.23282   0.23431   0.23449   0.23774   0.24152
  Beta virt. eigenvalues --    0.24185   0.24204   0.24444   0.24791   0.25102
  Beta virt. eigenvalues --    0.25234   0.25388   0.25729   0.25938   0.26021
  Beta virt. eigenvalues --    0.26046   0.26820   0.27304   0.27905   0.28172
  Beta virt. eigenvalues --    0.28289   0.28429   0.28546   0.29047   0.29475
  Beta virt. eigenvalues --    0.29829   0.29918   0.30253   0.30371   0.30838
  Beta virt. eigenvalues --    0.30999   0.31104   0.31338   0.31678   0.32070
  Beta virt. eigenvalues --    0.32149   0.32477   0.32554   0.33051   0.33055
  Beta virt. eigenvalues --    0.34213   0.34524   0.34667   0.34817   0.34901
  Beta virt. eigenvalues --    0.35661   0.36026   0.36126   0.36519   0.36995
  Beta virt. eigenvalues --    0.37348   0.37396   0.37449   0.37628   0.38096
  Beta virt. eigenvalues --    0.38371   0.38748   0.38797   0.39157   0.39358
  Beta virt. eigenvalues --    0.39418   0.39545   0.39916   0.39977   0.40009
  Beta virt. eigenvalues --    0.40075   0.40432   0.40487   0.41154   0.41504
  Beta virt. eigenvalues --    0.41964   0.41997   0.42467   0.42602   0.42625
  Beta virt. eigenvalues --    0.42935   0.43073   0.43166   0.43234   0.43356
  Beta virt. eigenvalues --    0.43521   0.43601   0.43763   0.44017   0.44308
  Beta virt. eigenvalues --    0.44495   0.44870   0.44964   0.45847   0.46222
  Beta virt. eigenvalues --    0.46412   0.46416   0.46989   0.47067   0.47283
  Beta virt. eigenvalues --    0.47931   0.48291   0.48483   0.48803   0.49033
  Beta virt. eigenvalues --    0.49303   0.49307   0.50050   0.50152   0.50158
  Beta virt. eigenvalues --    0.50399   0.50702   0.50886   0.51001   0.51369
  Beta virt. eigenvalues --    0.51458   0.51603   0.52204   0.52548   0.53099
  Beta virt. eigenvalues --    0.53204   0.53836   0.53935   0.54251   0.54447
[...]

              Baa    -0.0223    -2.988    -1.066    -0.997  0.4790  0.6432  0.5973
     1 C(13)  Bbb    -0.0173    -2.318    -0.827    -0.773  0.8766 -0.3154 -0.3634
              Bcc     0.0395     5.306     1.893     1.770  0.0454 -0.6977  0.7149
 
              Baa    -0.0416    -5.577    -1.990    -1.860  0.0000  0.9843  0.1767
     2 C(13)  Bbb    -0.0332    -4.455    -1.590    -1.486  1.0000 -0.0000  0.0001
              Bcc     0.0748    10.032     3.580     3.346 -0.0001 -0.1767  0.9843
 
              Baa    -0.0092    -1.228    -0.438    -0.410  0.1776  0.6290  0.7568
     3 C(13)  Bbb    -0.0052    -0.696    -0.249    -0.232  0.9635 -0.2677 -0.0036
              Bcc     0.0143     1.924     0.687     0.642  0.2003  0.7298 -0.6536
 
              Baa    -0.0223    -2.989    -1.067    -0.997 -0.4792  0.6432  0.5972
     4 C(13)  Bbb    -0.0173    -2.319    -0.828    -0.774  0.8766  0.3154  0.3636
              Bcc     0.0396     5.308     1.894     1.771 -0.0455 -0.6977  0.7150
 
              Baa    -0.0479    -6.429    -2.294    -2.144  0.0000  0.9888  0.1492
     5 C(13)  Bbb    -0.0422    -5.666    -2.022    -1.890  1.0000 -0.0000  0.0000
              Bcc     0.0901    12.095     4.316     4.034 -0.0000 -0.1492  0.9888
 
              Baa    -0.0092    -1.228    -0.438    -0.410 -0.1773  0.6291  0.7568
     6 C(13)  Bbb    -0.0052    -0.696    -0.249    -0.232  0.9636  0.2673  0.0035
              Bcc     0.0143     1.924     0.687     0.642 -0.2001  0.7299 -0.6536
 
              Baa    -0.0024    -1.265    -0.451    -0.422 -0.1431 -0.2987  0.9436
     7 H(1)   Bbb    -0.0005    -0.249    -0.089    -0.083  0.9894 -0.0179  0.1444
              Bcc     0.0028     1.514     0.540     0.505 -0.0262  0.9542  0.2981
 
              Baa    -0.0028    -1.513    -0.540    -0.505  0.1191 -0.3529  0.9280
     8 H(1)   Bbb    -0.0018    -0.983    -0.351    -0.328  0.9924  0.0726 -0.0997
              Bcc     0.0047     2.496     0.891     0.833 -0.0322  0.9328  0.3589
 
              Baa    -0.0024    -1.265    -0.451    -0.422  0.1430 -0.2988  0.9435
     9 H(1)   Bbb    -0.0005    -0.249    -0.089    -0.083  0.9894  0.0180 -0.1443
              Bcc     0.0028     1.514     0.540     0.505  0.0261  0.9541  0.2982
 
              Baa    -0.0478    -6.410    -2.287    -2.138  0.0000  0.9887 -0.1496
    10 C(13)  Bbb    -0.0421    -5.647    -2.015    -1.884  1.0000 -0.0000 -0.0000
              Bcc     0.0898    12.057     4.302     4.022  0.0000  0.1496  0.9887
 
              Baa    -0.0092    -1.232    -0.440    -0.411 -0.1761 -0.6318  0.7549
    11 C(13)  Bbb    -0.0053    -0.707    -0.252    -0.236  0.9642 -0.2653  0.0029
              Bcc     0.0144     1.939     0.692     0.647  0.1984  0.7283  0.6559
 
              Baa    -0.0092    -1.232    -0.439    -0.411  0.1760 -0.6316  0.7551
    12 C(13)  Bbb    -0.0053    -0.706    -0.252    -0.235  0.9642  0.2652 -0.0029
              Bcc     0.0144     1.938     0.691     0.646 -0.1985  0.7285  0.6556
 
              Baa    -0.0222    -2.977    -1.062    -0.993  0.4762  0.6429 -0.5999
    13 C(13)  Bbb    -0.0172    -2.305    -0.823    -0.769  0.8781 -0.3122  0.3626
              Bcc     0.0394     5.282     1.885     1.762 -0.0458  0.6995  0.7132
 
              Baa    -0.0222    -2.978    -1.063    -0.993 -0.4763  0.6429 -0.5998
    14 C(13)  Bbb    -0.0172    -2.306    -0.823    -0.769  0.8781  0.3122 -0.3626
              Bcc     0.0394     5.284     1.886     1.763  0.0459  0.6994  0.7132
 
              Baa    -0.0416    -5.583    -1.992    -1.862 -0.0001  0.9841 -0.1778
    15 C(13)  Bbb    -0.0333    -4.463    -1.593    -1.489  1.0000  0.0001 -0.0001
              Bcc     0.0749    10.046     3.585     3.351  0.0001  0.1778  0.9841
 
              Baa    -0.0024    -1.264    -0.451    -0.422  0.1434  0.2996  0.9432
    16 H(1)   Bbb    -0.0005    -0.252    -0.090    -0.084  0.9893 -0.0166 -0.1451
              Bcc     0.0028     1.516     0.541     0.506 -0.0278  0.9539 -0.2988
 
              Baa    -0.0024    -1.264    -0.451    -0.422 -0.1432  0.2997  0.9432
    17 H(1)   Bbb    -0.0005    -0.251    -0.090    -0.084  0.9893  0.0168  0.1449
              Bcc     0.0028     1.515     0.541     0.505  0.0276  0.9539 -0.2989
 
              Baa    -0.0028    -1.512    -0.540    -0.504  0.1174  0.3538  0.9279
    18 H(1)   Bbb    -0.0018    -0.978    -0.349    -0.326  0.9926 -0.0708 -0.0986
              Bcc     0.0047     2.491     0.889     0.831  0.0308  0.9327 -0.3595
 
              Baa    -0.0028    -1.512    -0.540    -0.504 -0.1171  0.3539  0.9279
    19 H(1)   Bbb    -0.0018    -0.979    -0.349    -0.326  0.9926  0.0708  0.0982
              Bcc     0.0047     2.491     0.889     0.831 -0.0310  0.9326 -0.3596
 
              Baa    -0.0028    -1.513    -0.540    -0.505 -0.1193 -0.3529  0.9280
    20 H(1)   Bbb    -0.0018    -0.983    -0.351    -0.328  0.9923 -0.0726  0.1000
              Bcc     0.0047     2.496     0.891     0.833  0.0321  0.9329  0.3588
 
              Baa    -0.2735   -10.549    -3.764    -3.519 -0.0013  0.9499  0.3125
    21 N(14)  Bbb    -0.2724   -10.506    -3.749    -3.504  1.0000  0.0013  0.0003
              Bcc     0.5459    21.055     7.513     7.023  0.0001 -0.3125  0.9499
 
              Baa    -0.0387    -5.195    -1.854    -1.733  0.5426  0.6380 -0.5464
    22 C(13)  Bbb     0.0151     2.022     0.721     0.674  0.6875  0.0364  0.7253
              Bcc     0.0236     3.173     1.132     1.058 -0.4826  0.7692  0.4189
 
              Baa    -0.0336    -4.502    -1.606    -1.502  0.0628  0.6509  0.7566
    23 C(13)  Bbb    -0.0298    -4.000    -1.427    -1.334  0.7050 -0.5655  0.4280
              Bcc     0.0634     8.502     3.034     2.836  0.7064  0.5065 -0.4944
 
              Baa    -0.0356    -4.779    -1.705    -1.594  0.7346 -0.6434  0.2155
    24 C(13)  Bbb    -0.0317    -4.252    -1.517    -1.418  0.1160  0.4321  0.8944
              Bcc     0.0673     9.031     3.222     3.012  0.6685  0.6320 -0.3920
 
              Baa    -0.0370    -4.961    -1.770    -1.655 -0.5397 -0.5852  0.6052
    25 C(13)  Bbb     0.0171     2.298     0.820     0.767  0.7328  0.0274  0.6799
              Bcc     0.0198     2.662     0.950     0.888 -0.4144  0.8104  0.4141
 
              Baa    -0.0395    -5.302    -1.892    -1.769 -0.5676 -0.5454  0.6168
    26 C(13)  Bbb     0.0181     2.431     0.867     0.811  0.5576  0.2965  0.7753
              Bcc     0.0214     2.871     1.024     0.958 -0.6058  0.7840  0.1358
 
              Baa    -0.0384    -5.154    -1.839    -1.719  0.6705  0.1970  0.7153
    27 C(13)  Bbb    -0.0344    -4.614    -1.646    -1.539 -0.5282  0.8038  0.2738
              Bcc     0.0728     9.768     3.485     3.258 -0.5210 -0.5614  0.6429
 
              Baa    -0.0023    -1.248    -0.445    -0.416 -0.2150  0.9476 -0.2364
    28 H(1)   Bbb    -0.0015    -0.777    -0.277    -0.259  0.7977  0.0308 -0.6023
              Bcc     0.0038     2.025     0.723     0.675  0.5634  0.3180  0.7625
 
              Baa    -0.0022    -1.197    -0.427    -0.399  0.5935  0.5886 -0.5489
    29 H(1)   Bbb    -0.0014    -0.724    -0.258    -0.242 -0.2658  0.7871  0.5567
              Bcc     0.0036     1.921     0.685     0.641  0.7597 -0.1845  0.6236
 
              Baa    -0.0012    -0.637    -0.227    -0.213  0.5808  0.5784 -0.5729
    30 H(1)   Bbb    -0.0008    -0.444    -0.158    -0.148  0.7913 -0.2358  0.5642
              Bcc     0.0020     1.081     0.386     0.361 -0.1912  0.7810  0.5946
 
              Baa    -0.0013    -0.700    -0.250    -0.233  0.6784  0.7128 -0.1779
    31 H(1)   Bbb    -0.0011    -0.582    -0.208    -0.194  0.1143  0.1368  0.9840
              Bcc     0.0024     1.282     0.457     0.428  0.7257 -0.6879  0.0114
 
              Baa    -0.0048    -2.579    -0.920    -0.860  0.6714  0.1529  0.7251
    32 H(1)   Bbb    -0.0003    -0.155    -0.055    -0.052 -0.5420 -0.5659  0.6213
              Bcc     0.0051     2.734     0.976     0.912 -0.5053  0.8102  0.2970
 
              Baa    -0.0387    -5.190    -1.852    -1.731 -0.5432  0.6380 -0.5458
    33 C(13)  Bbb     0.0151     2.020     0.721     0.674 -0.6870  0.0359  0.7258
              Bcc     0.0236     3.170     1.131     1.058  0.4826  0.7692  0.4188
 
              Baa    -0.0335    -4.498    -1.605    -1.500 -0.0628  0.6505  0.7569
    34 C(13)  Bbb    -0.0298    -3.996    -1.426    -1.333  0.7043  0.5663 -0.4282
              Bcc     0.0633     8.494     3.031     2.833  0.7071 -0.5062  0.4937
 
              Baa    -0.0356    -4.776    -1.704    -1.593  0.7343  0.6433 -0.2165
    35 C(13)  Bbb    -0.0316    -4.247    -1.515    -1.417 -0.1149  0.4321  0.8945
              Bcc     0.0672     9.023     3.219     3.010  0.6690 -0.6320  0.3912
 
              Baa    -0.0369    -4.956    -1.768    -1.653  0.5403 -0.5852  0.6047
    36 C(13)  Bbb     0.0171     2.296     0.819     0.766  0.7321 -0.0274 -0.6806
              Bcc     0.0198     2.660     0.949     0.887  0.4149  0.8104  0.4136
 
              Baa    -0.0395    -5.297    -1.890    -1.767  0.5682 -0.5453  0.6163
    37 C(13)  Bbb     0.0181     2.428     0.867     0.810 -0.5576  0.2957  0.7757
              Bcc     0.0214     2.868     1.024     0.957  0.6052  0.7843  0.1361
 
              Baa    -0.0384    -5.148    -1.837    -1.717 -0.6701  0.1965  0.7158
    38 C(13)  Bbb    -0.0343    -4.609    -1.645    -1.537  0.5281  0.8039  0.2737
              Bcc     0.0727     9.757     3.482     3.255  0.5217 -0.5614  0.6424
 
              Baa    -0.0023    -1.246    -0.445    -0.416  0.2131  0.9478 -0.2370
    39 H(1)   Bbb    -0.0015    -0.777    -0.277    -0.259  0.7982 -0.0290  0.6017
              Bcc     0.0038     2.023     0.722     0.675 -0.5634  0.3174  0.7628
 
              Baa    -0.0022    -1.196    -0.427    -0.399  0.5937 -0.5890  0.5482
    40 H(1)   Bbb    -0.0014    -0.723    -0.258    -0.241  0.2665  0.7868  0.5567
              Bcc     0.0036     1.919     0.685     0.640  0.7592  0.1844 -0.6241
 
              Baa    -0.0012    -0.637    -0.227    -0.212  0.5814 -0.5784  0.5723
    41 H(1)   Bbb    -0.0008    -0.443    -0.158    -0.148  0.7908  0.2360 -0.5648
              Bcc     0.0020     1.080     0.385     0.360  0.1915  0.7809  0.5946
 
              Baa    -0.0013    -0.699    -0.250    -0.233 -0.6788  0.7124 -0.1781
    42 H(1)   Bbb    -0.0011    -0.581    -0.207    -0.194 -0.1144  0.1370  0.9839
              Bcc     0.0024     1.281     0.457     0.427  0.7254  0.6882 -0.0115
 
              Baa    -0.0048    -2.576    -0.919    -0.859 -0.6710  0.1525  0.7256
    43 H(1)   Bbb    -0.0003    -0.155    -0.055    -0.052  0.5427 -0.5659  0.6207
              Bcc     0.0051     2.731     0.975     0.911  0.5052  0.8103  0.2969
 
              Baa    -0.2739   -10.563    -3.769    -3.524 -0.0005  0.9499 -0.3126
    44 N(14)  Bbb    -0.2728   -10.520    -3.754    -3.509  1.0000  0.0005 -0.0001
              Bcc     0.5466    21.083     7.523     7.032 -0.0001  0.3126  0.9499
 
              Baa    -0.0387    -5.196    -1.854    -1.733  0.5432  0.6380  0.5458
    45 C(13)  Bbb     0.0151     2.023     0.722     0.675 -0.6871 -0.0359  0.7257
              Bcc     0.0236     3.173     1.132     1.058 -0.4826  0.7692 -0.4188
 
              Baa    -0.0336    -4.503    -1.607    -1.502 -0.0627 -0.6505  0.7569
    46 C(13)  Bbb    -0.0298    -3.999    -1.427    -1.334  0.7044 -0.5661 -0.4282
              Bcc     0.0634     8.502     3.034     2.836  0.7071  0.5063  0.4937
 
              Baa    -0.0356    -4.780    -1.706    -1.595  0.7345 -0.6431 -0.2166
    47 C(13)  Bbb    -0.0317    -4.251    -1.517    -1.418 -0.1147 -0.4322  0.8944
              Bcc     0.0673     9.031     3.223     3.013  0.6688  0.6322  0.3913
 
              Baa    -0.0370    -4.960    -1.770    -1.655  0.5401  0.5853  0.6047
    48 C(13)  Bbb     0.0171     2.298     0.820     0.767  0.7321  0.0278 -0.6807
              Bcc     0.0198     2.662     0.950     0.888 -0.4152  0.8103 -0.4135
 
              Baa    -0.0395    -5.302    -1.892    -1.768  0.5680  0.5455  0.6163
    49 C(13)  Bbb     0.0181     2.431     0.867     0.811 -0.5576 -0.2957  0.7756
              Bcc     0.0214     2.871     1.024     0.958 -0.6053  0.7842 -0.1362
 
              Baa    -0.0384    -5.153    -1.839    -1.719 -0.6701 -0.1967  0.7158
    50 C(13)  Bbb    -0.0344    -4.613    -1.646    -1.539 -0.5283  0.8038 -0.2737
              Bcc     0.0728     9.766     3.485     3.258  0.5215  0.5615  0.6425
 
              Baa    -0.0023    -1.248    -0.445    -0.416 -0.2125  0.9478  0.2376
    51 H(1)   Bbb    -0.0015    -0.778    -0.277    -0.259  0.7983  0.0282  0.6016
              Bcc     0.0038     2.025     0.723     0.676 -0.5635 -0.3175  0.7626
 
              Baa    -0.0022    -1.197    -0.427    -0.399  0.5936  0.5889  0.5485
    52 H(1)   Bbb    -0.0014    -0.724    -0.258    -0.241 -0.2666  0.7870 -0.5564
              Bcc     0.0036     1.921     0.685     0.641  0.7593 -0.1841 -0.6242
 
              Baa    -0.0012    -0.638    -0.228    -0.213  0.5813  0.5785  0.5722
    53 H(1)   Bbb    -0.0008    -0.444    -0.158    -0.148  0.7908 -0.2359 -0.5648
              Bcc     0.0020     1.081     0.386     0.361 -0.1918  0.7808 -0.5946
 
              Baa    -0.0013    -0.700    -0.250    -0.233  0.6786  0.7125  0.1784
    54 H(1)   Bbb    -0.0011    -0.582    -0.208    -0.194 -0.1146 -0.1372  0.9839
              Bcc     0.0024     1.282     0.457     0.428  0.7255 -0.6881 -0.0115
 
              Baa    -0.0048    -2.579    -0.920    -0.860 -0.6710 -0.1526  0.7256
    55 H(1)   Bbb    -0.0003    -0.155    -0.055    -0.052  0.5425  0.5660  0.6208
              Bcc     0.0051     2.734     0.976     0.912 -0.5054  0.8102 -0.2970
 
              Baa    -0.0387    -5.194    -1.853    -1.732 -0.5434  0.6381  0.5455
    56 C(13)  Bbb     0.0151     2.022     0.721     0.674  0.6869 -0.0356  0.7259
              Bcc     0.0236     3.172     1.132     1.058  0.4826  0.7691 -0.4189
 
              Baa    -0.0335    -4.502    -1.606    -1.502  0.0627 -0.6503  0.7571
    57 C(13)  Bbb    -0.0298    -3.998    -1.426    -1.334  0.7041  0.5665  0.4282
              Bcc     0.0633     8.499     3.033     2.835  0.7073 -0.5062 -0.4934
 
              Baa    -0.0356    -4.779    -1.705    -1.594  0.7344  0.6431  0.2168
    58 C(13)  Bbb    -0.0317    -4.249    -1.516    -1.417  0.1143 -0.4321  0.8946
              Bcc     0.0673     9.028     3.221     3.011  0.6690 -0.6322 -0.3908
 
              Baa    -0.0370    -4.958    -1.769    -1.654 -0.5403  0.5854  0.6045
    59 C(13)  Bbb     0.0171     2.297     0.820     0.766  0.7318 -0.0277  0.6810
              Bcc     0.0198     2.661     0.950     0.888  0.4154  0.8103 -0.4134
 
              Baa    -0.0395    -5.300    -1.891    -1.768 -0.5683  0.5455  0.6160
    60 C(13)  Bbb     0.0181     2.430     0.867     0.810  0.5576 -0.2952  0.7758
              Bcc     0.0214     2.870     1.024     0.957  0.6051  0.7844 -0.1364
 
              Baa    -0.0384    -5.151    -1.838    -1.718  0.6699 -0.1964  0.7160
    61 C(13)  Bbb    -0.0344    -4.611    -1.645    -1.538  0.5282  0.8038 -0.2737
              Bcc     0.0727     9.762     3.483     3.256 -0.5217  0.5616  0.6422
 
              Baa    -0.0023    -1.247    -0.445    -0.416  0.2119  0.9479  0.2377
    62 H(1)   Bbb    -0.0015    -0.777    -0.277    -0.259  0.7985 -0.0276 -0.6014
              Bcc     0.0038     2.025     0.722     0.675  0.5636 -0.3172  0.7627
 
              Baa    -0.0022    -1.197    -0.427    -0.399  0.5938 -0.5891 -0.5481
    63 H(1)   Bbb    -0.0014    -0.723    -0.258    -0.241  0.2668  0.7868 -0.5565
              Bcc     0.0036     1.920     0.685     0.640  0.7591  0.1842  0.6244
 
              Baa    -0.0012    -0.637    -0.227    -0.213  0.5814 -0.5786 -0.5720
    64 H(1)   Bbb    -0.0008    -0.443    -0.158    -0.148  0.7906  0.2360  0.5650
              Bcc     0.0020     1.081     0.386     0.360  0.1919  0.7808 -0.5946
 
              Baa    -0.0013    -0.700    -0.250    -0.233 -0.6787  0.7124  0.1784
    65 H(1)   Bbb    -0.0011    -0.582    -0.208    -0.194  0.1146 -0.1372  0.9839
              Bcc     0.0024     1.281     0.457     0.427  0.7254  0.6882  0.0114
 
              Baa    -0.0048    -2.578    -0.920    -0.860  0.6708 -0.1524  0.7258
    66 H(1)   Bbb    -0.0003    -0.155    -0.055    -0.052 -0.5427  0.5661  0.6205
              Bcc     0.0051     2.733     0.975     0.912  0.5054  0.8102 -0.2970
 

 ---------------------------------------------------------------------------------

 No NMR shielding tensors so no spin-rotation constants.
 Leave Link  601 at Sun Jan 17 23:08:51 2021, MaxMem=  4026531840 cpu:               9.1 elap:               1.2
 (Enter /opt/ohpc/pub/libs/gaussian/g16-A.03/sandybridge/g16/l9999.exe)

 Test job not archived.
 1\1\GINC-CASCADEB019\SP\ULC-wHPBE\TZVP\C36H28N2(1+,2)\RDU230\17-Jan-20
 21\0\\#P LC-wHPBE/TZVP iop(3/107=0328100000, 3/108=0328100000) scf=(co
 nver=6,fermi,ndamp=35,noincfock,novaracc,vshift=500,xqc)\\H28 C36 N2\\
 1,2\C,0,2.849999,-1.125861,0.415638\C,0,3.563139,-0.000026,-0.000017\C
 ,0,1.464492,-1.123667,0.405534\C,0,2.850033,1.125752,-0.415809\C,0,0.7
 41288,-0.000047,-0.000195\C,0,1.464504,1.123547,-0.405879\H,0,0.931596
 ,-2.005844,0.756198\H,0,3.391048,2.006254,-0.75499\H,0,0.931669,2.0057
 28,-0.756629\C,0,-0.741437,-0.000073,-0.000217\C,0,-1.464635,1.123165,
 0.406556\C,0,-1.464638,-1.123302,-0.406976\C,0,-2.850149,1.125343,0.41
 661\C,0,-2.850163,-1.125491,-0.416935\C,0,-3.563257,-0.000095,-0.00011
 6\H,0,-0.931751,2.005025,0.758038\H,0,-0.931783,-2.00514,-0.758553\H,0
 ,-3.391193,2.005527,0.756576\H,0,-3.391211,-2.005669,-0.756913\H,0,3.3
 91005,-2.006357,0.754845\N,0,-4.97843,-0.000102,-0.000065\C,0,-5.68709
 9,-1.154578,0.414287\C,0,-6.831881,-1.566674,-0.27115\C,0,-5.251323,-1
 .896933,1.513908\C,0,-7.528311,-2.692826,0.143324\C,0,-5.943392,-3.032
 223,1.91044\C,0,-7.087522,-3.435368,1.232277\H,0,-7.173684,-0.995181,-
 1.131117\H,0,-4.363437,-1.577947,2.055099\H,0,-8.419174,-2.999763,-0.4
 0155\H,0,-5.58986,-3.599797,2.769285\H,0,-7.631852,-4.321852,1.550225\
 C,0,-5.687025,1.154532,-0.414292\C,0,-6.831191,1.567225,0.271802\C,0,-
 5.251707,1.896381,-1.514415\C,0,-7.527485,2.693516,-0.142525\C,0,-5.94
 362,3.031828,-1.910808\C,0,-7.087137,3.435581,-1.231989\H,0,-7.172616,
 0.996083,1.132151\H,0,-4.364291,1.57691,-2.056093\H,0,-8.417875,3.0009
 45,0.402845\H,0,-5.590451,3.599029,-2.77005\H,0,-7.63135,4.322181,-1.5
 49815\N,0,4.978266,0.00002,0.000103\C,0,5.68699,1.154558,0.414335\C,0,
 6.831289,1.56698,-0.271699\C,0,5.251761,1.896543,1.51441\C,0,7.527834,
 2.693112,0.142653\C,0,5.943923,3.031822,1.910819\C,0,7.08759,3.435293,
 1.232069\H,0,7.172649,0.995729,-1.132\H,0,4.364233,1.577285,2.056034\H
 ,0,8.418333,3.000297,-0.402674\H,0,5.59085,3.599137,2.770027\H,0,7.631
 979,4.321768,1.549941\C,0,5.687017,-1.154516,-0.414141\C,0,6.831068,-1
 .567191,0.272109\C,0,5.251977,-1.896199,-1.514492\C,0,7.527566,-2.6933
 48,-0.142281\C,0,5.944079,-3.031486,-1.910953\C,0,7.087509,-3.435246,-
 1.231958\H,0,7.172277,-0.996155,1.132614\H,0,4.364636,-1.576682,-2.056
 275\H,0,8.417864,-3.000787,0.403227\H,0,5.591165,-3.598572,-2.770374\H
 ,0,7.631874,-4.32173,-1.549857\\Version=EM64L-G16RevA.03\State=2-A\HF=
 -1497.202723\S2=0.801238\S2-1=0.\S2A=0.751875\RMSD=7.807e-07\Dipole=0.
 0042947,0.0001048,-0.0000701\Quadrupole=70.9337526,-22.9635721,-47.970
 1805,-0.0049813,-0.0003812,0.0056554\PG=C01 [X(C36H28N2)]\\@


 HONESTY IN A LAWYER IS LIKE A HEN'S HIND LEGS.
  -- MAGNUS OLESON, LAKE WOBEGON PATRIARCH, C.1875
 Job cpu time:       0 days  4 hours 48 minutes  7.5 seconds.
 Elapsed time:       0 days  0 hours 36 minutes 26.3 seconds.
 File lengths (MBytes):  RWF=    428 Int=      0 D2E=      0 Chk=     60 Scr=      8
 Normal termination of Gaussian 16 at Sun Jan 17 23:08:51 2021.
