 Entering Gaussian System, Link 0=g16
 Input=mol_bp_pa_whol_tune_c6.gjf
 Output=mol_bp_pa_whol_tune_c6.log
 Initial command:
 /opt/ohpc/pub/libs/gaussian/g16-A.03/sandybridge/g16/l1.exe "/mnt/gpfs2_4m/scratch/rdu230/ondemand/projects/init_structures/wtuning/mol_bp_pa_whol/tuning_mol_bp_pa_whol_ocycle0/Gau-117945.inp" -scrdir="/mnt/gpfs2_4m/scratch/rdu230/ondemand/projects/init_structures/wtuning/mol_bp_pa_whol/tuning_mol_bp_pa_whol_ocycle0/"
 Entering Link 1 = /opt/ohpc/pub/libs/gaussian/g16-A.03/sandybridge/g16/l1.exe PID=    117946.
  
 Copyright (c) 1988,1990,1992,1993,1995,1998,2003,2009,2016,
            Gaussian, Inc.  All Rights Reserved.
  
 This is part of the Gaussian(R) 16 program.  It is based on
 the Gaussian(R) 09 system (copyright 2009, Gaussian, Inc.),
 the Gaussian(R) 03 system (copyright 2003, Gaussian, Inc.),
 the Gaussian(R) 98 system (copyright 1998, Gaussian, Inc.),
 the Gaussian(R) 94 system (copyright 1995, Gaussian, Inc.),
 the Gaussian 92(TM) system (copyright 1992, Gaussian, Inc.),
 the Gaussian 90(TM) system (copyright 1990, Gaussian, Inc.),
 the Gaussian 88(TM) system (copyright 1988, Gaussian, Inc.),
 the Gaussian 86(TM) system (copyright 1986, Carnegie Mellon
 University), and the Gaussian 82(TM) system (copyright 1983,
 Carnegie Mellon University). Gaussian is a federally registered
 trademark of Gaussian, Inc.
  
 This software contains proprietary and confidential information,
 including trade secrets, belonging to Gaussian, Inc.
  
 This software is provided under written license and may be
 used, copied, transmitted, or stored only in accord with that
 written license.
  
 The following legend is applicable only to US Government
 contracts under FAR:
  
                    RESTRICTED RIGHTS LEGEND
  
 Use, reproduction and disclosure by the US Government is
 subject to restrictions as set forth in subparagraphs (a)
 and (c) of the Commercial Computer Software - Restricted
 Rights clause in FAR 52.227-19.
  
 Gaussian, Inc.
 340 Quinnipiac St., Bldg. 40, Wallingford CT 06492
  
  
 ---------------------------------------------------------------
 Warning -- This program may not be used in any manner that
 competes with the business of Gaussian, Inc. or will provide
 assistance to any competitor of Gaussian, Inc.  The licensee
 of this program is prohibited from giving any competitor of
 Gaussian, Inc. access to this program.  By using this program,
 the user acknowledges that Gaussian, Inc. is engaged in the
 business of creating and licensing software in the field of
 computational chemistry and represents and warrants to the
 licensee that it is not a competitor of Gaussian, Inc. and that
 it will not use this program in any manner prohibited above.
 ---------------------------------------------------------------
  

 Cite this work as:
 Gaussian 16, Revision A.03,
 M. J. Frisch, G. W. Trucks, H. B. Schlegel, G. E. Scuseria, 
 M. A. Robb, J. R. Cheeseman, G. Scalmani, V. Barone, 
 G. A. Petersson, H. Nakatsuji, X. Li, M. Caricato, A. V. Marenich, 
 J. Bloino, B. G. Janesko, R. Gomperts, B. Mennucci, H. P. Hratchian, 
 J. V. Ortiz, A. F. Izmaylov, J. L. Sonnenberg, D. Williams-Young, 
 F. Ding, F. Lipparini, F. Egidi, J. Goings, B. Peng, A. Petrone, 
 T. Henderson, D. Ranasinghe, V. G. Zakrzewski, J. Gao, N. Rega, 
 G. Zheng, W. Liang, M. Hada, M. Ehara, K. Toyota, R. Fukuda, 
 J. Hasegawa, M. Ishida, T. Nakajima, Y. Honda, O. Kitao, H. Nakai, 
 T. Vreven, K. Throssell, J. A. Montgomery, Jr., J. E. Peralta, 
 F. Ogliaro, M. J. Bearpark, J. J. Heyd, E. N. Brothers, K. N. Kudin, 
 V. N. Staroverov, T. A. Keith, R. Kobayashi, J. Normand, 
 K. Raghavachari, A. P. Rendell, J. C. Burant, S. S. Iyengar, 
 J. Tomasi, M. Cossi, J. M. Millam, M. Klene, C. Adamo, R. Cammi, 
 J. W. Ochterski, R. L. Martin, K. Morokuma, O. Farkas, 
 J. B. Foresman, and D. J. Fox, Gaussian, Inc., Wallingford CT, 2016.
 
 ******************************************
 Gaussian 16:  EM64L-G16RevA.03 25-Dec-2016
                18-Jan-2021 
 ******************************************
 %mem=30GB
 %nproc=8
 Will use up to    8 processors via shared memory.
 ----------------------------------------------------------------------
 #P LC-wHPBE/TZVP iop(3/107=0174800000, 3/108=0174800000) scf=(conver=6
 ,fermi,ndamp=35,noincfock,novaracc,vshift=500,xqc)
 ----------------------------------------------------------------------
 1/38=1,172=1/1;
 2/12=2,17=6,18=5,40=1/2;
 3/5=19,7=101,11=2,25=1,30=1,74=-71,107=174800000,108=174800000/1,2,3;
 4//1;
 5/5=100002,6=6,8=3,10=500,13=1,18=-1,22=13,38=1,93=35/2,8;
 6/7=2,8=2,9=2,10=2,28=1/1;
 99/5=1,9=1/99;
 Leave Link    1 at Mon Jan 18 02:20:17 2021, MaxMem=  4026531840 cpu:               1.1 elap:               0.2
 (Enter /opt/ohpc/pub/libs/gaussian/g16-A.03/sandybridge/g16/l101.exe)
 ----------
 H28 C36 N2
 ----------
 Symbolic Z-matrix:
 Charge =  1 Multiplicity = 2
 C                     2.85     -1.12586   0.41564 
 C                     3.56314  -0.00003  -0.00002 
 C                     1.46449  -1.12367   0.40553 
 C                     2.85003   1.12575  -0.41581 
 C                     0.74129  -0.00005  -0.0002 
 C                     1.4645    1.12355  -0.40588 
 H                     0.9316   -2.00584   0.7562 
 H                     3.39105   2.00625  -0.75499 
 H                     0.93167   2.00573  -0.75663 
 C                    -0.74144  -0.00007  -0.00022 
 C                    -1.46464   1.12316   0.40656 
 C                    -1.46464  -1.1233   -0.40698 
 C                    -2.85015   1.12534   0.41661 
 C                    -2.85016  -1.12549  -0.41694 
 C                    -3.56326  -0.0001   -0.00012 
 H                    -0.93175   2.00502   0.75804 
 H                    -0.93178  -2.00514  -0.75855 
 H                    -3.39119   2.00553   0.75658 
 H                    -3.39121  -2.00567  -0.75691 
 H                     3.39101  -2.00636   0.75485 
 N                    -4.97843  -0.0001   -0.00007 
 C                    -5.6871   -1.15458   0.41429 
 C                    -6.83188  -1.56667  -0.27115 
 C                    -5.25132  -1.89693   1.51391 
 C                    -7.52831  -2.69283   0.14332 
 C                    -5.94339  -3.03222   1.91044 
 C                    -7.08752  -3.43537   1.23228 
 H                    -7.17368  -0.99518  -1.13112 
 H                    -4.36344  -1.57795   2.0551 
 H                    -8.41917  -2.99976  -0.40155 
 H                    -5.58986  -3.5998    2.76929 
 H                    -7.63185  -4.32185   1.55023 
 C                    -5.68703   1.15453  -0.41429 
 C                    -6.83119   1.56723   0.2718 
 C                    -5.25171   1.89638  -1.51442 
 C                    -7.52749   2.69352  -0.14253 
 C                    -5.94362   3.03183  -1.91081 
 C                    -7.08714   3.43558  -1.23199 
 H                    -7.17262   0.99608   1.13215 
 H                    -4.36429   1.57691  -2.05609 
 H                    -8.41788   3.00095   0.40285 
 H                    -5.59045   3.59903  -2.77005 
 H                    -7.63135   4.32218  -1.54982 
 N                     4.97827   0.00002   0.0001 
 C                     5.68699   1.15456   0.41434 
 C                     6.83129   1.56698  -0.2717 
 C                     5.25176   1.89654   1.51441 
 C                     7.52783   2.69311   0.14265 
 C                     5.94392   3.03182   1.91082 
 C                     7.08759   3.43529   1.23207 
 H                     7.17265   0.99573  -1.132 
 H                     4.36423   1.57729   2.05603 
 H                     8.41833   3.0003   -0.40267 
 H                     5.59085   3.59914   2.77003 
 H                     7.63198   4.32177   1.54994 
 C                     5.68702  -1.15452  -0.41414 
 C                     6.83107  -1.56719   0.27211 
 C                     5.25198  -1.8962   -1.51449 
 C                     7.52757  -2.69335  -0.14228 
 C                     5.94408  -3.03149  -1.91095 
 C                     7.08751  -3.43525  -1.23196 
 H                     7.17228  -0.99616   1.13261 
 H                     4.36464  -1.57668  -2.05627 
 H                     8.41786  -3.00079   0.40323 
 H                     5.59117  -3.59857  -2.77037 
 H                     7.63187  -4.32173  -1.54986 
 
 ITRead=  0  0  0  0  0  0  0  0  0  0  0  0  0  0  0  0  0  0  0  0
 ITRead=  0  0  0  0  0  0  0  0  0  0  0  0  0  0  0  0  0  0  0  0
 ITRead=  0  0  0  0  0  0  0  0  0  0  0  0  0  0  0  0  0  0  0  0
 ITRead=  0  0  0  0  0  0
 MicOpt= -1 -1 -1 -1 -1 -1 -1 -1 -1 -1 -1 -1 -1 -1 -1 -1 -1 -1 -1 -1
 MicOpt= -1 -1 -1 -1 -1 -1 -1 -1 -1 -1 -1 -1 -1 -1 -1 -1 -1 -1 -1 -1
 MicOpt= -1 -1 -1 -1 -1 -1 -1 -1 -1 -1 -1 -1 -1 -1 -1 -1 -1 -1 -1 -1
 MicOpt= -1 -1 -1 -1 -1 -1
 NAtoms=     66 NQM=       66 NQMF=       0 NMMI=      0 NMMIF=      0
                NMic=       0 NMicF=      0.
                    Isotopes and Nuclear Properties:
 (Nuclear quadrupole moments (NQMom) in fm**2, nuclear magnetic moments (NMagM)
  in nuclear magnetons)

  Atom         1           2           3           4           5           6           7           8           9          10
 IAtWgt=          12          12          12          12          12          12           1           1           1          12
 AtmWgt=  12.0000000  12.0000000  12.0000000  12.0000000  12.0000000  12.0000000   1.0078250   1.0078250   1.0078250  12.0000000
 NucSpn=           0           0           0           0           0           0           1           1           1           0
 AtZEff=  -0.0000000  -0.0000000  -0.0000000  -0.0000000  -0.0000000  -0.0000000  -0.0000000  -0.0000000  -0.0000000  -0.0000000
 NQMom=    0.0000000   0.0000000   0.0000000   0.0000000   0.0000000   0.0000000   0.0000000   0.0000000   0.0000000   0.0000000
 NMagM=    0.0000000   0.0000000   0.0000000   0.0000000   0.0000000   0.0000000   2.7928460   2.7928460   2.7928460   0.0000000
 AtZNuc=   6.0000000   6.0000000   6.0000000   6.0000000   6.0000000   6.0000000   1.0000000   1.0000000   1.0000000   6.0000000

  Atom        11          12          13          14          15          16          17          18          19          20
 IAtWgt=          12          12          12          12          12           1           1           1           1           1
 AtmWgt=  12.0000000  12.0000000  12.0000000  12.0000000  12.0000000   1.0078250   1.0078250   1.0078250   1.0078250   1.0078250
 NucSpn=           0           0           0           0           0           1           1           1           1           1
 AtZEff=  -0.0000000  -0.0000000  -0.0000000  -0.0000000  -0.0000000  -0.0000000  -0.0000000  -0.0000000  -0.0000000  -0.0000000
 NQMom=    0.0000000   0.0000000   0.0000000   0.0000000   0.0000000   0.0000000   0.0000000   0.0000000   0.0000000   0.0000000
 NMagM=    0.0000000   0.0000000   0.0000000   0.0000000   0.0000000   2.7928460   2.7928460   2.7928460   2.7928460   2.7928460
 AtZNuc=   6.0000000   6.0000000   6.0000000   6.0000000   6.0000000   1.0000000   1.0000000   1.0000000   1.0000000   1.0000000

  Atom        21          22          23          24          25          26          27          28          29          30
 IAtWgt=          14          12          12          12          12          12          12           1           1           1
 AtmWgt=  14.0030740  12.0000000  12.0000000  12.0000000  12.0000000  12.0000000  12.0000000   1.0078250   1.0078250   1.0078250
 NucSpn=           2           0           0           0           0           0           0           1           1           1
 AtZEff=  -0.0000000  -0.0000000  -0.0000000  -0.0000000  -0.0000000  -0.0000000  -0.0000000  -0.0000000  -0.0000000  -0.0000000
 NQMom=    2.0440000   0.0000000   0.0000000   0.0000000   0.0000000   0.0000000   0.0000000   0.0000000   0.0000000   0.0000000
 NMagM=    0.4037610   0.0000000   0.0000000   0.0000000   0.0000000   0.0000000   0.0000000   2.7928460   2.7928460   2.7928460
 AtZNuc=   7.0000000   6.0000000   6.0000000   6.0000000   6.0000000   6.0000000   6.0000000   1.0000000   1.0000000   1.0000000

  Atom        31          32          33          34          35          36          37          38          39          40
 IAtWgt=           1           1          12          12          12          12          12          12           1           1
 AtmWgt=   1.0078250   1.0078250  12.0000000  12.0000000  12.0000000  12.0000000  12.0000000  12.0000000   1.0078250   1.0078250
 NucSpn=           1           1           0           0           0           0           0           0           1           1
 AtZEff=  -0.0000000  -0.0000000  -0.0000000  -0.0000000  -0.0000000  -0.0000000  -0.0000000  -0.0000000  -0.0000000  -0.0000000
 NQMom=    0.0000000   0.0000000   0.0000000   0.0000000   0.0000000   0.0000000   0.0000000   0.0000000   0.0000000   0.0000000
 NMagM=    2.7928460   2.7928460   0.0000000   0.0000000   0.0000000   0.0000000   0.0000000   0.0000000   2.7928460   2.7928460
 AtZNuc=   1.0000000   1.0000000   6.0000000   6.0000000   6.0000000   6.0000000   6.0000000   6.0000000   1.0000000   1.0000000

  Atom        41          42          43          44          45          46          47          48          49          50
 IAtWgt=           1           1           1          14          12          12          12          12          12          12
 AtmWgt=   1.0078250   1.0078250   1.0078250  14.0030740  12.0000000  12.0000000  12.0000000  12.0000000  12.0000000  12.0000000
 NucSpn=           1           1           1           2           0           0           0           0           0           0
 AtZEff=  -0.0000000  -0.0000000  -0.0000000  -0.0000000  -0.0000000  -0.0000000  -0.0000000  -0.0000000  -0.0000000  -0.0000000
 NQMom=    0.0000000   0.0000000   0.0000000   2.0440000   0.0000000   0.0000000   0.0000000   0.0000000   0.0000000   0.0000000
 NMagM=    2.7928460   2.7928460   2.7928460   0.4037610   0.0000000   0.0000000   0.0000000   0.0000000   0.0000000   0.0000000
 AtZNuc=   1.0000000   1.0000000   1.0000000   7.0000000   6.0000000   6.0000000   6.0000000   6.0000000   6.0000000   6.0000000

  Atom        51          52          53          54          55          56          57          58          59          60
 IAtWgt=           1           1           1           1           1          12          12          12          12          12
 AtmWgt=   1.0078250   1.0078250   1.0078250   1.0078250   1.0078250  12.0000000  12.0000000  12.0000000  12.0000000  12.0000000
 NucSpn=           1           1           1           1           1           0           0           0           0           0
 AtZEff=  -0.0000000  -0.0000000  -0.0000000  -0.0000000  -0.0000000  -0.0000000  -0.0000000  -0.0000000  -0.0000000  -0.0000000
 NQMom=    0.0000000   0.0000000   0.0000000   0.0000000   0.0000000   0.0000000   0.0000000   0.0000000   0.0000000   0.0000000
 NMagM=    2.7928460   2.7928460   2.7928460   2.7928460   2.7928460   0.0000000   0.0000000   0.0000000   0.0000000   0.0000000
 AtZNuc=   1.0000000   1.0000000   1.0000000   1.0000000   1.0000000   6.0000000   6.0000000   6.0000000   6.0000000   6.0000000

  Atom        61          62          63          64          65          66
 IAtWgt=          12           1           1           1           1           1
 AtmWgt=  12.0000000   1.0078250   1.0078250   1.0078250   1.0078250   1.0078250
 NucSpn=           0           1           1           1           1           1
 AtZEff=  -0.0000000  -0.0000000  -0.0000000  -0.0000000  -0.0000000  -0.0000000
 NQMom=    0.0000000   0.0000000   0.0000000   0.0000000   0.0000000   0.0000000
 NMagM=    0.0000000   2.7928460   2.7928460   2.7928460   2.7928460   2.7928460
 AtZNuc=   6.0000000   1.0000000   1.0000000   1.0000000   1.0000000   1.0000000
 Leave Link  101 at Mon Jan 18 02:20:17 2021, MaxMem=  4026531840 cpu:               0.6 elap:               0.1
 (Enter /opt/ohpc/pub/libs/gaussian/g16-A.03/sandybridge/g16/l202.exe)
 Stoichiometry    C36H28N2(1+,2)
 Framework group  C1[X(C36H28N2)]
 Deg. of freedom   192
 Full point group                 C1      NOp   1
 Largest Abelian subgroup         C1      NOp   1
 Largest concise Abelian subgroup C1      NOp   1
                         Standard orientation:                         
 ---------------------------------------------------------------------
 Center     Atomic      Atomic             Coordinates (Angstroms)
 Number     Number       Type             X           Y           Z
 ---------------------------------------------------------------------
      1          6           0       -2.849999   -1.125861   -0.415638
      2          6           0       -3.563139   -0.000026    0.000017
      3          6           0       -1.464492   -1.123667   -0.405534
      4          6           0       -2.850033    1.125752    0.415809
      5          6           0       -0.741288   -0.000047    0.000195
      6          6           0       -1.464504    1.123547    0.405879
      7          1           0       -0.931596   -2.005844   -0.756198
      8          1           0       -3.391048    2.006254    0.754990
      9          1           0       -0.931669    2.005728    0.756629
     10          6           0        0.741437   -0.000073    0.000217
     11          6           0        1.464635    1.123165   -0.406556
     12          6           0        1.464638   -1.123302    0.406976
     13          6           0        2.850149    1.125343   -0.416610
     14          6           0        2.850163   -1.125491    0.416935
     15          6           0        3.563257   -0.000095    0.000116
     16          1           0        0.931751    2.005025   -0.758038
     17          1           0        0.931783   -2.005140    0.758553
     18          1           0        3.391193    2.005527   -0.756576
     19          1           0        3.391211   -2.005669    0.756913
     20          1           0       -3.391005   -2.006357   -0.754845
     21          7           0        4.978430   -0.000102    0.000065
     22          6           0        5.687099   -1.154578   -0.414287
     23          6           0        6.831881   -1.566674    0.271150
     24          6           0        5.251323   -1.896933   -1.513908
     25          6           0        7.528311   -2.692826   -0.143324
     26          6           0        5.943392   -3.032223   -1.910440
     27          6           0        7.087522   -3.435368   -1.232277
     28          1           0        7.173684   -0.995181    1.131117
     29          1           0        4.363437   -1.577947   -2.055099
     30          1           0        8.419174   -2.999763    0.401550
     31          1           0        5.589860   -3.599797   -2.769285
     32          1           0        7.631852   -4.321852   -1.550225
     33          6           0        5.687025    1.154532    0.414292
     34          6           0        6.831191    1.567225   -0.271802
     35          6           0        5.251707    1.896381    1.514415
     36          6           0        7.527485    2.693516    0.142525
     37          6           0        5.943620    3.031828    1.910808
     38          6           0        7.087137    3.435581    1.231989
     39          1           0        7.172616    0.996083   -1.132151
     40          1           0        4.364291    1.576910    2.056093
     41          1           0        8.417875    3.000945   -0.402845
     42          1           0        5.590451    3.599029    2.770050
     43          1           0        7.631350    4.322181    1.549815
     44          7           0       -4.978266    0.000020   -0.000103
     45          6           0       -5.686990    1.154558   -0.414335
     46          6           0       -6.831289    1.566980    0.271699
     47          6           0       -5.251761    1.896543   -1.514410
     48          6           0       -7.527834    2.693112   -0.142653
     49          6           0       -5.943923    3.031822   -1.910819
     50          6           0       -7.087590    3.435293   -1.232069
     51          1           0       -7.172649    0.995729    1.132000
     52          1           0       -4.364233    1.577285   -2.056034
     53          1           0       -8.418333    3.000297    0.402674
     54          1           0       -5.590850    3.599137   -2.770027
     55          1           0       -7.631979    4.321768   -1.549941
     56          6           0       -5.687017   -1.154516    0.414141
     57          6           0       -6.831068   -1.567191   -0.272109
     58          6           0       -5.251977   -1.896199    1.514492
     59          6           0       -7.527566   -2.693348    0.142281
     60          6           0       -5.944079   -3.031486    1.910953
     61          6           0       -7.087509   -3.435246    1.231958
     62          1           0       -7.172277   -0.996155   -1.132614
     63          1           0       -4.364636   -1.576682    2.056275
     64          1           0       -8.417864   -3.000787   -0.403227
     65          1           0       -5.591165   -3.598572    2.770374
     66          1           0       -7.631874   -4.321730    1.549857
 ---------------------------------------------------------------------
 Rotational constants (GHZ):           0.2023709           0.0339547           0.0306836
 Leave Link  202 at Mon Jan 18 02:20:17 2021, MaxMem=  4026531840 cpu:               0.2 elap:               0.0
 (Enter /opt/ohpc/pub/libs/gaussian/g16-A.03/sandybridge/g16/l301.exe)
 Standard basis: TZVP (5D, 7F)
 Ernie: Thresh=  0.10000D-02 Tol=  0.10000D-05 Strict=F.
 There are   928 symmetry adapted cartesian basis functions of A   symmetry.
 There are   890 symmetry adapted basis functions of A   symmetry.
   890 basis functions,  1554 primitive gaussians,   928 cartesian basis functions
   129 alpha electrons      128 beta electrons
       nuclear repulsion energy      3528.7655398436 Hartrees.
 IExCor=33909 DFT=T Ex+Corr=LC-wHPBE ExCW=0 ScaHFX=  1.000000
 ScaDFX=  1.000000  1.000000  1.000000  1.000000 ScalE2=  1.000000  1.000000
 IRadAn=      5 IRanWt=     -1 IRanGd=            0 ICorTp=0 IEmpDi=  4
 HFx  wShort=  0.000000 wLong=  0.174800 cFull=  0.000000 cShort=  0.000000 cLong=  1.000000
 DFx  wShort=  0.000000 wLong=  0.174800 cFull=  0.000000 cShort=  1.000000 cLong=  0.000000
 NAtoms=   66 NActive=   66 NUniq=   66 SFac= 1.00D+00 NAtFMM=   60 NAOKFM=T Big=T
 Integral buffers will be    131072 words long.
 Raffenetti 2 integral format.
 Two-electron integral symmetry is turned on.
 Leave Link  301 at Mon Jan 18 02:20:17 2021, MaxMem=  4026531840 cpu:               0.5 elap:               0.1
 (Enter /opt/ohpc/pub/libs/gaussian/g16-A.03/sandybridge/g16/l302.exe)
 NPDir=0 NMtPBC=     1 NCelOv=     1 NCel=       1 NClECP=     1 NCelD=      1
         NCelK=      1 NCelE2=     1 NClLst=     1 CellRange=     0.0.
 One-electron integrals computed using PRISM.
 One-electron integral symmetry used in STVInt
 NBasis=   890 RedAO= T EigKep=  6.71D-06  NBF=   890
 NBsUse=   890 1.00D-06 EigRej= -1.00D+00 NBFU=   890
 Precomputing XC quadrature grid using
 IXCGrd= 4 IRadAn=           5 IRanWt=          -1 IRanGd=           0 AccXCQ= 0.00D+00.
 Generated NRdTot=       0 NPtTot=           0 NUsed=           0 NTot=          32
 NSgBfM=   852   844   846   852   852 MxSgAt=    66 MxSgA2=    66.
 Leave Link  302 at Mon Jan 18 02:20:20 2021, MaxMem=  4026531840 cpu:              16.9 elap:               2.1
 (Enter /opt/ohpc/pub/libs/gaussian/g16-A.03/sandybridge/g16/l303.exe)
 DipDrv:  MaxL=1.
 Leave Link  303 at Mon Jan 18 02:20:20 2021, MaxMem=  4026531840 cpu:               1.0 elap:               0.2
 (Enter /opt/ohpc/pub/libs/gaussian/g16-A.03/sandybridge/g16/l401.exe)
 ExpMin= 9.52D-02 ExpMax= 1.97D+04 ExpMxC= 6.73D+02 IAcc=3 IRadAn=         5 AccDes= 0.00D+00
 Harris functional with IExCor=33909 and IRadAn=       5 diagonalized for initial guess.
 HarFok:  IExCor=33909 AccDes= 0.00D+00 IRadAn=         5 IDoV= 1 UseB2=F ITyADJ=14
 ICtDFT=  3500011 ScaDFX=  1.000000  1.000000  1.000000  1.000000
 FoFCou: FMM=F IPFlag=           0 FMFlag=      100000 FMFlg1=        2001
         NFxFlg=           0 DoJE=T BraDBF=F KetDBF=T FulRan=T
         wScrn=  0.000000 ICntrl=       500 IOpCl=  0 I1Cent=   200000004 NGrid=           0
         NMat0=    1 NMatS0=      1 NMatT0=    0 NMatD0=    1 NMtDS0=    0 NMtDT0=    0
 Petite list used in FoFCou.
 Harris En= -1472.97000387352    
 JPrj=0 DoOrth=F DoCkMO=F.
 Initial guess <Sx>= 0.0000 <Sy>= 0.0000 <Sz>= 0.5000 <S**2>= 0.7500 S= 0.5000
 Leave Link  401 at Mon Jan 18 02:20:30 2021, MaxMem=  4026531840 cpu:              80.5 elap:              10.2
 (Enter /opt/ohpc/pub/libs/gaussian/g16-A.03/sandybridge/g16/l502.exe)
 Integral symmetry usage will be decided dynamically.
 UHF open shell SCF:
 Using DIIS extrapolation, IDIIS=    10.
 NGot=  4026531840 LenX=  4024793050 LenY=  4023930938
 Requested convergence on RMS density matrix=1.00D-06 within  32 cycles.
 Requested convergence on MAX density matrix=1.00D-04.
 Requested convergence on             energy=1.00D-04.
 Virtual orbitals will be shifted by   0.500 hartree.
 No special actions if energy rises.
 Dynamic level shift is on during FON iterations.

 Cycle   1  Pass 1  IDiag  1:
 FoFJK:  IHMeth= 1 ICntrl=       0 DoSepK=T KAlg= 0 I1Cent=           0 FoldK=F
 IRaf=         1 NMat=       1 IRICut=       1 DoRegI=T DoRafI=F ISym2E= 0 IDoP0=0 IntGTp=1.
 FoFCou: FMM=T IPFlag=           0 FMFlag=      100000 FMFlg1=        2001
         NFxFlg=           0 DoJE=T BraDBF=F KetDBF=F FulRan=T
         wScrn=  0.000000 ICntrl=       500 IOpCl=  0 I1Cent=           0 NGrid=           0
         NMat0=    1 NMatS0=      1 NMatT0=    0 NMatD0=    1 NMtDS0=    0 NMtDT0=    0
 Symmetry not used in FoFCou.
 FMM levels:  10  Number of levels for PrismC:   9
 E= -1496.33038349949    
 DIIS: error= 3.11D-02 at cycle   1 NSaved=   1.
 NSaved= 1 IEnMin= 1 EnMin= -1496.33038349949     IErMin= 1 ErrMin= 3.11D-02
 ErrMax= 3.11D-02  0.00D+00 EMaxC= 1.00D+00 BMatC= 2.50D+00 BMatP= 2.50D+00
 IDIUse=1 WtCom= 1.00D+00 WtEn= 0.00D+00
 Coeff-Com:  0.100D+01
 Coeff:      0.100D+01
 Gap=     0.281 Goal=   None    Shift=    0.500
 T= 1517. Gap= 0.719 NK=0 IS=  130 IE=  890 IFin=  129
          NO(<0.9)=   0  NV(>0.1)=   0    129.00e < EF      0.00e >EF  Err=0.0D+00
 Gap=     0.079 Goal=   None    Shift=    0.500
 T= 1517. Gap= 0.532 NK=0 IS=  129 IE=  890 IFin=  128
          NO(<0.9)=   0  NV(>0.1)=   0    128.00e < EF      0.00e >EF  Err=0.0D+00
 GapD=    0.079 DampG=0.500 DampE=0.500 DampFc=0.2500 IDamp=-1.
 Damping current iteration by 2.50D-01
 RMSDP=2.03D-03 MaxDP=7.61D-02              OVMax= 9.93D-02

 Cycle   2  Pass 1  IDiag  1:
 E= -1496.55804405330     Delta-E=       -0.227660553810 Rises=F Damp=T
 DIIS: error= 2.26D-02 at cycle   2 NSaved=   2.
 NSaved= 2 IEnMin= 2 EnMin= -1496.55804405330     IErMin= 2 ErrMin= 2.26D-02
 ErrMax= 2.26D-02  0.00D+00 EMaxC= 1.00D+00 BMatC= 1.17D+00 BMatP= 2.50D+00
 IDIUse=1 WtCom= 1.00D+00 WtEn= 0.00D+00
 Coeff-Com: -0.194D+01 0.294D+01
 Coeff:     -0.194D+01 0.294D+01
 Gap=     0.268 Goal=   None    Shift=    0.500
 T= 1460. Gap= 0.732 NK=0 IS=  130 IE=  890 IFin=  129
          NO(<0.9)=   0  NV(>0.1)=   0    129.00e < EF      0.00e >EF  Err=0.0D+00
 Gap=     0.115 Goal=   None    Shift=    0.500
 T= 1460. Gap= 0.574 NK=0 IS=  129 IE=  890 IFin=  128
          NO(<0.9)=   0  NV(>0.1)=   0    128.00e < EF      0.00e >EF  Err=0.0D+00
 GapD=    0.115 DampG=1.000 DampE=0.500 DampFc=0.5000 IDamp=-1.
 Damping current iteration by 5.00D-01
 RMSDP=1.51D-03 MaxDP=7.65D-02 DE=-2.28D-01 OVMax= 3.25D-02

 Cycle   3  Pass 1  IDiag  1:
 E= -1496.79475443271     Delta-E=       -0.236710379413 Rises=F Damp=T
 DIIS: error= 1.05D-02 at cycle   3 NSaved=   3.
 NSaved= 3 IEnMin= 3 EnMin= -1496.79475443271     IErMin= 3 ErrMin= 1.05D-02
 ErrMax= 1.05D-02  0.00D+00 EMaxC= 1.00D+00 BMatC= 2.30D-01 BMatP= 1.17D+00
 IDIUse=1 WtCom= 1.00D+00 WtEn= 0.00D+00
 Coeff-Com:  0.338D-01-0.828D+00 0.179D+01
 Coeff:      0.338D-01-0.828D+00 0.179D+01
 Gap=     0.247 Goal=   None    Shift=    0.500
 T= 1293. Gap= 0.745 NK=4 IS=  130 IE=  145 IFin=  129
          NO(<0.9)=   0  NV(>0.1)=   0    129.00e < EF      0.00e >EF  Err=0.0D+00
 Gap=     0.079 Goal=   None    Shift=    0.500
 T= 1293. Gap= 0.577 NK=4 IS=  129 IE=  143 IFin=  128
          NO(<0.9)=   0  NV(>0.1)=   0    128.00e < EF      0.00e >EF  Err=0.0D+00
 GapD=    0.079 DampG=0.500 DampE=0.500 DampFc=0.2500 IDamp=-1.
 Damping current iteration by 2.50D-01
 RMSDP=7.72D-04 MaxDP=4.56D-02 DE=-2.37D-01 OVMax= 1.09D-02

 Cycle   4  Pass 1  IDiag  1:
 E= -1496.84122061852     Delta-E=       -0.046466185809 Rises=F Damp=T
 DIIS: error= 7.73D-03 at cycle   4 NSaved=   4.
 NSaved= 4 IEnMin= 4 EnMin= -1496.84122061852     IErMin= 4 ErrMin= 7.73D-03
 ErrMax= 7.73D-03  0.00D+00 EMaxC= 1.00D+00 BMatC= 1.22D-01 BMatP= 2.30D-01
 IDIUse=1 WtCom= 1.00D+00 WtEn= 0.00D+00
 Coeff-Com:  0.197D+00-0.315D+00-0.271D+01 0.383D+01
 Coeff:      0.197D+00-0.315D+00-0.271D+01 0.383D+01
 Gap=     0.244 Goal=   None    Shift=    0.500
 T= 1021. Gap= 0.744 NK=4 IS=  130 IE=  146 IFin=  129
          NO(<0.9)=   0  NV(>0.1)=   0    129.00e < EF      0.00e >EF  Err=0.0D+00
 Gap=     0.078 Goal=   None    Shift=    0.500
 T= 1021. Gap= 0.578 NK=4 IS=  129 IE=  143 IFin=  128
          NO(<0.9)=   0  NV(>0.1)=   0    128.00e < EF      0.00e >EF  Err=0.0D+00
 GapD=    0.078 DampG=0.500 DampE=1.000 DampFc=0.5000 IDamp=-1.
 Damping current iteration by 5.00D-01
 RMSDP=5.75D-04 MaxDP=3.84D-02 DE=-4.65D-02 OVMax= 8.68D-03

 Cycle   5  Pass 1  IDiag  1:
 E= -1496.90389216904     Delta-E=       -0.062671550512 Rises=F Damp=T
 DIIS: error= 3.81D-03 at cycle   5 NSaved=   5.
 NSaved= 5 IEnMin= 5 EnMin= -1496.90389216904     IErMin= 5 ErrMin= 3.81D-03
 ErrMax= 3.81D-03  0.00D+00 EMaxC= 1.00D+00 BMatC= 2.85D-02 BMatP= 1.22D-01
 IDIUse=1 WtCom= 1.00D+00 WtEn= 0.00D+00
 Coeff-Com:  0.587D-01-0.392D-01 0.335D+00-0.175D+01 0.240D+01
 Coeff:      0.587D-01-0.392D-01 0.335D+00-0.175D+01 0.240D+01
 Gap=     0.245 Goal=   None    Shift=    0.500
 T=  651. Gap= 0.745 NK=4 IS=  130 IE=  146 IFin=  129
          NO(<0.9)=   0  NV(>0.1)=   0    129.00e < EF      0.00e >EF  Err=0.0D+00
 Gap=     0.079 Goal=   None    Shift=    0.500
 T=  651. Gap= 0.579 NK=4 IS=  129 IE=  143 IFin=  128
          NO(<0.9)=   0  NV(>0.1)=   0    128.00e < EF      0.00e >EF  Err=0.0D+00
 GapD=    0.079 DampG=0.500 DampE=1.000 DampFc=0.5000 IDamp=-1.
 Damping current iteration by 5.00D-01
 RMSDP=2.98D-04 MaxDP=2.13D-02 DE=-6.27D-02 OVMax= 7.27D-03

 Cycle   6  Pass 1  IDiag  1:
 E= -1496.93275775355     Delta-E=       -0.028865584512 Rises=F Damp=T
 DIIS: error= 1.90D-03 at cycle   6 NSaved=   6.
 NSaved= 6 IEnMin= 6 EnMin= -1496.93275775355     IErMin= 6 ErrMin= 1.90D-03
 ErrMax= 1.90D-03  0.00D+00 EMaxC= 1.00D+00 BMatC= 7.06D-03 BMatP= 2.85D-02
 IDIUse=1 WtCom= 1.00D+00 WtEn= 0.00D+00
 Coeff-Com: -0.339D-01 0.613D-01 0.748D+00-0.100D+01-0.145D+01 0.267D+01
 Coeff:     -0.339D-01 0.613D-01 0.748D+00-0.100D+01-0.145D+01 0.267D+01
 Gap=     0.245 Goal=   None    Shift=    0.500
 T=  355. Gap= 0.746 NK=4 IS=  130 IE=  146 IFin=  129
          NO(<0.9)=   0  NV(>0.1)=   0    129.00e < EF      0.00e >EF  Err=0.0D+00
 Gap=     0.079 Goal=   None    Shift=    0.500
 T=  355. Gap= 0.579 NK=4 IS=  129 IE=  143 IFin=  128
          NO(<0.9)=   0  NV(>0.1)=   0    128.00e < EF      0.00e >EF  Err=0.0D+00
 GapD=    0.079 DampG=0.500 DampE=1.000 DampFc=0.5000 IDamp=-1.
 Damping current iteration by 5.00D-01
 RMSDP=1.71D-04 MaxDP=1.18D-02 DE=-2.89D-02 OVMax= 6.58D-03

 Cycle   7  Pass 1  IDiag  1:
 E= -1496.94675799428     Delta-E=       -0.014000240736 Rises=F Damp=T
 DIIS: error= 1.17D-03 at cycle   7 NSaved=   7.
 NSaved= 7 IEnMin= 7 EnMin= -1496.94675799428     IErMin= 7 ErrMin= 1.17D-03
 ErrMax= 1.17D-03  0.00D+00 EMaxC= 1.00D+00 BMatC= 1.85D-03 BMatP= 7.06D-03
 IDIUse=1 WtCom= 1.00D+00 WtEn= 0.00D+00
 Coeff-Com: -0.212D-01 0.211D-01-0.135D+00 0.590D+00-0.932D-01-0.343D+01
 Coeff-Com:  0.407D+01
 Coeff:     -0.212D-01 0.211D-01-0.135D+00 0.590D+00-0.932D-01-0.343D+01
 Coeff:      0.407D+01
 Gap=     0.246 Goal=   None    Shift=    0.500
 Gap=     0.080 Goal=   None    Shift=    0.500
 GapD=    0.080 DampG=0.500 DampE=1.000 DampFc=0.5000 IDamp=-1.
 Damping current iteration by 5.00D-01
 RMSDP=1.09D-04 MaxDP=6.62D-03 DE=-1.40D-02 OVMax= 6.38D-03

 Cycle   8  Pass 1  IDiag  1:
 E= -1496.95371129486     Delta-E=       -0.006953300572 Rises=F Damp=T
 DIIS: error= 9.64D-04 at cycle   8 NSaved=   8.
 NSaved= 8 IEnMin= 8 EnMin= -1496.95371129486     IErMin= 8 ErrMin= 9.64D-04
 ErrMax= 9.64D-04  0.00D+00 EMaxC= 1.00D+00 BMatC= 5.23D-04 BMatP= 1.85D-03
 IDIUse=1 WtCom= 1.00D+00 WtEn= 0.00D+00
 Coeff-Com:  0.635D-02-0.839D-02-0.358D+00 0.504D+00 0.781D+00-0.134D+01
 Coeff-Com: -0.270D+01 0.411D+01
 Coeff:      0.635D-02-0.839D-02-0.358D+00 0.504D+00 0.781D+00-0.134D+01
 Coeff:     -0.270D+01 0.411D+01
 Gap=     0.246 Goal=   None    Shift=    0.500
 Gap=     0.081 Goal=   None    Shift=    0.500
 RMSDP=7.19D-05 MaxDP=4.04D-03 DE=-6.95D-03 OVMax= 5.61D-03

 Cycle   9  Pass 1  IDiag  1:
 E= -1496.96072868241     Delta-E=       -0.007017387553 Rises=F Damp=F
 DIIS: error= 6.41D-04 at cycle   9 NSaved=   9.
 NSaved= 9 IEnMin= 9 EnMin= -1496.96072868241     IErMin= 9 ErrMin= 6.41D-04
 ErrMax= 6.41D-04  0.00D+00 EMaxC= 1.00D+00 BMatC= 3.18D-05 BMatP= 5.23D-04
 IDIUse=1 WtCom= 1.00D+00 WtEn= 0.00D+00
 Coeff-Com:  0.112D-01-0.705D-02-0.167D+00-0.219D-01 0.720D+00 0.783D+00
 Coeff-Com: -0.322D+01 0.117D+01 0.172D+01
 Coeff:      0.112D-01-0.705D-02-0.167D+00-0.219D-01 0.720D+00 0.783D+00
 Coeff:     -0.322D+01 0.117D+01 0.172D+01
 Gap=     0.246 Goal=   None    Shift=    0.500
 Gap=     0.082 Goal=   None    Shift=    0.500
 RMSDP=1.76D-05 MaxDP=1.54D-03 DE=-7.02D-03 OVMax= 5.06D-03

 Cycle  10  Pass 1  IDiag  1:
 E= -1496.96078626944     Delta-E=       -0.000057587029 Rises=F Damp=F
 DIIS: error= 5.03D-04 at cycle  10 NSaved=  10.
 NSaved=10 IEnMin=10 EnMin= -1496.96078626944     IErMin=10 ErrMin= 5.03D-04
 ErrMax= 5.03D-04  0.00D+00 EMaxC= 1.00D+00 BMatC= 1.99D-05 BMatP= 3.18D-05
 IDIUse=1 WtCom= 1.00D+00 WtEn= 0.00D+00
 Coeff-Com: -0.483D-02 0.130D-01 0.109D+00-0.286D+00-0.495D-01 0.864D+00
 Coeff-Com:  0.631D+00-0.237D+01-0.312D+00 0.241D+01
 Coeff:     -0.483D-02 0.130D-01 0.109D+00-0.286D+00-0.495D-01 0.864D+00
 Coeff:      0.631D+00-0.237D+01-0.312D+00 0.241D+01
 Gap=     0.246 Goal=   None    Shift=    0.500
 Gap=     0.082 Goal=   None    Shift=    0.500
 RMSDP=1.40D-05 MaxDP=1.11D-03 DE=-5.76D-05 OVMax= 4.43D-03

 Cycle  11  Pass 1  IDiag  1:
 E= -1496.96082500769     Delta-E=       -0.000038738257 Rises=F Damp=F
 DIIS: error= 3.98D-04 at cycle  11 NSaved=  11.
 NSaved=11 IEnMin=11 EnMin= -1496.96082500769     IErMin=11 ErrMin= 3.98D-04
 ErrMax= 3.98D-04  0.00D+00 EMaxC= 1.00D+00 BMatC= 1.28D-05 BMatP= 1.99D-05
 IDIUse=1 WtCom= 1.00D+00 WtEn= 0.00D+00
 Coeff-Com: -0.963D-02 0.135D-01 0.122D+00-0.117D+00-0.387D+00 0.293D-01
 Coeff-Com:  0.231D+01-0.244D+01-0.948D+00 0.437D+00 0.198D+01
 Coeff:     -0.963D-02 0.135D-01 0.122D+00-0.117D+00-0.387D+00 0.293D-01
 Coeff:      0.231D+01-0.244D+01-0.948D+00 0.437D+00 0.198D+01
 Gap=     0.246 Goal=   None    Shift=    0.500
 Gap=     0.082 Goal=   None    Shift=    0.500
 RMSDP=1.08D-05 MaxDP=8.56D-04 DE=-3.87D-05 OVMax= 3.84D-03

 Cycle  12  Pass 1  IDiag  1:
 E= -1496.96085045419     Delta-E=       -0.000025446496 Rises=F Damp=F
 DIIS: error= 3.40D-04 at cycle  12 NSaved=  12.
 NSaved=12 IEnMin=12 EnMin= -1496.96085045419     IErMin=12 ErrMin= 3.40D-04
 ErrMax= 3.40D-04  0.00D+00 EMaxC= 1.00D+00 BMatC= 8.23D-06 BMatP= 1.28D-05
 IDIUse=1 WtCom= 1.00D+00 WtEn= 0.00D+00
 Coeff-Com: -0.140D-02-0.208D-02-0.197D-01 0.155D+00-0.222D+00-0.512D+00
 Coeff-Com:  0.977D+00-0.187D-01-0.149D+00-0.166D+01-0.301D+00 0.276D+01
 Coeff:     -0.140D-02-0.208D-02-0.197D-01 0.155D+00-0.222D+00-0.512D+00
 Coeff:      0.977D+00-0.187D-01-0.149D+00-0.166D+01-0.301D+00 0.276D+01
 Gap=     0.246 Goal=   None    Shift=    0.500
 Gap=     0.083 Goal=   None    Shift=    0.500
 RMSDP=9.50D-06 MaxDP=7.79D-04 DE=-2.54D-05 OVMax= 3.51D-03

 Cycle  13  Pass 1  IDiag  1:
 E= -1496.96086772886     Delta-E=       -0.000017274672 Rises=F Damp=F
 DIIS: error= 2.90D-04 at cycle  13 NSaved=  13.
 NSaved=13 IEnMin=13 EnMin= -1496.96086772886     IErMin=13 ErrMin= 2.90D-04
 ErrMax= 2.90D-04  0.00D+00 EMaxC= 1.00D+00 BMatC= 5.74D-06 BMatP= 8.23D-06
 IDIUse=1 WtCom= 1.00D+00 WtEn= 0.00D+00
 Coeff-Com:  0.348D-02-0.512D-02-0.610D-01 0.106D+00 0.372D-01-0.701D-01
 Coeff-Com: -0.578D+00 0.770D+00 0.583D+00-0.750D+00-0.194D+01 0.751D+00
 Coeff-Com:  0.215D+01
 Coeff:      0.348D-02-0.512D-02-0.610D-01 0.106D+00 0.372D-01-0.701D-01
 Coeff:     -0.578D+00 0.770D+00 0.583D+00-0.750D+00-0.194D+01 0.751D+00
 Coeff:      0.215D+01
 Gap=     0.246 Goal=   None    Shift=    0.500
 Gap=     0.083 Goal=   None    Shift=    0.500
 RMSDP=6.99D-06 MaxDP=5.62D-04 DE=-1.73D-05 OVMax= 2.92D-03

 Cycle  14  Pass 1  IDiag  1:
 E= -1496.96087855786     Delta-E=       -0.000010828998 Rises=F Damp=F
 DIIS: error= 2.46D-04 at cycle  14 NSaved=  14.
 NSaved=14 IEnMin=14 EnMin= -1496.96087855786     IErMin=14 ErrMin= 2.46D-04
 ErrMax= 2.46D-04  0.00D+00 EMaxC= 1.00D+00 BMatC= 3.89D-06 BMatP= 5.74D-06
 IDIUse=1 WtCom= 1.00D+00 WtEn= 0.00D+00
 Coeff-Com:  0.356D-02-0.220D-02-0.347D-01-0.170D-01 0.147D+00 0.327D+00
 Coeff-Com: -0.964D+00 0.355D+00 0.702D+00 0.633D+00-0.190D+01-0.774D+00
 Coeff-Com:  0.315D+00 0.221D+01
 Coeff:      0.356D-02-0.220D-02-0.347D-01-0.170D-01 0.147D+00 0.327D+00
 Coeff:     -0.964D+00 0.355D+00 0.702D+00 0.633D+00-0.190D+01-0.774D+00
 Coeff:      0.315D+00 0.221D+01
 Gap=     0.246 Goal=   None    Shift=    0.500
 Gap=     0.083 Goal=   None    Shift=    0.500
 RMSDP=5.42D-06 MaxDP=4.28D-04 DE=-1.08D-05 OVMax= 2.47D-03

 Cycle  15  Pass 1  IDiag  1:
 E= -1496.96088559289     Delta-E=       -0.000007035034 Rises=F Damp=F
 DIIS: error= 2.07D-04 at cycle  15 NSaved=  15.
 NSaved=15 IEnMin=15 EnMin= -1496.96088559289     IErMin=15 ErrMin= 2.07D-04
 ErrMax= 2.07D-04  0.00D+00 EMaxC= 1.00D+00 BMatC= 2.80D-06 BMatP= 3.89D-06
 IDIUse=1 WtCom= 1.00D+00 WtEn= 0.00D+00
 Coeff-Com: -0.293D-02 0.409D-02 0.467D-01-0.662D-01-0.959D-01 0.423D-01
 Coeff-Com:  0.930D+00-0.122D+01-0.196D+00 0.719D+00 0.690D+00 0.332D+00
 Coeff-Com: -0.329D+01-0.131D+00 0.324D+01
 Coeff:     -0.293D-02 0.409D-02 0.467D-01-0.662D-01-0.959D-01 0.423D-01
 Coeff:      0.930D+00-0.122D+01-0.196D+00 0.719D+00 0.690D+00 0.332D+00
 Coeff:     -0.329D+01-0.131D+00 0.324D+01
 Gap=     0.246 Goal=   None    Shift=    0.500
 Gap=     0.083 Goal=   None    Shift=    0.500
 RMSDP=4.44D-06 MaxDP=3.70D-04 DE=-7.04D-06 OVMax= 2.17D-03

 Cycle  16  Pass 1  IDiag  1:
 E= -1496.96089058333     Delta-E=       -0.000004990440 Rises=F Damp=F
 DIIS: error= 1.73D-04 at cycle  16 NSaved=  16.
 NSaved=16 IEnMin=16 EnMin= -1496.96089058333     IErMin=16 ErrMin= 1.73D-04
 ErrMax= 1.73D-04  0.00D+00 EMaxC= 1.00D+00 BMatC= 1.93D-06 BMatP= 2.80D-06
 IDIUse=1 WtCom= 1.00D+00 WtEn= 0.00D+00
 Coeff-Com: -0.264D-02 0.336D-02 0.156D-01 0.952D-02-0.111D+00-0.141D+00
 Coeff-Com:  0.909D+00-0.848D+00-0.120D+00-0.461D-01 0.533D+00 0.996D+00
 Coeff-Com: -0.178D+01-0.543D+00-0.331D+00 0.246D+01
 Coeff:     -0.264D-02 0.336D-02 0.156D-01 0.952D-02-0.111D+00-0.141D+00
 Coeff:      0.909D+00-0.848D+00-0.120D+00-0.461D-01 0.533D+00 0.996D+00
 Coeff:     -0.178D+01-0.543D+00-0.331D+00 0.246D+01
 Gap=     0.246 Goal=   None    Shift=    0.500
 Gap=     0.083 Goal=   None    Shift=    0.500
 RMSDP=3.34D-06 MaxDP=2.56D-04 DE=-4.99D-06 OVMax= 1.75D-03

 Cycle  17  Pass 1  IDiag  1:
 E= -1496.96089385917     Delta-E=       -0.000003275833 Rises=F Damp=F
 DIIS: error= 1.44D-04 at cycle  17 NSaved=  17.
 NSaved=17 IEnMin=17 EnMin= -1496.96089385917     IErMin=17 ErrMin= 1.44D-04
 ErrMax= 1.44D-04  0.00D+00 EMaxC= 1.00D+00 BMatC= 1.31D-06 BMatP= 1.93D-06
 IDIUse=1 WtCom= 1.00D+00 WtEn= 0.00D+00
 Coeff-Com:  0.278D-03 0.224D-03-0.262D-01 0.512D-01-0.112D-01-0.703D-01
 Coeff-Com: -0.187D-01 0.127D+00 0.232D+00-0.469D+00-0.485D+00 0.588D+00
 Coeff-Com:  0.796D+00 0.344D-01-0.256D+01 0.681D+00 0.213D+01
 Coeff:      0.278D-03 0.224D-03-0.262D-01 0.512D-01-0.112D-01-0.703D-01
 Coeff:     -0.187D-01 0.127D+00 0.232D+00-0.469D+00-0.485D+00 0.588D+00
 Coeff:      0.796D+00 0.344D-01-0.256D+01 0.681D+00 0.213D+01
 Gap=     0.246 Goal=   None    Shift=    0.500
 Gap=     0.083 Goal=   None    Shift=    0.500
 RMSDP=2.64D-06 MaxDP=1.87D-04 DE=-3.28D-06 OVMax= 1.48D-03

 Cycle  18  Pass 1  IDiag  1:
 E= -1496.96089610766     Delta-E=       -0.000002248490 Rises=F Damp=F
 DIIS: error= 1.18D-04 at cycle  18 NSaved=  18.
 NSaved=18 IEnMin=18 EnMin= -1496.96089610766     IErMin=18 ErrMin= 1.18D-04
 ErrMax= 1.18D-04  0.00D+00 EMaxC= 1.00D+00 BMatC= 8.59D-07 BMatP= 1.31D-06
 IDIUse=1 WtCom= 1.00D+00 WtEn= 0.00D+00
 Coeff-Com:  0.151D-02-0.118D-02-0.156D-01 0.129D-03 0.546D-01 0.138D+00
 Coeff-Com: -0.527D+00 0.363D+00 0.282D+00 0.266D-01-0.808D+00-0.271D+00
 Coeff-Com:  0.999D+00 0.544D+00-0.339D+00-0.180D+01-0.542D+00 0.290D+01
 Coeff:      0.151D-02-0.118D-02-0.156D-01 0.129D-03 0.546D-01 0.138D+00
 Coeff:     -0.527D+00 0.363D+00 0.282D+00 0.266D-01-0.808D+00-0.271D+00
 Coeff:      0.999D+00 0.544D+00-0.339D+00-0.180D+01-0.542D+00 0.290D+01
 Gap=     0.246 Goal=   None    Shift=    0.500
 Gap=     0.083 Goal=   None    Shift=    0.500
 RMSDP=2.36D-06 MaxDP=1.77D-04 DE=-2.25D-06 OVMax= 1.29D-03

 Cycle  19  Pass 1  IDiag  1:
 E= -1496.96089766215     Delta-E=       -0.000001554495 Rises=F Damp=F
 DIIS: error= 9.73D-05 at cycle  19 NSaved=  19.
 NSaved=19 IEnMin=19 EnMin= -1496.96089766215     IErMin=19 ErrMin= 9.73D-05
 ErrMax= 9.73D-05  0.00D+00 EMaxC= 1.00D+00 BMatC= 6.40D-07 BMatP= 8.59D-07
 IDIUse=1 WtCom= 1.00D+00 WtEn= 0.00D+00
 Coeff-Com:  0.814D-03-0.448D-03 0.452D-02-0.349D-01 0.368D-01 0.178D+00
 Coeff-Com: -0.276D+00-0.226D-01 0.147D+00 0.465D+00-0.521D+00-0.414D+00
 Coeff-Com: -0.149D+00 0.560D+00 0.168D+01-0.190D+01-0.239D+01 0.198D+01
 Coeff-Com:  0.165D+01
 Coeff:      0.814D-03-0.448D-03 0.452D-02-0.349D-01 0.368D-01 0.178D+00
 Coeff:     -0.276D+00-0.226D-01 0.147D+00 0.465D+00-0.521D+00-0.414D+00
 Coeff:     -0.149D+00 0.560D+00 0.168D+01-0.190D+01-0.239D+01 0.198D+01
 Coeff:      0.165D+01
 Gap=     0.246 Goal=   None    Shift=    0.500
 Gap=     0.083 Goal=   None    Shift=    0.500
 RMSDP=1.89D-06 MaxDP=1.36D-04 DE=-1.55D-06 OVMax= 1.08D-03

 Cycle  20  Pass 1  IDiag  1:
 E= -1496.96089869098     Delta-E=       -0.000001028827 Rises=F Damp=F
 DIIS: error= 7.98D-05 at cycle  20 NSaved=  20.
 NSaved=20 IEnMin=20 EnMin= -1496.96089869098     IErMin=20 ErrMin= 7.98D-05
 ErrMax= 7.98D-05  0.00D+00 EMaxC= 1.00D+00 BMatC= 4.50D-07 BMatP= 6.40D-07
 IDIUse=1 WtCom= 1.00D+00 WtEn= 0.00D+00
 Coeff-Com: -0.254D-03 0.671D-03 0.112D-01-0.271D-01-0.132D-01 0.707D-01
 Coeff-Com:  0.220D+00-0.442D+00 0.192D-01 0.499D+00-0.122D+00-0.371D-01
 Coeff-Com: -0.110D+01 0.338D+00 0.179D+01-0.262D+00-0.216D+01-0.353D+00
 Coeff-Com:  0.549D+00 0.202D+01
 Coeff:     -0.254D-03 0.671D-03 0.112D-01-0.271D-01-0.132D-01 0.707D-01
 Coeff:      0.220D+00-0.442D+00 0.192D-01 0.499D+00-0.122D+00-0.371D-01
 Coeff:     -0.110D+01 0.338D+00 0.179D+01-0.262D+00-0.216D+01-0.353D+00
 Coeff:      0.549D+00 0.202D+01
 Gap=     0.246 Goal=   None    Shift=    0.500
 Gap=     0.083 Goal=   None    Shift=    0.500
 RMSDP=1.50D-06 MaxDP=1.04D-04 DE=-1.03D-06 OVMax= 9.26D-04

 Cycle  21  Pass 1  IDiag  1:
 E= -1496.96089937717     Delta-E=       -0.000000686186 Rises=F Damp=F
 DIIS: error= 6.40D-05 at cycle  21 NSaved=  20.
 NSaved=20 IEnMin=20 EnMin= -1496.96089937717     IErMin=20 ErrMin= 6.40D-05
 ErrMax= 6.40D-05  0.00D+00 EMaxC= 1.00D+00 BMatC= 3.10D-07 BMatP= 4.50D-07
 IDIUse=1 WtCom= 1.00D+00 WtEn= 0.00D+00
 Coeff-Com:  0.206D-03 0.336D-02-0.854D-02-0.117D-01 0.351D-01 0.142D+00
 Coeff-Com: -0.275D+00 0.669D-01 0.249D+00-0.182D+00 0.866D-01-0.586D+00
 Coeff-Com:  0.280D+00 0.619D+00 0.130D+00-0.846D+00-0.424D+00 0.638D-01
 Coeff-Com: -0.426D+00 0.208D+01
 Coeff:      0.206D-03 0.336D-02-0.854D-02-0.117D-01 0.351D-01 0.142D+00
 Coeff:     -0.275D+00 0.669D-01 0.249D+00-0.182D+00 0.866D-01-0.586D+00
 Coeff:      0.280D+00 0.619D+00 0.130D+00-0.846D+00-0.424D+00 0.638D-01
 Coeff:     -0.426D+00 0.208D+01
 Gap=     0.246 Goal=   None    Shift=    0.500
 Gap=     0.084 Goal=   None    Shift=    0.500
 RMSDP=1.03D-06 MaxDP=6.22D-05 DE=-6.86D-07 OVMax= 7.32D-04

 Cycle  22  Pass 1  IDiag  1:
 E= -1496.96089979428     Delta-E=       -0.000000417110 Rises=F Damp=F
 DIIS: error= 5.09D-05 at cycle  22 NSaved=  20.
 NSaved=20 IEnMin=20 EnMin= -1496.96089979428     IErMin=20 ErrMin= 5.09D-05
 ErrMax= 5.09D-05  0.00D+00 EMaxC= 1.00D+00 BMatC= 1.95D-07 BMatP= 3.10D-07
 IDIUse=1 WtCom= 1.00D+00 WtEn= 0.00D+00
 Coeff-Com:  0.469D-03 0.257D-03-0.435D-02 0.134D-01-0.681D-02-0.183D-01
 Coeff-Com:  0.546D-01-0.152D-01-0.138D+00 0.682D-01 0.647D-01 0.127D+00
 Coeff-Com: -0.220D+00-0.101D+00 0.261D+00 0.369D+00-0.140D+00-0.153D+01
 Coeff-Com: -0.619D+00 0.283D+01
 Coeff:      0.469D-03 0.257D-03-0.435D-02 0.134D-01-0.681D-02-0.183D-01
 Coeff:      0.546D-01-0.152D-01-0.138D+00 0.682D-01 0.647D-01 0.127D+00
 Coeff:     -0.220D+00-0.101D+00 0.261D+00 0.369D+00-0.140D+00-0.153D+01
 Coeff:     -0.619D+00 0.283D+01
 Gap=     0.246 Goal=   None    Shift=    0.500
 Gap=     0.084 Goal=   None    Shift=    0.500
 RMSDP=7.92D-07 MaxDP=4.09D-05 DE=-4.17D-07 OVMax= 5.76D-04

 SCF Done:  E(ULC-wHPBE) =  -1496.96089979     A.U. after   22 cycles
            NFock= 22  Conv=0.79D-06     -V/T= 2.0046
 <Sx>= 0.0000 <Sy>= 0.0000 <Sz>= 0.5000 <S**2>= 0.7715 S= 0.5107
 <L.S>= 0.000000000000E+00
 KE= 1.490083713945D+03 PE=-1.050767616513D+04 EE= 3.991866011548D+03
 Annihilation of the first spin contaminant:
 S**2 before annihilation     0.7715,   after     0.7503
 Leave Link  502 at Mon Jan 18 02:51:01 2021, MaxMem=  4026531840 cpu:           14477.4 elap:            1830.8
 (Enter /opt/ohpc/pub/libs/gaussian/g16-A.03/sandybridge/g16/l508.exe)
 QCSCF skips out because SCF is already converged.
 Leave Link  508 at Mon Jan 18 02:51:01 2021, MaxMem=  4026531840 cpu:               0.0 elap:               0.0
 (Enter /opt/ohpc/pub/libs/gaussian/g16-A.03/sandybridge/g16/l601.exe)
 Copying SCF densities to generalized density rwf, IOpCl= 1 IROHF=0.

 **********************************************************************

            Population analysis using the SCF density.

 **********************************************************************

 Orbital symmetries:
 Alpha Orbitals:
       Occupied  (A) (A) (A) (A) (A) (A) (A) (A) (A) (A) (A) (A)
                 (A) (A) (A) (A) (A) (A) (A) (A) (A) (A) (A) (A)
                 (A) (A) (A) (A) (A) (A) (A) (A) (A) (A) (A) (A)
                 (A) (A) (A) (A) (A) (A) (A) (A) (A) (A) (A) (A)
                 (A) (A) (A) (A) (A) (A) (A) (A) (A) (A) (A) (A)
                 (A) (A) (A) (A) (A) (A) (A) (A) (A) (A) (A) (A)
                 (A) (A) (A) (A) (A) (A) (A) (A) (A) (A) (A) (A)
                 (A) (A) (A) (A) (A) (A) (A) (A) (A) (A) (A) (A)
                 (A) (A) (A) (A) (A) (A) (A) (A) (A) (A) (A) (A)
                 (A) (A) (A) (A) (A) (A) (A) (A) (A) (A) (A) (A)
                 (A) (A) (A) (A) (A) (A) (A) (A) (A)
       Virtual   (A) (A) (A) (A) (A) (A) (A) (A) (A) (A) (A) (A)
                 (A) (A) (A) (A) (A) (A) (A) (A) (A) (A) (A) (A)
                 (A) (A) (A) (A) (A) (A) (A) (A) (A) (A) (A) (A)
                 (A) (A) (A) (A) (A) (A) (A) (A) (A) (A) (A) (A)
                 (A) (A) (A) (A) (A) (A) (A) (A) (A) (A) (A) (A)
                 (A) (A) (A) (A) (A) (A) (A) (A) (A) (A) (A) (A)
                 (A) (A) (A) (A) (A) (A) (A) (A) (A) (A) (A) (A)
                 (A) (A) (A) (A) (A) (A) (A) (A) (A) (A) (A) (A)
                 (A) (A) (A) (A) (A) (A) (A) (A) (A) (A) (A) (A)
                 (A) (A) (A) (A) (A) (A) (A) (A) (A) (A) (A) (A)
                 (A) (A) (A) (A) (A) (A) (A) (A) (A) (A) (A) (A)
                 (A) (A) (A) (A) (A) (A) (A) (A) (A) (A) (A) (A)
                 (A) (A) (A) (A) (A) (A) (A) (A) (A) (A) (A) (A)
                 (A) (A) (A) (A) (A) (A) (A) (A) (A) (A) (A) (A)
                 (A) (A) (A) (A) (A) (A) (A) (A) (A) (A) (A) (A)
                 (A) (A) (A) (A) (A) (A) (A) (A) (A) (A) (A) (A)
                 (A) (A) (A) (A) (A) (A) (A) (A) (A) (A) (A) (A)
                 (A) (A) (A) (A) (A) (A) (A) (A) (A) (A) (A) (A)
                 (A) (A) (A) (A) (A) (A) (A) (A) (A) (A) (A) (A)
                 (A) (A) (A) (A) (A) (A) (A) (A) (A) (A) (A) (A)
                 (A) (A) (A) (A) (A) (A) (A) (A) (A) (A) (A) (A)
                 (A) (A) (A) (A) (A) (A) (A) (A) (A) (A) (A) (A)
                 (A) (A) (A) (A) (A) (A) (A) (A) (A) (A) (A) (A)
                 (A) (A) (A) (A) (A) (A) (A) (A) (A) (A) (A) (A)
                 (A) (A) (A) (A) (A) (A) (A) (A) (A) (A) (A) (A)
                 (A) (A) (A) (A) (A) (A) (A) (A) (A) (A) (A) (A)
                 (A) (A) (A) (A) (A) (A) (A) (A) (A) (A) (A) (A)
                 (A) (A) (A) (A) (A) (A) (A) (A) (A) (A) (A) (A)
                 (A) (A) (A) (A) (A) (A) (A) (A) (A) (A) (A) (A)
                 (A) (A) (A) (A) (A) (A) (A) (A) (A) (A) (A) (A)
                 (A) (A) (A) (A) (A) (A) (A) (A) (A) (A) (A) (A)
                 (A) (A) (A) (A) (A) (A) (A) (A) (A) (A) (A) (A)
                 (A) (A) (A) (A) (A) (A) (A) (A) (A) (A) (A) (A)
                 (A) (A) (A) (A) (A) (A) (A) (A) (A) (A) (A) (A)
                 (A) (A) (A) (A) (A) (A) (A) (A) (A) (A) (A) (A)
                 (A) (A) (A) (A) (A) (A) (A) (A) (A) (A) (A) (A)
                 (A) (A) (A) (A) (A) (A) (A) (A) (A) (A) (A) (A)
                 (A) (A) (A) (A) (A) (A) (A) (A) (A) (A) (A) (A)
                 (A) (A) (A) (A) (A) (A) (A) (A) (A) (A) (A) (A)
                 (A) (A) (A) (A) (A) (A) (A) (A) (A) (A) (A) (A)
                 (A) (A) (A) (A) (A) (A) (A) (A) (A) (A) (A) (A)
                 (A) (A) (A) (A) (A) (A) (A) (A) (A) (A) (A) (A)
                 (A) (A) (A) (A) (A) (A) (A) (A) (A) (A) (A) (A)
                 (A) (A) (A) (A) (A) (A) (A) (A) (A) (A) (A) (A)
                 (A) (A) (A) (A) (A) (A) (A) (A) (A) (A) (A) (A)
                 (A) (A) (A) (A) (A) (A) (A) (A) (A) (A) (A) (A)
                 (A) (A) (A) (A) (A) (A) (A) (A) (A) (A) (A) (A)
                 (A) (A) (A) (A) (A) (A) (A) (A) (A) (A) (A) (A)
                 (A) (A) (A) (A) (A) (A) (A) (A) (A) (A) (A) (A)
                 (A) (A) (A) (A) (A) (A) (A) (A) (A) (A) (A) (A)
                 (A) (A) (A) (A) (A) (A) (A) (A) (A) (A) (A) (A)
                 (A) (A) (A) (A) (A) (A) (A) (A) (A) (A) (A) (A)
                 (A) (A) (A) (A) (A) (A) (A) (A) (A) (A) (A) (A)
                 (A) (A) (A) (A) (A) (A) (A) (A) (A) (A) (A) (A)
                 (A) (A) (A) (A) (A) (A) (A) (A) (A) (A) (A) (A)
                 (A) (A) (A) (A) (A) (A) (A) (A) (A) (A) (A) (A)
                 (A) (A) (A) (A) (A) (A) (A) (A) (A) (A) (A) (A)
                 (A) (A) (A) (A) (A) (A) (A) (A) (A) (A) (A) (A)
                 (A) (A) (A) (A) (A) (A) (A) (A) (A) (A) (A) (A)
                 (A) (A) (A) (A) (A) (A) (A) (A) (A) (A) (A) (A)
                 (A) (A) (A) (A) (A) (A) (A) (A) (A) (A) (A) (A)
                 (A) (A) (A) (A) (A) (A) (A) (A) (A) (A) (A) (A)
                 (A) (A) (A) (A) (A) (A) (A) (A) (A) (A) (A) (A)
                 (A) (A) (A) (A) (A)
 Beta  Orbitals:
       Occupied  (A) (A) (A) (A) (A) (A) (A) (A) (A) (A) (A) (A)
                 (A) (A) (A) (A) (A) (A) (A) (A) (A) (A) (A) (A)
                 (A) (A) (A) (A) (A) (A) (A) (A) (A) (A) (A) (A)
                 (A) (A) (A) (A) (A) (A) (A) (A) (A) (A) (A) (A)
                 (A) (A) (A) (A) (A) (A) (A) (A) (A) (A) (A) (A)
                 (A) (A) (A) (A) (A) (A) (A) (A) (A) (A) (A) (A)
                 (A) (A) (A) (A) (A) (A) (A) (A) (A) (A) (A) (A)
                 (A) (A) (A) (A) (A) (A) (A) (A) (A) (A) (A) (A)
                 (A) (A) (A) (A) (A) (A) (A) (A) (A) (A) (A) (A)
                 (A) (A) (A) (A) (A) (A) (A) (A) (A) (A) (A) (A)
                 (A) (A) (A) (A) (A) (A) (A) (A)
       Virtual   (A) (A) (A) (A) (A) (A) (A) (A) (A) (A) (A) (A)
                 (A) (A) (A) (A) (A) (A) (A) (A) (A) (A) (A) (A)
                 (A) (A) (A) (A) (A) (A) (A) (A) (A) (A) (A) (A)
                 (A) (A) (A) (A) (A) (A) (A) (A) (A) (A) (A) (A)
                 (A) (A) (A) (A) (A) (A) (A) (A) (A) (A) (A) (A)
                 (A) (A) (A) (A) (A) (A) (A) (A) (A) (A) (A) (A)
                 (A) (A) (A) (A) (A) (A) (A) (A) (A) (A) (A) (A)
                 (A) (A) (A) (A) (A) (A) (A) (A) (A) (A) (A) (A)
                 (A) (A) (A) (A) (A) (A) (A) (A) (A) (A) (A) (A)
                 (A) (A) (A) (A) (A) (A) (A) (A) (A) (A) (A) (A)
                 (A) (A) (A) (A) (A) (A) (A) (A) (A) (A) (A) (A)
                 (A) (A) (A) (A) (A) (A) (A) (A) (A) (A) (A) (A)
                 (A) (A) (A) (A) (A) (A) (A) (A) (A) (A) (A) (A)
                 (A) (A) (A) (A) (A) (A) (A) (A) (A) (A) (A) (A)
                 (A) (A) (A) (A) (A) (A) (A) (A) (A) (A) (A) (A)
                 (A) (A) (A) (A) (A) (A) (A) (A) (A) (A) (A) (A)
                 (A) (A) (A) (A) (A) (A) (A) (A) (A) (A) (A) (A)
                 (A) (A) (A) (A) (A) (A) (A) (A) (A) (A) (A) (A)
                 (A) (A) (A) (A) (A) (A) (A) (A) (A) (A) (A) (A)
                 (A) (A) (A) (A) (A) (A) (A) (A) (A) (A) (A) (A)
                 (A) (A) (A) (A) (A) (A) (A) (A) (A) (A) (A) (A)
                 (A) (A) (A) (A) (A) (A) (A) (A) (A) (A) (A) (A)
                 (A) (A) (A) (A) (A) (A) (A) (A) (A) (A) (A) (A)
                 (A) (A) (A) (A) (A) (A) (A) (A) (A) (A) (A) (A)
                 (A) (A) (A) (A) (A) (A) (A) (A) (A) (A) (A) (A)
                 (A) (A) (A) (A) (A) (A) (A) (A) (A) (A) (A) (A)
                 (A) (A) (A) (A) (A) (A) (A) (A) (A) (A) (A) (A)
                 (A) (A) (A) (A) (A) (A) (A) (A) (A) (A) (A) (A)
                 (A) (A) (A) (A) (A) (A) (A) (A) (A) (A) (A) (A)
                 (A) (A) (A) (A) (A) (A) (A) (A) (A) (A) (A) (A)
                 (A) (A) (A) (A) (A) (A) (A) (A) (A) (A) (A) (A)
                 (A) (A) (A) (A) (A) (A) (A) (A) (A) (A) (A) (A)
                 (A) (A) (A) (A) (A) (A) (A) (A) (A) (A) (A) (A)
                 (A) (A) (A) (A) (A) (A) (A) (A) (A) (A) (A) (A)
                 (A) (A) (A) (A) (A) (A) (A) (A) (A) (A) (A) (A)
                 (A) (A) (A) (A) (A) (A) (A) (A) (A) (A) (A) (A)
                 (A) (A) (A) (A) (A) (A) (A) (A) (A) (A) (A) (A)
                 (A) (A) (A) (A) (A) (A) (A) (A) (A) (A) (A) (A)
                 (A) (A) (A) (A) (A) (A) (A) (A) (A) (A) (A) (A)
                 (A) (A) (A) (A) (A) (A) (A) (A) (A) (A) (A) (A)
                 (A) (A) (A) (A) (A) (A) (A) (A) (A) (A) (A) (A)
                 (A) (A) (A) (A) (A) (A) (A) (A) (A) (A) (A) (A)
                 (A) (A) (A) (A) (A) (A) (A) (A) (A) (A) (A) (A)
                 (A) (A) (A) (A) (A) (A) (A) (A) (A) (A) (A) (A)
                 (A) (A) (A) (A) (A) (A) (A) (A) (A) (A) (A) (A)
                 (A) (A) (A) (A) (A) (A) (A) (A) (A) (A) (A) (A)
                 (A) (A) (A) (A) (A) (A) (A) (A) (A) (A) (A) (A)
                 (A) (A) (A) (A) (A) (A) (A) (A) (A) (A) (A) (A)
                 (A) (A) (A) (A) (A) (A) (A) (A) (A) (A) (A) (A)
                 (A) (A) (A) (A) (A) (A) (A) (A) (A) (A) (A) (A)
                 (A) (A) (A) (A) (A) (A) (A) (A) (A) (A) (A) (A)
                 (A) (A) (A) (A) (A) (A) (A) (A) (A) (A) (A) (A)
                 (A) (A) (A) (A) (A) (A) (A) (A) (A) (A) (A) (A)
                 (A) (A) (A) (A) (A) (A) (A) (A) (A) (A) (A) (A)
                 (A) (A) (A) (A) (A) (A) (A) (A) (A) (A) (A) (A)
                 (A) (A) (A) (A) (A) (A) (A) (A) (A) (A) (A) (A)
                 (A) (A) (A) (A) (A) (A) (A) (A) (A) (A) (A) (A)
                 (A) (A) (A) (A) (A) (A) (A) (A) (A) (A) (A) (A)
                 (A) (A) (A) (A) (A) (A) (A) (A) (A) (A) (A) (A)
                 (A) (A) (A) (A) (A) (A) (A) (A) (A) (A) (A) (A)
                 (A) (A) (A) (A) (A) (A) (A) (A) (A) (A) (A) (A)
                 (A) (A) (A) (A) (A) (A) (A) (A) (A) (A) (A) (A)
                 (A) (A) (A) (A) (A) (A) (A) (A) (A) (A) (A) (A)
                 (A) (A) (A) (A) (A) (A)
 The electronic state is 2-A.
 Alpha  occ. eigenvalues --  -14.25207 -14.25207 -10.14512 -10.14509 -10.12826
 Alpha  occ. eigenvalues --  -10.12825 -10.12824 -10.12824 -10.11157 -10.11143
 Alpha  occ. eigenvalues --  -10.09890 -10.09890 -10.09887 -10.09886 -10.09849
 Alpha  occ. eigenvalues --  -10.09848 -10.09848 -10.09848 -10.08472 -10.08472
 Alpha  occ. eigenvalues --  -10.08471 -10.08471 -10.08310 -10.08309 -10.08309
 Alpha  occ. eigenvalues --  -10.08308 -10.07900 -10.07899 -10.07899 -10.07899
 Alpha  occ. eigenvalues --  -10.07827 -10.07826 -10.07826 -10.07826 -10.07719
 Alpha  occ. eigenvalues --  -10.07718 -10.07718 -10.07718  -1.11154  -1.11150
 Alpha  occ. eigenvalues --   -1.01216  -0.99469  -0.98524  -0.98523  -0.97241
 Alpha  occ. eigenvalues --   -0.96713  -0.92531  -0.89939  -0.89598  -0.89122
 Alpha  occ. eigenvalues --   -0.88658  -0.88324  -0.87635  -0.87299  -0.87298
 Alpha  occ. eigenvalues --   -0.87214  -0.85377  -0.83752  -0.78915  -0.78256
 Alpha  occ. eigenvalues --   -0.77125  -0.76204  -0.75756  -0.74580  -0.74259
 Alpha  occ. eigenvalues --   -0.73943  -0.73790  -0.73451  -0.71617  -0.71280
 Alpha  occ. eigenvalues --   -0.69294  -0.68538  -0.68354  -0.68113  -0.66234
 Alpha  occ. eigenvalues --   -0.63905  -0.63781  -0.63260  -0.62391  -0.62097
 Alpha  occ. eigenvalues --   -0.61936  -0.60423  -0.60291  -0.59699  -0.59590
 Alpha  occ. eigenvalues --   -0.59535  -0.58784  -0.58094  -0.57839  -0.57721
 Alpha  occ. eigenvalues --   -0.57637  -0.57563  -0.57504  -0.56453  -0.56323
 Alpha  occ. eigenvalues --   -0.56119  -0.56119  -0.55851  -0.54788  -0.54291
 Alpha  occ. eigenvalues --   -0.53451  -0.53187  -0.52849  -0.52819  -0.51436
 Alpha  occ. eigenvalues --   -0.51226  -0.50736  -0.50439  -0.50212  -0.49835
 Alpha  occ. eigenvalues --   -0.49800  -0.49073  -0.48742  -0.48379  -0.48351
 Alpha  occ. eigenvalues --   -0.47742  -0.46845  -0.44457  -0.43079  -0.43056
 Alpha  occ. eigenvalues --   -0.42045  -0.42038  -0.41722  -0.41217  -0.41197
 Alpha  occ. eigenvalues --   -0.40751  -0.40589  -0.36144  -0.34958
 Alpha virt. eigenvalues --   -0.10392  -0.08188  -0.08061  -0.07059  -0.07049
 Alpha virt. eigenvalues --   -0.06393  -0.05777  -0.05656  -0.04862  -0.04830
 Alpha virt. eigenvalues --   -0.03329  -0.02183   0.00798   0.01424   0.02465
 Alpha virt. eigenvalues --    0.02654   0.02820   0.02936   0.03145   0.04353
 Alpha virt. eigenvalues --    0.04572   0.04695   0.05248   0.05386   0.05411
 Alpha virt. eigenvalues --    0.05749   0.06393   0.06579   0.06720   0.07088
 Alpha virt. eigenvalues --    0.07562   0.07970   0.08107   0.08112   0.08449
 Alpha virt. eigenvalues --    0.08484   0.08723   0.08758   0.08799   0.09049
 Alpha virt. eigenvalues --    0.09439   0.09569   0.10077   0.10300   0.10993
 Alpha virt. eigenvalues --    0.11516   0.11807   0.11835   0.12324   0.12930
 Alpha virt. eigenvalues --    0.14467   0.14832   0.15152   0.15303   0.15371
 Alpha virt. eigenvalues --    0.16004   0.16048   0.16272   0.16418   0.16678
 Alpha virt. eigenvalues --    0.16882   0.17070   0.17337   0.17420   0.17614
 Alpha virt. eigenvalues --    0.17731   0.18858   0.18913   0.18975   0.19004
 Alpha virt. eigenvalues --    0.19076   0.19192   0.19383   0.19420   0.19571
 Alpha virt. eigenvalues --    0.19934   0.20142   0.20512   0.20826   0.20981
 Alpha virt. eigenvalues --    0.20988   0.21038   0.21382   0.21621   0.21650
 Alpha virt. eigenvalues --    0.21789   0.22257   0.22462   0.22579   0.22582
 Alpha virt. eigenvalues --    0.23537   0.24016   0.24508   0.24601   0.24616
 Alpha virt. eigenvalues --    0.24742   0.24912   0.24986   0.25477   0.26274
 Alpha virt. eigenvalues --    0.26329   0.26442   0.26666   0.26964   0.27139
 Alpha virt. eigenvalues --    0.27551   0.27616   0.28045   0.28259   0.28491
 Alpha virt. eigenvalues --    0.28552   0.28739   0.29065   0.29217   0.30490
 Alpha virt. eigenvalues --    0.30633   0.30800   0.30952   0.31069   0.31883
 Alpha virt. eigenvalues --    0.32069   0.32336   0.32346   0.33103   0.33106
 Alpha virt. eigenvalues --    0.33140   0.33368   0.33670   0.34119   0.34275
 Alpha virt. eigenvalues --    0.34318   0.35168   0.35184   0.35370   0.35425
 Alpha virt. eigenvalues --    0.35642   0.35646   0.35950   0.35998   0.36149
 Alpha virt. eigenvalues --    0.36513   0.36959   0.36984   0.37481   0.37823
 Alpha virt. eigenvalues --    0.38105   0.38698   0.38906   0.38981   0.38990
 Alpha virt. eigenvalues --    0.39378   0.39499   0.39660   0.39885   0.39911
 Alpha virt. eigenvalues --    0.39922   0.39933   0.40123   0.40556   0.40720
 Alpha virt. eigenvalues --    0.41194   0.41460   0.42053   0.42318   0.42532
 Alpha virt. eigenvalues --    0.42732   0.42823   0.42865   0.43127   0.43981
 Alpha virt. eigenvalues --    0.44240   0.44546   0.44621   0.44847   0.44900
 Alpha virt. eigenvalues --    0.45199   0.45848   0.45955   0.46059   0.46186
 Alpha virt. eigenvalues --    0.46514   0.46596   0.46965   0.47057   0.47153
 Alpha virt. eigenvalues --    0.47715   0.47895   0.48034   0.48451   0.48463
 Alpha virt. eigenvalues --    0.49312   0.49891   0.49976   0.50277   0.50745
 Alpha virt. eigenvalues --    0.50910   0.50913   0.51475   0.51534   0.51747
 Alpha virt. eigenvalues --    0.52254   0.52843   0.53203   0.53813   0.54204
 Alpha virt. eigenvalues --    0.56496   0.56693   0.56706   0.56749   0.57429
 Alpha virt. eigenvalues --    0.57488   0.58002   0.58253   0.58840   0.59734
 Alpha virt. eigenvalues --    0.60492   0.61419   0.61883   0.62197   0.62920
 Alpha virt. eigenvalues --    0.62981   0.63211   0.63316   0.63821   0.64347
 Alpha virt. eigenvalues --    0.64822   0.65032   0.65330   0.65397   0.65433
 Alpha virt. eigenvalues --    0.65493   0.65508   0.65685   0.65701   0.66680
 Alpha virt. eigenvalues --    0.66899   0.67454   0.68094   0.68450   0.69033
 Alpha virt. eigenvalues --    0.69054   0.70058   0.70512   0.71329   0.71499
 Alpha virt. eigenvalues --    0.72287   0.73319   0.73489   0.73587   0.73701
 Alpha virt. eigenvalues --    0.75366   0.75681   0.76605   0.77007   0.77546
 Alpha virt. eigenvalues --    0.79779   0.79894   0.80020   0.80686   0.81331
 Alpha virt. eigenvalues --    0.81744   0.81878   0.82251   0.86190   0.87344
 Alpha virt. eigenvalues --    0.87622   0.87770   0.90057   0.90191   1.06640
 Alpha virt. eigenvalues --    1.08408   1.09442   1.09948   1.09960   1.13736
 Alpha virt. eigenvalues --    1.14136   1.14143   1.14750   1.15700   1.15963
 Alpha virt. eigenvalues --    1.16272   1.16438   1.17146   1.17241   1.17809
 Alpha virt. eigenvalues --    1.17853   1.18138   1.18321   1.18826   1.19586
 Alpha virt. eigenvalues --    1.19761   1.19956   1.20568   1.20608   1.20671
 Alpha virt. eigenvalues --    1.20680   1.21511   1.21561   1.21757   1.21887
 Alpha virt. eigenvalues --    1.22191   1.22613   1.22820   1.22944   1.23010
 Alpha virt. eigenvalues --    1.23561   1.24133   1.24335   1.24396   1.24424
 Alpha virt. eigenvalues --    1.24837   1.24928   1.25133   1.25302   1.25920
 Alpha virt. eigenvalues --    1.25927   1.26320   1.26438   1.26754   1.27186
 Alpha virt. eigenvalues --    1.27641   1.27686   1.28050   1.28181   1.28708
 Alpha virt. eigenvalues --    1.28893   1.29037   1.33667   1.34138   1.35110
 Alpha virt. eigenvalues --    1.35377   1.35674   1.35869   1.36196   1.36731
 Alpha virt. eigenvalues --    1.37188   1.37236   1.37543   1.37588   1.37723
 Alpha virt. eigenvalues --    1.37737   1.37763   1.37850   1.38430   1.38468
 Alpha virt. eigenvalues --    1.38498   1.38810   1.38910   1.39349   1.39388
 Alpha virt. eigenvalues --    1.39484   1.39613   1.39840   1.39868   1.39917
 Alpha virt. eigenvalues --    1.40073   1.40270   1.40631   1.40990   1.41090
 Alpha virt. eigenvalues --    1.41107   1.41270   1.41372   1.42903   1.43101
 Alpha virt. eigenvalues --    1.43270   1.43328   1.43878   1.43974   1.44899
 Alpha virt. eigenvalues --    1.45289   1.45421   1.45533   1.45733   1.45899
 Alpha virt. eigenvalues --    1.46249   1.46362   1.46674   1.47030   1.47229
 Alpha virt. eigenvalues --    1.47658   1.47688   1.48478   1.48521   1.48781
 Alpha virt. eigenvalues --    1.48894   1.48931   1.49271   1.49665   1.49705
 Alpha virt. eigenvalues --    1.49808   1.50392   1.50549   1.50770   1.50952
 Alpha virt. eigenvalues --    1.51524   1.51549   1.51676   1.51690   1.52307
 Alpha virt. eigenvalues --    1.52489   1.52946   1.53180   1.53458   1.53915
 Alpha virt. eigenvalues --    1.54105   1.56837   1.57351   1.58989   1.59200
 Alpha virt. eigenvalues --    1.60045   1.60132   1.60418   1.60482   1.61513
 Alpha virt. eigenvalues --    1.63496   1.64056   1.64614   1.64788   1.65398
 Alpha virt. eigenvalues --    1.67958   1.68526   1.69133   1.69297   1.69738
 Alpha virt. eigenvalues --    1.69951   1.70010   1.70375   1.70589   1.70643
 Alpha virt. eigenvalues --    1.70937   1.71197   1.71290   1.71502   1.71525
 Alpha virt. eigenvalues --    1.72258   1.72371   1.72429   1.72516   1.73037
 Alpha virt. eigenvalues --    1.73332   1.74269   1.74404   1.74522   1.74736
 Alpha virt. eigenvalues --    1.75176   1.75524   1.75573   1.75735   1.75975
 Alpha virt. eigenvalues --    1.77187   1.77630   1.77659   1.78267   1.79908
 Alpha virt. eigenvalues --    1.80591   1.80722   1.81578   1.81772   1.81944
 Alpha virt. eigenvalues --    1.81953   1.82296   1.82385   1.82403   1.82648
 Alpha virt. eigenvalues --    1.84070   1.84407   1.84654   1.84664   1.84903
 Alpha virt. eigenvalues --    1.84913   1.85120   1.85267   1.85587   1.85641
 Alpha virt. eigenvalues --    1.85642   1.85713   1.86217   1.86481   1.86492
 Alpha virt. eigenvalues --    1.86692   1.86700   1.87019   1.87271   1.87614
 Alpha virt. eigenvalues --    1.88128   1.88872   1.89626   1.90959   1.91065
 Alpha virt. eigenvalues --    1.91085   1.91107   1.91474   1.91641   1.92860
 Alpha virt. eigenvalues --    1.92927   1.92953   1.93595   1.94191   1.95367
 Alpha virt. eigenvalues --    1.95514   1.95679   1.95833   1.97300   1.97510
 Alpha virt. eigenvalues --    1.97941   1.99954   2.00196   2.00828   2.01995
 Alpha virt. eigenvalues --    2.03480   2.04474   2.04501   2.04912   2.05320
 Alpha virt. eigenvalues --    2.07074   2.08103   2.10004   2.11774   2.12239
 Alpha virt. eigenvalues --    2.12455   2.12503   2.14747   2.15311   2.16162
 Alpha virt. eigenvalues --    2.16543   2.16644   2.18315   2.18848   2.19709
 Alpha virt. eigenvalues --    2.21770   2.21809   2.22495   2.22510   2.22678
 Alpha virt. eigenvalues --    2.23012   2.23567   2.23845   2.23949   2.24005
 Alpha virt. eigenvalues --    2.24010   2.24410   2.24864   2.25016   2.25269
 Alpha virt. eigenvalues --    2.25568   2.25751   2.25955   2.26717   2.26814
 Alpha virt. eigenvalues --    2.27493   2.27540   2.27622   2.27796   2.28629
 Alpha virt. eigenvalues --    2.28769   2.28815   2.28876   2.29141   2.29230
 Alpha virt. eigenvalues --    2.29544   2.29854   2.30122   2.30529   2.30541
 Alpha virt. eigenvalues --    2.30607   2.32949   2.35753   2.36979   2.37400
 Alpha virt. eigenvalues --    2.37786   2.38564   2.38636   2.38821   2.42922
 Alpha virt. eigenvalues --    2.43039   2.43075   2.43643   2.44105   2.44209
 Alpha virt. eigenvalues --    2.44759   2.45119   2.45476   2.45631   2.45824
 Alpha virt. eigenvalues --    2.46406   2.47047   2.47489   2.48037   2.48285
 Alpha virt. eigenvalues --    2.48515   2.50317   2.50948   2.51643   2.52924
 Alpha virt. eigenvalues --    2.53061   2.55180   2.55556   2.55896   2.56215
 Alpha virt. eigenvalues --    2.57133   2.57140   2.57177   2.57628   2.57634
 Alpha virt. eigenvalues --    2.57798   2.58033   2.58156   2.58707   2.59086
 Alpha virt. eigenvalues --    2.59146   2.59926   2.60242   2.60497   2.60798
 Alpha virt. eigenvalues --    2.61273   2.65742   2.66784   2.66797   2.66960
 Alpha virt. eigenvalues --    2.67038   2.67833   2.68242   2.68634   2.68764
 Alpha virt. eigenvalues --    2.69941   2.70657   2.70994   2.71041   2.71876
 Alpha virt. eigenvalues --    2.73959   2.74936   2.75233   2.75758   2.76246
 Alpha virt. eigenvalues --    2.77421   2.77472   2.77778   2.77834   2.77927
 Alpha virt. eigenvalues --    2.81930   2.82626   2.87197   2.88322   2.88431
 Alpha virt. eigenvalues --    2.88579   2.90627   2.90643   2.91407   2.91466
 Alpha virt. eigenvalues --    2.94710   2.94742   2.94996   2.95042   2.95189
 Alpha virt. eigenvalues --    2.95673   2.96010   2.96049   2.96916   2.97031
 Alpha virt. eigenvalues --    2.97531   2.97784   2.98346   2.99336   2.99870
 Alpha virt. eigenvalues --    3.01741   3.02823   3.02833   3.02930   3.04250
 Alpha virt. eigenvalues --    3.04434   3.04927   3.06947   3.07151   3.07957
 Alpha virt. eigenvalues --    3.08228   3.09613   3.09793   3.10430   3.10529
 Alpha virt. eigenvalues --    3.10989   3.12206   3.12596   3.13064   3.13261
 Alpha virt. eigenvalues --    3.13763   3.14241   3.14778   3.15140   3.15983
 Alpha virt. eigenvalues --    3.17379   3.18243   3.21318   3.25351   3.25371
 Alpha virt. eigenvalues --    3.25644   3.26123   3.26429   3.26451   3.28759
 Alpha virt. eigenvalues --    3.30346   3.32237   3.32505   3.33752   3.33756
 Alpha virt. eigenvalues --    3.36427   3.37145   3.44715   3.45668   3.47266
 Alpha virt. eigenvalues --    3.47418   3.47600   3.47676   3.49737   3.52311
 Alpha virt. eigenvalues --    3.52799   3.52802   3.70099   3.73869   3.80996
 Alpha virt. eigenvalues --    3.83313   3.83834   3.83917  21.04411  21.10789
 Alpha virt. eigenvalues --   21.11037  21.12564  21.12789  21.25310  21.57091
 Alpha virt. eigenvalues --   21.58573  21.58588  21.61152  21.61771  21.61785
 Alpha virt. eigenvalues --   21.63988  21.64390  21.67303  21.70539  21.70739
 Alpha virt. eigenvalues --   21.79646  21.80531  21.84124  21.84721  21.86091
 Alpha virt. eigenvalues --   21.86923  21.87586  21.87797  21.89270  21.92260
 Alpha virt. eigenvalues --   21.92665  21.92998  21.94517  21.98253  21.99279
 Alpha virt. eigenvalues --   22.03876  22.04773  22.05344  22.05371  31.90940
 Alpha virt. eigenvalues --   31.91885
  Beta  occ. eigenvalues --  -14.24806 -14.24806 -10.14469 -10.14466 -10.12857
  Beta  occ. eigenvalues --  -10.12856 -10.12856 -10.12855 -10.11073 -10.11059
  Beta  occ. eigenvalues --  -10.09872 -10.09871 -10.09869 -10.09868 -10.09809
  Beta  occ. eigenvalues --  -10.09809 -10.09809 -10.09809 -10.08404 -10.08403
  Beta  occ. eigenvalues --  -10.08403 -10.08403 -10.08246 -10.08245 -10.08245
  Beta  occ. eigenvalues --  -10.08245 -10.07927 -10.07926 -10.07926 -10.07926
  Beta  occ. eigenvalues --  -10.07851 -10.07851 -10.07850 -10.07850 -10.07649
  Beta  occ. eigenvalues --  -10.07648 -10.07648 -10.07648  -1.10657  -1.10652
  Beta  occ. eigenvalues --   -1.01044  -0.99312  -0.98439  -0.98438  -0.97114
  Beta  occ. eigenvalues --   -0.96568  -0.92317  -0.89864  -0.89515  -0.88975
  Beta  occ. eigenvalues --   -0.88575  -0.88245  -0.87563  -0.87234  -0.87233
  Beta  occ. eigenvalues --   -0.87125  -0.85187  -0.83450  -0.78808  -0.78115
  Beta  occ. eigenvalues --   -0.76991  -0.76084  -0.75622  -0.74432  -0.74201
  Beta  occ. eigenvalues --   -0.73858  -0.73708  -0.73377  -0.71528  -0.71197
  Beta  occ. eigenvalues --   -0.69222  -0.68444  -0.68280  -0.68035  -0.66145
  Beta  occ. eigenvalues --   -0.63748  -0.63693  -0.63169  -0.62278  -0.61916
  Beta  occ. eigenvalues --   -0.61606  -0.60348  -0.60153  -0.59620  -0.59503
  Beta  occ. eigenvalues --   -0.59494  -0.58713  -0.58050  -0.57803  -0.57626
  Beta  occ. eigenvalues --   -0.57587  -0.57493  -0.57454  -0.56386  -0.56281
  Beta  occ. eigenvalues --   -0.56086  -0.56085  -0.55755  -0.54543  -0.53942
  Beta  occ. eigenvalues --   -0.53154  -0.52949  -0.52663  -0.52634  -0.51378
  Beta  occ. eigenvalues --   -0.51099  -0.50386  -0.50353  -0.50160  -0.49736
  Beta  occ. eigenvalues --   -0.49681  -0.48868  -0.48627  -0.48333  -0.48304
  Beta  occ. eigenvalues --   -0.47454  -0.46227  -0.43705  -0.42929  -0.42919
  Beta  occ. eigenvalues --   -0.41666  -0.41659  -0.40946  -0.40938  -0.40903
  Beta  occ. eigenvalues --   -0.40588  -0.39841  -0.31881
  Beta virt. eigenvalues --   -0.23531  -0.10038  -0.07936  -0.07783  -0.06776
  Beta virt. eigenvalues --   -0.06760  -0.05952  -0.05561  -0.05378  -0.04669
  Beta virt. eigenvalues --   -0.04605  -0.02781  -0.01575   0.00836   0.01467
  Beta virt. eigenvalues --    0.02497   0.02706   0.02852   0.02962   0.03181
  Beta virt. eigenvalues --    0.04396   0.04616   0.04732   0.05283   0.05406
  Beta virt. eigenvalues --    0.05441   0.05781   0.06426   0.06743   0.06770
  Beta virt. eigenvalues --    0.07119   0.07600   0.08034   0.08132   0.08159
  Beta virt. eigenvalues --    0.08465   0.08556   0.08856   0.08894   0.08925
  Beta virt. eigenvalues --    0.09103   0.09513   0.09630   0.10099   0.10325
  Beta virt. eigenvalues --    0.11207   0.11686   0.11930   0.12017   0.12408
  Beta virt. eigenvalues --    0.13077   0.14542   0.14889   0.15234   0.15402
  Beta virt. eigenvalues --    0.15415   0.16082   0.16123   0.16331   0.16487
  Beta virt. eigenvalues --    0.16740   0.16937   0.17174   0.17415   0.17452
  Beta virt. eigenvalues --    0.17681   0.17774   0.18957   0.19002   0.19022
  Beta virt. eigenvalues --    0.19107   0.19132   0.19287   0.19452   0.19495
  Beta virt. eigenvalues --    0.19652   0.20002   0.20218   0.20572   0.20866
  Beta virt. eigenvalues --    0.21008   0.21041   0.21065   0.21454   0.21669
  Beta virt. eigenvalues --    0.21717   0.21837   0.22336   0.22514   0.22635
  Beta virt. eigenvalues --    0.22655   0.23564   0.24082   0.24543   0.24636
  Beta virt. eigenvalues --    0.24670   0.24782   0.25035   0.25105   0.25567
  Beta virt. eigenvalues --    0.26381   0.26435   0.26539   0.26747   0.27051
  Beta virt. eigenvalues --    0.27250   0.27645   0.27752   0.28111   0.28343
  Beta virt. eigenvalues --    0.28559   0.28622   0.28845   0.29144   0.29301
  Beta virt. eigenvalues --    0.30604   0.30737   0.30910   0.31042   0.31170
  Beta virt. eigenvalues --    0.31965   0.32205   0.32437   0.32448   0.33171
  Beta virt. eigenvalues --    0.33177   0.33273   0.33474   0.33715   0.34215
  Beta virt. eigenvalues --    0.34348   0.34409   0.35224   0.35276   0.35444
  Beta virt. eigenvalues --    0.35500   0.35704   0.35708   0.36042   0.36051
  Beta virt. eigenvalues --    0.36255   0.36619   0.37055   0.37058   0.37585
  Beta virt. eigenvalues --    0.37922   0.38202   0.38753   0.39011   0.39028
  Beta virt. eigenvalues --    0.39051   0.39416   0.39526   0.39704   0.39930
  Beta virt. eigenvalues --    0.39954   0.39958   0.39990   0.40199   0.40586
  Beta virt. eigenvalues --    0.40767   0.41277   0.41514   0.42120   0.42390
  Beta virt. eigenvalues --    0.42602   0.42791   0.42879   0.42940   0.43187
  Beta virt. eigenvalues --    0.44070   0.44304   0.44596   0.44665   0.44924
  Beta virt. eigenvalues --    0.44955   0.45259   0.45898   0.46016   0.46124
  Beta virt. eigenvalues --    0.46231   0.46553   0.46638   0.47068   0.47137
  Beta virt. eigenvalues --    0.47202   0.47801   0.47962   0.48123   0.48518
  Beta virt. eigenvalues --    0.48534   0.49354   0.49964   0.50039   0.50345
  Beta virt. eigenvalues --    0.50812   0.51003   0.51010   0.51606   0.51623
  Beta virt. eigenvalues --    0.51825   0.52306   0.52923   0.53258   0.53898
  Beta virt. eigenvalues --    0.54259   0.56558   0.56757   0.56775   0.56823
  Beta virt. eigenvalues --    0.57487   0.57594   0.58074   0.58320   0.58892
  Beta virt. eigenvalues --    0.59809   0.60574   0.61528   0.61937   0.62248
  Beta virt. eigenvalues --    0.62989   0.63049   0.63270   0.63366   0.63908
  Beta virt. eigenvalues --    0.64411   0.64887   0.65087   0.65391   0.65496
  Beta virt. eigenvalues --    0.65513   0.65542   0.65564   0.65748   0.65760
  Beta virt. eigenvalues --    0.66739   0.66987   0.67512   0.68142   0.68545
  Beta virt. eigenvalues --    0.69090   0.69131   0.70122   0.70591   0.71415
  Beta virt. eigenvalues --    0.71574   0.72382   0.73400   0.73526   0.73629
  Beta virt. eigenvalues --    0.73752   0.75467   0.75739   0.76760   0.77220
  Beta virt. eigenvalues --    0.77614   0.80052   0.80217   0.80243   0.80753
  Beta virt. eigenvalues --    0.81387   0.81804   0.81925   0.82364   0.86275
  Beta virt. eigenvalues --    0.87417   0.87673   0.87820   0.90194   0.90338
  Beta virt. eigenvalues --    1.06708   1.08468   1.09505   1.09991   1.10003
  Beta virt. eigenvalues --    1.13807   1.14188   1.14206   1.14806   1.15767
  Beta virt. eigenvalues --    1.16046   1.16345   1.16519   1.17223   1.17318
  Beta virt. eigenvalues --    1.17901   1.17911   1.18204   1.18404   1.18913
  Beta virt. eigenvalues --    1.19689   1.19859   1.20035   1.20702   1.20726
  Beta virt. eigenvalues --    1.20754   1.20775   1.21584   1.21646   1.21877
  Beta virt. eigenvalues --    1.21974   1.22259   1.22680   1.22874   1.22997
  Beta virt. eigenvalues --    1.23054   1.23653   1.24210   1.24416   1.24472
  Beta virt. eigenvalues --    1.24520   1.24902   1.25003   1.25189   1.25386
  Beta virt. eigenvalues --    1.25971   1.26004   1.26413   1.26557   1.26843
  Beta virt. eigenvalues --    1.27302   1.27674   1.27724   1.28126   1.28366
  Beta virt. eigenvalues --    1.28795   1.29022   1.29184   1.33837   1.34297
  Beta virt. eigenvalues --    1.35237   1.35545   1.35767   1.35964   1.36270
  Beta virt. eigenvalues --    1.36801   1.37222   1.37454   1.37592   1.37617
  Beta virt. eigenvalues --    1.37720   1.37738   1.38013   1.38120   1.38558
  Beta virt. eigenvalues --    1.38670   1.38699   1.38877   1.38984   1.39414
  Beta virt. eigenvalues --    1.39433   1.39540   1.39702   1.39942   1.39990
  Beta virt. eigenvalues --    1.40008   1.40191   1.40435   1.40765   1.41127
  Beta virt. eigenvalues --    1.41167   1.41236   1.41409   1.41435   1.42957
  Beta virt. eigenvalues --    1.43192   1.43371   1.43385   1.43967   1.44074
  Beta virt. eigenvalues --    1.45079   1.45385   1.45456   1.45562   1.45776
  Beta virt. eigenvalues --    1.46013   1.46351   1.46459   1.46754   1.47173
  Beta virt. eigenvalues --    1.47338   1.47733   1.47822   1.48513   1.48556
  Beta virt. eigenvalues --    1.48801   1.48965   1.48968   1.49420   1.49812
  Beta virt. eigenvalues --    1.49840   1.49956   1.50524   1.50649   1.50899
  Beta virt. eigenvalues --    1.51063   1.51612   1.51657   1.51778   1.51797
  Beta virt. eigenvalues --    1.52441   1.52608   1.53111   1.53268   1.53578
  Beta virt. eigenvalues --    1.54068   1.54207   1.56988   1.57457   1.59123
  Beta virt. eigenvalues --    1.59301   1.60156   1.60238   1.60500   1.60568
  Beta virt. eigenvalues --    1.61580   1.63561   1.64115   1.64684   1.64860
  Beta virt. eigenvalues --    1.65516   1.68131   1.68643   1.69241   1.69407
  Beta virt. eigenvalues --    1.69874   1.70064   1.70164   1.70481   1.70642
  Beta virt. eigenvalues --    1.70739   1.71018   1.71251   1.71434   1.71528
  Beta virt. eigenvalues --    1.71606   1.72312   1.72518   1.72525   1.72621
  Beta virt. eigenvalues --    1.73109   1.73399   1.74372   1.74519   1.74615
  Beta virt. eigenvalues --    1.74832   1.75234   1.75620   1.75649   1.75877
  Beta virt. eigenvalues --    1.76054   1.77307   1.77740   1.77926   1.78498
  Beta virt. eigenvalues --    1.80008   1.80673   1.80849   1.81689   1.81892
[...]
 
              Baa    -0.0308    -4.138    -1.477    -1.380  0.0000  0.9895  0.1444
     2 C(13)  Bbb    -0.0206    -2.766    -0.987    -0.923  1.0000 -0.0000  0.0001
              Bcc     0.0515     6.905     2.464     2.303 -0.0001 -0.1444  0.9895
 
              Baa    -0.0075    -1.008    -0.360    -0.336  0.0646  0.6683  0.7411
     3 C(13)  Bbb    -0.0039    -0.520    -0.186    -0.174  0.9779 -0.1904  0.0865
              Bcc     0.0114     1.529     0.546     0.510  0.1989  0.7191 -0.6659
 
              Baa    -0.0229    -3.070    -1.096    -1.024 -0.5018  0.6620  0.5567
     4 C(13)  Bbb    -0.0189    -2.543    -0.907    -0.848  0.8631  0.3410  0.3725
              Bcc     0.0418     5.613     2.003     1.872 -0.0568 -0.6674  0.7425
 
              Baa    -0.0401    -5.385    -1.921    -1.796  0.0000  0.9879  0.1552
     5 C(13)  Bbb    -0.0349    -4.687    -1.672    -1.563  1.0000 -0.0000  0.0000
              Bcc     0.0751    10.071     3.594     3.359 -0.0000 -0.1552  0.9879
 
              Baa    -0.0075    -1.008    -0.360    -0.336 -0.0644  0.6684  0.7410
     6 C(13)  Bbb    -0.0039    -0.520    -0.186    -0.174  0.9780  0.1901 -0.0865
              Bcc     0.0114     1.529     0.546     0.510 -0.1987  0.7191 -0.6659
 
              Baa    -0.0021    -1.132    -0.404    -0.378 -0.1175 -0.2964  0.9478
     7 H(1)   Bbb    -0.0001    -0.033    -0.012    -0.011  0.9895  0.0460  0.1371
              Bcc     0.0022     1.166     0.416     0.389 -0.0842  0.9540  0.2878
 
              Baa    -0.0027    -1.429    -0.510    -0.477  0.0841 -0.3390  0.9370
     8 H(1)   Bbb    -0.0014    -0.747    -0.266    -0.249  0.9930  0.1066 -0.0505
              Bcc     0.0041     2.176     0.776     0.726 -0.0827  0.9347  0.3456
 
              Baa    -0.0021    -1.132    -0.404    -0.378  0.1174 -0.2965  0.9478
     9 H(1)   Bbb    -0.0001    -0.033    -0.012    -0.011  0.9895 -0.0460 -0.1370
              Bcc     0.0022     1.166     0.416     0.389  0.0842  0.9539  0.2879
 
              Baa    -0.0401    -5.379    -1.919    -1.794  0.0000  0.9878 -0.1559
    10 C(13)  Bbb    -0.0349    -4.681    -1.670    -1.561  1.0000 -0.0000 -0.0000
              Bcc     0.0750    10.060     3.590     3.356  0.0000  0.1559  0.9878
 
              Baa    -0.0075    -1.010    -0.360    -0.337 -0.0632 -0.6686  0.7410
    11 C(13)  Bbb    -0.0039    -0.522    -0.186    -0.174  0.9782 -0.1886 -0.0867
              Bcc     0.0114     1.532     0.547     0.511  0.1977  0.7193  0.6659
 
              Baa    -0.0075    -1.009    -0.360    -0.337  0.0633 -0.6683  0.7412
    12 C(13)  Bbb    -0.0039    -0.522    -0.186    -0.174  0.9782  0.1887  0.0866
              Bcc     0.0114     1.531     0.546     0.511 -0.1977  0.7195  0.6657
 
              Baa    -0.0228    -3.066    -1.094    -1.023  0.5009  0.6617 -0.5579
    13 C(13)  Bbb    -0.0189    -2.538    -0.906    -0.847  0.8636 -0.3396  0.3726
              Bcc     0.0418     5.604     2.000     1.869 -0.0571  0.6685  0.7415
 
              Baa    -0.0229    -3.067    -1.094    -1.023 -0.5009  0.6617 -0.5579
    14 C(13)  Bbb    -0.0189    -2.539    -0.906    -0.847  0.8636  0.3396 -0.3727
              Bcc     0.0418     5.606     2.000     1.870  0.0571  0.6685  0.7415
 
              Baa    -0.0309    -4.140    -1.477    -1.381 -0.0001  0.9894 -0.1452
    15 C(13)  Bbb    -0.0206    -2.769    -0.988    -0.924  1.0000  0.0000 -0.0001
              Bcc     0.0515     6.909     2.465     2.305  0.0001  0.1452  0.9894
 
              Baa    -0.0021    -1.132    -0.404    -0.378  0.1177  0.2973  0.9475
    16 H(1)   Bbb    -0.0001    -0.034    -0.012    -0.011  0.9894  0.0462 -0.1374
              Bcc     0.0022     1.166     0.416     0.389 -0.0846  0.9537 -0.2887
 
              Baa    -0.0021    -1.132    -0.404    -0.378 -0.1175  0.2974  0.9475
    17 H(1)   Bbb    -0.0001    -0.034    -0.012    -0.011  0.9895 -0.0461  0.1372
              Bcc     0.0022     1.166     0.416     0.389  0.0845  0.9536 -0.2888
 
              Baa    -0.0027    -1.430    -0.510    -0.477  0.0835  0.3397  0.9368
    18 H(1)   Bbb    -0.0014    -0.745    -0.266    -0.248  0.9931 -0.1057 -0.0502
              Bcc     0.0041     2.174     0.776     0.725  0.0820  0.9346 -0.3462
 
              Baa    -0.0027    -1.429    -0.510    -0.477 -0.0832  0.3398  0.9368
    19 H(1)   Bbb    -0.0014    -0.745    -0.266    -0.249  0.9931  0.1057  0.0499
              Bcc     0.0041     2.175     0.776     0.725 -0.0821  0.9345 -0.3463
 
              Baa    -0.0027    -1.429    -0.510    -0.477 -0.0843 -0.3390  0.9370
    20 H(1)   Bbb    -0.0014    -0.746    -0.266    -0.249  0.9930 -0.1065  0.0508
              Bcc     0.0041     2.176     0.776     0.726  0.0826  0.9348  0.3456
 
              Baa    -0.2532    -9.765    -3.484    -3.257 -0.0009  0.9478  0.3190
    21 N(14)  Bbb    -0.2521    -9.721    -3.469    -3.243  1.0000  0.0008  0.0002
              Bcc     0.5053    19.487     6.953     6.500  0.0001 -0.3190  0.9478
 
              Baa    -0.0180    -2.411    -0.860    -0.804  0.6181  0.6848 -0.3859
    22 C(13)  Bbb     0.0049     0.660     0.236     0.220  0.6267 -0.1330  0.7678
              Bcc     0.0130     1.751     0.625     0.584 -0.4745  0.7165  0.5114
 
              Baa    -0.0274    -3.673    -1.311    -1.225  0.1026  0.5860  0.8038
    23 C(13)  Bbb    -0.0239    -3.210    -1.145    -1.071 -0.6496  0.6514 -0.3920
              Bcc     0.0513     6.883     2.456     2.296  0.7533  0.4819 -0.4475
 
              Baa    -0.0290    -3.885    -1.386    -1.296  0.7306 -0.5466  0.4092
    24 C(13)  Bbb    -0.0257    -3.450    -1.231    -1.151 -0.0855  0.5213  0.8490
              Bcc     0.0547     7.335     2.617     2.447  0.6774  0.6553 -0.3342
 
              Baa    -0.0195    -2.612    -0.932    -0.871 -0.5201 -0.5938  0.6139
    25 C(13)  Bbb     0.0086     1.151     0.411     0.384  0.6967  0.1209  0.7071
              Bcc     0.0109     1.461     0.521     0.487 -0.4941  0.7955  0.3508
 
              Baa    -0.0214    -2.866    -1.022    -0.956 -0.5608 -0.5364  0.6307
    26 C(13)  Bbb     0.0093     1.252     0.447     0.418  0.6189  0.2343  0.7497
              Bcc     0.0120     1.614     0.576     0.538 -0.5499  0.8108  0.2006
 
              Baa    -0.0318    -4.268    -1.523    -1.424  0.6793  0.2048  0.7047
    27 C(13)  Bbb    -0.0286    -3.838    -1.369    -1.280 -0.5272  0.8042  0.2745
              Bcc     0.0604     8.106     2.893     2.704 -0.5105 -0.5580  0.6543
 
              Baa    -0.0021    -1.134    -0.405    -0.378  0.2537  0.8260 -0.5034
    28 H(1)   Bbb    -0.0011    -0.607    -0.217    -0.203  0.7571 -0.4935 -0.4281
              Bcc     0.0033     1.742     0.622     0.581  0.6020  0.2725  0.7505
 
              Baa    -0.0023    -1.211    -0.432    -0.404 -0.6022 -0.5167  0.6086
    29 H(1)   Bbb    -0.0008    -0.426    -0.152    -0.142 -0.2668  0.8487  0.4566
              Bcc     0.0031     1.636     0.584     0.546  0.7524 -0.1126  0.6490
 
              Baa    -0.0011    -0.602    -0.215    -0.201  0.5772  0.5868 -0.5679
    30 H(1)   Bbb     0.0002     0.081     0.029     0.027  0.7369 -0.0748  0.6718
              Bcc     0.0010     0.521     0.186     0.174 -0.3518  0.8063  0.4756
 
              Baa    -0.0012    -0.634    -0.226    -0.211  0.5846  0.6081 -0.5371
    31 H(1)   Bbb    -0.0001    -0.047    -0.017    -0.016  0.4654  0.2908  0.8359
              Bcc     0.0013     0.681     0.243     0.227 -0.6646  0.7386  0.1130
 
              Baa    -0.0041    -2.173    -0.775    -0.725  0.6742  0.1572  0.7216
    32 H(1)   Bbb    -0.0004    -0.227    -0.081    -0.076 -0.5383 -0.5643  0.6259
              Bcc     0.0045     2.400     0.856     0.801 -0.5055  0.8105  0.2959
 
              Baa    -0.0180    -2.409    -0.860    -0.804 -0.6188  0.6847 -0.3851
    33 C(13)  Bbb     0.0049     0.660     0.235     0.220 -0.6260 -0.1337  0.7682
              Bcc     0.0130     1.750     0.624     0.584  0.4745  0.7165  0.5114
 
              Baa    -0.0274    -3.670    -1.310    -1.224 -0.1024  0.5855  0.8042
    34 C(13)  Bbb    -0.0239    -3.206    -1.144    -1.069  0.6488  0.6521 -0.3922
              Bcc     0.0512     6.876     2.454     2.294  0.7540 -0.4816  0.4467
 
              Baa    -0.0289    -3.882    -1.385    -1.295  0.7302  0.5467 -0.4099
    35 C(13)  Bbb    -0.0257    -3.446    -1.230    -1.150  0.0864  0.5212  0.8491
              Bcc     0.0546     7.328     2.615     2.444  0.6778 -0.6554  0.3333
 
              Baa    -0.0194    -2.609    -0.931    -0.870  0.5206 -0.5938  0.6134
    36 C(13)  Bbb     0.0086     1.150     0.410     0.383 -0.6959  0.1211  0.7078
              Bcc     0.0109     1.460     0.521     0.487  0.4946  0.7954  0.3502
 
              Baa    -0.0213    -2.863    -1.022    -0.955  0.5615 -0.5363  0.6302
    37 C(13)  Bbb     0.0093     1.251     0.446     0.417 -0.6189  0.2333  0.7500
              Bcc     0.0120     1.612     0.575     0.538  0.5493  0.8111  0.2009
 
              Baa    -0.0318    -4.264    -1.521    -1.422 -0.6789  0.2043  0.7052
    38 C(13)  Bbb    -0.0286    -3.833    -1.368    -1.279  0.5270  0.8043  0.2744
              Bcc     0.0603     8.097     2.889     2.701  0.5112 -0.5579  0.6538
 
              Baa    -0.0021    -1.134    -0.405    -0.378 -0.2554  0.8254 -0.5035
    39 H(1)   Bbb    -0.0011    -0.607    -0.216    -0.202  0.7565  0.4949  0.4276
              Bcc     0.0033     1.740     0.621     0.580 -0.6021  0.2717  0.7508
 
              Baa    -0.0023    -1.210    -0.432    -0.404  0.6024 -0.5171  0.6080
    40 H(1)   Bbb    -0.0008    -0.425    -0.152    -0.142  0.2676  0.8485  0.4565
              Bcc     0.0031     1.635     0.583     0.545  0.7520  0.1123 -0.6496
 
              Baa    -0.0011    -0.601    -0.215    -0.201 -0.5778  0.5868 -0.5673
    41 H(1)   Bbb     0.0002     0.081     0.029     0.027  0.7361  0.0746 -0.6727
              Bcc     0.0010     0.520     0.186     0.174  0.3524  0.8063  0.4751
 
              Baa    -0.0012    -0.633    -0.226    -0.211 -0.5852  0.6081 -0.5365
    42 H(1)   Bbb    -0.0001    -0.047    -0.017    -0.016 -0.4654  0.2900  0.8363
              Bcc     0.0013     0.680     0.243     0.227  0.6641  0.7390  0.1133
 
              Baa    -0.0041    -2.171    -0.775    -0.724 -0.6738  0.1567  0.7221
    43 H(1)   Bbb    -0.0004    -0.227    -0.081    -0.076  0.5390 -0.5643  0.6254
              Bcc     0.0045     2.398     0.856     0.800  0.5054  0.8106  0.2957
 
              Baa    -0.2532    -9.765    -3.484    -3.257 -0.0004  0.9477 -0.3190
    44 N(14)  Bbb    -0.2521    -9.722    -3.469    -3.243  1.0000  0.0004 -0.0001
              Bcc     0.5053    19.487     6.953     6.500 -0.0001  0.3190  0.9477
 
              Baa    -0.0180    -2.410    -0.860    -0.804  0.6187  0.6846  0.3853
    45 C(13)  Bbb     0.0049     0.660     0.236     0.220 -0.6260  0.1334  0.7683
              Bcc     0.0130     1.750     0.624     0.584 -0.4746  0.7166 -0.5111
 
              Baa    -0.0273    -3.670    -1.310    -1.224 -0.1024 -0.5856  0.8041
    46 C(13)  Bbb    -0.0239    -3.206    -1.144    -1.069 -0.6490  0.6520  0.3922
              Bcc     0.0512     6.876     2.453     2.293  0.7539  0.4817  0.4468
 
              Baa    -0.0289    -3.881    -1.385    -1.295  0.7303 -0.5465 -0.4099
    47 C(13)  Bbb    -0.0257    -3.446    -1.230    -1.149  0.0865 -0.5212  0.8491
              Bcc     0.0546     7.327     2.615     2.444  0.6776  0.6555  0.3333
 
              Baa    -0.0194    -2.609    -0.931    -0.870  0.5204  0.5940  0.6135
    48 C(13)  Bbb     0.0086     1.149     0.410     0.383 -0.6959 -0.1214  0.7079
              Bcc     0.0109     1.459     0.521     0.487 -0.4949  0.7953 -0.3502
 
              Baa    -0.0213    -2.863    -1.021    -0.955  0.5613  0.5365  0.6302
    49 C(13)  Bbb     0.0093     1.250     0.446     0.417 -0.6189 -0.2335  0.7500
              Bcc     0.0120     1.612     0.575     0.538 -0.5495  0.8110 -0.2009
 
              Baa    -0.0318    -4.263    -1.521    -1.422 -0.6789 -0.2045  0.7052
    50 C(13)  Bbb    -0.0286    -3.833    -1.368    -1.278 -0.5272  0.8042 -0.2744
              Bcc     0.0603     8.096     2.889     2.700  0.5110  0.5581  0.6538
 
              Baa    -0.0021    -1.134    -0.405    -0.378  0.2550  0.8255  0.5036
    51 H(1)   Bbb    -0.0011    -0.606    -0.216    -0.202  0.7565 -0.4947  0.4278
              Bcc     0.0033     1.740     0.621     0.581 -0.6022 -0.2719  0.7506
 
              Baa    -0.0023    -1.210    -0.432    -0.404  0.6022  0.5174  0.6079
    52 H(1)   Bbb    -0.0008    -0.424    -0.151    -0.142 -0.2679  0.8484 -0.4566
              Bcc     0.0031     1.634     0.583     0.545  0.7520 -0.1121 -0.6495
 
              Baa    -0.0011    -0.601    -0.215    -0.201  0.5776  0.5870  0.5673
    53 H(1)   Bbb     0.0002     0.081     0.029     0.027  0.7361 -0.0743 -0.6727
              Bcc     0.0010     0.520     0.186     0.174 -0.3528  0.8062 -0.4750
 
              Baa    -0.0012    -0.633    -0.226    -0.211  0.5850  0.6082  0.5365
    54 H(1)   Bbb    -0.0001    -0.047    -0.017    -0.016 -0.4653 -0.2901  0.8362
              Bcc     0.0013     0.680     0.243     0.227 -0.6643  0.7389 -0.1133
 
              Baa    -0.0041    -2.170    -0.774    -0.724 -0.6738 -0.1568  0.7221
    55 H(1)   Bbb    -0.0004    -0.227    -0.081    -0.076  0.5388  0.5644  0.6254
              Bcc     0.0045     2.397     0.855     0.800 -0.5056  0.8105 -0.2958
 
              Baa    -0.0180    -2.409    -0.860    -0.804 -0.6189  0.6847  0.3848
    56 C(13)  Bbb     0.0049     0.660     0.235     0.220  0.6259  0.1338  0.7684
              Bcc     0.0130     1.749     0.624     0.584  0.4746  0.7164 -0.5114
 
              Baa    -0.0273    -3.669    -1.309    -1.224  0.1023 -0.5854  0.8043
    57 C(13)  Bbb    -0.0239    -3.204    -1.143    -1.069  0.6487  0.6522  0.3922
              Bcc     0.0512     6.873     2.453     2.293  0.7541 -0.4816 -0.4465
 
              Baa    -0.0289    -3.880    -1.385    -1.294  0.7301  0.5466  0.4101
    58 C(13)  Bbb    -0.0257    -3.444    -1.229    -1.149 -0.0869 -0.5210  0.8491
              Bcc     0.0546     7.325     2.614     2.443  0.6778 -0.6556 -0.3329
 
              Baa    -0.0194    -2.608    -0.930    -0.870 -0.5207  0.5941  0.6132
    59 C(13)  Bbb     0.0086     1.149     0.410     0.383  0.6956 -0.1213  0.7081
              Bcc     0.0109     1.459     0.521     0.487  0.4951  0.7952 -0.3500
 
              Baa    -0.0213    -2.862    -1.021    -0.955 -0.5615  0.5365  0.6299
    60 C(13)  Bbb     0.0093     1.250     0.446     0.417  0.6189 -0.2330  0.7501
              Bcc     0.0120     1.612     0.575     0.538  0.5492  0.8111 -0.2012
 
              Baa    -0.0318    -4.261    -1.521    -1.421  0.6787 -0.2043  0.7054
    61 C(13)  Bbb    -0.0285    -3.831    -1.367    -1.278  0.5272  0.8042 -0.2744
              Bcc     0.0603     8.092     2.888     2.699 -0.5112  0.5581  0.6536
 
              Baa    -0.0021    -1.134    -0.405    -0.378 -0.2556  0.8253  0.5035
    62 H(1)   Bbb    -0.0011    -0.606    -0.216    -0.202  0.7563  0.4951 -0.4277
              Bcc     0.0033     1.740     0.621     0.580  0.6023 -0.2715  0.7507
 
              Baa    -0.0023    -1.210    -0.432    -0.404 -0.6024  0.5176  0.6076
    63 H(1)   Bbb    -0.0008    -0.424    -0.151    -0.141  0.2682  0.8482 -0.4567
              Bcc     0.0031     1.633     0.583     0.545  0.7518  0.1122  0.6498
 
              Baa    -0.0011    -0.601    -0.215    -0.201 -0.5779  0.5870  0.5670
    64 H(1)   Bbb     0.0002     0.081     0.029     0.027  0.7358  0.0742  0.6731
              Bcc     0.0010     0.520     0.186     0.173  0.3530  0.8062 -0.4749
 
              Baa    -0.0012    -0.633    -0.226    -0.211 -0.5852  0.6082  0.5363
    65 H(1)   Bbb    -0.0001    -0.047    -0.017    -0.016  0.4653 -0.2897  0.8364
              Bcc     0.0013     0.680     0.243     0.227  0.6641  0.7390 -0.1135
 
              Baa    -0.0041    -2.170    -0.774    -0.724  0.6736 -0.1566  0.7223
    66 H(1)   Bbb    -0.0004    -0.227    -0.081    -0.076 -0.5391  0.5645  0.6251
              Bcc     0.0045     2.396     0.855     0.799  0.5056  0.8105 -0.2958
 

 ---------------------------------------------------------------------------------

 No NMR shielding tensors so no spin-rotation constants.
 Leave Link  601 at Mon Jan 18 02:51:02 2021, MaxMem=  4026531840 cpu:              11.3 elap:               1.6
 (Enter /opt/ohpc/pub/libs/gaussian/g16-A.03/sandybridge/g16/l9999.exe)

 Test job not archived.
 1\1\GINC-CASCADEB019\SP\ULC-wHPBE\TZVP\C36H28N2(1+,2)\RDU230\18-Jan-20
 21\0\\#P LC-wHPBE/TZVP iop(3/107=0174800000, 3/108=0174800000) scf=(co
 nver=6,fermi,ndamp=35,noincfock,novaracc,vshift=500,xqc)\\H28 C36 N2\\
 1,2\C,0,2.849999,-1.125861,0.415638\C,0,3.563139,-0.000026,-0.000017\C
 ,0,1.464492,-1.123667,0.405534\C,0,2.850033,1.125752,-0.415809\C,0,0.7
 41288,-0.000047,-0.000195\C,0,1.464504,1.123547,-0.405879\H,0,0.931596
 ,-2.005844,0.756198\H,0,3.391048,2.006254,-0.75499\H,0,0.931669,2.0057
 28,-0.756629\C,0,-0.741437,-0.000073,-0.000217\C,0,-1.464635,1.123165,
 0.406556\C,0,-1.464638,-1.123302,-0.406976\C,0,-2.850149,1.125343,0.41
 661\C,0,-2.850163,-1.125491,-0.416935\C,0,-3.563257,-0.000095,-0.00011
 6\H,0,-0.931751,2.005025,0.758038\H,0,-0.931783,-2.00514,-0.758553\H,0
 ,-3.391193,2.005527,0.756576\H,0,-3.391211,-2.005669,-0.756913\H,0,3.3
 91005,-2.006357,0.754845\N,0,-4.97843,-0.000102,-0.000065\C,0,-5.68709
 9,-1.154578,0.414287\C,0,-6.831881,-1.566674,-0.27115\C,0,-5.251323,-1
 .896933,1.513908\C,0,-7.528311,-2.692826,0.143324\C,0,-5.943392,-3.032
 223,1.91044\C,0,-7.087522,-3.435368,1.232277\H,0,-7.173684,-0.995181,-
 1.131117\H,0,-4.363437,-1.577947,2.055099\H,0,-8.419174,-2.999763,-0.4
 0155\H,0,-5.58986,-3.599797,2.769285\H,0,-7.631852,-4.321852,1.550225\
 C,0,-5.687025,1.154532,-0.414292\C,0,-6.831191,1.567225,0.271802\C,0,-
 5.251707,1.896381,-1.514415\C,0,-7.527485,2.693516,-0.142525\C,0,-5.94
 362,3.031828,-1.910808\C,0,-7.087137,3.435581,-1.231989\H,0,-7.172616,
 0.996083,1.132151\H,0,-4.364291,1.57691,-2.056093\H,0,-8.417875,3.0009
 45,0.402845\H,0,-5.590451,3.599029,-2.77005\H,0,-7.63135,4.322181,-1.5
 49815\N,0,4.978266,0.00002,0.000103\C,0,5.68699,1.154558,0.414335\C,0,
 6.831289,1.56698,-0.271699\C,0,5.251761,1.896543,1.51441\C,0,7.527834,
 2.693112,0.142653\C,0,5.943923,3.031822,1.910819\C,0,7.08759,3.435293,
 1.232069\H,0,7.172649,0.995729,-1.132\H,0,4.364233,1.577285,2.056034\H
 ,0,8.418333,3.000297,-0.402674\H,0,5.59085,3.599137,2.770027\H,0,7.631
 979,4.321768,1.549941\C,0,5.687017,-1.154516,-0.414141\C,0,6.831068,-1
 .567191,0.272109\C,0,5.251977,-1.896199,-1.514492\C,0,7.527566,-2.6933
 48,-0.142281\C,0,5.944079,-3.031486,-1.910953\C,0,7.087509,-3.435246,-
 1.231958\H,0,7.172277,-0.996155,1.132614\H,0,4.364636,-1.576682,-2.056
 275\H,0,8.417864,-3.000787,0.403227\H,0,5.591165,-3.598572,-2.770374\H
 ,0,7.631874,-4.32173,-1.549857\\Version=EM64L-G16RevA.03\State=2-A\HF=
 -1496.9608998\S2=0.771503\S2-1=0.\S2A=0.750266\RMSD=7.918e-07\Dipole=0
 .000163,0.0000984,-0.0000481\Quadrupole=73.1976239,-24.0624551,-49.135
 1688,-0.0045947,-0.0004117,0.0025191\PG=C01 [X(C36H28N2)]\\@


      TO SUSPECT YOUR OWN MORTALITY IS TO KNOW THE BEGINNING OF TERROR.
      TO LEARN IRREFUTABLY THAT YOU ARE MORTAL IS TO KNOW THE END
      OF TERROR.

                                                  -- JESSICA
                                                     CHILDREN OF DUNE
                                                     BY FRANK HERBERT
 Job cpu time:       0 days  4 hours  3 minutes 10.3 seconds.
 Elapsed time:       0 days  0 hours 30 minutes 45.5 seconds.
 File lengths (MBytes):  RWF=    428 Int=      0 D2E=      0 Chk=     60 Scr=      8
 Normal termination of Gaussian 16 at Mon Jan 18 02:51:03 2021.
