 Entering Gaussian System, Link 0=g16
 Input=mol_bp_pa_whol_tune_n10.gjf
 Output=mol_bp_pa_whol_tune_n10.log
 Initial command:
 /opt/ohpc/pub/libs/gaussian/g16-A.03/sandybridge/g16/l1.exe "/mnt/gpfs2_4m/scratch/rdu230/ondemand/projects/init_structures/wtuning/mol_bp_pa_whol/tuning_mol_bp_pa_whol_ocycle0/Gau-145631.inp" -scrdir="/mnt/gpfs2_4m/scratch/rdu230/ondemand/projects/init_structures/wtuning/mol_bp_pa_whol/tuning_mol_bp_pa_whol_ocycle0/"
 Entering Link 1 = /opt/ohpc/pub/libs/gaussian/g16-A.03/sandybridge/g16/l1.exe PID=    145632.
  
 Copyright (c) 1988,1990,1992,1993,1995,1998,2003,2009,2016,
            Gaussian, Inc.  All Rights Reserved.
  
 This is part of the Gaussian(R) 16 program.  It is based on
 the Gaussian(R) 09 system (copyright 2009, Gaussian, Inc.),
 the Gaussian(R) 03 system (copyright 2003, Gaussian, Inc.),
 the Gaussian(R) 98 system (copyright 1998, Gaussian, Inc.),
 the Gaussian(R) 94 system (copyright 1995, Gaussian, Inc.),
 the Gaussian 92(TM) system (copyright 1992, Gaussian, Inc.),
 the Gaussian 90(TM) system (copyright 1990, Gaussian, Inc.),
 the Gaussian 88(TM) system (copyright 1988, Gaussian, Inc.),
 the Gaussian 86(TM) system (copyright 1986, Carnegie Mellon
 University), and the Gaussian 82(TM) system (copyright 1983,
 Carnegie Mellon University). Gaussian is a federally registered
 trademark of Gaussian, Inc.
  
 This software contains proprietary and confidential information,
 including trade secrets, belonging to Gaussian, Inc.
  
 This software is provided under written license and may be
 used, copied, transmitted, or stored only in accord with that
 written license.
  
 The following legend is applicable only to US Government
 contracts under FAR:
  
                    RESTRICTED RIGHTS LEGEND
  
 Use, reproduction and disclosure by the US Government is
 subject to restrictions as set forth in subparagraphs (a)
 and (c) of the Commercial Computer Software - Restricted
 Rights clause in FAR 52.227-19.
  
 Gaussian, Inc.
 340 Quinnipiac St., Bldg. 40, Wallingford CT 06492
  
  
 ---------------------------------------------------------------
 Warning -- This program may not be used in any manner that
 competes with the business of Gaussian, Inc. or will provide
 assistance to any competitor of Gaussian, Inc.  The licensee
 of this program is prohibited from giving any competitor of
 Gaussian, Inc. access to this program.  By using this program,
 the user acknowledges that Gaussian, Inc. is engaged in the
 business of creating and licensing software in the field of
 computational chemistry and represents and warrants to the
 licensee that it is not a competitor of Gaussian, Inc. and that
 it will not use this program in any manner prohibited above.
 ---------------------------------------------------------------
  

 Cite this work as:
 Gaussian 16, Revision A.03,
 M. J. Frisch, G. W. Trucks, H. B. Schlegel, G. E. Scuseria, 
 M. A. Robb, J. R. Cheeseman, G. Scalmani, V. Barone, 
 G. A. Petersson, H. Nakatsuji, X. Li, M. Caricato, A. V. Marenich, 
 J. Bloino, B. G. Janesko, R. Gomperts, B. Mennucci, H. P. Hratchian, 
 J. V. Ortiz, A. F. Izmaylov, J. L. Sonnenberg, D. Williams-Young, 
 F. Ding, F. Lipparini, F. Egidi, J. Goings, B. Peng, A. Petrone, 
 T. Henderson, D. Ranasinghe, V. G. Zakrzewski, J. Gao, N. Rega, 
 G. Zheng, W. Liang, M. Hada, M. Ehara, K. Toyota, R. Fukuda, 
 J. Hasegawa, M. Ishida, T. Nakajima, Y. Honda, O. Kitao, H. Nakai, 
 T. Vreven, K. Throssell, J. A. Montgomery, Jr., J. E. Peralta, 
 F. Ogliaro, M. J. Bearpark, J. J. Heyd, E. N. Brothers, K. N. Kudin, 
 V. N. Staroverov, T. A. Keith, R. Kobayashi, J. Normand, 
 K. Raghavachari, A. P. Rendell, J. C. Burant, S. S. Iyengar, 
 J. Tomasi, M. Cossi, J. M. Millam, M. Klene, C. Adamo, R. Cammi, 
 J. W. Ochterski, R. L. Martin, K. Morokuma, O. Farkas, 
 J. B. Foresman, and D. J. Fox, Gaussian, Inc., Wallingford CT, 2016.
 
 ******************************************
 Gaussian 16:  EM64L-G16RevA.03 25-Dec-2016
                18-Jan-2021 
 ******************************************
 %mem=30GB
 %nproc=8
 Will use up to    8 processors via shared memory.
 ----------------------------------------------------------------------
 #P LC-wHPBE/TZVP iop(3/107=0178100000, 3/108=0178100000) scf=(conver=6
 ,fermi,ndamp=35,noincfock,novaracc,vshift=500,xqc)
 ----------------------------------------------------------------------
 1/38=1,172=1/1;
 2/12=2,17=6,18=5,40=1/2;
 3/5=19,7=101,11=2,25=1,30=1,74=-71,107=178100000,108=178100000/1,2,3;
 4//1;
 5/5=100002,6=6,8=3,10=500,13=1,18=-1,22=13,38=1,93=35/2,8;
 6/7=2,8=2,9=2,10=2,28=1/1;
 99/5=1,9=1/99;
 Leave Link    1 at Mon Jan 18 05:06:23 2021, MaxMem=  4026531840 cpu:               1.0 elap:               0.1
 (Enter /opt/ohpc/pub/libs/gaussian/g16-A.03/sandybridge/g16/l101.exe)
 ----------
 H28 C36 N2
 ----------
 Symbolic Z-matrix:
 Charge =  0 Multiplicity = 1
 C                     2.85     -1.12586   0.41564 
 C                     3.56314  -0.00003  -0.00002 
 C                     1.46449  -1.12367   0.40553 
 C                     2.85003   1.12575  -0.41581 
 C                     0.74129  -0.00005  -0.0002 
 C                     1.4645    1.12355  -0.40588 
 H                     0.9316   -2.00584   0.7562 
 H                     3.39105   2.00625  -0.75499 
 H                     0.93167   2.00573  -0.75663 
 C                    -0.74144  -0.00007  -0.00022 
 C                    -1.46464   1.12316   0.40656 
 C                    -1.46464  -1.1233   -0.40698 
 C                    -2.85015   1.12534   0.41661 
 C                    -2.85016  -1.12549  -0.41694 
 C                    -3.56326  -0.0001   -0.00012 
 H                    -0.93175   2.00502   0.75804 
 H                    -0.93178  -2.00514  -0.75855 
 H                    -3.39119   2.00553   0.75658 
 H                    -3.39121  -2.00567  -0.75691 
 H                     3.39101  -2.00636   0.75485 
 N                    -4.97843  -0.0001   -0.00007 
 C                    -5.6871   -1.15458   0.41429 
 C                    -6.83188  -1.56667  -0.27115 
 C                    -5.25132  -1.89693   1.51391 
 C                    -7.52831  -2.69283   0.14332 
 C                    -5.94339  -3.03222   1.91044 
 C                    -7.08752  -3.43537   1.23228 
 H                    -7.17368  -0.99518  -1.13112 
 H                    -4.36344  -1.57795   2.0551 
 H                    -8.41917  -2.99976  -0.40155 
 H                    -5.58986  -3.5998    2.76929 
 H                    -7.63185  -4.32185   1.55023 
 C                    -5.68703   1.15453  -0.41429 
 C                    -6.83119   1.56723   0.2718 
 C                    -5.25171   1.89638  -1.51442 
 C                    -7.52749   2.69352  -0.14253 
 C                    -5.94362   3.03183  -1.91081 
 C                    -7.08714   3.43558  -1.23199 
 H                    -7.17262   0.99608   1.13215 
 H                    -4.36429   1.57691  -2.05609 
 H                    -8.41788   3.00095   0.40285 
 H                    -5.59045   3.59903  -2.77005 
 H                    -7.63135   4.32218  -1.54982 
 N                     4.97827   0.00002   0.0001 
 C                     5.68699   1.15456   0.41434 
 C                     6.83129   1.56698  -0.2717 
 C                     5.25176   1.89654   1.51441 
 C                     7.52783   2.69311   0.14265 
 C                     5.94392   3.03182   1.91082 
 C                     7.08759   3.43529   1.23207 
 H                     7.17265   0.99573  -1.132 
 H                     4.36423   1.57729   2.05603 
 H                     8.41833   3.0003   -0.40267 
 H                     5.59085   3.59914   2.77003 
 H                     7.63198   4.32177   1.54994 
 C                     5.68702  -1.15452  -0.41414 
 C                     6.83107  -1.56719   0.27211 
 C                     5.25198  -1.8962   -1.51449 
 C                     7.52757  -2.69335  -0.14228 
 C                     5.94408  -3.03149  -1.91095 
 C                     7.08751  -3.43525  -1.23196 
 H                     7.17228  -0.99616   1.13261 
 H                     4.36464  -1.57668  -2.05627 
 H                     8.41786  -3.00079   0.40323 
 H                     5.59117  -3.59857  -2.77037 
 H                     7.63187  -4.32173  -1.54986 
 
 ITRead=  0  0  0  0  0  0  0  0  0  0  0  0  0  0  0  0  0  0  0  0
 ITRead=  0  0  0  0  0  0  0  0  0  0  0  0  0  0  0  0  0  0  0  0
 ITRead=  0  0  0  0  0  0  0  0  0  0  0  0  0  0  0  0  0  0  0  0
 ITRead=  0  0  0  0  0  0
 MicOpt= -1 -1 -1 -1 -1 -1 -1 -1 -1 -1 -1 -1 -1 -1 -1 -1 -1 -1 -1 -1
 MicOpt= -1 -1 -1 -1 -1 -1 -1 -1 -1 -1 -1 -1 -1 -1 -1 -1 -1 -1 -1 -1
 MicOpt= -1 -1 -1 -1 -1 -1 -1 -1 -1 -1 -1 -1 -1 -1 -1 -1 -1 -1 -1 -1
 MicOpt= -1 -1 -1 -1 -1 -1
 NAtoms=     66 NQM=       66 NQMF=       0 NMMI=      0 NMMIF=      0
                NMic=       0 NMicF=      0.
                    Isotopes and Nuclear Properties:
 (Nuclear quadrupole moments (NQMom) in fm**2, nuclear magnetic moments (NMagM)
  in nuclear magnetons)

  Atom         1           2           3           4           5           6           7           8           9          10
 IAtWgt=          12          12          12          12          12          12           1           1           1          12
 AtmWgt=  12.0000000  12.0000000  12.0000000  12.0000000  12.0000000  12.0000000   1.0078250   1.0078250   1.0078250  12.0000000
 NucSpn=           0           0           0           0           0           0           1           1           1           0
 AtZEff=  -0.0000000  -0.0000000  -0.0000000  -0.0000000  -0.0000000  -0.0000000  -0.0000000  -0.0000000  -0.0000000  -0.0000000
 NQMom=    0.0000000   0.0000000   0.0000000   0.0000000   0.0000000   0.0000000   0.0000000   0.0000000   0.0000000   0.0000000
 NMagM=    0.0000000   0.0000000   0.0000000   0.0000000   0.0000000   0.0000000   2.7928460   2.7928460   2.7928460   0.0000000
 AtZNuc=   6.0000000   6.0000000   6.0000000   6.0000000   6.0000000   6.0000000   1.0000000   1.0000000   1.0000000   6.0000000

  Atom        11          12          13          14          15          16          17          18          19          20
 IAtWgt=          12          12          12          12          12           1           1           1           1           1
 AtmWgt=  12.0000000  12.0000000  12.0000000  12.0000000  12.0000000   1.0078250   1.0078250   1.0078250   1.0078250   1.0078250
 NucSpn=           0           0           0           0           0           1           1           1           1           1
 AtZEff=  -0.0000000  -0.0000000  -0.0000000  -0.0000000  -0.0000000  -0.0000000  -0.0000000  -0.0000000  -0.0000000  -0.0000000
 NQMom=    0.0000000   0.0000000   0.0000000   0.0000000   0.0000000   0.0000000   0.0000000   0.0000000   0.0000000   0.0000000
 NMagM=    0.0000000   0.0000000   0.0000000   0.0000000   0.0000000   2.7928460   2.7928460   2.7928460   2.7928460   2.7928460
 AtZNuc=   6.0000000   6.0000000   6.0000000   6.0000000   6.0000000   1.0000000   1.0000000   1.0000000   1.0000000   1.0000000

  Atom        21          22          23          24          25          26          27          28          29          30
 IAtWgt=          14          12          12          12          12          12          12           1           1           1
 AtmWgt=  14.0030740  12.0000000  12.0000000  12.0000000  12.0000000  12.0000000  12.0000000   1.0078250   1.0078250   1.0078250
 NucSpn=           2           0           0           0           0           0           0           1           1           1
 AtZEff=  -0.0000000  -0.0000000  -0.0000000  -0.0000000  -0.0000000  -0.0000000  -0.0000000  -0.0000000  -0.0000000  -0.0000000
 NQMom=    2.0440000   0.0000000   0.0000000   0.0000000   0.0000000   0.0000000   0.0000000   0.0000000   0.0000000   0.0000000
 NMagM=    0.4037610   0.0000000   0.0000000   0.0000000   0.0000000   0.0000000   0.0000000   2.7928460   2.7928460   2.7928460
 AtZNuc=   7.0000000   6.0000000   6.0000000   6.0000000   6.0000000   6.0000000   6.0000000   1.0000000   1.0000000   1.0000000

  Atom        31          32          33          34          35          36          37          38          39          40
 IAtWgt=           1           1          12          12          12          12          12          12           1           1
 AtmWgt=   1.0078250   1.0078250  12.0000000  12.0000000  12.0000000  12.0000000  12.0000000  12.0000000   1.0078250   1.0078250
 NucSpn=           1           1           0           0           0           0           0           0           1           1
 AtZEff=  -0.0000000  -0.0000000  -0.0000000  -0.0000000  -0.0000000  -0.0000000  -0.0000000  -0.0000000  -0.0000000  -0.0000000
 NQMom=    0.0000000   0.0000000   0.0000000   0.0000000   0.0000000   0.0000000   0.0000000   0.0000000   0.0000000   0.0000000
 NMagM=    2.7928460   2.7928460   0.0000000   0.0000000   0.0000000   0.0000000   0.0000000   0.0000000   2.7928460   2.7928460
 AtZNuc=   1.0000000   1.0000000   6.0000000   6.0000000   6.0000000   6.0000000   6.0000000   6.0000000   1.0000000   1.0000000

  Atom        41          42          43          44          45          46          47          48          49          50
 IAtWgt=           1           1           1          14          12          12          12          12          12          12
 AtmWgt=   1.0078250   1.0078250   1.0078250  14.0030740  12.0000000  12.0000000  12.0000000  12.0000000  12.0000000  12.0000000
 NucSpn=           1           1           1           2           0           0           0           0           0           0
 AtZEff=  -0.0000000  -0.0000000  -0.0000000  -0.0000000  -0.0000000  -0.0000000  -0.0000000  -0.0000000  -0.0000000  -0.0000000
 NQMom=    0.0000000   0.0000000   0.0000000   2.0440000   0.0000000   0.0000000   0.0000000   0.0000000   0.0000000   0.0000000
 NMagM=    2.7928460   2.7928460   2.7928460   0.4037610   0.0000000   0.0000000   0.0000000   0.0000000   0.0000000   0.0000000
 AtZNuc=   1.0000000   1.0000000   1.0000000   7.0000000   6.0000000   6.0000000   6.0000000   6.0000000   6.0000000   6.0000000

  Atom        51          52          53          54          55          56          57          58          59          60
 IAtWgt=           1           1           1           1           1          12          12          12          12          12
 AtmWgt=   1.0078250   1.0078250   1.0078250   1.0078250   1.0078250  12.0000000  12.0000000  12.0000000  12.0000000  12.0000000
 NucSpn=           1           1           1           1           1           0           0           0           0           0
 AtZEff=  -0.0000000  -0.0000000  -0.0000000  -0.0000000  -0.0000000  -0.0000000  -0.0000000  -0.0000000  -0.0000000  -0.0000000
 NQMom=    0.0000000   0.0000000   0.0000000   0.0000000   0.0000000   0.0000000   0.0000000   0.0000000   0.0000000   0.0000000
 NMagM=    2.7928460   2.7928460   2.7928460   2.7928460   2.7928460   0.0000000   0.0000000   0.0000000   0.0000000   0.0000000
 AtZNuc=   1.0000000   1.0000000   1.0000000   1.0000000   1.0000000   6.0000000   6.0000000   6.0000000   6.0000000   6.0000000

  Atom        61          62          63          64          65          66
 IAtWgt=          12           1           1           1           1           1
 AtmWgt=  12.0000000   1.0078250   1.0078250   1.0078250   1.0078250   1.0078250
 NucSpn=           0           1           1           1           1           1
 AtZEff=  -0.0000000  -0.0000000  -0.0000000  -0.0000000  -0.0000000  -0.0000000
 NQMom=    0.0000000   0.0000000   0.0000000   0.0000000   0.0000000   0.0000000
 NMagM=    0.0000000   2.7928460   2.7928460   2.7928460   2.7928460   2.7928460
 AtZNuc=   6.0000000   1.0000000   1.0000000   1.0000000   1.0000000   1.0000000
 Leave Link  101 at Mon Jan 18 05:06:23 2021, MaxMem=  4026531840 cpu:               0.8 elap:               0.1
 (Enter /opt/ohpc/pub/libs/gaussian/g16-A.03/sandybridge/g16/l202.exe)
 Stoichiometry    C36H28N2
 Framework group  C1[X(C36H28N2)]
 Deg. of freedom   192
 Full point group                 C1      NOp   1
 Largest Abelian subgroup         C1      NOp   1
 Largest concise Abelian subgroup C1      NOp   1
                         Standard orientation:                         
 ---------------------------------------------------------------------
 Center     Atomic      Atomic             Coordinates (Angstroms)
 Number     Number       Type             X           Y           Z
 ---------------------------------------------------------------------
      1          6           0       -2.849999   -1.125861   -0.415638
      2          6           0       -3.563139   -0.000026    0.000017
      3          6           0       -1.464492   -1.123667   -0.405534
      4          6           0       -2.850033    1.125752    0.415809
      5          6           0       -0.741288   -0.000047    0.000195
      6          6           0       -1.464504    1.123547    0.405879
      7          1           0       -0.931596   -2.005844   -0.756198
      8          1           0       -3.391048    2.006254    0.754990
      9          1           0       -0.931669    2.005728    0.756629
     10          6           0        0.741437   -0.000073    0.000217
     11          6           0        1.464635    1.123165   -0.406556
     12          6           0        1.464638   -1.123302    0.406976
     13          6           0        2.850149    1.125343   -0.416610
     14          6           0        2.850163   -1.125491    0.416935
     15          6           0        3.563257   -0.000095    0.000116
     16          1           0        0.931751    2.005025   -0.758038
     17          1           0        0.931783   -2.005140    0.758553
     18          1           0        3.391193    2.005527   -0.756576
     19          1           0        3.391211   -2.005669    0.756913
     20          1           0       -3.391005   -2.006357   -0.754845
     21          7           0        4.978430   -0.000102    0.000065
     22          6           0        5.687099   -1.154578   -0.414287
     23          6           0        6.831881   -1.566674    0.271150
     24          6           0        5.251323   -1.896933   -1.513908
     25          6           0        7.528311   -2.692826   -0.143324
     26          6           0        5.943392   -3.032223   -1.910440
     27          6           0        7.087522   -3.435368   -1.232277
     28          1           0        7.173684   -0.995181    1.131117
     29          1           0        4.363437   -1.577947   -2.055099
     30          1           0        8.419174   -2.999763    0.401550
     31          1           0        5.589860   -3.599797   -2.769285
     32          1           0        7.631852   -4.321852   -1.550225
     33          6           0        5.687025    1.154532    0.414292
     34          6           0        6.831191    1.567225   -0.271802
     35          6           0        5.251707    1.896381    1.514415
     36          6           0        7.527485    2.693516    0.142525
     37          6           0        5.943620    3.031828    1.910808
     38          6           0        7.087137    3.435581    1.231989
     39          1           0        7.172616    0.996083   -1.132151
     40          1           0        4.364291    1.576910    2.056093
     41          1           0        8.417875    3.000945   -0.402845
     42          1           0        5.590451    3.599029    2.770050
     43          1           0        7.631350    4.322181    1.549815
     44          7           0       -4.978266    0.000020   -0.000103
     45          6           0       -5.686990    1.154558   -0.414335
     46          6           0       -6.831289    1.566980    0.271699
     47          6           0       -5.251761    1.896543   -1.514410
     48          6           0       -7.527834    2.693112   -0.142653
     49          6           0       -5.943923    3.031822   -1.910819
     50          6           0       -7.087590    3.435293   -1.232069
     51          1           0       -7.172649    0.995729    1.132000
     52          1           0       -4.364233    1.577285   -2.056034
     53          1           0       -8.418333    3.000297    0.402674
     54          1           0       -5.590850    3.599137   -2.770027
     55          1           0       -7.631979    4.321768   -1.549941
     56          6           0       -5.687017   -1.154516    0.414141
     57          6           0       -6.831068   -1.567191   -0.272109
     58          6           0       -5.251977   -1.896199    1.514492
     59          6           0       -7.527566   -2.693348    0.142281
     60          6           0       -5.944079   -3.031486    1.910953
     61          6           0       -7.087509   -3.435246    1.231958
     62          1           0       -7.172277   -0.996155   -1.132614
     63          1           0       -4.364636   -1.576682    2.056275
     64          1           0       -8.417864   -3.000787   -0.403227
     65          1           0       -5.591165   -3.598572    2.770374
     66          1           0       -7.631874   -4.321730    1.549857
 ---------------------------------------------------------------------
 Rotational constants (GHZ):           0.2023709           0.0339547           0.0306836
 Leave Link  202 at Mon Jan 18 05:06:23 2021, MaxMem=  4026531840 cpu:               0.1 elap:               0.0
 (Enter /opt/ohpc/pub/libs/gaussian/g16-A.03/sandybridge/g16/l301.exe)
 Standard basis: TZVP (5D, 7F)
 Ernie: Thresh=  0.10000D-02 Tol=  0.10000D-05 Strict=F.
 There are   928 symmetry adapted cartesian basis functions of A   symmetry.
 There are   890 symmetry adapted basis functions of A   symmetry.
   890 basis functions,  1554 primitive gaussians,   928 cartesian basis functions
   129 alpha electrons      129 beta electrons
       nuclear repulsion energy      3528.7655398436 Hartrees.
 IExCor=33909 DFT=T Ex+Corr=LC-wHPBE ExCW=0 ScaHFX=  1.000000
 ScaDFX=  1.000000  1.000000  1.000000  1.000000 ScalE2=  1.000000  1.000000
 IRadAn=      5 IRanWt=     -1 IRanGd=            0 ICorTp=0 IEmpDi=  4
 HFx  wShort=  0.000000 wLong=  0.178100 cFull=  0.000000 cShort=  0.000000 cLong=  1.000000
 DFx  wShort=  0.000000 wLong=  0.178100 cFull=  0.000000 cShort=  1.000000 cLong=  0.000000
 NAtoms=   66 NActive=   66 NUniq=   66 SFac= 1.00D+00 NAtFMM=   60 NAOKFM=T Big=T
 Integral buffers will be    131072 words long.
 Raffenetti 2 integral format.
 Two-electron integral symmetry is turned on.
 Leave Link  301 at Mon Jan 18 05:06:23 2021, MaxMem=  4026531840 cpu:               0.4 elap:               0.1
 (Enter /opt/ohpc/pub/libs/gaussian/g16-A.03/sandybridge/g16/l302.exe)
 NPDir=0 NMtPBC=     1 NCelOv=     1 NCel=       1 NClECP=     1 NCelD=      1
         NCelK=      1 NCelE2=     1 NClLst=     1 CellRange=     0.0.
 One-electron integrals computed using PRISM.
 One-electron integral symmetry used in STVInt
 NBasis=   890 RedAO= T EigKep=  6.71D-06  NBF=   890
 NBsUse=   890 1.00D-06 EigRej= -1.00D+00 NBFU=   890
 Precomputing XC quadrature grid using
 IXCGrd= 4 IRadAn=           5 IRanWt=          -1 IRanGd=           0 AccXCQ= 0.00D+00.
 Generated NRdTot=       0 NPtTot=           0 NUsed=           0 NTot=          32
 NSgBfM=   852   844   846   852   852 MxSgAt=    66 MxSgA2=    66.
 Leave Link  302 at Mon Jan 18 05:06:25 2021, MaxMem=  4026531840 cpu:              17.1 elap:               2.2
 (Enter /opt/ohpc/pub/libs/gaussian/g16-A.03/sandybridge/g16/l303.exe)
 DipDrv:  MaxL=1.
 Leave Link  303 at Mon Jan 18 05:06:25 2021, MaxMem=  4026531840 cpu:               1.1 elap:               0.2
 (Enter /opt/ohpc/pub/libs/gaussian/g16-A.03/sandybridge/g16/l401.exe)
 ExpMin= 9.52D-02 ExpMax= 1.97D+04 ExpMxC= 6.73D+02 IAcc=3 IRadAn=         5 AccDes= 0.00D+00
 Harris functional with IExCor=33909 and IRadAn=       5 diagonalized for initial guess.
 HarFok:  IExCor=33909 AccDes= 0.00D+00 IRadAn=         5 IDoV= 1 UseB2=F ITyADJ=14
 ICtDFT=  3500011 ScaDFX=  1.000000  1.000000  1.000000  1.000000
 FoFCou: FMM=F IPFlag=           0 FMFlag=      100000 FMFlg1=        2001
         NFxFlg=           0 DoJE=T BraDBF=F KetDBF=T FulRan=T
         wScrn=  0.000000 ICntrl=       500 IOpCl=  0 I1Cent=   200000004 NGrid=           0
         NMat0=    1 NMatS0=      1 NMatT0=    0 NMatD0=    1 NMtDS0=    0 NMtDT0=    0
 Petite list used in FoFCou.
 Harris En= -1472.72238378177    
 JPrj=0 DoOrth=F DoCkMO=F.
 Leave Link  401 at Mon Jan 18 05:06:35 2021, MaxMem=  4026531840 cpu:              77.6 elap:               9.8
 (Enter /opt/ohpc/pub/libs/gaussian/g16-A.03/sandybridge/g16/l502.exe)
 Integral symmetry usage will be decided dynamically.
 Closed shell SCF:
 Using DIIS extrapolation, IDIIS=    10.
 NGot=  4026531840 LenX=  4024793050 LenY=  4023930938
 Requested convergence on RMS density matrix=1.00D-06 within  32 cycles.
 Requested convergence on MAX density matrix=1.00D-04.
 Requested convergence on             energy=1.00D-04.
 Virtual orbitals will be shifted by   0.500 hartree.
 No special actions if energy rises.
 Dynamic level shift is on during FON iterations.

 Cycle   1  Pass 1  IDiag  1:
 FoFJK:  IHMeth= 1 ICntrl=       0 DoSepK=T KAlg= 0 I1Cent=           0 FoldK=F
 IRaf=         1 NMat=       1 IRICut=       1 DoRegI=T DoRafI=F ISym2E= 0 IDoP0=0 IntGTp=1.
 FoFCou: FMM=T IPFlag=           0 FMFlag=      100000 FMFlg1=        2001
         NFxFlg=           0 DoJE=T BraDBF=F KetDBF=F FulRan=T
         wScrn=  0.000000 ICntrl=       500 IOpCl=  0 I1Cent=           0 NGrid=           0
         NMat0=    1 NMatS0=      1 NMatT0=    0 NMatD0=    1 NMtDS0=    0 NMtDT0=    0
 Symmetry not used in FoFCou.
 FMM levels:  10  Number of levels for PrismC:   9
 E= -1496.53976707409    
 DIIS: error= 3.28D-02 at cycle   1 NSaved=   1.
 NSaved= 1 IEnMin= 1 EnMin= -1496.53976707409     IErMin= 1 ErrMin= 3.28D-02
 ErrMax= 3.28D-02  0.00D+00 EMaxC= 1.00D+00 BMatC= 6.42D-01 BMatP= 6.42D-01
 IDIUse=1 WtCom= 1.00D+00 WtEn= 0.00D+00
 Coeff-Com:  0.100D+01
 Coeff:      0.100D+01
 Gap=     0.265 Goal=   None    Shift=    0.500
 T= 1550. Gap= 0.730 NK=0 IS=  130 IE=  890 IFin=  129
          NO(<0.9)=   0  NV(>0.1)=   0    129.00e < EF      0.00e >EF  Err=0.0D+00
 GapD=    0.265 DampG=1.000 DampE=0.500 DampFc=0.5000 IDamp=-1.
 Damping current iteration by 5.00D-01
 RMSDP=2.00D-03 MaxDP=8.54D-02              OVMax= 8.42D-02

 Cycle   2  Pass 1  IDiag  1:
 E= -1496.94774607960     Delta-E=       -0.407979005508 Rises=F Damp=T
 DIIS: error= 1.52D-02 at cycle   2 NSaved=   2.
 NSaved= 2 IEnMin= 2 EnMin= -1496.94774607960     IErMin= 2 ErrMin= 1.52D-02
 ErrMax= 1.52D-02  0.00D+00 EMaxC= 1.00D+00 BMatC= 1.09D-01 BMatP= 6.42D-01
 IDIUse=1 WtCom= 1.00D+00 WtEn= 0.00D+00
 Coeff-Com: -0.548D+00 0.155D+01
 Coeff:     -0.548D+00 0.155D+01
 Gap=     0.256 Goal=   None    Shift=    0.500
 T= 1431. Gap= 0.733 NK=0 IS=  130 IE=  890 IFin=  129
          NO(<0.9)=   0  NV(>0.1)=   0    129.00e < EF      0.00e >EF  Err=0.0D+00
 GapD=    0.256 DampG=1.000 DampE=0.500 DampFc=0.5000 IDamp=-1.
 Damping current iteration by 5.00D-01
 RMSDP=1.16D-03 MaxDP=6.20D-02 DE=-4.08D-01 OVMax= 2.02D-02

 Cycle   3  Pass 1  IDiag  1:
 E= -1497.08668701574     Delta-E=       -0.138940936143 Rises=F Damp=T
 DIIS: error= 6.93D-03 at cycle   3 NSaved=   3.
 NSaved= 3 IEnMin= 3 EnMin= -1497.08668701574     IErMin= 3 ErrMin= 6.93D-03
 ErrMax= 6.93D-03  0.00D+00 EMaxC= 1.00D+00 BMatC= 2.05D-02 BMatP= 1.09D-01
 IDIUse=1 WtCom= 1.00D+00 WtEn= 0.00D+00
 Coeff-Com:  0.432D-01-0.840D+00 0.180D+01
 Coeff:      0.432D-01-0.840D+00 0.180D+01
 Gap=     0.246 Goal=   None    Shift=    0.500
 T= 1200. Gap= 0.744 NK=0 IS=  130 IE=  890 IFin=  129
          NO(<0.9)=   0  NV(>0.1)=   0    129.00e < EF      0.00e >EF  Err=0.0D+00
 GapD=    0.246 DampG=1.000 DampE=1.000 DampFc=1.0000 IDamp=-1.
 RMSDP=6.46D-04 MaxDP=3.93D-02 DE=-1.39D-01 OVMax= 1.13D-02

 Cycle   4  Pass 1  IDiag  1:
 E= -1497.20194012706     Delta-E=       -0.115253111319 Rises=F Damp=F
 DIIS: error= 1.14D-03 at cycle   4 NSaved=   4.
 NSaved= 4 IEnMin= 4 EnMin= -1497.20194012706     IErMin= 4 ErrMin= 1.14D-03
 ErrMax= 1.14D-03  0.00D+00 EMaxC= 1.00D+00 BMatC= 9.46D-04 BMatP= 2.05D-02
 IDIUse=1 WtCom= 1.00D+00 WtEn= 0.00D+00
 Coeff-Com:  0.780D-01-0.221D+00 0.204D+00 0.939D+00
 Coeff:      0.780D-01-0.221D+00 0.204D+00 0.939D+00
 Gap=     0.242 Goal=   None    Shift=    0.500
 T=  683. Gap= 0.742 NK=0 IS=  130 IE=  890 IFin=  129
          NO(<0.9)=   0  NV(>0.1)=   0    129.00e < EF      0.00e >EF  Err=0.0D+00
 GapD=    0.242 DampG=1.000 DampE=1.000 DampFc=1.0000 IDamp=-1.
 RMSDP=1.45D-04 MaxDP=4.86D-03 DE=-1.15D-01 OVMax= 5.58D-03

 Cycle   5  Pass 1  IDiag  1:
 E= -1497.20295947180     Delta-E=       -0.001019344738 Rises=F Damp=F
 DIIS: error= 6.21D-04 at cycle   5 NSaved=   5.
 NSaved= 5 IEnMin= 5 EnMin= -1497.20295947180     IErMin= 5 ErrMin= 6.21D-04
 ErrMax= 6.21D-04  0.00D+00 EMaxC= 1.00D+00 BMatC= 1.45D-04 BMatP= 9.46D-04
 IDIUse=1 WtCom= 1.00D+00 WtEn= 0.00D+00
 Coeff-Com:  0.182D-01-0.603D-02-0.621D-01-0.171D+00 0.122D+01
 Coeff:      0.182D-01-0.603D-02-0.621D-01-0.171D+00 0.122D+01
 Gap=     0.243 Goal=   None    Shift=    0.500
 RMSDP=1.05D-04 MaxDP=4.11D-03 DE=-1.02D-03 OVMax= 4.50D-03

 Cycle   6  Pass 1  IDiag  1:
 E= -1497.20322481797     Delta-E=       -0.000265346171 Rises=F Damp=F
 DIIS: error= 5.23D-04 at cycle   6 NSaved=   6.
 NSaved= 6 IEnMin= 6 EnMin= -1497.20322481797     IErMin= 6 ErrMin= 5.23D-04
 ErrMax= 5.23D-04  0.00D+00 EMaxC= 1.00D+00 BMatC= 2.98D-05 BMatP= 1.45D-04
 IDIUse=1 WtCom= 1.00D+00 WtEn= 0.00D+00
 Coeff-Com: -0.104D-01 0.387D-01-0.515D-01-0.244D+00 0.695D-01 0.120D+01
 Coeff:     -0.104D-01 0.387D-01-0.515D-01-0.244D+00 0.695D-01 0.120D+01
 Gap=     0.243 Goal=   None    Shift=    0.500
 RMSDP=6.40D-05 MaxDP=3.01D-03 DE=-2.65D-04 OVMax= 3.76D-03

 Cycle   7  Pass 1  IDiag  1:
 E= -1497.20331913180     Delta-E=       -0.000094313832 Rises=F Damp=F
 DIIS: error= 3.91D-04 at cycle   7 NSaved=   7.
 NSaved= 7 IEnMin= 7 EnMin= -1497.20331913180     IErMin= 7 ErrMin= 3.91D-04
 ErrMax= 3.91D-04  0.00D+00 EMaxC= 1.00D+00 BMatC= 9.33D-06 BMatP= 2.98D-05
 IDIUse=1 WtCom= 1.00D+00 WtEn= 0.00D+00
 Coeff-Com: -0.644D-02 0.702D-02 0.656D-02 0.309D-01-0.333D+00-0.490D+00
 Coeff-Com:  0.179D+01
 Coeff:     -0.644D-02 0.702D-02 0.656D-02 0.309D-01-0.333D+00-0.490D+00
 Coeff:      0.179D+01
 Gap=     0.243 Goal=   None    Shift=    0.500
 RMSDP=3.66D-05 MaxDP=1.91D-03 DE=-9.43D-05 OVMax= 2.93D-03

 Cycle   8  Pass 1  IDiag  1:
 E= -1497.20336224052     Delta-E=       -0.000043108716 Rises=F Damp=F
 DIIS: error= 2.76D-04 at cycle   8 NSaved=   8.
 NSaved= 8 IEnMin= 8 EnMin= -1497.20336224052     IErMin= 8 ErrMin= 2.76D-04
 ErrMax= 2.76D-04  0.00D+00 EMaxC= 1.00D+00 BMatC= 3.86D-06 BMatP= 9.33D-06
 IDIUse=1 WtCom= 1.00D+00 WtEn= 0.00D+00
 Coeff-Com:  0.166D-02-0.462D-02 0.410D-02 0.853D-01-0.644D-01-0.476D+00
 Coeff-Com: -0.521D+00 0.198D+01
 Coeff:      0.166D-02-0.462D-02 0.410D-02 0.853D-01-0.644D-01-0.476D+00
 Coeff:     -0.521D+00 0.198D+01
 Gap=     0.243 Goal=   None    Shift=    0.500
 RMSDP=1.71D-05 MaxDP=8.47D-04 DE=-4.31D-05 OVMax= 2.24D-03

 Cycle   9  Pass 1  IDiag  1:
 E= -1497.20338227176     Delta-E=       -0.000020031239 Rises=F Damp=F
 DIIS: error= 1.90D-04 at cycle   9 NSaved=   9.
 NSaved= 9 IEnMin= 9 EnMin= -1497.20338227176     IErMin= 9 ErrMin= 1.90D-04
 ErrMax= 1.90D-04  0.00D+00 EMaxC= 1.00D+00 BMatC= 1.75D-06 BMatP= 3.86D-06
 IDIUse=1 WtCom= 1.00D+00 WtEn= 0.00D+00
 Coeff-Com:  0.206D-02 0.178D-02-0.101D-01 0.405D-01 0.905D-01-0.130D+00
 Coeff-Com: -0.917D+00 0.387D+00 0.154D+01
 Coeff:      0.206D-02 0.178D-02-0.101D-01 0.405D-01 0.905D-01-0.130D+00
 Coeff:     -0.917D+00 0.387D+00 0.154D+01
 Gap=     0.243 Goal=   None    Shift=    0.500
 RMSDP=7.91D-06 MaxDP=4.16D-04 DE=-2.00D-05 OVMax= 1.54D-03

 Cycle  10  Pass 1  IDiag  1:
 E= -1497.20339126478     Delta-E=       -0.000008993024 Rises=F Damp=F
 DIIS: error= 1.31D-04 at cycle  10 NSaved=  10.
 NSaved=10 IEnMin=10 EnMin= -1497.20339126478     IErMin=10 ErrMin= 1.31D-04
 ErrMax= 1.31D-04  0.00D+00 EMaxC= 1.00D+00 BMatC= 8.05D-07 BMatP= 1.75D-06
 IDIUse=1 WtCom= 1.00D+00 WtEn= 0.00D+00
 Coeff-Com: -0.492D-03 0.809D-02-0.142D-01-0.341D-02 0.750D-01 0.810D-01
 Coeff-Com: -0.229D+00-0.683D+00-0.107D-01 0.178D+01
 Coeff:     -0.492D-03 0.809D-02-0.142D-01-0.341D-02 0.750D-01 0.810D-01
 Coeff:     -0.229D+00-0.683D+00-0.107D-01 0.178D+01
 Gap=     0.243 Goal=   None    Shift=    0.500
 RMSDP=4.25D-06 MaxDP=1.18D-04 DE=-8.99D-06 OVMax= 1.08D-03

 Cycle  11  Pass 1  IDiag  1:
 E= -1497.20339522242     Delta-E=       -0.000003957634 Rises=F Damp=F
 DIIS: error= 8.66D-05 at cycle  11 NSaved=  11.
 NSaved=11 IEnMin=11 EnMin= -1497.20339522242     IErMin=11 ErrMin= 8.66D-05
 ErrMax= 8.66D-05  0.00D+00 EMaxC= 1.00D+00 BMatC= 3.70D-07 BMatP= 8.05D-07
 IDIUse=1 WtCom= 1.00D+00 WtEn= 0.00D+00
 Coeff-Com: -0.107D-02 0.514D-02-0.637D-02-0.386D-02 0.271D-02 0.476D-01
 Coeff-Com:  0.157D+00-0.393D+00-0.478D+00-0.198D+00 0.187D+01
 Coeff:     -0.107D-02 0.514D-02-0.637D-02-0.386D-02 0.271D-02 0.476D-01
 Coeff:      0.157D+00-0.393D+00-0.478D+00-0.198D+00 0.187D+01
 Gap=     0.243 Goal=   None    Shift=    0.500
 RMSDP=2.68D-06 MaxDP=7.08D-05 DE=-3.96D-06 OVMax= 7.23D-04

 Cycle  12  Pass 1  IDiag  1:
 E= -1497.20339690321     Delta-E=       -0.000001680794 Rises=F Damp=F
 DIIS: error= 5.77D-05 at cycle  12 NSaved=  12.
 NSaved=12 IEnMin=12 EnMin= -1497.20339690321     IErMin=12 ErrMin= 5.77D-05
 ErrMax= 5.77D-05  0.00D+00 EMaxC= 1.00D+00 BMatC= 1.71D-07 BMatP= 3.70D-07
 IDIUse=1 WtCom= 1.00D+00 WtEn= 0.00D+00
 Coeff-Com: -0.457D-03 0.884D-03-0.597D-04 0.425D-02-0.276D-01-0.844D-02
 Coeff-Com:  0.138D+00 0.959D-01-0.271D+00-0.992D+00 0.361D+00 0.170D+01
 Coeff:     -0.457D-03 0.884D-03-0.597D-04 0.425D-02-0.276D-01-0.844D-02
 Coeff:      0.138D+00 0.959D-01-0.271D+00-0.992D+00 0.361D+00 0.170D+01
 Gap=     0.243 Goal=   None    Shift=    0.500
 RMSDP=1.63D-06 MaxDP=4.71D-05 DE=-1.68D-06 OVMax= 4.77D-04

 Cycle  13  Pass 1  IDiag  1:
 E= -1497.20339760989     Delta-E=       -0.000000706677 Rises=F Damp=F
 DIIS: error= 3.76D-05 at cycle  13 NSaved=  13.
 NSaved=13 IEnMin=13 EnMin= -1497.20339760989     IErMin=13 ErrMin= 3.76D-05
 ErrMax= 3.76D-05  0.00D+00 EMaxC= 1.00D+00 BMatC= 7.70D-08 BMatP= 1.71D-07
 IDIUse=1 WtCom= 1.00D+00 WtEn= 0.00D+00
 Coeff-Com:  0.117D-03-0.868D-04-0.189D-03 0.505D-02-0.605D-02-0.127D-01
 Coeff-Com: -0.501D-01 0.176D+00 0.823D-01-0.209D+00-0.592D+00-0.806D+00
 Coeff-Com:  0.241D+01
 Coeff:      0.117D-03-0.868D-04-0.189D-03 0.505D-02-0.605D-02-0.127D-01
 Coeff:     -0.501D-01 0.176D+00 0.823D-01-0.209D+00-0.592D+00-0.806D+00
 Coeff:      0.241D+01
 Gap=     0.243 Goal=   None    Shift=    0.500
 RMSDP=1.01D-06 MaxDP=3.04D-05 DE=-7.07D-07 OVMax= 3.08D-04

 Cycle  14  Pass 1  IDiag  1:
 E= -1497.20339790161     Delta-E=       -0.000000291719 Rises=F Damp=F
 DIIS: error= 2.40D-05 at cycle  14 NSaved=  14.
 NSaved=14 IEnMin=14 EnMin= -1497.20339790161     IErMin=14 ErrMin= 2.40D-05
 ErrMax= 2.40D-05  0.00D+00 EMaxC= 1.00D+00 BMatC= 3.53D-08 BMatP= 7.70D-08
 IDIUse=1 WtCom= 1.00D+00 WtEn= 0.00D+00
 Coeff-Com:  0.178D-03-0.255D-04-0.564D-03 0.278D-02 0.276D-02-0.451D-02
 Coeff-Com: -0.729D-01 0.995D-01 0.137D+00 0.118D+00-0.569D+00-0.109D+01
 Coeff-Com:  0.105D+01 0.132D+01
 Coeff:      0.178D-03-0.255D-04-0.564D-03 0.278D-02 0.276D-02-0.451D-02
 Coeff:     -0.729D-01 0.995D-01 0.137D+00 0.118D+00-0.569D+00-0.109D+01
 Coeff:      0.105D+01 0.132D+01
 Gap=     0.243 Goal=   None    Shift=    0.500
 RMSDP=6.37D-07 MaxDP=1.74D-05 DE=-2.92D-07 OVMax= 2.02D-04

 SCF Done:  E(RLC-wHPBE) =  -1497.20339790     A.U. after   14 cycles
            NFock= 14  Conv=0.64D-06     -V/T= 2.0046
 KE= 1.490338008912D+03 PE=-1.053413082985D+04 EE= 4.017823883192D+03
 Leave Link  502 at Mon Jan 18 05:21:33 2021, MaxMem=  4026531840 cpu:            7083.5 elap:             898.0
 (Enter /opt/ohpc/pub/libs/gaussian/g16-A.03/sandybridge/g16/l508.exe)
 QCSCF skips out because SCF is already converged.
 Leave Link  508 at Mon Jan 18 05:21:33 2021, MaxMem=  4026531840 cpu:               0.1 elap:               0.0
 (Enter /opt/ohpc/pub/libs/gaussian/g16-A.03/sandybridge/g16/l601.exe)
 Copying SCF densities to generalized density rwf, IOpCl= 0 IROHF=0.

 **********************************************************************

            Population analysis using the SCF density.

 **********************************************************************

 Orbital symmetries:
       Occupied  (A) (A) (A) (A) (A) (A) (A) (A) (A) (A) (A) (A)
                 (A) (A) (A) (A) (A) (A) (A) (A) (A) (A) (A) (A)
                 (A) (A) (A) (A) (A) (A) (A) (A) (A) (A) (A) (A)
                 (A) (A) (A) (A) (A) (A) (A) (A) (A) (A) (A) (A)
                 (A) (A) (A) (A) (A) (A) (A) (A) (A) (A) (A) (A)
                 (A) (A) (A) (A) (A) (A) (A) (A) (A) (A) (A) (A)
                 (A) (A) (A) (A) (A) (A) (A) (A) (A) (A) (A) (A)
                 (A) (A) (A) (A) (A) (A) (A) (A) (A) (A) (A) (A)
                 (A) (A) (A) (A) (A) (A) (A) (A) (A) (A) (A) (A)
                 (A) (A) (A) (A) (A) (A) (A) (A) (A) (A) (A) (A)
                 (A) (A) (A) (A) (A) (A) (A) (A) (A)
       Virtual   (A) (A) (A) (A) (A) (A) (A) (A) (A) (A) (A) (A)
                 (A) (A) (A) (A) (A) (A) (A) (A) (A) (A) (A) (A)
                 (A) (A) (A) (A) (A) (A) (A) (A) (A) (A) (A) (A)
                 (A) (A) (A) (A) (A) (A) (A) (A) (A) (A) (A) (A)
                 (A) (A) (A) (A) (A) (A) (A) (A) (A) (A) (A) (A)
                 (A) (A) (A) (A) (A) (A) (A) (A) (A) (A) (A) (A)
                 (A) (A) (A) (A) (A) (A) (A) (A) (A) (A) (A) (A)
                 (A) (A) (A) (A) (A) (A) (A) (A) (A) (A) (A) (A)
                 (A) (A) (A) (A) (A) (A) (A) (A) (A) (A) (A) (A)
                 (A) (A) (A) (A) (A) (A) (A) (A) (A) (A) (A) (A)
                 (A) (A) (A) (A) (A) (A) (A) (A) (A) (A) (A) (A)
                 (A) (A) (A) (A) (A) (A) (A) (A) (A) (A) (A) (A)
                 (A) (A) (A) (A) (A) (A) (A) (A) (A) (A) (A) (A)
                 (A) (A) (A) (A) (A) (A) (A) (A) (A) (A) (A) (A)
                 (A) (A) (A) (A) (A) (A) (A) (A) (A) (A) (A) (A)
                 (A) (A) (A) (A) (A) (A) (A) (A) (A) (A) (A) (A)
                 (A) (A) (A) (A) (A) (A) (A) (A) (A) (A) (A) (A)
                 (A) (A) (A) (A) (A) (A) (A) (A) (A) (A) (A) (A)
                 (A) (A) (A) (A) (A) (A) (A) (A) (A) (A) (A) (A)
                 (A) (A) (A) (A) (A) (A) (A) (A) (A) (A) (A) (A)
                 (A) (A) (A) (A) (A) (A) (A) (A) (A) (A) (A) (A)
                 (A) (A) (A) (A) (A) (A) (A) (A) (A) (A) (A) (A)
                 (A) (A) (A) (A) (A) (A) (A) (A) (A) (A) (A) (A)
                 (A) (A) (A) (A) (A) (A) (A) (A) (A) (A) (A) (A)
                 (A) (A) (A) (A) (A) (A) (A) (A) (A) (A) (A) (A)
                 (A) (A) (A) (A) (A) (A) (A) (A) (A) (A) (A) (A)
                 (A) (A) (A) (A) (A) (A) (A) (A) (A) (A) (A) (A)
                 (A) (A) (A) (A) (A) (A) (A) (A) (A) (A) (A) (A)
                 (A) (A) (A) (A) (A) (A) (A) (A) (A) (A) (A) (A)
                 (A) (A) (A) (A) (A) (A) (A) (A) (A) (A) (A) (A)
                 (A) (A) (A) (A) (A) (A) (A) (A) (A) (A) (A) (A)
                 (A) (A) (A) (A) (A) (A) (A) (A) (A) (A) (A) (A)
                 (A) (A) (A) (A) (A) (A) (A) (A) (A) (A) (A) (A)
                 (A) (A) (A) (A) (A) (A) (A) (A) (A) (A) (A) (A)
                 (A) (A) (A) (A) (A) (A) (A) (A) (A) (A) (A) (A)
                 (A) (A) (A) (A) (A) (A) (A) (A) (A) (A) (A) (A)
                 (A) (A) (A) (A) (A) (A) (A) (A) (A) (A) (A) (A)
                 (A) (A) (A) (A) (A) (A) (A) (A) (A) (A) (A) (A)
                 (A) (A) (A) (A) (A) (A) (A) (A) (A) (A) (A) (A)
                 (A) (A) (A) (A) (A) (A) (A) (A) (A) (A) (A) (A)
                 (A) (A) (A) (A) (A) (A) (A) (A) (A) (A) (A) (A)
                 (A) (A) (A) (A) (A) (A) (A) (A) (A) (A) (A) (A)
                 (A) (A) (A) (A) (A) (A) (A) (A) (A) (A) (A) (A)
                 (A) (A) (A) (A) (A) (A) (A) (A) (A) (A) (A) (A)
                 (A) (A) (A) (A) (A) (A) (A) (A) (A) (A) (A) (A)
                 (A) (A) (A) (A) (A) (A) (A) (A) (A) (A) (A) (A)
                 (A) (A) (A) (A) (A) (A) (A) (A) (A) (A) (A) (A)
                 (A) (A) (A) (A) (A) (A) (A) (A) (A) (A) (A) (A)
                 (A) (A) (A) (A) (A) (A) (A) (A) (A) (A) (A) (A)
                 (A) (A) (A) (A) (A) (A) (A) (A) (A) (A) (A) (A)
                 (A) (A) (A) (A) (A) (A) (A) (A) (A) (A) (A) (A)
                 (A) (A) (A) (A) (A) (A) (A) (A) (A) (A) (A) (A)
                 (A) (A) (A) (A) (A) (A) (A) (A) (A) (A) (A) (A)
                 (A) (A) (A) (A) (A) (A) (A) (A) (A) (A) (A) (A)
                 (A) (A) (A) (A) (A) (A) (A) (A) (A) (A) (A) (A)
                 (A) (A) (A) (A) (A) (A) (A) (A) (A) (A) (A) (A)
                 (A) (A) (A) (A) (A) (A) (A) (A) (A) (A) (A) (A)
                 (A) (A) (A) (A) (A) (A) (A) (A) (A) (A) (A) (A)
                 (A) (A) (A) (A) (A) (A) (A) (A) (A) (A) (A) (A)
                 (A) (A) (A) (A) (A) (A) (A) (A) (A) (A) (A) (A)
                 (A) (A) (A) (A) (A) (A) (A) (A) (A) (A) (A) (A)
                 (A) (A) (A) (A) (A) (A) (A) (A) (A) (A) (A) (A)
                 (A) (A) (A) (A) (A) (A) (A) (A) (A) (A) (A) (A)
                 (A) (A) (A) (A) (A)
 The electronic state is 1-A.
 Alpha  occ. eigenvalues --  -14.12072 -14.12071 -10.02948 -10.02947 -10.02947
 Alpha  occ. eigenvalues --  -10.02946 -10.02871 -10.02870  -9.99536  -9.99522
 Alpha  occ. eigenvalues --   -9.98928  -9.98928  -9.98927  -9.98926  -9.98926
 Alpha  occ. eigenvalues --   -9.98925  -9.98925  -9.98923  -9.98866  -9.98865
 Alpha  occ. eigenvalues --   -9.98864  -9.98862  -9.98671  -9.98670  -9.98670
 Alpha  occ. eigenvalues --   -9.98669  -9.98654  -9.98653  -9.98653  -9.98651
 Alpha  occ. eigenvalues --   -9.98647  -9.98647  -9.98646  -9.98645  -9.98459
 Alpha  occ. eigenvalues --   -9.98458  -9.98458  -9.98456  -0.99482  -0.99477
 Alpha  occ. eigenvalues --   -0.90038  -0.89003  -0.89002  -0.88712  -0.87525
 Alpha  occ. eigenvalues --   -0.86682  -0.81489  -0.79643  -0.79564  -0.78918
 Alpha  occ. eigenvalues --   -0.78367  -0.78260  -0.78040  -0.78020  -0.77749
 Alpha  occ. eigenvalues --   -0.77485  -0.75406  -0.73384  -0.68354  -0.67629
 Alpha  occ. eigenvalues --   -0.67034  -0.66097  -0.65586  -0.64670  -0.64638
 Alpha  occ. eigenvalues --   -0.64524  -0.63626  -0.63547  -0.61851  -0.61225
 Alpha  occ. eigenvalues --   -0.58901  -0.58722  -0.58496  -0.58256  -0.55924
 Alpha  occ. eigenvalues --   -0.54393  -0.53440  -0.53341  -0.52769  -0.52223
 Alpha  occ. eigenvalues --   -0.51505  -0.50497  -0.50232  -0.50005  -0.49528
 Alpha  occ. eigenvalues --   -0.49076  -0.49034  -0.48639  -0.48186  -0.48145
 Alpha  occ. eigenvalues --   -0.48039  -0.47381  -0.47190  -0.47124  -0.46980
 Alpha  occ. eigenvalues --   -0.46974  -0.46671  -0.45096  -0.43925  -0.43723
 Alpha  occ. eigenvalues --   -0.43429  -0.43374  -0.43319  -0.42991  -0.41658
 Alpha  occ. eigenvalues --   -0.41317  -0.40824  -0.40629  -0.40322  -0.40259
 Alpha  occ. eigenvalues --   -0.40003  -0.39406  -0.39176  -0.38994  -0.38812
 Alpha  occ. eigenvalues --   -0.37107  -0.36455  -0.33830  -0.32615  -0.32590
 Alpha  occ. eigenvalues --   -0.32555  -0.32549  -0.31692  -0.31445  -0.31389
 Alpha  occ. eigenvalues --   -0.31353  -0.30524  -0.25066  -0.23623
 Alpha virt. eigenvalues --    0.00700   0.02133   0.02188   0.02576   0.02578
 Alpha virt. eigenvalues --    0.04093   0.04395   0.04584   0.04620   0.04629
 Alpha virt. eigenvalues --    0.06800   0.08551   0.10048   0.10264   0.11038
 Alpha virt. eigenvalues --    0.11084   0.11395   0.12097   0.12686   0.13323
 Alpha virt. eigenvalues --    0.13425   0.13690   0.13915   0.13940   0.14201
 Alpha virt. eigenvalues --    0.14230   0.15047   0.15269   0.15369   0.16252
 Alpha virt. eigenvalues --    0.16322   0.16360   0.16582   0.16606   0.16786
 Alpha virt. eigenvalues --    0.17109   0.17483   0.17983   0.18182   0.18187
 Alpha virt. eigenvalues --    0.18297   0.18654   0.18993   0.18995   0.21125
 Alpha virt. eigenvalues --    0.21248   0.21413   0.21452   0.22683   0.22981
 Alpha virt. eigenvalues --    0.23950   0.24239   0.24301   0.24461   0.24731
 Alpha virt. eigenvalues --    0.25076   0.25189   0.25326   0.25337   0.25825
 Alpha virt. eigenvalues --    0.26079   0.26356   0.26658   0.26787   0.26792
 Alpha virt. eigenvalues --    0.27362   0.27896   0.27978   0.28062   0.28115
 Alpha virt. eigenvalues --    0.28338   0.28748   0.28824   0.28974   0.29044
 Alpha virt. eigenvalues --    0.29211   0.29225   0.29330   0.29794   0.29905
 Alpha virt. eigenvalues --    0.30067   0.30240   0.30699   0.30817   0.30972
 Alpha virt. eigenvalues --    0.31308   0.31782   0.32050   0.32329   0.32441
 Alpha virt. eigenvalues --    0.32447   0.32964   0.33503   0.33649   0.33950
 Alpha virt. eigenvalues --    0.34027   0.34363   0.34425   0.34678   0.35649
 Alpha virt. eigenvalues --    0.35819   0.36004   0.36082   0.36406   0.37228
 Alpha virt. eigenvalues --    0.37381   0.37397   0.37675   0.37811   0.37833
 Alpha virt. eigenvalues --    0.38033   0.38055   0.38635   0.38682   0.39624
 Alpha virt. eigenvalues --    0.40149   0.40368   0.40743   0.41019   0.41388
 Alpha virt. eigenvalues --    0.41654   0.41996   0.42103   0.42423   0.42850
 Alpha virt. eigenvalues --    0.42859   0.42999   0.43266   0.43635   0.43806
 Alpha virt. eigenvalues --    0.43843   0.44043   0.44382   0.44391   0.44405
 Alpha virt. eigenvalues --    0.44433   0.44679   0.45253   0.45644   0.45659
 Alpha virt. eigenvalues --    0.45674   0.46102   0.46277   0.46651   0.46668
 Alpha virt. eigenvalues --    0.47408   0.47583   0.47728   0.47730   0.47870
 Alpha virt. eigenvalues --    0.47996   0.48344   0.48604   0.48716   0.48885
 Alpha virt. eigenvalues --    0.49058   0.49531   0.49773   0.50013   0.50140
 Alpha virt. eigenvalues --    0.50616   0.50660   0.50943   0.51075   0.51586
 Alpha virt. eigenvalues --    0.51607   0.52414   0.52445   0.52620   0.53594
 Alpha virt. eigenvalues --    0.53696   0.53717   0.53804   0.54151   0.54201
 Alpha virt. eigenvalues --    0.54214   0.54770   0.54870   0.55049   0.55077
 Alpha virt. eigenvalues --    0.55679   0.55724   0.56165   0.56344   0.56359
 Alpha virt. eigenvalues --    0.57421   0.57448   0.57513   0.57699   0.57793
 Alpha virt. eigenvalues --    0.59006   0.59700   0.59920   0.59974   0.60336
 Alpha virt. eigenvalues --    0.60449   0.60676   0.61492   0.61535   0.61629
 Alpha virt. eigenvalues --    0.61954   0.62488   0.62612   0.63361   0.63448
 Alpha virt. eigenvalues --    0.66307   0.66523   0.66753   0.66774   0.67054
 Alpha virt. eigenvalues --    0.67177   0.67959   0.68328   0.68457   0.69790
 Alpha virt. eigenvalues --    0.70827   0.71278   0.71397   0.71797   0.72377
 Alpha virt. eigenvalues --    0.72859   0.73048   0.73181   0.73474   0.73540
 Alpha virt. eigenvalues --    0.74158   0.74353   0.74441   0.74560   0.74709
 Alpha virt. eigenvalues --    0.74860   0.74910   0.75271   0.75314   0.76002
 Alpha virt. eigenvalues --    0.76605   0.77310   0.77889   0.78425   0.78956
 Alpha virt. eigenvalues --    0.79578   0.79737   0.80597   0.80744   0.81221
 Alpha virt. eigenvalues --    0.82126   0.82459   0.82899   0.83183   0.83313
 Alpha virt. eigenvalues --    0.84977   0.85494   0.86242   0.87082   0.87623
 Alpha virt. eigenvalues --    0.90078   0.90254   0.90356   0.90390   0.90542
 Alpha virt. eigenvalues --    0.90992   0.91048   0.92315   0.96231   0.96868
 Alpha virt. eigenvalues --    0.97046   0.97146   1.00079   1.00143   1.17028
 Alpha virt. eigenvalues --    1.18117   1.19600   1.19606   1.19807   1.23130
 Alpha virt. eigenvalues --    1.23434   1.23996   1.24250   1.25365   1.25820
 Alpha virt. eigenvalues --    1.26494   1.26616   1.26747   1.26790   1.27346
 Alpha virt. eigenvalues --    1.27505   1.28225   1.28689   1.28821   1.29529
 Alpha virt. eigenvalues --    1.29738   1.29858   1.30131   1.30214   1.30635
 Alpha virt. eigenvalues --    1.31156   1.31383   1.31400   1.31433   1.31879
 Alpha virt. eigenvalues --    1.31977   1.32039   1.32296   1.32303   1.32820
 Alpha virt. eigenvalues --    1.33448   1.33828   1.33911   1.33951   1.34195
 Alpha virt. eigenvalues --    1.34575   1.34745   1.34782   1.34946   1.35544
 Alpha virt. eigenvalues --    1.35595   1.36773   1.36782   1.37027   1.37231
 Alpha virt. eigenvalues --    1.37386   1.37504   1.37822   1.38495   1.39028
 Alpha virt. eigenvalues --    1.39250   1.39685   1.44690   1.45151   1.45334
 Alpha virt. eigenvalues --    1.45446   1.45509   1.45815   1.46153   1.46502
 Alpha virt. eigenvalues --    1.46605   1.46983   1.47012   1.47027   1.47126
 Alpha virt. eigenvalues --    1.47274   1.47319   1.47614   1.47627   1.47716
 Alpha virt. eigenvalues --    1.48105   1.48133   1.48586   1.49262   1.49470
 Alpha virt. eigenvalues --    1.49507   1.49660   1.50062   1.50154   1.50316
 Alpha virt. eigenvalues --    1.50452   1.50777   1.50829   1.50933   1.51138
 Alpha virt. eigenvalues --    1.51271   1.51339   1.51467   1.52526   1.52880
 Alpha virt. eigenvalues --    1.53176   1.53600   1.53884   1.54066   1.54654
 Alpha virt. eigenvalues --    1.54949   1.55109   1.55252   1.55584   1.56047
 Alpha virt. eigenvalues --    1.56119   1.56900   1.57268   1.57287   1.57921
 Alpha virt. eigenvalues --    1.57924   1.58138   1.58184   1.58278   1.58366
 Alpha virt. eigenvalues --    1.58593   1.58880   1.59746   1.59779   1.60267
 Alpha virt. eigenvalues --    1.60389   1.60475   1.60559   1.60827   1.60930
 Alpha virt. eigenvalues --    1.61363   1.61434   1.61519   1.61556   1.62652
 Alpha virt. eigenvalues --    1.62654   1.62799   1.63477   1.64071   1.64219
 Alpha virt. eigenvalues --    1.64460   1.67426   1.68164   1.69651   1.69724
 Alpha virt. eigenvalues --    1.70186   1.70243   1.70272   1.70326   1.72033
 Alpha virt. eigenvalues --    1.73912   1.74060   1.74887   1.75001   1.76090
 Alpha virt. eigenvalues --    1.78575   1.78811   1.79277   1.79308   1.79494
 Alpha virt. eigenvalues --    1.79582   1.79743   1.79803   1.79877   1.80405
 Alpha virt. eigenvalues --    1.80532   1.80839   1.80847   1.81338   1.81951
 Alpha virt. eigenvalues --    1.82112   1.82113   1.82239   1.82674   1.83482
 Alpha virt. eigenvalues --    1.83583   1.84004   1.84267   1.84467   1.84865
 Alpha virt. eigenvalues --    1.84909   1.84957   1.85130   1.85526   1.85991
 Alpha virt. eigenvalues --    1.87195   1.87513   1.88595   1.88810   1.90164
 Alpha virt. eigenvalues --    1.90179   1.90549   1.90907   1.91188   1.91275
 Alpha virt. eigenvalues --    1.91285   1.91833   1.92030   1.92137   1.93317
 Alpha virt. eigenvalues --    1.93855   1.94152   1.94390   1.94520   1.94525
 Alpha virt. eigenvalues --    1.94531   1.95002   1.95103   1.95320   1.95399
 Alpha virt. eigenvalues --    1.95411   1.95474   1.96100   1.96211   1.96308
 Alpha virt. eigenvalues --    1.96449   1.96547   1.97323   1.97537   1.98124
 Alpha virt. eigenvalues --    1.98870   1.99674   1.99695   2.00072   2.00088
 Alpha virt. eigenvalues --    2.00242   2.00287   2.01746   2.02449   2.03020
 Alpha virt. eigenvalues --    2.03216   2.03231   2.03840   2.04962   2.05273
 Alpha virt. eigenvalues --    2.05518   2.05618   2.06274   2.07341   2.08065
 Alpha virt. eigenvalues --    2.08848   2.10158   2.10216   2.11057   2.12168
 Alpha virt. eigenvalues --    2.14011   2.14267   2.14324   2.15357   2.15789
 Alpha virt. eigenvalues --    2.17313   2.18943   2.20855   2.22232   2.22423
 Alpha virt. eigenvalues --    2.22575   2.23923   2.25433   2.25856   2.26788
 Alpha virt. eigenvalues --    2.26873   2.26942   2.28962   2.29676   2.29815
 Alpha virt. eigenvalues --    2.31941   2.32052   2.32927   2.32928   2.33142
 Alpha virt. eigenvalues --    2.33606   2.33760   2.33832   2.33919   2.34096
 Alpha virt. eigenvalues --    2.34100   2.34295   2.34949   2.35644   2.35892
 Alpha virt. eigenvalues --    2.36195   2.36214   2.36416   2.36589   2.36744
 Alpha virt. eigenvalues --    2.37559   2.37562   2.38177   2.38920   2.39185
 Alpha virt. eigenvalues --    2.39188   2.39190   2.39273   2.39534   2.39599
 Alpha virt. eigenvalues --    2.39807   2.40070   2.40777   2.40864   2.41015
 Alpha virt. eigenvalues --    2.41630   2.44152   2.46814   2.47926   2.48285
 Alpha virt. eigenvalues --    2.48585   2.49050   2.49072   2.49639   2.52532
 Alpha virt. eigenvalues --    2.52681   2.52755   2.52982   2.54045   2.54053
 Alpha virt. eigenvalues --    2.54140   2.54292   2.54913   2.54925   2.55263
 Alpha virt. eigenvalues --    2.55872   2.57545   2.57819   2.57970   2.57993
 Alpha virt. eigenvalues --    2.58405   2.61015   2.61737   2.62801   2.63334
 Alpha virt. eigenvalues --    2.63624   2.65707   2.65941   2.66169   2.66228
 Alpha virt. eigenvalues --    2.66823   2.66849   2.66991   2.67155   2.67204
 Alpha virt. eigenvalues --    2.67924   2.68187   2.68572   2.68609   2.68877
 Alpha virt. eigenvalues --    2.69498   2.69797   2.69906   2.70237   2.70796
 Alpha virt. eigenvalues --    2.71680   2.76419   2.76541   2.76552   2.76687
 Alpha virt. eigenvalues --    2.76772   2.78616   2.78852   2.78996   2.79120
 Alpha virt. eigenvalues --    2.80260   2.81334   2.81533   2.81872   2.82321
 Alpha virt. eigenvalues --    2.83886   2.84822   2.85191   2.86092   2.86749
 Alpha virt. eigenvalues --    2.87410   2.87484   2.87563   2.87857   2.88258
 Alpha virt. eigenvalues --    2.92060   2.92881   2.98257   2.99254   2.99314
 Alpha virt. eigenvalues --    2.99438   3.00095   3.00258   3.01464   3.01553
 Alpha virt. eigenvalues --    3.03750   3.03786   3.04449   3.04455   3.05212
 Alpha virt. eigenvalues --    3.05659   3.05838   3.05961   3.06645   3.06759
 Alpha virt. eigenvalues --    3.07263   3.07794   3.09404   3.09912   3.10358
 Alpha virt. eigenvalues --    3.11934   3.12480   3.12494   3.13094   3.14224
 Alpha virt. eigenvalues --    3.14571   3.14761   3.16903   3.16996   3.17442
 Alpha virt. eigenvalues --    3.17962   3.19650   3.19845   3.20552   3.20661
 Alpha virt. eigenvalues --    3.21710   3.22029   3.22422   3.22930   3.23055
 Alpha virt. eigenvalues --    3.23977   3.24971   3.25327   3.25759   3.26698
 Alpha virt. eigenvalues --    3.28417   3.29011   3.32304   3.34845   3.34858
 Alpha virt. eigenvalues --    3.35299   3.35767   3.37284   3.37394   3.39724
 Alpha virt. eigenvalues --    3.40704   3.42082   3.43041   3.43114   3.43115
 Alpha virt. eigenvalues --    3.47701   3.48442   3.54686   3.55471   3.57093
 Alpha virt. eigenvalues --    3.57195   3.58713   3.58754   3.61032   3.63258
 Alpha virt. eigenvalues --    3.63338   3.63610   3.80796   3.84218   3.91970
 Alpha virt. eigenvalues --    3.94320   3.94409   3.94632  21.15890  21.20454
 Alpha virt. eigenvalues --   21.20824  21.22181  21.22402  21.36862  21.68405
 Alpha virt. eigenvalues --   21.68458  21.68694  21.71487  21.71498  21.71928
 Alpha virt. eigenvalues --   21.74288  21.74896  21.77527  21.80667  21.80729
 Alpha virt. eigenvalues --   21.90265  21.91061  21.94796  21.94811  21.95836
 Alpha virt. eigenvalues --   21.97280  21.97929  21.98071  22.00343  22.02829
 Alpha virt. eigenvalues --   22.03314  22.03441  22.05409  22.08707  22.09592
 Alpha virt. eigenvalues --   22.14818  22.15050  22.15467  22.16692  32.04362
 Alpha virt. eigenvalues --   32.05307
          Condensed to atoms (all electrons):
 Mulliken charges:
               1
     1  C   -0.121085
     2  C   -0.036866
     3  C   -0.150596
     4  C   -0.121111
     5  C    0.034637
     6  C   -0.150585
     7  H    0.123217
     8  H    0.143338
     9  H    0.123214
    10  C    0.034728
    11  C   -0.150610
    12  C   -0.150602
    13  C   -0.120760
    14  C   -0.120865
    15  C   -0.037464
    16  H    0.123218
    17  H    0.123219
    18  H    0.143262
    19  H    0.143284
    20  H    0.143331
    21  N   -0.004897
    22  C   -0.053418
    23  C   -0.113501
    24  C   -0.107510
    25  C   -0.110348
    26  C   -0.110327
    27  C   -0.100768
    28  H    0.147876
    29  H    0.146178
    30  H    0.103976
    31  H    0.103940
    32  H    0.102657
    33  C   -0.053825
    34  C   -0.113326
    35  C   -0.107288
    36  C   -0.110365
    37  C   -0.110330
    38  C   -0.100723
    39  H    0.147856
    40  H    0.146118
    41  H    0.103983
    42  H    0.103946
    43  H    0.102668
    44  N   -0.004904
    45  C   -0.053801
    46  C   -0.113227
    47  C   -0.107414
    48  C   -0.110348
    49  C   -0.110331
    50  C   -0.100730
    51  H    0.147813
    52  H    0.146163
    53  H    0.103984
    54  H    0.103948
    55  H    0.102670
    56  C   -0.054001
    57  C   -0.113154
    58  C   -0.107293
    59  C   -0.110359
    60  C   -0.110344
    61  C   -0.100709
    62  H    0.147797
    63  H    0.146153
    64  H    0.103987
    65  H    0.103951
    66  H    0.102673
 Sum of Mulliken charges =  -0.00000
 Mulliken charges with hydrogens summed into heavy atoms:
               1
     1  C    0.022246
     2  C   -0.036866
     3  C   -0.027380
     4  C    0.022227
     5  C    0.034637
     6  C   -0.027371
    10  C    0.034728
    11  C   -0.027393
    12  C   -0.027383
    13  C    0.022502
    14  C    0.022419
    15  C   -0.037464
    21  N   -0.004897
    22  C   -0.053418
    23  C    0.034375
    24  C    0.038667
    25  C   -0.006372
    26  C   -0.006387
    27  C    0.001889
    33  C   -0.053825
    34  C    0.034530
    35  C    0.038830
    36  C   -0.006382
    37  C   -0.006384
    38  C    0.001945
    44  N   -0.004904
    45  C   -0.053801
    46  C    0.034586
    47  C    0.038749
    48  C   -0.006364
    49  C   -0.006383
    50  C    0.001940
    56  C   -0.054001
    57  C    0.034643
    58  C    0.038860
    59  C   -0.006372
    60  C   -0.006393
    61  C    0.001964
 Electronic spatial extent (au):  <R**2>=          32902.7357
 Charge=             -0.0000 electrons
 Dipole moment (field-independent basis, Debye):
    X=             -0.0038    Y=              0.0007    Z=              0.0005  Tot=              0.0039
 Quadrupole moment (field-independent basis, Debye-Ang):
   XX=           -204.8116   YY=           -207.0305   ZZ=           -218.0426
   XY=              0.0143   XZ=              0.0007   YZ=             -0.0051
 Traceless Quadrupole moment (field-independent basis, Debye-Ang):
   XX=              5.1499   YY=              2.9311   ZZ=             -8.0810
   XY=              0.0143   XZ=              0.0007   YZ=             -0.0051
 Octapole moment (field-independent basis, Debye-Ang**2):
  XXX=             -0.1311  YYY=              0.0117  ZZZ=              0.0202  XYY=             -0.0447
  XXY=              0.0413  XXZ=              0.0052  XZZ=             -0.0469  YZZ=              0.0053
  YYZ=             -0.0100  XYZ=             34.0276
 Hexadecapole moment (field-independent basis, Debye-Ang**3):
 XXXX=         -37519.0424 YYYY=          -5747.3546 ZZZZ=          -1533.0372 XXXY=              0.6202
 XXXZ=             -0.0296 YYYX=              0.1889 YYYZ=              0.0250 ZZZX=              0.0404
 ZZZY=             -0.0662 XXYY=          -6733.4264 XXZZ=          -6858.1945 YYZZ=          -1117.2451
 XXYZ=             -0.0745 YYXZ=             -0.0212 ZZXY=              0.1121
 N-N= 3.528765539844D+03 E-N=-1.053413156068D+04  KE= 1.490338008912D+03
 No NMR shielding tensors so no spin-rotation constants.
 Leave Link  601 at Mon Jan 18 05:21:34 2021, MaxMem=  4026531840 cpu:               5.1 elap:               0.7
 (Enter /opt/ohpc/pub/libs/gaussian/g16-A.03/sandybridge/g16/l9999.exe)

 Test job not archived.
 1\1\GINC-CASCADEB019\SP\RLC-wHPBE\TZVP\C36H28N2\RDU230\18-Jan-2021\0\\
 #P LC-wHPBE/TZVP iop(3/107=0178100000, 3/108=0178100000) scf=(conver=6
 ,fermi,ndamp=35,noincfock,novaracc,vshift=500,xqc)\\H28 C36 N2\\0,1\C,
 0,2.849999,-1.125861,0.415638\C,0,3.563139,-0.000026,-0.000017\C,0,1.4
 64492,-1.123667,0.405534\C,0,2.850033,1.125752,-0.415809\C,0,0.741288,
 -0.000047,-0.000195\C,0,1.464504,1.123547,-0.405879\H,0,0.931596,-2.00
 5844,0.756198\H,0,3.391048,2.006254,-0.75499\H,0,0.931669,2.005728,-0.
 756629\C,0,-0.741437,-0.000073,-0.000217\C,0,-1.464635,1.123165,0.4065
 56\C,0,-1.464638,-1.123302,-0.406976\C,0,-2.850149,1.125343,0.41661\C,
 0,-2.850163,-1.125491,-0.416935\C,0,-3.563257,-0.000095,-0.000116\H,0,
 -0.931751,2.005025,0.758038\H,0,-0.931783,-2.00514,-0.758553\H,0,-3.39
 1193,2.005527,0.756576\H,0,-3.391211,-2.005669,-0.756913\H,0,3.391005,
 -2.006357,0.754845\N,0,-4.97843,-0.000102,-0.000065\C,0,-5.687099,-1.1
 54578,0.414287\C,0,-6.831881,-1.566674,-0.27115\C,0,-5.251323,-1.89693
 3,1.513908\C,0,-7.528311,-2.692826,0.143324\C,0,-5.943392,-3.032223,1.
 91044\C,0,-7.087522,-3.435368,1.232277\H,0,-7.173684,-0.995181,-1.1311
 17\H,0,-4.363437,-1.577947,2.055099\H,0,-8.419174,-2.999763,-0.40155\H
 ,0,-5.58986,-3.599797,2.769285\H,0,-7.631852,-4.321852,1.550225\C,0,-5
 .687025,1.154532,-0.414292\C,0,-6.831191,1.567225,0.271802\C,0,-5.2517
 07,1.896381,-1.514415\C,0,-7.527485,2.693516,-0.142525\C,0,-5.94362,3.
 031828,-1.910808\C,0,-7.087137,3.435581,-1.231989\H,0,-7.172616,0.9960
 83,1.132151\H,0,-4.364291,1.57691,-2.056093\H,0,-8.417875,3.000945,0.4
 02845\H,0,-5.590451,3.599029,-2.77005\H,0,-7.63135,4.322181,-1.549815\
 N,0,4.978266,0.00002,0.000103\C,0,5.68699,1.154558,0.414335\C,0,6.8312
 89,1.56698,-0.271699\C,0,5.251761,1.896543,1.51441\C,0,7.527834,2.6931
 12,0.142653\C,0,5.943923,3.031822,1.910819\C,0,7.08759,3.435293,1.2320
 69\H,0,7.172649,0.995729,-1.132\H,0,4.364233,1.577285,2.056034\H,0,8.4
 18333,3.000297,-0.402674\H,0,5.59085,3.599137,2.770027\H,0,7.631979,4.
 321768,1.549941\C,0,5.687017,-1.154516,-0.414141\C,0,6.831068,-1.56719
 1,0.272109\C,0,5.251977,-1.896199,-1.514492\C,0,7.527566,-2.693348,-0.
 142281\C,0,5.944079,-3.031486,-1.910953\C,0,7.087509,-3.435246,-1.2319
 58\H,0,7.172277,-0.996155,1.132614\H,0,4.364636,-1.576682,-2.056275\H,
 0,8.417864,-3.000787,0.403227\H,0,5.591165,-3.598572,-2.770374\H,0,7.6
 31874,-4.32173,-1.549857\\Version=EM64L-G16RevA.03\State=1-A\HF=-1497.
 2033979\RMSD=6.374e-07\Dipole=0.001476,0.0002915,-0.0002098\Quadrupole
 =3.8288515,2.1791928,-6.0080443,-0.0106447,0.0004957,0.0037751\PG=C01 
 [X(C36H28N2)]\\@


 LAWS OF PROGRAMMING DEFINITION:  A WORKING PROGRAM
                                  IS ONE THAT HAS
                                  ONLY UNOBSERVED
                                  BUGS.
 Job cpu time:       0 days  1 hours 59 minutes 47.7 seconds.
 Elapsed time:       0 days  0 hours 15 minutes 11.4 seconds.
 File lengths (MBytes):  RWF=    284 Int=      0 D2E=      0 Chk=     52 Scr=      8
 Normal termination of Gaussian 16 at Mon Jan 18 05:21:34 2021.
