 Entering Gaussian System, Link 0=g16
 Input=mol_bp_pa_whol_tune_c9.gjf
 Output=mol_bp_pa_whol_tune_c9.log
 Initial command:
 /opt/ohpc/pub/libs/gaussian/g16-A.03/sandybridge/g16/l1.exe "/mnt/gpfs2_4m/scratch/rdu230/ondemand/projects/init_structures/wtuning/mol_bp_pa_whol/tuning_mol_bp_pa_whol_ocycle0/Gau-140531.inp" -scrdir="/mnt/gpfs2_4m/scratch/rdu230/ondemand/projects/init_structures/wtuning/mol_bp_pa_whol/tuning_mol_bp_pa_whol_ocycle0/"
 Entering Link 1 = /opt/ohpc/pub/libs/gaussian/g16-A.03/sandybridge/g16/l1.exe PID=    140532.
  
 Copyright (c) 1988,1990,1992,1993,1995,1998,2003,2009,2016,
            Gaussian, Inc.  All Rights Reserved.
  
 This is part of the Gaussian(R) 16 program.  It is based on
 the Gaussian(R) 09 system (copyright 2009, Gaussian, Inc.),
 the Gaussian(R) 03 system (copyright 2003, Gaussian, Inc.),
 the Gaussian(R) 98 system (copyright 1998, Gaussian, Inc.),
 the Gaussian(R) 94 system (copyright 1995, Gaussian, Inc.),
 the Gaussian 92(TM) system (copyright 1992, Gaussian, Inc.),
 the Gaussian 90(TM) system (copyright 1990, Gaussian, Inc.),
 the Gaussian 88(TM) system (copyright 1988, Gaussian, Inc.),
 the Gaussian 86(TM) system (copyright 1986, Carnegie Mellon
 University), and the Gaussian 82(TM) system (copyright 1983,
 Carnegie Mellon University). Gaussian is a federally registered
 trademark of Gaussian, Inc.
  
 This software contains proprietary and confidential information,
 including trade secrets, belonging to Gaussian, Inc.
  
 This software is provided under written license and may be
 used, copied, transmitted, or stored only in accord with that
 written license.
  
 The following legend is applicable only to US Government
 contracts under FAR:
  
                    RESTRICTED RIGHTS LEGEND
  
 Use, reproduction and disclosure by the US Government is
 subject to restrictions as set forth in subparagraphs (a)
 and (c) of the Commercial Computer Software - Restricted
 Rights clause in FAR 52.227-19.
  
 Gaussian, Inc.
 340 Quinnipiac St., Bldg. 40, Wallingford CT 06492
  
  
 ---------------------------------------------------------------
 Warning -- This program may not be used in any manner that
 competes with the business of Gaussian, Inc. or will provide
 assistance to any competitor of Gaussian, Inc.  The licensee
 of this program is prohibited from giving any competitor of
 Gaussian, Inc. access to this program.  By using this program,
 the user acknowledges that Gaussian, Inc. is engaged in the
 business of creating and licensing software in the field of
 computational chemistry and represents and warrants to the
 licensee that it is not a competitor of Gaussian, Inc. and that
 it will not use this program in any manner prohibited above.
 ---------------------------------------------------------------
  

 Cite this work as:
 Gaussian 16, Revision A.03,
 M. J. Frisch, G. W. Trucks, H. B. Schlegel, G. E. Scuseria, 
 M. A. Robb, J. R. Cheeseman, G. Scalmani, V. Barone, 
 G. A. Petersson, H. Nakatsuji, X. Li, M. Caricato, A. V. Marenich, 
 J. Bloino, B. G. Janesko, R. Gomperts, B. Mennucci, H. P. Hratchian, 
 J. V. Ortiz, A. F. Izmaylov, J. L. Sonnenberg, D. Williams-Young, 
 F. Ding, F. Lipparini, F. Egidi, J. Goings, B. Peng, A. Petrone, 
 T. Henderson, D. Ranasinghe, V. G. Zakrzewski, J. Gao, N. Rega, 
 G. Zheng, W. Liang, M. Hada, M. Ehara, K. Toyota, R. Fukuda, 
 J. Hasegawa, M. Ishida, T. Nakajima, Y. Honda, O. Kitao, H. Nakai, 
 T. Vreven, K. Throssell, J. A. Montgomery, Jr., J. E. Peralta, 
 F. Ogliaro, M. J. Bearpark, J. J. Heyd, E. N. Brothers, K. N. Kudin, 
 V. N. Staroverov, T. A. Keith, R. Kobayashi, J. Normand, 
 K. Raghavachari, A. P. Rendell, J. C. Burant, S. S. Iyengar, 
 J. Tomasi, M. Cossi, J. M. Millam, M. Klene, C. Adamo, R. Cammi, 
 J. W. Ochterski, R. L. Martin, K. Morokuma, O. Farkas, 
 J. B. Foresman, and D. J. Fox, Gaussian, Inc., Wallingford CT, 2016.
 
 ******************************************
 Gaussian 16:  EM64L-G16RevA.03 25-Dec-2016
                18-Jan-2021 
 ******************************************
 %mem=30GB
 %nproc=8
 Will use up to    8 processors via shared memory.
 ----------------------------------------------------------------------
 #P LC-wHPBE/TZVP iop(3/107=0177700000, 3/108=0177700000) scf=(conver=6
 ,fermi,ndamp=35,noincfock,novaracc,vshift=500,xqc)
 ----------------------------------------------------------------------
 1/38=1,172=1/1;
 2/12=2,17=6,18=5,40=1/2;
 3/5=19,7=101,11=2,25=1,30=1,74=-71,107=177700000,108=177700000/1,2,3;
 4//1;
 5/5=100002,6=6,8=3,10=500,13=1,18=-1,22=13,38=1,93=35/2,8;
 6/7=2,8=2,9=2,10=2,28=1/1;
 99/5=1,9=1/99;
 Leave Link    1 at Mon Jan 18 04:35:34 2021, MaxMem=  4026531840 cpu:               0.6 elap:               0.1
 (Enter /opt/ohpc/pub/libs/gaussian/g16-A.03/sandybridge/g16/l101.exe)
 ----------
 H28 C36 N2
 ----------
 Symbolic Z-matrix:
 Charge =  1 Multiplicity = 2
 C                     2.85     -1.12586   0.41564 
 C                     3.56314  -0.00003  -0.00002 
 C                     1.46449  -1.12367   0.40553 
 C                     2.85003   1.12575  -0.41581 
 C                     0.74129  -0.00005  -0.0002 
 C                     1.4645    1.12355  -0.40588 
 H                     0.9316   -2.00584   0.7562 
 H                     3.39105   2.00625  -0.75499 
 H                     0.93167   2.00573  -0.75663 
 C                    -0.74144  -0.00007  -0.00022 
 C                    -1.46464   1.12316   0.40656 
 C                    -1.46464  -1.1233   -0.40698 
 C                    -2.85015   1.12534   0.41661 
 C                    -2.85016  -1.12549  -0.41694 
 C                    -3.56326  -0.0001   -0.00012 
 H                    -0.93175   2.00502   0.75804 
 H                    -0.93178  -2.00514  -0.75855 
 H                    -3.39119   2.00553   0.75658 
 H                    -3.39121  -2.00567  -0.75691 
 H                     3.39101  -2.00636   0.75485 
 N                    -4.97843  -0.0001   -0.00007 
 C                    -5.6871   -1.15458   0.41429 
 C                    -6.83188  -1.56667  -0.27115 
 C                    -5.25132  -1.89693   1.51391 
 C                    -7.52831  -2.69283   0.14332 
 C                    -5.94339  -3.03222   1.91044 
 C                    -7.08752  -3.43537   1.23228 
 H                    -7.17368  -0.99518  -1.13112 
 H                    -4.36344  -1.57795   2.0551 
 H                    -8.41917  -2.99976  -0.40155 
 H                    -5.58986  -3.5998    2.76929 
 H                    -7.63185  -4.32185   1.55023 
 C                    -5.68703   1.15453  -0.41429 
 C                    -6.83119   1.56723   0.2718 
 C                    -5.25171   1.89638  -1.51442 
 C                    -7.52749   2.69352  -0.14253 
 C                    -5.94362   3.03183  -1.91081 
 C                    -7.08714   3.43558  -1.23199 
 H                    -7.17262   0.99608   1.13215 
 H                    -4.36429   1.57691  -2.05609 
 H                    -8.41788   3.00095   0.40285 
 H                    -5.59045   3.59903  -2.77005 
 H                    -7.63135   4.32218  -1.54982 
 N                     4.97827   0.00002   0.0001 
 C                     5.68699   1.15456   0.41434 
 C                     6.83129   1.56698  -0.2717 
 C                     5.25176   1.89654   1.51441 
 C                     7.52783   2.69311   0.14265 
 C                     5.94392   3.03182   1.91082 
 C                     7.08759   3.43529   1.23207 
 H                     7.17265   0.99573  -1.132 
 H                     4.36423   1.57729   2.05603 
 H                     8.41833   3.0003   -0.40267 
 H                     5.59085   3.59914   2.77003 
 H                     7.63198   4.32177   1.54994 
 C                     5.68702  -1.15452  -0.41414 
 C                     6.83107  -1.56719   0.27211 
 C                     5.25198  -1.8962   -1.51449 
 C                     7.52757  -2.69335  -0.14228 
 C                     5.94408  -3.03149  -1.91095 
 C                     7.08751  -3.43525  -1.23196 
 H                     7.17228  -0.99616   1.13261 
 H                     4.36464  -1.57668  -2.05627 
 H                     8.41786  -3.00079   0.40323 
 H                     5.59117  -3.59857  -2.77037 
 H                     7.63187  -4.32173  -1.54986 
 
 ITRead=  0  0  0  0  0  0  0  0  0  0  0  0  0  0  0  0  0  0  0  0
 ITRead=  0  0  0  0  0  0  0  0  0  0  0  0  0  0  0  0  0  0  0  0
 ITRead=  0  0  0  0  0  0  0  0  0  0  0  0  0  0  0  0  0  0  0  0
 ITRead=  0  0  0  0  0  0
 MicOpt= -1 -1 -1 -1 -1 -1 -1 -1 -1 -1 -1 -1 -1 -1 -1 -1 -1 -1 -1 -1
 MicOpt= -1 -1 -1 -1 -1 -1 -1 -1 -1 -1 -1 -1 -1 -1 -1 -1 -1 -1 -1 -1
 MicOpt= -1 -1 -1 -1 -1 -1 -1 -1 -1 -1 -1 -1 -1 -1 -1 -1 -1 -1 -1 -1
 MicOpt= -1 -1 -1 -1 -1 -1
 NAtoms=     66 NQM=       66 NQMF=       0 NMMI=      0 NMMIF=      0
                NMic=       0 NMicF=      0.
                    Isotopes and Nuclear Properties:
 (Nuclear quadrupole moments (NQMom) in fm**2, nuclear magnetic moments (NMagM)
  in nuclear magnetons)

  Atom         1           2           3           4           5           6           7           8           9          10
 IAtWgt=          12          12          12          12          12          12           1           1           1          12
 AtmWgt=  12.0000000  12.0000000  12.0000000  12.0000000  12.0000000  12.0000000   1.0078250   1.0078250   1.0078250  12.0000000
 NucSpn=           0           0           0           0           0           0           1           1           1           0
 AtZEff=  -0.0000000  -0.0000000  -0.0000000  -0.0000000  -0.0000000  -0.0000000  -0.0000000  -0.0000000  -0.0000000  -0.0000000
 NQMom=    0.0000000   0.0000000   0.0000000   0.0000000   0.0000000   0.0000000   0.0000000   0.0000000   0.0000000   0.0000000
 NMagM=    0.0000000   0.0000000   0.0000000   0.0000000   0.0000000   0.0000000   2.7928460   2.7928460   2.7928460   0.0000000
 AtZNuc=   6.0000000   6.0000000   6.0000000   6.0000000   6.0000000   6.0000000   1.0000000   1.0000000   1.0000000   6.0000000

  Atom        11          12          13          14          15          16          17          18          19          20
 IAtWgt=          12          12          12          12          12           1           1           1           1           1
 AtmWgt=  12.0000000  12.0000000  12.0000000  12.0000000  12.0000000   1.0078250   1.0078250   1.0078250   1.0078250   1.0078250
 NucSpn=           0           0           0           0           0           1           1           1           1           1
 AtZEff=  -0.0000000  -0.0000000  -0.0000000  -0.0000000  -0.0000000  -0.0000000  -0.0000000  -0.0000000  -0.0000000  -0.0000000
 NQMom=    0.0000000   0.0000000   0.0000000   0.0000000   0.0000000   0.0000000   0.0000000   0.0000000   0.0000000   0.0000000
 NMagM=    0.0000000   0.0000000   0.0000000   0.0000000   0.0000000   2.7928460   2.7928460   2.7928460   2.7928460   2.7928460
 AtZNuc=   6.0000000   6.0000000   6.0000000   6.0000000   6.0000000   1.0000000   1.0000000   1.0000000   1.0000000   1.0000000

  Atom        21          22          23          24          25          26          27          28          29          30
 IAtWgt=          14          12          12          12          12          12          12           1           1           1
 AtmWgt=  14.0030740  12.0000000  12.0000000  12.0000000  12.0000000  12.0000000  12.0000000   1.0078250   1.0078250   1.0078250
 NucSpn=           2           0           0           0           0           0           0           1           1           1
 AtZEff=  -0.0000000  -0.0000000  -0.0000000  -0.0000000  -0.0000000  -0.0000000  -0.0000000  -0.0000000  -0.0000000  -0.0000000
 NQMom=    2.0440000   0.0000000   0.0000000   0.0000000   0.0000000   0.0000000   0.0000000   0.0000000   0.0000000   0.0000000
 NMagM=    0.4037610   0.0000000   0.0000000   0.0000000   0.0000000   0.0000000   0.0000000   2.7928460   2.7928460   2.7928460
 AtZNuc=   7.0000000   6.0000000   6.0000000   6.0000000   6.0000000   6.0000000   6.0000000   1.0000000   1.0000000   1.0000000

  Atom        31          32          33          34          35          36          37          38          39          40
 IAtWgt=           1           1          12          12          12          12          12          12           1           1
 AtmWgt=   1.0078250   1.0078250  12.0000000  12.0000000  12.0000000  12.0000000  12.0000000  12.0000000   1.0078250   1.0078250
 NucSpn=           1           1           0           0           0           0           0           0           1           1
 AtZEff=  -0.0000000  -0.0000000  -0.0000000  -0.0000000  -0.0000000  -0.0000000  -0.0000000  -0.0000000  -0.0000000  -0.0000000
 NQMom=    0.0000000   0.0000000   0.0000000   0.0000000   0.0000000   0.0000000   0.0000000   0.0000000   0.0000000   0.0000000
 NMagM=    2.7928460   2.7928460   0.0000000   0.0000000   0.0000000   0.0000000   0.0000000   0.0000000   2.7928460   2.7928460
 AtZNuc=   1.0000000   1.0000000   6.0000000   6.0000000   6.0000000   6.0000000   6.0000000   6.0000000   1.0000000   1.0000000

  Atom        41          42          43          44          45          46          47          48          49          50
 IAtWgt=           1           1           1          14          12          12          12          12          12          12
 AtmWgt=   1.0078250   1.0078250   1.0078250  14.0030740  12.0000000  12.0000000  12.0000000  12.0000000  12.0000000  12.0000000
 NucSpn=           1           1           1           2           0           0           0           0           0           0
 AtZEff=  -0.0000000  -0.0000000  -0.0000000  -0.0000000  -0.0000000  -0.0000000  -0.0000000  -0.0000000  -0.0000000  -0.0000000
 NQMom=    0.0000000   0.0000000   0.0000000   2.0440000   0.0000000   0.0000000   0.0000000   0.0000000   0.0000000   0.0000000
 NMagM=    2.7928460   2.7928460   2.7928460   0.4037610   0.0000000   0.0000000   0.0000000   0.0000000   0.0000000   0.0000000
 AtZNuc=   1.0000000   1.0000000   1.0000000   7.0000000   6.0000000   6.0000000   6.0000000   6.0000000   6.0000000   6.0000000

  Atom        51          52          53          54          55          56          57          58          59          60
 IAtWgt=           1           1           1           1           1          12          12          12          12          12
 AtmWgt=   1.0078250   1.0078250   1.0078250   1.0078250   1.0078250  12.0000000  12.0000000  12.0000000  12.0000000  12.0000000
 NucSpn=           1           1           1           1           1           0           0           0           0           0
 AtZEff=  -0.0000000  -0.0000000  -0.0000000  -0.0000000  -0.0000000  -0.0000000  -0.0000000  -0.0000000  -0.0000000  -0.0000000
 NQMom=    0.0000000   0.0000000   0.0000000   0.0000000   0.0000000   0.0000000   0.0000000   0.0000000   0.0000000   0.0000000
 NMagM=    2.7928460   2.7928460   2.7928460   2.7928460   2.7928460   0.0000000   0.0000000   0.0000000   0.0000000   0.0000000
 AtZNuc=   1.0000000   1.0000000   1.0000000   1.0000000   1.0000000   6.0000000   6.0000000   6.0000000   6.0000000   6.0000000

  Atom        61          62          63          64          65          66
 IAtWgt=          12           1           1           1           1           1
 AtmWgt=  12.0000000   1.0078250   1.0078250   1.0078250   1.0078250   1.0078250
 NucSpn=           0           1           1           1           1           1
 AtZEff=  -0.0000000  -0.0000000  -0.0000000  -0.0000000  -0.0000000  -0.0000000
 NQMom=    0.0000000   0.0000000   0.0000000   0.0000000   0.0000000   0.0000000
 NMagM=    0.0000000   2.7928460   2.7928460   2.7928460   2.7928460   2.7928460
 AtZNuc=   6.0000000   1.0000000   1.0000000   1.0000000   1.0000000   1.0000000
 Leave Link  101 at Mon Jan 18 04:35:34 2021, MaxMem=  4026531840 cpu:               0.6 elap:               0.1
 (Enter /opt/ohpc/pub/libs/gaussian/g16-A.03/sandybridge/g16/l202.exe)
 Stoichiometry    C36H28N2(1+,2)
 Framework group  C1[X(C36H28N2)]
 Deg. of freedom   192
 Full point group                 C1      NOp   1
 Largest Abelian subgroup         C1      NOp   1
 Largest concise Abelian subgroup C1      NOp   1
                         Standard orientation:                         
 ---------------------------------------------------------------------
 Center     Atomic      Atomic             Coordinates (Angstroms)
 Number     Number       Type             X           Y           Z
 ---------------------------------------------------------------------
      1          6           0       -2.849999   -1.125861   -0.415638
      2          6           0       -3.563139   -0.000026    0.000017
      3          6           0       -1.464492   -1.123667   -0.405534
      4          6           0       -2.850033    1.125752    0.415809
      5          6           0       -0.741288   -0.000047    0.000195
      6          6           0       -1.464504    1.123547    0.405879
      7          1           0       -0.931596   -2.005844   -0.756198
      8          1           0       -3.391048    2.006254    0.754990
      9          1           0       -0.931669    2.005728    0.756629
     10          6           0        0.741437   -0.000073    0.000217
     11          6           0        1.464635    1.123165   -0.406556
     12          6           0        1.464638   -1.123302    0.406976
     13          6           0        2.850149    1.125343   -0.416610
     14          6           0        2.850163   -1.125491    0.416935
     15          6           0        3.563257   -0.000095    0.000116
     16          1           0        0.931751    2.005025   -0.758038
     17          1           0        0.931783   -2.005140    0.758553
     18          1           0        3.391193    2.005527   -0.756576
     19          1           0        3.391211   -2.005669    0.756913
     20          1           0       -3.391005   -2.006357   -0.754845
     21          7           0        4.978430   -0.000102    0.000065
     22          6           0        5.687099   -1.154578   -0.414287
     23          6           0        6.831881   -1.566674    0.271150
     24          6           0        5.251323   -1.896933   -1.513908
     25          6           0        7.528311   -2.692826   -0.143324
     26          6           0        5.943392   -3.032223   -1.910440
     27          6           0        7.087522   -3.435368   -1.232277
     28          1           0        7.173684   -0.995181    1.131117
     29          1           0        4.363437   -1.577947   -2.055099
     30          1           0        8.419174   -2.999763    0.401550
     31          1           0        5.589860   -3.599797   -2.769285
     32          1           0        7.631852   -4.321852   -1.550225
     33          6           0        5.687025    1.154532    0.414292
     34          6           0        6.831191    1.567225   -0.271802
     35          6           0        5.251707    1.896381    1.514415
     36          6           0        7.527485    2.693516    0.142525
     37          6           0        5.943620    3.031828    1.910808
     38          6           0        7.087137    3.435581    1.231989
     39          1           0        7.172616    0.996083   -1.132151
     40          1           0        4.364291    1.576910    2.056093
     41          1           0        8.417875    3.000945   -0.402845
     42          1           0        5.590451    3.599029    2.770050
     43          1           0        7.631350    4.322181    1.549815
     44          7           0       -4.978266    0.000020   -0.000103
     45          6           0       -5.686990    1.154558   -0.414335
     46          6           0       -6.831289    1.566980    0.271699
     47          6           0       -5.251761    1.896543   -1.514410
     48          6           0       -7.527834    2.693112   -0.142653
     49          6           0       -5.943923    3.031822   -1.910819
     50          6           0       -7.087590    3.435293   -1.232069
     51          1           0       -7.172649    0.995729    1.132000
     52          1           0       -4.364233    1.577285   -2.056034
     53          1           0       -8.418333    3.000297    0.402674
     54          1           0       -5.590850    3.599137   -2.770027
     55          1           0       -7.631979    4.321768   -1.549941
     56          6           0       -5.687017   -1.154516    0.414141
     57          6           0       -6.831068   -1.567191   -0.272109
     58          6           0       -5.251977   -1.896199    1.514492
     59          6           0       -7.527566   -2.693348    0.142281
     60          6           0       -5.944079   -3.031486    1.910953
     61          6           0       -7.087509   -3.435246    1.231958
     62          1           0       -7.172277   -0.996155   -1.132614
     63          1           0       -4.364636   -1.576682    2.056275
     64          1           0       -8.417864   -3.000787   -0.403227
     65          1           0       -5.591165   -3.598572    2.770374
     66          1           0       -7.631874   -4.321730    1.549857
 ---------------------------------------------------------------------
 Rotational constants (GHZ):           0.2023709           0.0339547           0.0306836
 Leave Link  202 at Mon Jan 18 04:35:34 2021, MaxMem=  4026531840 cpu:               0.2 elap:               0.1
 (Enter /opt/ohpc/pub/libs/gaussian/g16-A.03/sandybridge/g16/l301.exe)
 Standard basis: TZVP (5D, 7F)
 Ernie: Thresh=  0.10000D-02 Tol=  0.10000D-05 Strict=F.
 There are   928 symmetry adapted cartesian basis functions of A   symmetry.
 There are   890 symmetry adapted basis functions of A   symmetry.
   890 basis functions,  1554 primitive gaussians,   928 cartesian basis functions
   129 alpha electrons      128 beta electrons
       nuclear repulsion energy      3528.7655398436 Hartrees.
 IExCor=33909 DFT=T Ex+Corr=LC-wHPBE ExCW=0 ScaHFX=  1.000000
 ScaDFX=  1.000000  1.000000  1.000000  1.000000 ScalE2=  1.000000  1.000000
 IRadAn=      5 IRanWt=     -1 IRanGd=            0 ICorTp=0 IEmpDi=  4
 HFx  wShort=  0.000000 wLong=  0.177700 cFull=  0.000000 cShort=  0.000000 cLong=  1.000000
 DFx  wShort=  0.000000 wLong=  0.177700 cFull=  0.000000 cShort=  1.000000 cLong=  0.000000
 NAtoms=   66 NActive=   66 NUniq=   66 SFac= 1.00D+00 NAtFMM=   60 NAOKFM=T Big=T
 Integral buffers will be    131072 words long.
 Raffenetti 2 integral format.
 Two-electron integral symmetry is turned on.
 Leave Link  301 at Mon Jan 18 04:35:34 2021, MaxMem=  4026531840 cpu:               0.4 elap:               0.1
 (Enter /opt/ohpc/pub/libs/gaussian/g16-A.03/sandybridge/g16/l302.exe)
 NPDir=0 NMtPBC=     1 NCelOv=     1 NCel=       1 NClECP=     1 NCelD=      1
         NCelK=      1 NCelE2=     1 NClLst=     1 CellRange=     0.0.
 One-electron integrals computed using PRISM.
 One-electron integral symmetry used in STVInt
 NBasis=   890 RedAO= T EigKep=  6.71D-06  NBF=   890
 NBsUse=   890 1.00D-06 EigRej= -1.00D+00 NBFU=   890
 Precomputing XC quadrature grid using
 IXCGrd= 4 IRadAn=           5 IRanWt=          -1 IRanGd=           0 AccXCQ= 0.00D+00.
 Generated NRdTot=       0 NPtTot=           0 NUsed=           0 NTot=          32
 NSgBfM=   852   844   846   852   852 MxSgAt=    66 MxSgA2=    66.
 Leave Link  302 at Mon Jan 18 04:35:36 2021, MaxMem=  4026531840 cpu:              17.1 elap:               2.2
 (Enter /opt/ohpc/pub/libs/gaussian/g16-A.03/sandybridge/g16/l303.exe)
 DipDrv:  MaxL=1.
 Leave Link  303 at Mon Jan 18 04:35:36 2021, MaxMem=  4026531840 cpu:               1.1 elap:               0.2
 (Enter /opt/ohpc/pub/libs/gaussian/g16-A.03/sandybridge/g16/l401.exe)
 ExpMin= 9.52D-02 ExpMax= 1.97D+04 ExpMxC= 6.73D+02 IAcc=3 IRadAn=         5 AccDes= 0.00D+00
 Harris functional with IExCor=33909 and IRadAn=       5 diagonalized for initial guess.
 HarFok:  IExCor=33909 AccDes= 0.00D+00 IRadAn=         5 IDoV= 1 UseB2=F ITyADJ=14
 ICtDFT=  3500011 ScaDFX=  1.000000  1.000000  1.000000  1.000000
 FoFCou: FMM=F IPFlag=           0 FMFlag=      100000 FMFlg1=        2001
         NFxFlg=           0 DoJE=T BraDBF=F KetDBF=T FulRan=T
         wScrn=  0.000000 ICntrl=       500 IOpCl=  0 I1Cent=   200000004 NGrid=           0
         NMat0=    1 NMatS0=      1 NMatT0=    0 NMatD0=    1 NMtDS0=    0 NMtDT0=    0
 Petite list used in FoFCou.
 Harris En= -1472.59294544390    
 JPrj=0 DoOrth=F DoCkMO=F.
 Initial guess <Sx>= 0.0000 <Sy>= 0.0000 <Sz>= 0.5000 <S**2>= 0.7500 S= 0.5000
 Leave Link  401 at Mon Jan 18 04:35:46 2021, MaxMem=  4026531840 cpu:              80.5 elap:              10.1
 (Enter /opt/ohpc/pub/libs/gaussian/g16-A.03/sandybridge/g16/l502.exe)
 Integral symmetry usage will be decided dynamically.
 UHF open shell SCF:
 Using DIIS extrapolation, IDIIS=    10.
 NGot=  4026531840 LenX=  4024793050 LenY=  4023930938
 Requested convergence on RMS density matrix=1.00D-06 within  32 cycles.
 Requested convergence on MAX density matrix=1.00D-04.
 Requested convergence on             energy=1.00D-04.
 Virtual orbitals will be shifted by   0.500 hartree.
 No special actions if energy rises.
 Dynamic level shift is on during FON iterations.

 Cycle   1  Pass 1  IDiag  1:
 FoFJK:  IHMeth= 1 ICntrl=       0 DoSepK=T KAlg= 0 I1Cent=           0 FoldK=F
 IRaf=         1 NMat=       1 IRICut=       1 DoRegI=T DoRafI=F ISym2E= 0 IDoP0=0 IntGTp=1.
 FoFCou: FMM=T IPFlag=           0 FMFlag=      100000 FMFlg1=        2001
         NFxFlg=           0 DoJE=T BraDBF=F KetDBF=F FulRan=T
         wScrn=  0.000000 ICntrl=       500 IOpCl=  0 I1Cent=           0 NGrid=           0
         NMat0=    1 NMatS0=      1 NMatT0=    0 NMatD0=    1 NMtDS0=    0 NMtDT0=    0
 Symmetry not used in FoFCou.
 FMM levels:  10  Number of levels for PrismC:   9
 E= -1496.33842319787    
 DIIS: error= 3.10D-02 at cycle   1 NSaved=   1.
 NSaved= 1 IEnMin= 1 EnMin= -1496.33842319787     IErMin= 1 ErrMin= 3.10D-02
 ErrMax= 3.10D-02  0.00D+00 EMaxC= 1.00D+00 BMatC= 2.50D+00 BMatP= 2.50D+00
 IDIUse=1 WtCom= 1.00D+00 WtEn= 0.00D+00
 Coeff-Com:  0.100D+01
 Coeff:      0.100D+01
 Gap=     0.282 Goal=   None    Shift=    0.500
 T= 1515. Gap= 0.721 NK=0 IS=  130 IE=  890 IFin=  129
          NO(<0.9)=   0  NV(>0.1)=   0    129.00e < EF      0.00e >EF  Err=0.0D+00
 Gap=     0.080 Goal=   None    Shift=    0.500
 T= 1515. Gap= 0.532 NK=0 IS=  129 IE=  890 IFin=  128
          NO(<0.9)=   0  NV(>0.1)=   0    128.00e < EF      0.00e >EF  Err=0.0D+00
 GapD=    0.080 DampG=0.500 DampE=0.500 DampFc=0.2500 IDamp=-1.
 Damping current iteration by 2.50D-01
 RMSDP=2.03D-03 MaxDP=7.69D-02              OVMax= 9.92D-02

 Cycle   2  Pass 1  IDiag  1:
 E= -1496.56492866279     Delta-E=       -0.226505464922 Rises=F Damp=T
 DIIS: error= 2.25D-02 at cycle   2 NSaved=   2.
 NSaved= 2 IEnMin= 2 EnMin= -1496.56492866279     IErMin= 2 ErrMin= 2.25D-02
 ErrMax= 2.25D-02  0.00D+00 EMaxC= 1.00D+00 BMatC= 1.17D+00 BMatP= 2.50D+00
 IDIUse=1 WtCom= 1.00D+00 WtEn= 0.00D+00
 Coeff-Com: -0.194D+01 0.294D+01
 Coeff:     -0.194D+01 0.294D+01
 Gap=     0.269 Goal=   None    Shift=    0.500
 T= 1458. Gap= 0.733 NK=0 IS=  130 IE=  890 IFin=  129
          NO(<0.9)=   0  NV(>0.1)=   0    129.00e < EF      0.00e >EF  Err=0.0D+00
 Gap=     0.115 Goal=   None    Shift=    0.500
 T= 1458. Gap= 0.574 NK=0 IS=  129 IE=  890 IFin=  128
          NO(<0.9)=   0  NV(>0.1)=   0    128.00e < EF      0.00e >EF  Err=0.0D+00
 GapD=    0.115 DampG=1.000 DampE=0.500 DampFc=0.5000 IDamp=-1.
 Damping current iteration by 5.00D-01
 RMSDP=1.51D-03 MaxDP=7.74D-02 DE=-2.27D-01 OVMax= 3.24D-02

 Cycle   3  Pass 1  IDiag  1:
 E= -1496.80071113222     Delta-E=       -0.235782469428 Rises=F Damp=T
 DIIS: error= 1.04D-02 at cycle   3 NSaved=   3.
 NSaved= 3 IEnMin= 3 EnMin= -1496.80071113222     IErMin= 3 ErrMin= 1.04D-02
 ErrMax= 1.04D-02  0.00D+00 EMaxC= 1.00D+00 BMatC= 2.30D-01 BMatP= 1.17D+00
 IDIUse=1 WtCom= 1.00D+00 WtEn= 0.00D+00
 Coeff-Com:  0.340D-01-0.830D+00 0.180D+01
 Coeff:      0.340D-01-0.830D+00 0.180D+01
 Gap=     0.249 Goal=   None    Shift=    0.500
 T= 1291. Gap= 0.747 NK=4 IS=  130 IE=  145 IFin=  129
          NO(<0.9)=   0  NV(>0.1)=   0    129.00e < EF      0.00e >EF  Err=0.0D+00
 Gap=     0.079 Goal=   None    Shift=    0.500
 T= 1291. Gap= 0.577 NK=4 IS=  129 IE=  143 IFin=  128
          NO(<0.9)=   0  NV(>0.1)=   0    128.00e < EF      0.00e >EF  Err=0.0D+00
 GapD=    0.079 DampG=0.500 DampE=0.500 DampFc=0.2500 IDamp=-1.
 Damping current iteration by 2.50D-01
 RMSDP=7.77D-04 MaxDP=4.59D-02 DE=-2.36D-01 OVMax= 1.11D-02

 Cycle   4  Pass 1  IDiag  1:
 E= -1496.84704795383     Delta-E=       -0.046336821608 Rises=F Damp=T
 DIIS: error= 7.71D-03 at cycle   4 NSaved=   4.
 NSaved= 4 IEnMin= 4 EnMin= -1496.84704795383     IErMin= 4 ErrMin= 7.71D-03
 ErrMax= 7.71D-03  0.00D+00 EMaxC= 1.00D+00 BMatC= 1.22D-01 BMatP= 2.30D-01
 IDIUse=1 WtCom= 1.00D+00 WtEn= 0.00D+00
 Coeff-Com:  0.197D+00-0.314D+00-0.272D+01 0.383D+01
 Coeff:      0.197D+00-0.314D+00-0.272D+01 0.383D+01
 Gap=     0.245 Goal=   None    Shift=    0.500
 T= 1019. Gap= 0.745 NK=4 IS=  130 IE=  146 IFin=  129
          NO(<0.9)=   0  NV(>0.1)=   0    129.00e < EF      0.00e >EF  Err=0.0D+00
 Gap=     0.078 Goal=   None    Shift=    0.500
 T= 1019. Gap= 0.578 NK=4 IS=  129 IE=  143 IFin=  128
          NO(<0.9)=   0  NV(>0.1)=   0    128.00e < EF      0.00e >EF  Err=0.0D+00
 GapD=    0.078 DampG=0.500 DampE=1.000 DampFc=0.5000 IDamp=-1.
 Damping current iteration by 5.00D-01
 RMSDP=5.80D-04 MaxDP=3.86D-02 DE=-4.63D-02 OVMax= 8.72D-03

 Cycle   5  Pass 1  IDiag  1:
 E= -1496.90957273865     Delta-E=       -0.062524784824 Rises=F Damp=T
 DIIS: error= 3.80D-03 at cycle   5 NSaved=   5.
 NSaved= 5 IEnMin= 5 EnMin= -1496.90957273865     IErMin= 5 ErrMin= 3.80D-03
 ErrMax= 3.80D-03  0.00D+00 EMaxC= 1.00D+00 BMatC= 2.86D-02 BMatP= 1.22D-01
 IDIUse=1 WtCom= 1.00D+00 WtEn= 0.00D+00
 Coeff-Com:  0.580D-01-0.375D-01 0.345D+00-0.177D+01 0.241D+01
 Coeff:      0.580D-01-0.375D-01 0.345D+00-0.177D+01 0.241D+01
 Gap=     0.246 Goal=   None    Shift=    0.500
 T=  649. Gap= 0.746 NK=4 IS=  130 IE=  146 IFin=  129
          NO(<0.9)=   0  NV(>0.1)=   0    129.00e < EF      0.00e >EF  Err=0.0D+00
 Gap=     0.079 Goal=   None    Shift=    0.500
 T=  649. Gap= 0.579 NK=4 IS=  129 IE=  143 IFin=  128
          NO(<0.9)=   0  NV(>0.1)=   0    128.00e < EF      0.00e >EF  Err=0.0D+00
 GapD=    0.079 DampG=0.500 DampE=1.000 DampFc=0.5000 IDamp=-1.
 Damping current iteration by 5.00D-01
 RMSDP=3.00D-04 MaxDP=2.15D-02 DE=-6.25D-02 OVMax= 7.32D-03

 Cycle   6  Pass 1  IDiag  1:
 E= -1496.93837952405     Delta-E=       -0.028806785395 Rises=F Damp=T
 DIIS: error= 1.89D-03 at cycle   6 NSaved=   6.
 NSaved= 6 IEnMin= 6 EnMin= -1496.93837952405     IErMin= 6 ErrMin= 1.89D-03
 ErrMax= 1.89D-03  0.00D+00 EMaxC= 1.00D+00 BMatC= 7.09D-03 BMatP= 2.86D-02
 IDIUse=1 WtCom= 1.00D+00 WtEn= 0.00D+00
 Coeff-Com: -0.346D-01 0.623D-01 0.757D+00-0.101D+01-0.146D+01 0.269D+01
 Coeff:     -0.346D-01 0.623D-01 0.757D+00-0.101D+01-0.146D+01 0.269D+01
 Gap=     0.247 Goal=   None    Shift=    0.500
 T=  353. Gap= 0.747 NK=4 IS=  130 IE=  146 IFin=  129
          NO(<0.9)=   0  NV(>0.1)=   0    129.00e < EF      0.00e >EF  Err=0.0D+00
 Gap=     0.080 Goal=   None    Shift=    0.500
 T=  353. Gap= 0.580 NK=4 IS=  129 IE=  143 IFin=  128
          NO(<0.9)=   0  NV(>0.1)=   0    128.00e < EF      0.00e >EF  Err=0.0D+00
 GapD=    0.080 DampG=0.500 DampE=1.000 DampFc=0.5000 IDamp=-1.
 Damping current iteration by 5.00D-01
 RMSDP=1.71D-04 MaxDP=1.20D-02 DE=-2.88D-02 OVMax= 6.64D-03

 Cycle   7  Pass 1  IDiag  1:
 E= -1496.95235473688     Delta-E=       -0.013975212837 Rises=F Damp=T
 DIIS: error= 1.17D-03 at cycle   7 NSaved=   7.
 NSaved= 7 IEnMin= 7 EnMin= -1496.95235473688     IErMin= 7 ErrMin= 1.17D-03
 ErrMax= 1.17D-03  0.00D+00 EMaxC= 1.00D+00 BMatC= 1.87D-03 BMatP= 7.09D-03
 IDIUse=1 WtCom= 1.00D+00 WtEn= 0.00D+00
 Coeff-Com: -0.214D-01 0.211D-01-0.141D+00 0.605D+00-0.978D-01-0.346D+01
 Coeff-Com:  0.409D+01
 Coeff:     -0.214D-01 0.211D-01-0.141D+00 0.605D+00-0.978D-01-0.346D+01
 Coeff:      0.409D+01
 Gap=     0.247 Goal=   None    Shift=    0.500
 Gap=     0.080 Goal=   None    Shift=    0.500
 GapD=    0.080 DampG=0.500 DampE=1.000 DampFc=0.5000 IDamp=-1.
 Damping current iteration by 5.00D-01
 RMSDP=1.09D-04 MaxDP=6.71D-03 DE=-1.40D-02 OVMax= 6.45D-03

 Cycle   8  Pass 1  IDiag  1:
 E= -1496.95929776515     Delta-E=       -0.006943028267 Rises=F Damp=T
 DIIS: error= 9.71D-04 at cycle   8 NSaved=   8.
 NSaved= 8 IEnMin= 8 EnMin= -1496.95929776515     IErMin= 8 ErrMin= 9.71D-04
 ErrMax= 9.71D-04  0.00D+00 EMaxC= 1.00D+00 BMatC= 5.27D-04 BMatP= 1.87D-03
 IDIUse=1 WtCom= 1.00D+00 WtEn= 0.00D+00
 Coeff-Com:  0.638D-02-0.823D-02-0.362D+00 0.507D+00 0.791D+00-0.135D+01
 Coeff-Com: -0.269D+01 0.411D+01
 Coeff:      0.638D-02-0.823D-02-0.362D+00 0.507D+00 0.791D+00-0.135D+01
 Coeff:     -0.269D+01 0.411D+01
 Gap=     0.248 Goal=   None    Shift=    0.500
 Gap=     0.081 Goal=   None    Shift=    0.500
 RMSDP=7.21D-05 MaxDP=4.13D-03 DE=-6.94D-03 OVMax= 5.67D-03

 Cycle   9  Pass 1  IDiag  1:
 E= -1496.96630924155     Delta-E=       -0.007011476395 Rises=F Damp=F
 DIIS: error= 6.47D-04 at cycle   9 NSaved=   9.
 NSaved= 9 IEnMin= 9 EnMin= -1496.96630924155     IErMin= 9 ErrMin= 6.47D-04
 ErrMax= 6.47D-04  0.00D+00 EMaxC= 1.00D+00 BMatC= 3.26D-05 BMatP= 5.27D-04
 IDIUse=1 WtCom= 1.00D+00 WtEn= 0.00D+00
 Coeff-Com:  0.112D-01-0.672D-02-0.166D+00-0.293D-01 0.729D+00 0.784D+00
 Coeff-Com: -0.320D+01 0.115D+01 0.173D+01
 Coeff:      0.112D-01-0.672D-02-0.166D+00-0.293D-01 0.729D+00 0.784D+00
 Coeff:     -0.320D+01 0.115D+01 0.173D+01
 Gap=     0.248 Goal=   None    Shift=    0.500
 Gap=     0.082 Goal=   None    Shift=    0.500
 RMSDP=1.79D-05 MaxDP=1.58D-03 DE=-7.01D-03 OVMax= 5.12D-03

 Cycle  10  Pass 1  IDiag  1:
 E= -1496.96636838486     Delta-E=       -0.000059143309 Rises=F Damp=F
 DIIS: error= 5.07D-04 at cycle  10 NSaved=  10.
 NSaved=10 IEnMin=10 EnMin= -1496.96636838486     IErMin=10 ErrMin= 5.07D-04
 ErrMax= 5.07D-04  0.00D+00 EMaxC= 1.00D+00 BMatC= 2.04D-05 BMatP= 3.26D-05
 IDIUse=1 WtCom= 1.00D+00 WtEn= 0.00D+00
 Coeff-Com: -0.508D-02 0.133D-01 0.115D+00-0.291D+00-0.607D-01 0.865D+00
 Coeff-Com:  0.690D+00-0.243D+01-0.321D+00 0.243D+01
 Coeff:     -0.508D-02 0.133D-01 0.115D+00-0.291D+00-0.607D-01 0.865D+00
 Coeff:      0.690D+00-0.243D+01-0.321D+00 0.243D+01
 Gap=     0.248 Goal=   None    Shift=    0.500
 Gap=     0.082 Goal=   None    Shift=    0.500
 RMSDP=1.43D-05 MaxDP=1.15D-03 DE=-5.91D-05 OVMax= 4.48D-03

 Cycle  11  Pass 1  IDiag  1:
 E= -1496.96640829360     Delta-E=       -0.000039908743 Rises=F Damp=F
 DIIS: error= 4.06D-04 at cycle  11 NSaved=  11.
 NSaved=11 IEnMin=11 EnMin= -1496.96640829360     IErMin=11 ErrMin= 4.06D-04
 ErrMax= 4.06D-04  0.00D+00 EMaxC= 1.00D+00 BMatC= 1.32D-05 BMatP= 2.04D-05
 IDIUse=1 WtCom= 1.00D+00 WtEn= 0.00D+00
 Coeff-Com: -0.982D-02 0.135D-01 0.125D+00-0.116D+00-0.402D+00 0.280D-01
 Coeff-Com:  0.236D+01-0.248D+01-0.955D+00 0.453D+00 0.198D+01
 Coeff:     -0.982D-02 0.135D-01 0.125D+00-0.116D+00-0.402D+00 0.280D-01
 Coeff:      0.236D+01-0.248D+01-0.955D+00 0.453D+00 0.198D+01
 Gap=     0.248 Goal=   None    Shift=    0.500
 Gap=     0.083 Goal=   None    Shift=    0.500
 RMSDP=1.10D-05 MaxDP=8.87D-04 DE=-3.99D-05 OVMax= 3.94D-03

 Cycle  12  Pass 1  IDiag  1:
 E= -1496.96643453902     Delta-E=       -0.000026245417 Rises=F Damp=F
 DIIS: error= 3.47D-04 at cycle  12 NSaved=  12.
 NSaved=12 IEnMin=12 EnMin= -1496.96643453902     IErMin=12 ErrMin= 3.47D-04
 ErrMax= 3.47D-04  0.00D+00 EMaxC= 1.00D+00 BMatC= 8.47D-06 BMatP= 1.32D-05
 IDIUse=1 WtCom= 1.00D+00 WtEn= 0.00D+00
 Coeff-Com: -0.132D-02-0.228D-02-0.213D-01 0.159D+00-0.225D+00-0.509D+00
 Coeff-Com:  0.968D+00-0.146D-01-0.140D+00-0.165D+01-0.329D+00 0.277D+01
 Coeff:     -0.132D-02-0.228D-02-0.213D-01 0.159D+00-0.225D+00-0.509D+00
 Coeff:      0.968D+00-0.146D-01-0.140D+00-0.165D+01-0.329D+00 0.277D+01
 Gap=     0.248 Goal=   None    Shift=    0.500
 Gap=     0.083 Goal=   None    Shift=    0.500
 RMSDP=9.74D-06 MaxDP=8.08D-04 DE=-2.62D-05 OVMax= 3.60D-03

 Cycle  13  Pass 1  IDiag  1:
 E= -1496.96645237831     Delta-E=       -0.000017839291 Rises=F Damp=F
 DIIS: error= 2.96D-04 at cycle  13 NSaved=  13.
 NSaved=13 IEnMin=13 EnMin= -1496.96645237831     IErMin=13 ErrMin= 2.96D-04
 ErrMax= 2.96D-04  0.00D+00 EMaxC= 1.00D+00 BMatC= 5.93D-06 BMatP= 8.47D-06
 IDIUse=1 WtCom= 1.00D+00 WtEn= 0.00D+00
 Coeff-Com:  0.358D-02-0.516D-02-0.625D-01 0.107D+00 0.418D-01-0.634D-01
 Coeff-Com: -0.599D+00 0.776D+00 0.598D+00-0.746D+00-0.196D+01 0.768D+00
 Coeff-Com:  0.214D+01
 Coeff:      0.358D-02-0.516D-02-0.625D-01 0.107D+00 0.418D-01-0.634D-01
 Coeff:     -0.599D+00 0.776D+00 0.598D+00-0.746D+00-0.196D+01 0.768D+00
 Coeff:      0.214D+01
 Gap=     0.248 Goal=   None    Shift=    0.500
 Gap=     0.083 Goal=   None    Shift=    0.500
 RMSDP=7.16D-06 MaxDP=5.82D-04 DE=-1.78D-05 OVMax= 2.99D-03

 Cycle  14  Pass 1  IDiag  1:
 E= -1496.96646357284     Delta-E=       -0.000011194537 Rises=F Damp=F
 DIIS: error= 2.51D-04 at cycle  14 NSaved=  14.
 NSaved=14 IEnMin=14 EnMin= -1496.96646357284     IErMin=14 ErrMin= 2.51D-04
 ErrMax= 2.51D-04  0.00D+00 EMaxC= 1.00D+00 BMatC= 4.03D-06 BMatP= 5.93D-06
 IDIUse=1 WtCom= 1.00D+00 WtEn= 0.00D+00
 Coeff-Com:  0.354D-02-0.203D-02-0.343D-01-0.203D-01 0.151D+00 0.331D+00
 Coeff-Com: -0.962D+00 0.340D+00 0.708D+00 0.638D+00-0.190D+01-0.760D+00
 Coeff-Com:  0.286D+00 0.222D+01
 Coeff:      0.354D-02-0.203D-02-0.343D-01-0.203D-01 0.151D+00 0.331D+00
 Coeff:     -0.962D+00 0.340D+00 0.708D+00 0.638D+00-0.190D+01-0.760D+00
 Coeff:      0.286D+00 0.222D+01
 Gap=     0.247 Goal=   None    Shift=    0.500
 Gap=     0.083 Goal=   None    Shift=    0.500
 RMSDP=5.54D-06 MaxDP=4.43D-04 DE=-1.12D-05 OVMax= 2.53D-03

 Cycle  15  Pass 1  IDiag  1:
 E= -1496.96647085398     Delta-E=       -0.000007281139 Rises=F Damp=F
 DIIS: error= 2.12D-04 at cycle  15 NSaved=  15.
 NSaved=15 IEnMin=15 EnMin= -1496.96647085398     IErMin=15 ErrMin= 2.12D-04
 ErrMax= 2.12D-04  0.00D+00 EMaxC= 1.00D+00 BMatC= 2.91D-06 BMatP= 4.03D-06
 IDIUse=1 WtCom= 1.00D+00 WtEn= 0.00D+00
 Coeff-Com: -0.309D-02 0.424D-02 0.485D-01-0.663D-01-0.104D+00 0.351D-01
 Coeff-Com:  0.976D+00-0.126D+01-0.212D+00 0.722D+00 0.732D+00 0.340D+00
 Coeff-Com: -0.334D+01-0.125D+00 0.325D+01
 Coeff:     -0.309D-02 0.424D-02 0.485D-01-0.663D-01-0.104D+00 0.351D-01
 Coeff:      0.976D+00-0.126D+01-0.212D+00 0.722D+00 0.732D+00 0.340D+00
 Coeff:     -0.334D+01-0.125D+00 0.325D+01
 Gap=     0.247 Goal=   None    Shift=    0.500
 Gap=     0.084 Goal=   None    Shift=    0.500
 RMSDP=4.57D-06 MaxDP=3.85D-04 DE=-7.28D-06 OVMax= 2.24D-03

 Cycle  16  Pass 1  IDiag  1:
 E= -1496.96647603753     Delta-E=       -0.000005183551 Rises=F Damp=F
 DIIS: error= 1.76D-04 at cycle  16 NSaved=  16.
 NSaved=16 IEnMin=16 EnMin= -1496.96647603753     IErMin=16 ErrMin= 1.76D-04
 ErrMax= 1.76D-04  0.00D+00 EMaxC= 1.00D+00 BMatC= 2.02D-06 BMatP= 2.91D-06
 IDIUse=1 WtCom= 1.00D+00 WtEn= 0.00D+00
 Coeff-Com: -0.268D-02 0.340D-02 0.151D-01 0.118D-01-0.115D+00-0.144D+00
 Coeff-Com:  0.920D+00-0.854D+00-0.115D+00-0.505D-01 0.525D+00 0.100D+01
 Coeff-Com: -0.177D+01-0.533D+00-0.355D+00 0.247D+01
 Coeff:     -0.268D-02 0.340D-02 0.151D-01 0.118D-01-0.115D+00-0.144D+00
 Coeff:      0.920D+00-0.854D+00-0.115D+00-0.505D-01 0.525D+00 0.100D+01
 Coeff:     -0.177D+01-0.533D+00-0.355D+00 0.247D+01
 Gap=     0.247 Goal=   None    Shift=    0.500
 Gap=     0.084 Goal=   None    Shift=    0.500
 RMSDP=3.43D-06 MaxDP=2.65D-04 DE=-5.18D-06 OVMax= 1.80D-03

 Cycle  17  Pass 1  IDiag  1:
 E= -1496.96647944468     Delta-E=       -0.000003407149 Rises=F Damp=F
 DIIS: error= 1.47D-04 at cycle  17 NSaved=  17.
 NSaved=17 IEnMin=17 EnMin= -1496.96647944468     IErMin=17 ErrMin= 1.47D-04
 ErrMax= 1.47D-04  0.00D+00 EMaxC= 1.00D+00 BMatC= 1.37D-06 BMatP= 2.02D-06
 IDIUse=1 WtCom= 1.00D+00 WtEn= 0.00D+00
 Coeff-Com:  0.327D-03 0.220D-03-0.272D-01 0.517D-01-0.896D-02-0.655D-01
 Coeff-Com: -0.352D-01 0.135D+00 0.245D+00-0.468D+00-0.509D+00 0.592D+00
 Coeff-Com:  0.806D+00 0.360D-01-0.254D+01 0.641D+00 0.214D+01
 Coeff:      0.327D-03 0.220D-03-0.272D-01 0.517D-01-0.896D-02-0.655D-01
 Coeff:     -0.352D-01 0.135D+00 0.245D+00-0.468D+00-0.509D+00 0.592D+00
 Coeff:      0.806D+00 0.360D-01-0.254D+01 0.641D+00 0.214D+01
 Gap=     0.247 Goal=   None    Shift=    0.500
 Gap=     0.084 Goal=   None    Shift=    0.500
 RMSDP=2.71D-06 MaxDP=1.94D-04 DE=-3.41D-06 OVMax= 1.52D-03

 Cycle  18  Pass 1  IDiag  1:
 E= -1496.96648178490     Delta-E=       -0.000002340220 Rises=F Damp=F
 DIIS: error= 1.21D-04 at cycle  18 NSaved=  18.
 NSaved=18 IEnMin=18 EnMin= -1496.96648178490     IErMin=18 ErrMin= 1.21D-04
 ErrMax= 1.21D-04  0.00D+00 EMaxC= 1.00D+00 BMatC= 8.97D-07 BMatP= 1.37D-06
 IDIUse=1 WtCom= 1.00D+00 WtEn= 0.00D+00
 Coeff-Com:  0.153D-02-0.117D-02-0.148D-01-0.279D-02 0.571D-01 0.145D+00
 Coeff-Com: -0.535D+00 0.360D+00 0.280D+00 0.410D-01-0.802D+00-0.280D+00
 Coeff-Com:  0.964D+00 0.550D+00-0.243D+00-0.191D+01-0.521D+00 0.291D+01
 Coeff:      0.153D-02-0.117D-02-0.148D-01-0.279D-02 0.571D-01 0.145D+00
 Coeff:     -0.535D+00 0.360D+00 0.280D+00 0.410D-01-0.802D+00-0.280D+00
 Coeff:      0.964D+00 0.550D+00-0.243D+00-0.191D+01-0.521D+00 0.291D+01
 Gap=     0.247 Goal=   None    Shift=    0.500
 Gap=     0.084 Goal=   None    Shift=    0.500
 RMSDP=2.44D-06 MaxDP=1.85D-04 DE=-2.34D-06 OVMax= 1.32D-03

 Cycle  19  Pass 1  IDiag  1:
 E= -1496.96648340630     Delta-E=       -0.000001621395 Rises=F Damp=F
 DIIS: error= 9.93D-05 at cycle  19 NSaved=  19.
 NSaved=19 IEnMin=19 EnMin= -1496.96648340630     IErMin=19 ErrMin= 9.93D-05
 ErrMax= 9.93D-05  0.00D+00 EMaxC= 1.00D+00 BMatC= 6.71D-07 BMatP= 8.97D-07
 IDIUse=1 WtCom= 1.00D+00 WtEn= 0.00D+00
 Coeff-Com:  0.767D-03-0.382D-03 0.596D-02-0.375D-01 0.361D-01 0.180D+00
 Coeff-Com: -0.261D+00-0.429D-01 0.138D+00 0.480D+00-0.498D+00-0.417D+00
 Coeff-Com: -0.205D+00 0.570D+00 0.176D+01-0.197D+01-0.238D+01 0.199D+01
 Coeff-Com:  0.166D+01
 Coeff:      0.767D-03-0.382D-03 0.596D-02-0.375D-01 0.361D-01 0.180D+00
 Coeff:     -0.261D+00-0.429D-01 0.138D+00 0.480D+00-0.498D+00-0.417D+00
 Coeff:     -0.205D+00 0.570D+00 0.176D+01-0.197D+01-0.238D+01 0.199D+01
 Coeff:      0.166D+01
 Gap=     0.247 Goal=   None    Shift=    0.500
 Gap=     0.084 Goal=   None    Shift=    0.500
 RMSDP=1.94D-06 MaxDP=1.42D-04 DE=-1.62D-06 OVMax= 1.11D-03

 Cycle  20  Pass 1  IDiag  1:
 E= -1496.96648447910     Delta-E=       -0.000001072805 Rises=F Damp=F
 DIIS: error= 8.14D-05 at cycle  20 NSaved=  20.
 NSaved=20 IEnMin=20 EnMin= -1496.96648447910     IErMin=20 ErrMin= 8.14D-05
 ErrMax= 8.14D-05  0.00D+00 EMaxC= 1.00D+00 BMatC= 4.73D-07 BMatP= 6.71D-07
 IDIUse=1 WtCom= 1.00D+00 WtEn= 0.00D+00
 Coeff-Com: -0.285D-03 0.723D-03 0.117D-01-0.277D-01-0.144D-01 0.712D-01
 Coeff-Com:  0.229D+00-0.453D+00 0.181D-01 0.505D+00-0.118D+00-0.422D-01
 Coeff-Com: -0.111D+01 0.354D+00 0.180D+01-0.292D+00-0.218D+01-0.291D+00
 Coeff-Com:  0.566D+00 0.198D+01
 Coeff:     -0.285D-03 0.723D-03 0.117D-01-0.277D-01-0.144D-01 0.712D-01
 Coeff:      0.229D+00-0.453D+00 0.181D-01 0.505D+00-0.118D+00-0.422D-01
 Coeff:     -0.111D+01 0.354D+00 0.180D+01-0.292D+00-0.218D+01-0.291D+00
 Coeff:      0.566D+00 0.198D+01
 Gap=     0.247 Goal=   None    Shift=    0.500
 Gap=     0.084 Goal=   None    Shift=    0.500
 RMSDP=1.53D-06 MaxDP=1.07D-04 DE=-1.07D-06 OVMax= 9.50D-04

 Cycle  21  Pass 1  IDiag  1:
 E= -1496.96648519319     Delta-E=       -0.000000714084 Rises=F Damp=F
 DIIS: error= 6.52D-05 at cycle  21 NSaved=  20.
 NSaved=20 IEnMin=20 EnMin= -1496.96648519319     IErMin=20 ErrMin= 6.52D-05
 ErrMax= 6.52D-05  0.00D+00 EMaxC= 1.00D+00 BMatC= 3.24D-07 BMatP= 4.73D-07
 IDIUse=1 WtCom= 1.00D+00 WtEn= 0.00D+00
 Coeff-Com:  0.209D-03 0.334D-02-0.835D-02-0.118D-01 0.348D-01 0.139D+00
 Coeff-Com: -0.271D+00 0.689D-01 0.242D+00-0.184D+00 0.864D-01-0.566D+00
 Coeff-Com:  0.284D+00 0.584D+00 0.113D+00-0.805D+00-0.372D+00 0.451D-01
 Coeff-Com: -0.554D+00 0.217D+01
 Coeff:      0.209D-03 0.334D-02-0.835D-02-0.118D-01 0.348D-01 0.139D+00
 Coeff:     -0.271D+00 0.689D-01 0.242D+00-0.184D+00 0.864D-01-0.566D+00
 Coeff:      0.284D+00 0.584D+00 0.113D+00-0.805D+00-0.372D+00 0.451D-01
 Coeff:     -0.554D+00 0.217D+01
 Gap=     0.247 Goal=   None    Shift=    0.500
 Gap=     0.084 Goal=   None    Shift=    0.500
 RMSDP=1.05D-06 MaxDP=6.44D-05 DE=-7.14D-07 OVMax= 7.52D-04

 Cycle  22  Pass 1  IDiag  1:
 E= -1496.96648562750     Delta-E=       -0.000000434314 Rises=F Damp=F
 DIIS: error= 5.19D-05 at cycle  22 NSaved=  20.
 NSaved=20 IEnMin=20 EnMin= -1496.96648562750     IErMin=20 ErrMin= 5.19D-05
 ErrMax= 5.19D-05  0.00D+00 EMaxC= 1.00D+00 BMatC= 2.05D-07 BMatP= 3.24D-07
 IDIUse=1 WtCom= 1.00D+00 WtEn= 0.00D+00
 Coeff-Com:  0.662D-03-0.329D-03-0.383D-02 0.152D-01-0.108D-01-0.167D-01
 Coeff-Com:  0.551D-01-0.134D-01-0.139D+00 0.653D-01 0.621D-01 0.128D+00
 Coeff-Com: -0.195D+00-0.143D+00 0.268D+00 0.401D+00-0.146D+00-0.158D+01
 Coeff-Com: -0.531D+00 0.278D+01
 Coeff:      0.662D-03-0.329D-03-0.383D-02 0.152D-01-0.108D-01-0.167D-01
 Coeff:      0.551D-01-0.134D-01-0.139D+00 0.653D-01 0.621D-01 0.128D+00
 Coeff:     -0.195D+00-0.143D+00 0.268D+00 0.401D+00-0.146D+00-0.158D+01
 Coeff:     -0.531D+00 0.278D+01
 Gap=     0.247 Goal=   None    Shift=    0.500
 Gap=     0.084 Goal=   None    Shift=    0.500
 RMSDP=8.06D-07 MaxDP=4.15D-05 DE=-4.34D-07 OVMax= 5.89D-04

 SCF Done:  E(ULC-wHPBE) =  -1496.96648563     A.U. after   22 cycles
            NFock= 22  Conv=0.81D-06     -V/T= 2.0046
 <Sx>= 0.0000 <Sy>= 0.0000 <Sz>= 0.5000 <S**2>= 0.7720 S= 0.5109
 <L.S>= 0.000000000000E+00
 KE= 1.490069485576D+03 PE=-1.050766021944D+04 EE= 3.991858708397D+03
 Annihilation of the first spin contaminant:
 S**2 before annihilation     0.7720,   after     0.7503
 Leave Link  502 at Mon Jan 18 05:06:21 2021, MaxMem=  4026531840 cpu:           14507.4 elap:            1834.7
 (Enter /opt/ohpc/pub/libs/gaussian/g16-A.03/sandybridge/g16/l508.exe)
 QCSCF skips out because SCF is already converged.
 Leave Link  508 at Mon Jan 18 05:06:21 2021, MaxMem=  4026531840 cpu:               0.1 elap:               0.0
 (Enter /opt/ohpc/pub/libs/gaussian/g16-A.03/sandybridge/g16/l601.exe)
 Copying SCF densities to generalized density rwf, IOpCl= 1 IROHF=0.

 **********************************************************************

            Population analysis using the SCF density.

 **********************************************************************

 Orbital symmetries:
 Alpha Orbitals:
       Occupied  (A) (A) (A) (A) (A) (A) (A) (A) (A) (A) (A) (A)
                 (A) (A) (A) (A) (A) (A) (A) (A) (A) (A) (A) (A)
                 (A) (A) (A) (A) (A) (A) (A) (A) (A) (A) (A) (A)
                 (A) (A) (A) (A) (A) (A) (A) (A) (A) (A) (A) (A)
                 (A) (A) (A) (A) (A) (A) (A) (A) (A) (A) (A) (A)
                 (A) (A) (A) (A) (A) (A) (A) (A) (A) (A) (A) (A)
                 (A) (A) (A) (A) (A) (A) (A) (A) (A) (A) (A) (A)
                 (A) (A) (A) (A) (A) (A) (A) (A) (A) (A) (A) (A)
                 (A) (A) (A) (A) (A) (A) (A) (A) (A) (A) (A) (A)
                 (A) (A) (A) (A) (A) (A) (A) (A) (A) (A) (A) (A)
                 (A) (A) (A) (A) (A) (A) (A) (A) (A)
       Virtual   (A) (A) (A) (A) (A) (A) (A) (A) (A) (A) (A) (A)
                 (A) (A) (A) (A) (A) (A) (A) (A) (A) (A) (A) (A)
                 (A) (A) (A) (A) (A) (A) (A) (A) (A) (A) (A) (A)
                 (A) (A) (A) (A) (A) (A) (A) (A) (A) (A) (A) (A)
                 (A) (A) (A) (A) (A) (A) (A) (A) (A) (A) (A) (A)
                 (A) (A) (A) (A) (A) (A) (A) (A) (A) (A) (A) (A)
                 (A) (A) (A) (A) (A) (A) (A) (A) (A) (A) (A) (A)
                 (A) (A) (A) (A) (A) (A) (A) (A) (A) (A) (A) (A)
                 (A) (A) (A) (A) (A) (A) (A) (A) (A) (A) (A) (A)
                 (A) (A) (A) (A) (A) (A) (A) (A) (A) (A) (A) (A)
                 (A) (A) (A) (A) (A) (A) (A) (A) (A) (A) (A) (A)
                 (A) (A) (A) (A) (A) (A) (A) (A) (A) (A) (A) (A)
                 (A) (A) (A) (A) (A) (A) (A) (A) (A) (A) (A) (A)
                 (A) (A) (A) (A) (A) (A) (A) (A) (A) (A) (A) (A)
                 (A) (A) (A) (A) (A) (A) (A) (A) (A) (A) (A) (A)
                 (A) (A) (A) (A) (A) (A) (A) (A) (A) (A) (A) (A)
                 (A) (A) (A) (A) (A) (A) (A) (A) (A) (A) (A) (A)
                 (A) (A) (A) (A) (A) (A) (A) (A) (A) (A) (A) (A)
                 (A) (A) (A) (A) (A) (A) (A) (A) (A) (A) (A) (A)
                 (A) (A) (A) (A) (A) (A) (A) (A) (A) (A) (A) (A)
                 (A) (A) (A) (A) (A) (A) (A) (A) (A) (A) (A) (A)
                 (A) (A) (A) (A) (A) (A) (A) (A) (A) (A) (A) (A)
                 (A) (A) (A) (A) (A) (A) (A) (A) (A) (A) (A) (A)
                 (A) (A) (A) (A) (A) (A) (A) (A) (A) (A) (A) (A)
                 (A) (A) (A) (A) (A) (A) (A) (A) (A) (A) (A) (A)
                 (A) (A) (A) (A) (A) (A) (A) (A) (A) (A) (A) (A)
                 (A) (A) (A) (A) (A) (A) (A) (A) (A) (A) (A) (A)
                 (A) (A) (A) (A) (A) (A) (A) (A) (A) (A) (A) (A)
                 (A) (A) (A) (A) (A) (A) (A) (A) (A) (A) (A) (A)
                 (A) (A) (A) (A) (A) (A) (A) (A) (A) (A) (A) (A)
                 (A) (A) (A) (A) (A) (A) (A) (A) (A) (A) (A) (A)
                 (A) (A) (A) (A) (A) (A) (A) (A) (A) (A) (A) (A)
                 (A) (A) (A) (A) (A) (A) (A) (A) (A) (A) (A) (A)
                 (A) (A) (A) (A) (A) (A) (A) (A) (A) (A) (A) (A)
                 (A) (A) (A) (A) (A) (A) (A) (A) (A) (A) (A) (A)
                 (A) (A) (A) (A) (A) (A) (A) (A) (A) (A) (A) (A)
                 (A) (A) (A) (A) (A) (A) (A) (A) (A) (A) (A) (A)
                 (A) (A) (A) (A) (A) (A) (A) (A) (A) (A) (A) (A)
                 (A) (A) (A) (A) (A) (A) (A) (A) (A) (A) (A) (A)
                 (A) (A) (A) (A) (A) (A) (A) (A) (A) (A) (A) (A)
                 (A) (A) (A) (A) (A) (A) (A) (A) (A) (A) (A) (A)
                 (A) (A) (A) (A) (A) (A) (A) (A) (A) (A) (A) (A)
                 (A) (A) (A) (A) (A) (A) (A) (A) (A) (A) (A) (A)
                 (A) (A) (A) (A) (A) (A) (A) (A) (A) (A) (A) (A)
                 (A) (A) (A) (A) (A) (A) (A) (A) (A) (A) (A) (A)
                 (A) (A) (A) (A) (A) (A) (A) (A) (A) (A) (A) (A)
                 (A) (A) (A) (A) (A) (A) (A) (A) (A) (A) (A) (A)
                 (A) (A) (A) (A) (A) (A) (A) (A) (A) (A) (A) (A)
                 (A) (A) (A) (A) (A) (A) (A) (A) (A) (A) (A) (A)
                 (A) (A) (A) (A) (A) (A) (A) (A) (A) (A) (A) (A)
                 (A) (A) (A) (A) (A) (A) (A) (A) (A) (A) (A) (A)
                 (A) (A) (A) (A) (A) (A) (A) (A) (A) (A) (A) (A)
                 (A) (A) (A) (A) (A) (A) (A) (A) (A) (A) (A) (A)
                 (A) (A) (A) (A) (A) (A) (A) (A) (A) (A) (A) (A)
                 (A) (A) (A) (A) (A) (A) (A) (A) (A) (A) (A) (A)
                 (A) (A) (A) (A) (A) (A) (A) (A) (A) (A) (A) (A)
                 (A) (A) (A) (A) (A) (A) (A) (A) (A) (A) (A) (A)
                 (A) (A) (A) (A) (A) (A) (A) (A) (A) (A) (A) (A)
                 (A) (A) (A) (A) (A) (A) (A) (A) (A) (A) (A) (A)
                 (A) (A) (A) (A) (A) (A) (A) (A) (A) (A) (A) (A)
                 (A) (A) (A) (A) (A) (A) (A) (A) (A) (A) (A) (A)
                 (A) (A) (A) (A) (A) (A) (A) (A) (A) (A) (A) (A)
                 (A) (A) (A) (A) (A) (A) (A) (A) (A) (A) (A) (A)
                 (A) (A) (A) (A) (A)
 Beta  Orbitals:
       Occupied  (A) (A) (A) (A) (A) (A) (A) (A) (A) (A) (A) (A)
                 (A) (A) (A) (A) (A) (A) (A) (A) (A) (A) (A) (A)
                 (A) (A) (A) (A) (A) (A) (A) (A) (A) (A) (A) (A)
                 (A) (A) (A) (A) (A) (A) (A) (A) (A) (A) (A) (A)
                 (A) (A) (A) (A) (A) (A) (A) (A) (A) (A) (A) (A)
                 (A) (A) (A) (A) (A) (A) (A) (A) (A) (A) (A) (A)
                 (A) (A) (A) (A) (A) (A) (A) (A) (A) (A) (A) (A)
                 (A) (A) (A) (A) (A) (A) (A) (A) (A) (A) (A) (A)
                 (A) (A) (A) (A) (A) (A) (A) (A) (A) (A) (A) (A)
                 (A) (A) (A) (A) (A) (A) (A) (A) (A) (A) (A) (A)
                 (A) (A) (A) (A) (A) (A) (A) (A)
       Virtual   (A) (A) (A) (A) (A) (A) (A) (A) (A) (A) (A) (A)
                 (A) (A) (A) (A) (A) (A) (A) (A) (A) (A) (A) (A)
                 (A) (A) (A) (A) (A) (A) (A) (A) (A) (A) (A) (A)
                 (A) (A) (A) (A) (A) (A) (A) (A) (A) (A) (A) (A)
                 (A) (A) (A) (A) (A) (A) (A) (A) (A) (A) (A) (A)
                 (A) (A) (A) (A) (A) (A) (A) (A) (A) (A) (A) (A)
                 (A) (A) (A) (A) (A) (A) (A) (A) (A) (A) (A) (A)
                 (A) (A) (A) (A) (A) (A) (A) (A) (A) (A) (A) (A)
                 (A) (A) (A) (A) (A) (A) (A) (A) (A) (A) (A) (A)
                 (A) (A) (A) (A) (A) (A) (A) (A) (A) (A) (A) (A)
                 (A) (A) (A) (A) (A) (A) (A) (A) (A) (A) (A) (A)
                 (A) (A) (A) (A) (A) (A) (A) (A) (A) (A) (A) (A)
                 (A) (A) (A) (A) (A) (A) (A) (A) (A) (A) (A) (A)
                 (A) (A) (A) (A) (A) (A) (A) (A) (A) (A) (A) (A)
                 (A) (A) (A) (A) (A) (A) (A) (A) (A) (A) (A) (A)
                 (A) (A) (A) (A) (A) (A) (A) (A) (A) (A) (A) (A)
                 (A) (A) (A) (A) (A) (A) (A) (A) (A) (A) (A) (A)
                 (A) (A) (A) (A) (A) (A) (A) (A) (A) (A) (A) (A)
                 (A) (A) (A) (A) (A) (A) (A) (A) (A) (A) (A) (A)
                 (A) (A) (A) (A) (A) (A) (A) (A) (A) (A) (A) (A)
                 (A) (A) (A) (A) (A) (A) (A) (A) (A) (A) (A) (A)
                 (A) (A) (A) (A) (A) (A) (A) (A) (A) (A) (A) (A)
                 (A) (A) (A) (A) (A) (A) (A) (A) (A) (A) (A) (A)
                 (A) (A) (A) (A) (A) (A) (A) (A) (A) (A) (A) (A)
                 (A) (A) (A) (A) (A) (A) (A) (A) (A) (A) (A) (A)
                 (A) (A) (A) (A) (A) (A) (A) (A) (A) (A) (A) (A)
                 (A) (A) (A) (A) (A) (A) (A) (A) (A) (A) (A) (A)
                 (A) (A) (A) (A) (A) (A) (A) (A) (A) (A) (A) (A)
                 (A) (A) (A) (A) (A) (A) (A) (A) (A) (A) (A) (A)
                 (A) (A) (A) (A) (A) (A) (A) (A) (A) (A) (A) (A)
                 (A) (A) (A) (A) (A) (A) (A) (A) (A) (A) (A) (A)
                 (A) (A) (A) (A) (A) (A) (A) (A) (A) (A) (A) (A)
                 (A) (A) (A) (A) (A) (A) (A) (A) (A) (A) (A) (A)
                 (A) (A) (A) (A) (A) (A) (A) (A) (A) (A) (A) (A)
                 (A) (A) (A) (A) (A) (A) (A) (A) (A) (A) (A) (A)
                 (A) (A) (A) (A) (A) (A) (A) (A) (A) (A) (A) (A)
                 (A) (A) (A) (A) (A) (A) (A) (A) (A) (A) (A) (A)
                 (A) (A) (A) (A) (A) (A) (A) (A) (A) (A) (A) (A)
                 (A) (A) (A) (A) (A) (A) (A) (A) (A) (A) (A) (A)
                 (A) (A) (A) (A) (A) (A) (A) (A) (A) (A) (A) (A)
                 (A) (A) (A) (A) (A) (A) (A) (A) (A) (A) (A) (A)
                 (A) (A) (A) (A) (A) (A) (A) (A) (A) (A) (A) (A)
                 (A) (A) (A) (A) (A) (A) (A) (A) (A) (A) (A) (A)
                 (A) (A) (A) (A) (A) (A) (A) (A) (A) (A) (A) (A)
                 (A) (A) (A) (A) (A) (A) (A) (A) (A) (A) (A) (A)
                 (A) (A) (A) (A) (A) (A) (A) (A) (A) (A) (A) (A)
                 (A) (A) (A) (A) (A) (A) (A) (A) (A) (A) (A) (A)
                 (A) (A) (A) (A) (A) (A) (A) (A) (A) (A) (A) (A)
                 (A) (A) (A) (A) (A) (A) (A) (A) (A) (A) (A) (A)
                 (A) (A) (A) (A) (A) (A) (A) (A) (A) (A) (A) (A)
                 (A) (A) (A) (A) (A) (A) (A) (A) (A) (A) (A) (A)
                 (A) (A) (A) (A) (A) (A) (A) (A) (A) (A) (A) (A)
                 (A) (A) (A) (A) (A) (A) (A) (A) (A) (A) (A) (A)
                 (A) (A) (A) (A) (A) (A) (A) (A) (A) (A) (A) (A)
                 (A) (A) (A) (A) (A) (A) (A) (A) (A) (A) (A) (A)
                 (A) (A) (A) (A) (A) (A) (A) (A) (A) (A) (A) (A)
                 (A) (A) (A) (A) (A) (A) (A) (A) (A) (A) (A) (A)
                 (A) (A) (A) (A) (A) (A) (A) (A) (A) (A) (A) (A)
                 (A) (A) (A) (A) (A) (A) (A) (A) (A) (A) (A) (A)
                 (A) (A) (A) (A) (A) (A) (A) (A) (A) (A) (A) (A)
                 (A) (A) (A) (A) (A) (A) (A) (A) (A) (A) (A) (A)
                 (A) (A) (A) (A) (A) (A) (A) (A) (A) (A) (A) (A)
                 (A) (A) (A) (A) (A) (A) (A) (A) (A) (A) (A) (A)
                 (A) (A) (A) (A) (A) (A)
 The electronic state is 2-A.
 Alpha  occ. eigenvalues --  -14.25370 -14.25369 -10.14688 -10.14686 -10.12989
 Alpha  occ. eigenvalues --  -10.12989 -10.12988 -10.12987 -10.11332 -10.11319
 Alpha  occ. eigenvalues --  -10.10062 -10.10062 -10.10059 -10.10058 -10.10020
 Alpha  occ. eigenvalues --  -10.10020 -10.10020 -10.10019 -10.08635 -10.08634
 Alpha  occ. eigenvalues --  -10.08634 -10.08633 -10.08471 -10.08471 -10.08471
 Alpha  occ. eigenvalues --  -10.08470 -10.08061 -10.08061 -10.08060 -10.08060
 Alpha  occ. eigenvalues --  -10.07988 -10.07988 -10.07987 -10.07987 -10.07880
 Alpha  occ. eigenvalues --  -10.07879 -10.07879 -10.07879  -1.11328  -1.11324
 Alpha  occ. eigenvalues --   -1.01399  -0.99649  -0.98695  -0.98695  -0.97413
 Alpha  occ. eigenvalues --   -0.96885  -0.92706  -0.90112  -0.89768  -0.89292
 Alpha  occ. eigenvalues --   -0.88826  -0.88493  -0.87801  -0.87463  -0.87462
 Alpha  occ. eigenvalues --   -0.87380  -0.85540  -0.83916  -0.79074  -0.78419
 Alpha  occ. eigenvalues --   -0.77281  -0.76359  -0.75911  -0.74736  -0.74413
 Alpha  occ. eigenvalues --   -0.74095  -0.73942  -0.73604  -0.71768  -0.71433
 Alpha  occ. eigenvalues --   -0.69446  -0.68685  -0.68500  -0.68259  -0.66382
 Alpha  occ. eigenvalues --   -0.64052  -0.63924  -0.63401  -0.62532  -0.62236
 Alpha  occ. eigenvalues --   -0.62079  -0.60565  -0.60429  -0.59840  -0.59727
 Alpha  occ. eigenvalues --   -0.59670  -0.58918  -0.58234  -0.57973  -0.57858
 Alpha  occ. eigenvalues --   -0.57770  -0.57696  -0.57642  -0.56586  -0.56454
 Alpha  occ. eigenvalues --   -0.56249  -0.56249  -0.55982  -0.54933  -0.54431
 Alpha  occ. eigenvalues --   -0.53587  -0.53326  -0.52988  -0.52958  -0.51561
 Alpha  occ. eigenvalues --   -0.51356  -0.50867  -0.50559  -0.50333  -0.49955
 Alpha  occ. eigenvalues --   -0.49920  -0.49194  -0.48863  -0.48496  -0.48468
 Alpha  occ. eigenvalues --   -0.47864  -0.46967  -0.44568  -0.43187  -0.43162
 Alpha  occ. eigenvalues --   -0.42143  -0.42137  -0.41822  -0.41315  -0.41296
 Alpha  occ. eigenvalues --   -0.40848  -0.40686  -0.36232  -0.35044
 Alpha virt. eigenvalues --   -0.10328  -0.08113  -0.07986  -0.06980  -0.06970
 Alpha virt. eigenvalues --   -0.06317  -0.05693  -0.05573  -0.04775  -0.04743
 Alpha virt. eigenvalues --   -0.03243  -0.02097   0.00873   0.01502   0.02543
 Alpha virt. eigenvalues --    0.02732   0.02902   0.03016   0.03220   0.04430
 Alpha virt. eigenvalues --    0.04655   0.04773   0.05323   0.05465   0.05491
 Alpha virt. eigenvalues --    0.05827   0.06469   0.06678   0.06797   0.07168
 Alpha virt. eigenvalues --    0.07642   0.08054   0.08189   0.08194   0.08527
 Alpha virt. eigenvalues --    0.08573   0.08840   0.08860   0.08913   0.09129
 Alpha virt. eigenvalues --    0.09535   0.09647   0.10152   0.10374   0.11105
 Alpha virt. eigenvalues --    0.11618   0.11894   0.11927   0.12407   0.13021
 Alpha virt. eigenvalues --    0.14556   0.14920   0.15243   0.15393   0.15457
 Alpha virt. eigenvalues --    0.16092   0.16137   0.16363   0.16511   0.16770
 Alpha virt. eigenvalues --    0.16975   0.17161   0.17430   0.17504   0.17705
 Alpha virt. eigenvalues --    0.17819   0.18945   0.19005   0.19063   0.19097
 Alpha virt. eigenvalues --    0.19162   0.19284   0.19473   0.19512   0.19665
 Alpha virt. eigenvalues --    0.20027   0.20231   0.20603   0.20920   0.21071
 Alpha virt. eigenvalues --    0.21083   0.21126   0.21475   0.21715   0.21748
 Alpha virt. eigenvalues --    0.21883   0.22352   0.22552   0.22671   0.22675
 Alpha virt. eigenvalues --    0.23630   0.24108   0.24602   0.24699   0.24713
 Alpha virt. eigenvalues --    0.24841   0.25005   0.25089   0.25579   0.26367
 Alpha virt. eigenvalues --    0.26422   0.26541   0.26761   0.27062   0.27238
 Alpha virt. eigenvalues --    0.27649   0.27708   0.28142   0.28356   0.28588
 Alpha virt. eigenvalues --    0.28652   0.28838   0.29168   0.29317   0.30588
 Alpha virt. eigenvalues --    0.30735   0.30901   0.31048   0.31167   0.31984
 Alpha virt. eigenvalues --    0.32169   0.32433   0.32451   0.33199   0.33213
 Alpha virt. eigenvalues --    0.33247   0.33466   0.33770   0.34219   0.34375
 Alpha virt. eigenvalues --    0.34425   0.35264   0.35284   0.35467   0.35522
 Alpha virt. eigenvalues --    0.35743   0.35745   0.36052   0.36095   0.36247
 Alpha virt. eigenvalues --    0.36613   0.37060   0.37076   0.37581   0.37922
 Alpha virt. eigenvalues --    0.38205   0.38795   0.39002   0.39070   0.39088
 Alpha virt. eigenvalues --    0.39475   0.39588   0.39751   0.39978   0.40006
 Alpha virt. eigenvalues --    0.40011   0.40025   0.40229   0.40646   0.40812
 Alpha virt. eigenvalues --    0.41288   0.41550   0.42149   0.42417   0.42628
 Alpha virt. eigenvalues --    0.42832   0.42919   0.42970   0.43230   0.44081
 Alpha virt. eigenvalues --    0.44340   0.44646   0.44723   0.44948   0.45003
 Alpha virt. eigenvalues --    0.45295   0.45953   0.46061   0.46161   0.46290
 Alpha virt. eigenvalues --    0.46619   0.46702   0.47066   0.47164   0.47259
 Alpha virt. eigenvalues --    0.47822   0.47990   0.48144   0.48563   0.48574
 Alpha virt. eigenvalues --    0.49420   0.49999   0.50078   0.50382   0.50850
 Alpha virt. eigenvalues --    0.51012   0.51015   0.51578   0.51634   0.51855
 Alpha virt. eigenvalues --    0.52356   0.52950   0.53310   0.53922   0.54312
 Alpha virt. eigenvalues --    0.56608   0.56807   0.56822   0.56853   0.57538
 Alpha virt. eigenvalues --    0.57595   0.58116   0.58359   0.58951   0.59841
 Alpha virt. eigenvalues --    0.60598   0.61533   0.61990   0.62302   0.63031
 Alpha virt. eigenvalues --    0.63096   0.63323   0.63424   0.63934   0.64463
 Alpha virt. eigenvalues --    0.64941   0.65148   0.65437   0.65514   0.65561
 Alpha virt. eigenvalues --    0.65607   0.65627   0.65803   0.65809   0.66789
 Alpha virt. eigenvalues --    0.67015   0.67569   0.68198   0.68562   0.69137
 Alpha virt. eigenvalues --    0.69163   0.70164   0.70620   0.71434   0.71604
 Alpha virt. eigenvalues --    0.72388   0.73430   0.73594   0.73689   0.73805
 Alpha virt. eigenvalues --    0.75471   0.75785   0.76711   0.77109   0.77647
 Alpha virt. eigenvalues --    0.79886   0.80001   0.80119   0.80791   0.81436
 Alpha virt. eigenvalues --    0.81850   0.81980   0.82357   0.86294   0.87451
 Alpha virt. eigenvalues --    0.87727   0.87876   0.90158   0.90293   1.06760
 Alpha virt. eigenvalues --    1.08534   1.09566   1.10076   1.10088   1.13869
 Alpha virt. eigenvalues --    1.14266   1.14277   1.14882   1.15831   1.16092
 Alpha virt. eigenvalues --    1.16406   1.16569   1.17281   1.17377   1.17938
 Alpha virt. eigenvalues --    1.17984   1.18268   1.18450   1.18958   1.19718
 Alpha virt. eigenvalues --    1.19891   1.20089   1.20700   1.20742   1.20805
 Alpha virt. eigenvalues --    1.20814   1.21643   1.21697   1.21892   1.22018
 Alpha virt. eigenvalues --    1.22320   1.22744   1.22949   1.23076   1.23141
 Alpha virt. eigenvalues --    1.23687   1.24268   1.24463   1.24529   1.24552
 Alpha virt. eigenvalues --    1.24968   1.25050   1.25263   1.25431   1.26049
 Alpha virt. eigenvalues --    1.26056   1.26446   1.26568   1.26881   1.27319
 Alpha virt. eigenvalues --    1.27769   1.27815   1.28183   1.28312   1.28844
 Alpha virt. eigenvalues --    1.29026   1.29166   1.33795   1.34266   1.35241
 Alpha virt. eigenvalues --    1.35507   1.35809   1.36005   1.36328   1.36864
 Alpha virt. eigenvalues --    1.37325   1.37368   1.37679   1.37725   1.37860
 Alpha virt. eigenvalues --    1.37874   1.37898   1.37987   1.38566   1.38601
 Alpha virt. eigenvalues --    1.38634   1.38944   1.39045   1.39481   1.39519
 Alpha virt. eigenvalues --    1.39616   1.39746   1.39972   1.40000   1.40049
 Alpha virt. eigenvalues --    1.40205   1.40396   1.40762   1.41123   1.41221
 Alpha virt. eigenvalues --    1.41242   1.41404   1.41505   1.43036   1.43232
 Alpha virt. eigenvalues --    1.43402   1.43461   1.44009   1.44104   1.45028
 Alpha virt. eigenvalues --    1.45420   1.45555   1.45667   1.45866   1.46033
 Alpha virt. eigenvalues --    1.46383   1.46493   1.46808   1.47162   1.47359
 Alpha virt. eigenvalues --    1.47792   1.47818   1.48617   1.48660   1.48919
 Alpha virt. eigenvalues --    1.49029   1.49069   1.49402   1.49793   1.49837
 Alpha virt. eigenvalues --    1.49943   1.50524   1.50684   1.50904   1.51084
 Alpha virt. eigenvalues --    1.51658   1.51682   1.51810   1.51822   1.52437
 Alpha virt. eigenvalues --    1.52619   1.53079   1.53311   1.53587   1.54045
 Alpha virt. eigenvalues --    1.54237   1.56965   1.57478   1.59117   1.59333
 Alpha virt. eigenvalues --    1.60178   1.60265   1.60547   1.60614   1.61642
 Alpha virt. eigenvalues --    1.63624   1.64191   1.64746   1.64922   1.65526
 Alpha virt. eigenvalues --    1.68086   1.68660   1.69268   1.69433   1.69873
 Alpha virt. eigenvalues --    1.70085   1.70149   1.70514   1.70726   1.70779
 Alpha virt. eigenvalues --    1.71076   1.71336   1.71429   1.71638   1.71663
 Alpha virt. eigenvalues --    1.72396   1.72511   1.72565   1.72654   1.73175
 Alpha virt. eigenvalues --    1.73470   1.74406   1.74544   1.74658   1.74877
 Alpha virt. eigenvalues --    1.75313   1.75664   1.75712   1.75873   1.76115
 Alpha virt. eigenvalues --    1.77325   1.77769   1.77792   1.78404   1.80045
 Alpha virt. eigenvalues --    1.80730   1.80860   1.81718   1.81911   1.82083
 Alpha virt. eigenvalues --    1.82093   1.82436   1.82525   1.82543   1.82783
 Alpha virt. eigenvalues --    1.84209   1.84543   1.84794   1.84801   1.85043
 Alpha virt. eigenvalues --    1.85054   1.85258   1.85408   1.85728   1.85780
 Alpha virt. eigenvalues --    1.85781   1.85853   1.86355   1.86621   1.86630
 Alpha virt. eigenvalues --    1.86833   1.86841   1.87155   1.87411   1.87750
 Alpha virt. eigenvalues --    1.88263   1.89005   1.89765   1.91102   1.91210
 Alpha virt. eigenvalues --    1.91229   1.91252   1.91615   1.91776   1.92998
 Alpha virt. eigenvalues --    1.93066   1.93092   1.93733   1.94328   1.95507
 Alpha virt. eigenvalues --    1.95650   1.95822   1.95975   1.97440   1.97645
 Alpha virt. eigenvalues --    1.98080   2.00092   2.00335   2.00966   2.02132
 Alpha virt. eigenvalues --    2.03618   2.04616   2.04644   2.05051   2.05457
 Alpha virt. eigenvalues --    2.07217   2.08244   2.10144   2.11913   2.12385
 Alpha virt. eigenvalues --    2.12600   2.12640   2.14890   2.15456   2.16304
 Alpha virt. eigenvalues --    2.16688   2.16789   2.18451   2.18994   2.19856
 Alpha virt. eigenvalues --    2.21911   2.21946   2.22637   2.22658   2.22821
 Alpha virt. eigenvalues --    2.23158   2.23709   2.23991   2.24093   2.24151
 Alpha virt. eigenvalues --    2.24156   2.24556   2.25011   2.25157   2.25409
 Alpha virt. eigenvalues --    2.25713   2.25894   2.26098   2.26863   2.26962
 Alpha virt. eigenvalues --    2.27638   2.27684   2.27766   2.27937   2.28771
 Alpha virt. eigenvalues --    2.28911   2.28957   2.29018   2.29282   2.29374
 Alpha virt. eigenvalues --    2.29687   2.30001   2.30267   2.30675   2.30687
 Alpha virt. eigenvalues --    2.30747   2.33087   2.35893   2.37120   2.37541
 Alpha virt. eigenvalues --    2.37926   2.38707   2.38779   2.38963   2.43068
 Alpha virt. eigenvalues --    2.43185   2.43223   2.43790   2.44250   2.44354
 Alpha virt. eigenvalues --    2.44903   2.45264   2.45619   2.45776   2.45968
 Alpha virt. eigenvalues --    2.46549   2.47187   2.47631   2.48181   2.48431
 Alpha virt. eigenvalues --    2.48660   2.50455   2.51085   2.51783   2.53064
 Alpha virt. eigenvalues --    2.53200   2.55320   2.55695   2.56036   2.56360
 Alpha virt. eigenvalues --    2.57281   2.57288   2.57326   2.57772   2.57779
 Alpha virt. eigenvalues --    2.57940   2.58179   2.58298   2.58850   2.59227
 Alpha virt. eigenvalues --    2.59291   2.60067   2.60386   2.60641   2.60941
 Alpha virt. eigenvalues --    2.61414   2.65883   2.66930   2.66944   2.67105
 Alpha virt. eigenvalues --    2.67183   2.67979   2.68388   2.68781   2.68911
 Alpha virt. eigenvalues --    2.70084   2.70799   2.71135   2.71184   2.72018
 Alpha virt. eigenvalues --    2.74102   2.75080   2.75376   2.75898   2.76388
 Alpha virt. eigenvalues --    2.77565   2.77616   2.77921   2.77977   2.78069
 Alpha virt. eigenvalues --    2.82074   2.82768   2.87339   2.88465   2.88575
 Alpha virt. eigenvalues --    2.88723   2.90767   2.90784   2.91543   2.91603
 Alpha virt. eigenvalues --    2.94853   2.94886   2.95137   2.95181   2.95331
 Alpha virt. eigenvalues --    2.95810   2.96152   2.96191   2.97057   2.97172
 Alpha virt. eigenvalues --    2.97675   2.97926   2.98483   2.99475   3.00009
 Alpha virt. eigenvalues --    3.01883   3.02968   3.02977   3.03071   3.04390
 Alpha virt. eigenvalues --    3.04578   3.05073   3.07093   3.07296   3.08102
 Alpha virt. eigenvalues --    3.08372   3.09760   3.09939   3.10578   3.10677
 Alpha virt. eigenvalues --    3.11132   3.12352   3.12742   3.13209   3.13408
 Alpha virt. eigenvalues --    3.13907   3.14382   3.14918   3.15283   3.16122
 Alpha virt. eigenvalues --    3.17518   3.18381   3.21454   3.25501   3.25521
 Alpha virt. eigenvalues --    3.25792   3.26273   3.26572   3.26588   3.28902
 Alpha virt. eigenvalues --    3.30486   3.32379   3.32644   3.33895   3.33899
 Alpha virt. eigenvalues --    3.36569   3.37288   3.44861   3.45816   3.47414
 Alpha virt. eigenvalues --    3.47567   3.47747   3.47817   3.49877   3.52457
 Alpha virt. eigenvalues --    3.52949   3.52952   3.70247   3.74018   3.81145
 Alpha virt. eigenvalues --    3.83460   3.83986   3.84068  21.04564  21.10953
 Alpha virt. eigenvalues --   21.11200  21.12728  21.12953  21.25463  21.57246
 Alpha virt. eigenvalues --   21.58733  21.58751  21.61311  21.61935  21.61949
 Alpha virt. eigenvalues --   21.64146  21.64553  21.67465  21.70702  21.70902
 Alpha virt. eigenvalues --   21.79804  21.80690  21.84282  21.84883  21.86255
 Alpha virt. eigenvalues --   21.87084  21.87747  21.87958  21.89426  21.92421
 Alpha virt. eigenvalues --   21.92825  21.93158  21.94675  21.98413  21.99440
 Alpha virt. eigenvalues --   22.04032  22.04936  22.05499  22.05534  31.91103
 Alpha virt. eigenvalues --   31.92048
  Beta  occ. eigenvalues --  -14.24968 -14.24967 -10.14645 -10.14642 -10.13021
  Beta  occ. eigenvalues --  -10.13020 -10.13020 -10.13019 -10.11249 -10.11235
  Beta  occ. eigenvalues --  -10.10044 -10.10044 -10.10042 -10.10040 -10.09980
  Beta  occ. eigenvalues --  -10.09980 -10.09980 -10.09980 -10.08566 -10.08566
  Beta  occ. eigenvalues --  -10.08565 -10.08565 -10.08407 -10.08407 -10.08407
  Beta  occ. eigenvalues --  -10.08406 -10.08088 -10.08088 -10.08088 -10.08088
  Beta  occ. eigenvalues --  -10.08012 -10.08012 -10.08012 -10.08012 -10.07810
  Beta  occ. eigenvalues --  -10.07810 -10.07809 -10.07809  -1.10830  -1.10825
  Beta  occ. eigenvalues --   -1.01226  -0.99492  -0.98610  -0.98610  -0.97286
  Beta  occ. eigenvalues --   -0.96739  -0.92491  -0.90037  -0.89686  -0.89143
  Beta  occ. eigenvalues --   -0.88743  -0.88414  -0.87729  -0.87398  -0.87397
  Beta  occ. eigenvalues --   -0.87290  -0.85350  -0.83611  -0.78966  -0.78276
  Beta  occ. eigenvalues --   -0.77146  -0.76238  -0.75776  -0.74588  -0.74355
  Beta  occ. eigenvalues --   -0.74009  -0.73861  -0.73530  -0.71679  -0.71349
  Beta  occ. eigenvalues --   -0.69374  -0.68590  -0.68427  -0.68181  -0.66292
  Beta  occ. eigenvalues --   -0.63894  -0.63835  -0.63310  -0.62418  -0.62054
  Beta  occ. eigenvalues --   -0.61748  -0.60490  -0.60290  -0.59761  -0.59640
  Beta  occ. eigenvalues --   -0.59629  -0.58846  -0.58190  -0.57936  -0.57763
  Beta  occ. eigenvalues --   -0.57719  -0.57625  -0.57591  -0.56518  -0.56412
  Beta  occ. eigenvalues --   -0.56216  -0.56215  -0.55885  -0.54686  -0.54080
  Beta  occ. eigenvalues --   -0.53290  -0.53087  -0.52800  -0.52772  -0.51503
  Beta  occ. eigenvalues --   -0.51226  -0.50506  -0.50478  -0.50281  -0.49855
  Beta  occ. eigenvalues --   -0.49801  -0.48987  -0.48745  -0.48450  -0.48421
  Beta  occ. eigenvalues --   -0.47574  -0.46340  -0.43800  -0.43038  -0.43027
  Beta  occ. eigenvalues --   -0.41762  -0.41755  -0.41038  -0.41034  -0.40998
  Beta  occ. eigenvalues --   -0.40684  -0.39918  -0.31921
  Beta virt. eigenvalues --   -0.23533  -0.09978  -0.07858  -0.07704  -0.06696
  Beta virt. eigenvalues --   -0.06680  -0.05872  -0.05476  -0.05292  -0.04580
  Beta virt. eigenvalues --   -0.04516  -0.02689  -0.01479   0.00911   0.01545
  Beta virt. eigenvalues --    0.02575   0.02785   0.02934   0.03042   0.03257
  Beta virt. eigenvalues --    0.04473   0.04698   0.04810   0.05358   0.05484
  Beta virt. eigenvalues --    0.05521   0.05859   0.06502   0.06820   0.06869
  Beta virt. eigenvalues --    0.07199   0.07680   0.08117   0.08212   0.08241
  Beta virt. eigenvalues --    0.08543   0.08639   0.08972   0.09002   0.09038
  Beta virt. eigenvalues --    0.09184   0.09609   0.09709   0.10174   0.10399
  Beta virt. eigenvalues --    0.11318   0.11789   0.12018   0.12108   0.12492
  Beta virt. eigenvalues --    0.13169   0.14631   0.14977   0.15324   0.15492
  Beta virt. eigenvalues --    0.15501   0.16170   0.16212   0.16422   0.16579
  Beta virt. eigenvalues --    0.16832   0.17029   0.17264   0.17508   0.17536
  Beta virt. eigenvalues --    0.17772   0.17862   0.19043   0.19095   0.19112
  Beta virt. eigenvalues --    0.19201   0.19218   0.19379   0.19542   0.19586
  Beta virt. eigenvalues --    0.19747   0.20095   0.20307   0.20663   0.20960
  Beta virt. eigenvalues --    0.21098   0.21136   0.21153   0.21547   0.21763
  Beta virt. eigenvalues --    0.21815   0.21931   0.22431   0.22604   0.22727
  Beta virt. eigenvalues --    0.22748   0.23657   0.24174   0.24637   0.24732
  Beta virt. eigenvalues --    0.24768   0.24881   0.25130   0.25206   0.25669
  Beta virt. eigenvalues --    0.26475   0.26529   0.26638   0.26842   0.27150
  Beta virt. eigenvalues --    0.27349   0.27743   0.27845   0.28208   0.28441
  Beta virt. eigenvalues --    0.28656   0.28722   0.28943   0.29246   0.29401
  Beta virt. eigenvalues --    0.30702   0.30839   0.31010   0.31137   0.31268
  Beta virt. eigenvalues --    0.32065   0.32306   0.32542   0.32544   0.33273
  Beta virt. eigenvalues --    0.33278   0.33381   0.33572   0.33815   0.34315
  Beta virt. eigenvalues --    0.34448   0.34516   0.35320   0.35376   0.35541
  Beta virt. eigenvalues --    0.35596   0.35803   0.35808   0.36144   0.36148
  Beta virt. eigenvalues --    0.36353   0.36718   0.37147   0.37158   0.37685
  Beta virt. eigenvalues --    0.38021   0.38302   0.38851   0.39106   0.39117
  Beta virt. eigenvalues --    0.39149   0.39514   0.39616   0.39795   0.40024
  Beta virt. eigenvalues --    0.40046   0.40047   0.40082   0.40305   0.40676
  Beta virt. eigenvalues --    0.40860   0.41371   0.41603   0.42216   0.42489
  Beta virt. eigenvalues --    0.42697   0.42892   0.42974   0.43045   0.43290
  Beta virt. eigenvalues --    0.44170   0.44403   0.44696   0.44767   0.45026
  Beta virt. eigenvalues --    0.45058   0.45355   0.46003   0.46121   0.46226
  Beta virt. eigenvalues --    0.46336   0.46658   0.46745   0.47169   0.47244
  Beta virt. eigenvalues --    0.47308   0.47907   0.48057   0.48233   0.48630
  Beta virt. eigenvalues --    0.48645   0.49461   0.50072   0.50141   0.50450
  Beta virt. eigenvalues --    0.50917   0.51108   0.51109   0.51709   0.51722
  Beta virt. eigenvalues --    0.51932   0.52408   0.53030   0.53365   0.54007
  Beta virt. eigenvalues --    0.54367   0.56670   0.56871   0.56891   0.56927
  Beta virt. eigenvalues --    0.57596   0.57701   0.58188   0.58425   0.59003
  Beta virt. eigenvalues --    0.59915   0.60680   0.61642   0.62044   0.62353
  Beta virt. eigenvalues --    0.63100   0.63164   0.63381   0.63473   0.64022
  Beta virt. eigenvalues --    0.64527   0.65006   0.65203   0.65498   0.65611
  Beta virt. eigenvalues --    0.65641   0.65656   0.65682   0.65868   0.65868
  Beta virt. eigenvalues --    0.66848   0.67103   0.67628   0.68246   0.68657
  Beta virt. eigenvalues --    0.69194   0.69241   0.70227   0.70699   0.71520
  Beta virt. eigenvalues --    0.71679   0.72483   0.73511   0.73630   0.73731
  Beta virt. eigenvalues --    0.73856   0.75571   0.75844   0.76867   0.77322
  Beta virt. eigenvalues --    0.77714   0.80150   0.80325   0.80351   0.80858
  Beta virt. eigenvalues --    0.81491   0.81911   0.82026   0.82470   0.86379
  Beta virt. eigenvalues --    0.87525   0.87778   0.87926   0.90295   0.90440
  Beta virt. eigenvalues --    1.06828   1.08595   1.09629   1.10119   1.10131
  Beta virt. eigenvalues --    1.13940   1.14318   1.14340   1.14938   1.15898
  Beta virt. eigenvalues --    1.16175   1.16479   1.16650   1.17358   1.17454
  Beta virt. eigenvalues --    1.18030   1.18042   1.18333   1.18534   1.19046
  Beta virt. eigenvalues --    1.19821   1.19988   1.20168   1.20836   1.20858
  Beta virt. eigenvalues --    1.20889   1.20908   1.21717   1.21781   1.22012
  Beta virt. eigenvalues --    1.22106   1.22389   1.22811   1.23004   1.23128
  Beta virt. eigenvalues --    1.23184   1.23780   1.24345   1.24544   1.24604
  Beta virt. eigenvalues --    1.24648   1.25033   1.25126   1.25319   1.25515
  Beta virt. eigenvalues --    1.26100   1.26134   1.26539   1.26687   1.26971
  Beta virt. eigenvalues --    1.27434   1.27802   1.27852   1.28259   1.28497
  Beta virt. eigenvalues --    1.28931   1.29154   1.29313   1.33965   1.34425
  Beta virt. eigenvalues --    1.35368   1.35674   1.35903   1.36099   1.36402
  Beta virt. eigenvalues --    1.36933   1.37358   1.37587   1.37728   1.37753
  Beta virt. eigenvalues --    1.37856   1.37873   1.38150   1.38256   1.38691
  Beta virt. eigenvalues --    1.38806   1.38835   1.39011   1.39119   1.39547
  Beta virt. eigenvalues --    1.39564   1.39672   1.39836   1.40074   1.40121
  Beta virt. eigenvalues --    1.40140   1.40324   1.40562   1.40896   1.41259
  Beta virt. eigenvalues --    1.41299   1.41370   1.41544   1.41569   1.43090
  Beta virt. eigenvalues --    1.43323   1.43503   1.43518   1.44098   1.44204
  Beta virt. eigenvalues --    1.45210   1.45516   1.45590   1.45696   1.45909
  Beta virt. eigenvalues --    1.46146   1.46485   1.46590   1.46886   1.47305
  Beta virt. eigenvalues --    1.47468   1.47867   1.47952   1.48653   1.48695
  Beta virt. eigenvalues --    1.48939   1.49103   1.49103   1.49551   1.49941
  Beta virt. eigenvalues --    1.49973   1.50090   1.50655   1.50785   1.51034
  Beta virt. eigenvalues --    1.51195   1.51745   1.51789   1.51911   1.51929
  Beta virt. eigenvalues --    1.52570   1.52738   1.53244   1.53399   1.53707
  Beta virt. eigenvalues --    1.54198   1.54339   1.57117   1.57583   1.59251
  Beta virt. eigenvalues --    1.59433   1.60289   1.60370   1.60629   1.60700
  Beta virt. eigenvalues --    1.61708   1.63689   1.64249   1.64817   1.64993
  Beta virt. eigenvalues --    1.65644   1.68259   1.68777   1.69377   1.69544
  Beta virt. eigenvalues --    1.70009   1.70198   1.70303   1.70619   1.70778
  Beta virt. eigenvalues --    1.70875   1.71157   1.71390   1.71572   1.71666
  Beta virt. eigenvalues --    1.71741   1.72450   1.72658   1.72661   1.72760
  Beta virt. eigenvalues --    1.73246   1.73538   1.74509   1.74660   1.74751
  Beta virt. eigenvalues --    1.74973   1.75371   1.75761   1.75788   1.76016
  Beta virt. eigenvalues --    1.76193   1.77445   1.77879   1.78060   1.78635
  Beta virt. eigenvalues --    1.80145   1.80812   1.80987   1.81829   1.82031
[...]
     1 C(13)  Bbb    -0.0189    -2.539    -0.906    -0.847  0.8629 -0.3412 -0.3727
              Bcc     0.0418     5.610     2.002     1.871  0.0564 -0.6680  0.7420
 
              Baa    -0.0310    -4.163    -1.485    -1.388  0.0000  0.9895  0.1448
     2 C(13)  Bbb    -0.0208    -2.793    -0.996    -0.931  1.0000 -0.0000  0.0001
              Bcc     0.0518     6.955     2.482     2.320 -0.0001 -0.1448  0.9895
 
              Baa    -0.0075    -1.013    -0.361    -0.338  0.0659  0.6676  0.7416
     3 C(13)  Bbb    -0.0039    -0.523    -0.187    -0.175  0.9779 -0.1910  0.0851
              Bcc     0.0114     1.536     0.548     0.512  0.1985  0.7196 -0.6654
 
              Baa    -0.0229    -3.071    -1.096    -1.024 -0.5022  0.6614  0.5571
     4 C(13)  Bbb    -0.0189    -2.540    -0.906    -0.847  0.8629  0.3412  0.3728
              Bcc     0.0418     5.611     2.002     1.872 -0.0565 -0.6679  0.7421
 
              Baa    -0.0403    -5.403    -1.928    -1.802  0.0000  0.9880  0.1548
     5 C(13)  Bbb    -0.0351    -4.704    -1.678    -1.569  1.0000 -0.0000  0.0000
              Bcc     0.0753    10.107     3.607     3.371 -0.0000 -0.1548  0.9880
 
              Baa    -0.0075    -1.013    -0.361    -0.338 -0.0656  0.6676  0.7416
     6 C(13)  Bbb    -0.0039    -0.523    -0.187    -0.175  0.9779  0.1907 -0.0852
              Bcc     0.0114     1.536     0.548     0.512 -0.1983  0.7196 -0.6654
 
              Baa    -0.0021    -1.135    -0.405    -0.378 -0.1180 -0.2966  0.9477
     7 H(1)   Bbb    -0.0001    -0.037    -0.013    -0.013  0.9896  0.0442  0.1370
              Bcc     0.0022     1.172     0.418     0.391 -0.0825  0.9540  0.2883
 
              Baa    -0.0027    -1.432    -0.511    -0.478  0.0849 -0.3393  0.9369
     8 H(1)   Bbb    -0.0014    -0.752    -0.268    -0.251  0.9930  0.1058 -0.0517
              Bcc     0.0041     2.183     0.779     0.728 -0.0815  0.9347  0.3459
 
              Baa    -0.0021    -1.135    -0.405    -0.378  0.1179 -0.2967  0.9477
     9 H(1)   Bbb    -0.0001    -0.037    -0.013    -0.013  0.9896 -0.0442 -0.1369
              Bcc     0.0022     1.172     0.418     0.391  0.0825  0.9540  0.2884
 
              Baa    -0.0402    -5.398    -1.926    -1.801  0.0000  0.9878 -0.1555
    10 C(13)  Bbb    -0.0350    -4.698    -1.676    -1.567  1.0000 -0.0000 -0.0000
              Bcc     0.0752    10.096     3.603     3.368  0.0000  0.1555  0.9878
 
              Baa    -0.0076    -1.014    -0.362    -0.338 -0.0645 -0.6678  0.7415
    11 C(13)  Bbb    -0.0039    -0.525    -0.187    -0.175  0.9782 -0.1893 -0.0854
              Bcc     0.0115     1.539     0.549     0.513  0.1973  0.7198  0.6655
 
              Baa    -0.0076    -1.014    -0.362    -0.338  0.0645 -0.6676  0.7417
    12 C(13)  Bbb    -0.0039    -0.525    -0.187    -0.175  0.9782  0.1893  0.0853
              Bcc     0.0115     1.538     0.549     0.513 -0.1974  0.7200  0.6653
 
              Baa    -0.0229    -3.067    -1.094    -1.023  0.5013  0.6610 -0.5583
    13 C(13)  Bbb    -0.0189    -2.536    -0.905    -0.846  0.8634 -0.3398  0.3730
              Bcc     0.0417     5.602     1.999     1.869 -0.0568  0.6690  0.7411
 
              Baa    -0.0229    -3.068    -1.095    -1.023 -0.5014  0.6610 -0.5583
    14 C(13)  Bbb    -0.0189    -2.536    -0.905    -0.846  0.8634  0.3398 -0.3730
              Bcc     0.0418     5.604     2.000     1.869  0.0569  0.6690  0.7411
 
              Baa    -0.0310    -4.165    -1.486    -1.389 -0.0001  0.9893 -0.1456
    15 C(13)  Bbb    -0.0208    -2.795    -0.997    -0.932  1.0000  0.0000 -0.0001
              Bcc     0.0519     6.959     2.483     2.321  0.0001  0.1456  0.9893
 
              Baa    -0.0021    -1.134    -0.405    -0.378  0.1181  0.2975  0.9474
    16 H(1)   Bbb    -0.0001    -0.038    -0.014    -0.013  0.9895  0.0444 -0.1373
              Bcc     0.0022     1.172     0.418     0.391 -0.0830  0.9537 -0.2891
 
              Baa    -0.0021    -1.134    -0.405    -0.378 -0.1180  0.2976  0.9474
    17 H(1)   Bbb    -0.0001    -0.038    -0.013    -0.013  0.9896 -0.0443  0.1371
              Bcc     0.0022     1.172     0.418     0.391  0.0828  0.9537 -0.2893
 
              Baa    -0.0027    -1.432    -0.511    -0.478  0.0843  0.3399  0.9367
    18 H(1)   Bbb    -0.0014    -0.750    -0.268    -0.250  0.9932 -0.1049 -0.0514
              Bcc     0.0041     2.182     0.779     0.728  0.0808  0.9346 -0.3464
 
              Baa    -0.0027    -1.432    -0.511    -0.478 -0.0841  0.3400  0.9367
    19 H(1)   Bbb    -0.0014    -0.750    -0.268    -0.250  0.9932  0.1049  0.0511
              Bcc     0.0041     2.182     0.779     0.728 -0.0809  0.9345 -0.3465
 
              Baa    -0.0027    -1.432    -0.511    -0.478 -0.0851 -0.3392  0.9369
    20 H(1)   Bbb    -0.0014    -0.751    -0.268    -0.251  0.9930 -0.1057  0.0519
              Bcc     0.0041     2.183     0.779     0.728  0.0814  0.9348  0.3458
 
              Baa    -0.2538    -9.789    -3.493    -3.265 -0.0009  0.9478  0.3189
    21 N(14)  Bbb    -0.2527    -9.745    -3.477    -3.251  1.0000  0.0009  0.0002
              Bcc     0.5065    19.534     6.970     6.516  0.0001 -0.3189  0.9478
 
              Baa    -0.0183    -2.455    -0.876    -0.819  0.6149  0.6840 -0.3925
    22 C(13)  Bbb     0.0051     0.679     0.242     0.226  0.6295 -0.1260  0.7667
              Bcc     0.0132     1.776     0.634     0.592 -0.4750  0.7186  0.5080
 
              Baa    -0.0274    -3.682    -1.314    -1.228  0.1022  0.5870  0.8031
    23 C(13)  Bbb    -0.0240    -3.217    -1.148    -1.073  0.6504 -0.6503  0.3925
              Bcc     0.0514     6.899     2.462     2.301  0.7527  0.4823 -0.4482
 
              Baa    -0.0290    -3.896    -1.390    -1.299  0.7309 -0.5482  0.4065
    24 C(13)  Bbb    -0.0258    -3.459    -1.234    -1.154 -0.0827  0.5201  0.8501
              Bcc     0.0548     7.355     2.624     2.453  0.6774  0.6550 -0.3349
 
              Baa    -0.0197    -2.641    -0.942    -0.881 -0.5206 -0.5937  0.6136
    25 C(13)  Bbb     0.0087     1.165     0.416     0.389  0.6970  0.1195  0.7070
              Bcc     0.0110     1.476     0.527     0.492 -0.4931  0.7958  0.3516
 
              Baa    -0.0216    -2.897    -1.034    -0.966 -0.5611 -0.5366  0.6302
    26 C(13)  Bbb     0.0094     1.267     0.452     0.423  0.6179  0.2351  0.7503
              Bcc     0.0121     1.630     0.582     0.544 -0.5508  0.8104  0.1997
 
              Baa    -0.0319    -4.274    -1.525    -1.426  0.6791  0.2047  0.7049
    27 C(13)  Bbb    -0.0286    -3.842    -1.371    -1.282 -0.5273  0.8042  0.2745
              Bcc     0.0605     8.116     2.896     2.707 -0.5106 -0.5580  0.6541
 
              Baa    -0.0021    -1.134    -0.405    -0.378  0.2499  0.8283 -0.5014
    28 H(1)   Bbb    -0.0011    -0.610    -0.218    -0.204  0.7583 -0.4894 -0.4305
              Bcc     0.0033     1.745     0.623     0.582  0.6020  0.2726  0.7505
 
              Baa    -0.0023    -1.211    -0.432    -0.404 -0.6024 -0.5173  0.6079
    29 H(1)   Bbb    -0.0008    -0.428    -0.153    -0.143 -0.2665  0.8482  0.4577
              Bcc     0.0031     1.639     0.585     0.547  0.7524 -0.1137  0.6488
 
              Baa    -0.0011    -0.602    -0.215    -0.201  0.5772  0.5868 -0.5680
    30 H(1)   Bbb     0.0001     0.075     0.027     0.025  0.7397 -0.0810  0.6680
              Bcc     0.0010     0.527     0.188     0.176 -0.3460  0.8057  0.4808
 
              Baa    -0.0012    -0.634    -0.226    -0.211  0.5850  0.6084 -0.5363
    31 H(1)   Bbb    -0.0001    -0.055    -0.019    -0.018  0.4621  0.2934  0.8369
              Bcc     0.0013     0.688     0.246     0.230 -0.6665  0.7374  0.1095
 
              Baa    -0.0041    -2.175    -0.776    -0.726  0.6742  0.1571  0.7216
    32 H(1)   Bbb    -0.0004    -0.226    -0.081    -0.075 -0.5384 -0.5643  0.6258
              Bcc     0.0045     2.401     0.857     0.801 -0.5055  0.8105  0.2959
 
              Baa    -0.0183    -2.453    -0.875    -0.818 -0.6156  0.6838 -0.3917
    33 C(13)  Bbb     0.0051     0.678     0.242     0.226 -0.6288 -0.1267  0.7671
              Bcc     0.0132     1.775     0.633     0.592  0.4750  0.7186  0.5080
 
              Baa    -0.0274    -3.679    -1.313    -1.227 -0.1020  0.5865  0.8035
    34 C(13)  Bbb    -0.0239    -3.214    -1.147    -1.072  0.6496  0.6510 -0.3927
              Bcc     0.0514     6.893     2.460     2.299  0.7534 -0.4819  0.4474
 
              Baa    -0.0290    -3.893    -1.389    -1.298  0.7305  0.5483 -0.4071
    35 C(13)  Bbb    -0.0258    -3.455    -1.233    -1.153  0.0835  0.5199  0.8501
              Bcc     0.0548     7.348     2.622     2.451  0.6778 -0.6550  0.3340
 
              Baa    -0.0197    -2.639    -0.942    -0.880  0.5211 -0.5937  0.6131
    36 C(13)  Bbb     0.0087     1.164     0.415     0.388 -0.6963  0.1197  0.7077
              Bcc     0.0110     1.475     0.526     0.492  0.4936  0.7957  0.3511
 
              Baa    -0.0216    -2.894    -1.033    -0.965  0.5617 -0.5365  0.6297
    37 C(13)  Bbb     0.0094     1.266     0.452     0.422 -0.6179  0.2341  0.7506
              Bcc     0.0121     1.629     0.581     0.543  0.5501  0.8108  0.2001
 
              Baa    -0.0318    -4.270    -1.523    -1.424 -0.6788  0.2043  0.7054
    38 C(13)  Bbb    -0.0286    -3.838    -1.369    -1.280  0.5271  0.8043  0.2743
              Bcc     0.0604     8.107     2.893     2.704  0.5113 -0.5580  0.6536
 
              Baa    -0.0021    -1.134    -0.405    -0.378 -0.2516  0.8277 -0.5016
    39 H(1)   Bbb    -0.0011    -0.609    -0.217    -0.203  0.7578  0.4909  0.4299
              Bcc     0.0033     1.743     0.622     0.581 -0.6021  0.2719  0.7507
 
              Baa    -0.0023    -1.210    -0.432    -0.404  0.6026 -0.5177  0.6073
    40 H(1)   Bbb    -0.0008    -0.426    -0.152    -0.142  0.2674  0.8480  0.4576
              Bcc     0.0031     1.637     0.584     0.546  0.7519  0.1134 -0.6494
 
              Baa    -0.0011    -0.602    -0.215    -0.201 -0.5777  0.5868 -0.5674
    41 H(1)   Bbb     0.0001     0.075     0.027     0.025  0.7389  0.0808 -0.6689
              Bcc     0.0010     0.527     0.188     0.176  0.3467  0.8057  0.4802
 
              Baa    -0.0012    -0.633    -0.226    -0.211 -0.5856  0.6083 -0.5358
    42 H(1)   Bbb    -0.0001    -0.055    -0.019    -0.018 -0.4621  0.2926  0.8372
              Bcc     0.0013     0.688     0.245     0.229  0.6660  0.7378  0.1098
 
              Baa    -0.0041    -2.173    -0.775    -0.725 -0.6738  0.1566  0.7222
    43 H(1)   Bbb    -0.0004    -0.226    -0.081    -0.075  0.5390 -0.5643  0.6253
              Bcc     0.0045     2.399     0.856     0.800  0.5054  0.8106  0.2958
 
              Baa    -0.2538    -9.789    -3.493    -3.265 -0.0004  0.9478 -0.3189
    44 N(14)  Bbb    -0.2527    -9.745    -3.477    -3.251  1.0000  0.0004 -0.0001
              Bcc     0.5065    19.534     6.970     6.516 -0.0001  0.3189  0.9478
 
              Baa    -0.0183    -2.453    -0.875    -0.818  0.6155  0.6838  0.3919
    45 C(13)  Bbb     0.0051     0.679     0.242     0.226 -0.6288  0.1264  0.7672
              Bcc     0.0132     1.775     0.633     0.592 -0.4751  0.7187 -0.5077
 
              Baa    -0.0274    -3.679    -1.313    -1.227 -0.1020 -0.5866  0.8034
    46 C(13)  Bbb    -0.0239    -3.213    -1.147    -1.072 -0.6498  0.6508  0.3927
              Bcc     0.0514     6.892     2.459     2.299  0.7533  0.4820  0.4475
 
              Baa    -0.0290    -3.892    -1.389    -1.298  0.7306 -0.5481 -0.4071
    47 C(13)  Bbb    -0.0257    -3.455    -1.233    -1.152  0.0837 -0.5199  0.8501
              Bcc     0.0548     7.347     2.622     2.451  0.6776  0.6552  0.3340
 
              Baa    -0.0197    -2.638    -0.941    -0.880  0.5209  0.5939  0.6131
    48 C(13)  Bbb     0.0087     1.164     0.415     0.388 -0.6962 -0.1200  0.7077
              Bcc     0.0110     1.474     0.526     0.492 -0.4939  0.7955 -0.3510
 
              Baa    -0.0216    -2.894    -1.033    -0.965  0.5616  0.5367  0.6298
    49 C(13)  Bbb     0.0094     1.265     0.452     0.422 -0.6179 -0.2342  0.7506
              Bcc     0.0121     1.628     0.581     0.543 -0.5503  0.8106 -0.2001
 
              Baa    -0.0318    -4.269    -1.523    -1.424 -0.6787 -0.2045  0.7053
    50 C(13)  Bbb    -0.0286    -3.837    -1.369    -1.280 -0.5273  0.8042 -0.2743
              Bcc     0.0604     8.106     2.892     2.704  0.5111  0.5582  0.6536
 
              Baa    -0.0021    -1.134    -0.405    -0.378  0.2513  0.8278  0.5017
    51 H(1)   Bbb    -0.0011    -0.609    -0.217    -0.203  0.7577 -0.4907  0.4302
              Bcc     0.0033     1.743     0.622     0.581 -0.6022 -0.2720  0.7505
 
              Baa    -0.0023    -1.210    -0.432    -0.404  0.6024  0.5180  0.6073
    52 H(1)   Bbb    -0.0008    -0.426    -0.152    -0.142 -0.2676  0.8479 -0.4577
              Bcc     0.0031     1.636     0.584     0.546  0.7520 -0.1132 -0.6494
 
              Baa    -0.0011    -0.601    -0.215    -0.201  0.5775  0.5869  0.5674
    53 H(1)   Bbb     0.0001     0.075     0.027     0.025  0.7389 -0.0805 -0.6689
              Bcc     0.0010     0.527     0.188     0.176 -0.3470  0.8056 -0.4802
 
              Baa    -0.0012    -0.633    -0.226    -0.211  0.5854  0.6085  0.5358
    54 H(1)   Bbb    -0.0001    -0.055    -0.019    -0.018 -0.4621 -0.2927  0.8372
              Bcc     0.0013     0.688     0.245     0.229 -0.6662  0.7376 -0.1098
 
              Baa    -0.0041    -2.173    -0.775    -0.725 -0.6738 -0.1568  0.7221
    55 H(1)   Bbb    -0.0004    -0.226    -0.081    -0.075  0.5389  0.5644  0.6253
              Bcc     0.0045     2.399     0.856     0.800 -0.5056  0.8104 -0.2958
 
              Baa    -0.0183    -2.453    -0.875    -0.818 -0.6157  0.6839  0.3915
    56 C(13)  Bbb     0.0051     0.678     0.242     0.226  0.6287  0.1268  0.7673
              Bcc     0.0132     1.775     0.633     0.592  0.4751  0.7185 -0.5080
 
              Baa    -0.0274    -3.678    -1.312    -1.227  0.1019 -0.5864  0.8036
    57 C(13)  Bbb    -0.0239    -3.212    -1.146    -1.071  0.6495  0.6511  0.3927
              Bcc     0.0513     6.890     2.458     2.298  0.7535 -0.4819 -0.4472
 
              Baa    -0.0290    -3.891    -1.388    -1.298  0.7304  0.5483  0.4073
    58 C(13)  Bbb    -0.0257    -3.454    -1.232    -1.152 -0.0840 -0.5197  0.8502
              Bcc     0.0547     7.344     2.621     2.450  0.6778 -0.6552 -0.3336
 
              Baa    -0.0197    -2.637    -0.941    -0.880 -0.5212  0.5940  0.6129
    59 C(13)  Bbb     0.0087     1.163     0.415     0.388  0.6959 -0.1199  0.7080
              Bcc     0.0110     1.474     0.526     0.492  0.4940  0.7955 -0.3509
 
              Baa    -0.0216    -2.893    -1.032    -0.965 -0.5618  0.5367  0.6295
    60 C(13)  Bbb     0.0094     1.265     0.451     0.422  0.6179 -0.2337  0.7507
              Bcc     0.0121     1.628     0.581     0.543  0.5501  0.8107 -0.2003
 
              Baa    -0.0318    -4.267    -1.523    -1.423  0.6786 -0.2042  0.7056
    61 C(13)  Bbb    -0.0286    -3.835    -1.369    -1.279  0.5273  0.8042 -0.2744
              Bcc     0.0604     8.103     2.891     2.703 -0.5114  0.5582  0.6534
 
              Baa    -0.0021    -1.134    -0.405    -0.378 -0.2518  0.8276  0.5016
    62 H(1)   Bbb    -0.0011    -0.609    -0.217    -0.203  0.7575  0.4911 -0.4301
              Bcc     0.0033     1.743     0.622     0.581  0.6023 -0.2717  0.7506
 
              Baa    -0.0023    -1.210    -0.432    -0.404 -0.6025  0.5182  0.6070
    63 H(1)   Bbb    -0.0008    -0.425    -0.152    -0.142  0.2679  0.8477 -0.4578
              Bcc     0.0031     1.636     0.584     0.546  0.7518  0.1132  0.6496
 
              Baa    -0.0011    -0.601    -0.215    -0.201 -0.5778  0.5870  0.5671
    64 H(1)   Bbb     0.0001     0.075     0.027     0.025  0.7387  0.0804  0.6693
              Bcc     0.0010     0.527     0.188     0.176  0.3472  0.8056 -0.4801
 
              Baa    -0.0012    -0.633    -0.226    -0.211 -0.5856  0.6085  0.5355
    65 H(1)   Bbb    -0.0001    -0.055    -0.019    -0.018  0.4620 -0.2923  0.8373
              Bcc     0.0013     0.688     0.245     0.229  0.6660  0.7378 -0.1100
 
              Baa    -0.0041    -2.172    -0.775    -0.724  0.6736 -0.1565  0.7223
    66 H(1)   Bbb    -0.0004    -0.226    -0.081    -0.075 -0.5391  0.5645  0.6251
              Bcc     0.0045     2.398     0.856     0.800  0.5056  0.8105 -0.2959
 

 ---------------------------------------------------------------------------------

 No NMR shielding tensors so no spin-rotation constants.
 Leave Link  601 at Mon Jan 18 05:06:22 2021, MaxMem=  4026531840 cpu:               9.3 elap:               1.2
 (Enter /opt/ohpc/pub/libs/gaussian/g16-A.03/sandybridge/g16/l9999.exe)

 Test job not archived.
 1\1\GINC-CASCADEB019\SP\ULC-wHPBE\TZVP\C36H28N2(1+,2)\RDU230\18-Jan-20
 21\0\\#P LC-wHPBE/TZVP iop(3/107=0177700000, 3/108=0177700000) scf=(co
 nver=6,fermi,ndamp=35,noincfock,novaracc,vshift=500,xqc)\\H28 C36 N2\\
 1,2\C,0,2.849999,-1.125861,0.415638\C,0,3.563139,-0.000026,-0.000017\C
 ,0,1.464492,-1.123667,0.405534\C,0,2.850033,1.125752,-0.415809\C,0,0.7
 41288,-0.000047,-0.000195\C,0,1.464504,1.123547,-0.405879\H,0,0.931596
 ,-2.005844,0.756198\H,0,3.391048,2.006254,-0.75499\H,0,0.931669,2.0057
 28,-0.756629\C,0,-0.741437,-0.000073,-0.000217\C,0,-1.464635,1.123165,
 0.406556\C,0,-1.464638,-1.123302,-0.406976\C,0,-2.850149,1.125343,0.41
 661\C,0,-2.850163,-1.125491,-0.416935\C,0,-3.563257,-0.000095,-0.00011
 6\H,0,-0.931751,2.005025,0.758038\H,0,-0.931783,-2.00514,-0.758553\H,0
 ,-3.391193,2.005527,0.756576\H,0,-3.391211,-2.005669,-0.756913\H,0,3.3
 91005,-2.006357,0.754845\N,0,-4.97843,-0.000102,-0.000065\C,0,-5.68709
 9,-1.154578,0.414287\C,0,-6.831881,-1.566674,-0.27115\C,0,-5.251323,-1
 .896933,1.513908\C,0,-7.528311,-2.692826,0.143324\C,0,-5.943392,-3.032
 223,1.91044\C,0,-7.087522,-3.435368,1.232277\H,0,-7.173684,-0.995181,-
 1.131117\H,0,-4.363437,-1.577947,2.055099\H,0,-8.419174,-2.999763,-0.4
 0155\H,0,-5.58986,-3.599797,2.769285\H,0,-7.631852,-4.321852,1.550225\
 C,0,-5.687025,1.154532,-0.414292\C,0,-6.831191,1.567225,0.271802\C,0,-
 5.251707,1.896381,-1.514415\C,0,-7.527485,2.693516,-0.142525\C,0,-5.94
 362,3.031828,-1.910808\C,0,-7.087137,3.435581,-1.231989\H,0,-7.172616,
 0.996083,1.132151\H,0,-4.364291,1.57691,-2.056093\H,0,-8.417875,3.0009
 45,0.402845\H,0,-5.590451,3.599029,-2.77005\H,0,-7.63135,4.322181,-1.5
 49815\N,0,4.978266,0.00002,0.000103\C,0,5.68699,1.154558,0.414335\C,0,
 6.831289,1.56698,-0.271699\C,0,5.251761,1.896543,1.51441\C,0,7.527834,
 2.693112,0.142653\C,0,5.943923,3.031822,1.910819\C,0,7.08759,3.435293,
 1.232069\H,0,7.172649,0.995729,-1.132\H,0,4.364233,1.577285,2.056034\H
 ,0,8.418333,3.000297,-0.402674\H,0,5.59085,3.599137,2.770027\H,0,7.631
 979,4.321768,1.549941\C,0,5.687017,-1.154516,-0.414141\C,0,6.831068,-1
 .567191,0.272109\C,0,5.251977,-1.896199,-1.514492\C,0,7.527566,-2.6933
 48,-0.142281\C,0,5.944079,-3.031486,-1.910953\C,0,7.087509,-3.435246,-
 1.231958\H,0,7.172277,-0.996155,1.132614\H,0,4.364636,-1.576682,-2.056
 275\H,0,8.417864,-3.000787,0.403227\H,0,5.591165,-3.598572,-2.770374\H
 ,0,7.631874,-4.32173,-1.549857\\Version=EM64L-G16RevA.03\State=2-A\HF=
 -1496.9664856\S2=0.77202\S2-1=0.\S2A=0.75028\RMSD=8.061e-07\Dipole=0.0
 001856,0.0000985,-0.0000486\Quadrupole=73.1468367,-24.0400544,-49.1067
 823,-0.004603,-0.0004106,0.0025397\PG=C01 [X(C36H28N2)]\\@


 THERE IS NOTHING NOBLE IN BEING SUPERIOR TO SOME OTHER MAN.
 TRUE NOBILITY IS BEING SUPERIOR TO YOUR FORMER SELF.

                                                   -- HINDU PROVERB
 Job cpu time:       0 days  4 hours  3 minutes 37.9 seconds.
 Elapsed time:       0 days  0 hours 30 minutes 48.9 seconds.
 File lengths (MBytes):  RWF=    428 Int=      0 D2E=      0 Chk=     60 Scr=      8
 Normal termination of Gaussian 16 at Mon Jan 18 05:06:22 2021.
