 Entering Gaussian System, Link 0=g16
 Input=mol_ta_ma_whol_tune_n3.gjf
 Output=mol_ta_ma_whol_tune_n3.log
 Initial command:
 /opt/ohpc/pub/libs/gaussian/g16-A.03/sandybridge/g16/l1.exe "/mnt/gpfs2_4m/scratch/rdu230/ondemand/projects/init_structures/wtuning/mol_ta_ma_whol/tuning_mol_ta_ma_whol_ocycle0/Gau-72709.inp" -scrdir="/mnt/gpfs2_4m/scratch/rdu230/ondemand/projects/init_structures/wtuning/mol_ta_ma_whol/tuning_mol_ta_ma_whol_ocycle0/"
 Entering Link 1 = /opt/ohpc/pub/libs/gaussian/g16-A.03/sandybridge/g16/l1.exe PID=     72710.
  
 Copyright (c) 1988,1990,1992,1993,1995,1998,2003,2009,2016,
            Gaussian, Inc.  All Rights Reserved.
  
 This is part of the Gaussian(R) 16 program.  It is based on
 the Gaussian(R) 09 system (copyright 2009, Gaussian, Inc.),
 the Gaussian(R) 03 system (copyright 2003, Gaussian, Inc.),
 the Gaussian(R) 98 system (copyright 1998, Gaussian, Inc.),
 the Gaussian(R) 94 system (copyright 1995, Gaussian, Inc.),
 the Gaussian 92(TM) system (copyright 1992, Gaussian, Inc.),
 the Gaussian 90(TM) system (copyright 1990, Gaussian, Inc.),
 the Gaussian 88(TM) system (copyright 1988, Gaussian, Inc.),
 the Gaussian 86(TM) system (copyright 1986, Carnegie Mellon
 University), and the Gaussian 82(TM) system (copyright 1983,
 Carnegie Mellon University). Gaussian is a federally registered
 trademark of Gaussian, Inc.
  
 This software contains proprietary and confidential information,
 including trade secrets, belonging to Gaussian, Inc.
  
 This software is provided under written license and may be
 used, copied, transmitted, or stored only in accord with that
 written license.
  
 The following legend is applicable only to US Government
 contracts under FAR:
  
                    RESTRICTED RIGHTS LEGEND
  
 Use, reproduction and disclosure by the US Government is
 subject to restrictions as set forth in subparagraphs (a)
 and (c) of the Commercial Computer Software - Restricted
 Rights clause in FAR 52.227-19.
  
 Gaussian, Inc.
 340 Quinnipiac St., Bldg. 40, Wallingford CT 06492
  
  
 ---------------------------------------------------------------
 Warning -- This program may not be used in any manner that
 competes with the business of Gaussian, Inc. or will provide
 assistance to any competitor of Gaussian, Inc.  The licensee
 of this program is prohibited from giving any competitor of
 Gaussian, Inc. access to this program.  By using this program,
 the user acknowledges that Gaussian, Inc. is engaged in the
 business of creating and licensing software in the field of
 computational chemistry and represents and warrants to the
 licensee that it is not a competitor of Gaussian, Inc. and that
 it will not use this program in any manner prohibited above.
 ---------------------------------------------------------------
  

 Cite this work as:
 Gaussian 16, Revision A.03,
 M. J. Frisch, G. W. Trucks, H. B. Schlegel, G. E. Scuseria, 
 M. A. Robb, J. R. Cheeseman, G. Scalmani, V. Barone, 
 G. A. Petersson, H. Nakatsuji, X. Li, M. Caricato, A. V. Marenich, 
 J. Bloino, B. G. Janesko, R. Gomperts, B. Mennucci, H. P. Hratchian, 
 J. V. Ortiz, A. F. Izmaylov, J. L. Sonnenberg, D. Williams-Young, 
 F. Ding, F. Lipparini, F. Egidi, J. Goings, B. Peng, A. Petrone, 
 T. Henderson, D. Ranasinghe, V. G. Zakrzewski, J. Gao, N. Rega, 
 G. Zheng, W. Liang, M. Hada, M. Ehara, K. Toyota, R. Fukuda, 
 J. Hasegawa, M. Ishida, T. Nakajima, Y. Honda, O. Kitao, H. Nakai, 
 T. Vreven, K. Throssell, J. A. Montgomery, Jr., J. E. Peralta, 
 F. Ogliaro, M. J. Bearpark, J. J. Heyd, E. N. Brothers, K. N. Kudin, 
 V. N. Staroverov, T. A. Keith, R. Kobayashi, J. Normand, 
 K. Raghavachari, A. P. Rendell, J. C. Burant, S. S. Iyengar, 
 J. Tomasi, M. Cossi, J. M. Millam, M. Klene, C. Adamo, R. Cammi, 
 J. W. Ochterski, R. L. Martin, K. Morokuma, O. Farkas, 
 J. B. Foresman, and D. J. Fox, Gaussian, Inc., Wallingford CT, 2016.
 
 ******************************************
 Gaussian 16:  EM64L-G16RevA.03 25-Dec-2016
                21-Jan-2021 
 ******************************************
 %mem=30GB
 %nproc=8
 Will use up to    8 processors via shared memory.
 ----------------------------------------------------------------------
 #P LC-wHPBE/TZVP iop(3/107=0115700000, 3/108=0115700000) scf=(conver=6
 ,fermi,ndamp=35,noincfock,novaracc,vshift=500,xqc)
 ----------------------------------------------------------------------
 1/38=1,172=1/1;
 2/12=2,17=6,18=5,40=1/2;
 3/5=19,7=101,11=2,25=1,30=1,74=-71,107=115700000,108=115700000/1,2,3;
 4//1;
 5/5=100002,6=6,8=3,10=500,13=1,18=-1,22=13,38=1,93=35/2,8;
 6/7=2,8=2,9=2,10=2,28=1/1;
 99/5=1,9=1/99;
 Leave Link    1 at Thu Jan 21 14:27:38 2021, MaxMem=  4026531840 cpu:               1.1 elap:               0.2
 (Enter /opt/ohpc/pub/libs/gaussian/g16-A.03/sandybridge/g16/l101.exe)
 ----------------
 H28 C36 S2 N2 O4
 ----------------
 Symbolic Z-matrix:
 Charge =  0 Multiplicity = 1
 C                    -1.74893  -0.48991   0.45205 
 C                    -0.62617  -1.27976   0.15257 
 S                     1.95275  -5.38863   0.81244 
 C                    -0.88231  -2.17007  -0.82073 
 C                     1.93271  -2.89727  -0.47654 
 C                     2.56651  -3.76144   0.41855 
 C                    -2.97535  -0.63196  -0.1958 
 C                    -2.04907  -2.38689  -1.54596 
 H                     0.24632  -4.4688   -0.58608 
 C                     2.3844   -1.61382  -0.70002 
 C                     3.67389  -3.2695    1.09548 
 C                     4.13591  -1.9848    0.8939 
 C                     3.4945   -1.12546  -0.00298 
 H                     1.85727  -0.97113  -1.39535 
 H                     4.17633  -3.91217   1.81179 
 H                     4.99298  -1.63215   1.45672 
 C                    -3.12247  -1.59022  -1.21061 
 H                    -1.68827   0.27673   1.22609 
 H                     2.539    -6.05112  -0.20625 
 H                    -2.13255  -3.12015  -2.34715 
 H                    -4.06824  -1.68817  -1.73412 
 S                     0.49142  -3.39136  -1.37893 
 N                     3.94002   0.17584  -0.19521 
 C                     5.26504   0.53915   0.18455 
 C                     5.4794    1.52009   1.14789 
 C                     6.36005  -0.06867  -0.41291 
 C                     6.76145   1.88905   1.50578 
 C                     7.64921   0.28069  -0.04453 
 C                     7.85273   1.26556   0.91321 
 H                     4.62413   2.00223   1.61256 
 H                     6.19883  -0.83008  -1.17092 
 H                     6.93636   2.65609   2.25345 
 H                     8.4991   -0.2066   -0.51822 
 C                     3.06788   1.2178   -0.62497 
 C                     3.53317   2.17567  -1.51664 
 C                     1.76843   1.32435  -0.1336 
 C                     2.72389   3.23089  -1.90464 
 C                     0.95203   2.36364  -0.537 
 C                     1.42913   3.32613  -1.41517 
 H                     4.54576   2.10296  -1.90238 
 H                     1.36426   0.56676   0.53491 
 H                     3.10649   3.97813  -2.5973 
 H                    -0.06364   2.43711  -0.16248 
 N                    -4.07158   0.19929   0.13789 
 C                    -5.37966  -0.33076   0.1925 
 C                    -6.46407   0.38186  -0.30812 
 C                    -5.6159   -1.58378   0.75848 
 C                    -7.74803  -0.13541  -0.23737 
 C                    -6.89074  -2.11387   0.80878 
 C                    -7.96633  -1.38872   0.31473 
 H                    -6.30118   1.35925  -0.7522 
 H                    -4.77999  -2.14815   1.16092 
 H                    -8.58276   0.44229  -0.63053 
 H                    -7.07135  -3.09018   1.24785 
 C                    -3.86307   1.57986   0.373 
 C                    -4.4883    2.22833   1.436 
 C                    -3.028     2.32052  -0.45569 
 C                    -4.28852   3.5775    1.66229 
 C                    -2.80216   3.6666   -0.21896 
 C                    -3.43522   4.30069   0.84052 
 H                    -5.14118   1.66175   2.09352 
 H                    -2.53359   1.82899  -1.28837 
 H                    -4.77415   4.08178   2.49202 
 H                    -2.12566   4.22018  -0.86772 
 O                     0.58459   4.34391  -1.76917 
 H                     1.03059   4.92017  -2.39978 
 O                     9.09526   1.66145   1.30836 
 H                     9.76322   1.15951   0.82796 
 O                    -9.20972  -1.95354   0.4003 
 H                    -9.85952  -1.34706   0.02865 
 O                    -3.25401   5.62795   1.11675 
 H                    -2.60943   5.99136   0.49935 
 
 ITRead=  0  0  0  0  0  0  0  0  0  0  0  0  0  0  0  0  0  0  0  0
 ITRead=  0  0  0  0  0  0  0  0  0  0  0  0  0  0  0  0  0  0  0  0
 ITRead=  0  0  0  0  0  0  0  0  0  0  0  0  0  0  0  0  0  0  0  0
 ITRead=  0  0  0  0  0  0  0  0  0  0  0  0
 MicOpt= -1 -1 -1 -1 -1 -1 -1 -1 -1 -1 -1 -1 -1 -1 -1 -1 -1 -1 -1 -1
 MicOpt= -1 -1 -1 -1 -1 -1 -1 -1 -1 -1 -1 -1 -1 -1 -1 -1 -1 -1 -1 -1
 MicOpt= -1 -1 -1 -1 -1 -1 -1 -1 -1 -1 -1 -1 -1 -1 -1 -1 -1 -1 -1 -1
 MicOpt= -1 -1 -1 -1 -1 -1 -1 -1 -1 -1 -1 -1
 NAtoms=     72 NQM=       72 NQMF=       0 NMMI=      0 NMMIF=      0
                NMic=       0 NMicF=      0.
                    Isotopes and Nuclear Properties:
 (Nuclear quadrupole moments (NQMom) in fm**2, nuclear magnetic moments (NMagM)
  in nuclear magnetons)

  Atom         1           2           3           4           5           6           7           8           9          10
 IAtWgt=          12          12          32          12          12          12          12          12           1          12
 AtmWgt=  12.0000000  12.0000000  31.9720718  12.0000000  12.0000000  12.0000000  12.0000000  12.0000000   1.0078250  12.0000000
 NucSpn=           0           0           0           0           0           0           0           0           1           0
 AtZEff=  -0.0000000  -0.0000000  -0.0000000  -0.0000000  -0.0000000  -0.0000000  -0.0000000  -0.0000000  -0.0000000  -0.0000000
 NQMom=    0.0000000   0.0000000   0.0000000   0.0000000   0.0000000   0.0000000   0.0000000   0.0000000   0.0000000   0.0000000
 NMagM=    0.0000000   0.0000000   0.0000000   0.0000000   0.0000000   0.0000000   0.0000000   0.0000000   2.7928460   0.0000000
 AtZNuc=   6.0000000   6.0000000  16.0000000   6.0000000   6.0000000   6.0000000   6.0000000   6.0000000   1.0000000   6.0000000

  Atom        11          12          13          14          15          16          17          18          19          20
 IAtWgt=          12          12          12           1           1           1          12           1           1           1
 AtmWgt=  12.0000000  12.0000000  12.0000000   1.0078250   1.0078250   1.0078250  12.0000000   1.0078250   1.0078250   1.0078250
 NucSpn=           0           0           0           1           1           1           0           1           1           1
 AtZEff=  -0.0000000  -0.0000000  -0.0000000  -0.0000000  -0.0000000  -0.0000000  -0.0000000  -0.0000000  -0.0000000  -0.0000000
 NQMom=    0.0000000   0.0000000   0.0000000   0.0000000   0.0000000   0.0000000   0.0000000   0.0000000   0.0000000   0.0000000
 NMagM=    0.0000000   0.0000000   0.0000000   2.7928460   2.7928460   2.7928460   0.0000000   2.7928460   2.7928460   2.7928460
 AtZNuc=   6.0000000   6.0000000   6.0000000   1.0000000   1.0000000   1.0000000   6.0000000   1.0000000   1.0000000   1.0000000

  Atom        21          22          23          24          25          26          27          28          29          30
 IAtWgt=           1          32          14          12          12          12          12          12          12           1
 AtmWgt=   1.0078250  31.9720718  14.0030740  12.0000000  12.0000000  12.0000000  12.0000000  12.0000000  12.0000000   1.0078250
 NucSpn=           1           0           2           0           0           0           0           0           0           1
 AtZEff=  -0.0000000  -0.0000000  -0.0000000  -0.0000000  -0.0000000  -0.0000000  -0.0000000  -0.0000000  -0.0000000  -0.0000000
 NQMom=    0.0000000   0.0000000   2.0440000   0.0000000   0.0000000   0.0000000   0.0000000   0.0000000   0.0000000   0.0000000
 NMagM=    2.7928460   0.0000000   0.4037610   0.0000000   0.0000000   0.0000000   0.0000000   0.0000000   0.0000000   2.7928460
 AtZNuc=   1.0000000  16.0000000   7.0000000   6.0000000   6.0000000   6.0000000   6.0000000   6.0000000   6.0000000   1.0000000

  Atom        31          32          33          34          35          36          37          38          39          40
 IAtWgt=           1           1           1          12          12          12          12          12          12           1
 AtmWgt=   1.0078250   1.0078250   1.0078250  12.0000000  12.0000000  12.0000000  12.0000000  12.0000000  12.0000000   1.0078250
 NucSpn=           1           1           1           0           0           0           0           0           0           1
 AtZEff=  -0.0000000  -0.0000000  -0.0000000  -0.0000000  -0.0000000  -0.0000000  -0.0000000  -0.0000000  -0.0000000  -0.0000000
 NQMom=    0.0000000   0.0000000   0.0000000   0.0000000   0.0000000   0.0000000   0.0000000   0.0000000   0.0000000   0.0000000
 NMagM=    2.7928460   2.7928460   2.7928460   0.0000000   0.0000000   0.0000000   0.0000000   0.0000000   0.0000000   2.7928460
 AtZNuc=   1.0000000   1.0000000   1.0000000   6.0000000   6.0000000   6.0000000   6.0000000   6.0000000   6.0000000   1.0000000

  Atom        41          42          43          44          45          46          47          48          49          50
 IAtWgt=           1           1           1          14          12          12          12          12          12          12
 AtmWgt=   1.0078250   1.0078250   1.0078250  14.0030740  12.0000000  12.0000000  12.0000000  12.0000000  12.0000000  12.0000000
 NucSpn=           1           1           1           2           0           0           0           0           0           0
 AtZEff=  -0.0000000  -0.0000000  -0.0000000  -0.0000000  -0.0000000  -0.0000000  -0.0000000  -0.0000000  -0.0000000  -0.0000000
 NQMom=    0.0000000   0.0000000   0.0000000   2.0440000   0.0000000   0.0000000   0.0000000   0.0000000   0.0000000   0.0000000
 NMagM=    2.7928460   2.7928460   2.7928460   0.4037610   0.0000000   0.0000000   0.0000000   0.0000000   0.0000000   0.0000000
 AtZNuc=   1.0000000   1.0000000   1.0000000   7.0000000   6.0000000   6.0000000   6.0000000   6.0000000   6.0000000   6.0000000

  Atom        51          52          53          54          55          56          57          58          59          60
 IAtWgt=           1           1           1           1          12          12          12          12          12          12
 AtmWgt=   1.0078250   1.0078250   1.0078250   1.0078250  12.0000000  12.0000000  12.0000000  12.0000000  12.0000000  12.0000000
 NucSpn=           1           1           1           1           0           0           0           0           0           0
 AtZEff=  -0.0000000  -0.0000000  -0.0000000  -0.0000000  -0.0000000  -0.0000000  -0.0000000  -0.0000000  -0.0000000  -0.0000000
 NQMom=    0.0000000   0.0000000   0.0000000   0.0000000   0.0000000   0.0000000   0.0000000   0.0000000   0.0000000   0.0000000
 NMagM=    2.7928460   2.7928460   2.7928460   2.7928460   0.0000000   0.0000000   0.0000000   0.0000000   0.0000000   0.0000000
 AtZNuc=   1.0000000   1.0000000   1.0000000   1.0000000   6.0000000   6.0000000   6.0000000   6.0000000   6.0000000   6.0000000

  Atom        61          62          63          64          65          66          67          68          69          70
 IAtWgt=           1           1           1           1          16           1          16           1          16           1
 AtmWgt=   1.0078250   1.0078250   1.0078250   1.0078250  15.9949146   1.0078250  15.9949146   1.0078250  15.9949146   1.0078250
 NucSpn=           1           1           1           1           0           1           0           1           0           1
 AtZEff=  -0.0000000  -0.0000000  -0.0000000  -0.0000000  -0.0000000  -0.0000000  -0.0000000  -0.0000000  -0.0000000  -0.0000000
 NQMom=    0.0000000   0.0000000   0.0000000   0.0000000   0.0000000   0.0000000   0.0000000   0.0000000   0.0000000   0.0000000
 NMagM=    2.7928460   2.7928460   2.7928460   2.7928460   0.0000000   2.7928460   0.0000000   2.7928460   0.0000000   2.7928460
 AtZNuc=   1.0000000   1.0000000   1.0000000   1.0000000   8.0000000   1.0000000   8.0000000   1.0000000   8.0000000   1.0000000

  Atom        71          72
 IAtWgt=          16           1
 AtmWgt=  15.9949146   1.0078250
 NucSpn=           0           1
 AtZEff=  -0.0000000  -0.0000000
 NQMom=    0.0000000   0.0000000
 NMagM=    0.0000000   2.7928460
 AtZNuc=   8.0000000   1.0000000
 Leave Link  101 at Thu Jan 21 14:27:38 2021, MaxMem=  4026531840 cpu:               0.7 elap:               0.1
 (Enter /opt/ohpc/pub/libs/gaussian/g16-A.03/sandybridge/g16/l202.exe)
 Stoichiometry    C36H28N2O4S2
 Framework group  C1[X(C36H28N2O4S2)]
 Deg. of freedom   210
 Full point group                 C1      NOp   1
 Largest Abelian subgroup         C1      NOp   1
 Largest concise Abelian subgroup C1      NOp   1
                         Standard orientation:                         
 ---------------------------------------------------------------------
 Center     Atomic      Atomic             Coordinates (Angstroms)
 Number     Number       Type             X           Y           Z
 ---------------------------------------------------------------------
      1          6           0       -1.748928    0.489907   -0.452051
      2          6           0       -0.626174    1.279763   -0.152570
      3         16           0        1.952753    5.388628   -0.812439
      4          6           0       -0.882312    2.170069    0.820725
      5          6           0        1.932708    2.897266    0.476539
      6          6           0        2.566514    3.761438   -0.418550
      7          6           0       -2.975354    0.631957    0.195801
      8          6           0       -2.049066    2.386893    1.545961
      9          1           0        0.246316    4.468801    0.586079
     10          6           0        2.384401    1.613824    0.700024
     11          6           0        3.673888    3.269502   -1.095477
     12          6           0        4.135912    1.984797   -0.893895
     13          6           0        3.494497    1.125461    0.002977
     14          1           0        1.857267    0.971131    1.395345
     15          1           0        4.176334    3.912174   -1.811785
     16          1           0        4.992977    1.632150   -1.456718
     17          6           0       -3.122467    1.590215    1.210611
     18          1           0       -1.688273   -0.276733   -1.226088
     19          1           0        2.539000    6.051116    0.206249
     20          1           0       -2.132551    3.120151    2.347153
     21          1           0       -4.068236    1.688167    1.734116
     22         16           0        0.491419    3.391365    1.378930
     23          7           0        3.940024   -0.175839    0.195205
     24          6           0        5.265040   -0.539150   -0.184549
     25          6           0        5.479402   -1.520085   -1.147894
     26          6           0        6.360048    0.068673    0.412912
     27          6           0        6.761446   -1.889048   -1.505778
     28          6           0        7.649207   -0.280692    0.044528
     29          6           0        7.852726   -1.265560   -0.913210
     30          1           0        4.624132   -2.002234   -1.612555
     31          1           0        6.198832    0.830082    1.170918
     32          1           0        6.936355   -2.656092   -2.253454
     33          1           0        8.499101    0.206598    0.518215
     34          6           0        3.067884   -1.217797    0.624973
     35          6           0        3.533169   -2.175669    1.516644
     36          6           0        1.768428   -1.324352    0.133595
     37          6           0        2.723890   -3.230889    1.904642
     38          6           0        0.952027   -2.363639    0.537000
     39          6           0        1.429133   -3.326131    1.415171
     40          1           0        4.545758   -2.102962    1.902377
     41          1           0        1.364259   -0.566763   -0.534909
     42          1           0        3.106488   -3.978127    2.597301
     43          1           0       -0.063643   -2.437107    0.162477
     44          7           0       -4.071583   -0.199288   -0.137893
     45          6           0       -5.379657    0.330758   -0.192504
     46          6           0       -6.464072   -0.381862    0.308117
     47          6           0       -5.615898    1.583782   -0.758482
     48          6           0       -7.748035    0.135409    0.237366
     49          6           0       -6.890741    2.113870   -0.808775
     50          6           0       -7.966332    1.388715   -0.314728
     51          1           0       -6.301182   -1.359246    0.752201
     52          1           0       -4.779992    2.148147   -1.160920
     53          1           0       -8.582756   -0.442294    0.630527
     54          1           0       -7.071352    3.090185   -1.247847
     55          6           0       -3.863071   -1.579858   -0.373004
     56          6           0       -4.488297   -2.228332   -1.435995
     57          6           0       -3.028002   -2.320518    0.455690
     58          6           0       -4.288516   -3.577498   -1.662294
     59          6           0       -2.802155   -3.666597    0.218956
     60          6           0       -3.435225   -4.300687   -0.840523
     61          1           0       -5.141183   -1.661753   -2.093518
     62          1           0       -2.533592   -1.828985    1.288374
     63          1           0       -4.774148   -4.081779   -2.492022
     64          1           0       -2.125658   -4.220184    0.867724
     65          8           0        0.584592   -4.343911    1.769173
     66          1           0        1.030590   -4.920168    2.399784
     67          8           0        9.095256   -1.661445   -1.308356
     68          1           0        9.763222   -1.159512   -0.827959
     69          8           0       -9.209724    1.953542   -0.400297
     70          1           0       -9.859516    1.347058   -0.028653
     71          8           0       -3.254007   -5.627948   -1.116747
     72          1           0       -2.609433   -5.991357   -0.499352
 ---------------------------------------------------------------------
 Rotational constants (GHZ):           0.1003685           0.0370235           0.0288534
 Leave Link  202 at Thu Jan 21 14:27:38 2021, MaxMem=  4026531840 cpu:               0.2 elap:               0.0
 (Enter /opt/ohpc/pub/libs/gaussian/g16-A.03/sandybridge/g16/l301.exe)
 Standard basis: TZVP (5D, 7F)
 Ernie: Thresh=  0.10000D-02 Tol=  0.10000D-05 Strict=F.
 There are  1054 symmetry adapted cartesian basis functions of A   symmetry.
 There are  1010 symmetry adapted basis functions of A   symmetry.
  1010 basis functions,  1788 primitive gaussians,  1054 cartesian basis functions
   161 alpha electrons      161 beta electrons
       nuclear repulsion energy      5277.7236652844 Hartrees.
 IExCor=33909 DFT=T Ex+Corr=LC-wHPBE ExCW=0 ScaHFX=  1.000000
 ScaDFX=  1.000000  1.000000  1.000000  1.000000 ScalE2=  1.000000  1.000000
 IRadAn=      5 IRanWt=     -1 IRanGd=            0 ICorTp=0 IEmpDi=  4
 HFx  wShort=  0.000000 wLong=  0.115700 cFull=  0.000000 cShort=  0.000000 cLong=  1.000000
 DFx  wShort=  0.000000 wLong=  0.115700 cFull=  0.000000 cShort=  1.000000 cLong=  0.000000
 NAtoms=   72 NActive=   72 NUniq=   72 SFac= 1.00D+00 NAtFMM=   60 NAOKFM=T Big=T
 Integral buffers will be    131072 words long.
 Raffenetti 2 integral format.
 Two-electron integral symmetry is turned on.
 Leave Link  301 at Thu Jan 21 14:27:38 2021, MaxMem=  4026531840 cpu:               0.3 elap:               0.1
 (Enter /opt/ohpc/pub/libs/gaussian/g16-A.03/sandybridge/g16/l302.exe)
 NPDir=0 NMtPBC=     1 NCelOv=     1 NCel=       1 NClECP=     1 NCelD=      1
         NCelK=      1 NCelE2=     1 NClLst=     1 CellRange=     0.0.
 One-electron integrals computed using PRISM.
 One-electron integral symmetry used in STVInt
 NBasis=  1010 RedAO= T EigKep=  6.33D-06  NBF=  1010
 NBsUse=  1010 1.00D-06 EigRej= -1.00D+00 NBFU=  1010
 Precomputing XC quadrature grid using
 IXCGrd= 4 IRadAn=           5 IRanWt=          -1 IRanGd=           0 AccXCQ= 0.00D+00.
 Generated NRdTot=       0 NPtTot=           0 NUsed=           0 NTot=          32
 NSgBfM=   960   960   960   960   960 MxSgAt=    72 MxSgA2=    72.
 Leave Link  302 at Thu Jan 21 14:27:47 2021, MaxMem=  4026531840 cpu:              46.0 elap:               9.3
 (Enter /opt/ohpc/pub/libs/gaussian/g16-A.03/sandybridge/g16/l303.exe)
 DipDrv:  MaxL=1.
 Leave Link  303 at Thu Jan 21 14:27:47 2021, MaxMem=  4026531840 cpu:               1.6 elap:               0.3
 (Enter /opt/ohpc/pub/libs/gaussian/g16-A.03/sandybridge/g16/l401.exe)
 ExpMin= 9.52D-02 ExpMax= 6.07D+04 ExpMxC= 2.07D+03 IAcc=3 IRadAn=         5 AccDes= 0.00D+00
 Harris functional with IExCor=33909 and IRadAn=       5 diagonalized for initial guess.
 HarFok:  IExCor=33909 AccDes= 0.00D+00 IRadAn=         5 IDoV= 1 UseB2=F ITyADJ=14
 ICtDFT=  3500011 ScaDFX=  1.000000  1.000000  1.000000  1.000000
 FoFCou: FMM=F IPFlag=           0 FMFlag=      100000 FMFlg1=        2001
         NFxFlg=           0 DoJE=T BraDBF=F KetDBF=T FulRan=T
         wScrn=  0.000000 ICntrl=       500 IOpCl=  0 I1Cent=   200000004 NGrid=           0
         NMat0=    1 NMatS0=      1 NMatT0=    0 NMatD0=    1 NMtDS0=    0 NMtDT0=    0
 Petite list used in FoFCou.
 Harris En= -2573.66391441241    
 JPrj=0 DoOrth=F DoCkMO=F.
 Leave Link  401 at Thu Jan 21 14:28:01 2021, MaxMem=  4026531840 cpu:             107.9 elap:              13.6
 (Enter /opt/ohpc/pub/libs/gaussian/g16-A.03/sandybridge/g16/l502.exe)
 Integral symmetry usage will be decided dynamically.
 Closed shell SCF:
 Using DIIS extrapolation, IDIIS=    10.
 NGot=  4026531840 LenX=  4024291472 LenY=  4023179502
 Requested convergence on RMS density matrix=1.00D-06 within  32 cycles.
 Requested convergence on MAX density matrix=1.00D-04.
 Requested convergence on             energy=1.00D-04.
 Virtual orbitals will be shifted by   0.500 hartree.
 No special actions if energy rises.
 Dynamic level shift is on during FON iterations.

 Cycle   1  Pass 1  IDiag  1:
 FoFJK:  IHMeth= 1 ICntrl=       0 DoSepK=T KAlg= 0 I1Cent=           0 FoldK=F
 IRaf=         1 NMat=       1 IRICut=       1 DoRegI=T DoRafI=F ISym2E= 0 IDoP0=0 IntGTp=1.
 FoFCou: FMM=T IPFlag=           0 FMFlag=      100000 FMFlg1=        2001
         NFxFlg=           0 DoJE=T BraDBF=F KetDBF=F FulRan=T
         wScrn=  0.000000 ICntrl=       500 IOpCl=  0 I1Cent=           0 NGrid=           0
         NMat0=    1 NMatS0=      1 NMatT0=    0 NMatD0=    1 NMtDS0=    0 NMtDT0=    0
 Symmetry not used in FoFCou.
 FMM levels:  10  Number of levels for PrismC:   9
 E= -2592.85275420156    
 DIIS: error= 1.98D-02 at cycle   1 NSaved=   1.
 NSaved= 1 IEnMin= 1 EnMin= -2592.85275420156     IErMin= 1 ErrMin= 1.98D-02
 ErrMax= 1.98D-02  0.00D+00 EMaxC= 1.00D+00 BMatC= 9.68D-01 BMatP= 9.68D-01
 IDIUse=1 WtCom= 1.00D+00 WtEn= 0.00D+00
 Coeff-Com:  0.100D+01
 Coeff:      0.100D+01
 Gap=     0.348 Goal=   None    Shift=    0.500
 T= 1246. Gap= 0.391 NK=0 IS=  162 IE= 1010 IFin=  161
          NO(<0.9)=   0  NV(>0.1)=   0    161.00e < EF      0.00e >EF  Err=0.0D+00
 GapD=    0.348 DampG=1.000 DampE=0.500 DampFc=0.5000 IDamp=-1.
 Damping current iteration by 5.00D-01
 RMSDP=3.70D-03 MaxDP=5.43D-01              OVMax= 1.56D-01

 Cycle   2  Pass 1  IDiag  1:
 E= -2593.47002849320     Delta-E=       -0.617274291638 Rises=F Damp=T
 DIIS: error= 7.76D-03 at cycle   2 NSaved=   2.
 NSaved= 2 IEnMin= 2 EnMin= -2593.47002849320     IErMin= 2 ErrMin= 7.76D-03
 ErrMax= 7.76D-03  0.00D+00 EMaxC= 1.00D+00 BMatC= 1.23D-01 BMatP= 9.68D-01
 IDIUse=1 WtCom= 1.00D+00 WtEn= 0.00D+00
 Coeff-Com: -0.411D+00 0.141D+01
 Coeff:     -0.411D+00 0.141D+01
 Gap=     0.191 Goal=   None    Shift=    0.500
 T= 1111. Gap= 0.649 NK=0 IS=  162 IE= 1010 IFin=  161
          NO(<0.9)=   0  NV(>0.1)=   0    161.00e < EF      0.00e >EF  Err=0.0D+00
 GapD=    0.191 DampG=1.000 DampE=1.000 DampFc=1.0000 IDamp=-1.
 RMSDP=1.69D-03 MaxDP=1.52D-01 DE=-6.17D-01 OVMax= 2.23D-02

 Cycle   3  Pass 1  IDiag  1:
 E= -2593.79326795408     Delta-E=       -0.323239460883 Rises=F Damp=F
 DIIS: error= 2.43D-03 at cycle   3 NSaved=   3.
 NSaved= 3 IEnMin= 3 EnMin= -2593.79326795408     IErMin= 3 ErrMin= 2.43D-03
 ErrMax= 2.43D-03  0.00D+00 EMaxC= 1.00D+00 BMatC= 1.97D-02 BMatP= 1.23D-01
 IDIUse=1 WtCom= 1.00D+00 WtEn= 0.00D+00
 Coeff-Com:  0.684D-01 0.105D+00 0.827D+00
 Coeff:      0.684D-01 0.105D+00 0.827D+00
 Gap=     0.173 Goal=   None    Shift=    0.500
 T=  836. Gap= 0.668 NK=0 IS=  162 IE= 1010 IFin=  161
          NO(<0.9)=   0  NV(>0.1)=   0    161.00e < EF      0.00e >EF  Err=0.0D+00
 GapD=    0.173 DampG=1.000 DampE=1.000 DampFc=1.0000 IDamp=-1.
 RMSDP=6.95D-04 MaxDP=1.15D-01 DE=-3.23D-01 OVMax= 1.07D-02

 Cycle   4  Pass 1  IDiag  1:
 E= -2593.81063444586     Delta-E=       -0.017366491777 Rises=F Damp=F
 DIIS: error= 1.15D-03 at cycle   4 NSaved=   4.
 NSaved= 4 IEnMin= 4 EnMin= -2593.81063444586     IErMin= 4 ErrMin= 1.15D-03
 ErrMax= 1.15D-03  0.00D+00 EMaxC= 1.00D+00 BMatC= 2.81D-03 BMatP= 1.97D-02
 IDIUse=1 WtCom= 1.00D+00 WtEn= 0.00D+00
 Coeff-Com:  0.800D-01-0.862D-01 0.833D-01 0.923D+00
 Coeff:      0.800D-01-0.862D-01 0.833D-01 0.923D+00
 Gap=     0.169 Goal=   None    Shift=    0.500
 T=  253. Gap= 0.669 NK=0 IS=  162 IE= 1010 IFin=  161
          NO(<0.9)=   0  NV(>0.1)=   0    161.00e < EF      0.00e >EF  Err=0.0D+00
 GapD=    0.169 DampG=1.000 DampE=1.000 DampFc=1.0000 IDamp=-1.
 RMSDP=3.15D-04 MaxDP=4.90D-02 DE=-1.74D-02 OVMax= 7.57D-03

 Cycle   5  Pass 1  IDiag  1:
 E= -2593.81313875339     Delta-E=       -0.002504307532 Rises=F Damp=F
 DIIS: error= 3.85D-04 at cycle   5 NSaved=   5.
 NSaved= 5 IEnMin= 5 EnMin= -2593.81313875339     IErMin= 5 ErrMin= 3.85D-04
 ErrMax= 3.85D-04  0.00D+00 EMaxC= 1.00D+00 BMatC= 3.24D-04 BMatP= 2.81D-03
 IDIUse=1 WtCom= 1.00D+00 WtEn= 0.00D+00
 Coeff-Com:  0.168D-01-0.239D-01-0.591D-01 0.453D-01 0.102D+01
 Coeff:      0.168D-01-0.239D-01-0.591D-01 0.453D-01 0.102D+01
 Gap=     0.171 Goal=   None    Shift=    0.500
 RMSDP=1.83D-04 MaxDP=2.82D-02 DE=-2.50D-03 OVMax= 5.86D-03

 Cycle   6  Pass 1  IDiag  1:
 E= -2593.81361933977     Delta-E=       -0.000480586379 Rises=F Damp=F
 DIIS: error= 3.83D-04 at cycle   6 NSaved=   6.
 NSaved= 6 IEnMin= 6 EnMin= -2593.81361933977     IErMin= 6 ErrMin= 3.83D-04
 ErrMax= 3.83D-04  0.00D+00 EMaxC= 1.00D+00 BMatC= 5.52D-05 BMatP= 3.24D-04
 IDIUse=1 WtCom= 1.00D+00 WtEn= 0.00D+00
 Coeff-Com: -0.811D-02 0.104D-01-0.430D-01-0.101D+00 0.722D-01 0.107D+01
 Coeff:     -0.811D-02 0.104D-01-0.430D-01-0.101D+00 0.722D-01 0.107D+01
 Gap=     0.172 Goal=   None    Shift=    0.500
 RMSDP=1.03D-04 MaxDP=1.52D-02 DE=-4.81D-04 OVMax= 5.29D-03

 Cycle   7  Pass 1  IDiag  1:
 E= -2593.81377697101     Delta-E=       -0.000157631240 Rises=F Damp=F
 DIIS: error= 3.17D-04 at cycle   7 NSaved=   7.
 NSaved= 7 IEnMin= 7 EnMin= -2593.81377697101     IErMin= 7 ErrMin= 3.17D-04
 ErrMax= 3.17D-04  0.00D+00 EMaxC= 1.00D+00 BMatC= 1.93D-05 BMatP= 5.52D-05
 IDIUse=1 WtCom= 1.00D+00 WtEn= 0.00D+00
 Coeff-Com: -0.542D-02 0.602D-02 0.390D-03-0.336D-01-0.237D+00-0.114D+00
 Coeff-Com:  0.138D+01
 Coeff:     -0.542D-02 0.602D-02 0.390D-03-0.336D-01-0.237D+00-0.114D+00
 Coeff:      0.138D+01
 Gap=     0.172 Goal=   None    Shift=    0.500
 RMSDP=6.88D-05 MaxDP=9.10D-03 DE=-1.58D-04 OVMax= 4.67D-03

 Cycle   8  Pass 1  IDiag  1:
 E= -2593.81386186066     Delta-E=       -0.000084889650 Rises=F Damp=F
 DIIS: error= 2.68D-04 at cycle   8 NSaved=   8.
 NSaved= 8 IEnMin= 8 EnMin= -2593.81386186066     IErMin= 8 ErrMin= 2.68D-04
 ErrMax= 2.68D-04  0.00D+00 EMaxC= 1.00D+00 BMatC= 1.00D-05 BMatP= 1.93D-05
 IDIUse=1 WtCom= 1.00D+00 WtEn= 0.00D+00
 Coeff-Com:  0.242D-02-0.515D-02 0.203D-01 0.265D-01-0.140D+00-0.520D+00
 Coeff-Com:  0.104D+00 0.151D+01
 Coeff:      0.242D-02-0.515D-02 0.203D-01 0.265D-01-0.140D+00-0.520D+00
 Coeff:      0.104D+00 0.151D+01
 Gap=     0.173 Goal=   None    Shift=    0.500
 RMSDP=5.36D-05 MaxDP=6.51D-03 DE=-8.49D-05 OVMax= 4.09D-03

 Cycle   9  Pass 1  IDiag  1:
 E= -2593.81391569754     Delta-E=       -0.000053836875 Rises=F Damp=F
 DIIS: error= 2.25D-04 at cycle   9 NSaved=   9.
 NSaved= 9 IEnMin= 9 EnMin= -2593.81391569754     IErMin= 9 ErrMin= 2.25D-04
 ErrMax= 2.25D-04  0.00D+00 EMaxC= 1.00D+00 BMatC= 5.54D-06 BMatP= 1.00D-05
 IDIUse=1 WtCom= 1.00D+00 WtEn= 0.00D+00
 Coeff-Com:  0.442D-02-0.661D-02 0.101D-01 0.315D-01 0.899D-01-0.256D+00
 Coeff-Com: -0.799D+00 0.723D-01 0.185D+01
 Coeff:      0.442D-02-0.661D-02 0.101D-01 0.315D-01 0.899D-01-0.256D+00
 Coeff:     -0.799D+00 0.723D-01 0.185D+01
 Gap=     0.173 Goal=   None    Shift=    0.500
 RMSDP=4.23D-05 MaxDP=4.80D-03 DE=-5.38D-05 OVMax= 3.74D-03

 Cycle  10  Pass 1  IDiag  1:
 E= -2593.81395164551     Delta-E=       -0.000035947970 Rises=F Damp=F
 DIIS: error= 1.81D-04 at cycle  10 NSaved=  10.
 NSaved=10 IEnMin=10 EnMin= -2593.81395164551     IErMin=10 ErrMin= 1.81D-04
 ErrMax= 1.81D-04  0.00D+00 EMaxC= 1.00D+00 BMatC= 3.30D-06 BMatP= 5.54D-06
 IDIUse=1 WtCom= 1.00D+00 WtEn= 0.00D+00
 Coeff-Com:  0.131D-02-0.129D-02-0.424D-02 0.146D-01 0.129D+00 0.305D-01
 Coeff-Com: -0.549D+00-0.611D+00 0.680D-01 0.192D+01
 Coeff:      0.131D-02-0.129D-02-0.424D-02 0.146D-01 0.129D+00 0.305D-01
 Coeff:     -0.549D+00-0.611D+00 0.680D-01 0.192D+01
 Gap=     0.173 Goal=   None    Shift=    0.500
 RMSDP=3.29D-05 MaxDP=3.94D-03 DE=-3.59D-05 OVMax= 3.21D-03

 Cycle  11  Pass 1  IDiag  1:
 E= -2593.81397492178     Delta-E=       -0.000023276278 Rises=F Damp=F
 DIIS: error= 1.46D-04 at cycle  11 NSaved=  11.
 NSaved=11 IEnMin=11 EnMin= -2593.81397492178     IErMin=11 ErrMin= 1.46D-04
 ErrMax= 1.46D-04  0.00D+00 EMaxC= 1.00D+00 BMatC= 2.09D-06 BMatP= 3.30D-06
 IDIUse=1 WtCom= 1.00D+00 WtEn= 0.00D+00
 Coeff-Com: -0.141D-02 0.253D-02-0.643D-02 0.323D-03 0.274D-01 0.100D+00
 Coeff-Com:  0.165D+00-0.395D+00-0.141D+01 0.481D+00 0.204D+01
 Coeff:     -0.141D-02 0.253D-02-0.643D-02 0.323D-03 0.274D-01 0.100D+00
 Coeff:      0.165D+00-0.395D+00-0.141D+01 0.481D+00 0.204D+01
 Gap=     0.174 Goal=   None    Shift=    0.500
 RMSDP=2.65D-05 MaxDP=3.07D-03 DE=-2.33D-05 OVMax= 2.76D-03

 Cycle  12  Pass 1  IDiag  1:
 E= -2593.81399008900     Delta-E=       -0.000015167218 Rises=F Damp=F
 DIIS: error= 1.14D-04 at cycle  12 NSaved=  12.
 NSaved=12 IEnMin=12 EnMin= -2593.81399008900     IErMin=12 ErrMin= 1.14D-04
 ErrMax= 1.14D-04  0.00D+00 EMaxC= 1.00D+00 BMatC= 1.30D-06 BMatP= 2.09D-06
 IDIUse=1 WtCom= 1.00D+00 WtEn= 0.00D+00
 Coeff-Com: -0.115D-02 0.146D-02 0.233D-02-0.896D-02-0.584D-01 0.349D-02
 Coeff-Com:  0.477D+00 0.249D+00-0.119D+01-0.104D+01 0.543D-01 0.251D+01
 Coeff:     -0.115D-02 0.146D-02 0.233D-02-0.896D-02-0.584D-01 0.349D-02
 Coeff:      0.477D+00 0.249D+00-0.119D+01-0.104D+01 0.543D-01 0.251D+01
 Gap=     0.174 Goal=   None    Shift=    0.500
 RMSDP=2.18D-05 MaxDP=2.42D-03 DE=-1.52D-05 OVMax= 2.36D-03

 Cycle  13  Pass 1  IDiag  1:
 E= -2593.81399979907     Delta-E=       -0.000009710072 Rises=F Damp=F
 DIIS: error= 8.80D-05 at cycle  13 NSaved=  13.
 NSaved=13 IEnMin=13 EnMin= -2593.81399979907     IErMin=13 ErrMin= 8.80D-05
 ErrMax= 8.80D-05  0.00D+00 EMaxC= 1.00D+00 BMatC= 8.59D-07 BMatP= 1.30D-06
 IDIUse=1 WtCom= 1.00D+00 WtEn= 0.00D+00
 Coeff-Com: -0.312D-03 0.708D-04 0.533D-02-0.915D-02-0.465D-01-0.527D-01
 Coeff-Com:  0.306D+00 0.416D+00-0.416D+00-0.106D+01-0.994D+00 0.127D+01
 Coeff-Com:  0.159D+01
 Coeff:     -0.312D-03 0.708D-04 0.533D-02-0.915D-02-0.465D-01-0.527D-01
 Coeff:      0.306D+00 0.416D+00-0.416D+00-0.106D+01-0.994D+00 0.127D+01
 Coeff:      0.159D+01
 Gap=     0.174 Goal=   None    Shift=    0.500
 RMSDP=1.60D-05 MaxDP=1.69D-03 DE=-9.71D-06 OVMax= 1.87D-03

 Cycle  14  Pass 1  IDiag  1:
 E= -2593.81400564796     Delta-E=       -0.000005848891 Rises=F Damp=F
 DIIS: error= 6.62D-05 at cycle  14 NSaved=  14.
 NSaved=14 IEnMin=14 EnMin= -2593.81400564796     IErMin=14 ErrMin= 6.62D-05
 ErrMax= 6.62D-05  0.00D+00 EMaxC= 1.00D+00 BMatC= 4.97D-07 BMatP= 8.59D-07
 IDIUse=1 WtCom= 1.00D+00 WtEn= 0.00D+00
 Coeff-Com:  0.439D-03-0.779D-03 0.279D-02-0.567D-05 0.395D-02-0.693D-01
 Coeff-Com: -0.544D-01 0.222D+00 0.418D+00-0.146D+00-0.938D+00-0.832D+00
 Coeff-Com: -0.288D+00 0.268D+01
 Coeff:      0.439D-03-0.779D-03 0.279D-02-0.567D-05 0.395D-02-0.693D-01
 Coeff:     -0.544D-01 0.222D+00 0.418D+00-0.146D+00-0.938D+00-0.832D+00
 Coeff:     -0.288D+00 0.268D+01
 Gap=     0.174 Goal=   None    Shift=    0.500
 RMSDP=1.29D-05 MaxDP=1.34D-03 DE=-5.85D-06 OVMax= 1.51D-03

 Cycle  15  Pass 1  IDiag  1:
 E= -2593.81400908429     Delta-E=       -0.000003436321 Rises=F Damp=F
 DIIS: error= 4.99D-05 at cycle  15 NSaved=  15.
 NSaved=15 IEnMin=15 EnMin= -2593.81400908429     IErMin=15 ErrMin= 4.99D-05
 ErrMax= 4.99D-05  0.00D+00 EMaxC= 1.00D+00 BMatC= 3.55D-07 BMatP= 4.97D-07
 IDIUse=1 WtCom= 1.00D+00 WtEn= 0.00D+00
 Coeff-Com:  0.431D-03-0.627D-03 0.751D-03 0.337D-02 0.159D-01-0.502D-01
 Coeff-Com: -0.122D+00 0.102D+00 0.429D+00 0.250D+00-0.562D+00-0.122D+01
 Coeff-Com: -0.940D+00 0.208D+01 0.102D+01
 Coeff:      0.431D-03-0.627D-03 0.751D-03 0.337D-02 0.159D-01-0.502D-01
 Coeff:     -0.122D+00 0.102D+00 0.429D+00 0.250D+00-0.562D+00-0.122D+01
 Coeff:     -0.940D+00 0.208D+01 0.102D+01
 Gap=     0.174 Goal=   None    Shift=    0.500
 RMSDP=9.35D-06 MaxDP=9.16D-04 DE=-3.44D-06 OVMax= 1.15D-03

 Cycle  16  Pass 1  IDiag  1:
 E= -2593.81401109497     Delta-E=       -0.000002010687 Rises=F Damp=F
 DIIS: error= 3.65D-05 at cycle  16 NSaved=  16.
 NSaved=16 IEnMin=16 EnMin= -2593.81401109497     IErMin=16 ErrMin= 3.65D-05
 ErrMax= 3.65D-05  0.00D+00 EMaxC= 1.00D+00 BMatC= 2.01D-07 BMatP= 3.55D-07
 IDIUse=1 WtCom= 1.00D+00 WtEn= 0.00D+00
 Coeff-Com:  0.105D-03-0.116D-03-0.142D-02 0.339D-02 0.117D-01 0.466D-02
 Coeff-Com: -0.663D-01-0.514D-01 0.267D-02 0.416D+00 0.191D+00-0.552D+00
 Coeff-Com: -0.872D+00 0.330D+00-0.125D+01 0.284D+01
 Coeff:      0.105D-03-0.116D-03-0.142D-02 0.339D-02 0.117D-01 0.466D-02
 Coeff:     -0.663D-01-0.514D-01 0.267D-02 0.416D+00 0.191D+00-0.552D+00
 Coeff:     -0.872D+00 0.330D+00-0.125D+01 0.284D+01
 Gap=     0.174 Goal=   None    Shift=    0.500
 RMSDP=7.16D-06 MaxDP=6.65D-04 DE=-2.01D-06 OVMax= 8.80D-04

 Cycle  17  Pass 1  IDiag  1:
 E= -2593.81401220506     Delta-E=       -0.000001110091 Rises=F Damp=F
 DIIS: error= 2.67D-05 at cycle  17 NSaved=  17.
 NSaved=17 IEnMin=17 EnMin= -2593.81401220506     IErMin=17 ErrMin= 2.67D-05
 ErrMax= 2.67D-05  0.00D+00 EMaxC= 1.00D+00 BMatC= 1.39D-07 BMatP= 2.01D-07
 IDIUse=1 WtCom= 1.00D+00 WtEn= 0.00D+00
 Coeff-Com: -0.935D-05 0.122D-04-0.952D-03 0.739D-03 0.566D-02 0.156D-01
 Coeff-Com: -0.191D-01-0.456D-01-0.131D+00 0.264D+00 0.280D+00-0.945D-01
 Coeff-Com: -0.389D+00-0.209D+00-0.204D+01 0.205D+01 0.132D+01
 Coeff:     -0.935D-05 0.122D-04-0.952D-03 0.739D-03 0.566D-02 0.156D-01
 Coeff:     -0.191D-01-0.456D-01-0.131D+00 0.264D+00 0.280D+00-0.945D-01
 Coeff:     -0.389D+00-0.209D+00-0.204D+01 0.205D+01 0.132D+01
 Gap=     0.174 Goal=   None    Shift=    0.500
 RMSDP=5.14D-06 MaxDP=4.87D-04 DE=-1.11D-06 OVMax= 6.67D-04

 Cycle  18  Pass 1  IDiag  1:
 E= -2593.81401284110     Delta-E=       -0.000000636040 Rises=F Damp=F
 DIIS: error= 1.94D-05 at cycle  18 NSaved=  18.
 NSaved=18 IEnMin=18 EnMin= -2593.81401284110     IErMin=18 ErrMin= 1.94D-05
 ErrMax= 1.94D-05  0.00D+00 EMaxC= 1.00D+00 BMatC= 8.43D-08 BMatP= 1.39D-07
 IDIUse=1 WtCom= 1.00D+00 WtEn= 0.00D+00
 Coeff-Com: -0.483D-04 0.459D-04 0.372D-03-0.149D-02-0.140D-02 0.345D-02
 Coeff-Com:  0.211D-01 0.167D-01-0.111D+00-0.270D-01 0.101D+00 0.249D+00
 Coeff-Com:  0.145D+00-0.248D+00-0.142D+01 0.604D+00-0.860D+00 0.253D+01
 Coeff:     -0.483D-04 0.459D-04 0.372D-03-0.149D-02-0.140D-02 0.345D-02
 Coeff:      0.211D-01 0.167D-01-0.111D+00-0.270D-01 0.101D+00 0.249D+00
 Coeff:      0.145D+00-0.248D+00-0.142D+01 0.604D+00-0.860D+00 0.253D+01
 Gap=     0.174 Goal=   None    Shift=    0.500
 RMSDP=3.66D-06 MaxDP=3.55D-04 DE=-6.36D-07 OVMax= 5.01D-04

 Cycle  19  Pass 1  IDiag  1:
 E= -2593.81401319600     Delta-E=       -0.000000354898 Rises=F Damp=F
 DIIS: error= 1.39D-05 at cycle  19 NSaved=  19.
 NSaved=19 IEnMin=19 EnMin= -2593.81401319600     IErMin=19 ErrMin= 1.39D-05
 ErrMax= 1.39D-05  0.00D+00 EMaxC= 1.00D+00 BMatC= 5.00D-08 BMatP= 8.43D-08
 IDIUse=1 WtCom= 1.00D+00 WtEn= 0.00D+00
 Coeff-Com: -0.193D-04 0.234D-04 0.569D-03-0.105D-02-0.157D-02-0.515D-02
 Coeff-Com:  0.130D-01 0.330D-01-0.200D-01-0.818D-01-0.431D-01 0.162D+00
 Coeff-Com:  0.214D+00-0.160D-01-0.495D+00-0.666D-01-0.146D+01 0.965D+00
 Coeff-Com:  0.181D+01
 Coeff:     -0.193D-04 0.234D-04 0.569D-03-0.105D-02-0.157D-02-0.515D-02
 Coeff:      0.130D-01 0.330D-01-0.200D-01-0.818D-01-0.431D-01 0.162D+00
 Coeff:      0.214D+00-0.160D-01-0.495D+00-0.666D-01-0.146D+01 0.965D+00
 Coeff:      0.181D+01
 Gap=     0.174 Goal=   None    Shift=    0.500
 RMSDP=2.62D-06 MaxDP=2.56D-04 DE=-3.55D-07 OVMax= 3.73D-04

 Cycle  20  Pass 1  IDiag  1:
 E= -2593.81401339281     Delta-E=       -0.000000196811 Rises=F Damp=F
 DIIS: error= 9.87D-06 at cycle  20 NSaved=  20.
 NSaved=20 IEnMin=20 EnMin= -2593.81401339281     IErMin=20 ErrMin= 9.87D-06
 ErrMax= 9.87D-06  0.00D+00 EMaxC= 1.00D+00 BMatC= 2.83D-08 BMatP= 5.00D-08
 IDIUse=1 WtCom= 1.00D+00 WtEn= 0.00D+00
 Coeff-Com:  0.337D-04-0.396D-04 0.149D-03 0.284D-03 0.694D-03-0.643D-02
 Coeff-Com: -0.114D-01 0.168D-01 0.647D-01-0.184D-01-0.118D+00-0.704D-01
 Coeff-Com:  0.833D-01 0.224D+00 0.340D+00-0.289D+00-0.772D+00-0.117D+01
 Coeff-Com:  0.430D+00 0.229D+01
 Coeff:      0.337D-04-0.396D-04 0.149D-03 0.284D-03 0.694D-03-0.643D-02
 Coeff:     -0.114D-01 0.168D-01 0.647D-01-0.184D-01-0.118D+00-0.704D-01
 Coeff:      0.833D-01 0.224D+00 0.340D+00-0.289D+00-0.772D+00-0.117D+01
 Coeff:      0.430D+00 0.229D+01
 Gap=     0.174 Goal=   None    Shift=    0.500
 RMSDP=1.84D-06 MaxDP=1.82D-04 DE=-1.97D-07 OVMax= 2.74D-04

 Cycle  21  Pass 1  IDiag  1:
 E= -2593.81401349803     Delta-E=       -0.000000105219 Rises=F Damp=F
 DIIS: error= 7.18D-06 at cycle  21 NSaved=  20.
 NSaved=20 IEnMin=20 EnMin= -2593.81401349803     IErMin=20 ErrMin= 7.18D-06
 ErrMax= 7.18D-06  0.00D+00 EMaxC= 1.00D+00 BMatC= 1.70D-08 BMatP= 2.83D-08
 IDIUse=1 WtCom= 1.00D+00 WtEn= 0.00D+00
 Coeff-Com:  0.703D-05-0.867D-04 0.189D-03 0.466D-03-0.999D-03-0.832D-02
 Coeff-Com:  0.164D-02 0.344D-01 0.159D-01-0.595D-01-0.817D-01 0.208D-01
 Coeff-Com:  0.168D+00 0.229D+00-0.110D+00-0.217D+00-0.108D+01-0.387D+00
 Coeff-Com:  0.104D+01 0.143D+01
 Coeff:      0.703D-05-0.867D-04 0.189D-03 0.466D-03-0.999D-03-0.832D-02
 Coeff:      0.164D-02 0.344D-01 0.159D-01-0.595D-01-0.817D-01 0.208D-01
 Coeff:      0.168D+00 0.229D+00-0.110D+00-0.217D+00-0.108D+01-0.387D+00
 Coeff:      0.104D+01 0.143D+01
 Gap=     0.174 Goal=   None    Shift=    0.500
 RMSDP=1.32D-06 MaxDP=1.29D-04 DE=-1.05D-07 OVMax= 2.02D-04

 Cycle  22  Pass 1  IDiag  1:
 E= -2593.81401355667     Delta-E=       -0.000000058638 Rises=F Damp=F
 DIIS: error= 5.09D-06 at cycle  22 NSaved=  20.
 NSaved=20 IEnMin=20 EnMin= -2593.81401355667     IErMin=20 ErrMin= 5.09D-06
 ErrMax= 5.09D-06  0.00D+00 EMaxC= 1.00D+00 BMatC= 9.81D-09 BMatP= 1.70D-08
 IDIUse=1 WtCom= 1.00D+00 WtEn= 0.00D+00
 Coeff-Com: -0.150D-03 0.106D-03 0.635D-03 0.288D-02-0.446D-02-0.995D-02
 Coeff-Com: -0.692D-02 0.412D-01 0.230D-01-0.480D-01-0.591D-01 0.576D-01
 Coeff-Com: -0.102D+00 0.199D+00 0.307D+00-0.203D+00-0.921D+00-0.456D+00
 Coeff-Com: -0.203D+00 0.238D+01
 Coeff:     -0.150D-03 0.106D-03 0.635D-03 0.288D-02-0.446D-02-0.995D-02
 Coeff:     -0.692D-02 0.412D-01 0.230D-01-0.480D-01-0.591D-01 0.576D-01
 Coeff:     -0.102D+00 0.199D+00 0.307D+00-0.203D+00-0.921D+00-0.456D+00
 Coeff:     -0.203D+00 0.238D+01
 Gap=     0.174 Goal=   None    Shift=    0.500
 RMSDP=9.44D-07 MaxDP=8.96D-05 DE=-5.86D-08 OVMax= 1.47D-04

 SCF Done:  E(RLC-wHPBE) =  -2593.81401356     A.U. after   22 cycles
            NFock= 22  Conv=0.94D-06     -V/T= 2.0035
 KE= 2.584663498728D+03 PE=-1.663751193179D+04 EE= 6.181310754221D+03
 Leave Link  502 at Thu Jan 21 15:04:40 2021, MaxMem=  4026531840 cpu:           17318.5 elap:            2198.7
 (Enter /opt/ohpc/pub/libs/gaussian/g16-A.03/sandybridge/g16/l508.exe)
 QCSCF skips out because SCF is already converged.
 Leave Link  508 at Thu Jan 21 15:04:40 2021, MaxMem=  4026531840 cpu:               0.1 elap:               0.0
 (Enter /opt/ohpc/pub/libs/gaussian/g16-A.03/sandybridge/g16/l601.exe)
 Copying SCF densities to generalized density rwf, IOpCl= 0 IROHF=0.

 **********************************************************************

            Population analysis using the SCF density.

 **********************************************************************

 Orbital symmetries:
       Occupied  (A) (A) (A) (A) (A) (A) (A) (A) (A) (A) (A) (A)
                 (A) (A) (A) (A) (A) (A) (A) (A) (A) (A) (A) (A)
                 (A) (A) (A) (A) (A) (A) (A) (A) (A) (A) (A) (A)
                 (A) (A) (A) (A) (A) (A) (A) (A) (A) (A) (A) (A)
                 (A) (A) (A) (A) (A) (A) (A) (A) (A) (A) (A) (A)
                 (A) (A) (A) (A) (A) (A) (A) (A) (A) (A) (A) (A)
                 (A) (A) (A) (A) (A) (A) (A) (A) (A) (A) (A) (A)
                 (A) (A) (A) (A) (A) (A) (A) (A) (A) (A) (A) (A)
                 (A) (A) (A) (A) (A) (A) (A) (A) (A) (A) (A) (A)
                 (A) (A) (A) (A) (A) (A) (A) (A) (A) (A) (A) (A)
                 (A) (A) (A) (A) (A) (A) (A) (A) (A) (A) (A) (A)
                 (A) (A) (A) (A) (A) (A) (A) (A) (A) (A) (A) (A)
                 (A) (A) (A) (A) (A) (A) (A) (A) (A) (A) (A) (A)
                 (A) (A) (A) (A) (A)
       Virtual   (A) (A) (A) (A) (A) (A) (A) (A) (A) (A) (A) (A)
                 (A) (A) (A) (A) (A) (A) (A) (A) (A) (A) (A) (A)
                 (A) (A) (A) (A) (A) (A) (A) (A) (A) (A) (A) (A)
                 (A) (A) (A) (A) (A) (A) (A) (A) (A) (A) (A) (A)
                 (A) (A) (A) (A) (A) (A) (A) (A) (A) (A) (A) (A)
                 (A) (A) (A) (A) (A) (A) (A) (A) (A) (A) (A) (A)
                 (A) (A) (A) (A) (A) (A) (A) (A) (A) (A) (A) (A)
                 (A) (A) (A) (A) (A) (A) (A) (A) (A) (A) (A) (A)
                 (A) (A) (A) (A) (A) (A) (A) (A) (A) (A) (A) (A)
                 (A) (A) (A) (A) (A) (A) (A) (A) (A) (A) (A) (A)
                 (A) (A) (A) (A) (A) (A) (A) (A) (A) (A) (A) (A)
                 (A) (A) (A) (A) (A) (A) (A) (A) (A) (A) (A) (A)
                 (A) (A) (A) (A) (A) (A) (A) (A) (A) (A) (A) (A)
                 (A) (A) (A) (A) (A) (A) (A) (A) (A) (A) (A) (A)
                 (A) (A) (A) (A) (A) (A) (A) (A) (A) (A) (A) (A)
                 (A) (A) (A) (A) (A) (A) (A) (A) (A) (A) (A) (A)
                 (A) (A) (A) (A) (A) (A) (A) (A) (A) (A) (A) (A)
                 (A) (A) (A) (A) (A) (A) (A) (A) (A) (A) (A) (A)
                 (A) (A) (A) (A) (A) (A) (A) (A) (A) (A) (A) (A)
                 (A) (A) (A) (A) (A) (A) (A) (A) (A) (A) (A) (A)
                 (A) (A) (A) (A) (A) (A) (A) (A) (A) (A) (A) (A)
                 (A) (A) (A) (A) (A) (A) (A) (A) (A) (A) (A) (A)
                 (A) (A) (A) (A) (A) (A) (A) (A) (A) (A) (A) (A)
                 (A) (A) (A) (A) (A) (A) (A) (A) (A) (A) (A) (A)
                 (A) (A) (A) (A) (A) (A) (A) (A) (A) (A) (A) (A)
                 (A) (A) (A) (A) (A) (A) (A) (A) (A) (A) (A) (A)
                 (A) (A) (A) (A) (A) (A) (A) (A) (A) (A) (A) (A)
                 (A) (A) (A) (A) (A) (A) (A) (A) (A) (A) (A) (A)
                 (A) (A) (A) (A) (A) (A) (A) (A) (A) (A) (A) (A)
                 (A) (A) (A) (A) (A) (A) (A) (A) (A) (A) (A) (A)
                 (A) (A) (A) (A) (A) (A) (A) (A) (A) (A) (A) (A)
                 (A) (A) (A) (A) (A) (A) (A) (A) (A) (A) (A) (A)
                 (A) (A) (A) (A) (A) (A) (A) (A) (A) (A) (A) (A)
                 (A) (A) (A) (A) (A) (A) (A) (A) (A) (A) (A) (A)
                 (A) (A) (A) (A) (A) (A) (A) (A) (A) (A) (A) (A)
                 (A) (A) (A) (A) (A) (A) (A) (A) (A) (A) (A) (A)
                 (A) (A) (A) (A) (A) (A) (A) (A) (A) (A) (A) (A)
                 (A) (A) (A) (A) (A) (A) (A) (A) (A) (A) (A) (A)
                 (A) (A) (A) (A) (A) (A) (A) (A) (A) (A) (A) (A)
                 (A) (A) (A) (A) (A) (A) (A) (A) (A) (A) (A) (A)
                 (A) (A) (A) (A) (A) (A) (A) (A) (A) (A) (A) (A)
                 (A) (A) (A) (A) (A) (A) (A) (A) (A) (A) (A) (A)
                 (A) (A) (A) (A) (A) (A) (A) (A) (A) (A) (A) (A)
                 (A) (A) (A) (A) (A) (A) (A) (A) (A) (A) (A) (A)
                 (A) (A) (A) (A) (A) (A) (A) (A) (A) (A) (A) (A)
                 (A) (A) (A) (A) (A) (A) (A) (A) (A) (A) (A) (A)
                 (A) (A) (A) (A) (A) (A) (A) (A) (A) (A) (A) (A)
                 (A) (A) (A) (A) (A) (A) (A) (A) (A) (A) (A) (A)
                 (A) (A) (A) (A) (A) (A) (A) (A) (A) (A) (A) (A)
                 (A) (A) (A) (A) (A) (A) (A) (A) (A) (A) (A) (A)
                 (A) (A) (A) (A) (A) (A) (A) (A) (A) (A) (A) (A)
                 (A) (A) (A) (A) (A) (A) (A) (A) (A) (A) (A) (A)
                 (A) (A) (A) (A) (A) (A) (A) (A) (A) (A) (A) (A)
                 (A) (A) (A) (A) (A) (A) (A) (A) (A) (A) (A) (A)
                 (A) (A) (A) (A) (A) (A) (A) (A) (A) (A) (A) (A)
                 (A) (A) (A) (A) (A) (A) (A) (A) (A) (A) (A) (A)
                 (A) (A) (A) (A) (A) (A) (A) (A) (A) (A) (A) (A)
                 (A) (A) (A) (A) (A) (A) (A) (A) (A) (A) (A) (A)
                 (A) (A) (A) (A) (A) (A) (A) (A) (A) (A) (A) (A)
                 (A) (A) (A) (A) (A) (A) (A) (A) (A) (A) (A) (A)
                 (A) (A) (A) (A) (A) (A) (A) (A) (A) (A) (A) (A)
                 (A) (A) (A) (A) (A) (A) (A) (A) (A) (A) (A) (A)
                 (A) (A) (A) (A) (A) (A) (A) (A) (A) (A) (A) (A)
                 (A) (A) (A) (A) (A) (A) (A) (A) (A) (A) (A) (A)
                 (A) (A) (A) (A) (A) (A) (A) (A) (A) (A) (A) (A)
                 (A) (A) (A) (A) (A) (A) (A) (A) (A) (A) (A) (A)
                 (A) (A) (A) (A) (A) (A) (A) (A) (A) (A) (A) (A)
                 (A) (A) (A) (A) (A) (A) (A) (A) (A) (A) (A) (A)
                 (A) (A) (A) (A) (A) (A) (A) (A) (A) (A) (A) (A)
                 (A) (A) (A) (A) (A) (A) (A) (A) (A) (A) (A) (A)
                 (A) (A) (A) (A) (A) (A) (A) (A) (A)
 The electronic state is 1-A.
 Alpha  occ. eigenvalues --  -88.22626 -88.17667 -18.85981 -18.85205 -18.83801
 Alpha  occ. eigenvalues --  -18.83588 -14.09482 -14.06497 -10.02276 -10.01020
 Alpha  occ. eigenvalues --  -10.01008 -10.00859  -9.99975  -9.99720  -9.99557
 Alpha  occ. eigenvalues --   -9.99478  -9.98785  -9.97344  -9.97142  -9.96893
 Alpha  occ. eigenvalues --   -9.96767  -9.96741  -9.96736  -9.96696  -9.96409
 Alpha  occ. eigenvalues --   -9.96048  -9.96014  -9.95887  -9.95662  -9.95619
 Alpha  occ. eigenvalues --   -9.94727  -9.94588  -9.94523  -9.94436  -9.94143
 Alpha  occ. eigenvalues --   -9.94049  -9.93959  -9.93910  -9.93895  -9.93814
 Alpha  occ. eigenvalues --   -9.93675  -9.93175  -9.92060  -9.88476  -7.81673
 Alpha  occ. eigenvalues --   -7.76860  -5.83707  -5.83495  -5.82986  -5.79096
 Alpha  occ. eigenvalues --   -5.78676  -5.77923  -1.05709  -1.04708  -1.03383
 Alpha  occ. eigenvalues --   -1.03190  -0.96703  -0.93828  -0.89035  -0.86153
 Alpha  occ. eigenvalues --   -0.84942  -0.84068  -0.83971  -0.82844  -0.81012
 Alpha  occ. eigenvalues --   -0.79971  -0.76586  -0.76119  -0.75182  -0.74953
 Alpha  occ. eigenvalues --   -0.74330  -0.74205  -0.74070  -0.73527  -0.72547
 Alpha  occ. eigenvalues --   -0.71335  -0.70482  -0.68652  -0.65631  -0.64763
 Alpha  occ. eigenvalues --   -0.63952  -0.63408  -0.63144  -0.62718  -0.61561
 Alpha  occ. eigenvalues --   -0.61179  -0.60260  -0.59708  -0.58989  -0.57691
 Alpha  occ. eigenvalues --   -0.57036  -0.56455  -0.56264  -0.55392  -0.55103
 Alpha  occ. eigenvalues --   -0.54956  -0.53129  -0.52138  -0.51842  -0.51296
 Alpha  occ. eigenvalues --   -0.50781  -0.49501  -0.48947  -0.48286  -0.47681
 Alpha  occ. eigenvalues --   -0.47384  -0.46999  -0.46603  -0.46221  -0.45671
 Alpha  occ. eigenvalues --   -0.45600  -0.45241  -0.45001  -0.44711  -0.44630
 Alpha  occ. eigenvalues --   -0.44282  -0.44084  -0.43610  -0.43532  -0.43280
 Alpha  occ. eigenvalues --   -0.43079  -0.42741  -0.42453  -0.42261  -0.42084
 Alpha  occ. eigenvalues --   -0.41854  -0.41374  -0.41096  -0.40675  -0.40075
 Alpha  occ. eigenvalues --   -0.39198  -0.38965  -0.38830  -0.38436  -0.38221
 Alpha  occ. eigenvalues --   -0.38000  -0.37770  -0.37569  -0.37343  -0.36594
 Alpha  occ. eigenvalues --   -0.36339  -0.35921  -0.35407  -0.35066  -0.34766
 Alpha  occ. eigenvalues --   -0.33604  -0.31313  -0.30919  -0.30312  -0.29796
 Alpha  occ. eigenvalues --   -0.29555  -0.28762  -0.28504  -0.28167  -0.27649
 Alpha  occ. eigenvalues --   -0.26732  -0.26286  -0.25523  -0.22657  -0.20097
 Alpha  occ. eigenvalues --   -0.18975
 Alpha virt. eigenvalues --   -0.01577  -0.00742   0.00613   0.00880   0.01272
 Alpha virt. eigenvalues --    0.01549   0.01767   0.03140   0.03304   0.03432
 Alpha virt. eigenvalues --    0.04022   0.04296   0.04834   0.05217   0.05289
 Alpha virt. eigenvalues --    0.05492   0.06207   0.06971   0.07631   0.07932
 Alpha virt. eigenvalues --    0.08183   0.08918   0.09381   0.09857   0.10444
 Alpha virt. eigenvalues --    0.10854   0.11104   0.11679   0.11861   0.12451
 Alpha virt. eigenvalues --    0.12834   0.13042   0.13598   0.13761   0.14171
 Alpha virt. eigenvalues --    0.14376   0.14814   0.14835   0.15531   0.15726
 Alpha virt. eigenvalues --    0.15978   0.16510   0.16786   0.17100   0.17311
 Alpha virt. eigenvalues --    0.17567   0.18056   0.18181   0.18704   0.18965
 Alpha virt. eigenvalues --    0.19335   0.19554   0.19692   0.20105   0.20330
 Alpha virt. eigenvalues --    0.20475   0.21074   0.21442   0.21791   0.22100
 Alpha virt. eigenvalues --    0.22437   0.22791   0.22999   0.23080   0.23287
 Alpha virt. eigenvalues --    0.23501   0.23867   0.24047   0.24365   0.24392
 Alpha virt. eigenvalues --    0.24811   0.25204   0.25506   0.25779   0.26124
 Alpha virt. eigenvalues --    0.26350   0.26441   0.26544   0.27136   0.27276
 Alpha virt. eigenvalues --    0.27399   0.27431   0.27766   0.27917   0.28011
 Alpha virt. eigenvalues --    0.28475   0.28612   0.28931   0.29073   0.29242
 Alpha virt. eigenvalues --    0.29723   0.29757   0.30020   0.30229   0.30284
 Alpha virt. eigenvalues --    0.30426   0.30905   0.31222   0.31510   0.31876
 Alpha virt. eigenvalues --    0.31938   0.32211   0.32323   0.32526   0.32762
 Alpha virt. eigenvalues --    0.32956   0.33094   0.33238   0.33469   0.33672
 Alpha virt. eigenvalues --    0.34062   0.34245   0.34402   0.34902   0.35149
 Alpha virt. eigenvalues --    0.35498   0.35710   0.35723   0.36308   0.36585
 Alpha virt. eigenvalues --    0.36834   0.37089   0.37354   0.37432   0.37792
 Alpha virt. eigenvalues --    0.37834   0.38188   0.38416   0.38731   0.38873
 Alpha virt. eigenvalues --    0.39145   0.39636   0.39771   0.40023   0.40171
 Alpha virt. eigenvalues --    0.40246   0.40489   0.40840   0.41019   0.41179
 Alpha virt. eigenvalues --    0.41531   0.41663   0.41820   0.41914   0.42102
 Alpha virt. eigenvalues --    0.42590   0.42827   0.42984   0.43044   0.43239
 Alpha virt. eigenvalues --    0.43301   0.43709   0.43883   0.44114   0.44235
 Alpha virt. eigenvalues --    0.44459   0.44620   0.44741   0.44969   0.45244
 Alpha virt. eigenvalues --    0.45461   0.45896   0.46110   0.46341   0.46466
 Alpha virt. eigenvalues --    0.46769   0.47107   0.47422   0.47604   0.47694
 Alpha virt. eigenvalues --    0.47885   0.48443   0.48562   0.48766   0.48797
 Alpha virt. eigenvalues --    0.49093   0.49358   0.49713   0.49920   0.50249
 Alpha virt. eigenvalues --    0.50456   0.50510   0.50947   0.51505   0.51668
 Alpha virt. eigenvalues --    0.51886   0.51976   0.52390   0.52599   0.52823
 Alpha virt. eigenvalues --    0.53173   0.53304   0.53405   0.53871   0.54369
 Alpha virt. eigenvalues --    0.54548   0.54655   0.55001   0.55335   0.55622
 Alpha virt. eigenvalues --    0.56302   0.56677   0.56905   0.57188   0.57532
 Alpha virt. eigenvalues --    0.57839   0.58016   0.58390   0.58603   0.59054
 Alpha virt. eigenvalues --    0.59200   0.59382   0.59561   0.59778   0.59973
 Alpha virt. eigenvalues --    0.60212   0.60438   0.61094   0.61215   0.61367
 Alpha virt. eigenvalues --    0.61810   0.62155   0.62269   0.62753   0.62939
 Alpha virt. eigenvalues --    0.63586   0.63848   0.64178   0.64762   0.65101
 Alpha virt. eigenvalues --    0.65436   0.65528   0.66172   0.66778   0.66960
 Alpha virt. eigenvalues --    0.67638   0.67872   0.68505   0.68782   0.69255
 Alpha virt. eigenvalues --    0.69373   0.70332   0.70536   0.70711   0.70902
 Alpha virt. eigenvalues --    0.71057   0.71480   0.71648   0.71862   0.72248
 Alpha virt. eigenvalues --    0.72333   0.72544   0.73112   0.73557   0.74062
 Alpha virt. eigenvalues --    0.74267   0.74382   0.74851   0.75047   0.75459
 Alpha virt. eigenvalues --    0.75805   0.76169   0.76838   0.77187   0.77421
 Alpha virt. eigenvalues --    0.77773   0.78080   0.78731   0.79024   0.79643
 Alpha virt. eigenvalues --    0.80215   0.80671   0.80830   0.81492   0.81765
 Alpha virt. eigenvalues --    0.82052   0.82419   0.83323   0.83841   0.83986
 Alpha virt. eigenvalues --    0.84269   0.85663   0.86068   0.86337   0.87092
 Alpha virt. eigenvalues --    0.87253   0.87749   0.87906   0.88757   0.89344
 Alpha virt. eigenvalues --    0.89963   0.90460   0.90739   0.91074   0.92105
 Alpha virt. eigenvalues --    0.92131   0.92501   0.93062   0.93674   0.94199
 Alpha virt. eigenvalues --    0.95403   0.96427   0.96783   0.97130   0.97797
 Alpha virt. eigenvalues --    0.99686   1.00096   1.00377   1.08079   1.16648
 Alpha virt. eigenvalues --    1.17003   1.17969   1.18679   1.19672   1.21064
 Alpha virt. eigenvalues --    1.22503   1.22841   1.23617   1.23803   1.24127
 Alpha virt. eigenvalues --    1.24535   1.24972   1.25209   1.25466   1.25869
 Alpha virt. eigenvalues --    1.26004   1.26223   1.26531   1.26743   1.27042
 Alpha virt. eigenvalues --    1.27611   1.28102   1.28322   1.28701   1.28965
 Alpha virt. eigenvalues --    1.29600   1.29638   1.30495   1.30782   1.31025
 Alpha virt. eigenvalues --    1.31286   1.31644   1.32101   1.32631   1.33205
 Alpha virt. eigenvalues --    1.33365   1.33772   1.34419   1.34890   1.35026
 Alpha virt. eigenvalues --    1.35114   1.35508   1.36166   1.36719   1.36857
 Alpha virt. eigenvalues --    1.37004   1.37414   1.37775   1.38287   1.38748
 Alpha virt. eigenvalues --    1.38940   1.39124   1.39472   1.39750   1.40496
 Alpha virt. eigenvalues --    1.40707   1.41281   1.41444   1.41461   1.41900
 Alpha virt. eigenvalues --    1.42202   1.42584   1.42996   1.43475   1.43559
 Alpha virt. eigenvalues --    1.43883   1.44021   1.44201   1.44502   1.44646
 Alpha virt. eigenvalues --    1.44750   1.44881   1.45256   1.45508   1.45617
 Alpha virt. eigenvalues --    1.46127   1.46559   1.46601   1.46734   1.46980
 Alpha virt. eigenvalues --    1.47393   1.48068   1.48259   1.48709   1.48905
 Alpha virt. eigenvalues --    1.49081   1.49254   1.49456   1.49592   1.49955
 Alpha virt. eigenvalues --    1.50555   1.50850   1.51079   1.51150   1.51635
 Alpha virt. eigenvalues --    1.51754   1.51938   1.52434   1.52654   1.52882
 Alpha virt. eigenvalues --    1.53061   1.53255   1.53490   1.53792   1.54062
 Alpha virt. eigenvalues --    1.54151   1.54305   1.54816   1.54875   1.55067
 Alpha virt. eigenvalues --    1.55317   1.55499   1.55769   1.55830   1.56071
 Alpha virt. eigenvalues --    1.56256   1.56454   1.56770   1.57221   1.57254
 Alpha virt. eigenvalues --    1.57604   1.57997   1.58228   1.58582   1.59057
 Alpha virt. eigenvalues --    1.59357   1.59811   1.59940   1.60171   1.60863
 Alpha virt. eigenvalues --    1.61231   1.61492   1.61697   1.62111   1.62554
 Alpha virt. eigenvalues --    1.63333   1.63446   1.63667   1.64269   1.64832
 Alpha virt. eigenvalues --    1.65335   1.65575   1.67192   1.67388   1.68582
 Alpha virt. eigenvalues --    1.68726   1.69460   1.69724   1.70628   1.70914
 Alpha virt. eigenvalues --    1.71609   1.71864   1.72189   1.73047   1.73372
 Alpha virt. eigenvalues --    1.74576   1.75128   1.75288   1.75900   1.76134
 Alpha virt. eigenvalues --    1.76377   1.77165   1.77342   1.77526   1.78030
 Alpha virt. eigenvalues --    1.78076   1.78195   1.78596   1.79098   1.79448
 Alpha virt. eigenvalues --    1.79704   1.80149   1.80240   1.80757   1.81046
 Alpha virt. eigenvalues --    1.81412   1.81597   1.81943   1.82325   1.82489
 Alpha virt. eigenvalues --    1.82562   1.83144   1.83535   1.83867   1.84889
 Alpha virt. eigenvalues --    1.85011   1.85306   1.86060   1.86490   1.86812
 Alpha virt. eigenvalues --    1.87036   1.87510   1.87989   1.88293   1.88518
 Alpha virt. eigenvalues --    1.88926   1.89099   1.89607   1.89839   1.90104
 Alpha virt. eigenvalues --    1.90270   1.90547   1.90858   1.90954   1.91286
 Alpha virt. eigenvalues --    1.91944   1.92303   1.92659   1.92913   1.92919
 Alpha virt. eigenvalues --    1.93343   1.93633   1.94044   1.94432   1.94652
 Alpha virt. eigenvalues --    1.94940   1.95094   1.95537   1.95716   1.96822
 Alpha virt. eigenvalues --    1.97047   1.98011   1.98369   1.99372   1.99633
 Alpha virt. eigenvalues --    1.99851   2.00222   2.00307   2.00724   2.01207
 Alpha virt. eigenvalues --    2.01355   2.01618   2.02152   2.02612   2.02747
 Alpha virt. eigenvalues --    2.03689   2.04170   2.04926   2.05498   2.05865
 Alpha virt. eigenvalues --    2.06570   2.07597   2.07840   2.08561   2.08995
 Alpha virt. eigenvalues --    2.09351   2.10111   2.10779   2.11228   2.12239
 Alpha virt. eigenvalues --    2.14249   2.14563   2.15678   2.16273   2.17046
 Alpha virt. eigenvalues --    2.17337   2.18182   2.18759   2.19017   2.19626
 Alpha virt. eigenvalues --    2.19932   2.20403   2.20978   2.21391   2.21881
 Alpha virt. eigenvalues --    2.22262   2.22366   2.22638   2.22763   2.24857
 Alpha virt. eigenvalues --    2.25079   2.25620   2.26008   2.26599   2.26860
 Alpha virt. eigenvalues --    2.27877   2.28578   2.29821   2.29936   2.30288
 Alpha virt. eigenvalues --    2.30861   2.30907   2.31066   2.31578   2.31643
 Alpha virt. eigenvalues --    2.31899   2.31966   2.32372   2.32670   2.33035
 Alpha virt. eigenvalues --    2.33135   2.33318   2.33756   2.34045   2.34525
 Alpha virt. eigenvalues --    2.34980   2.35077   2.35130   2.35341   2.35706
 Alpha virt. eigenvalues --    2.35828   2.36630   2.36873   2.37144   2.37406
 Alpha virt. eigenvalues --    2.37639   2.37784   2.38024   2.38315   2.38615
 Alpha virt. eigenvalues --    2.38914   2.39061   2.39244   2.40264   2.41722
 Alpha virt. eigenvalues --    2.42772   2.43166   2.43968   2.45155   2.45310
 Alpha virt. eigenvalues --    2.45677   2.46101   2.46692   2.47268   2.47866
 Alpha virt. eigenvalues --    2.48804   2.49156   2.49900   2.50614   2.51483
 Alpha virt. eigenvalues --    2.52215   2.52643   2.54510   2.54702   2.55598
 Alpha virt. eigenvalues --    2.56075   2.56388   2.57303   2.57444   2.57589
 Alpha virt. eigenvalues --    2.58189   2.58379   2.58605   2.58681   2.59670
 Alpha virt. eigenvalues --    2.60310   2.60520   2.60567   2.61156   2.61212
 Alpha virt. eigenvalues --    2.61662   2.62278   2.62577   2.62877   2.64187
 Alpha virt. eigenvalues --    2.64538   2.64737   2.65158   2.65476   2.66020
 Alpha virt. eigenvalues --    2.66903   2.67642   2.67909   2.68315   2.69378
 Alpha virt. eigenvalues --    2.70103   2.71066   2.71237   2.71829   2.72460
 Alpha virt. eigenvalues --    2.73341   2.74387   2.75198   2.76157   2.76706
 Alpha virt. eigenvalues --    2.77648   2.78001   2.78232   2.78829   2.79308
 Alpha virt. eigenvalues --    2.80110   2.81145   2.81657   2.82543   2.84125
 Alpha virt. eigenvalues --    2.84571   2.84779   2.85397   2.85867   2.86789
 Alpha virt. eigenvalues --    2.87205   2.90060   2.90147   2.90980   2.91294
 Alpha virt. eigenvalues --    2.91802   2.92326   2.92747   2.93201   2.93778
 Alpha virt. eigenvalues --    2.94437   2.94669   2.94861   2.96416   2.96484
 Alpha virt. eigenvalues --    2.96691   2.97369   2.97992   2.98309   2.99093
 Alpha virt. eigenvalues --    2.99181   2.99511   3.00960   3.01542   3.02750
 Alpha virt. eigenvalues --    3.03797   3.04281   3.04438   3.05273   3.05996
 Alpha virt. eigenvalues --    3.06623   3.07345   3.07811   3.08595   3.09358
 Alpha virt. eigenvalues --    3.09493   3.10318   3.11703   3.11870   3.13121
 Alpha virt. eigenvalues --    3.13964   3.14518   3.14691   3.15232   3.15464
 Alpha virt. eigenvalues --    3.16690   3.17061   3.17528   3.18493   3.18930
 Alpha virt. eigenvalues --    3.19136   3.19634   3.20042   3.20850   3.22397
 Alpha virt. eigenvalues --    3.22570   3.23152   3.23470   3.23487   3.24210
 Alpha virt. eigenvalues --    3.24485   3.25370   3.26110   3.28332   3.28976
 Alpha virt. eigenvalues --    3.29748   3.30104   3.30777   3.31344   3.31589
 Alpha virt. eigenvalues --    3.33499   3.34131   3.34961   3.35542   3.35730
 Alpha virt. eigenvalues --    3.37021   3.39165   3.39944   3.41775   3.44997
 Alpha virt. eigenvalues --    3.45353   3.49939   3.50952   3.51708   3.53838
 Alpha virt. eigenvalues --    3.54791   3.55427   3.56411   3.56899   3.57949
 Alpha virt. eigenvalues --    3.60612   3.67726   3.67987   3.82515   3.83844
 Alpha virt. eigenvalues --    3.84375   3.85066   4.03693   4.04965   4.05674
 Alpha virt. eigenvalues --    4.06664   4.28528   4.29346   4.30494   4.30786
 Alpha virt. eigenvalues --   18.70709  19.05040  21.17115  21.21153  21.22245
 Alpha virt. eigenvalues --   21.23139  21.24649  21.25876  21.65768  21.66344
 Alpha virt. eigenvalues --   21.68389  21.69415  21.71667  21.73480  21.73571
 Alpha virt. eigenvalues --   21.74103  21.78992  21.82254  21.82801  21.83331
 Alpha virt. eigenvalues --   21.89388  21.92541  21.92801  21.94411  21.95064
 Alpha virt. eigenvalues --   21.95602  21.97276  21.98441  21.99687  22.00205
 Alpha virt. eigenvalues --   22.01526  22.04114  22.06662  22.09499  22.12410
 Alpha virt. eigenvalues --   22.15000  22.15682  22.18044  31.99434  32.04869
 Alpha virt. eigenvalues --   43.19181  43.20867  43.21279  43.24899
          Condensed to atoms (all electrons):
 Mulliken charges:
               1
     1  C   -0.310393
     2  C   -0.050394
     3  S   -0.086110
     4  C   -0.284011
     5  C    0.117457
     6  C   -0.274816
     7  C    0.015343
     8  C   -0.056352
     9  H    0.133992
    10  C   -0.144461
    11  C   -0.042315
    12  C   -0.089180
    13  C    0.018386
    14  H    0.225538
    15  H    0.114849
    16  H    0.150710
    17  C   -0.172221
    18  H    0.127562
    19  H    0.114190
    20  H    0.108507
    21  H    0.135404
    22  S    0.186365
    23  N    0.047357
    24  C   -0.293084
    25  C    0.039017
    26  C   -0.027021
    27  C   -0.210650
    28  C   -0.170640
    29  C    0.137462
    30  H    0.123255
    31  H    0.121498
    32  H    0.117626
    33  H    0.105108
    34  C   -0.090750
    35  C   -0.098658
    36  C   -0.106696
    37  C   -0.138813
    38  C   -0.180241
    39  C    0.090115
    40  H    0.115091
    41  H    0.173236
    42  H    0.097949
    43  H    0.160821
    44  N    0.023313
    45  C   -0.081238
    46  C   -0.101583
    47  C   -0.085833
    48  C   -0.164534
    49  C   -0.192850
    50  C    0.114207
    51  H    0.135533
    52  H    0.136954
    53  H    0.097928
    54  H    0.107959
    55  C   -0.099829
    56  C   -0.069667
    57  C   -0.136647
    58  C   -0.195543
    59  C   -0.133798
    60  C    0.105080
    61  H    0.126473
    62  H    0.141420
    63  H    0.106166
    64  H    0.119773
    65  O   -0.245148
    66  H    0.267415
    67  O   -0.235770
    68  H    0.270043
    69  O   -0.246207
    70  H    0.265692
    71  O   -0.246374
    72  H    0.267034
 Sum of Mulliken charges =  -0.00000
 Mulliken charges with hydrogens summed into heavy atoms:
               1
     1  C   -0.182831
     2  C   -0.050394
     3  S    0.028080
     4  C   -0.284011
     5  C    0.117457
     6  C   -0.274816
     7  C    0.015343
     8  C    0.052155
    10  C    0.081078
    11  C    0.072535
    12  C    0.061530
    13  C    0.018386
    17  C   -0.036817
    22  S    0.320357
    23  N    0.047357
    24  C   -0.293084
    25  C    0.162272
    26  C    0.094477
    27  C   -0.093024
    28  C   -0.065531
    29  C    0.137462
    34  C   -0.090750
    35  C    0.016433
    36  C    0.066540
    37  C   -0.040864
    38  C   -0.019421
    39  C    0.090115
    44  N    0.023313
    45  C   -0.081238
    46  C    0.033950
    47  C    0.051121
    48  C   -0.066605
    49  C   -0.084892
    50  C    0.114207
    55  C   -0.099829
    56  C    0.056806
    57  C    0.004773
    58  C   -0.089378
    59  C   -0.014025
    60  C    0.105080
    65  O    0.022267
    67  O    0.034274
    69  O    0.019485
    71  O    0.020660
 Electronic spatial extent (au):  <R**2>=          34720.5269
 Charge=             -0.0000 electrons
 Dipole moment (field-independent basis, Debye):
    X=              6.5248    Y=              0.5685    Z=              4.8382  Tot=              8.1427
 Quadrupole moment (field-independent basis, Debye-Ang):
   XX=           -224.5042   YY=           -245.7131   ZZ=           -267.9298
   XY=             10.0919   XZ=              1.0831   YZ=             -6.2626
 Traceless Quadrupole moment (field-independent basis, Debye-Ang):
   XX=             21.5448   YY=              0.3359   ZZ=            -21.8808
   XY=             10.0919   XZ=              1.0831   YZ=             -6.2626
 Octapole moment (field-independent basis, Debye-Ang**2):
  XXX=            219.2761  YYY=             -0.4671  ZZZ=             13.2948  XYY=             97.6230
  XXY=             -3.6093  XXZ=            125.2193  XZZ=              7.4913  YZZ=            -31.9645
  YYZ=            112.3146  XYZ=            -12.4651
 Hexadecapole moment (field-independent basis, Debye-Ang**3):
 XXXX=         -27208.6898 YYYY=         -10475.7247 ZZZZ=          -1846.2816 XXXY=           1184.9751
 XXXZ=            -96.2350 YYYX=           -112.7118 YYYZ=           -303.4615 ZZZX=             30.9722
 ZZZY=            -71.4708 XXYY=          -8149.5466 XXZZ=          -6120.2964 YYZZ=          -2127.1309
 XXYZ=            -98.1225 YYXZ=             21.2519 ZZXY=            -78.8171
 N-N= 5.277723665284D+03 E-N=-1.663751180448D+04  KE= 2.584663498728D+03
 No NMR shielding tensors so no spin-rotation constants.
 Leave Link  601 at Thu Jan 21 15:04:42 2021, MaxMem=  4026531840 cpu:              14.3 elap:               2.2
 (Enter /opt/ohpc/pub/libs/gaussian/g16-A.03/sandybridge/g16/l9999.exe)

 Test job not archived.
 1\1\GINC-CASCADEB028\SP\RLC-wHPBE\TZVP\C36H28N2O4S2\RDU230\21-Jan-2021
 \0\\#P LC-wHPBE/TZVP iop(3/107=0115700000, 3/108=0115700000) scf=(conv
 er=6,fermi,ndamp=35,noincfock,novaracc,vshift=500,xqc)\\H28 C36 S2 N2 
 O4\\0,1\C,0,-1.748928,-0.489907,0.452051\C,0,-0.626174,-1.279763,0.152
 57\S,0,1.952753,-5.388628,0.812439\C,0,-0.882312,-2.170069,-0.820725\C
 ,0,1.932708,-2.897266,-0.476539\C,0,2.566514,-3.761438,0.41855\C,0,-2.
 975354,-0.631957,-0.195801\C,0,-2.049066,-2.386893,-1.545961\H,0,0.246
 316,-4.468801,-0.586079\C,0,2.384401,-1.613824,-0.700024\C,0,3.673888,
 -3.269502,1.095477\C,0,4.135912,-1.984797,0.893895\C,0,3.494497,-1.125
 461,-0.002977\H,0,1.857267,-0.971131,-1.395345\H,0,4.176334,-3.912174,
 1.811785\H,0,4.992977,-1.63215,1.456718\C,0,-3.122467,-1.590215,-1.210
 611\H,0,-1.688273,0.276733,1.226088\H,0,2.539,-6.051116,-0.206249\H,0,
 -2.132551,-3.120151,-2.347153\H,0,-4.068236,-1.688167,-1.734116\S,0,0.
 491419,-3.391365,-1.37893\N,0,3.940024,0.175839,-0.195205\C,0,5.26504,
 0.53915,0.184549\C,0,5.479402,1.520085,1.147894\C,0,6.360048,-0.068673
 ,-0.412912\C,0,6.761446,1.889048,1.505778\C,0,7.649207,0.280692,-0.044
 528\C,0,7.852726,1.26556,0.91321\H,0,4.624132,2.002234,1.612555\H,0,6.
 198832,-0.830082,-1.170918\H,0,6.936355,2.656092,2.253454\H,0,8.499101
 ,-0.206598,-0.518215\C,0,3.067884,1.217797,-0.624973\C,0,3.533169,2.17
 5669,-1.516644\C,0,1.768428,1.324352,-0.133595\C,0,2.72389,3.230889,-1
 .904642\C,0,0.952027,2.363639,-0.537\C,0,1.429133,3.326131,-1.415171\H
 ,0,4.545758,2.102962,-1.902377\H,0,1.364259,0.566763,0.534909\H,0,3.10
 6488,3.978127,-2.597301\H,0,-0.063643,2.437107,-0.162477\N,0,-4.071583
 ,0.199288,0.137893\C,0,-5.379657,-0.330758,0.192504\C,0,-6.464072,0.38
 1862,-0.308117\C,0,-5.615898,-1.583782,0.758482\C,0,-7.748035,-0.13540
 9,-0.237366\C,0,-6.890741,-2.11387,0.808775\C,0,-7.966332,-1.388715,0.
 314728\H,0,-6.301182,1.359246,-0.752201\H,0,-4.779992,-2.148147,1.1609
 2\H,0,-8.582756,0.442294,-0.630527\H,0,-7.071352,-3.090185,1.247847\C,
 0,-3.863071,1.579858,0.373004\C,0,-4.488297,2.228332,1.435995\C,0,-3.0
 28002,2.320518,-0.45569\C,0,-4.288516,3.577498,1.662294\C,0,-2.802155,
 3.666597,-0.218956\C,0,-3.435225,4.300687,0.840523\H,0,-5.141183,1.661
 753,2.093518\H,0,-2.533592,1.828985,-1.288374\H,0,-4.774148,4.081779,2
 .492022\H,0,-2.125658,4.220184,-0.867724\O,0,0.584592,4.343911,-1.7691
 73\H,0,1.03059,4.920168,-2.399784\O,0,9.095256,1.661445,1.308356\H,0,9
 .763222,1.159512,0.827959\O,0,-9.209724,-1.953542,0.400297\H,0,-9.8595
 16,-1.347058,0.028653\O,0,-3.254007,5.627948,1.116747\H,0,-2.609433,5.
 991357,0.499352\\Version=EM64L-G16RevA.03\State=1-A\HF=-2593.8140136\R
 MSD=9.445e-07\Dipole=2.5670352,-0.223677,-1.9034832\Quadrupole=16.0180
 516,0.2497698,-16.2678213,-7.5030733,-0.8052262,-4.6560909\PG=C01 [X(C
 36H28N2O4S2)]\\@


 It is also a good rule not to put too much confidence in
 experimental results until they have been confirmed by
 Theory.
                             -- Sir Arthur Eddington
 Job cpu time:       0 days  4 hours 51 minutes 31.6 seconds.
 Elapsed time:       0 days  0 hours 37 minutes  4.8 seconds.
 File lengths (MBytes):  RWF=    356 Int=      0 D2E=      0 Chk=     64 Scr=      8
 Normal termination of Gaussian 16 at Thu Jan 21 15:04:42 2021.
