 Entering Gaussian System, Link 0=g16
 Input=mol_ta_ma_whol_tune_n5.gjf
 Output=mol_ta_ma_whol_tune_n5.log
 Initial command:
 /opt/ohpc/pub/libs/gaussian/g16-A.03/sandybridge/g16/l1.exe "/mnt/gpfs2_4m/scratch/rdu230/ondemand/projects/init_structures/wtuning/mol_ta_ma_whol/tuning_mol_ta_ma_whol_ocycle0/Gau-124041.inp" -scrdir="/mnt/gpfs2_4m/scratch/rdu230/ondemand/projects/init_structures/wtuning/mol_ta_ma_whol/tuning_mol_ta_ma_whol_ocycle0/"
 Entering Link 1 = /opt/ohpc/pub/libs/gaussian/g16-A.03/sandybridge/g16/l1.exe PID=    124042.
  
 Copyright (c) 1988,1990,1992,1993,1995,1998,2003,2009,2016,
            Gaussian, Inc.  All Rights Reserved.
  
 This is part of the Gaussian(R) 16 program.  It is based on
 the Gaussian(R) 09 system (copyright 2009, Gaussian, Inc.),
 the Gaussian(R) 03 system (copyright 2003, Gaussian, Inc.),
 the Gaussian(R) 98 system (copyright 1998, Gaussian, Inc.),
 the Gaussian(R) 94 system (copyright 1995, Gaussian, Inc.),
 the Gaussian 92(TM) system (copyright 1992, Gaussian, Inc.),
 the Gaussian 90(TM) system (copyright 1990, Gaussian, Inc.),
 the Gaussian 88(TM) system (copyright 1988, Gaussian, Inc.),
 the Gaussian 86(TM) system (copyright 1986, Carnegie Mellon
 University), and the Gaussian 82(TM) system (copyright 1983,
 Carnegie Mellon University). Gaussian is a federally registered
 trademark of Gaussian, Inc.
  
 This software contains proprietary and confidential information,
 including trade secrets, belonging to Gaussian, Inc.
  
 This software is provided under written license and may be
 used, copied, transmitted, or stored only in accord with that
 written license.
  
 The following legend is applicable only to US Government
 contracts under FAR:
  
                    RESTRICTED RIGHTS LEGEND
  
 Use, reproduction and disclosure by the US Government is
 subject to restrictions as set forth in subparagraphs (a)
 and (c) of the Commercial Computer Software - Restricted
 Rights clause in FAR 52.227-19.
  
 Gaussian, Inc.
 340 Quinnipiac St., Bldg. 40, Wallingford CT 06492
  
  
 ---------------------------------------------------------------
 Warning -- This program may not be used in any manner that
 competes with the business of Gaussian, Inc. or will provide
 assistance to any competitor of Gaussian, Inc.  The licensee
 of this program is prohibited from giving any competitor of
 Gaussian, Inc. access to this program.  By using this program,
 the user acknowledges that Gaussian, Inc. is engaged in the
 business of creating and licensing software in the field of
 computational chemistry and represents and warrants to the
 licensee that it is not a competitor of Gaussian, Inc. and that
 it will not use this program in any manner prohibited above.
 ---------------------------------------------------------------
  

 Cite this work as:
 Gaussian 16, Revision A.03,
 M. J. Frisch, G. W. Trucks, H. B. Schlegel, G. E. Scuseria, 
 M. A. Robb, J. R. Cheeseman, G. Scalmani, V. Barone, 
 G. A. Petersson, H. Nakatsuji, X. Li, M. Caricato, A. V. Marenich, 
 J. Bloino, B. G. Janesko, R. Gomperts, B. Mennucci, H. P. Hratchian, 
 J. V. Ortiz, A. F. Izmaylov, J. L. Sonnenberg, D. Williams-Young, 
 F. Ding, F. Lipparini, F. Egidi, J. Goings, B. Peng, A. Petrone, 
 T. Henderson, D. Ranasinghe, V. G. Zakrzewski, J. Gao, N. Rega, 
 G. Zheng, W. Liang, M. Hada, M. Ehara, K. Toyota, R. Fukuda, 
 J. Hasegawa, M. Ishida, T. Nakajima, Y. Honda, O. Kitao, H. Nakai, 
 T. Vreven, K. Throssell, J. A. Montgomery, Jr., J. E. Peralta, 
 F. Ogliaro, M. J. Bearpark, J. J. Heyd, E. N. Brothers, K. N. Kudin, 
 V. N. Staroverov, T. A. Keith, R. Kobayashi, J. Normand, 
 K. Raghavachari, A. P. Rendell, J. C. Burant, S. S. Iyengar, 
 J. Tomasi, M. Cossi, J. M. Millam, M. Klene, C. Adamo, R. Cammi, 
 J. W. Ochterski, R. L. Martin, K. Morokuma, O. Farkas, 
 J. B. Foresman, and D. J. Fox, Gaussian, Inc., Wallingford CT, 2016.
 
 ******************************************
 Gaussian 16:  EM64L-G16RevA.03 25-Dec-2016
                21-Jan-2021 
 ******************************************
 %mem=30GB
 %nproc=8
 Will use up to    8 processors via shared memory.
 ----------------------------------------------------------------------
 #P LC-wHPBE/TZVP iop(3/107=0176200000, 3/108=0176200000) scf=(conver=6
 ,fermi,ndamp=35,noincfock,novaracc,vshift=500,xqc)
 ----------------------------------------------------------------------
 1/38=1,172=1/1;
 2/12=2,17=6,18=5,40=1/2;
 3/5=19,7=101,11=2,25=1,30=1,74=-71,107=176200000,108=176200000/1,2,3;
 4//1;
 5/5=100002,6=6,8=3,10=500,13=1,18=-1,22=13,38=1,93=35/2,8;
 6/7=2,8=2,9=2,10=2,28=1/1;
 99/5=1,9=1/99;
 Leave Link    1 at Thu Jan 21 19:21:48 2021, MaxMem=  4026531840 cpu:               1.1 elap:               0.2
 (Enter /opt/ohpc/pub/libs/gaussian/g16-A.03/sandybridge/g16/l101.exe)
 ----------------
 H28 C36 S2 N2 O4
 ----------------
 Symbolic Z-matrix:
 Charge =  0 Multiplicity = 1
 C                    -1.74893  -0.48991   0.45205 
 C                    -0.62617  -1.27976   0.15257 
 S                     1.95275  -5.38863   0.81244 
 C                    -0.88231  -2.17007  -0.82073 
 C                     1.93271  -2.89727  -0.47654 
 C                     2.56651  -3.76144   0.41855 
 C                    -2.97535  -0.63196  -0.1958 
 C                    -2.04907  -2.38689  -1.54596 
 H                     0.24632  -4.4688   -0.58608 
 C                     2.3844   -1.61382  -0.70002 
 C                     3.67389  -3.2695    1.09548 
 C                     4.13591  -1.9848    0.8939 
 C                     3.4945   -1.12546  -0.00298 
 H                     1.85727  -0.97113  -1.39535 
 H                     4.17633  -3.91217   1.81179 
 H                     4.99298  -1.63215   1.45672 
 C                    -3.12247  -1.59022  -1.21061 
 H                    -1.68827   0.27673   1.22609 
 H                     2.539    -6.05112  -0.20625 
 H                    -2.13255  -3.12015  -2.34715 
 H                    -4.06824  -1.68817  -1.73412 
 S                     0.49142  -3.39136  -1.37893 
 N                     3.94002   0.17584  -0.19521 
 C                     5.26504   0.53915   0.18455 
 C                     5.4794    1.52009   1.14789 
 C                     6.36005  -0.06867  -0.41291 
 C                     6.76145   1.88905   1.50578 
 C                     7.64921   0.28069  -0.04453 
 C                     7.85273   1.26556   0.91321 
 H                     4.62413   2.00223   1.61256 
 H                     6.19883  -0.83008  -1.17092 
 H                     6.93636   2.65609   2.25345 
 H                     8.4991   -0.2066   -0.51822 
 C                     3.06788   1.2178   -0.62497 
 C                     3.53317   2.17567  -1.51664 
 C                     1.76843   1.32435  -0.1336 
 C                     2.72389   3.23089  -1.90464 
 C                     0.95203   2.36364  -0.537 
 C                     1.42913   3.32613  -1.41517 
 H                     4.54576   2.10296  -1.90238 
 H                     1.36426   0.56676   0.53491 
 H                     3.10649   3.97813  -2.5973 
 H                    -0.06364   2.43711  -0.16248 
 N                    -4.07158   0.19929   0.13789 
 C                    -5.37966  -0.33076   0.1925 
 C                    -6.46407   0.38186  -0.30812 
 C                    -5.6159   -1.58378   0.75848 
 C                    -7.74803  -0.13541  -0.23737 
 C                    -6.89074  -2.11387   0.80878 
 C                    -7.96633  -1.38872   0.31473 
 H                    -6.30118   1.35925  -0.7522 
 H                    -4.77999  -2.14815   1.16092 
 H                    -8.58276   0.44229  -0.63053 
 H                    -7.07135  -3.09018   1.24785 
 C                    -3.86307   1.57986   0.373 
 C                    -4.4883    2.22833   1.436 
 C                    -3.028     2.32052  -0.45569 
 C                    -4.28852   3.5775    1.66229 
 C                    -2.80216   3.6666   -0.21896 
 C                    -3.43522   4.30069   0.84052 
 H                    -5.14118   1.66175   2.09352 
 H                    -2.53359   1.82899  -1.28837 
 H                    -4.77415   4.08178   2.49202 
 H                    -2.12566   4.22018  -0.86772 
 O                     0.58459   4.34391  -1.76917 
 H                     1.03059   4.92017  -2.39978 
 O                     9.09526   1.66145   1.30836 
 H                     9.76322   1.15951   0.82796 
 O                    -9.20972  -1.95354   0.4003 
 H                    -9.85952  -1.34706   0.02865 
 O                    -3.25401   5.62795   1.11675 
 H                    -2.60943   5.99136   0.49935 
 
 ITRead=  0  0  0  0  0  0  0  0  0  0  0  0  0  0  0  0  0  0  0  0
 ITRead=  0  0  0  0  0  0  0  0  0  0  0  0  0  0  0  0  0  0  0  0
 ITRead=  0  0  0  0  0  0  0  0  0  0  0  0  0  0  0  0  0  0  0  0
 ITRead=  0  0  0  0  0  0  0  0  0  0  0  0
 MicOpt= -1 -1 -1 -1 -1 -1 -1 -1 -1 -1 -1 -1 -1 -1 -1 -1 -1 -1 -1 -1
 MicOpt= -1 -1 -1 -1 -1 -1 -1 -1 -1 -1 -1 -1 -1 -1 -1 -1 -1 -1 -1 -1
 MicOpt= -1 -1 -1 -1 -1 -1 -1 -1 -1 -1 -1 -1 -1 -1 -1 -1 -1 -1 -1 -1
 MicOpt= -1 -1 -1 -1 -1 -1 -1 -1 -1 -1 -1 -1
 NAtoms=     72 NQM=       72 NQMF=       0 NMMI=      0 NMMIF=      0
                NMic=       0 NMicF=      0.
                    Isotopes and Nuclear Properties:
 (Nuclear quadrupole moments (NQMom) in fm**2, nuclear magnetic moments (NMagM)
  in nuclear magnetons)

  Atom         1           2           3           4           5           6           7           8           9          10
 IAtWgt=          12          12          32          12          12          12          12          12           1          12
 AtmWgt=  12.0000000  12.0000000  31.9720718  12.0000000  12.0000000  12.0000000  12.0000000  12.0000000   1.0078250  12.0000000
 NucSpn=           0           0           0           0           0           0           0           0           1           0
 AtZEff=  -0.0000000  -0.0000000  -0.0000000  -0.0000000  -0.0000000  -0.0000000  -0.0000000  -0.0000000  -0.0000000  -0.0000000
 NQMom=    0.0000000   0.0000000   0.0000000   0.0000000   0.0000000   0.0000000   0.0000000   0.0000000   0.0000000   0.0000000
 NMagM=    0.0000000   0.0000000   0.0000000   0.0000000   0.0000000   0.0000000   0.0000000   0.0000000   2.7928460   0.0000000
 AtZNuc=   6.0000000   6.0000000  16.0000000   6.0000000   6.0000000   6.0000000   6.0000000   6.0000000   1.0000000   6.0000000

  Atom        11          12          13          14          15          16          17          18          19          20
 IAtWgt=          12          12          12           1           1           1          12           1           1           1
 AtmWgt=  12.0000000  12.0000000  12.0000000   1.0078250   1.0078250   1.0078250  12.0000000   1.0078250   1.0078250   1.0078250
 NucSpn=           0           0           0           1           1           1           0           1           1           1
 AtZEff=  -0.0000000  -0.0000000  -0.0000000  -0.0000000  -0.0000000  -0.0000000  -0.0000000  -0.0000000  -0.0000000  -0.0000000
 NQMom=    0.0000000   0.0000000   0.0000000   0.0000000   0.0000000   0.0000000   0.0000000   0.0000000   0.0000000   0.0000000
 NMagM=    0.0000000   0.0000000   0.0000000   2.7928460   2.7928460   2.7928460   0.0000000   2.7928460   2.7928460   2.7928460
 AtZNuc=   6.0000000   6.0000000   6.0000000   1.0000000   1.0000000   1.0000000   6.0000000   1.0000000   1.0000000   1.0000000

  Atom        21          22          23          24          25          26          27          28          29          30
 IAtWgt=           1          32          14          12          12          12          12          12          12           1
 AtmWgt=   1.0078250  31.9720718  14.0030740  12.0000000  12.0000000  12.0000000  12.0000000  12.0000000  12.0000000   1.0078250
 NucSpn=           1           0           2           0           0           0           0           0           0           1
 AtZEff=  -0.0000000  -0.0000000  -0.0000000  -0.0000000  -0.0000000  -0.0000000  -0.0000000  -0.0000000  -0.0000000  -0.0000000
 NQMom=    0.0000000   0.0000000   2.0440000   0.0000000   0.0000000   0.0000000   0.0000000   0.0000000   0.0000000   0.0000000
 NMagM=    2.7928460   0.0000000   0.4037610   0.0000000   0.0000000   0.0000000   0.0000000   0.0000000   0.0000000   2.7928460
 AtZNuc=   1.0000000  16.0000000   7.0000000   6.0000000   6.0000000   6.0000000   6.0000000   6.0000000   6.0000000   1.0000000

  Atom        31          32          33          34          35          36          37          38          39          40
 IAtWgt=           1           1           1          12          12          12          12          12          12           1
 AtmWgt=   1.0078250   1.0078250   1.0078250  12.0000000  12.0000000  12.0000000  12.0000000  12.0000000  12.0000000   1.0078250
 NucSpn=           1           1           1           0           0           0           0           0           0           1
 AtZEff=  -0.0000000  -0.0000000  -0.0000000  -0.0000000  -0.0000000  -0.0000000  -0.0000000  -0.0000000  -0.0000000  -0.0000000
 NQMom=    0.0000000   0.0000000   0.0000000   0.0000000   0.0000000   0.0000000   0.0000000   0.0000000   0.0000000   0.0000000
 NMagM=    2.7928460   2.7928460   2.7928460   0.0000000   0.0000000   0.0000000   0.0000000   0.0000000   0.0000000   2.7928460
 AtZNuc=   1.0000000   1.0000000   1.0000000   6.0000000   6.0000000   6.0000000   6.0000000   6.0000000   6.0000000   1.0000000

  Atom        41          42          43          44          45          46          47          48          49          50
 IAtWgt=           1           1           1          14          12          12          12          12          12          12
 AtmWgt=   1.0078250   1.0078250   1.0078250  14.0030740  12.0000000  12.0000000  12.0000000  12.0000000  12.0000000  12.0000000
 NucSpn=           1           1           1           2           0           0           0           0           0           0
 AtZEff=  -0.0000000  -0.0000000  -0.0000000  -0.0000000  -0.0000000  -0.0000000  -0.0000000  -0.0000000  -0.0000000  -0.0000000
 NQMom=    0.0000000   0.0000000   0.0000000   2.0440000   0.0000000   0.0000000   0.0000000   0.0000000   0.0000000   0.0000000
 NMagM=    2.7928460   2.7928460   2.7928460   0.4037610   0.0000000   0.0000000   0.0000000   0.0000000   0.0000000   0.0000000
 AtZNuc=   1.0000000   1.0000000   1.0000000   7.0000000   6.0000000   6.0000000   6.0000000   6.0000000   6.0000000   6.0000000

  Atom        51          52          53          54          55          56          57          58          59          60
 IAtWgt=           1           1           1           1          12          12          12          12          12          12
 AtmWgt=   1.0078250   1.0078250   1.0078250   1.0078250  12.0000000  12.0000000  12.0000000  12.0000000  12.0000000  12.0000000
 NucSpn=           1           1           1           1           0           0           0           0           0           0
 AtZEff=  -0.0000000  -0.0000000  -0.0000000  -0.0000000  -0.0000000  -0.0000000  -0.0000000  -0.0000000  -0.0000000  -0.0000000
 NQMom=    0.0000000   0.0000000   0.0000000   0.0000000   0.0000000   0.0000000   0.0000000   0.0000000   0.0000000   0.0000000
 NMagM=    2.7928460   2.7928460   2.7928460   2.7928460   0.0000000   0.0000000   0.0000000   0.0000000   0.0000000   0.0000000
 AtZNuc=   1.0000000   1.0000000   1.0000000   1.0000000   6.0000000   6.0000000   6.0000000   6.0000000   6.0000000   6.0000000

  Atom        61          62          63          64          65          66          67          68          69          70
 IAtWgt=           1           1           1           1          16           1          16           1          16           1
 AtmWgt=   1.0078250   1.0078250   1.0078250   1.0078250  15.9949146   1.0078250  15.9949146   1.0078250  15.9949146   1.0078250
 NucSpn=           1           1           1           1           0           1           0           1           0           1
 AtZEff=  -0.0000000  -0.0000000  -0.0000000  -0.0000000  -0.0000000  -0.0000000  -0.0000000  -0.0000000  -0.0000000  -0.0000000
 NQMom=    0.0000000   0.0000000   0.0000000   0.0000000   0.0000000   0.0000000   0.0000000   0.0000000   0.0000000   0.0000000
 NMagM=    2.7928460   2.7928460   2.7928460   2.7928460   0.0000000   2.7928460   0.0000000   2.7928460   0.0000000   2.7928460
 AtZNuc=   1.0000000   1.0000000   1.0000000   1.0000000   8.0000000   1.0000000   8.0000000   1.0000000   8.0000000   1.0000000

  Atom        71          72
 IAtWgt=          16           1
 AtmWgt=  15.9949146   1.0078250
 NucSpn=           0           1
 AtZEff=  -0.0000000  -0.0000000
 NQMom=    0.0000000   0.0000000
 NMagM=    0.0000000   2.7928460
 AtZNuc=   8.0000000   1.0000000
 Leave Link  101 at Thu Jan 21 19:21:48 2021, MaxMem=  4026531840 cpu:               0.5 elap:               0.2
 (Enter /opt/ohpc/pub/libs/gaussian/g16-A.03/sandybridge/g16/l202.exe)
 Stoichiometry    C36H28N2O4S2
 Framework group  C1[X(C36H28N2O4S2)]
 Deg. of freedom   210
 Full point group                 C1      NOp   1
 Largest Abelian subgroup         C1      NOp   1
 Largest concise Abelian subgroup C1      NOp   1
                         Standard orientation:                         
 ---------------------------------------------------------------------
 Center     Atomic      Atomic             Coordinates (Angstroms)
 Number     Number       Type             X           Y           Z
 ---------------------------------------------------------------------
      1          6           0       -1.748928    0.489907   -0.452051
      2          6           0       -0.626174    1.279763   -0.152570
      3         16           0        1.952753    5.388628   -0.812439
      4          6           0       -0.882312    2.170069    0.820725
      5          6           0        1.932708    2.897266    0.476539
      6          6           0        2.566514    3.761438   -0.418550
      7          6           0       -2.975354    0.631957    0.195801
      8          6           0       -2.049066    2.386893    1.545961
      9          1           0        0.246316    4.468801    0.586079
     10          6           0        2.384401    1.613824    0.700024
     11          6           0        3.673888    3.269502   -1.095477
     12          6           0        4.135912    1.984797   -0.893895
     13          6           0        3.494497    1.125461    0.002977
     14          1           0        1.857267    0.971131    1.395345
     15          1           0        4.176334    3.912174   -1.811785
     16          1           0        4.992977    1.632150   -1.456718
     17          6           0       -3.122467    1.590215    1.210611
     18          1           0       -1.688273   -0.276733   -1.226088
     19          1           0        2.539000    6.051116    0.206249
     20          1           0       -2.132551    3.120151    2.347153
     21          1           0       -4.068236    1.688167    1.734116
     22         16           0        0.491419    3.391365    1.378930
     23          7           0        3.940024   -0.175839    0.195205
     24          6           0        5.265040   -0.539150   -0.184549
     25          6           0        5.479402   -1.520085   -1.147894
     26          6           0        6.360048    0.068673    0.412912
     27          6           0        6.761446   -1.889048   -1.505778
     28          6           0        7.649207   -0.280692    0.044528
     29          6           0        7.852726   -1.265560   -0.913210
     30          1           0        4.624132   -2.002234   -1.612555
     31          1           0        6.198832    0.830082    1.170918
     32          1           0        6.936355   -2.656092   -2.253454
     33          1           0        8.499101    0.206598    0.518215
     34          6           0        3.067884   -1.217797    0.624973
     35          6           0        3.533169   -2.175669    1.516644
     36          6           0        1.768428   -1.324352    0.133595
     37          6           0        2.723890   -3.230889    1.904642
     38          6           0        0.952027   -2.363639    0.537000
     39          6           0        1.429133   -3.326131    1.415171
     40          1           0        4.545758   -2.102962    1.902377
     41          1           0        1.364259   -0.566763   -0.534909
     42          1           0        3.106488   -3.978127    2.597301
     43          1           0       -0.063643   -2.437107    0.162477
     44          7           0       -4.071583   -0.199288   -0.137893
     45          6           0       -5.379657    0.330758   -0.192504
     46          6           0       -6.464072   -0.381862    0.308117
     47          6           0       -5.615898    1.583782   -0.758482
     48          6           0       -7.748035    0.135409    0.237366
     49          6           0       -6.890741    2.113870   -0.808775
     50          6           0       -7.966332    1.388715   -0.314728
     51          1           0       -6.301182   -1.359246    0.752201
     52          1           0       -4.779992    2.148147   -1.160920
     53          1           0       -8.582756   -0.442294    0.630527
     54          1           0       -7.071352    3.090185   -1.247847
     55          6           0       -3.863071   -1.579858   -0.373004
     56          6           0       -4.488297   -2.228332   -1.435995
     57          6           0       -3.028002   -2.320518    0.455690
     58          6           0       -4.288516   -3.577498   -1.662294
     59          6           0       -2.802155   -3.666597    0.218956
     60          6           0       -3.435225   -4.300687   -0.840523
     61          1           0       -5.141183   -1.661753   -2.093518
     62          1           0       -2.533592   -1.828985    1.288374
     63          1           0       -4.774148   -4.081779   -2.492022
     64          1           0       -2.125658   -4.220184    0.867724
     65          8           0        0.584592   -4.343911    1.769173
     66          1           0        1.030590   -4.920168    2.399784
     67          8           0        9.095256   -1.661445   -1.308356
     68          1           0        9.763222   -1.159512   -0.827959
     69          8           0       -9.209724    1.953542   -0.400297
     70          1           0       -9.859516    1.347058   -0.028653
     71          8           0       -3.254007   -5.627948   -1.116747
     72          1           0       -2.609433   -5.991357   -0.499352
 ---------------------------------------------------------------------
 Rotational constants (GHZ):           0.1003685           0.0370235           0.0288534
 Leave Link  202 at Thu Jan 21 19:21:48 2021, MaxMem=  4026531840 cpu:               0.3 elap:               0.1
 (Enter /opt/ohpc/pub/libs/gaussian/g16-A.03/sandybridge/g16/l301.exe)
 Standard basis: TZVP (5D, 7F)
 Ernie: Thresh=  0.10000D-02 Tol=  0.10000D-05 Strict=F.
 There are  1054 symmetry adapted cartesian basis functions of A   symmetry.
 There are  1010 symmetry adapted basis functions of A   symmetry.
  1010 basis functions,  1788 primitive gaussians,  1054 cartesian basis functions
   161 alpha electrons      161 beta electrons
       nuclear repulsion energy      5277.7236652844 Hartrees.
 IExCor=33909 DFT=T Ex+Corr=LC-wHPBE ExCW=0 ScaHFX=  1.000000
 ScaDFX=  1.000000  1.000000  1.000000  1.000000 ScalE2=  1.000000  1.000000
 IRadAn=      5 IRanWt=     -1 IRanGd=            0 ICorTp=0 IEmpDi=  4
 HFx  wShort=  0.000000 wLong=  0.176200 cFull=  0.000000 cShort=  0.000000 cLong=  1.000000
 DFx  wShort=  0.000000 wLong=  0.176200 cFull=  0.000000 cShort=  1.000000 cLong=  0.000000
 NAtoms=   72 NActive=   72 NUniq=   72 SFac= 1.00D+00 NAtFMM=   60 NAOKFM=T Big=T
 Integral buffers will be    131072 words long.
 Raffenetti 2 integral format.
 Two-electron integral symmetry is turned on.
 Leave Link  301 at Thu Jan 21 19:21:48 2021, MaxMem=  4026531840 cpu:               0.3 elap:               0.1
 (Enter /opt/ohpc/pub/libs/gaussian/g16-A.03/sandybridge/g16/l302.exe)
 NPDir=0 NMtPBC=     1 NCelOv=     1 NCel=       1 NClECP=     1 NCelD=      1
         NCelK=      1 NCelE2=     1 NClLst=     1 CellRange=     0.0.
 One-electron integrals computed using PRISM.
 One-electron integral symmetry used in STVInt
 NBasis=  1010 RedAO= T EigKep=  6.33D-06  NBF=  1010
 NBsUse=  1010 1.00D-06 EigRej= -1.00D+00 NBFU=  1010
 Precomputing XC quadrature grid using
 IXCGrd= 4 IRadAn=           5 IRanWt=          -1 IRanGd=           0 AccXCQ= 0.00D+00.
 Generated NRdTot=       0 NPtTot=           0 NUsed=           0 NTot=          32
 NSgBfM=   960   960   960   960   960 MxSgAt=    72 MxSgA2=    72.
 Leave Link  302 at Thu Jan 21 19:21:57 2021, MaxMem=  4026531840 cpu:              45.7 elap:               9.2
 (Enter /opt/ohpc/pub/libs/gaussian/g16-A.03/sandybridge/g16/l303.exe)
 DipDrv:  MaxL=1.
 Leave Link  303 at Thu Jan 21 19:21:58 2021, MaxMem=  4026531840 cpu:               2.1 elap:               0.5
 (Enter /opt/ohpc/pub/libs/gaussian/g16-A.03/sandybridge/g16/l401.exe)
 ExpMin= 9.52D-02 ExpMax= 6.07D+04 ExpMxC= 2.07D+03 IAcc=3 IRadAn=         5 AccDes= 0.00D+00
 Harris functional with IExCor=33909 and IRadAn=       5 diagonalized for initial guess.
 HarFok:  IExCor=33909 AccDes= 0.00D+00 IRadAn=         5 IDoV= 1 UseB2=F ITyADJ=14
 ICtDFT=  3500011 ScaDFX=  1.000000  1.000000  1.000000  1.000000
 FoFCou: FMM=F IPFlag=           0 FMFlag=      100000 FMFlg1=        2001
         NFxFlg=           0 DoJE=T BraDBF=F KetDBF=T FulRan=T
         wScrn=  0.000000 ICntrl=       500 IOpCl=  0 I1Cent=   200000004 NGrid=           0
         NMat0=    1 NMatS0=      1 NMatT0=    0 NMatD0=    1 NMtDS0=    0 NMtDT0=    0
 Petite list used in FoFCou.
 Harris En= -2563.48526407097    
 JPrj=0 DoOrth=F DoCkMO=F.
 Leave Link  401 at Thu Jan 21 19:22:18 2021, MaxMem=  4026531840 cpu:             121.4 elap:              20.4
 (Enter /opt/ohpc/pub/libs/gaussian/g16-A.03/sandybridge/g16/l502.exe)
 Integral symmetry usage will be decided dynamically.
 Closed shell SCF:
 Using DIIS extrapolation, IDIIS=    10.
 NGot=  4026531840 LenX=  4024291472 LenY=  4023179502
 Requested convergence on RMS density matrix=1.00D-06 within  32 cycles.
 Requested convergence on MAX density matrix=1.00D-04.
 Requested convergence on             energy=1.00D-04.
 Virtual orbitals will be shifted by   0.500 hartree.
 No special actions if energy rises.
 Dynamic level shift is on during FON iterations.

 Cycle   1  Pass 1  IDiag  1:
 FoFJK:  IHMeth= 1 ICntrl=       0 DoSepK=T KAlg= 0 I1Cent=           0 FoldK=F
 IRaf=         1 NMat=       1 IRICut=       1 DoRegI=T DoRafI=F ISym2E= 0 IDoP0=0 IntGTp=1.
 FoFCou: FMM=T IPFlag=           0 FMFlag=      100000 FMFlg1=        2001
         NFxFlg=           0 DoJE=T BraDBF=F KetDBF=F FulRan=T
         wScrn=  0.000000 ICntrl=       500 IOpCl=  0 I1Cent=           0 NGrid=           0
         NMat0=    1 NMatS0=      1 NMatT0=    0 NMatD0=    1 NMtDS0=    0 NMtDT0=    0
 Symmetry not used in FoFCou.
 FMM levels:  10  Number of levels for PrismC:   9
 E= -2593.05494108064    
 DIIS: error= 1.90D-02 at cycle   1 NSaved=   1.
 NSaved= 1 IEnMin= 1 EnMin= -2593.05494108064     IErMin= 1 ErrMin= 1.90D-02
 ErrMax= 1.90D-02  0.00D+00 EMaxC= 1.00D+00 BMatC= 9.20D-01 BMatP= 9.20D-01
 IDIUse=1 WtCom= 1.00D+00 WtEn= 0.00D+00
 Coeff-Com:  0.100D+01
 Coeff:      0.100D+01
 Gap=     0.371 Goal=   None    Shift=    0.500
 T= 1222. Gap= 0.443 NK=0 IS=  162 IE= 1010 IFin=  161
          NO(<0.9)=   0  NV(>0.1)=   0    161.00e < EF      0.00e >EF  Err=0.0D+00
 GapD=    0.371 DampG=1.000 DampE=0.500 DampFc=0.5000 IDamp=-1.
 Damping current iteration by 5.00D-01
 RMSDP=3.38D-03 MaxDP=4.67D-01              OVMax= 1.41D-01

 Cycle   2  Pass 1  IDiag  1:
 E= -2593.62108937768     Delta-E=       -0.566148297043 Rises=F Damp=T
 DIIS: error= 7.77D-03 at cycle   2 NSaved=   2.
 NSaved= 2 IEnMin= 2 EnMin= -2593.62108937768     IErMin= 2 ErrMin= 7.77D-03
 ErrMax= 7.77D-03  0.00D+00 EMaxC= 1.00D+00 BMatC= 1.30D-01 BMatP= 9.20D-01
 IDIUse=1 WtCom= 1.00D+00 WtEn= 0.00D+00
 Coeff-Com: -0.465D+00 0.146D+01
 Coeff:     -0.465D+00 0.146D+01
 Gap=     0.232 Goal=   None    Shift=    0.500
 T= 1090. Gap= 0.687 NK=0 IS=  162 IE= 1010 IFin=  161
          NO(<0.9)=   0  NV(>0.1)=   0    161.00e < EF      0.00e >EF  Err=0.0D+00
 GapD=    0.232 DampG=1.000 DampE=1.000 DampFc=1.0000 IDamp=-1.
 RMSDP=1.56D-03 MaxDP=1.49D-01 DE=-5.66D-01 OVMax= 1.96D-02

 Cycle   3  Pass 1  IDiag  1:
 E= -2593.93986646855     Delta-E=       -0.318777090864 Rises=F Damp=F
 DIIS: error= 1.95D-03 at cycle   3 NSaved=   3.
 NSaved= 3 IEnMin= 3 EnMin= -2593.93986646855     IErMin= 3 ErrMin= 1.95D-03
 ErrMax= 1.95D-03  0.00D+00 EMaxC= 1.00D+00 BMatC= 1.35D-02 BMatP= 1.30D-01
 IDIUse=1 WtCom= 1.00D+00 WtEn= 0.00D+00
 Coeff-Com:  0.551D-01 0.890D-01 0.856D+00
 Coeff:      0.551D-01 0.890D-01 0.856D+00
 Gap=     0.211 Goal=   None    Shift=    0.500
 T=  811. Gap= 0.707 NK=0 IS=  162 IE= 1010 IFin=  161
          NO(<0.9)=   0  NV(>0.1)=   0    161.00e < EF      0.00e >EF  Err=0.0D+00
 GapD=    0.211 DampG=1.000 DampE=1.000 DampFc=1.0000 IDamp=-1.
 RMSDP=6.25D-04 MaxDP=1.03D-01 DE=-3.19D-01 OVMax= 9.34D-03

 Cycle   4  Pass 1  IDiag  1:
 E= -2593.95188586527     Delta-E=       -0.012019396724 Rises=F Damp=F
 DIIS: error= 9.92D-04 at cycle   4 NSaved=   4.
 NSaved= 4 IEnMin= 4 EnMin= -2593.95188586527     IErMin= 4 ErrMin= 9.92D-04
 ErrMax= 9.92D-04  0.00D+00 EMaxC= 1.00D+00 BMatC= 1.88D-03 BMatP= 1.35D-02
 IDIUse=1 WtCom= 1.00D+00 WtEn= 0.00D+00
 Coeff-Com:  0.738D-01-0.947D-01 0.719D-01 0.949D+00
 Coeff:      0.738D-01-0.947D-01 0.719D-01 0.949D+00
 Gap=     0.209 Goal=   None    Shift=    0.500
 RMSDP=2.91D-04 MaxDP=4.78D-02 DE=-1.20D-02 OVMax= 6.65D-03

 Cycle   5  Pass 1  IDiag  1:
 E= -2593.95369580743     Delta-E=       -0.001809942161 Rises=F Damp=F
 DIIS: error= 3.20D-04 at cycle   5 NSaved=   5.
 NSaved= 5 IEnMin= 5 EnMin= -2593.95369580743     IErMin= 5 ErrMin= 3.20D-04
 ErrMax= 3.20D-04  0.00D+00 EMaxC= 1.00D+00 BMatC= 2.33D-04 BMatP= 1.88D-03
 IDIUse=1 WtCom= 1.00D+00 WtEn= 0.00D+00
 Coeff-Com:  0.131D-01-0.245D-01-0.704D-01 0.126D-01 0.107D+01
 Coeff:      0.131D-01-0.245D-01-0.704D-01 0.126D-01 0.107D+01
 Gap=     0.211 Goal=   None    Shift=    0.500
 RMSDP=1.75D-04 MaxDP=2.88D-02 DE=-1.81D-03 OVMax= 5.05D-03

 Cycle   6  Pass 1  IDiag  1:
 E= -2593.95411420214     Delta-E=       -0.000418394709 Rises=F Damp=F
 DIIS: error= 2.80D-04 at cycle   6 NSaved=   6.
 NSaved= 6 IEnMin= 6 EnMin= -2593.95411420214     IErMin= 6 ErrMin= 2.80D-04
 ErrMax= 2.80D-04  0.00D+00 EMaxC= 1.00D+00 BMatC= 4.84D-05 BMatP= 2.33D-04
 IDIUse=1 WtCom= 1.00D+00 WtEn= 0.00D+00
 Coeff-Com: -0.999D-02 0.121D-01-0.429D-01-0.130D+00 0.933D-02 0.116D+01
 Coeff:     -0.999D-02 0.121D-01-0.429D-01-0.130D+00 0.933D-02 0.116D+01
 Gap=     0.211 Goal=   None    Shift=    0.500
 RMSDP=1.03D-04 MaxDP=1.65D-02 DE=-4.18D-04 OVMax= 4.61D-03

 Cycle   7  Pass 1  IDiag  1:
 E= -2593.95427382868     Delta-E=       -0.000159626536 Rises=F Damp=F
 DIIS: error= 2.27D-04 at cycle   7 NSaved=   7.
 NSaved= 7 IEnMin= 7 EnMin= -2593.95427382868     IErMin= 7 ErrMin= 2.27D-04
 ErrMax= 2.27D-04  0.00D+00 EMaxC= 1.00D+00 BMatC= 1.89D-05 BMatP= 4.84D-05
 IDIUse=1 WtCom= 1.00D+00 WtEn= 0.00D+00
 Coeff-Com: -0.522D-02 0.635D-02 0.684D-02-0.337D-01-0.313D+00-0.133D+00
 Coeff-Com:  0.147D+01
 Coeff:     -0.522D-02 0.635D-02 0.684D-02-0.337D-01-0.313D+00-0.133D+00
 Coeff:      0.147D+01
 Gap=     0.212 Goal=   None    Shift=    0.500
 RMSDP=6.89D-05 MaxDP=1.02D-02 DE=-1.60D-04 OVMax= 4.00D-03

 Cycle   8  Pass 1  IDiag  1:
 E= -2593.95435846047     Delta-E=       -0.000084631797 Rises=F Damp=F
 DIIS: error= 1.90D-04 at cycle   8 NSaved=   8.
 NSaved= 8 IEnMin= 8 EnMin= -2593.95435846047     IErMin= 8 ErrMin= 1.90D-04
 ErrMax= 1.90D-04  0.00D+00 EMaxC= 1.00D+00 BMatC= 9.02D-06 BMatP= 1.89D-05
 IDIUse=1 WtCom= 1.00D+00 WtEn= 0.00D+00
 Coeff-Com:  0.275D-02-0.496D-02 0.212D-01 0.327D-01-0.124D+00-0.549D+00
 Coeff-Com:  0.123D+00 0.150D+01
 Coeff:      0.275D-02-0.496D-02 0.212D-01 0.327D-01-0.124D+00-0.549D+00
 Coeff:      0.123D+00 0.150D+01
 Gap=     0.212 Goal=   None    Shift=    0.500
 RMSDP=4.96D-05 MaxDP=6.75D-03 DE=-8.46D-05 OVMax= 3.38D-03

 Cycle   9  Pass 1  IDiag  1:
 E= -2593.95440632522     Delta-E=       -0.000047864753 Rises=F Damp=F
 DIIS: error= 1.58D-04 at cycle   9 NSaved=   9.
 NSaved= 9 IEnMin= 9 EnMin= -2593.95440632522     IErMin= 9 ErrMin= 1.58D-04
 ErrMax= 1.58D-04  0.00D+00 EMaxC= 1.00D+00 BMatC= 4.58D-06 BMatP= 9.02D-06
 IDIUse=1 WtCom= 1.00D+00 WtEn= 0.00D+00
 Coeff-Com:  0.369D-02-0.540D-02 0.531D-02 0.309D-01 0.145D+00-0.271D+00
 Coeff-Com: -0.729D+00-0.853D-01 0.191D+01
 Coeff:      0.369D-02-0.540D-02 0.531D-02 0.309D-01 0.145D+00-0.271D+00
 Coeff:     -0.729D+00-0.853D-01 0.191D+01
 Gap=     0.212 Goal=   None    Shift=    0.500
 RMSDP=3.75D-05 MaxDP=4.39D-03 DE=-4.79D-05 OVMax= 3.01D-03

 Cycle  10  Pass 1  IDiag  1:
 E= -2593.95443528916     Delta-E=       -0.000028963937 Rises=F Damp=F
 DIIS: error= 1.25D-04 at cycle  10 NSaved=  10.
 NSaved=10 IEnMin=10 EnMin= -2593.95443528916     IErMin=10 ErrMin= 1.25D-04
 ErrMax= 1.25D-04  0.00D+00 EMaxC= 1.00D+00 BMatC= 2.51D-06 BMatP= 4.58D-06
 IDIUse=1 WtCom= 1.00D+00 WtEn= 0.00D+00
 Coeff-Com:  0.483D-03-0.317D-03-0.676D-02 0.937D-02 0.131D+00 0.137D-01
 Coeff-Com: -0.368D+00-0.656D+00 0.131D-01 0.186D+01
 Coeff:      0.483D-03-0.317D-03-0.676D-02 0.937D-02 0.131D+00 0.137D-01
 Coeff:     -0.368D+00-0.656D+00 0.131D-01 0.186D+01
 Gap=     0.213 Goal=   None    Shift=    0.500
 RMSDP=2.74D-05 MaxDP=3.45D-03 DE=-2.90D-05 OVMax= 2.47D-03

 Cycle  11  Pass 1  IDiag  1:
 E= -2593.95445208428     Delta-E=       -0.000016795114 Rises=F Damp=F
 DIIS: error= 9.89D-05 at cycle  11 NSaved=  11.
 NSaved=11 IEnMin=11 EnMin= -2593.95445208428     IErMin=11 ErrMin= 9.89D-05
 ErrMax= 9.89D-05  0.00D+00 EMaxC= 1.00D+00 BMatC= 1.40D-06 BMatP= 2.51D-06
 IDIUse=1 WtCom= 1.00D+00 WtEn= 0.00D+00
 Coeff-Com: -0.142D-02 0.226D-02-0.433D-02-0.426D-02-0.178D-01 0.893D-01
 Coeff-Com:  0.291D+00-0.311D+00-0.127D+01 0.137D-01 0.221D+01
 Coeff:     -0.142D-02 0.226D-02-0.433D-02-0.426D-02-0.178D-01 0.893D-01
 Coeff:      0.291D+00-0.311D+00-0.127D+01 0.137D-01 0.221D+01
 Gap=     0.213 Goal=   None    Shift=    0.500
 RMSDP=2.21D-05 MaxDP=2.73D-03 DE=-1.68D-05 OVMax= 2.07D-03

 Cycle  12  Pass 1  IDiag  1:
 E= -2593.95446209896     Delta-E=       -0.000010014689 Rises=F Damp=F
 DIIS: error= 7.50D-05 at cycle  12 NSaved=  12.
 NSaved=12 IEnMin=12 EnMin= -2593.95446209896     IErMin=12 ErrMin= 7.50D-05
 ErrMax= 7.50D-05  0.00D+00 EMaxC= 1.00D+00 BMatC= 8.17D-07 BMatP= 1.40D-06
 IDIUse=1 WtCom= 1.00D+00 WtEn= 0.00D+00
 Coeff-Com: -0.673D-03 0.838D-03 0.344D-02-0.717D-02-0.651D-01 0.835D-02
 Coeff-Com:  0.363D+00 0.200D+00-0.768D+00-0.125D+01 0.498D+00 0.202D+01
 Coeff:     -0.673D-03 0.838D-03 0.344D-02-0.717D-02-0.651D-01 0.835D-02
 Coeff:      0.363D+00 0.200D+00-0.768D+00-0.125D+01 0.498D+00 0.202D+01
 Gap=     0.213 Goal=   None    Shift=    0.500
 RMSDP=1.67D-05 MaxDP=2.04D-03 DE=-1.00D-05 OVMax= 1.66D-03

 Cycle  13  Pass 1  IDiag  1:
 E= -2593.95446784910     Delta-E=       -0.000005750140 Rises=F Damp=F
 DIIS: error= 5.63D-05 at cycle  13 NSaved=  13.
 NSaved=13 IEnMin=13 EnMin= -2593.95446784910     IErMin=13 ErrMin= 5.63D-05
 ErrMax= 5.63D-05  0.00D+00 EMaxC= 1.00D+00 BMatC= 4.58D-07 BMatP= 8.17D-07
 IDIUse=1 WtCom= 1.00D+00 WtEn= 0.00D+00
 Coeff-Com:  0.190D-03-0.475D-03 0.440D-02-0.328D-02-0.202D-01-0.528D-01
 Coeff-Com:  0.897D-01 0.279D+00 0.130D+00-0.945D+00-0.647D+00 0.629D-01
 Coeff-Com:  0.210D+01
 Coeff:      0.190D-03-0.475D-03 0.440D-02-0.328D-02-0.202D-01-0.528D-01
 Coeff:      0.897D-01 0.279D+00 0.130D+00-0.945D+00-0.647D+00 0.629D-01
 Coeff:      0.210D+01
 Gap=     0.213 Goal=   None    Shift=    0.500
 RMSDP=1.24D-05 MaxDP=1.49D-03 DE=-5.75D-06 OVMax= 1.28D-03

 Cycle  14  Pass 1  IDiag  1:
 E= -2593.95447100919     Delta-E=       -0.000003160082 Rises=F Damp=F
 DIIS: error= 4.11D-05 at cycle  14 NSaved=  14.
 NSaved=14 IEnMin=14 EnMin= -2593.95447100919     IErMin=14 ErrMin= 4.11D-05
 ErrMax= 4.11D-05  0.00D+00 EMaxC= 1.00D+00 BMatC= 2.64D-07 BMatP= 4.58D-07
 IDIUse=1 WtCom= 1.00D+00 WtEn= 0.00D+00
 Coeff-Com:  0.294D-03-0.466D-03 0.512D-03 0.288D-02 0.210D-01-0.477D-01
 Coeff-Com: -0.103D+00 0.901D-01 0.412D+00 0.930D-01-0.628D+00-0.157D+01
 Coeff-Com:  0.629D+00 0.210D+01
 Coeff:      0.294D-03-0.466D-03 0.512D-03 0.288D-02 0.210D-01-0.477D-01
 Coeff:     -0.103D+00 0.901D-01 0.412D+00 0.930D-01-0.628D+00-0.157D+01
 Coeff:      0.629D+00 0.210D+01
 Gap=     0.213 Goal=   None    Shift=    0.500
 RMSDP=9.36D-06 MaxDP=1.10D-03 DE=-3.16D-06 OVMax= 9.88D-04

 Cycle  15  Pass 1  IDiag  1:
 E= -2593.95447273941     Delta-E=       -0.000001730219 Rises=F Damp=F
 DIIS: error= 2.95D-05 at cycle  15 NSaved=  15.
 NSaved=15 IEnMin=15 EnMin= -2593.95447273941     IErMin=15 ErrMin= 2.95D-05
 ErrMax= 2.95D-05  0.00D+00 EMaxC= 1.00D+00 BMatC= 1.43D-07 BMatP= 2.64D-07
 IDIUse=1 WtCom= 1.00D+00 WtEn= 0.00D+00
 Coeff-Com:  0.865D-04-0.119D-03-0.141D-02 0.349D-02 0.181D-01-0.106D-01
 Coeff-Com: -0.815D-01-0.225D-01 0.120D+00 0.470D+00-0.131D+00-0.117D+01
 Coeff-Com: -0.418D+00 0.315D+00 0.190D+01
 Coeff:      0.865D-04-0.119D-03-0.141D-02 0.349D-02 0.181D-01-0.106D-01
 Coeff:     -0.815D-01-0.225D-01 0.120D+00 0.470D+00-0.131D+00-0.117D+01
 Coeff:     -0.418D+00 0.315D+00 0.190D+01
 Gap=     0.213 Goal=   None    Shift=    0.500
 RMSDP=6.73D-06 MaxDP=7.43D-04 DE=-1.73D-06 OVMax= 7.28D-04

 Cycle  16  Pass 1  IDiag  1:
 E= -2593.95447363758     Delta-E=       -0.000000898171 Rises=F Damp=F
 DIIS: error= 2.06D-05 at cycle  16 NSaved=  16.
 NSaved=16 IEnMin=16 EnMin= -2593.95447363758     IErMin=16 ErrMin= 2.06D-05
 ErrMax= 2.06D-05  0.00D+00 EMaxC= 1.00D+00 BMatC= 7.47D-08 BMatP= 1.43D-07
 IDIUse=1 WtCom= 1.00D+00 WtEn= 0.00D+00
 Coeff-Com: -0.559D-04 0.589D-04-0.116D-02 0.591D-03 0.441D-02 0.155D-01
 Coeff-Com: -0.132D-01-0.397D-01-0.145D+00 0.332D+00 0.214D+00-0.171D+00
 Coeff-Com: -0.650D+00-0.939D+00 0.561D+00 0.183D+01
 Coeff:     -0.559D-04 0.589D-04-0.116D-02 0.591D-03 0.441D-02 0.155D-01
 Coeff:     -0.132D-01-0.397D-01-0.145D+00 0.332D+00 0.214D+00-0.171D+00
 Coeff:     -0.650D+00-0.939D+00 0.561D+00 0.183D+01
 Gap=     0.213 Goal=   None    Shift=    0.500
 RMSDP=4.75D-06 MaxDP=5.12D-04 DE=-8.98D-07 OVMax= 5.25D-04

 Cycle  17  Pass 1  IDiag  1:
 E= -2593.95447408879     Delta-E=       -0.000000451210 Rises=F Damp=F
 DIIS: error= 1.42D-05 at cycle  17 NSaved=  17.
 NSaved=17 IEnMin=17 EnMin= -2593.95447408879     IErMin=17 ErrMin= 1.42D-05
 ErrMax= 1.42D-05  0.00D+00 EMaxC= 1.00D+00 BMatC= 4.19D-08 BMatP= 7.47D-08
 IDIUse=1 WtCom= 1.00D+00 WtEn= 0.00D+00
 Coeff-Com: -0.641D-04 0.611D-04 0.136D-03-0.172D-02-0.386D-02 0.121D-01
 Coeff-Com:  0.232D-01 0.783D-02-0.159D+00 0.133D-01 0.203D+00 0.343D+00
 Coeff-Com: -0.256D+00-0.779D+00-0.781D+00 0.662D+00 0.171D+01
 Coeff:     -0.641D-04 0.611D-04 0.136D-03-0.172D-02-0.386D-02 0.121D-01
 Coeff:      0.232D-01 0.783D-02-0.159D+00 0.133D-01 0.203D+00 0.343D+00
 Coeff:     -0.256D+00-0.779D+00-0.781D+00 0.662D+00 0.171D+01
 Gap=     0.213 Goal=   None    Shift=    0.500
 RMSDP=3.24D-06 MaxDP=3.57D-04 DE=-4.51D-07 OVMax= 3.77D-04

 Cycle  18  Pass 1  IDiag  1:
 E= -2593.95447431746     Delta-E=       -0.000000228673 Rises=F Damp=F
 DIIS: error= 9.75D-06 at cycle  18 NSaved=  18.
 NSaved=18 IEnMin=18 EnMin= -2593.95447431746     IErMin=18 ErrMin= 9.75D-06
 ErrMax= 9.75D-06  0.00D+00 EMaxC= 1.00D+00 BMatC= 2.20D-08 BMatP= 4.19D-08
 IDIUse=1 WtCom= 1.00D+00 WtEn= 0.00D+00
 Coeff-Com: -0.292D-04 0.364D-04 0.644D-03-0.135D-02-0.424D-02-0.556D-03
 Coeff-Com:  0.202D-01 0.335D-01-0.564D-01-0.122D+00 0.638D-01 0.266D+00
 Coeff-Com:  0.113D+00-0.181D+00-0.917D+00-0.168D+00 0.828D-01 0.187D+01
 Coeff:     -0.292D-04 0.364D-04 0.644D-03-0.135D-02-0.424D-02-0.556D-03
 Coeff:      0.202D-01 0.335D-01-0.564D-01-0.122D+00 0.638D-01 0.266D+00
 Coeff:      0.113D+00-0.181D+00-0.917D+00-0.168D+00 0.828D-01 0.187D+01
 Gap=     0.213 Goal=   None    Shift=    0.500
 RMSDP=2.15D-06 MaxDP=2.36D-04 DE=-2.29D-07 OVMax= 2.66D-04

 Cycle  19  Pass 1  IDiag  1:
 E= -2593.95447443014     Delta-E=       -0.000000112679 Rises=F Damp=F
 DIIS: error= 6.81D-06 at cycle  19 NSaved=  19.
 NSaved=19 IEnMin=19 EnMin= -2593.95447443014     IErMin=19 ErrMin= 6.81D-06
 ErrMax= 6.81D-06  0.00D+00 EMaxC= 1.00D+00 BMatC= 1.13D-08 BMatP= 2.20D-08
 IDIUse=1 WtCom= 1.00D+00 WtEn= 0.00D+00
 Coeff-Com:  0.569D-05 0.298D-05 0.266D-03-0.804D-04-0.486D-04-0.502D-02
 Coeff-Com: -0.244D-02 0.202D-01 0.304D-01-0.550D-01-0.501D-01-0.317D-01
 Coeff-Com:  0.221D+00 0.160D+00-0.318D+00-0.262D+00-0.918D+00 0.322D+00
 Coeff-Com:  0.189D+01
 Coeff:      0.569D-05 0.298D-05 0.266D-03-0.804D-04-0.486D-04-0.502D-02
 Coeff:     -0.244D-02 0.202D-01 0.304D-01-0.550D-01-0.501D-01-0.317D-01
 Coeff:      0.221D+00 0.160D+00-0.318D+00-0.262D+00-0.918D+00 0.322D+00
 Coeff:      0.189D+01
 Gap=     0.213 Goal=   None    Shift=    0.500
 RMSDP=1.45D-06 MaxDP=1.57D-04 DE=-1.13D-07 OVMax= 1.86D-04

 Cycle  20  Pass 1  IDiag  1:
 E= -2593.95447448534     Delta-E=       -0.000000055203 Rises=F Damp=F
 DIIS: error= 4.73D-06 at cycle  20 NSaved=  20.
 NSaved=20 IEnMin=20 EnMin= -2593.95447448534     IErMin=20 ErrMin= 4.73D-06
 ErrMax= 4.73D-06  0.00D+00 EMaxC= 1.00D+00 BMatC= 5.77D-09 BMatP= 1.13D-08
 IDIUse=1 WtCom= 1.00D+00 WtEn= 0.00D+00
 Coeff-Com:  0.197D-04-0.212D-04-0.746D-04 0.385D-03 0.209D-02-0.253D-02
 Coeff-Com: -0.130D-01 0.211D-02 0.442D-01 0.197D-01-0.656D-01-0.146D+00
 Coeff-Com:  0.154D+00 0.150D+00 0.900D-01-0.780D-01-0.812D+00-0.579D+00
 Coeff-Com:  0.682D+00 0.155D+01
 Coeff:      0.197D-04-0.212D-04-0.746D-04 0.385D-03 0.209D-02-0.253D-02
 Coeff:     -0.130D-01 0.211D-02 0.442D-01 0.197D-01-0.656D-01-0.146D+00
 Coeff:      0.154D+00 0.150D+00 0.900D-01-0.780D-01-0.812D+00-0.579D+00
 Coeff:      0.682D+00 0.155D+01
 Gap=     0.213 Goal=   None    Shift=    0.500
 RMSDP=9.67D-07 MaxDP=1.04D-04 DE=-5.52D-08 OVMax= 1.30D-04

 Cycle  21  Pass 1  IDiag  1:
 E= -2593.95447451247     Delta-E=       -0.000000027128 Rises=F Damp=F
 DIIS: error= 3.24D-06 at cycle  21 NSaved=  20.
 NSaved=20 IEnMin=20 EnMin= -2593.95447451247     IErMin=20 ErrMin= 3.24D-06
 ErrMax= 3.24D-06  0.00D+00 EMaxC= 1.00D+00 BMatC= 2.85D-09 BMatP= 5.77D-09
 IDIUse=1 WtCom= 1.00D+00 WtEn= 0.00D+00
 Coeff-Com: -0.804D-06-0.136D-03 0.819D-04 0.998D-03 0.159D-02-0.599D-02
 Coeff-Com: -0.593D-02 0.653D-02 0.354D-01-0.106D-01-0.706D-01 0.180D-01
 Coeff-Com: -0.702D-02 0.133D+00 0.918D-01-0.177D+00-0.456D+00-0.400D+00
 Coeff-Com: -0.432D-01 0.189D+01
 Coeff:     -0.804D-06-0.136D-03 0.819D-04 0.998D-03 0.159D-02-0.599D-02
 Coeff:     -0.593D-02 0.653D-02 0.354D-01-0.106D-01-0.706D-01 0.180D-01
 Coeff:     -0.702D-02 0.133D+00 0.918D-01-0.177D+00-0.456D+00-0.400D+00
 Coeff:     -0.432D-01 0.189D+01
 Gap=     0.213 Goal=   None    Shift=    0.500
 RMSDP=6.47D-07 MaxDP=6.88D-05 DE=-2.71D-08 OVMax= 9.00D-05

 SCF Done:  E(RLC-wHPBE) =  -2593.95447451     A.U. after   21 cycles
            NFock= 21  Conv=0.65D-06     -V/T= 2.0037
 KE= 2.584345696960D+03 PE=-1.663726598100D+04 EE= 6.181242144247D+03
 Leave Link  502 at Thu Jan 21 20:02:53 2021, MaxMem=  4026531840 cpu:           16835.6 elap:            2435.3
 (Enter /opt/ohpc/pub/libs/gaussian/g16-A.03/sandybridge/g16/l508.exe)
 QCSCF skips out because SCF is already converged.
 Leave Link  508 at Thu Jan 21 20:02:53 2021, MaxMem=  4026531840 cpu:               0.2 elap:               0.1
 (Enter /opt/ohpc/pub/libs/gaussian/g16-A.03/sandybridge/g16/l601.exe)
 Copying SCF densities to generalized density rwf, IOpCl= 0 IROHF=0.

 **********************************************************************

            Population analysis using the SCF density.

 **********************************************************************

 Orbital symmetries:
       Occupied  (A) (A) (A) (A) (A) (A) (A) (A) (A) (A) (A) (A)
                 (A) (A) (A) (A) (A) (A) (A) (A) (A) (A) (A) (A)
                 (A) (A) (A) (A) (A) (A) (A) (A) (A) (A) (A) (A)
                 (A) (A) (A) (A) (A) (A) (A) (A) (A) (A) (A) (A)
                 (A) (A) (A) (A) (A) (A) (A) (A) (A) (A) (A) (A)
                 (A) (A) (A) (A) (A) (A) (A) (A) (A) (A) (A) (A)
                 (A) (A) (A) (A) (A) (A) (A) (A) (A) (A) (A) (A)
                 (A) (A) (A) (A) (A) (A) (A) (A) (A) (A) (A) (A)
                 (A) (A) (A) (A) (A) (A) (A) (A) (A) (A) (A) (A)
                 (A) (A) (A) (A) (A) (A) (A) (A) (A) (A) (A) (A)
                 (A) (A) (A) (A) (A) (A) (A) (A) (A) (A) (A) (A)
                 (A) (A) (A) (A) (A) (A) (A) (A) (A) (A) (A) (A)
                 (A) (A) (A) (A) (A) (A) (A) (A) (A) (A) (A) (A)
                 (A) (A) (A) (A) (A)
       Virtual   (A) (A) (A) (A) (A) (A) (A) (A) (A) (A) (A) (A)
                 (A) (A) (A) (A) (A) (A) (A) (A) (A) (A) (A) (A)
                 (A) (A) (A) (A) (A) (A) (A) (A) (A) (A) (A) (A)
                 (A) (A) (A) (A) (A) (A) (A) (A) (A) (A) (A) (A)
                 (A) (A) (A) (A) (A) (A) (A) (A) (A) (A) (A) (A)
                 (A) (A) (A) (A) (A) (A) (A) (A) (A) (A) (A) (A)
                 (A) (A) (A) (A) (A) (A) (A) (A) (A) (A) (A) (A)
                 (A) (A) (A) (A) (A) (A) (A) (A) (A) (A) (A) (A)
                 (A) (A) (A) (A) (A) (A) (A) (A) (A) (A) (A) (A)
                 (A) (A) (A) (A) (A) (A) (A) (A) (A) (A) (A) (A)
                 (A) (A) (A) (A) (A) (A) (A) (A) (A) (A) (A) (A)
                 (A) (A) (A) (A) (A) (A) (A) (A) (A) (A) (A) (A)
                 (A) (A) (A) (A) (A) (A) (A) (A) (A) (A) (A) (A)
                 (A) (A) (A) (A) (A) (A) (A) (A) (A) (A) (A) (A)
                 (A) (A) (A) (A) (A) (A) (A) (A) (A) (A) (A) (A)
                 (A) (A) (A) (A) (A) (A) (A) (A) (A) (A) (A) (A)
                 (A) (A) (A) (A) (A) (A) (A) (A) (A) (A) (A) (A)
                 (A) (A) (A) (A) (A) (A) (A) (A) (A) (A) (A) (A)
                 (A) (A) (A) (A) (A) (A) (A) (A) (A) (A) (A) (A)
                 (A) (A) (A) (A) (A) (A) (A) (A) (A) (A) (A) (A)
                 (A) (A) (A) (A) (A) (A) (A) (A) (A) (A) (A) (A)
                 (A) (A) (A) (A) (A) (A) (A) (A) (A) (A) (A) (A)
                 (A) (A) (A) (A) (A) (A) (A) (A) (A) (A) (A) (A)
                 (A) (A) (A) (A) (A) (A) (A) (A) (A) (A) (A) (A)
                 (A) (A) (A) (A) (A) (A) (A) (A) (A) (A) (A) (A)
                 (A) (A) (A) (A) (A) (A) (A) (A) (A) (A) (A) (A)
                 (A) (A) (A) (A) (A) (A) (A) (A) (A) (A) (A) (A)
                 (A) (A) (A) (A) (A) (A) (A) (A) (A) (A) (A) (A)
                 (A) (A) (A) (A) (A) (A) (A) (A) (A) (A) (A) (A)
                 (A) (A) (A) (A) (A) (A) (A) (A) (A) (A) (A) (A)
                 (A) (A) (A) (A) (A) (A) (A) (A) (A) (A) (A) (A)
                 (A) (A) (A) (A) (A) (A) (A) (A) (A) (A) (A) (A)
                 (A) (A) (A) (A) (A) (A) (A) (A) (A) (A) (A) (A)
                 (A) (A) (A) (A) (A) (A) (A) (A) (A) (A) (A) (A)
                 (A) (A) (A) (A) (A) (A) (A) (A) (A) (A) (A) (A)
                 (A) (A) (A) (A) (A) (A) (A) (A) (A) (A) (A) (A)
                 (A) (A) (A) (A) (A) (A) (A) (A) (A) (A) (A) (A)
                 (A) (A) (A) (A) (A) (A) (A) (A) (A) (A) (A) (A)
                 (A) (A) (A) (A) (A) (A) (A) (A) (A) (A) (A) (A)
                 (A) (A) (A) (A) (A) (A) (A) (A) (A) (A) (A) (A)
                 (A) (A) (A) (A) (A) (A) (A) (A) (A) (A) (A) (A)
                 (A) (A) (A) (A) (A) (A) (A) (A) (A) (A) (A) (A)
                 (A) (A) (A) (A) (A) (A) (A) (A) (A) (A) (A) (A)
                 (A) (A) (A) (A) (A) (A) (A) (A) (A) (A) (A) (A)
                 (A) (A) (A) (A) (A) (A) (A) (A) (A) (A) (A) (A)
                 (A) (A) (A) (A) (A) (A) (A) (A) (A) (A) (A) (A)
                 (A) (A) (A) (A) (A) (A) (A) (A) (A) (A) (A) (A)
                 (A) (A) (A) (A) (A) (A) (A) (A) (A) (A) (A) (A)
                 (A) (A) (A) (A) (A) (A) (A) (A) (A) (A) (A) (A)
                 (A) (A) (A) (A) (A) (A) (A) (A) (A) (A) (A) (A)
                 (A) (A) (A) (A) (A) (A) (A) (A) (A) (A) (A) (A)
                 (A) (A) (A) (A) (A) (A) (A) (A) (A) (A) (A) (A)
                 (A) (A) (A) (A) (A) (A) (A) (A) (A) (A) (A) (A)
                 (A) (A) (A) (A) (A) (A) (A) (A) (A) (A) (A) (A)
                 (A) (A) (A) (A) (A) (A) (A) (A) (A) (A) (A) (A)
                 (A) (A) (A) (A) (A) (A) (A) (A) (A) (A) (A) (A)
                 (A) (A) (A) (A) (A) (A) (A) (A) (A) (A) (A) (A)
                 (A) (A) (A) (A) (A) (A) (A) (A) (A) (A) (A) (A)
                 (A) (A) (A) (A) (A) (A) (A) (A) (A) (A) (A) (A)
                 (A) (A) (A) (A) (A) (A) (A) (A) (A) (A) (A) (A)
                 (A) (A) (A) (A) (A) (A) (A) (A) (A) (A) (A) (A)
                 (A) (A) (A) (A) (A) (A) (A) (A) (A) (A) (A) (A)
                 (A) (A) (A) (A) (A) (A) (A) (A) (A) (A) (A) (A)
                 (A) (A) (A) (A) (A) (A) (A) (A) (A) (A) (A) (A)
                 (A) (A) (A) (A) (A) (A) (A) (A) (A) (A) (A) (A)
                 (A) (A) (A) (A) (A) (A) (A) (A) (A) (A) (A) (A)
                 (A) (A) (A) (A) (A) (A) (A) (A) (A) (A) (A) (A)
                 (A) (A) (A) (A) (A) (A) (A) (A) (A) (A) (A) (A)
                 (A) (A) (A) (A) (A) (A) (A) (A) (A) (A) (A) (A)
                 (A) (A) (A) (A) (A) (A) (A) (A) (A) (A) (A) (A)
                 (A) (A) (A) (A) (A) (A) (A) (A) (A)
 The electronic state is 1-A.
 Alpha  occ. eigenvalues --  -88.26230 -88.21096 -18.89236 -18.88446 -18.87042
 Alpha  occ. eigenvalues --  -18.86812 -14.12708 -14.09633 -10.05754 -10.04657
 Alpha  occ. eigenvalues --  -10.04472 -10.04466 -10.03566 -10.03170 -10.02993
 Alpha  occ. eigenvalues --  -10.02921 -10.02222 -10.00773 -10.00554 -10.00461
 Alpha  occ. eigenvalues --  -10.00282 -10.00175 -10.00136 -10.00130  -9.99847
 Alpha  occ. eigenvalues --   -9.99558  -9.99424  -9.99421  -9.99073  -9.99033
 Alpha  occ. eigenvalues --   -9.98134  -9.98010  -9.97908  -9.97837  -9.97549
 Alpha  occ. eigenvalues --   -9.97425  -9.97362  -9.97301  -9.97288  -9.97206
 Alpha  occ. eigenvalues --   -9.97051  -9.96504  -9.95331  -9.91607  -7.85322
 Alpha  occ. eigenvalues --   -7.80332  -5.87316  -5.87097  -5.86573  -5.82528
 Alpha  occ. eigenvalues --   -5.82097  -5.81335  -1.09125  -1.08107  -1.06781
 Alpha  occ. eigenvalues --   -1.06571  -1.00245  -0.97284  -0.92794  -0.89749
 Alpha  occ. eigenvalues --   -0.88561  -0.87632  -0.87568  -0.86430  -0.84582
 Alpha  occ. eigenvalues --   -0.83600  -0.80099  -0.79639  -0.78681  -0.78468
 Alpha  occ. eigenvalues --   -0.77785  -0.77701  -0.77567  -0.76980  -0.75995
 Alpha  occ. eigenvalues --   -0.74733  -0.73908  -0.72024  -0.68928  -0.68077
 Alpha  occ. eigenvalues --   -0.67302  -0.66655  -0.66443  -0.66005  -0.64856
 Alpha  occ. eigenvalues --   -0.64430  -0.63508  -0.62929  -0.62216  -0.60859
 Alpha  occ. eigenvalues --   -0.60185  -0.59590  -0.59459  -0.58532  -0.58201
 Alpha  occ. eigenvalues --   -0.58032  -0.56154  -0.55301  -0.54953  -0.54367
 Alpha  occ. eigenvalues --   -0.53870  -0.52573  -0.51992  -0.51304  -0.50681
 Alpha  occ. eigenvalues --   -0.50398  -0.49984  -0.49695  -0.49246  -0.48658
 Alpha  occ. eigenvalues --   -0.48549  -0.48211  -0.47967  -0.47769  -0.47581
 Alpha  occ. eigenvalues --   -0.47263  -0.47027  -0.46642  -0.46569  -0.46187
 Alpha  occ. eigenvalues --   -0.45975  -0.45627  -0.45393  -0.45353  -0.44989
 Alpha  occ. eigenvalues --   -0.44816  -0.44230  -0.44024  -0.43480  -0.42860
 Alpha  occ. eigenvalues --   -0.42008  -0.41794  -0.41575  -0.41328  -0.41024
 Alpha  occ. eigenvalues --   -0.40914  -0.40530  -0.40473  -0.40107  -0.39478
 Alpha  occ. eigenvalues --   -0.39069  -0.38804  -0.38104  -0.37758  -0.37420
 Alpha  occ. eigenvalues --   -0.36328  -0.33991  -0.33399  -0.32889  -0.32366
 Alpha  occ. eigenvalues --   -0.31974  -0.31187  -0.30882  -0.30558  -0.29990
 Alpha  occ. eigenvalues --   -0.29085  -0.28558  -0.27808  -0.24658  -0.22145
 Alpha  occ. eigenvalues --   -0.21085
 Alpha virt. eigenvalues --    0.00200   0.01113   0.02627   0.02830   0.03241
 Alpha virt. eigenvalues --    0.03560   0.03844   0.05181   0.05269   0.05559
 Alpha virt. eigenvalues --    0.06105   0.06354   0.06977   0.07302   0.07420
 Alpha virt. eigenvalues --    0.07559   0.08311   0.09048   0.09762   0.10087
 Alpha virt. eigenvalues --    0.10264   0.11038   0.11430   0.11878   0.12445
 Alpha virt. eigenvalues --    0.12878   0.13082   0.13627   0.13867   0.14464
 Alpha virt. eigenvalues --    0.14816   0.15045   0.15733   0.15805   0.16309
 Alpha virt. eigenvalues --    0.16371   0.16962   0.16979   0.17640   0.17963
 Alpha virt. eigenvalues --    0.18108   0.18490   0.18891   0.19387   0.19861
 Alpha virt. eigenvalues --    0.19967   0.20356   0.20672   0.20885   0.21224
 Alpha virt. eigenvalues --    0.21555   0.21811   0.22086   0.22439   0.22595
 Alpha virt. eigenvalues --    0.22688   0.23351   0.23616   0.24065   0.24347
 Alpha virt. eigenvalues --    0.24681   0.25117   0.25160   0.25315   0.25502
 Alpha virt. eigenvalues --    0.25719   0.26107   0.26274   0.26558   0.26645
 Alpha virt. eigenvalues --    0.27060   0.27469   0.27800   0.28049   0.28347
 Alpha virt. eigenvalues --    0.28619   0.28673   0.28825   0.29441   0.29571
 Alpha virt. eigenvalues --    0.29634   0.29727   0.30068   0.30153   0.30388
 Alpha virt. eigenvalues --    0.30743   0.30913   0.31249   0.31419   0.31562
 Alpha virt. eigenvalues --    0.32047   0.32097   0.32326   0.32544   0.32655
 Alpha virt. eigenvalues --    0.32761   0.33242   0.33603   0.33920   0.34205
 Alpha virt. eigenvalues --    0.34305   0.34542   0.34742   0.34889   0.35198
 Alpha virt. eigenvalues --    0.35346   0.35483   0.35607   0.35848   0.36084
 Alpha virt. eigenvalues --    0.36452   0.36613   0.36852   0.37358   0.37546
 Alpha virt. eigenvalues --    0.37947   0.38146   0.38194   0.38726   0.39003
 Alpha virt. eigenvalues --    0.39276   0.39530   0.39801   0.39854   0.40221
 Alpha virt. eigenvalues --    0.40289   0.40666   0.40870   0.41153   0.41254
 Alpha virt. eigenvalues --    0.41615   0.42033   0.42217   0.42461   0.42591
 Alpha virt. eigenvalues --    0.42661   0.42862   0.43317   0.43451   0.43585
 Alpha virt. eigenvalues --    0.43975   0.44118   0.44287   0.44375   0.44532
 Alpha virt. eigenvalues --    0.44981   0.45195   0.45384   0.45485   0.45632
 Alpha virt. eigenvalues --    0.45749   0.46117   0.46243   0.46522   0.46611
 Alpha virt. eigenvalues --    0.46746   0.47053   0.47109   0.47332   0.47566
 Alpha virt. eigenvalues --    0.47866   0.48296   0.48482   0.48742   0.48877
 Alpha virt. eigenvalues --    0.49130   0.49468   0.49776   0.49935   0.50084
 Alpha virt. eigenvalues --    0.50199   0.50874   0.50945   0.51152   0.51223
 Alpha virt. eigenvalues --    0.51519   0.51812   0.52103   0.52378   0.52667
 Alpha virt. eigenvalues --    0.52886   0.53002   0.53406   0.53968   0.54195
 Alpha virt. eigenvalues --    0.54327   0.54444   0.54856   0.55086   0.55208
 Alpha virt. eigenvalues --    0.55645   0.55826   0.55892   0.56321   0.56839
 Alpha virt. eigenvalues --    0.57052   0.57157   0.57444   0.57813   0.58091
 Alpha virt. eigenvalues --    0.58766   0.59175   0.59468   0.59707   0.60032
 Alpha virt. eigenvalues --    0.60283   0.60528   0.60960   0.61153   0.61557
 Alpha virt. eigenvalues --    0.61749   0.61968   0.62081   0.62313   0.62533
 Alpha virt. eigenvalues --    0.62731   0.62950   0.63624   0.63857   0.63920
 Alpha virt. eigenvalues --    0.64381   0.64759   0.64818   0.65354   0.65562
 Alpha virt. eigenvalues --    0.66159   0.66474   0.66734   0.67414   0.67720
 Alpha virt. eigenvalues --    0.68097   0.68299   0.68761   0.69355   0.69588
 Alpha virt. eigenvalues --    0.70220   0.70475   0.71167   0.71366   0.71849
 Alpha virt. eigenvalues --    0.71992   0.72999   0.73146   0.73321   0.73582
 Alpha virt. eigenvalues --    0.73698   0.74068   0.74302   0.74485   0.74974
 Alpha virt. eigenvalues --    0.75025   0.75152   0.75747   0.76145   0.76710
 Alpha virt. eigenvalues --    0.77015   0.77063   0.77489   0.77640   0.78100
 Alpha virt. eigenvalues --    0.78393   0.78851   0.79538   0.79764   0.80003
 Alpha virt. eigenvalues --    0.80305   0.80654   0.81315   0.81606   0.82251
 Alpha virt. eigenvalues --    0.82758   0.83210   0.83368   0.84039   0.84335
 Alpha virt. eigenvalues --    0.84605   0.85026   0.85837   0.86342   0.86516
 Alpha virt. eigenvalues --    0.86806   0.88201   0.88676   0.88813   0.89578
 Alpha virt. eigenvalues --    0.89790   0.90310   0.90503   0.91272   0.91934
 Alpha virt. eigenvalues --    0.92559   0.93042   0.93484   0.93667   0.94653
 Alpha virt. eigenvalues --    0.94780   0.95095   0.95639   0.96162   0.96720
 Alpha virt. eigenvalues --    0.98113   0.99020   0.99308   0.99665   1.00349
 Alpha virt. eigenvalues --    1.02229   1.02695   1.02987   1.10748   1.19445
 Alpha virt. eigenvalues --    1.19796   1.20771   1.21506   1.22517   1.23785
 Alpha virt. eigenvalues --    1.25416   1.25726   1.26516   1.26713   1.27009
 Alpha virt. eigenvalues --    1.27446   1.27900   1.28164   1.28376   1.28809
 Alpha virt. eigenvalues --    1.28900   1.29163   1.29443   1.29674   1.29955
 Alpha virt. eigenvalues --    1.30564   1.31036   1.31240   1.31618   1.31893
 Alpha virt. eigenvalues --    1.32459   1.32556   1.33376   1.33666   1.33911
 Alpha virt. eigenvalues --    1.34186   1.34533   1.34991   1.35479   1.36076
 Alpha virt. eigenvalues --    1.36270   1.36698   1.37287   1.37825   1.37953
 Alpha virt. eigenvalues --    1.38061   1.38417   1.39121   1.39640   1.39764
 Alpha virt. eigenvalues --    1.39981   1.40410   1.40688   1.41188   1.41639
 Alpha virt. eigenvalues --    1.41845   1.41997   1.42342   1.42649   1.43380
 Alpha virt. eigenvalues --    1.43626   1.44199   1.44386   1.44391   1.44792
 Alpha virt. eigenvalues --    1.45119   1.45527   1.45959   1.46443   1.46493
 Alpha virt. eigenvalues --    1.46835   1.47020   1.47174   1.47444   1.47615
 Alpha virt. eigenvalues --    1.47707   1.47848   1.48210   1.48469   1.48549
 Alpha virt. eigenvalues --    1.49059   1.49538   1.49561   1.49681   1.49891
 Alpha virt. eigenvalues --    1.50346   1.51010   1.51217   1.51665   1.51876
 Alpha virt. eigenvalues --    1.52005   1.52225   1.52402   1.52591   1.52904
 Alpha virt. eigenvalues --    1.53494   1.53798   1.54001   1.54076   1.54565
 Alpha virt. eigenvalues --    1.54677   1.54891   1.55405   1.55619   1.55840
 Alpha virt. eigenvalues --    1.56038   1.56221   1.56420   1.56743   1.57031
 Alpha virt. eigenvalues --    1.57109   1.57258   1.57825   1.57874   1.57981
 Alpha virt. eigenvalues --    1.58292   1.58454   1.58737   1.58809   1.59085
 Alpha virt. eigenvalues --    1.59212   1.59418   1.59714   1.60213   1.60226
 Alpha virt. eigenvalues --    1.60560   1.60935   1.61185   1.61543   1.61972
 Alpha virt. eigenvalues --    1.62267   1.62755   1.62837   1.63077   1.63797
 Alpha virt. eigenvalues --    1.64134   1.64398   1.64626   1.65068   1.65487
 Alpha virt. eigenvalues --    1.66271   1.66355   1.66599   1.67203   1.67842
 Alpha virt. eigenvalues --    1.68239   1.68523   1.70138   1.70356   1.71495
 Alpha virt. eigenvalues --    1.71669   1.72389   1.72679   1.73580   1.73877
 Alpha virt. eigenvalues --    1.74560   1.74790   1.75112   1.76018   1.76337
 Alpha virt. eigenvalues --    1.77547   1.78054   1.78262   1.78891   1.79106
 Alpha virt. eigenvalues --    1.79348   1.80145   1.80358   1.80523   1.81008
 Alpha virt. eigenvalues --    1.81096   1.81165   1.81622   1.82090   1.82429
 Alpha virt. eigenvalues --    1.82713   1.83157   1.83230   1.83754   1.84061
 Alpha virt. eigenvalues --    1.84384   1.84600   1.84909   1.85332   1.85449
 Alpha virt. eigenvalues --    1.85550   1.86201   1.86582   1.86894   1.87885
 Alpha virt. eigenvalues --    1.88052   1.88302   1.89098   1.89535   1.89823
 Alpha virt. eigenvalues --    1.90071   1.90548   1.91007   1.91349   1.91515
 Alpha virt. eigenvalues --    1.91928   1.92133   1.92628   1.92858   1.93101
 Alpha virt. eigenvalues --    1.93312   1.93585   1.93833   1.93972   1.94300
 Alpha virt. eigenvalues --    1.94993   1.95330   1.95704   1.95944   1.95969
 Alpha virt. eigenvalues --    1.96351   1.96656   1.97087   1.97482   1.97697
 Alpha virt. eigenvalues --    1.97969   1.98091   1.98561   1.98722   1.99818
 Alpha virt. eigenvalues --    2.00059   2.01045   2.01495   2.02471   2.02688
 Alpha virt. eigenvalues --    2.02958   2.03280   2.03395   2.03875   2.04194
 Alpha virt. eigenvalues --    2.04390   2.04659   2.05236   2.05691   2.05786
 Alpha virt. eigenvalues --    2.06739   2.07211   2.08002   2.08553   2.08932
 Alpha virt. eigenvalues --    2.09595   2.10589   2.10882   2.11616   2.12027
 Alpha virt. eigenvalues --    2.12387   2.13171   2.13851   2.14338   2.15291
 Alpha virt. eigenvalues --    2.17268   2.17614   2.18768   2.19334   2.20135
 Alpha virt. eigenvalues --    2.20434   2.21235   2.21890   2.22028   2.22730
 Alpha virt. eigenvalues --    2.23023   2.23536   2.24052   2.24499   2.25001
 Alpha virt. eigenvalues --    2.25342   2.25485   2.25788   2.25870   2.27992
 Alpha virt. eigenvalues --    2.28201   2.28742   2.29115   2.29735   2.29972
 Alpha virt. eigenvalues --    2.30914   2.31661   2.32887   2.32962   2.33372
 Alpha virt. eigenvalues --    2.33951   2.34028   2.34172   2.34654   2.34753
 Alpha virt. eigenvalues --    2.35013   2.35099   2.35495   2.35770   2.36109
 Alpha virt. eigenvalues --    2.36269   2.36442   2.36868   2.37130   2.37638
 Alpha virt. eigenvalues --    2.38109   2.38207   2.38238   2.38459   2.38819
 Alpha virt. eigenvalues --    2.38951   2.39742   2.39968   2.40212   2.40537
 Alpha virt. eigenvalues --    2.40767   2.40915   2.41159   2.41457   2.41731
 Alpha virt. eigenvalues --    2.42052   2.42178   2.42364   2.43407   2.44787
 Alpha virt. eigenvalues --    2.45872   2.46281   2.47133   2.48299   2.48395
 Alpha virt. eigenvalues --    2.48818   2.49210   2.49805   2.50332   2.50992
 Alpha virt. eigenvalues --    2.51936   2.52256   2.53045   2.53722   2.54656
 Alpha virt. eigenvalues --    2.55347   2.55795   2.57577   2.57755   2.58711
 Alpha virt. eigenvalues --    2.59134   2.59409   2.60388   2.60544   2.60682
 Alpha virt. eigenvalues --    2.61236   2.61513   2.61741   2.61783   2.62799
 Alpha virt. eigenvalues --    2.63531   2.63648   2.63720   2.64350   2.64411
 Alpha virt. eigenvalues --    2.64709   2.65330   2.65702   2.66022   2.67363
 Alpha virt. eigenvalues --    2.67668   2.67881   2.68308   2.68647   2.69148
 Alpha virt. eigenvalues --    2.70067   2.70650   2.71082   2.71515   2.72524
 Alpha virt. eigenvalues --    2.73285   2.74156   2.74437   2.74982   2.75592
 Alpha virt. eigenvalues --    2.76491   2.77558   2.78373   2.79302   2.79889
 Alpha virt. eigenvalues --    2.80840   2.81172   2.81419   2.82004   2.82486
 Alpha virt. eigenvalues --    2.83275   2.84273   2.84791   2.85747   2.87271
 Alpha virt. eigenvalues --    2.87705   2.87910   2.88574   2.89030   2.89928
 Alpha virt. eigenvalues --    2.90379   2.93247   2.93428   2.94185   2.94503
 Alpha virt. eigenvalues --    2.94921   2.95631   2.96059   2.96359   2.96983
 Alpha virt. eigenvalues --    2.97556   2.97887   2.98007   2.99646   2.99748
 Alpha virt. eigenvalues --    2.99929   3.00528   3.01285   3.01578   3.02201
 Alpha virt. eigenvalues --    3.02276   3.02573   3.04081   3.04621   3.05818
 Alpha virt. eigenvalues --    3.06869   3.07398   3.07483   3.08392   3.09092
 Alpha virt. eigenvalues --    3.09714   3.10334   3.10896   3.11701   3.12384
 Alpha virt. eigenvalues --    3.12592   3.13430   3.14809   3.15027   3.16277
 Alpha virt. eigenvalues --    3.17098   3.17665   3.17842   3.18350   3.18610
 Alpha virt. eigenvalues --    3.19776   3.20221   3.20673   3.21628   3.22090
 Alpha virt. eigenvalues --    3.22211   3.22771   3.23134   3.23969   3.25538
 Alpha virt. eigenvalues --    3.25714   3.26276   3.26564   3.26604   3.27343
 Alpha virt. eigenvalues --    3.27645   3.28497   3.29194   3.31454   3.32175
 Alpha virt. eigenvalues --    3.32898   3.33240   3.33900   3.34557   3.34752
 Alpha virt. eigenvalues --    3.36551   3.37283   3.38046   3.38655   3.38877
 Alpha virt. eigenvalues --    3.40219   3.42404   3.43148   3.45023   3.48135
 Alpha virt. eigenvalues --    3.48545   3.53091   3.54101   3.54975   3.57093
 Alpha virt. eigenvalues --    3.57948   3.58615   3.59534   3.60072   3.61154
 Alpha virt. eigenvalues --    3.63869   3.70939   3.71258   3.85759   3.87136
 Alpha virt. eigenvalues --    3.87564   3.88370   4.06947   4.08230   4.08953
 Alpha virt. eigenvalues --    4.09951   4.31874   4.32707   4.33858   4.34167
 Alpha virt. eigenvalues --   18.74003  19.08182  21.20347  21.24568  21.25626
 Alpha virt. eigenvalues --   21.26557  21.28027  21.29287  21.69215  21.69675
 Alpha virt. eigenvalues --   21.71717  21.72824  21.75065  21.76856  21.76982
 Alpha virt. eigenvalues --   21.77455  21.82303  21.85660  21.86204  21.86687
 Alpha virt. eigenvalues --   21.92741  21.95929  21.96164  21.97814  21.98431
 Alpha virt. eigenvalues --   21.98963  22.00651  22.01846  22.03057  22.03594
 Alpha virt. eigenvalues --   22.04912  22.07521  22.09982  22.12914  22.15726
 Alpha virt. eigenvalues --   22.18415  22.19075  22.21464  32.03004  32.08527
 Alpha virt. eigenvalues --   43.22738  43.24451  43.24850  43.28474
          Condensed to atoms (all electrons):
 Mulliken charges:
               1
     1  C   -0.304491
     2  C   -0.079672
     3  S   -0.082497
     4  C   -0.271557
     5  C    0.112111
     6  C   -0.281196
     7  C    0.016581
     8  C   -0.062157
     9  H    0.138752
    10  C   -0.143788
    11  C   -0.045887
    12  C   -0.095248
    13  C    0.020246
    14  H    0.232031
    15  H    0.119862
    16  H    0.157221
    17  C   -0.176290
    18  H    0.130872
    19  H    0.113981
    20  H    0.113492
    21  H    0.139634
    22  S    0.196405
    23  N    0.033805
    24  C   -0.294403
    25  C    0.042030
    26  C   -0.022332
    27  C   -0.219163
    28  C   -0.179751
    29  C    0.138715
    30  H    0.127365
    31  H    0.125325
    32  H    0.120521
    33  H    0.108245
    34  C   -0.091148
    35  C   -0.100148
    36  C   -0.103065
    37  C   -0.146468
    38  C   -0.187651
    39  C    0.090780
    40  H    0.118991
    41  H    0.180153
    42  H    0.101002
    43  H    0.162743
    44  N    0.008366
    45  C   -0.081157
    46  C   -0.101762
    47  C   -0.083317
    48  C   -0.171554
    49  C   -0.200088
    50  C    0.114133
    51  H    0.140258
    52  H    0.141932
    53  H    0.101153
    54  H    0.110781
    55  C   -0.101755
    56  C   -0.066943
    57  C   -0.133992
    58  C   -0.203390
    59  C   -0.140033
    60  C    0.103234
    61  H    0.131192
    62  H    0.146270
    63  H    0.108982
    64  H    0.124719
    65  O   -0.244482
    66  H    0.267451
    67  O   -0.235182
    68  H    0.269921
    69  O   -0.245563
    70  H    0.265621
    71  O   -0.245775
    72  H    0.267032
 Sum of Mulliken charges =  -0.00000
 Mulliken charges with hydrogens summed into heavy atoms:
               1
     1  C   -0.173619
     2  C   -0.079672
     3  S    0.031483
     4  C   -0.271557
     5  C    0.112111
     6  C   -0.281196
     7  C    0.016581
     8  C    0.051335
    10  C    0.088243
    11  C    0.073974
    12  C    0.061973
    13  C    0.020246
    17  C   -0.036657
    22  S    0.335157
    23  N    0.033805
    24  C   -0.294403
    25  C    0.169396
    26  C    0.102993
    27  C   -0.098642
    28  C   -0.071506
    29  C    0.138715
    34  C   -0.091148
    35  C    0.018844
    36  C    0.077088
    37  C   -0.045467
    38  C   -0.024908
    39  C    0.090780
    44  N    0.008366
    45  C   -0.081157
    46  C    0.038496
    47  C    0.058616
    48  C   -0.070401
    49  C   -0.089307
    50  C    0.114133
    55  C   -0.101755
    56  C    0.064250
    57  C    0.012278
    58  C   -0.094409
    59  C   -0.015314
    60  C    0.103234
    65  O    0.022969
    67  O    0.034739
    69  O    0.020058
    71  O    0.021257
 Electronic spatial extent (au):  <R**2>=          34720.0289
 Charge=              0.0000 electrons
 Dipole moment (field-independent basis, Debye):
    X=              6.6658    Y=              0.8259    Z=              4.9497  Tot=              8.3435
 Quadrupole moment (field-independent basis, Debye-Ang):
   XX=           -225.1719   YY=           -244.9068   ZZ=           -267.3985
   XY=             10.7339   XZ=              1.1602   YZ=             -6.0513
 Traceless Quadrupole moment (field-independent basis, Debye-Ang):
   XX=             20.6538   YY=              0.9189   ZZ=            -21.5728
   XY=             10.7339   XZ=              1.1602   YZ=             -6.0513
 Octapole moment (field-independent basis, Debye-Ang**2):
  XXX=            220.2901  YYY=              7.2535  ZZZ=             13.6457  XYY=            100.6627
  XXY=             -2.5895  XXZ=            127.8502  XZZ=              7.5784  YZZ=            -31.3294
  YYZ=            114.2900  XYZ=            -12.7389
 Hexadecapole moment (field-independent basis, Debye-Ang**3):
 XXXX=         -27285.2738 YYYY=         -10453.3174 ZZZZ=          -1840.6049 XXXY=           1236.8533
 XXXZ=            -86.3725 YYYX=           -113.6787 YYYZ=           -301.2565 ZZZX=             31.6932
 ZZZY=            -70.7316 XXYY=          -8147.0942 XXZZ=          -6112.2882 YYZZ=          -2121.7310
 XXYZ=           -102.0818 YYXZ=             20.5213 ZZXY=            -78.3276
 N-N= 5.277723665284D+03 E-N=-1.663726594232D+04  KE= 2.584345696960D+03
 No NMR shielding tensors so no spin-rotation constants.
 Leave Link  601 at Thu Jan 21 20:02:56 2021, MaxMem=  4026531840 cpu:              10.4 elap:               2.7
 (Enter /opt/ohpc/pub/libs/gaussian/g16-A.03/sandybridge/g16/l9999.exe)

 Test job not archived.
 1\1\GINC-CASCADEB028\SP\RLC-wHPBE\TZVP\C36H28N2O4S2\RDU230\21-Jan-2021
 \0\\#P LC-wHPBE/TZVP iop(3/107=0176200000, 3/108=0176200000) scf=(conv
 er=6,fermi,ndamp=35,noincfock,novaracc,vshift=500,xqc)\\H28 C36 S2 N2 
 O4\\0,1\C,0,-1.748928,-0.489907,0.452051\C,0,-0.626174,-1.279763,0.152
 57\S,0,1.952753,-5.388628,0.812439\C,0,-0.882312,-2.170069,-0.820725\C
 ,0,1.932708,-2.897266,-0.476539\C,0,2.566514,-3.761438,0.41855\C,0,-2.
 975354,-0.631957,-0.195801\C,0,-2.049066,-2.386893,-1.545961\H,0,0.246
 316,-4.468801,-0.586079\C,0,2.384401,-1.613824,-0.700024\C,0,3.673888,
 -3.269502,1.095477\C,0,4.135912,-1.984797,0.893895\C,0,3.494497,-1.125
 461,-0.002977\H,0,1.857267,-0.971131,-1.395345\H,0,4.176334,-3.912174,
 1.811785\H,0,4.992977,-1.63215,1.456718\C,0,-3.122467,-1.590215,-1.210
 611\H,0,-1.688273,0.276733,1.226088\H,0,2.539,-6.051116,-0.206249\H,0,
 -2.132551,-3.120151,-2.347153\H,0,-4.068236,-1.688167,-1.734116\S,0,0.
 491419,-3.391365,-1.37893\N,0,3.940024,0.175839,-0.195205\C,0,5.26504,
 0.53915,0.184549\C,0,5.479402,1.520085,1.147894\C,0,6.360048,-0.068673
 ,-0.412912\C,0,6.761446,1.889048,1.505778\C,0,7.649207,0.280692,-0.044
 528\C,0,7.852726,1.26556,0.91321\H,0,4.624132,2.002234,1.612555\H,0,6.
 198832,-0.830082,-1.170918\H,0,6.936355,2.656092,2.253454\H,0,8.499101
 ,-0.206598,-0.518215\C,0,3.067884,1.217797,-0.624973\C,0,3.533169,2.17
 5669,-1.516644\C,0,1.768428,1.324352,-0.133595\C,0,2.72389,3.230889,-1
 .904642\C,0,0.952027,2.363639,-0.537\C,0,1.429133,3.326131,-1.415171\H
 ,0,4.545758,2.102962,-1.902377\H,0,1.364259,0.566763,0.534909\H,0,3.10
 6488,3.978127,-2.597301\H,0,-0.063643,2.437107,-0.162477\N,0,-4.071583
 ,0.199288,0.137893\C,0,-5.379657,-0.330758,0.192504\C,0,-6.464072,0.38
 1862,-0.308117\C,0,-5.615898,-1.583782,0.758482\C,0,-7.748035,-0.13540
 9,-0.237366\C,0,-6.890741,-2.11387,0.808775\C,0,-7.966332,-1.388715,0.
 314728\H,0,-6.301182,1.359246,-0.752201\H,0,-4.779992,-2.148147,1.1609
 2\H,0,-8.582756,0.442294,-0.630527\H,0,-7.071352,-3.090185,1.247847\C,
 0,-3.863071,1.579858,0.373004\C,0,-4.488297,2.228332,1.435995\C,0,-3.0
 28002,2.320518,-0.45569\C,0,-4.288516,3.577498,1.662294\C,0,-2.802155,
 3.666597,-0.218956\C,0,-3.435225,4.300687,0.840523\H,0,-5.141183,1.661
 753,2.093518\H,0,-2.533592,1.828985,-1.288374\H,0,-4.774148,4.081779,2
 .492022\H,0,-2.125658,4.220184,-0.867724\O,0,0.584592,4.343911,-1.7691
 73\H,0,1.03059,4.920168,-2.399784\O,0,9.095256,1.661445,1.308356\H,0,9
 .763222,1.159512,0.827959\O,0,-9.209724,-1.953542,0.400297\H,0,-9.8595
 16,-1.347058,0.028653\O,0,-3.254007,5.627948,1.116747\H,0,-2.609433,5.
 991357,0.499352\\Version=EM64L-G16RevA.03\State=1-A\HF=-2593.9544745\R
 MSD=6.471e-07\Dipole=2.6225247,-0.3249326,-1.9473447\Quadrupole=15.355
 6224,0.6832049,-16.0388273,-7.9804195,-0.8625868,-4.4990108\PG=C01 [X(
 C36H28N2O4S2)]\\@


 IT'S WHAT A FELLER THINKS HE KNOWS THAT HURTS HIM...
                    ------
           KIN HUBBARD
 Job cpu time:       0 days  4 hours 43 minutes 38.5 seconds.
 Elapsed time:       0 days  0 hours 41 minutes  8.8 seconds.
 File lengths (MBytes):  RWF=    356 Int=      0 D2E=      0 Chk=     64 Scr=      8
 Normal termination of Gaussian 16 at Thu Jan 21 20:02:56 2021.
