 Entering Gaussian System, Link 0=g16
 Input=mol_ta_ma_whol_tune_n6.gjf
 Output=mol_ta_ma_whol_tune_n6.log
 Initial command:
 /opt/ohpc/pub/libs/gaussian/g16-A.03/sandybridge/g16/l1.exe "/mnt/gpfs2_4m/scratch/rdu230/ondemand/projects/init_structures/wtuning/mol_ta_ma_whol/tuning_mol_ta_ma_whol_ocycle0/Gau-152032.inp" -scrdir="/mnt/gpfs2_4m/scratch/rdu230/ondemand/projects/init_structures/wtuning/mol_ta_ma_whol/tuning_mol_ta_ma_whol_ocycle0/"
 Entering Link 1 = /opt/ohpc/pub/libs/gaussian/g16-A.03/sandybridge/g16/l1.exe PID=    152033.
  
 Copyright (c) 1988,1990,1992,1993,1995,1998,2003,2009,2016,
            Gaussian, Inc.  All Rights Reserved.
  
 This is part of the Gaussian(R) 16 program.  It is based on
 the Gaussian(R) 09 system (copyright 2009, Gaussian, Inc.),
 the Gaussian(R) 03 system (copyright 2003, Gaussian, Inc.),
 the Gaussian(R) 98 system (copyright 1998, Gaussian, Inc.),
 the Gaussian(R) 94 system (copyright 1995, Gaussian, Inc.),
 the Gaussian 92(TM) system (copyright 1992, Gaussian, Inc.),
 the Gaussian 90(TM) system (copyright 1990, Gaussian, Inc.),
 the Gaussian 88(TM) system (copyright 1988, Gaussian, Inc.),
 the Gaussian 86(TM) system (copyright 1986, Carnegie Mellon
 University), and the Gaussian 82(TM) system (copyright 1983,
 Carnegie Mellon University). Gaussian is a federally registered
 trademark of Gaussian, Inc.
  
 This software contains proprietary and confidential information,
 including trade secrets, belonging to Gaussian, Inc.
  
 This software is provided under written license and may be
 used, copied, transmitted, or stored only in accord with that
 written license.
  
 The following legend is applicable only to US Government
 contracts under FAR:
  
                    RESTRICTED RIGHTS LEGEND
  
 Use, reproduction and disclosure by the US Government is
 subject to restrictions as set forth in subparagraphs (a)
 and (c) of the Commercial Computer Software - Restricted
 Rights clause in FAR 52.227-19.
  
 Gaussian, Inc.
 340 Quinnipiac St., Bldg. 40, Wallingford CT 06492
  
  
 ---------------------------------------------------------------
 Warning -- This program may not be used in any manner that
 competes with the business of Gaussian, Inc. or will provide
 assistance to any competitor of Gaussian, Inc.  The licensee
 of this program is prohibited from giving any competitor of
 Gaussian, Inc. access to this program.  By using this program,
 the user acknowledges that Gaussian, Inc. is engaged in the
 business of creating and licensing software in the field of
 computational chemistry and represents and warrants to the
 licensee that it is not a competitor of Gaussian, Inc. and that
 it will not use this program in any manner prohibited above.
 ---------------------------------------------------------------
  

 Cite this work as:
 Gaussian 16, Revision A.03,
 M. J. Frisch, G. W. Trucks, H. B. Schlegel, G. E. Scuseria, 
 M. A. Robb, J. R. Cheeseman, G. Scalmani, V. Barone, 
 G. A. Petersson, H. Nakatsuji, X. Li, M. Caricato, A. V. Marenich, 
 J. Bloino, B. G. Janesko, R. Gomperts, B. Mennucci, H. P. Hratchian, 
 J. V. Ortiz, A. F. Izmaylov, J. L. Sonnenberg, D. Williams-Young, 
 F. Ding, F. Lipparini, F. Egidi, J. Goings, B. Peng, A. Petrone, 
 T. Henderson, D. Ranasinghe, V. G. Zakrzewski, J. Gao, N. Rega, 
 G. Zheng, W. Liang, M. Hada, M. Ehara, K. Toyota, R. Fukuda, 
 J. Hasegawa, M. Ishida, T. Nakajima, Y. Honda, O. Kitao, H. Nakai, 
 T. Vreven, K. Throssell, J. A. Montgomery, Jr., J. E. Peralta, 
 F. Ogliaro, M. J. Bearpark, J. J. Heyd, E. N. Brothers, K. N. Kudin, 
 V. N. Staroverov, T. A. Keith, R. Kobayashi, J. Normand, 
 K. Raghavachari, A. P. Rendell, J. C. Burant, S. S. Iyengar, 
 J. Tomasi, M. Cossi, J. M. Millam, M. Klene, C. Adamo, R. Cammi, 
 J. W. Ochterski, R. L. Martin, K. Morokuma, O. Farkas, 
 J. B. Foresman, and D. J. Fox, Gaussian, Inc., Wallingford CT, 2016.
 
 ******************************************
 Gaussian 16:  EM64L-G16RevA.03 25-Dec-2016
                21-Jan-2021 
 ******************************************
 %mem=30GB
 %nproc=8
 Will use up to    8 processors via shared memory.
 ----------------------------------------------------------------------
 #P LC-wHPBE/TZVP iop(3/107=0167500000, 3/108=0167500000) scf=(conver=6
 ,fermi,ndamp=35,noincfock,novaracc,vshift=500,xqc)
 ----------------------------------------------------------------------
 1/38=1,172=1/1;
 2/12=2,17=6,18=5,40=1/2;
 3/5=19,7=101,11=2,25=1,30=1,74=-71,107=167500000,108=167500000/1,2,3;
 4//1;
 5/5=100002,6=6,8=3,10=500,13=1,18=-1,22=13,38=1,93=35/2,8;
 6/7=2,8=2,9=2,10=2,28=1/1;
 99/5=1,9=1/99;
 Leave Link    1 at Thu Jan 21 22:02:46 2021, MaxMem=  4026531840 cpu:               1.2 elap:               0.2
 (Enter /opt/ohpc/pub/libs/gaussian/g16-A.03/sandybridge/g16/l101.exe)
 ----------------
 H28 C36 S2 N2 O4
 ----------------
 Symbolic Z-matrix:
 Charge =  0 Multiplicity = 1
 C                    -1.74893  -0.48991   0.45205 
 C                    -0.62617  -1.27976   0.15257 
 S                     1.95275  -5.38863   0.81244 
 C                    -0.88231  -2.17007  -0.82073 
 C                     1.93271  -2.89727  -0.47654 
 C                     2.56651  -3.76144   0.41855 
 C                    -2.97535  -0.63196  -0.1958 
 C                    -2.04907  -2.38689  -1.54596 
 H                     0.24632  -4.4688   -0.58608 
 C                     2.3844   -1.61382  -0.70002 
 C                     3.67389  -3.2695    1.09548 
 C                     4.13591  -1.9848    0.8939 
 C                     3.4945   -1.12546  -0.00298 
 H                     1.85727  -0.97113  -1.39535 
 H                     4.17633  -3.91217   1.81179 
 H                     4.99298  -1.63215   1.45672 
 C                    -3.12247  -1.59022  -1.21061 
 H                    -1.68827   0.27673   1.22609 
 H                     2.539    -6.05112  -0.20625 
 H                    -2.13255  -3.12015  -2.34715 
 H                    -4.06824  -1.68817  -1.73412 
 S                     0.49142  -3.39136  -1.37893 
 N                     3.94002   0.17584  -0.19521 
 C                     5.26504   0.53915   0.18455 
 C                     5.4794    1.52009   1.14789 
 C                     6.36005  -0.06867  -0.41291 
 C                     6.76145   1.88905   1.50578 
 C                     7.64921   0.28069  -0.04453 
 C                     7.85273   1.26556   0.91321 
 H                     4.62413   2.00223   1.61256 
 H                     6.19883  -0.83008  -1.17092 
 H                     6.93636   2.65609   2.25345 
 H                     8.4991   -0.2066   -0.51822 
 C                     3.06788   1.2178   -0.62497 
 C                     3.53317   2.17567  -1.51664 
 C                     1.76843   1.32435  -0.1336 
 C                     2.72389   3.23089  -1.90464 
 C                     0.95203   2.36364  -0.537 
 C                     1.42913   3.32613  -1.41517 
 H                     4.54576   2.10296  -1.90238 
 H                     1.36426   0.56676   0.53491 
 H                     3.10649   3.97813  -2.5973 
 H                    -0.06364   2.43711  -0.16248 
 N                    -4.07158   0.19929   0.13789 
 C                    -5.37966  -0.33076   0.1925 
 C                    -6.46407   0.38186  -0.30812 
 C                    -5.6159   -1.58378   0.75848 
 C                    -7.74803  -0.13541  -0.23737 
 C                    -6.89074  -2.11387   0.80878 
 C                    -7.96633  -1.38872   0.31473 
 H                    -6.30118   1.35925  -0.7522 
 H                    -4.77999  -2.14815   1.16092 
 H                    -8.58276   0.44229  -0.63053 
 H                    -7.07135  -3.09018   1.24785 
 C                    -3.86307   1.57986   0.373 
 C                    -4.4883    2.22833   1.436 
 C                    -3.028     2.32052  -0.45569 
 C                    -4.28852   3.5775    1.66229 
 C                    -2.80216   3.6666   -0.21896 
 C                    -3.43522   4.30069   0.84052 
 H                    -5.14118   1.66175   2.09352 
 H                    -2.53359   1.82899  -1.28837 
 H                    -4.77415   4.08178   2.49202 
 H                    -2.12566   4.22018  -0.86772 
 O                     0.58459   4.34391  -1.76917 
 H                     1.03059   4.92017  -2.39978 
 O                     9.09526   1.66145   1.30836 
 H                     9.76322   1.15951   0.82796 
 O                    -9.20972  -1.95354   0.4003 
 H                    -9.85952  -1.34706   0.02865 
 O                    -3.25401   5.62795   1.11675 
 H                    -2.60943   5.99136   0.49935 
 
 ITRead=  0  0  0  0  0  0  0  0  0  0  0  0  0  0  0  0  0  0  0  0
 ITRead=  0  0  0  0  0  0  0  0  0  0  0  0  0  0  0  0  0  0  0  0
 ITRead=  0  0  0  0  0  0  0  0  0  0  0  0  0  0  0  0  0  0  0  0
 ITRead=  0  0  0  0  0  0  0  0  0  0  0  0
 MicOpt= -1 -1 -1 -1 -1 -1 -1 -1 -1 -1 -1 -1 -1 -1 -1 -1 -1 -1 -1 -1
 MicOpt= -1 -1 -1 -1 -1 -1 -1 -1 -1 -1 -1 -1 -1 -1 -1 -1 -1 -1 -1 -1
 MicOpt= -1 -1 -1 -1 -1 -1 -1 -1 -1 -1 -1 -1 -1 -1 -1 -1 -1 -1 -1 -1
 MicOpt= -1 -1 -1 -1 -1 -1 -1 -1 -1 -1 -1 -1
 NAtoms=     72 NQM=       72 NQMF=       0 NMMI=      0 NMMIF=      0
                NMic=       0 NMicF=      0.
                    Isotopes and Nuclear Properties:
 (Nuclear quadrupole moments (NQMom) in fm**2, nuclear magnetic moments (NMagM)
  in nuclear magnetons)

  Atom         1           2           3           4           5           6           7           8           9          10
 IAtWgt=          12          12          32          12          12          12          12          12           1          12
 AtmWgt=  12.0000000  12.0000000  31.9720718  12.0000000  12.0000000  12.0000000  12.0000000  12.0000000   1.0078250  12.0000000
 NucSpn=           0           0           0           0           0           0           0           0           1           0
 AtZEff=  -0.0000000  -0.0000000  -0.0000000  -0.0000000  -0.0000000  -0.0000000  -0.0000000  -0.0000000  -0.0000000  -0.0000000
 NQMom=    0.0000000   0.0000000   0.0000000   0.0000000   0.0000000   0.0000000   0.0000000   0.0000000   0.0000000   0.0000000
 NMagM=    0.0000000   0.0000000   0.0000000   0.0000000   0.0000000   0.0000000   0.0000000   0.0000000   2.7928460   0.0000000
 AtZNuc=   6.0000000   6.0000000  16.0000000   6.0000000   6.0000000   6.0000000   6.0000000   6.0000000   1.0000000   6.0000000

  Atom        11          12          13          14          15          16          17          18          19          20
 IAtWgt=          12          12          12           1           1           1          12           1           1           1
 AtmWgt=  12.0000000  12.0000000  12.0000000   1.0078250   1.0078250   1.0078250  12.0000000   1.0078250   1.0078250   1.0078250
 NucSpn=           0           0           0           1           1           1           0           1           1           1
 AtZEff=  -0.0000000  -0.0000000  -0.0000000  -0.0000000  -0.0000000  -0.0000000  -0.0000000  -0.0000000  -0.0000000  -0.0000000
 NQMom=    0.0000000   0.0000000   0.0000000   0.0000000   0.0000000   0.0000000   0.0000000   0.0000000   0.0000000   0.0000000
 NMagM=    0.0000000   0.0000000   0.0000000   2.7928460   2.7928460   2.7928460   0.0000000   2.7928460   2.7928460   2.7928460
 AtZNuc=   6.0000000   6.0000000   6.0000000   1.0000000   1.0000000   1.0000000   6.0000000   1.0000000   1.0000000   1.0000000

  Atom        21          22          23          24          25          26          27          28          29          30
 IAtWgt=           1          32          14          12          12          12          12          12          12           1
 AtmWgt=   1.0078250  31.9720718  14.0030740  12.0000000  12.0000000  12.0000000  12.0000000  12.0000000  12.0000000   1.0078250
 NucSpn=           1           0           2           0           0           0           0           0           0           1
 AtZEff=  -0.0000000  -0.0000000  -0.0000000  -0.0000000  -0.0000000  -0.0000000  -0.0000000  -0.0000000  -0.0000000  -0.0000000
 NQMom=    0.0000000   0.0000000   2.0440000   0.0000000   0.0000000   0.0000000   0.0000000   0.0000000   0.0000000   0.0000000
 NMagM=    2.7928460   0.0000000   0.4037610   0.0000000   0.0000000   0.0000000   0.0000000   0.0000000   0.0000000   2.7928460
 AtZNuc=   1.0000000  16.0000000   7.0000000   6.0000000   6.0000000   6.0000000   6.0000000   6.0000000   6.0000000   1.0000000

  Atom        31          32          33          34          35          36          37          38          39          40
 IAtWgt=           1           1           1          12          12          12          12          12          12           1
 AtmWgt=   1.0078250   1.0078250   1.0078250  12.0000000  12.0000000  12.0000000  12.0000000  12.0000000  12.0000000   1.0078250
 NucSpn=           1           1           1           0           0           0           0           0           0           1
 AtZEff=  -0.0000000  -0.0000000  -0.0000000  -0.0000000  -0.0000000  -0.0000000  -0.0000000  -0.0000000  -0.0000000  -0.0000000
 NQMom=    0.0000000   0.0000000   0.0000000   0.0000000   0.0000000   0.0000000   0.0000000   0.0000000   0.0000000   0.0000000
 NMagM=    2.7928460   2.7928460   2.7928460   0.0000000   0.0000000   0.0000000   0.0000000   0.0000000   0.0000000   2.7928460
 AtZNuc=   1.0000000   1.0000000   1.0000000   6.0000000   6.0000000   6.0000000   6.0000000   6.0000000   6.0000000   1.0000000

  Atom        41          42          43          44          45          46          47          48          49          50
 IAtWgt=           1           1           1          14          12          12          12          12          12          12
 AtmWgt=   1.0078250   1.0078250   1.0078250  14.0030740  12.0000000  12.0000000  12.0000000  12.0000000  12.0000000  12.0000000
 NucSpn=           1           1           1           2           0           0           0           0           0           0
 AtZEff=  -0.0000000  -0.0000000  -0.0000000  -0.0000000  -0.0000000  -0.0000000  -0.0000000  -0.0000000  -0.0000000  -0.0000000
 NQMom=    0.0000000   0.0000000   0.0000000   2.0440000   0.0000000   0.0000000   0.0000000   0.0000000   0.0000000   0.0000000
 NMagM=    2.7928460   2.7928460   2.7928460   0.4037610   0.0000000   0.0000000   0.0000000   0.0000000   0.0000000   0.0000000
 AtZNuc=   1.0000000   1.0000000   1.0000000   7.0000000   6.0000000   6.0000000   6.0000000   6.0000000   6.0000000   6.0000000

  Atom        51          52          53          54          55          56          57          58          59          60
 IAtWgt=           1           1           1           1          12          12          12          12          12          12
 AtmWgt=   1.0078250   1.0078250   1.0078250   1.0078250  12.0000000  12.0000000  12.0000000  12.0000000  12.0000000  12.0000000
 NucSpn=           1           1           1           1           0           0           0           0           0           0
 AtZEff=  -0.0000000  -0.0000000  -0.0000000  -0.0000000  -0.0000000  -0.0000000  -0.0000000  -0.0000000  -0.0000000  -0.0000000
 NQMom=    0.0000000   0.0000000   0.0000000   0.0000000   0.0000000   0.0000000   0.0000000   0.0000000   0.0000000   0.0000000
 NMagM=    2.7928460   2.7928460   2.7928460   2.7928460   0.0000000   0.0000000   0.0000000   0.0000000   0.0000000   0.0000000
 AtZNuc=   1.0000000   1.0000000   1.0000000   1.0000000   6.0000000   6.0000000   6.0000000   6.0000000   6.0000000   6.0000000

  Atom        61          62          63          64          65          66          67          68          69          70
 IAtWgt=           1           1           1           1          16           1          16           1          16           1
 AtmWgt=   1.0078250   1.0078250   1.0078250   1.0078250  15.9949146   1.0078250  15.9949146   1.0078250  15.9949146   1.0078250
 NucSpn=           1           1           1           1           0           1           0           1           0           1
 AtZEff=  -0.0000000  -0.0000000  -0.0000000  -0.0000000  -0.0000000  -0.0000000  -0.0000000  -0.0000000  -0.0000000  -0.0000000
 NQMom=    0.0000000   0.0000000   0.0000000   0.0000000   0.0000000   0.0000000   0.0000000   0.0000000   0.0000000   0.0000000
 NMagM=    2.7928460   2.7928460   2.7928460   2.7928460   0.0000000   2.7928460   0.0000000   2.7928460   0.0000000   2.7928460
 AtZNuc=   1.0000000   1.0000000   1.0000000   1.0000000   8.0000000   1.0000000   8.0000000   1.0000000   8.0000000   1.0000000

  Atom        71          72
 IAtWgt=          16           1
 AtmWgt=  15.9949146   1.0078250
 NucSpn=           0           1
 AtZEff=  -0.0000000  -0.0000000
 NQMom=    0.0000000   0.0000000
 NMagM=    0.0000000   2.7928460
 AtZNuc=   8.0000000   1.0000000
 Leave Link  101 at Thu Jan 21 22:02:47 2021, MaxMem=  4026531840 cpu:               0.6 elap:               0.1
 (Enter /opt/ohpc/pub/libs/gaussian/g16-A.03/sandybridge/g16/l202.exe)
 Stoichiometry    C36H28N2O4S2
 Framework group  C1[X(C36H28N2O4S2)]
 Deg. of freedom   210
 Full point group                 C1      NOp   1
 Largest Abelian subgroup         C1      NOp   1
 Largest concise Abelian subgroup C1      NOp   1
                         Standard orientation:                         
 ---------------------------------------------------------------------
 Center     Atomic      Atomic             Coordinates (Angstroms)
 Number     Number       Type             X           Y           Z
 ---------------------------------------------------------------------
      1          6           0       -1.748928    0.489907   -0.452051
      2          6           0       -0.626174    1.279763   -0.152570
      3         16           0        1.952753    5.388628   -0.812439
      4          6           0       -0.882312    2.170069    0.820725
      5          6           0        1.932708    2.897266    0.476539
      6          6           0        2.566514    3.761438   -0.418550
      7          6           0       -2.975354    0.631957    0.195801
      8          6           0       -2.049066    2.386893    1.545961
      9          1           0        0.246316    4.468801    0.586079
     10          6           0        2.384401    1.613824    0.700024
     11          6           0        3.673888    3.269502   -1.095477
     12          6           0        4.135912    1.984797   -0.893895
     13          6           0        3.494497    1.125461    0.002977
     14          1           0        1.857267    0.971131    1.395345
     15          1           0        4.176334    3.912174   -1.811785
     16          1           0        4.992977    1.632150   -1.456718
     17          6           0       -3.122467    1.590215    1.210611
     18          1           0       -1.688273   -0.276733   -1.226088
     19          1           0        2.539000    6.051116    0.206249
     20          1           0       -2.132551    3.120151    2.347153
     21          1           0       -4.068236    1.688167    1.734116
     22         16           0        0.491419    3.391365    1.378930
     23          7           0        3.940024   -0.175839    0.195205
     24          6           0        5.265040   -0.539150   -0.184549
     25          6           0        5.479402   -1.520085   -1.147894
     26          6           0        6.360048    0.068673    0.412912
     27          6           0        6.761446   -1.889048   -1.505778
     28          6           0        7.649207   -0.280692    0.044528
     29          6           0        7.852726   -1.265560   -0.913210
     30          1           0        4.624132   -2.002234   -1.612555
     31          1           0        6.198832    0.830082    1.170918
     32          1           0        6.936355   -2.656092   -2.253454
     33          1           0        8.499101    0.206598    0.518215
     34          6           0        3.067884   -1.217797    0.624973
     35          6           0        3.533169   -2.175669    1.516644
     36          6           0        1.768428   -1.324352    0.133595
     37          6           0        2.723890   -3.230889    1.904642
     38          6           0        0.952027   -2.363639    0.537000
     39          6           0        1.429133   -3.326131    1.415171
     40          1           0        4.545758   -2.102962    1.902377
     41          1           0        1.364259   -0.566763   -0.534909
     42          1           0        3.106488   -3.978127    2.597301
     43          1           0       -0.063643   -2.437107    0.162477
     44          7           0       -4.071583   -0.199288   -0.137893
     45          6           0       -5.379657    0.330758   -0.192504
     46          6           0       -6.464072   -0.381862    0.308117
     47          6           0       -5.615898    1.583782   -0.758482
     48          6           0       -7.748035    0.135409    0.237366
     49          6           0       -6.890741    2.113870   -0.808775
     50          6           0       -7.966332    1.388715   -0.314728
     51          1           0       -6.301182   -1.359246    0.752201
     52          1           0       -4.779992    2.148147   -1.160920
     53          1           0       -8.582756   -0.442294    0.630527
     54          1           0       -7.071352    3.090185   -1.247847
     55          6           0       -3.863071   -1.579858   -0.373004
     56          6           0       -4.488297   -2.228332   -1.435995
     57          6           0       -3.028002   -2.320518    0.455690
     58          6           0       -4.288516   -3.577498   -1.662294
     59          6           0       -2.802155   -3.666597    0.218956
     60          6           0       -3.435225   -4.300687   -0.840523
     61          1           0       -5.141183   -1.661753   -2.093518
     62          1           0       -2.533592   -1.828985    1.288374
     63          1           0       -4.774148   -4.081779   -2.492022
     64          1           0       -2.125658   -4.220184    0.867724
     65          8           0        0.584592   -4.343911    1.769173
     66          1           0        1.030590   -4.920168    2.399784
     67          8           0        9.095256   -1.661445   -1.308356
     68          1           0        9.763222   -1.159512   -0.827959
     69          8           0       -9.209724    1.953542   -0.400297
     70          1           0       -9.859516    1.347058   -0.028653
     71          8           0       -3.254007   -5.627948   -1.116747
     72          1           0       -2.609433   -5.991357   -0.499352
 ---------------------------------------------------------------------
 Rotational constants (GHZ):           0.1003685           0.0370235           0.0288534
 Leave Link  202 at Thu Jan 21 22:02:47 2021, MaxMem=  4026531840 cpu:               0.3 elap:               0.1
 (Enter /opt/ohpc/pub/libs/gaussian/g16-A.03/sandybridge/g16/l301.exe)
 Standard basis: TZVP (5D, 7F)
 Ernie: Thresh=  0.10000D-02 Tol=  0.10000D-05 Strict=F.
 There are  1054 symmetry adapted cartesian basis functions of A   symmetry.
 There are  1010 symmetry adapted basis functions of A   symmetry.
  1010 basis functions,  1788 primitive gaussians,  1054 cartesian basis functions
   161 alpha electrons      161 beta electrons
       nuclear repulsion energy      5277.7236652844 Hartrees.
 IExCor=33909 DFT=T Ex+Corr=LC-wHPBE ExCW=0 ScaHFX=  1.000000
 ScaDFX=  1.000000  1.000000  1.000000  1.000000 ScalE2=  1.000000  1.000000
 IRadAn=      5 IRanWt=     -1 IRanGd=            0 ICorTp=0 IEmpDi=  4
 HFx  wShort=  0.000000 wLong=  0.167500 cFull=  0.000000 cShort=  0.000000 cLong=  1.000000
 DFx  wShort=  0.000000 wLong=  0.167500 cFull=  0.000000 cShort=  1.000000 cLong=  0.000000
 NAtoms=   72 NActive=   72 NUniq=   72 SFac= 1.00D+00 NAtFMM=   60 NAOKFM=T Big=T
 Integral buffers will be    131072 words long.
 Raffenetti 2 integral format.
 Two-electron integral symmetry is turned on.
 Leave Link  301 at Thu Jan 21 22:02:47 2021, MaxMem=  4026531840 cpu:               0.3 elap:               0.1
 (Enter /opt/ohpc/pub/libs/gaussian/g16-A.03/sandybridge/g16/l302.exe)
 NPDir=0 NMtPBC=     1 NCelOv=     1 NCel=       1 NClECP=     1 NCelD=      1
         NCelK=      1 NCelE2=     1 NClLst=     1 CellRange=     0.0.
 One-electron integrals computed using PRISM.
 One-electron integral symmetry used in STVInt
 NBasis=  1010 RedAO= T EigKep=  6.33D-06  NBF=  1010
 NBsUse=  1010 1.00D-06 EigRej= -1.00D+00 NBFU=  1010
 Precomputing XC quadrature grid using
 IXCGrd= 4 IRadAn=           5 IRanWt=          -1 IRanGd=           0 AccXCQ= 0.00D+00.
 Generated NRdTot=       0 NPtTot=           0 NUsed=           0 NTot=          32
 NSgBfM=   960   960   960   960   960 MxSgAt=    72 MxSgA2=    72.
 Leave Link  302 at Thu Jan 21 22:02:50 2021, MaxMem=  4026531840 cpu:              22.5 elap:               2.9
 (Enter /opt/ohpc/pub/libs/gaussian/g16-A.03/sandybridge/g16/l303.exe)
 DipDrv:  MaxL=1.
 Leave Link  303 at Thu Jan 21 22:02:50 2021, MaxMem=  4026531840 cpu:               1.9 elap:               0.5
 (Enter /opt/ohpc/pub/libs/gaussian/g16-A.03/sandybridge/g16/l401.exe)
 ExpMin= 9.52D-02 ExpMax= 6.07D+04 ExpMxC= 2.07D+03 IAcc=3 IRadAn=         5 AccDes= 0.00D+00
 Harris functional with IExCor=33909 and IRadAn=       5 diagonalized for initial guess.
 HarFok:  IExCor=33909 AccDes= 0.00D+00 IRadAn=         5 IDoV= 1 UseB2=F ITyADJ=14
 ICtDFT=  3500011 ScaDFX=  1.000000  1.000000  1.000000  1.000000
 FoFCou: FMM=F IPFlag=           0 FMFlag=      100000 FMFlg1=        2001
         NFxFlg=           0 DoJE=T BraDBF=F KetDBF=T FulRan=T
         wScrn=  0.000000 ICntrl=       500 IOpCl=  0 I1Cent=   200000004 NGrid=           0
         NMat0=    1 NMatS0=      1 NMatT0=    0 NMatD0=    1 NMtDS0=    0 NMtDT0=    0
 Petite list used in FoFCou.
 Harris En= -2564.91820772492    
 JPrj=0 DoOrth=F DoCkMO=F.
 Leave Link  401 at Thu Jan 21 22:03:09 2021, MaxMem=  4026531840 cpu:             110.4 elap:              18.5
 (Enter /opt/ohpc/pub/libs/gaussian/g16-A.03/sandybridge/g16/l502.exe)
 Integral symmetry usage will be decided dynamically.
 Closed shell SCF:
 Using DIIS extrapolation, IDIIS=    10.
 NGot=  4026531840 LenX=  4024291472 LenY=  4023179502
 Requested convergence on RMS density matrix=1.00D-06 within  32 cycles.
 Requested convergence on MAX density matrix=1.00D-04.
 Requested convergence on             energy=1.00D-04.
 Virtual orbitals will be shifted by   0.500 hartree.
 No special actions if energy rises.
 Dynamic level shift is on during FON iterations.

 Cycle   1  Pass 1  IDiag  1:
 FoFJK:  IHMeth= 1 ICntrl=       0 DoSepK=T KAlg= 0 I1Cent=           0 FoldK=F
 IRaf=         1 NMat=       1 IRICut=       1 DoRegI=T DoRafI=F ISym2E= 0 IDoP0=0 IntGTp=1.
 FoFCou: FMM=T IPFlag=           0 FMFlag=      100000 FMFlg1=        2001
         NFxFlg=           0 DoJE=T BraDBF=F KetDBF=F FulRan=T
         wScrn=  0.000000 ICntrl=       500 IOpCl=  0 I1Cent=           0 NGrid=           0
         NMat0=    1 NMatS0=      1 NMatT0=    0 NMatD0=    1 NMtDS0=    0 NMtDT0=    0
 Symmetry not used in FoFCou.
 FMM levels:  10  Number of levels for PrismC:   9
 E= -2593.02422581198    
 DIIS: error= 1.91D-02 at cycle   1 NSaved=   1.
 NSaved= 1 IEnMin= 1 EnMin= -2593.02422581198     IErMin= 1 ErrMin= 1.91D-02
 ErrMax= 1.91D-02  0.00D+00 EMaxC= 1.00D+00 BMatC= 9.28D-01 BMatP= 9.28D-01
 IDIUse=1 WtCom= 1.00D+00 WtEn= 0.00D+00
 Coeff-Com:  0.100D+01
 Coeff:      0.100D+01
 Gap=     0.369 Goal=   None    Shift=    0.500
 T= 1226. Gap= 0.436 NK=0 IS=  162 IE= 1010 IFin=  161
          NO(<0.9)=   0  NV(>0.1)=   0    161.00e < EF      0.00e >EF  Err=0.0D+00
 GapD=    0.369 DampG=1.000 DampE=0.500 DampFc=0.5000 IDamp=-1.
 Damping current iteration by 5.00D-01
 RMSDP=3.42D-03 MaxDP=4.77D-01              OVMax= 1.43D-01

 Cycle   2  Pass 1  IDiag  1:
 E= -2593.59814587943     Delta-E=       -0.573920067452 Rises=F Damp=T
 DIIS: error= 7.79D-03 at cycle   2 NSaved=   2.
 NSaved= 2 IEnMin= 2 EnMin= -2593.59814587943     IErMin= 2 ErrMin= 7.79D-03
 ErrMax= 7.79D-03  0.00D+00 EMaxC= 1.00D+00 BMatC= 1.29D-01 BMatP= 9.28D-01
 IDIUse=1 WtCom= 1.00D+00 WtEn= 0.00D+00
 Coeff-Com: -0.457D+00 0.146D+01
 Coeff:     -0.457D+00 0.146D+01
 Gap=     0.227 Goal=   None    Shift=    0.500
 T= 1094. Gap= 0.682 NK=0 IS=  162 IE= 1010 IFin=  161
          NO(<0.9)=   0  NV(>0.1)=   0    161.00e < EF      0.00e >EF  Err=0.0D+00
 GapD=    0.227 DampG=1.000 DampE=1.000 DampFc=1.0000 IDamp=-1.
 RMSDP=1.58D-03 MaxDP=1.50D-01 DE=-5.74D-01 OVMax= 1.98D-02

 Cycle   3  Pass 1  IDiag  1:
 E= -2593.91844700581     Delta-E=       -0.320301126382 Rises=F Damp=F
 DIIS: error= 1.99D-03 at cycle   3 NSaved=   3.
 NSaved= 3 IEnMin= 3 EnMin= -2593.91844700581     IErMin= 3 ErrMin= 1.99D-03
 ErrMax= 1.99D-03  0.00D+00 EMaxC= 1.00D+00 BMatC= 1.42D-02 BMatP= 1.29D-01
 IDIUse=1 WtCom= 1.00D+00 WtEn= 0.00D+00
 Coeff-Com:  0.567D-01 0.913D-01 0.852D+00
 Coeff:      0.567D-01 0.913D-01 0.852D+00
 Gap=     0.207 Goal=   None    Shift=    0.500
 T=  814. Gap= 0.702 NK=0 IS=  162 IE= 1010 IFin=  161
          NO(<0.9)=   0  NV(>0.1)=   0    161.00e < EF      0.00e >EF  Err=0.0D+00
 GapD=    0.207 DampG=1.000 DampE=1.000 DampFc=1.0000 IDamp=-1.
 RMSDP=6.34D-04 MaxDP=1.05D-01 DE=-3.20D-01 OVMax= 9.50D-03

 Cycle   4  Pass 1  IDiag  1:
 E= -2593.93108844578     Delta-E=       -0.012641439966 Rises=F Damp=F
 DIIS: error= 1.01D-03 at cycle   4 NSaved=   4.
 NSaved= 4 IEnMin= 4 EnMin= -2593.93108844578     IErMin= 4 ErrMin= 1.01D-03
 ErrMax= 1.01D-03  0.00D+00 EMaxC= 1.00D+00 BMatC= 1.99D-03 BMatP= 1.42D-02
 IDIUse=1 WtCom= 1.00D+00 WtEn= 0.00D+00
 Coeff-Com:  0.747D-01-0.937D-01 0.740D-01 0.945D+00
 Coeff:      0.747D-01-0.937D-01 0.740D-01 0.945D+00
 Gap=     0.204 Goal=   None    Shift=    0.500
 T=  223. Gap= 0.704 NK=0 IS=  162 IE= 1010 IFin=  161
          NO(<0.9)=   0  NV(>0.1)=   0    161.00e < EF      0.00e >EF  Err=0.0D+00
 GapD=    0.204 DampG=1.000 DampE=1.000 DampFc=1.0000 IDamp=-1.
 RMSDP=2.94D-04 MaxDP=4.80D-02 DE=-1.26D-02 OVMax= 6.80D-03

 Cycle   5  Pass 1  IDiag  1:
 E= -2593.93297077345     Delta-E=       -0.001882327671 Rises=F Damp=F
 DIIS: error= 3.21D-04 at cycle   5 NSaved=   5.
 NSaved= 5 IEnMin= 5 EnMin= -2593.93297077345     IErMin= 5 ErrMin= 3.21D-04
 ErrMax= 3.21D-04  0.00D+00 EMaxC= 1.00D+00 BMatC= 2.43D-04 BMatP= 1.99D-03
 IDIUse=1 WtCom= 1.00D+00 WtEn= 0.00D+00
 Coeff-Com:  0.137D-01-0.247D-01-0.682D-01 0.182D-01 0.106D+01
 Coeff:      0.137D-01-0.247D-01-0.682D-01 0.182D-01 0.106D+01
 Gap=     0.206 Goal=   None    Shift=    0.500
 RMSDP=1.76D-04 MaxDP=2.87D-02 DE=-1.88D-03 OVMax= 5.17D-03

 Cycle   6  Pass 1  IDiag  1:
 E= -2593.93339267795     Delta-E=       -0.000421904499 Rises=F Damp=F
 DIIS: error= 2.96D-04 at cycle   6 NSaved=   6.
 NSaved= 6 IEnMin= 6 EnMin= -2593.93339267795     IErMin= 6 ErrMin= 2.96D-04
 ErrMax= 2.96D-04  0.00D+00 EMaxC= 1.00D+00 BMatC= 4.88D-05 BMatP= 2.43D-04
 IDIUse=1 WtCom= 1.00D+00 WtEn= 0.00D+00
 Coeff-Com: -0.967D-02 0.117D-01-0.428D-01-0.125D+00 0.180D-01 0.115D+01
 Coeff:     -0.967D-02 0.117D-01-0.428D-01-0.125D+00 0.180D-01 0.115D+01
 Gap=     0.206 Goal=   None    Shift=    0.500
 RMSDP=1.04D-04 MaxDP=1.63D-02 DE=-4.22D-04 OVMax= 4.72D-03

 Cycle   7  Pass 1  IDiag  1:
 E= -2593.93355057724     Delta-E=       -0.000157899294 Rises=F Damp=F
 DIIS: error= 2.41D-04 at cycle   7 NSaved=   7.
 NSaved= 7 IEnMin= 7 EnMin= -2593.93355057724     IErMin= 7 ErrMin= 2.41D-04
 ErrMax= 2.41D-04  0.00D+00 EMaxC= 1.00D+00 BMatC= 1.89D-05 BMatP= 4.88D-05
 IDIUse=1 WtCom= 1.00D+00 WtEn= 0.00D+00
 Coeff-Com: -0.526D-02 0.630D-02 0.579D-02-0.336D-01-0.302D+00-0.131D+00
 Coeff-Com:  0.146D+01
 Coeff:     -0.526D-02 0.630D-02 0.579D-02-0.336D-01-0.302D+00-0.131D+00
 Coeff:      0.146D+01
 Gap=     0.207 Goal=   None    Shift=    0.500
 RMSDP=6.92D-05 MaxDP=1.01D-02 DE=-1.58D-04 OVMax= 4.11D-03

 Cycle   8  Pass 1  IDiag  1:
 E= -2593.93363480926     Delta-E=       -0.000084232022 Rises=F Damp=F
 DIIS: error= 2.02D-04 at cycle   8 NSaved=   8.
 NSaved= 8 IEnMin= 8 EnMin= -2593.93363480926     IErMin= 8 ErrMin= 2.02D-04
 ErrMax= 2.02D-04  0.00D+00 EMaxC= 1.00D+00 BMatC= 9.12D-06 BMatP= 1.89D-05
 IDIUse=1 WtCom= 1.00D+00 WtEn= 0.00D+00
 Coeff-Com:  0.272D-02-0.498D-02 0.211D-01 0.320D-01-0.126D+00-0.546D+00
 Coeff-Com:  0.118D+00 0.150D+01
 Coeff:      0.272D-02-0.498D-02 0.211D-01 0.320D-01-0.126D+00-0.546D+00
 Coeff:      0.118D+00 0.150D+01
 Gap=     0.207 Goal=   None    Shift=    0.500
 RMSDP=5.05D-05 MaxDP=6.78D-03 DE=-8.42D-05 OVMax= 3.49D-03

 Cycle   9  Pass 1  IDiag  1:
 E= -2593.93368343104     Delta-E=       -0.000048621778 Rises=F Damp=F
 DIIS: error= 1.68D-04 at cycle   9 NSaved=   9.
 NSaved= 9 IEnMin= 9 EnMin= -2593.93368343104     IErMin= 9 ErrMin= 1.68D-04
 ErrMax= 1.68D-04  0.00D+00 EMaxC= 1.00D+00 BMatC= 4.70D-06 BMatP= 9.12D-06
 IDIUse=1 WtCom= 1.00D+00 WtEn= 0.00D+00
 Coeff-Com:  0.381D-02-0.558D-02 0.602D-02 0.310D-01 0.139D+00-0.269D+00
 Coeff-Com: -0.744D+00-0.669D-01 0.190D+01
 Coeff:      0.381D-02-0.558D-02 0.602D-02 0.310D-01 0.139D+00-0.269D+00
 Coeff:     -0.744D+00-0.669D-01 0.190D+01
 Gap=     0.207 Goal=   None    Shift=    0.500
 RMSDP=3.85D-05 MaxDP=4.49D-03 DE=-4.86D-05 OVMax= 3.13D-03

 Cycle  10  Pass 1  IDiag  1:
 E= -2593.93371339893     Delta-E=       -0.000029967885 Rises=F Damp=F
 DIIS: error= 1.33D-04 at cycle  10 NSaved=  10.
 NSaved=10 IEnMin=10 EnMin= -2593.93371339893     IErMin=10 ErrMin= 1.33D-04
 ErrMax= 1.33D-04  0.00D+00 EMaxC= 1.00D+00 BMatC= 2.61D-06 BMatP= 4.70D-06
 IDIUse=1 WtCom= 1.00D+00 WtEn= 0.00D+00
 Coeff-Com:  0.586D-03-0.434D-03-0.646D-02 0.101D-01 0.132D+00 0.154D-01
 Coeff-Com: -0.391D+00-0.655D+00 0.216D-01 0.187D+01
 Coeff:      0.586D-03-0.434D-03-0.646D-02 0.101D-01 0.132D+00 0.154D-01
 Coeff:     -0.391D+00-0.655D+00 0.216D-01 0.187D+01
 Gap=     0.208 Goal=   None    Shift=    0.500
 RMSDP=2.83D-05 MaxDP=3.56D-03 DE=-3.00D-05 OVMax= 2.59D-03

 Cycle  11  Pass 1  IDiag  1:
 E= -2593.93373109482     Delta-E=       -0.000017695897 Rises=F Damp=F
 DIIS: error= 1.05D-04 at cycle  11 NSaved=  11.
 NSaved=11 IEnMin=11 EnMin= -2593.93373109482     IErMin=11 ErrMin= 1.05D-04
 ErrMax= 1.05D-04  0.00D+00 EMaxC= 1.00D+00 BMatC= 1.48D-06 BMatP= 2.61D-06
 IDIUse=1 WtCom= 1.00D+00 WtEn= 0.00D+00
 Coeff-Com: -0.145D-02 0.234D-02-0.468D-02-0.381D-02-0.128D-01 0.896D-01
 Coeff-Com:  0.286D+00-0.323D+00-0.130D+01 0.624D-01 0.220D+01
 Coeff:     -0.145D-02 0.234D-02-0.468D-02-0.381D-02-0.128D-01 0.896D-01
 Coeff:      0.286D+00-0.323D+00-0.130D+01 0.624D-01 0.220D+01
 Gap=     0.208 Goal=   None    Shift=    0.500
 RMSDP=2.29D-05 MaxDP=2.82D-03 DE=-1.77D-05 OVMax= 2.18D-03

 Cycle  12  Pass 1  IDiag  1:
 E= -2593.93374180703     Delta-E=       -0.000010712203 Rises=F Damp=F
 DIIS: error= 8.02D-05 at cycle  12 NSaved=  12.
 NSaved=12 IEnMin=12 EnMin= -2593.93374180703     IErMin=12 ErrMin= 8.02D-05
 ErrMax= 8.02D-05  0.00D+00 EMaxC= 1.00D+00 BMatC= 8.76D-07 BMatP= 1.48D-06
 IDIUse=1 WtCom= 1.00D+00 WtEn= 0.00D+00
 Coeff-Com: -0.744D-03 0.927D-03 0.330D-02-0.752D-02-0.657D-01 0.758D-02
 Coeff-Com:  0.384D+00 0.207D+00-0.828D+00-0.124D+01 0.478D+00 0.206D+01
 Coeff:     -0.744D-03 0.927D-03 0.330D-02-0.752D-02-0.657D-01 0.758D-02
 Coeff:      0.384D+00 0.207D+00-0.828D+00-0.124D+01 0.478D+00 0.206D+01
 Gap=     0.208 Goal=   None    Shift=    0.500
 RMSDP=1.75D-05 MaxDP=2.11D-03 DE=-1.07D-05 OVMax= 1.76D-03

 Cycle  13  Pass 1  IDiag  1:
 E= -2593.93374805132     Delta-E=       -0.000006244292 Rises=F Damp=F
 DIIS: error= 6.03D-05 at cycle  13 NSaved=  13.
 NSaved=13 IEnMin=13 EnMin= -2593.93374805132     IErMin=13 ErrMin= 6.03D-05
 ErrMax= 6.03D-05  0.00D+00 EMaxC= 1.00D+00 BMatC= 5.00D-07 BMatP= 8.76D-07
 IDIUse=1 WtCom= 1.00D+00 WtEn= 0.00D+00
 Coeff-Com:  0.160D-03-0.455D-03 0.464D-02-0.400D-02-0.238D-01-0.538D-01
 Coeff-Com:  0.110D+00 0.299D+00 0.860D-01-0.972D+00-0.673D+00 0.146D+00
 Coeff-Com:  0.208D+01
 Coeff:      0.160D-03-0.455D-03 0.464D-02-0.400D-02-0.238D-01-0.538D-01
 Coeff:      0.110D+00 0.299D+00 0.860D-01-0.972D+00-0.673D+00 0.146D+00
 Coeff:      0.208D+01
 Gap=     0.208 Goal=   None    Shift=    0.500
 RMSDP=1.30D-05 MaxDP=1.53D-03 DE=-6.24D-06 OVMax= 1.37D-03

 Cycle  14  Pass 1  IDiag  1:
 E= -2593.93375152404     Delta-E=       -0.000003472716 Rises=F Damp=F
 DIIS: error= 4.42D-05 at cycle  14 NSaved=  14.
 NSaved=14 IEnMin=14 EnMin= -2593.93375152404     IErMin=14 ErrMin= 4.42D-05
 ErrMax= 4.42D-05  0.00D+00 EMaxC= 1.00D+00 BMatC= 2.90D-07 BMatP= 5.00D-07
 IDIUse=1 WtCom= 1.00D+00 WtEn= 0.00D+00
 Coeff-Com:  0.325D-03-0.515D-03 0.803D-03 0.269D-02 0.199D-01-0.507D-01
 Coeff-Com: -0.105D+00 0.106D+00 0.429D+00 0.692D-01-0.663D+00-0.155D+01
 Coeff-Com:  0.612D+00 0.213D+01
 Coeff:      0.325D-03-0.515D-03 0.803D-03 0.269D-02 0.199D-01-0.507D-01
 Coeff:     -0.105D+00 0.106D+00 0.429D+00 0.692D-01-0.663D+00-0.155D+01
 Coeff:      0.612D+00 0.213D+01
 Gap=     0.208 Goal=   None    Shift=    0.500
 RMSDP=9.84D-06 MaxDP=1.14D-03 DE=-3.47D-06 OVMax= 1.06D-03

 Cycle  15  Pass 1  IDiag  1:
 E= -2593.93375344505     Delta-E=       -0.000001921019 Rises=F Damp=F
 DIIS: error= 3.18D-05 at cycle  15 NSaved=  15.
 NSaved=15 IEnMin=15 EnMin= -2593.93375344505     IErMin=15 ErrMin= 3.18D-05
 ErrMax= 3.18D-05  0.00D+00 EMaxC= 1.00D+00 BMatC= 1.61D-07 BMatP= 2.90D-07
 IDIUse=1 WtCom= 1.00D+00 WtEn= 0.00D+00
 Coeff-Com:  0.123D-03-0.163D-03-0.131D-02 0.379D-02 0.195D-01-0.144D-01
 Coeff-Com: -0.927D-01-0.149D-01 0.160D+00 0.470D+00-0.175D+00-0.124D+01
 Coeff-Com: -0.403D+00 0.449D+00 0.184D+01
 Coeff:      0.123D-03-0.163D-03-0.131D-02 0.379D-02 0.195D-01-0.144D-01
 Coeff:     -0.927D-01-0.149D-01 0.160D+00 0.470D+00-0.175D+00-0.124D+01
 Coeff:     -0.403D+00 0.449D+00 0.184D+01
 Gap=     0.208 Goal=   None    Shift=    0.500
 RMSDP=7.09D-06 MaxDP=7.70D-04 DE=-1.92D-06 OVMax= 7.84D-04

 Cycle  16  Pass 1  IDiag  1:
 E= -2593.93375445631     Delta-E=       -0.000001011256 Rises=F Damp=F
 DIIS: error= 2.23D-05 at cycle  16 NSaved=  16.
 NSaved=16 IEnMin=16 EnMin= -2593.93375445631     IErMin=16 ErrMin= 2.23D-05
 ErrMax= 2.23D-05  0.00D+00 EMaxC= 1.00D+00 BMatC= 8.43D-08 BMatP= 1.61D-07
 IDIUse=1 WtCom= 1.00D+00 WtEn= 0.00D+00
 Coeff-Com: -0.470D-04 0.522D-04-0.128D-02 0.959D-03 0.598D-02 0.149D-01
 Coeff-Com: -0.202D-01-0.442D-01-0.133D+00 0.359D+00 0.207D+00-0.229D+00
 Coeff-Com: -0.657D+00-0.864D+00 0.476D+00 0.189D+01
 Coeff:     -0.470D-04 0.522D-04-0.128D-02 0.959D-03 0.598D-02 0.149D-01
 Coeff:     -0.202D-01-0.442D-01-0.133D+00 0.359D+00 0.207D+00-0.229D+00
 Coeff:     -0.657D+00-0.864D+00 0.476D+00 0.189D+01
 Gap=     0.208 Goal=   None    Shift=    0.500
 RMSDP=5.06D-06 MaxDP=5.35D-04 DE=-1.01D-06 OVMax= 5.69D-04

 Cycle  17  Pass 1  IDiag  1:
 E= -2593.93375496916     Delta-E=       -0.000000512850 Rises=F Damp=F
 DIIS: error= 1.54D-05 at cycle  17 NSaved=  17.
 NSaved=17 IEnMin=17 EnMin= -2593.93375496916     IErMin=17 ErrMin= 1.54D-05
 ErrMax= 1.54D-05  0.00D+00 EMaxC= 1.00D+00 BMatC= 4.86D-08 BMatP= 8.43D-08
 IDIUse=1 WtCom= 1.00D+00 WtEn= 0.00D+00
 Coeff-Com: -0.683D-04 0.660D-04-0.212D-05-0.161D-02-0.295D-02 0.132D-01
 Coeff-Com:  0.213D-01 0.169D-02-0.166D+00 0.444D-01 0.212D+00 0.314D+00
 Coeff-Com: -0.279D+00-0.774D+00-0.826D+00 0.777D+00 0.167D+01
 Coeff:     -0.683D-04 0.660D-04-0.212D-05-0.161D-02-0.295D-02 0.132D-01
 Coeff:      0.213D-01 0.169D-02-0.166D+00 0.444D-01 0.212D+00 0.314D+00
 Coeff:     -0.279D+00-0.774D+00-0.826D+00 0.777D+00 0.167D+01
 Gap=     0.208 Goal=   None    Shift=    0.500
 RMSDP=3.47D-06 MaxDP=3.76D-04 DE=-5.13D-07 OVMax= 4.11D-04

 Cycle  18  Pass 1  IDiag  1:
 E= -2593.93375523257     Delta-E=       -0.000000263406 Rises=F Damp=F
 DIIS: error= 1.07D-05 at cycle  18 NSaved=  18.
 NSaved=18 IEnMin=18 EnMin= -2593.93375523257     IErMin=18 ErrMin= 1.07D-05
 ErrMax= 1.07D-05  0.00D+00 EMaxC= 1.00D+00 BMatC= 2.60D-08 BMatP= 4.86D-08
 IDIUse=1 WtCom= 1.00D+00 WtEn= 0.00D+00
 Coeff-Com: -0.345D-04 0.403D-04 0.641D-03-0.149D-02-0.433D-02 0.123D-03
 Coeff-Com:  0.224D-01 0.330D-01-0.673D-01-0.117D+00 0.726D-01 0.282D+00
 Coeff-Com:  0.102D+00-0.206D+00-0.966D+00-0.874D-01 0.399D-01 0.190D+01
 Coeff:     -0.345D-04 0.403D-04 0.641D-03-0.149D-02-0.433D-02 0.123D-03
 Coeff:      0.224D-01 0.330D-01-0.673D-01-0.117D+00 0.726D-01 0.282D+00
 Coeff:      0.102D+00-0.206D+00-0.966D+00-0.874D-01 0.399D-01 0.190D+01
 Gap=     0.208 Goal=   None    Shift=    0.500
 RMSDP=2.33D-06 MaxDP=2.51D-04 DE=-2.63D-07 OVMax= 2.92D-04

 Cycle  19  Pass 1  IDiag  1:
 E= -2593.93375536453     Delta-E=       -0.000000131963 Rises=F Damp=F
 DIIS: error= 7.30D-06 at cycle  19 NSaved=  19.
 NSaved=19 IEnMin=19 EnMin= -2593.93375536453     IErMin=19 ErrMin= 7.30D-06
 ErrMax= 7.30D-06  0.00D+00 EMaxC= 1.00D+00 BMatC= 1.36D-08 BMatP= 2.60D-08
 IDIUse=1 WtCom= 1.00D+00 WtEn= 0.00D+00
 Coeff-Com:  0.474D-05 0.358D-05 0.317D-03-0.191D-03-0.363D-03-0.523D-02
 Coeff-Com: -0.924D-03 0.227D-01 0.276D-01-0.627D-01-0.490D-01-0.137D-01
 Coeff-Com:  0.223D+00 0.149D+00-0.344D+00-0.242D+00-0.934D+00 0.309D+00
 Coeff-Com:  0.192D+01
 Coeff:      0.474D-05 0.358D-05 0.317D-03-0.191D-03-0.363D-03-0.523D-02
 Coeff:     -0.924D-03 0.227D-01 0.276D-01-0.627D-01-0.490D-01-0.137D-01
 Coeff:      0.223D+00 0.149D+00-0.344D+00-0.242D+00-0.934D+00 0.309D+00
 Coeff:      0.192D+01
 Gap=     0.208 Goal=   None    Shift=    0.500
 RMSDP=1.57D-06 MaxDP=1.69D-04 DE=-1.32D-07 OVMax= 2.06D-04

 Cycle  20  Pass 1  IDiag  1:
 E= -2593.93375543010     Delta-E=       -0.000000065574 Rises=F Damp=F
 DIIS: error= 5.09D-06 at cycle  20 NSaved=  20.
 NSaved=20 IEnMin=20 EnMin= -2593.93375543010     IErMin=20 ErrMin= 5.09D-06
 ErrMax= 5.09D-06  0.00D+00 EMaxC= 1.00D+00 BMatC= 7.01D-09 BMatP= 1.36D-08
 IDIUse=1 WtCom= 1.00D+00 WtEn= 0.00D+00
 Coeff-Com:  0.225D-04-0.238D-04-0.516D-04 0.403D-03 0.206D-02-0.301D-02
 Coeff-Com: -0.137D-01 0.364D-02 0.490D-01 0.156D-01-0.718D-01-0.148D+00
 Coeff-Com:  0.163D+00 0.160D+00 0.973D-01-0.927D-01-0.828D+00-0.653D+00
 Coeff-Com:  0.749D+00 0.157D+01
 Coeff:      0.225D-04-0.238D-04-0.516D-04 0.403D-03 0.206D-02-0.301D-02
 Coeff:     -0.137D-01 0.364D-02 0.490D-01 0.156D-01-0.718D-01-0.148D+00
 Coeff:      0.163D+00 0.160D+00 0.973D-01-0.927D-01-0.828D+00-0.653D+00
 Coeff:      0.749D+00 0.157D+01
 Gap=     0.208 Goal=   None    Shift=    0.500
 RMSDP=1.06D-06 MaxDP=1.13D-04 DE=-6.56D-08 OVMax= 1.45D-04

 Cycle  21  Pass 1  IDiag  1:
 E= -2593.93375546206     Delta-E=       -0.000000031959 Rises=F Damp=F
 DIIS: error= 3.51D-06 at cycle  21 NSaved=  20.
 NSaved=20 IEnMin=20 EnMin= -2593.93375546206     IErMin=20 ErrMin= 3.51D-06
 ErrMax= 3.51D-06  0.00D+00 EMaxC= 1.00D+00 BMatC= 3.53D-09 BMatP= 7.01D-09
 IDIUse=1 WtCom= 1.00D+00 WtEn= 0.00D+00
 Coeff-Com:  0.591D-06-0.147D-03 0.120D-03 0.111D-02 0.148D-02-0.701D-02
 Coeff-Com: -0.599D-02 0.103D-01 0.366D-01-0.159D-01-0.801D-01 0.272D-01
 Coeff-Com:  0.792D-02 0.138D+00 0.775D-01-0.202D+00-0.508D+00-0.337D+00
 Coeff-Com: -0.290D-02 0.186D+01
 Coeff:      0.591D-06-0.147D-03 0.120D-03 0.111D-02 0.148D-02-0.701D-02
 Coeff:     -0.599D-02 0.103D-01 0.366D-01-0.159D-01-0.801D-01 0.272D-01
 Coeff:      0.792D-02 0.138D+00 0.775D-01-0.202D+00-0.508D+00-0.337D+00
 Coeff:     -0.290D-02 0.186D+01
 Gap=     0.208 Goal=   None    Shift=    0.500
 RMSDP=7.11D-07 MaxDP=7.50D-05 DE=-3.20D-08 OVMax= 1.01D-04

 SCF Done:  E(RLC-wHPBE) =  -2593.93375546     A.U. after   21 cycles
            NFock= 21  Conv=0.71D-06     -V/T= 2.0037
 KE= 2.584395695214D+03 PE=-1.663730654815D+04 EE= 6.181253432185D+03
 Leave Link  502 at Thu Jan 21 22:38:21 2021, MaxMem=  4026531840 cpu:           16686.2 elap:            2112.4
 (Enter /opt/ohpc/pub/libs/gaussian/g16-A.03/sandybridge/g16/l508.exe)
 QCSCF skips out because SCF is already converged.
 Leave Link  508 at Thu Jan 21 22:38:21 2021, MaxMem=  4026531840 cpu:               0.1 elap:               0.0
 (Enter /opt/ohpc/pub/libs/gaussian/g16-A.03/sandybridge/g16/l601.exe)
 Copying SCF densities to generalized density rwf, IOpCl= 0 IROHF=0.

 **********************************************************************

            Population analysis using the SCF density.

 **********************************************************************

 Orbital symmetries:
       Occupied  (A) (A) (A) (A) (A) (A) (A) (A) (A) (A) (A) (A)
                 (A) (A) (A) (A) (A) (A) (A) (A) (A) (A) (A) (A)
                 (A) (A) (A) (A) (A) (A) (A) (A) (A) (A) (A) (A)
                 (A) (A) (A) (A) (A) (A) (A) (A) (A) (A) (A) (A)
                 (A) (A) (A) (A) (A) (A) (A) (A) (A) (A) (A) (A)
                 (A) (A) (A) (A) (A) (A) (A) (A) (A) (A) (A) (A)
                 (A) (A) (A) (A) (A) (A) (A) (A) (A) (A) (A) (A)
                 (A) (A) (A) (A) (A) (A) (A) (A) (A) (A) (A) (A)
                 (A) (A) (A) (A) (A) (A) (A) (A) (A) (A) (A) (A)
                 (A) (A) (A) (A) (A) (A) (A) (A) (A) (A) (A) (A)
                 (A) (A) (A) (A) (A) (A) (A) (A) (A) (A) (A) (A)
                 (A) (A) (A) (A) (A) (A) (A) (A) (A) (A) (A) (A)
                 (A) (A) (A) (A) (A) (A) (A) (A) (A) (A) (A) (A)
                 (A) (A) (A) (A) (A)
       Virtual   (A) (A) (A) (A) (A) (A) (A) (A) (A) (A) (A) (A)
                 (A) (A) (A) (A) (A) (A) (A) (A) (A) (A) (A) (A)
                 (A) (A) (A) (A) (A) (A) (A) (A) (A) (A) (A) (A)
                 (A) (A) (A) (A) (A) (A) (A) (A) (A) (A) (A) (A)
                 (A) (A) (A) (A) (A) (A) (A) (A) (A) (A) (A) (A)
                 (A) (A) (A) (A) (A) (A) (A) (A) (A) (A) (A) (A)
                 (A) (A) (A) (A) (A) (A) (A) (A) (A) (A) (A) (A)
                 (A) (A) (A) (A) (A) (A) (A) (A) (A) (A) (A) (A)
                 (A) (A) (A) (A) (A) (A) (A) (A) (A) (A) (A) (A)
                 (A) (A) (A) (A) (A) (A) (A) (A) (A) (A) (A) (A)
                 (A) (A) (A) (A) (A) (A) (A) (A) (A) (A) (A) (A)
                 (A) (A) (A) (A) (A) (A) (A) (A) (A) (A) (A) (A)
                 (A) (A) (A) (A) (A) (A) (A) (A) (A) (A) (A) (A)
                 (A) (A) (A) (A) (A) (A) (A) (A) (A) (A) (A) (A)
                 (A) (A) (A) (A) (A) (A) (A) (A) (A) (A) (A) (A)
                 (A) (A) (A) (A) (A) (A) (A) (A) (A) (A) (A) (A)
                 (A) (A) (A) (A) (A) (A) (A) (A) (A) (A) (A) (A)
                 (A) (A) (A) (A) (A) (A) (A) (A) (A) (A) (A) (A)
                 (A) (A) (A) (A) (A) (A) (A) (A) (A) (A) (A) (A)
                 (A) (A) (A) (A) (A) (A) (A) (A) (A) (A) (A) (A)
                 (A) (A) (A) (A) (A) (A) (A) (A) (A) (A) (A) (A)
                 (A) (A) (A) (A) (A) (A) (A) (A) (A) (A) (A) (A)
                 (A) (A) (A) (A) (A) (A) (A) (A) (A) (A) (A) (A)
                 (A) (A) (A) (A) (A) (A) (A) (A) (A) (A) (A) (A)
                 (A) (A) (A) (A) (A) (A) (A) (A) (A) (A) (A) (A)
                 (A) (A) (A) (A) (A) (A) (A) (A) (A) (A) (A) (A)
                 (A) (A) (A) (A) (A) (A) (A) (A) (A) (A) (A) (A)
                 (A) (A) (A) (A) (A) (A) (A) (A) (A) (A) (A) (A)
                 (A) (A) (A) (A) (A) (A) (A) (A) (A) (A) (A) (A)
                 (A) (A) (A) (A) (A) (A) (A) (A) (A) (A) (A) (A)
                 (A) (A) (A) (A) (A) (A) (A) (A) (A) (A) (A) (A)
                 (A) (A) (A) (A) (A) (A) (A) (A) (A) (A) (A) (A)
                 (A) (A) (A) (A) (A) (A) (A) (A) (A) (A) (A) (A)
                 (A) (A) (A) (A) (A) (A) (A) (A) (A) (A) (A) (A)
                 (A) (A) (A) (A) (A) (A) (A) (A) (A) (A) (A) (A)
                 (A) (A) (A) (A) (A) (A) (A) (A) (A) (A) (A) (A)
                 (A) (A) (A) (A) (A) (A) (A) (A) (A) (A) (A) (A)
                 (A) (A) (A) (A) (A) (A) (A) (A) (A) (A) (A) (A)
                 (A) (A) (A) (A) (A) (A) (A) (A) (A) (A) (A) (A)
                 (A) (A) (A) (A) (A) (A) (A) (A) (A) (A) (A) (A)
                 (A) (A) (A) (A) (A) (A) (A) (A) (A) (A) (A) (A)
                 (A) (A) (A) (A) (A) (A) (A) (A) (A) (A) (A) (A)
                 (A) (A) (A) (A) (A) (A) (A) (A) (A) (A) (A) (A)
                 (A) (A) (A) (A) (A) (A) (A) (A) (A) (A) (A) (A)
                 (A) (A) (A) (A) (A) (A) (A) (A) (A) (A) (A) (A)
                 (A) (A) (A) (A) (A) (A) (A) (A) (A) (A) (A) (A)
                 (A) (A) (A) (A) (A) (A) (A) (A) (A) (A) (A) (A)
                 (A) (A) (A) (A) (A) (A) (A) (A) (A) (A) (A) (A)
                 (A) (A) (A) (A) (A) (A) (A) (A) (A) (A) (A) (A)
                 (A) (A) (A) (A) (A) (A) (A) (A) (A) (A) (A) (A)
                 (A) (A) (A) (A) (A) (A) (A) (A) (A) (A) (A) (A)
                 (A) (A) (A) (A) (A) (A) (A) (A) (A) (A) (A) (A)
                 (A) (A) (A) (A) (A) (A) (A) (A) (A) (A) (A) (A)
                 (A) (A) (A) (A) (A) (A) (A) (A) (A) (A) (A) (A)
                 (A) (A) (A) (A) (A) (A) (A) (A) (A) (A) (A) (A)
                 (A) (A) (A) (A) (A) (A) (A) (A) (A) (A) (A) (A)
                 (A) (A) (A) (A) (A) (A) (A) (A) (A) (A) (A) (A)
                 (A) (A) (A) (A) (A) (A) (A) (A) (A) (A) (A) (A)
                 (A) (A) (A) (A) (A) (A) (A) (A) (A) (A) (A) (A)
                 (A) (A) (A) (A) (A) (A) (A) (A) (A) (A) (A) (A)
                 (A) (A) (A) (A) (A) (A) (A) (A) (A) (A) (A) (A)
                 (A) (A) (A) (A) (A) (A) (A) (A) (A) (A) (A) (A)
                 (A) (A) (A) (A) (A) (A) (A) (A) (A) (A) (A) (A)
                 (A) (A) (A) (A) (A) (A) (A) (A) (A) (A) (A) (A)
                 (A) (A) (A) (A) (A) (A) (A) (A) (A) (A) (A) (A)
                 (A) (A) (A) (A) (A) (A) (A) (A) (A) (A) (A) (A)
                 (A) (A) (A) (A) (A) (A) (A) (A) (A) (A) (A) (A)
                 (A) (A) (A) (A) (A) (A) (A) (A) (A) (A) (A) (A)
                 (A) (A) (A) (A) (A) (A) (A) (A) (A) (A) (A) (A)
                 (A) (A) (A) (A) (A) (A) (A) (A) (A) (A) (A) (A)
                 (A) (A) (A) (A) (A) (A) (A) (A) (A)
 The electronic state is 1-A.
 Alpha  occ. eigenvalues --  -88.25708 -88.20606 -18.88773 -18.87985 -18.86581
 Alpha  occ. eigenvalues --  -18.86354 -14.12246 -14.09183 -10.05253 -10.04132
 Alpha  occ. eigenvalues --  -10.03974 -10.03947 -10.03051 -10.02672 -10.02497
 Alpha  occ. eigenvalues --  -10.02426 -10.01728 -10.00278 -10.00062  -9.99949
 Alpha  occ. eigenvalues --   -9.99777  -9.99680  -9.99646  -9.99637  -9.99352
 Alpha  occ. eigenvalues --   -9.99054  -9.98932  -9.98911  -9.98582  -9.98542
 Alpha  occ. eigenvalues --   -9.97644  -9.97516  -9.97421  -9.97347  -9.97058
 Alpha  occ. eigenvalues --   -9.96939  -9.96871  -9.96812  -9.96799  -9.96717
 Alpha  occ. eigenvalues --   -9.96566  -9.96024  -9.94861  -9.91158  -7.84793
 Alpha  occ. eigenvalues --   -7.79833  -5.86794  -5.86576  -5.86054  -5.82037
 Alpha  occ. eigenvalues --   -5.81608  -5.80847  -1.08635  -1.07619  -1.06293
 Alpha  occ. eigenvalues --   -1.06085  -0.99733  -0.96783  -0.92250  -0.89230
 Alpha  occ. eigenvalues --   -0.88038  -0.87116  -0.87048  -0.85912  -0.84067
 Alpha  occ. eigenvalues --   -0.83079  -0.79596  -0.79135  -0.78180  -0.77965
 Alpha  occ. eigenvalues --   -0.77290  -0.77202  -0.77066  -0.76486  -0.75503
 Alpha  occ. eigenvalues --   -0.74246  -0.73423  -0.71545  -0.68465  -0.67612
 Alpha  occ. eigenvalues --   -0.66830  -0.66199  -0.65981  -0.65542  -0.64394
 Alpha  occ. eigenvalues --   -0.63973  -0.63055  -0.62479  -0.61763  -0.60421
 Alpha  occ. eigenvalues --   -0.59748  -0.59155  -0.59016  -0.58096  -0.57772
 Alpha  occ. eigenvalues --   -0.57609  -0.55737  -0.54863  -0.54524  -0.53948
 Alpha  occ. eigenvalues --   -0.53445  -0.52151  -0.51572  -0.50890  -0.50272
 Alpha  occ. eigenvalues --   -0.49984  -0.49576  -0.49271  -0.48831  -0.48248
 Alpha  occ. eigenvalues --   -0.48147  -0.47805  -0.47560  -0.47346  -0.47179
 Alpha  occ. eigenvalues --   -0.46857  -0.46625  -0.46213  -0.46163  -0.45789
 Alpha  occ. eigenvalues --   -0.45579  -0.45231  -0.44989  -0.44928  -0.44594
 Alpha  occ. eigenvalues --   -0.44414  -0.43842  -0.43627  -0.43098  -0.42483
 Alpha  occ. eigenvalues --   -0.41626  -0.41412  -0.41207  -0.40935  -0.40637
 Alpha  occ. eigenvalues --   -0.40527  -0.40158  -0.40081  -0.39737  -0.39086
 Alpha  occ. eigenvalues --   -0.38699  -0.38416  -0.37742  -0.37397  -0.37064
 Alpha  occ. eigenvalues --   -0.35968  -0.33635  -0.33081  -0.32549  -0.32032
 Alpha  occ. eigenvalues --   -0.31663  -0.30875  -0.30577  -0.30250  -0.29690
 Alpha  occ. eigenvalues --   -0.28783  -0.28268  -0.27517  -0.24404  -0.21879
 Alpha  occ. eigenvalues --   -0.20815
 Alpha virt. eigenvalues --   -0.00014   0.00888   0.02381   0.02590   0.03001
 Alpha virt. eigenvalues --    0.03315   0.03590   0.04930   0.05027   0.05299
 Alpha virt. eigenvalues --    0.05847   0.06100   0.06713   0.07044   0.07155
 Alpha virt. eigenvalues --    0.07303   0.08048   0.08791   0.09496   0.09828
 Alpha virt. eigenvalues --    0.10001   0.10773   0.11177   0.11631   0.12200
 Alpha virt. eigenvalues --    0.12630   0.12840   0.13392   0.13621   0.14219
 Alpha virt. eigenvalues --    0.14576   0.14801   0.15494   0.15537   0.16052
 Alpha virt. eigenvalues --    0.16121   0.16694   0.16709   0.17396   0.17702
 Alpha virt. eigenvalues --    0.17798   0.18251   0.18630   0.19100   0.19536
 Alpha virt. eigenvalues --    0.19660   0.20058   0.20352   0.20608   0.20937
 Alpha virt. eigenvalues --    0.21277   0.21523   0.21789   0.22137   0.22306
 Alpha virt. eigenvalues --    0.22410   0.23062   0.23346   0.23776   0.24063
 Alpha virt. eigenvalues --    0.24397   0.24823   0.24887   0.25033   0.25226
 Alpha virt. eigenvalues --    0.25441   0.25824   0.25994   0.26283   0.26361
 Alpha virt. eigenvalues --    0.26776   0.27184   0.27510   0.27763   0.28069
 Alpha virt. eigenvalues --    0.28334   0.28391   0.28535   0.29149   0.29280
 Alpha virt. eigenvalues --    0.29354   0.29434   0.29776   0.29871   0.30082
 Alpha virt. eigenvalues --    0.30457   0.30619   0.30954   0.31121   0.31267
 Alpha virt. eigenvalues --    0.31757   0.31793   0.32033   0.32250   0.32351
 Alpha virt. eigenvalues --    0.32464   0.32943   0.33297   0.33609   0.33912
 Alpha virt. eigenvalues --    0.34001   0.34245   0.34429   0.34586   0.34885
 Alpha virt. eigenvalues --    0.35037   0.35176   0.35304   0.35542   0.35773
 Alpha virt. eigenvalues --    0.36145   0.36309   0.36536   0.37040   0.37238
 Alpha virt. eigenvalues --    0.37630   0.37831   0.37872   0.38413   0.38691
 Alpha virt. eigenvalues --    0.38960   0.39214   0.39486   0.39540   0.39909
 Alpha virt. eigenvalues --    0.39969   0.40344   0.40551   0.40838   0.40948
 Alpha virt. eigenvalues --    0.41293   0.41723   0.41900   0.42146   0.42278
 Alpha virt. eigenvalues --    0.42346   0.42550   0.42996   0.43132   0.43272
 Alpha virt. eigenvalues --    0.43659   0.43797   0.43968   0.44050   0.44216
 Alpha virt. eigenvalues --    0.44673   0.44890   0.45078   0.45158   0.45323
 Alpha virt. eigenvalues --    0.45430   0.45809   0.45934   0.46212   0.46302
 Alpha virt. eigenvalues --    0.46450   0.46736   0.46804   0.47028   0.47264
 Alpha virt. eigenvalues --    0.47552   0.47983   0.48171   0.48430   0.48562
 Alpha virt. eigenvalues --    0.48822   0.49159   0.49472   0.49631   0.49773
 Alpha virt. eigenvalues --    0.49898   0.50559   0.50632   0.50839   0.50910
 Alpha virt. eigenvalues --    0.51198   0.51489   0.51792   0.52057   0.52352
 Alpha virt. eigenvalues --    0.52566   0.52672   0.53083   0.53646   0.53862
 Alpha virt. eigenvalues --    0.54007   0.54119   0.54537   0.54757   0.54895
 Alpha virt. eigenvalues --    0.55321   0.55495   0.55562   0.56001   0.56517
 Alpha virt. eigenvalues --    0.56727   0.56825   0.57125   0.57489   0.57768
 Alpha virt. eigenvalues --    0.58444   0.58848   0.59132   0.59376   0.59705
 Alpha virt. eigenvalues --    0.59965   0.60198   0.60622   0.60818   0.61230
 Alpha virt. eigenvalues --    0.61413   0.61630   0.61749   0.61981   0.62196
 Alpha virt. eigenvalues --    0.62402   0.62622   0.63293   0.63509   0.63584
 Alpha virt. eigenvalues --    0.64040   0.64417   0.64479   0.65013   0.65211
 Alpha virt. eigenvalues --    0.65820   0.66127   0.66396   0.67060   0.67374
 Alpha virt. eigenvalues --    0.67746   0.67925   0.68420   0.69015   0.69237
 Alpha virt. eigenvalues --    0.69880   0.70129   0.70812   0.71023   0.71507
 Alpha virt. eigenvalues --    0.71642   0.72644   0.72802   0.72975   0.73222
 Alpha virt. eigenvalues --    0.73348   0.73726   0.73950   0.74135   0.74610
 Alpha virt. eigenvalues --    0.74663   0.74802   0.75397   0.75803   0.76367
 Alpha virt. eigenvalues --    0.76655   0.76683   0.77138   0.77296   0.77749
 Alpha virt. eigenvalues --    0.78049   0.78491   0.79175   0.79424   0.79662
 Alpha virt. eigenvalues --    0.79970   0.80313   0.80972   0.81264   0.81904
 Alpha virt. eigenvalues --    0.82424   0.82877   0.83033   0.83704   0.83994
 Alpha virt. eigenvalues --    0.84268   0.84680   0.85506   0.86012   0.86182
 Alpha virt. eigenvalues --    0.86470   0.87867   0.88329   0.88487   0.89251
 Alpha virt. eigenvalues --    0.89452   0.89970   0.90157   0.90938   0.91590
 Alpha virt. eigenvalues --    0.92214   0.92697   0.93111   0.93324   0.94314
 Alpha virt. eigenvalues --    0.94429   0.94745   0.95294   0.95832   0.96385
 Alpha virt. eigenvalues --    0.97745   0.98674   0.98974   0.99329   1.00010
 Alpha virt. eigenvalues --    1.01889   1.02351   1.02634   1.10387   1.19066
 Alpha virt. eigenvalues --    1.19418   1.20390   1.21123   1.22130   1.23416
 Alpha virt. eigenvalues --    1.25015   1.25328   1.26118   1.26312   1.26613
 Alpha virt. eigenvalues --    1.27046   1.27496   1.27757   1.27976   1.28403
 Alpha virt. eigenvalues --    1.28501   1.28758   1.29042   1.29272   1.29555
 Alpha virt. eigenvalues --    1.30157   1.30632   1.30838   1.31216   1.31490
 Alpha virt. eigenvalues --    1.32068   1.32153   1.32982   1.33270   1.33515
 Alpha virt. eigenvalues --    1.33789   1.34137   1.34594   1.35089   1.35682
 Alpha virt. eigenvalues --    1.35872   1.36294   1.36896   1.37423   1.37549
 Alpha virt. eigenvalues --    1.37654   1.38017   1.38714   1.39238   1.39363
 Alpha virt. eigenvalues --    1.39570   1.39996   1.40287   1.40790   1.41243
 Alpha virt. eigenvalues --    1.41446   1.41602   1.41947   1.42251   1.42984
 Alpha virt. eigenvalues --    1.43223   1.43798   1.43979   1.43987   1.44392
 Alpha virt. eigenvalues --    1.44716   1.45120   1.45551   1.46034   1.46088
 Alpha virt. eigenvalues --    1.46427   1.46605   1.46763   1.47039   1.47205
 Alpha virt. eigenvalues --    1.47298   1.47439   1.47802   1.48060   1.48144
 Alpha virt. eigenvalues --    1.48654   1.49127   1.49152   1.49273   1.49490
 Alpha virt. eigenvalues --    1.49938   1.50604   1.50809   1.51257   1.51466
 Alpha virt. eigenvalues --    1.51601   1.51815   1.51996   1.52177   1.52497
 Alpha virt. eigenvalues --    1.53088   1.53392   1.53599   1.53672   1.54162
 Alpha virt. eigenvalues --    1.54274   1.54484   1.54994   1.55211   1.55430
 Alpha virt. eigenvalues --    1.55625   1.55812   1.56016   1.56336   1.56621
 Alpha virt. eigenvalues --    1.56702   1.56849   1.57409   1.57459   1.57578
 Alpha virt. eigenvalues --    1.57880   1.58045   1.58327   1.58398   1.58669
 Alpha virt. eigenvalues --    1.58803   1.59009   1.59308   1.59804   1.59811
 Alpha virt. eigenvalues --    1.60152   1.60530   1.60778   1.61135   1.61570
 Alpha virt. eigenvalues --    1.61866   1.62350   1.62439   1.62675   1.63394
 Alpha virt. eigenvalues --    1.63734   1.63998   1.64222   1.64660   1.65083
 Alpha virt. eigenvalues --    1.65867   1.65955   1.66195   1.66799   1.67426
 Alpha virt. eigenvalues --    1.67840   1.68116   1.69732   1.69946   1.71095
 Alpha virt. eigenvalues --    1.71263   1.71985   1.72270   1.73173   1.73468
 Alpha virt. eigenvalues --    1.74152   1.74386   1.74708   1.75607   1.75927
 Alpha virt. eigenvalues --    1.77137   1.77650   1.77848   1.78476   1.78694
 Alpha virt. eigenvalues --    1.78935   1.79732   1.79940   1.80108   1.80596
 Alpha virt. eigenvalues --    1.80678   1.80751   1.81202   1.81675   1.82016
 Alpha virt. eigenvalues --    1.82296   1.82739   1.82814   1.83339   1.83643
 Alpha virt. eigenvalues --    1.83971   1.84184   1.84498   1.84915   1.85039
 Alpha virt. eigenvalues --    1.85135   1.85776   1.86159   1.86474   1.87469
 Alpha virt. eigenvalues --    1.87630   1.87886   1.88676   1.89112   1.89405
 Alpha virt. eigenvalues --    1.89649   1.90126   1.90588   1.90925   1.91099
 Alpha virt. eigenvalues --    1.91512   1.91711   1.92208   1.92438   1.92684
 Alpha virt. eigenvalues --    1.92889   1.93163   1.93419   1.93552   1.93881
 Alpha virt. eigenvalues --    1.94569   1.94909   1.95281   1.95523   1.95545
 Alpha virt. eigenvalues --    1.95933   1.96236   1.96664   1.97059   1.97273
 Alpha virt. eigenvalues --    1.97548   1.97673   1.98141   1.98304   1.99401
 Alpha virt. eigenvalues --    1.99639   2.00623   2.01057   2.02038   2.02262
 Alpha virt. eigenvalues --    2.02525   2.02853   2.02964   2.03434   2.03778
 Alpha virt. eigenvalues --    2.03967   2.04235   2.04804   2.05261   2.05362
 Alpha virt. eigenvalues --    2.06314   2.06788   2.07573   2.08128   2.08505
 Alpha virt. eigenvalues --    2.09174   2.10172   2.10457   2.11191   2.11605
 Alpha virt. eigenvalues --    2.11963   2.12746   2.13423   2.13904   2.14866
 Alpha virt. eigenvalues --    2.16846   2.17188   2.18337   2.18905   2.19703
 Alpha virt. eigenvalues --    2.20001   2.20808   2.21453   2.21607   2.22296
 Alpha virt. eigenvalues --    2.22590   2.23097   2.23621   2.24064   2.24565
 Alpha virt. eigenvalues --    2.24910   2.25048   2.25346   2.25435   2.27553
 Alpha virt. eigenvalues --    2.27764   2.28304   2.28680   2.29296   2.29536
 Alpha virt. eigenvalues --    2.30488   2.31228   2.32457   2.32538   2.32940
 Alpha virt. eigenvalues --    2.33518   2.33590   2.33736   2.34223   2.34316
 Alpha virt. eigenvalues --    2.34576   2.34660   2.35056   2.35335   2.35678
 Alpha virt. eigenvalues --    2.35829   2.36004   2.36432   2.36697   2.37200
 Alpha virt. eigenvalues --    2.37670   2.37768   2.37802   2.38022   2.38383
 Alpha virt. eigenvalues --    2.38512   2.39306   2.39534   2.39782   2.40098
 Alpha virt. eigenvalues --    2.40329   2.40476   2.40719   2.41017   2.41295
 Alpha virt. eigenvalues --    2.41613   2.41741   2.41927   2.42967   2.44358
 Alpha virt. eigenvalues --    2.45437   2.45843   2.46688   2.47859   2.47962
 Alpha virt. eigenvalues --    2.48377   2.48774   2.49369   2.49903   2.50554
 Alpha virt. eigenvalues --    2.51497   2.51822   2.52605   2.53286   2.54211
 Alpha virt. eigenvalues --    2.54908   2.55353   2.57148   2.57328   2.58275
 Alpha virt. eigenvalues --    2.58705   2.58987   2.59957   2.60112   2.60250
 Alpha virt. eigenvalues --    2.60811   2.61075   2.61300   2.61350   2.62361
 Alpha virt. eigenvalues --    2.63079   2.63213   2.63274   2.63901   2.63962
 Alpha virt. eigenvalues --    2.64279   2.64903   2.65265   2.65578   2.66915
 Alpha virt. eigenvalues --    2.67230   2.67438   2.67865   2.68201   2.68710
 Alpha virt. eigenvalues --    2.69623   2.70230   2.70636   2.71064   2.72082
 Alpha virt. eigenvalues --    2.72839   2.73722   2.73988   2.74540   2.75152
 Alpha virt. eigenvalues --    2.76050   2.77114   2.77928   2.78860   2.79441
 Alpha virt. eigenvalues --    2.80392   2.80728   2.80970   2.81558   2.82039
 Alpha virt. eigenvalues --    2.82832   2.83835   2.84351   2.85298   2.86831
 Alpha virt. eigenvalues --    2.87266   2.87470   2.88129   2.88587   2.89487
 Alpha virt. eigenvalues --    2.89935   2.92801   2.92962   2.93737   2.94047
 Alpha virt. eigenvalues --    2.94483   2.95162   2.95589   2.95915   2.96533
 Alpha virt. eigenvalues --    2.97119   2.97435   2.97567   2.99192   2.99285
 Alpha virt. eigenvalues --    2.99470   3.00085   3.00818   3.01115   3.01767
 Alpha virt. eigenvalues --    3.01843   3.02144   3.03646   3.04191   3.05390
 Alpha virt. eigenvalues --    3.06440   3.06963   3.07058   3.07956   3.08660
 Alpha virt. eigenvalues --    3.09282   3.09916   3.10464   3.11267   3.11961
 Alpha virt. eigenvalues --    3.12159   3.12994   3.14374   3.14585   3.15835
 Alpha virt. eigenvalues --    3.16660   3.17225   3.17402   3.17913   3.18170
 Alpha virt. eigenvalues --    3.19344   3.19778   3.20232   3.21189   3.21647
 Alpha virt. eigenvalues --    3.21779   3.22331   3.22700   3.23531   3.25098
 Alpha virt. eigenvalues --    3.25273   3.25838   3.26131   3.26167   3.26905
 Alpha virt. eigenvalues --    3.27203   3.28058   3.28761   3.31016   3.31727
 Alpha virt. eigenvalues --    3.32457   3.32800   3.33462   3.34105   3.34309
 Alpha virt. eigenvalues --    3.36124   3.36842   3.37615   3.38220   3.38436
 Alpha virt. eigenvalues --    3.39767   3.41947   3.42696   3.44565   3.47694
 Alpha virt. eigenvalues --    3.48097   3.52646   3.53658   3.54515   3.56634
 Alpha virt. eigenvalues --    3.57504   3.58168   3.59094   3.59626   3.60704
 Alpha virt. eigenvalues --    3.63411   3.70485   3.70797   3.85300   3.86672
 Alpha virt. eigenvalues --    3.87114   3.87904   4.06486   4.07768   4.08489
 Alpha virt. eigenvalues --    4.09486   4.31397   4.32229   4.33380   4.33686
 Alpha virt. eigenvalues --   18.73531  19.07736  21.19883  21.24079  21.25141
 Alpha virt. eigenvalues --   21.26068  21.27543  21.28798  21.68722  21.69197
 Alpha virt. eigenvalues --   21.71239  21.72336  21.74578  21.76373  21.76493
 Alpha virt. eigenvalues --   21.76975  21.81828  21.85173  21.85717  21.86206
 Alpha virt. eigenvalues --   21.92260  21.95444  21.95682  21.97327  21.97948
 Alpha virt. eigenvalues --   21.98481  22.00167  22.01359  22.02574  22.03109
 Alpha virt. eigenvalues --   22.04426  22.07033  22.09506  22.12425  22.15250
 Alpha virt. eigenvalues --   22.17926  22.18589  22.20974  32.02489  32.08002
 Alpha virt. eigenvalues --   43.22222  43.23931  43.24333  43.27955
          Condensed to atoms (all electrons):
 Mulliken charges:
               1
     1  C   -0.305293
     2  C   -0.075574
     3  S   -0.083088
     4  C   -0.272927
     5  C    0.113251
     6  C   -0.279986
     7  C    0.016518
     8  C   -0.061260
     9  H    0.138061
    10  C   -0.144072
    11  C   -0.045478
    12  C   -0.094069
    13  C    0.020129
    14  H    0.230875
    15  H    0.118863
    16  H    0.156018
    17  C   -0.175517
    18  H    0.130192
    19  H    0.114043
    20  H    0.112510
    21  H    0.138743
    22  S    0.194690
    23  N    0.036235
    24  C   -0.294141
    25  C    0.041957
    26  C   -0.022634
    27  C   -0.218023
    28  C   -0.178476
    29  C    0.138817
    30  H    0.126478
    31  H    0.124458
    32  H    0.119791
    33  H    0.107530
    34  C   -0.090886
    35  C   -0.099657
    36  C   -0.103335
    37  C   -0.145344
    38  C   -0.186742
    39  C    0.090898
    40  H    0.118109
    41  H    0.178853
    42  H    0.100279
    43  H    0.162286
    44  N    0.010957
    45  C   -0.080941
    46  C   -0.101482
    47  C   -0.083451
    48  C   -0.170553
    49  C   -0.199087
    50  C    0.114404
    51  H    0.139279
    52  H    0.140918
    53  H    0.100421
    54  H    0.110056
    55  C   -0.101360
    56  C   -0.067068
    57  C   -0.134078
    58  C   -0.202298
    59  C   -0.139044
    60  C    0.103670
    61  H    0.130206
    62  H    0.145283
    63  H    0.108256
    64  H    0.123775
    65  O   -0.244448
    66  H    0.267413
    67  O   -0.235140
    68  H    0.269912
    69  O   -0.245540
    70  H    0.265601
    71  O   -0.245740
    72  H    0.266999
 Sum of Mulliken charges =  -0.00000
 Mulliken charges with hydrogens summed into heavy atoms:
               1
     1  C   -0.175101
     2  C   -0.075574
     3  S    0.030956
     4  C   -0.272927
     5  C    0.113251
     6  C   -0.279986
     7  C    0.016518
     8  C    0.051250
    10  C    0.086803
    11  C    0.073384
    12  C    0.061948
    13  C    0.020129
    17  C   -0.036774
    22  S    0.332751
    23  N    0.036235
    24  C   -0.294141
    25  C    0.168435
    26  C    0.101824
    27  C   -0.098232
    28  C   -0.070946
    29  C    0.138817
    34  C   -0.090886
    35  C    0.018452
    36  C    0.075518
    37  C   -0.045065
    38  C   -0.024456
    39  C    0.090898
    44  N    0.010957
    45  C   -0.080941
    46  C    0.037796
    47  C    0.057467
    48  C   -0.070132
    49  C   -0.089030
    50  C    0.114404
    55  C   -0.101360
    56  C    0.063137
    57  C    0.011205
    58  C   -0.094042
    59  C   -0.015269
    60  C    0.103670
    65  O    0.022965
    67  O    0.034772
    69  O    0.020061
    71  O    0.021259
 Electronic spatial extent (au):  <R**2>=          34720.0952
 Charge=             -0.0000 electrons
 Dipole moment (field-independent basis, Debye):
    X=              6.6481    Y=              0.7884    Z=              4.9317  Tot=              8.3151
 Quadrupole moment (field-independent basis, Debye-Ang):
   XX=           -225.0713   YY=           -245.0167   ZZ=           -267.4784
   XY=             10.6403   XZ=              1.1452   YZ=             -6.0830
 Traceless Quadrupole moment (field-independent basis, Debye-Ang):
   XX=             20.7841   YY=              0.8388   ZZ=            -21.6229
   XY=             10.6403   XZ=              1.1452   YZ=             -6.0830
 Octapole moment (field-independent basis, Debye-Ang**2):
  XXX=            220.2623  YYY=              6.1280  ZZZ=             13.5913  XYY=            100.2197
  XXY=             -2.7317  XXZ=            127.4063  XZZ=              7.5750  YZZ=            -31.4151
  YYZ=            113.9715  XYZ=            -12.6910
 Hexadecapole moment (field-independent basis, Debye-Ang**3):
 XXXX=         -27273.5466 YYYY=         -10456.2581 ZZZZ=          -1841.4732 XXXY=           1228.4644
 XXXZ=            -88.0627 YYYX=           -113.2958 YYYZ=           -301.5339 ZZZX=             31.5550
 ZZZY=            -70.8377 XXYY=          -8147.2726 XXZZ=          -6113.4976 YYZZ=          -2122.5495
 XXYZ=           -101.4301 YYXZ=             20.6186 ZZXY=            -78.3786
 N-N= 5.277723665284D+03 E-N=-1.663730650309D+04  KE= 2.584395695214D+03
 No NMR shielding tensors so no spin-rotation constants.
 Leave Link  601 at Thu Jan 21 22:38:24 2021, MaxMem=  4026531840 cpu:              11.5 elap:               2.4
 (Enter /opt/ohpc/pub/libs/gaussian/g16-A.03/sandybridge/g16/l9999.exe)

 Test job not archived.
 1\1\GINC-CASCADEB028\SP\RLC-wHPBE\TZVP\C36H28N2O4S2\RDU230\21-Jan-2021
 \0\\#P LC-wHPBE/TZVP iop(3/107=0167500000, 3/108=0167500000) scf=(conv
 er=6,fermi,ndamp=35,noincfock,novaracc,vshift=500,xqc)\\H28 C36 S2 N2 
 O4\\0,1\C,0,-1.748928,-0.489907,0.452051\C,0,-0.626174,-1.279763,0.152
 57\S,0,1.952753,-5.388628,0.812439\C,0,-0.882312,-2.170069,-0.820725\C
 ,0,1.932708,-2.897266,-0.476539\C,0,2.566514,-3.761438,0.41855\C,0,-2.
 975354,-0.631957,-0.195801\C,0,-2.049066,-2.386893,-1.545961\H,0,0.246
 316,-4.468801,-0.586079\C,0,2.384401,-1.613824,-0.700024\C,0,3.673888,
 -3.269502,1.095477\C,0,4.135912,-1.984797,0.893895\C,0,3.494497,-1.125
 461,-0.002977\H,0,1.857267,-0.971131,-1.395345\H,0,4.176334,-3.912174,
 1.811785\H,0,4.992977,-1.63215,1.456718\C,0,-3.122467,-1.590215,-1.210
 611\H,0,-1.688273,0.276733,1.226088\H,0,2.539,-6.051116,-0.206249\H,0,
 -2.132551,-3.120151,-2.347153\H,0,-4.068236,-1.688167,-1.734116\S,0,0.
 491419,-3.391365,-1.37893\N,0,3.940024,0.175839,-0.195205\C,0,5.26504,
 0.53915,0.184549\C,0,5.479402,1.520085,1.147894\C,0,6.360048,-0.068673
 ,-0.412912\C,0,6.761446,1.889048,1.505778\C,0,7.649207,0.280692,-0.044
 528\C,0,7.852726,1.26556,0.91321\H,0,4.624132,2.002234,1.612555\H,0,6.
 198832,-0.830082,-1.170918\H,0,6.936355,2.656092,2.253454\H,0,8.499101
 ,-0.206598,-0.518215\C,0,3.067884,1.217797,-0.624973\C,0,3.533169,2.17
 5669,-1.516644\C,0,1.768428,1.324352,-0.133595\C,0,2.72389,3.230889,-1
 .904642\C,0,0.952027,2.363639,-0.537\C,0,1.429133,3.326131,-1.415171\H
 ,0,4.545758,2.102962,-1.902377\H,0,1.364259,0.566763,0.534909\H,0,3.10
 6488,3.978127,-2.597301\H,0,-0.063643,2.437107,-0.162477\N,0,-4.071583
 ,0.199288,0.137893\C,0,-5.379657,-0.330758,0.192504\C,0,-6.464072,0.38
 1862,-0.308117\C,0,-5.615898,-1.583782,0.758482\C,0,-7.748035,-0.13540
 9,-0.237366\C,0,-6.890741,-2.11387,0.808775\C,0,-7.966332,-1.388715,0.
 314728\H,0,-6.301182,1.359246,-0.752201\H,0,-4.779992,-2.148147,1.1609
 2\H,0,-8.582756,0.442294,-0.630527\H,0,-7.071352,-3.090185,1.247847\C,
 0,-3.863071,1.579858,0.373004\C,0,-4.488297,2.228332,1.435995\C,0,-3.0
 28002,2.320518,-0.45569\C,0,-4.288516,3.577498,1.662294\C,0,-2.802155,
 3.666597,-0.218956\C,0,-3.435225,4.300687,0.840523\H,0,-5.141183,1.661
 753,2.093518\H,0,-2.533592,1.828985,-1.288374\H,0,-4.774148,4.081779,2
 .492022\H,0,-2.125658,4.220184,-0.867724\O,0,0.584592,4.343911,-1.7691
 73\H,0,1.03059,4.920168,-2.399784\O,0,9.095256,1.661445,1.308356\H,0,9
 .763222,1.159512,0.827959\O,0,-9.209724,-1.953542,0.400297\H,0,-9.8595
 16,-1.347058,0.028653\O,0,-3.254007,5.627948,1.116747\H,0,-2.609433,5.
 991357,0.499352\\Version=EM64L-G16RevA.03\State=1-A\HF=-2593.9337555\R
 MSD=7.111e-07\Dipole=2.6155743,-0.3101801,-1.9402636\Quadrupole=15.452
 485,0.6236097,-16.0760947,-7.9107846,-0.8514353,-4.5225756\PG=C01 [X(C
 36H28N2O4S2)]\\@


 One man practicing sportsmanship is far better than 50 preaching it.
 -- Knute K. Rockne
 Job cpu time:       0 days  4 hours 40 minutes 35.9 seconds.
 Elapsed time:       0 days  0 hours 35 minutes 37.6 seconds.
 File lengths (MBytes):  RWF=    356 Int=      0 D2E=      0 Chk=     64 Scr=      8
 Normal termination of Gaussian 16 at Thu Jan 21 22:38:24 2021.
