 Entering Gaussian System, Link 0=g16
 Input=mol_ta_ma_whol_tune_c7.gjf
 Output=mol_ta_ma_whol_tune_c7.log
 Initial command:
 /opt/ohpc/pub/libs/gaussian/g16-A.03/sandybridge/g16/l1.exe "/mnt/gpfs2_4m/scratch/rdu230/ondemand/projects/init_structures/wtuning/mol_ta_ma_whol/tuning_mol_ta_ma_whol_ocycle0/Gau-183746.inp" -scrdir="/mnt/gpfs2_4m/scratch/rdu230/ondemand/projects/init_structures/wtuning/mol_ta_ma_whol/tuning_mol_ta_ma_whol_ocycle0/"
 Entering Link 1 = /opt/ohpc/pub/libs/gaussian/g16-A.03/sandybridge/g16/l1.exe PID=    183747.
  
 Copyright (c) 1988,1990,1992,1993,1995,1998,2003,2009,2016,
            Gaussian, Inc.  All Rights Reserved.
  
 This is part of the Gaussian(R) 16 program.  It is based on
 the Gaussian(R) 09 system (copyright 2009, Gaussian, Inc.),
 the Gaussian(R) 03 system (copyright 2003, Gaussian, Inc.),
 the Gaussian(R) 98 system (copyright 1998, Gaussian, Inc.),
 the Gaussian(R) 94 system (copyright 1995, Gaussian, Inc.),
 the Gaussian 92(TM) system (copyright 1992, Gaussian, Inc.),
 the Gaussian 90(TM) system (copyright 1990, Gaussian, Inc.),
 the Gaussian 88(TM) system (copyright 1988, Gaussian, Inc.),
 the Gaussian 86(TM) system (copyright 1986, Carnegie Mellon
 University), and the Gaussian 82(TM) system (copyright 1983,
 Carnegie Mellon University). Gaussian is a federally registered
 trademark of Gaussian, Inc.
  
 This software contains proprietary and confidential information,
 including trade secrets, belonging to Gaussian, Inc.
  
 This software is provided under written license and may be
 used, copied, transmitted, or stored only in accord with that
 written license.
  
 The following legend is applicable only to US Government
 contracts under FAR:
  
                    RESTRICTED RIGHTS LEGEND
  
 Use, reproduction and disclosure by the US Government is
 subject to restrictions as set forth in subparagraphs (a)
 and (c) of the Commercial Computer Software - Restricted
 Rights clause in FAR 52.227-19.
  
 Gaussian, Inc.
 340 Quinnipiac St., Bldg. 40, Wallingford CT 06492
  
  
 ---------------------------------------------------------------
 Warning -- This program may not be used in any manner that
 competes with the business of Gaussian, Inc. or will provide
 assistance to any competitor of Gaussian, Inc.  The licensee
 of this program is prohibited from giving any competitor of
 Gaussian, Inc. access to this program.  By using this program,
 the user acknowledges that Gaussian, Inc. is engaged in the
 business of creating and licensing software in the field of
 computational chemistry and represents and warrants to the
 licensee that it is not a competitor of Gaussian, Inc. and that
 it will not use this program in any manner prohibited above.
 ---------------------------------------------------------------
  

 Cite this work as:
 Gaussian 16, Revision A.03,
 M. J. Frisch, G. W. Trucks, H. B. Schlegel, G. E. Scuseria, 
 M. A. Robb, J. R. Cheeseman, G. Scalmani, V. Barone, 
 G. A. Petersson, H. Nakatsuji, X. Li, M. Caricato, A. V. Marenich, 
 J. Bloino, B. G. Janesko, R. Gomperts, B. Mennucci, H. P. Hratchian, 
 J. V. Ortiz, A. F. Izmaylov, J. L. Sonnenberg, D. Williams-Young, 
 F. Ding, F. Lipparini, F. Egidi, J. Goings, B. Peng, A. Petrone, 
 T. Henderson, D. Ranasinghe, V. G. Zakrzewski, J. Gao, N. Rega, 
 G. Zheng, W. Liang, M. Hada, M. Ehara, K. Toyota, R. Fukuda, 
 J. Hasegawa, M. Ishida, T. Nakajima, Y. Honda, O. Kitao, H. Nakai, 
 T. Vreven, K. Throssell, J. A. Montgomery, Jr., J. E. Peralta, 
 F. Ogliaro, M. J. Bearpark, J. J. Heyd, E. N. Brothers, K. N. Kudin, 
 V. N. Staroverov, T. A. Keith, R. Kobayashi, J. Normand, 
 K. Raghavachari, A. P. Rendell, J. C. Burant, S. S. Iyengar, 
 J. Tomasi, M. Cossi, J. M. Millam, M. Klene, C. Adamo, R. Cammi, 
 J. W. Ochterski, R. L. Martin, K. Morokuma, O. Farkas, 
 J. B. Foresman, and D. J. Fox, Gaussian, Inc., Wallingford CT, 2016.
 
 ******************************************
 Gaussian 16:  EM64L-G16RevA.03 25-Dec-2016
                22-Jan-2021 
 ******************************************
 %mem=30GB
 %nproc=8
 Will use up to    8 processors via shared memory.
 ----------------------------------------------------------------------
 #P LC-wHPBE/TZVP iop(3/107=0163200000, 3/108=0163200000) scf=(conver=6
 ,fermi,ndamp=35,noincfock,novaracc,vshift=500,xqc)
 ----------------------------------------------------------------------
 1/38=1,172=1/1;
 2/12=2,17=6,18=5,40=1/2;
 3/5=19,7=101,11=2,25=1,30=1,74=-71,107=163200000,108=163200000/1,2,3;
 4//1;
 5/5=100002,6=6,8=3,10=500,13=1,18=-1,22=13,38=1,93=35/2,8;
 6/7=2,8=2,9=2,10=2,28=1/1;
 99/5=1,9=1/99;
 Leave Link    1 at Fri Jan 22 01:05:06 2021, MaxMem=  4026531840 cpu:               1.2 elap:               0.2
 (Enter /opt/ohpc/pub/libs/gaussian/g16-A.03/sandybridge/g16/l101.exe)
 ----------------
 H28 C36 S2 N2 O4
 ----------------
 Symbolic Z-matrix:
 Charge =  1 Multiplicity = 2
 C                    -1.74893  -0.48991   0.45205 
 C                    -0.62617  -1.27976   0.15257 
 S                     1.95275  -5.38863   0.81244 
 C                    -0.88231  -2.17007  -0.82073 
 C                     1.93271  -2.89727  -0.47654 
 C                     2.56651  -3.76144   0.41855 
 C                    -2.97535  -0.63196  -0.1958 
 C                    -2.04907  -2.38689  -1.54596 
 H                     0.24632  -4.4688   -0.58608 
 C                     2.3844   -1.61382  -0.70002 
 C                     3.67389  -3.2695    1.09548 
 C                     4.13591  -1.9848    0.8939 
 C                     3.4945   -1.12546  -0.00298 
 H                     1.85727  -0.97113  -1.39535 
 H                     4.17633  -3.91217   1.81179 
 H                     4.99298  -1.63215   1.45672 
 C                    -3.12247  -1.59022  -1.21061 
 H                    -1.68827   0.27673   1.22609 
 H                     2.539    -6.05112  -0.20625 
 H                    -2.13255  -3.12015  -2.34715 
 H                    -4.06824  -1.68817  -1.73412 
 S                     0.49142  -3.39136  -1.37893 
 N                     3.94002   0.17584  -0.19521 
 C                     5.26504   0.53915   0.18455 
 C                     5.4794    1.52009   1.14789 
 C                     6.36005  -0.06867  -0.41291 
 C                     6.76145   1.88905   1.50578 
 C                     7.64921   0.28069  -0.04453 
 C                     7.85273   1.26556   0.91321 
 H                     4.62413   2.00223   1.61256 
 H                     6.19883  -0.83008  -1.17092 
 H                     6.93636   2.65609   2.25345 
 H                     8.4991   -0.2066   -0.51822 
 C                     3.06788   1.2178   -0.62497 
 C                     3.53317   2.17567  -1.51664 
 C                     1.76843   1.32435  -0.1336 
 C                     2.72389   3.23089  -1.90464 
 C                     0.95203   2.36364  -0.537 
 C                     1.42913   3.32613  -1.41517 
 H                     4.54576   2.10296  -1.90238 
 H                     1.36426   0.56676   0.53491 
 H                     3.10649   3.97813  -2.5973 
 H                    -0.06364   2.43711  -0.16248 
 N                    -4.07158   0.19929   0.13789 
 C                    -5.37966  -0.33076   0.1925 
 C                    -6.46407   0.38186  -0.30812 
 C                    -5.6159   -1.58378   0.75848 
 C                    -7.74803  -0.13541  -0.23737 
 C                    -6.89074  -2.11387   0.80878 
 C                    -7.96633  -1.38872   0.31473 
 H                    -6.30118   1.35925  -0.7522 
 H                    -4.77999  -2.14815   1.16092 
 H                    -8.58276   0.44229  -0.63053 
 H                    -7.07135  -3.09018   1.24785 
 C                    -3.86307   1.57986   0.373 
 C                    -4.4883    2.22833   1.436 
 C                    -3.028     2.32052  -0.45569 
 C                    -4.28852   3.5775    1.66229 
 C                    -2.80216   3.6666   -0.21896 
 C                    -3.43522   4.30069   0.84052 
 H                    -5.14118   1.66175   2.09352 
 H                    -2.53359   1.82899  -1.28837 
 H                    -4.77415   4.08178   2.49202 
 H                    -2.12566   4.22018  -0.86772 
 O                     0.58459   4.34391  -1.76917 
 H                     1.03059   4.92017  -2.39978 
 O                     9.09526   1.66145   1.30836 
 H                     9.76322   1.15951   0.82796 
 O                    -9.20972  -1.95354   0.4003 
 H                    -9.85952  -1.34706   0.02865 
 O                    -3.25401   5.62795   1.11675 
 H                    -2.60943   5.99136   0.49935 
 
 ITRead=  0  0  0  0  0  0  0  0  0  0  0  0  0  0  0  0  0  0  0  0
 ITRead=  0  0  0  0  0  0  0  0  0  0  0  0  0  0  0  0  0  0  0  0
 ITRead=  0  0  0  0  0  0  0  0  0  0  0  0  0  0  0  0  0  0  0  0
 ITRead=  0  0  0  0  0  0  0  0  0  0  0  0
 MicOpt= -1 -1 -1 -1 -1 -1 -1 -1 -1 -1 -1 -1 -1 -1 -1 -1 -1 -1 -1 -1
 MicOpt= -1 -1 -1 -1 -1 -1 -1 -1 -1 -1 -1 -1 -1 -1 -1 -1 -1 -1 -1 -1
 MicOpt= -1 -1 -1 -1 -1 -1 -1 -1 -1 -1 -1 -1 -1 -1 -1 -1 -1 -1 -1 -1
 MicOpt= -1 -1 -1 -1 -1 -1 -1 -1 -1 -1 -1 -1
 NAtoms=     72 NQM=       72 NQMF=       0 NMMI=      0 NMMIF=      0
                NMic=       0 NMicF=      0.
                    Isotopes and Nuclear Properties:
 (Nuclear quadrupole moments (NQMom) in fm**2, nuclear magnetic moments (NMagM)
  in nuclear magnetons)

  Atom         1           2           3           4           5           6           7           8           9          10
 IAtWgt=          12          12          32          12          12          12          12          12           1          12
 AtmWgt=  12.0000000  12.0000000  31.9720718  12.0000000  12.0000000  12.0000000  12.0000000  12.0000000   1.0078250  12.0000000
 NucSpn=           0           0           0           0           0           0           0           0           1           0
 AtZEff=  -0.0000000  -0.0000000  -0.0000000  -0.0000000  -0.0000000  -0.0000000  -0.0000000  -0.0000000  -0.0000000  -0.0000000
 NQMom=    0.0000000   0.0000000   0.0000000   0.0000000   0.0000000   0.0000000   0.0000000   0.0000000   0.0000000   0.0000000
 NMagM=    0.0000000   0.0000000   0.0000000   0.0000000   0.0000000   0.0000000   0.0000000   0.0000000   2.7928460   0.0000000
 AtZNuc=   6.0000000   6.0000000  16.0000000   6.0000000   6.0000000   6.0000000   6.0000000   6.0000000   1.0000000   6.0000000

  Atom        11          12          13          14          15          16          17          18          19          20
 IAtWgt=          12          12          12           1           1           1          12           1           1           1
 AtmWgt=  12.0000000  12.0000000  12.0000000   1.0078250   1.0078250   1.0078250  12.0000000   1.0078250   1.0078250   1.0078250
 NucSpn=           0           0           0           1           1           1           0           1           1           1
 AtZEff=  -0.0000000  -0.0000000  -0.0000000  -0.0000000  -0.0000000  -0.0000000  -0.0000000  -0.0000000  -0.0000000  -0.0000000
 NQMom=    0.0000000   0.0000000   0.0000000   0.0000000   0.0000000   0.0000000   0.0000000   0.0000000   0.0000000   0.0000000
 NMagM=    0.0000000   0.0000000   0.0000000   2.7928460   2.7928460   2.7928460   0.0000000   2.7928460   2.7928460   2.7928460
 AtZNuc=   6.0000000   6.0000000   6.0000000   1.0000000   1.0000000   1.0000000   6.0000000   1.0000000   1.0000000   1.0000000

  Atom        21          22          23          24          25          26          27          28          29          30
 IAtWgt=           1          32          14          12          12          12          12          12          12           1
 AtmWgt=   1.0078250  31.9720718  14.0030740  12.0000000  12.0000000  12.0000000  12.0000000  12.0000000  12.0000000   1.0078250
 NucSpn=           1           0           2           0           0           0           0           0           0           1
 AtZEff=  -0.0000000  -0.0000000  -0.0000000  -0.0000000  -0.0000000  -0.0000000  -0.0000000  -0.0000000  -0.0000000  -0.0000000
 NQMom=    0.0000000   0.0000000   2.0440000   0.0000000   0.0000000   0.0000000   0.0000000   0.0000000   0.0000000   0.0000000
 NMagM=    2.7928460   0.0000000   0.4037610   0.0000000   0.0000000   0.0000000   0.0000000   0.0000000   0.0000000   2.7928460
 AtZNuc=   1.0000000  16.0000000   7.0000000   6.0000000   6.0000000   6.0000000   6.0000000   6.0000000   6.0000000   1.0000000

  Atom        31          32          33          34          35          36          37          38          39          40
 IAtWgt=           1           1           1          12          12          12          12          12          12           1
 AtmWgt=   1.0078250   1.0078250   1.0078250  12.0000000  12.0000000  12.0000000  12.0000000  12.0000000  12.0000000   1.0078250
 NucSpn=           1           1           1           0           0           0           0           0           0           1
 AtZEff=  -0.0000000  -0.0000000  -0.0000000  -0.0000000  -0.0000000  -0.0000000  -0.0000000  -0.0000000  -0.0000000  -0.0000000
 NQMom=    0.0000000   0.0000000   0.0000000   0.0000000   0.0000000   0.0000000   0.0000000   0.0000000   0.0000000   0.0000000
 NMagM=    2.7928460   2.7928460   2.7928460   0.0000000   0.0000000   0.0000000   0.0000000   0.0000000   0.0000000   2.7928460
 AtZNuc=   1.0000000   1.0000000   1.0000000   6.0000000   6.0000000   6.0000000   6.0000000   6.0000000   6.0000000   1.0000000

  Atom        41          42          43          44          45          46          47          48          49          50
 IAtWgt=           1           1           1          14          12          12          12          12          12          12
 AtmWgt=   1.0078250   1.0078250   1.0078250  14.0030740  12.0000000  12.0000000  12.0000000  12.0000000  12.0000000  12.0000000
 NucSpn=           1           1           1           2           0           0           0           0           0           0
 AtZEff=  -0.0000000  -0.0000000  -0.0000000  -0.0000000  -0.0000000  -0.0000000  -0.0000000  -0.0000000  -0.0000000  -0.0000000
 NQMom=    0.0000000   0.0000000   0.0000000   2.0440000   0.0000000   0.0000000   0.0000000   0.0000000   0.0000000   0.0000000
 NMagM=    2.7928460   2.7928460   2.7928460   0.4037610   0.0000000   0.0000000   0.0000000   0.0000000   0.0000000   0.0000000
 AtZNuc=   1.0000000   1.0000000   1.0000000   7.0000000   6.0000000   6.0000000   6.0000000   6.0000000   6.0000000   6.0000000

  Atom        51          52          53          54          55          56          57          58          59          60
 IAtWgt=           1           1           1           1          12          12          12          12          12          12
 AtmWgt=   1.0078250   1.0078250   1.0078250   1.0078250  12.0000000  12.0000000  12.0000000  12.0000000  12.0000000  12.0000000
 NucSpn=           1           1           1           1           0           0           0           0           0           0
 AtZEff=  -0.0000000  -0.0000000  -0.0000000  -0.0000000  -0.0000000  -0.0000000  -0.0000000  -0.0000000  -0.0000000  -0.0000000
 NQMom=    0.0000000   0.0000000   0.0000000   0.0000000   0.0000000   0.0000000   0.0000000   0.0000000   0.0000000   0.0000000
 NMagM=    2.7928460   2.7928460   2.7928460   2.7928460   0.0000000   0.0000000   0.0000000   0.0000000   0.0000000   0.0000000
 AtZNuc=   1.0000000   1.0000000   1.0000000   1.0000000   6.0000000   6.0000000   6.0000000   6.0000000   6.0000000   6.0000000

  Atom        61          62          63          64          65          66          67          68          69          70
 IAtWgt=           1           1           1           1          16           1          16           1          16           1
 AtmWgt=   1.0078250   1.0078250   1.0078250   1.0078250  15.9949146   1.0078250  15.9949146   1.0078250  15.9949146   1.0078250
 NucSpn=           1           1           1           1           0           1           0           1           0           1
 AtZEff=  -0.0000000  -0.0000000  -0.0000000  -0.0000000  -0.0000000  -0.0000000  -0.0000000  -0.0000000  -0.0000000  -0.0000000
 NQMom=    0.0000000   0.0000000   0.0000000   0.0000000   0.0000000   0.0000000   0.0000000   0.0000000   0.0000000   0.0000000
 NMagM=    2.7928460   2.7928460   2.7928460   2.7928460   0.0000000   2.7928460   0.0000000   2.7928460   0.0000000   2.7928460
 AtZNuc=   1.0000000   1.0000000   1.0000000   1.0000000   8.0000000   1.0000000   8.0000000   1.0000000   8.0000000   1.0000000

  Atom        71          72
 IAtWgt=          16           1
 AtmWgt=  15.9949146   1.0078250
 NucSpn=           0           1
 AtZEff=  -0.0000000  -0.0000000
 NQMom=    0.0000000   0.0000000
 NMagM=    0.0000000   2.7928460
 AtZNuc=   8.0000000   1.0000000
 Leave Link  101 at Fri Jan 22 01:05:07 2021, MaxMem=  4026531840 cpu:               0.6 elap:               0.1
 (Enter /opt/ohpc/pub/libs/gaussian/g16-A.03/sandybridge/g16/l202.exe)
 Stoichiometry    C36H28N2O4S2(1+,2)
 Framework group  C1[X(C36H28N2O4S2)]
 Deg. of freedom   210
 Full point group                 C1      NOp   1
 Largest Abelian subgroup         C1      NOp   1
 Largest concise Abelian subgroup C1      NOp   1
                         Standard orientation:                         
 ---------------------------------------------------------------------
 Center     Atomic      Atomic             Coordinates (Angstroms)
 Number     Number       Type             X           Y           Z
 ---------------------------------------------------------------------
      1          6           0       -1.748928    0.489907   -0.452051
      2          6           0       -0.626174    1.279763   -0.152570
      3         16           0        1.952753    5.388628   -0.812439
      4          6           0       -0.882312    2.170069    0.820725
      5          6           0        1.932708    2.897266    0.476539
      6          6           0        2.566514    3.761438   -0.418550
      7          6           0       -2.975354    0.631957    0.195801
      8          6           0       -2.049066    2.386893    1.545961
      9          1           0        0.246316    4.468801    0.586079
     10          6           0        2.384401    1.613824    0.700024
     11          6           0        3.673888    3.269502   -1.095477
     12          6           0        4.135912    1.984797   -0.893895
     13          6           0        3.494497    1.125461    0.002977
     14          1           0        1.857267    0.971131    1.395345
     15          1           0        4.176334    3.912174   -1.811785
     16          1           0        4.992977    1.632150   -1.456718
     17          6           0       -3.122467    1.590215    1.210611
     18          1           0       -1.688273   -0.276733   -1.226088
     19          1           0        2.539000    6.051116    0.206249
     20          1           0       -2.132551    3.120151    2.347153
     21          1           0       -4.068236    1.688167    1.734116
     22         16           0        0.491419    3.391365    1.378930
     23          7           0        3.940024   -0.175839    0.195205
     24          6           0        5.265040   -0.539150   -0.184549
     25          6           0        5.479402   -1.520085   -1.147894
     26          6           0        6.360048    0.068673    0.412912
     27          6           0        6.761446   -1.889048   -1.505778
     28          6           0        7.649207   -0.280692    0.044528
     29          6           0        7.852726   -1.265560   -0.913210
     30          1           0        4.624132   -2.002234   -1.612555
     31          1           0        6.198832    0.830082    1.170918
     32          1           0        6.936355   -2.656092   -2.253454
     33          1           0        8.499101    0.206598    0.518215
     34          6           0        3.067884   -1.217797    0.624973
     35          6           0        3.533169   -2.175669    1.516644
     36          6           0        1.768428   -1.324352    0.133595
     37          6           0        2.723890   -3.230889    1.904642
     38          6           0        0.952027   -2.363639    0.537000
     39          6           0        1.429133   -3.326131    1.415171
     40          1           0        4.545758   -2.102962    1.902377
     41          1           0        1.364259   -0.566763   -0.534909
     42          1           0        3.106488   -3.978127    2.597301
     43          1           0       -0.063643   -2.437107    0.162477
     44          7           0       -4.071583   -0.199288   -0.137893
     45          6           0       -5.379657    0.330758   -0.192504
     46          6           0       -6.464072   -0.381862    0.308117
     47          6           0       -5.615898    1.583782   -0.758482
     48          6           0       -7.748035    0.135409    0.237366
     49          6           0       -6.890741    2.113870   -0.808775
     50          6           0       -7.966332    1.388715   -0.314728
     51          1           0       -6.301182   -1.359246    0.752201
     52          1           0       -4.779992    2.148147   -1.160920
     53          1           0       -8.582756   -0.442294    0.630527
     54          1           0       -7.071352    3.090185   -1.247847
     55          6           0       -3.863071   -1.579858   -0.373004
     56          6           0       -4.488297   -2.228332   -1.435995
     57          6           0       -3.028002   -2.320518    0.455690
     58          6           0       -4.288516   -3.577498   -1.662294
     59          6           0       -2.802155   -3.666597    0.218956
     60          6           0       -3.435225   -4.300687   -0.840523
     61          1           0       -5.141183   -1.661753   -2.093518
     62          1           0       -2.533592   -1.828985    1.288374
     63          1           0       -4.774148   -4.081779   -2.492022
     64          1           0       -2.125658   -4.220184    0.867724
     65          8           0        0.584592   -4.343911    1.769173
     66          1           0        1.030590   -4.920168    2.399784
     67          8           0        9.095256   -1.661445   -1.308356
     68          1           0        9.763222   -1.159512   -0.827959
     69          8           0       -9.209724    1.953542   -0.400297
     70          1           0       -9.859516    1.347058   -0.028653
     71          8           0       -3.254007   -5.627948   -1.116747
     72          1           0       -2.609433   -5.991357   -0.499352
 ---------------------------------------------------------------------
 Rotational constants (GHZ):           0.1003685           0.0370235           0.0288534
 Leave Link  202 at Fri Jan 22 01:05:07 2021, MaxMem=  4026531840 cpu:               0.3 elap:               0.1
 (Enter /opt/ohpc/pub/libs/gaussian/g16-A.03/sandybridge/g16/l301.exe)
 Standard basis: TZVP (5D, 7F)
 Ernie: Thresh=  0.10000D-02 Tol=  0.10000D-05 Strict=F.
 There are  1054 symmetry adapted cartesian basis functions of A   symmetry.
 There are  1010 symmetry adapted basis functions of A   symmetry.
  1010 basis functions,  1788 primitive gaussians,  1054 cartesian basis functions
   161 alpha electrons      160 beta electrons
       nuclear repulsion energy      5277.7236652844 Hartrees.
 IExCor=33909 DFT=T Ex+Corr=LC-wHPBE ExCW=0 ScaHFX=  1.000000
 ScaDFX=  1.000000  1.000000  1.000000  1.000000 ScalE2=  1.000000  1.000000
 IRadAn=      5 IRanWt=     -1 IRanGd=            0 ICorTp=0 IEmpDi=  4
 HFx  wShort=  0.000000 wLong=  0.163200 cFull=  0.000000 cShort=  0.000000 cLong=  1.000000
 DFx  wShort=  0.000000 wLong=  0.163200 cFull=  0.000000 cShort=  1.000000 cLong=  0.000000
 NAtoms=   72 NActive=   72 NUniq=   72 SFac= 1.00D+00 NAtFMM=   60 NAOKFM=T Big=T
 Integral buffers will be    131072 words long.
 Raffenetti 2 integral format.
 Two-electron integral symmetry is turned on.
 Leave Link  301 at Fri Jan 22 01:05:07 2021, MaxMem=  4026531840 cpu:               0.4 elap:               0.1
 (Enter /opt/ohpc/pub/libs/gaussian/g16-A.03/sandybridge/g16/l302.exe)
 NPDir=0 NMtPBC=     1 NCelOv=     1 NCel=       1 NClECP=     1 NCelD=      1
         NCelK=      1 NCelE2=     1 NClLst=     1 CellRange=     0.0.
 One-electron integrals computed using PRISM.
 One-electron integral symmetry used in STVInt
 NBasis=  1010 RedAO= T EigKep=  6.33D-06  NBF=  1010
 NBsUse=  1010 1.00D-06 EigRej= -1.00D+00 NBFU=  1010
 Precomputing XC quadrature grid using
 IXCGrd= 4 IRadAn=           5 IRanWt=          -1 IRanGd=           0 AccXCQ= 0.00D+00.
 Generated NRdTot=       0 NPtTot=           0 NUsed=           0 NTot=          32
 NSgBfM=   960   960   960   960   960 MxSgAt=    72 MxSgA2=    72.
 Leave Link  302 at Fri Jan 22 01:05:12 2021, MaxMem=  4026531840 cpu:              37.7 elap:               5.5
 (Enter /opt/ohpc/pub/libs/gaussian/g16-A.03/sandybridge/g16/l303.exe)
 DipDrv:  MaxL=1.
 Leave Link  303 at Fri Jan 22 01:05:13 2021, MaxMem=  4026531840 cpu:               2.3 elap:               0.5
 (Enter /opt/ohpc/pub/libs/gaussian/g16-A.03/sandybridge/g16/l401.exe)
 ExpMin= 9.52D-02 ExpMax= 6.07D+04 ExpMxC= 2.07D+03 IAcc=3 IRadAn=         5 AccDes= 0.00D+00
 Harris functional with IExCor=33909 and IRadAn=       5 diagonalized for initial guess.
 HarFok:  IExCor=33909 AccDes= 0.00D+00 IRadAn=         5 IDoV= 1 UseB2=F ITyADJ=14
 ICtDFT=  3500011 ScaDFX=  1.000000  1.000000  1.000000  1.000000
 FoFCou: FMM=F IPFlag=           0 FMFlag=      100000 FMFlg1=        2001
         NFxFlg=           0 DoJE=T BraDBF=F KetDBF=T FulRan=T
         wScrn=  0.000000 ICntrl=       500 IOpCl=  0 I1Cent=   200000004 NGrid=           0
         NMat0=    1 NMatS0=      1 NMatT0=    0 NMatD0=    1 NMtDS0=    0 NMtDT0=    0
 Petite list used in FoFCou.
 Harris En= -2565.45381098219    
 JPrj=0 DoOrth=F DoCkMO=F.
 Initial guess <Sx>= 0.0000 <Sy>= 0.0000 <Sz>= 0.5000 <S**2>= 0.7500 S= 0.5000
 Leave Link  401 at Fri Jan 22 01:05:29 2021, MaxMem=  4026531840 cpu:             114.0 elap:              16.4
 (Enter /opt/ohpc/pub/libs/gaussian/g16-A.03/sandybridge/g16/l502.exe)
 Integral symmetry usage will be decided dynamically.
 UHF open shell SCF:
 Using DIIS extrapolation, IDIIS=    10.
 NGot=  4026531840 LenX=  4024291472 LenY=  4023179502
 Requested convergence on RMS density matrix=1.00D-06 within  32 cycles.
 Requested convergence on MAX density matrix=1.00D-04.
 Requested convergence on             energy=1.00D-04.
 Virtual orbitals will be shifted by   0.500 hartree.
 No special actions if energy rises.
 Dynamic level shift is on during FON iterations.

 Cycle   1  Pass 1  IDiag  1:
 FoFJK:  IHMeth= 1 ICntrl=       0 DoSepK=T KAlg= 0 I1Cent=           0 FoldK=F
 IRaf=         1 NMat=       1 IRICut=       1 DoRegI=T DoRafI=F ISym2E= 0 IDoP0=0 IntGTp=1.
 FoFCou: FMM=T IPFlag=           0 FMFlag=      100000 FMFlg1=        2001
         NFxFlg=           0 DoJE=T BraDBF=F KetDBF=F FulRan=T
         wScrn=  0.000000 ICntrl=       500 IOpCl=  0 I1Cent=           0 NGrid=           0
         NMat0=    1 NMatS0=      1 NMatT0=    0 NMatD0=    1 NMtDS0=    0 NMtDT0=    0
 Symmetry not used in FoFCou.
 FMM levels:  10  Number of levels for PrismC:   9
 E= -2592.75597677483    
 DIIS: error= 3.65D-02 at cycle   1 NSaved=   1.
 NSaved= 1 IEnMin= 1 EnMin= -2592.75597677483     IErMin= 1 ErrMin= 3.65D-02
 ErrMax= 3.65D-02  0.00D+00 EMaxC= 1.00D+00 BMatC= 3.75D+00 BMatP= 3.75D+00
 IDIUse=1 WtCom= 1.00D+00 WtEn= 0.00D+00
 Coeff-Com:  0.100D+01
 Coeff:      0.100D+01
 Gap=     0.441 Goal=   None    Shift=    0.500
 T= 1613. Gap= 0.420 NK=0 IS=  162 IE= 1010 IFin=  161
          NO(<0.9)=   0  NV(>0.1)=   0    161.00e < EF      0.00e >EF  Err=0.0D+00
 Gap=     0.007 Goal=   None    Shift=    0.500
 T= 1613. Gap= 0.363 NK=0 IS=  161 IE= 1010 IFin=  160
          NO(<0.9)=   0  NV(>0.1)=   0    160.00e < EF      0.00e >EF  Err=0.0D+00
 GapD=    0.007 DampG=0.250 DampE=0.500 DampFc=0.1250 IDamp=-1.
 Damping current iteration by 1.25D-01
 RMSDP=3.85D-03 MaxDP=4.88D-01              OVMax= 1.57D-01

 Cycle   2  Pass 1  IDiag  1:
 E= -2592.94067411013     Delta-E=       -0.184697335305 Rises=F Damp=T
 DIIS: error= 3.27D-02 at cycle   2 NSaved=   2.
 NSaved= 2 IEnMin= 2 EnMin= -2592.94067411013     IErMin= 2 ErrMin= 3.27D-02
 ErrMax= 3.27D-02  0.00D+00 EMaxC= 1.00D+00 BMatC= 2.61D+00 BMatP= 3.75D+00
 IDIUse=1 WtCom= 1.00D+00 WtEn= 0.00D+00
 Coeff-Com: -0.470D+01 0.570D+01
 Coeff:     -0.470D+01 0.570D+01
 Gap=     0.235 Goal=   None    Shift=    0.500
 T= 1592. Gap= 0.699 NK=4 IS=  162 IE=  184 IFin=  161
          NO(<0.9)=   0  NV(>0.1)=   0    161.00e < EF      0.00e >EF  Err=0.0D+00
 Gap=     0.090 Goal=   None    Shift=    0.500
 T= 1592. Gap= 0.569 NK=4 IS=  161 IE=  182 IFin=  160
          NO(<0.9)=   0  NV(>0.1)=   0    160.00e < EF      0.00e >EF  Err=0.0D+00
 GapD=    0.090 DampG=0.500 DampE=0.500 DampFc=0.2500 IDamp=-1.
 Damping current iteration by 2.50D-01
 RMSDP=3.03D-03 MaxDP=3.24D-01 DE=-1.85D-01 OVMax= 7.17D-02

 Cycle   3  Pass 1  IDiag  1:
 E= -2593.20122216237     Delta-E=       -0.260548052237 Rises=F Damp=T
 DIIS: error= 2.50D-02 at cycle   3 NSaved=   3.
 NSaved= 3 IEnMin= 3 EnMin= -2593.20122216237     IErMin= 3 ErrMin= 2.50D-02
 ErrMax= 2.50D-02  0.00D+00 EMaxC= 1.00D+00 BMatC= 1.34D+00 BMatP= 2.61D+00
 IDIUse=1 WtCom= 1.00D+00 WtEn= 0.00D+00
 Coeff-Com: -0.494D-01-0.241D+01 0.346D+01
 Coeff:     -0.494D-01-0.241D+01 0.346D+01
 Gap=     0.231 Goal=   None    Shift=    0.500
 T= 1523. Gap= 0.725 NK=4 IS=  162 IE=  183 IFin=  161
          NO(<0.9)=   0  NV(>0.1)=   0    161.00e < EF      0.00e >EF  Err=0.0D+00
 Gap=     0.081 Goal=   None    Shift=    0.500
 T= 1523. Gap= 0.581 NK=4 IS=  161 IE=  182 IFin=  160
          NO(<0.9)=   0  NV(>0.1)=   0    160.00e < EF      0.00e >EF  Err=0.0D+00
 GapD=    0.081 DampG=0.500 DampE=0.500 DampFc=0.2500 IDamp=-1.
 Damping current iteration by 2.50D-01
 RMSDP=1.92D-03 MaxDP=1.72D-01 DE=-2.61D-01 OVMax= 3.11D-02

 Cycle   4  Pass 1  IDiag  1:
 E= -2593.35920376874     Delta-E=       -0.157981606367 Rises=F Damp=T
 DIIS: error= 1.99D-02 at cycle   4 NSaved=   4.
 NSaved= 4 IEnMin= 4 EnMin= -2593.35920376874     IErMin= 4 ErrMin= 1.99D-02
 ErrMax= 1.99D-02  0.00D+00 EMaxC= 1.00D+00 BMatC= 7.18D-01 BMatP= 1.34D+00
 IDIUse=1 WtCom= 1.00D+00 WtEn= 0.00D+00
 Coeff-Com:  0.524D+00-0.714D+00-0.279D+01 0.398D+01
 Coeff:      0.524D+00-0.714D+00-0.279D+01 0.398D+01
 Gap=     0.228 Goal=   None    Shift=    0.500
 T= 1408. Gap= 0.728 NK=4 IS=  162 IE=  184 IFin=  161
          NO(<0.9)=   0  NV(>0.1)=   0    161.00e < EF      0.00e >EF  Err=0.0D+00
 Gap=     0.085 Goal=   None    Shift=    0.500
 T= 1408. Gap= 0.586 NK=4 IS=  161 IE=  183 IFin=  160
          NO(<0.9)=   0  NV(>0.1)=   0    160.00e < EF      0.00e >EF  Err=0.0D+00
 GapD=    0.085 DampG=0.500 DampE=0.500 DampFc=0.2500 IDamp=-1.
 Damping current iteration by 2.50D-01
 RMSDP=1.33D-03 MaxDP=1.26D-01 DE=-1.58D-01 OVMax= 3.12D-02

 Cycle   5  Pass 1  IDiag  1:
 E= -2593.46150750764     Delta-E=       -0.102303738907 Rises=F Damp=T
 DIIS: error= 1.62D-02 at cycle   5 NSaved=   5.
 NSaved= 5 IEnMin= 5 EnMin= -2593.46150750764     IErMin= 5 ErrMin= 1.62D-02
 ErrMax= 1.62D-02  0.00D+00 EMaxC= 1.00D+00 BMatC= 3.97D-01 BMatP= 7.18D-01
 IDIUse=1 WtCom= 1.00D+00 WtEn= 0.00D+00
 Coeff-Com:  0.923D-01 0.251D+00-0.375D+00-0.366D+01 0.470D+01
 Coeff:      0.923D-01 0.251D+00-0.375D+00-0.366D+01 0.470D+01
 Gap=     0.228 Goal=   None    Shift=    0.500
 T= 1264. Gap= 0.727 NK=4 IS=  162 IE=  184 IFin=  161
          NO(<0.9)=   0  NV(>0.1)=   0    161.00e < EF      0.00e >EF  Err=0.0D+00
 Gap=     0.089 Goal=   None    Shift=    0.500
 T= 1264. Gap= 0.591 NK=4 IS=  161 IE=  183 IFin=  160
          NO(<0.9)=   0  NV(>0.1)=   0    160.00e < EF      0.00e >EF  Err=0.0D+00
 GapD=    0.089 DampG=0.500 DampE=0.500 DampFc=0.2500 IDamp=-1.
 Damping current iteration by 2.50D-01
 RMSDP=9.77D-04 MaxDP=9.93D-02 DE=-1.02D-01 OVMax= 2.66D-02

 Cycle   6  Pass 1  IDiag  1:
 E= -2593.53086205145     Delta-E=       -0.069354543805 Rises=F Damp=T
 DIIS: error= 1.33D-02 at cycle   6 NSaved=   6.
 NSaved= 6 IEnMin= 6 EnMin= -2593.53086205145     IErMin= 6 ErrMin= 1.33D-02
 ErrMax= 1.33D-02  0.00D+00 EMaxC= 1.00D+00 BMatC= 2.23D-01 BMatP= 3.97D-01
 IDIUse=1 WtCom= 1.00D+00 WtEn= 0.00D+00
 Coeff-Com: -0.113D+00 0.308D+00 0.462D+00-0.593D+00-0.473D+01 0.567D+01
 Coeff:     -0.113D+00 0.308D+00 0.462D+00-0.593D+00-0.473D+01 0.567D+01
 Gap=     0.229 Goal=   None    Shift=    0.500
 T= 1136. Gap= 0.728 NK=4 IS=  162 IE=  184 IFin=  161
          NO(<0.9)=   0  NV(>0.1)=   0    161.00e < EF      0.00e >EF  Err=0.0D+00
 Gap=     0.093 Goal=   None    Shift=    0.500
 T= 1136. Gap= 0.594 NK=4 IS=  161 IE=  183 IFin=  160
          NO(<0.9)=   0  NV(>0.1)=   0    160.00e < EF      0.00e >EF  Err=0.0D+00
 GapD=    0.093 DampG=0.500 DampE=0.500 DampFc=0.2500 IDamp=-1.
 Damping current iteration by 2.50D-01
 RMSDP=7.57D-04 MaxDP=8.42D-02 DE=-6.94D-02 OVMax= 2.41D-02

 Cycle   7  Pass 1  IDiag  1:
 E= -2593.57940609295     Delta-E=       -0.048544041499 Rises=F Damp=T
 DIIS: error= 1.10D-02 at cycle   7 NSaved=   7.
 NSaved= 7 IEnMin= 7 EnMin= -2593.57940609295     IErMin= 7 ErrMin= 1.10D-02
 ErrMax= 1.10D-02  0.00D+00 EMaxC= 1.00D+00 BMatC= 1.26D-01 BMatP= 2.23D-01
 IDIUse=1 WtCom= 1.00D+00 WtEn= 0.00D+00
 Coeff-Com: -0.292D-01-0.118D+00 0.408D+00 0.200D+01-0.321D+01-0.495D+01
 Coeff-Com:  0.691D+01
 Coeff:     -0.292D-01-0.118D+00 0.408D+00 0.200D+01-0.321D+01-0.495D+01
 Coeff:      0.691D+01
 Gap=     0.227 Goal=   None    Shift=    0.500
 T= 1016. Gap= 0.727 NK=4 IS=  162 IE=  184 IFin=  161
          NO(<0.9)=   0  NV(>0.1)=   0    161.00e < EF      0.00e >EF  Err=0.0D+00
 Gap=     0.096 Goal=   None    Shift=    0.500
 T= 1016. Gap= 0.597 NK=4 IS=  161 IE=  183 IFin=  160
          NO(<0.9)=   0  NV(>0.1)=   0    160.00e < EF      0.00e >EF  Err=0.0D+00
 GapD=    0.096 DampG=0.500 DampE=0.500 DampFc=0.2500 IDamp=-1.
 Damping current iteration by 2.50D-01
 RMSDP=6.06D-04 MaxDP=6.70D-02 DE=-4.85D-02 OVMax= 2.15D-02

 Cycle   8  Pass 1  IDiag  1:
 E= -2593.61404054775     Delta-E=       -0.034634454803 Rises=F Damp=T
 DIIS: error= 9.12D-03 at cycle   8 NSaved=   8.
 NSaved= 8 IEnMin= 8 EnMin= -2593.61404054775     IErMin= 8 ErrMin= 9.12D-03
 ErrMax= 9.12D-03  0.00D+00 EMaxC= 1.00D+00 BMatC= 7.11D-02 BMatP= 1.26D-01
 IDIUse=1 WtCom= 1.00D+00 WtEn= 0.00D+00
 Coeff-Com:  0.838D-01-0.312D+00 0.102D+00 0.123D+01 0.813D+00-0.314D+01
 Coeff-Com: -0.501D+01 0.723D+01
 Coeff:      0.838D-01-0.312D+00 0.102D+00 0.123D+01 0.813D+00-0.314D+01
 Coeff:     -0.501D+01 0.723D+01
 Gap=     0.227 Goal=   None    Shift=    0.500
 T=  901. Gap= 0.727 NK=4 IS=  162 IE=  184 IFin=  161
          NO(<0.9)=   0  NV(>0.1)=   0    161.00e < EF      0.00e >EF  Err=0.0D+00
 Gap=     0.099 Goal=   None    Shift=    0.500
 T=  901. Gap= 0.600 NK=4 IS=  161 IE=  183 IFin=  160
          NO(<0.9)=   0  NV(>0.1)=   0    160.00e < EF      0.00e >EF  Err=0.0D+00
 GapD=    0.099 DampG=0.500 DampE=1.000 DampFc=0.5000 IDamp=-1.
 Damping current iteration by 5.00D-01
 RMSDP=4.96D-04 MaxDP=6.37D-02 DE=-3.46D-02 OVMax= 1.99D-02

 Cycle   9  Pass 1  IDiag  1:
 E= -2593.66362292609     Delta-E=       -0.049582378336 Rises=F Damp=T
 DIIS: error= 6.10D-03 at cycle   9 NSaved=   9.
 NSaved= 9 IEnMin= 9 EnMin= -2593.66362292609     IErMin= 9 ErrMin= 6.10D-03
 ErrMax= 6.10D-03  0.00D+00 EMaxC= 1.00D+00 BMatC= 1.85D-02 BMatP= 7.11D-02
 IDIUse=1 WtCom= 1.00D+00 WtEn= 0.00D+00
 Coeff-Com:  0.853D-01-0.161D+00-0.183D+00-0.740D+00 0.318D+01 0.203D+01
 Coeff-Com: -0.705D+01-0.364D+00 0.421D+01
 Coeff:      0.853D-01-0.161D+00-0.183D+00-0.740D+00 0.318D+01 0.203D+01
 Coeff:     -0.705D+01-0.364D+00 0.421D+01
 Gap=     0.227 Goal=   None    Shift=    0.500
 T=  756. Gap= 0.727 NK=4 IS=  162 IE=  184 IFin=  161
          NO(<0.9)=   0  NV(>0.1)=   0    161.00e < EF      0.00e >EF  Err=0.0D+00
 Gap=     0.101 Goal=   None    Shift=    0.500
 T=  756. Gap= 0.602 NK=4 IS=  161 IE=  182 IFin=  160
          NO(<0.9)=   0  NV(>0.1)=   0    160.00e < EF      0.00e >EF  Err=0.0D+00
 GapD=    0.101 DampG=1.000 DampE=1.000 DampFc=1.0000 IDamp=-1.
 RMSDP=2.91D-04 MaxDP=4.01D-02 DE=-4.96D-02 OVMax= 1.82D-02

 Cycle  10  Pass 1  IDiag  1:
 E= -2593.71151625721     Delta-E=       -0.047893331129 Rises=F Damp=F
 DIIS: error= 2.67D-03 at cycle  10 NSaved=  10.
 NSaved=10 IEnMin=10 EnMin= -2593.71151625721     IErMin=10 ErrMin= 2.67D-03
 ErrMax= 2.67D-03  0.00D+00 EMaxC= 1.00D+00 BMatC= 3.57D-04 BMatP= 1.85D-02
 IDIUse=1 WtCom= 1.00D+00 WtEn= 0.00D+00
 Coeff-Com:  0.271D-01-0.222D-01-0.155D+00-0.557D+00 0.143D+01 0.200D+01
 Coeff-Com: -0.272D+01-0.108D+01 0.251D+00 0.183D+01
 Coeff:      0.271D-01-0.222D-01-0.155D+00-0.557D+00 0.143D+01 0.200D+01
 Coeff:     -0.272D+01-0.108D+01 0.251D+00 0.183D+01
 Gap=     0.227 Goal=   None    Shift=    0.500
 T=  527. Gap= 0.727 NK=4 IS=  162 IE=  184 IFin=  161
          NO(<0.9)=   0  NV(>0.1)=   0    161.00e < EF      0.00e >EF  Err=0.0D+00
 Gap=     0.103 Goal=   None    Shift=    0.500
 T=  527. Gap= 0.603 NK=4 IS=  161 IE=  181 IFin=  160
          NO(<0.9)=   0  NV(>0.1)=   0    160.00e < EF      0.00e >EF  Err=0.0D+00
 GapD=    0.103 DampG=1.000 DampE=1.000 DampFc=1.0000 IDamp=-1.
 RMSDP=6.39D-05 MaxDP=7.67D-03 DE=-4.79D-02 OVMax= 1.75D-02

 Cycle  11  Pass 1  IDiag  1:
 E= -2593.71222802844     Delta-E=       -0.000711771229 Rises=F Damp=F
 DIIS: error= 2.05D-03 at cycle  11 NSaved=  11.
 NSaved=11 IEnMin=11 EnMin= -2593.71222802844     IErMin=11 ErrMin= 2.05D-03
 ErrMax= 2.05D-03  0.00D+00 EMaxC= 1.00D+00 BMatC= 2.55D-04 BMatP= 3.57D-04
 IDIUse=1 WtCom= 1.00D+00 WtEn= 0.00D+00
 Coeff-Com: -0.465D-01 0.584D-01 0.154D+00 0.534D+00-0.242D+01-0.446D+00
 Coeff-Com:  0.443D+01 0.532D+00-0.458D+01-0.658D+00 0.345D+01
 Coeff:     -0.465D-01 0.584D-01 0.154D+00 0.534D+00-0.242D+01-0.446D+00
 Coeff:      0.443D+01 0.532D+00-0.458D+01-0.658D+00 0.345D+01
 Gap=     0.226 Goal=   None    Shift=    0.500
 T=  225. Gap= 0.726 NK=4 IS=  162 IE=  184 IFin=  161
          NO(<0.9)=   0  NV(>0.1)=   0    161.00e < EF      0.00e >EF  Err=0.0D+00
 Gap=     0.104 Goal=   None    Shift=    0.500
 T=  225. Gap= 0.604 NK=4 IS=  161 IE=  181 IFin=  160
          NO(<0.9)=   0  NV(>0.1)=   0    160.00e < EF      0.00e >EF  Err=0.0D+00
 GapD=    0.104 DampG=1.000 DampE=1.000 DampFc=1.0000 IDamp=-1.
 RMSDP=7.13D-05 MaxDP=1.09D-02 DE=-7.12D-04 OVMax= 2.02D-02

 Cycle  12  Pass 1  IDiag  1:
 E= -2593.71280003567     Delta-E=       -0.000572007230 Rises=F Damp=F
 DIIS: error= 1.52D-03 at cycle  12 NSaved=  12.
 NSaved=12 IEnMin=12 EnMin= -2593.71280003567     IErMin=12 ErrMin= 1.52D-03
 ErrMax= 1.52D-03  0.00D+00 EMaxC= 1.00D+00 BMatC= 2.02D-04 BMatP= 2.55D-04
 IDIUse=1 WtCom= 1.00D+00 WtEn= 0.00D+00
 Coeff-Com: -0.382D-01 0.326D-01 0.193D+00 0.396D+00-0.188D+01-0.102D+01
 Coeff-Com:  0.414D+01 0.669D+00-0.385D+01-0.897D+00 0.250D+01 0.762D+00
 Coeff:     -0.382D-01 0.326D-01 0.193D+00 0.396D+00-0.188D+01-0.102D+01
 Coeff:      0.414D+01 0.669D+00-0.385D+01-0.897D+00 0.250D+01 0.762D+00
 Gap=     0.226 Goal=   None    Shift=    0.500
 Gap=     0.105 Goal=   None    Shift=    0.500
 GapD=    0.105 DampG=1.000 DampE=1.000 DampFc=1.0000 IDamp=-1.
 RMSDP=4.55D-05 MaxDP=5.22D-03 DE=-5.72D-04 OVMax= 1.73D-02

 Cycle  13  Pass 1  IDiag  1:
 E= -2593.71319271773     Delta-E=       -0.000392682055 Rises=F Damp=F
 DIIS: error= 1.21D-03 at cycle  13 NSaved=  13.
 NSaved=13 IEnMin=13 EnMin= -2593.71319271773     IErMin=13 ErrMin= 1.21D-03
 ErrMax= 1.21D-03  0.00D+00 EMaxC= 1.00D+00 BMatC= 1.45D-04 BMatP= 2.02D-04
 IDIUse=1 WtCom= 1.00D+00 WtEn= 0.00D+00
 Coeff-Com: -0.215D-02-0.122D-01 0.103D+00 0.109D-02-0.412D+00-0.260D+00
 Coeff-Com:  0.116D+01-0.136D+00-0.672D+00-0.295D+00 0.353D+00-0.167D+01
 Coeff-Com:  0.283D+01
 Coeff:     -0.215D-02-0.122D-01 0.103D+00 0.109D-02-0.412D+00-0.260D+00
 Coeff:      0.116D+01-0.136D+00-0.672D+00-0.295D+00 0.353D+00-0.167D+01
 Coeff:      0.283D+01
 Gap=     0.226 Goal=   None    Shift=    0.500
 Gap=     0.105 Goal=   None    Shift=    0.500
 GapD=    0.105 DampG=1.000 DampE=1.000 DampFc=1.0000 IDamp=-1.
 RMSDP=4.96D-05 MaxDP=6.47D-03 DE=-3.93D-04 OVMax= 1.70D-02

 Cycle  14  Pass 1  IDiag  1:
 E= -2593.71350378970     Delta-E=       -0.000311071966 Rises=F Damp=F
 DIIS: error= 1.26D-03 at cycle  14 NSaved=  14.
 NSaved=14 IEnMin=14 EnMin= -2593.71350378970     IErMin=13 ErrMin= 1.21D-03
 ErrMax= 1.26D-03  0.00D+00 EMaxC= 1.00D+00 BMatC= 1.35D-04 BMatP= 1.45D-04
 IDIUse=1 WtCom= 1.00D+00 WtEn= 0.00D+00
 Coeff-Com:  0.907D-02 0.115D-01-0.955D-01-0.219D+00 0.834D+00 0.279D+00
 Coeff-Com: -0.822D+00-0.111D+01 0.141D+01 0.148D+01-0.174D+01-0.398D+01
 Coeff-Com:  0.310D+01 0.184D+01
 Coeff:      0.907D-02 0.115D-01-0.955D-01-0.219D+00 0.834D+00 0.279D+00
 Coeff:     -0.822D+00-0.111D+01 0.141D+01 0.148D+01-0.174D+01-0.398D+01
 Coeff:      0.310D+01 0.184D+01
 Gap=     0.225 Goal=   None    Shift=    0.500
 Gap=     0.106 Goal=   None    Shift=    0.500
 GapD=    0.106 DampG=1.000 DampE=1.000 DampFc=1.0000 IDamp=-1.
 RMSDP=5.56D-05 MaxDP=7.97D-03 DE=-3.11D-04 OVMax= 1.87D-02

 Cycle  15  Pass 1  IDiag  1:
 E= -2593.71378819739     Delta-E=       -0.000284407695 Rises=F Damp=F
 DIIS: error= 1.29D-03 at cycle  15 NSaved=  15.
 NSaved=15 IEnMin=15 EnMin= -2593.71378819739     IErMin=13 ErrMin= 1.21D-03
 ErrMax= 1.29D-03  0.00D+00 EMaxC= 1.00D+00 BMatC= 1.37D-04 BMatP= 1.35D-04
 IDIUse=1 WtCom= 1.00D+00 WtEn= 0.00D+00
 Coeff-Com:  0.461D-02 0.258D-01-0.132D+00-0.217D+00 0.105D+01-0.135D+00
 Coeff-Com: -0.547D+00-0.103D+01 0.115D+01 0.172D+01-0.158D+01-0.417D+01
 Coeff-Com:  0.325D+01 0.471D+00 0.113D+01
 Coeff:      0.461D-02 0.258D-01-0.132D+00-0.217D+00 0.105D+01-0.135D+00
 Coeff:     -0.547D+00-0.103D+01 0.115D+01 0.172D+01-0.158D+01-0.417D+01
 Coeff:      0.325D+01 0.471D+00 0.113D+01
 Gap=     0.225 Goal=   None    Shift=    0.500
 Gap=     0.107 Goal=   None    Shift=    0.500
 GapD=    0.107 DampG=1.000 DampE=1.000 DampFc=1.0000 IDamp=-1.
 RMSDP=4.28D-05 MaxDP=5.23D-03 DE=-2.84D-04 OVMax= 1.70D-02

 Cycle  16  Pass 1  IDiag  1:
 E= -2593.71402063864     Delta-E=       -0.000232441253 Rises=F Damp=F
 DIIS: error= 1.26D-03 at cycle  16 NSaved=  16.
 NSaved=16 IEnMin=16 EnMin= -2593.71402063864     IErMin=13 ErrMin= 1.21D-03
 ErrMax= 1.26D-03  0.00D+00 EMaxC= 1.00D+00 BMatC= 1.18D-04 BMatP= 1.35D-04
 IDIUse=1 WtCom= 1.00D+00 WtEn= 0.00D+00
 Coeff-Com: -0.124D-01 0.466D-01-0.723D-01-0.106D+00 0.260D+00-0.231D-01
 Coeff-Com:  0.386D+00-0.366D+00-0.538D+00 0.856D+00 0.349D+00-0.149D+01
 Coeff-Com:  0.131D+01-0.121D+01-0.330D+01 0.491D+01
 Coeff:     -0.124D-01 0.466D-01-0.723D-01-0.106D+00 0.260D+00-0.231D-01
 Coeff:      0.386D+00-0.366D+00-0.538D+00 0.856D+00 0.349D+00-0.149D+01
 Coeff:      0.131D+01-0.121D+01-0.330D+01 0.491D+01
 Gap=     0.225 Goal=   None    Shift=    0.500
 Gap=     0.107 Goal=   None    Shift=    0.500
 GapD=    0.107 DampG=1.000 DampE=1.000 DampFc=1.0000 IDamp=-1.
 RMSDP=6.27D-05 MaxDP=9.70D-03 DE=-2.32D-04 OVMax= 1.97D-02

 Cycle  17  Pass 1  IDiag  1:
 E= -2593.71424866743     Delta-E=       -0.000228028783 Rises=F Damp=F
 DIIS: error= 1.34D-03 at cycle  17 NSaved=  17.
 NSaved=17 IEnMin=17 EnMin= -2593.71424866743     IErMin=13 ErrMin= 1.21D-03
 ErrMax= 1.34D-03  0.00D+00 EMaxC= 1.00D+00 BMatC= 1.64D-04 BMatP= 1.18D-04
 IDIUse=1 WtCom= 1.00D+00 WtEn= 0.00D+00
 Coeff-Com: -0.142D-01 0.437D-01-0.474D-01-0.894D-01 0.168D+00-0.187D+00
 Coeff-Com:  0.695D+00-0.267D+00-0.807D+00 0.585D+00 0.752D+00-0.109D+01
 Coeff-Com:  0.116D+01-0.134D+01-0.404D+01 0.515D+01 0.316D+00
 Coeff:     -0.142D-01 0.437D-01-0.474D-01-0.894D-01 0.168D+00-0.187D+00
 Coeff:      0.695D+00-0.267D+00-0.807D+00 0.585D+00 0.752D+00-0.109D+01
 Coeff:      0.116D+01-0.134D+01-0.404D+01 0.515D+01 0.316D+00
 Gap=     0.225 Goal=   None    Shift=    0.500
 Gap=     0.108 Goal=   None    Shift=    0.500
 GapD=    0.108 DampG=1.000 DampE=1.000 DampFc=1.0000 IDamp=-1.
 RMSDP=4.01D-05 MaxDP=4.68D-03 DE=-2.28D-04 OVMax= 1.66D-02

 Cycle  18  Pass 1  IDiag  1:
 E= -2593.71443707827     Delta-E=       -0.000188410842 Rises=F Damp=F
 DIIS: error= 1.28D-03 at cycle  18 NSaved=  18.
 NSaved=18 IEnMin=18 EnMin= -2593.71443707827     IErMin=13 ErrMin= 1.21D-03
 ErrMax= 1.28D-03  0.00D+00 EMaxC= 1.00D+00 BMatC= 1.34D-04 BMatP= 1.18D-04
 IDIUse=1 WtCom= 1.00D+00 WtEn= 0.00D+00
 Coeff-Com: -0.136D-01 0.331D-01 0.164D-01-0.575D-01-0.339D+00 0.384D+00
 Coeff-Com:  0.609D+00-0.282D+00-0.804D+00 0.120D+00 0.867D+00 0.242D+00
 Coeff-Com: -0.264D+00 0.500D-01-0.355D+01 0.326D+01-0.374D+01 0.447D+01
 Coeff:     -0.136D-01 0.331D-01 0.164D-01-0.575D-01-0.339D+00 0.384D+00
 Coeff:      0.609D+00-0.282D+00-0.804D+00 0.120D+00 0.867D+00 0.242D+00
 Coeff:     -0.264D+00 0.500D-01-0.355D+01 0.326D+01-0.374D+01 0.447D+01
 Gap=     0.224 Goal=   None    Shift=    0.500
 Gap=     0.109 Goal=   None    Shift=    0.500
 GapD=    0.109 DampG=1.000 DampE=1.000 DampFc=1.0000 IDamp=-1.
 RMSDP=6.46D-05 MaxDP=1.01D-02 DE=-1.88D-04 OVMax= 1.96D-02

 Cycle  19  Pass 1  IDiag  1:
 E= -2593.71461451953     Delta-E=       -0.000177441260 Rises=F Damp=F
 DIIS: error= 1.36D-03 at cycle  19 NSaved=  19.
 NSaved=19 IEnMin=19 EnMin= -2593.71461451953     IErMin=13 ErrMin= 1.21D-03
 ErrMax= 1.36D-03  0.00D+00 EMaxC= 1.00D+00 BMatC= 2.18D-04 BMatP= 1.18D-04
 IDIUse=1 WtCom= 1.00D+00 WtEn= 0.00D+00
 Coeff-Com: -0.978D-02 0.268D-01 0.100D-01-0.763D-01-0.124D+00 0.163D+00
 Coeff-Com:  0.589D+00-0.483D+00-0.380D+00 0.266D+00 0.357D+00-0.378D+00
 Coeff-Com:  0.245D+00 0.520D+00-0.114D+01 0.114D+01-0.625D+01 0.565D+01
 Coeff-Com:  0.876D+00
 Coeff:     -0.978D-02 0.268D-01 0.100D-01-0.763D-01-0.124D+00 0.163D+00
 Coeff:      0.589D+00-0.483D+00-0.380D+00 0.266D+00 0.357D+00-0.378D+00
 Coeff:      0.245D+00 0.520D+00-0.114D+01 0.114D+01-0.625D+01 0.565D+01
 Coeff:      0.876D+00
 Gap=     0.224 Goal=   None    Shift=    0.500
 Gap=     0.109 Goal=   None    Shift=    0.500
 GapD=    0.109 DampG=1.000 DampE=1.000 DampFc=1.0000 IDamp=-1.
 RMSDP=4.94D-05 MaxDP=6.81D-03 DE=-1.77D-04 OVMax= 1.79D-02

 Cycle  20  Pass 1  IDiag  1:
 E= -2593.71477495330     Delta-E=       -0.000160433773 Rises=F Damp=F
 DIIS: error= 1.33D-03 at cycle  20 NSaved=  20.
 NSaved=20 IEnMin=20 EnMin= -2593.71477495330     IErMin=13 ErrMin= 1.21D-03
 ErrMax= 1.33D-03  0.00D+00 EMaxC= 1.00D+00 BMatC= 2.26D-04 BMatP= 1.18D-04
 IDIUse=1 WtCom= 1.00D+00 WtEn= 0.00D+00
 Coeff-Com: -0.899D-02 0.290D-01-0.680D-02-0.107D+00 0.559D-01 0.712D-01
 Coeff-Com:  0.476D+00-0.535D+00-0.198D+00 0.448D+00 0.662D-01-0.802D+00
 Coeff-Com:  0.672D+00 0.426D+00-0.449D+00 0.732D+00-0.598D+01 0.527D+01
 Coeff-Com: -0.913D-01 0.933D+00
 Coeff:     -0.899D-02 0.290D-01-0.680D-02-0.107D+00 0.559D-01 0.712D-01
 Coeff:      0.476D+00-0.535D+00-0.198D+00 0.448D+00 0.662D-01-0.802D+00
 Coeff:      0.672D+00 0.426D+00-0.449D+00 0.732D+00-0.598D+01 0.527D+01
 Coeff:     -0.913D-01 0.933D+00
 Gap=     0.224 Goal=   None    Shift=    0.500
 Gap=     0.110 Goal=   None    Shift=    0.500
 GapD=    0.110 DampG=1.000 DampE=1.000 DampFc=1.0000 IDamp=-1.
 RMSDP=3.49D-05 MaxDP=3.79D-03 DE=-1.60D-04 OVMax= 1.53D-02

 Cycle  21  Pass 1  IDiag  1:
 E= -2593.71491651216     Delta-E=       -0.000141558861 Rises=F Damp=F
 DIIS: error= 1.24D-03 at cycle  21 NSaved=  20.
 NSaved=20 IEnMin=20 EnMin= -2593.71491651216     IErMin=12 ErrMin= 1.21D-03
 ErrMax= 1.24D-03  0.00D+00 EMaxC= 1.00D+00 BMatC= 1.70D-04 BMatP= 1.18D-04
 IDIUse=1 WtCom= 1.00D+00 WtEn= 0.00D+00
 Large coefficients: NSaved= 20 BigCof=   10.21 CofMax=   10.00 Det=-8.00D-08
 Inversion failed.  Reducing to 19 matrices.
 Large coefficients: NSaved= 19 BigCof=   10.18 CofMax=   10.00 Det=-8.02D-08
 Inversion failed.  Reducing to 18 matrices.
 Coeff-Com:  0.410D-01-0.265D+00 0.598D+00-0.494D+00 0.207D+00-0.225D+00
 Coeff-Com:  0.564D+00-0.509D+00-0.148D-01-0.224D-01-0.972D-01-0.534D+00
 Coeff-Com:  0.653D-02 0.501D+01-0.370D+01-0.625D+00-0.888D+01 0.995D+01
 Coeff:      0.410D-01-0.265D+00 0.598D+00-0.494D+00 0.207D+00-0.225D+00
 Coeff:      0.564D+00-0.509D+00-0.148D-01-0.224D-01-0.972D-01-0.534D+00
 Coeff:      0.653D-02 0.501D+01-0.370D+01-0.625D+00-0.888D+01 0.995D+01
 Gap=     0.223 Goal=   None    Shift=    0.500
 Gap=     0.110 Goal=   None    Shift=    0.500
 GapD=    0.110 DampG=1.000 DampE=1.000 DampFc=1.0000 IDamp=-1.
 RMSDP=8.24D-05 MaxDP=1.37D-02 DE=-1.42D-04 OVMax= 2.07D-02

 Cycle  22  Pass 1  IDiag  1:
 E= -2593.71501091166     Delta-E=       -0.000094399500 Rises=F Damp=F
 DIIS: error= 1.43D-03 at cycle  22 NSaved=  19.
 NSaved=19 IEnMin=19 EnMin= -2593.71501091166     IErMin=10 ErrMin= 1.21D-03
 ErrMax= 1.43D-03  0.00D+00 EMaxC= 1.00D+00 BMatC= 4.19D-04 BMatP= 1.18D-04
 IDIUse=1 WtCom= 1.00D+00 WtEn= 0.00D+00
 Large coefficients: NSaved= 19 BigCof=   11.92 CofMax=   10.00 Det=-7.84D-08
 Inversion failed.  Reducing to 18 matrices.
 Large coefficients: NSaved= 18 BigCof=   11.91 CofMax=   10.00 Det=-7.84D-08
 Inversion failed.  Reducing to 17 matrices.
 Large coefficients: NSaved= 17 BigCof=   11.50 CofMax=   10.00 Det=-7.99D-08
 Inversion failed.  Reducing to 16 matrices.
 Large coefficients: NSaved= 16 BigCof=   11.35 CofMax=   10.00 Det=-8.01D-08
 Inversion failed.  Reducing to 15 matrices.
 Large coefficients: NSaved= 15 BigCof=   11.18 CofMax=   10.00 Det=-8.60D-08
 Inversion failed.  Reducing to 14 matrices.
 Large coefficients: NSaved= 14 BigCof=   10.74 CofMax=   10.00 Det=-8.76D-08
 Inversion failed.  Reducing to 13 matrices.
 Large coefficients: NSaved= 13 BigCof=   10.70 CofMax=   10.00 Det=-9.01D-08
 Inversion failed.  Reducing to 12 matrices.
 Large coefficients: NSaved= 12 BigCof=   10.49 CofMax=   10.00 Det=-9.28D-08
 Inversion failed.  Reducing to 11 matrices.
 Large coefficients: NSaved= 11 BigCof=   10.48 CofMax=   10.00 Det=-9.28D-08
 Inversion failed.  Reducing to 10 matrices.
 Large coefficients: NSaved= 10 BigCof=   10.33 CofMax=   10.00 Det=-9.47D-08
 Inversion failed.  Reducing to  9 matrices.
 Large coefficients: NSaved=  9 BigCof=   10.45 CofMax=   10.00 Det=-9.93D-08
 Inversion failed.  Reducing to  8 matrices.
 Large coefficients: NSaved=  8 BigCof=   10.46 CofMax=   10.00 Det=-1.12D-07
 Inversion failed.  Reducing to  7 matrices.
 Coeff-Com: -0.324D+00 0.236D+01-0.166D+01 0.445D+00-0.958D+01 0.916D+01
 Coeff-Com:  0.596D+00
 Coeff:     -0.324D+00 0.236D+01-0.166D+01 0.445D+00-0.958D+01 0.916D+01
 Coeff:      0.596D+00
 Gap=     0.222 Goal=   None    Shift=    0.500
 Gap=     0.111 Goal=   None    Shift=    0.500
 GapD=    0.111 DampG=1.000 DampE=1.000 DampFc=1.0000 IDamp=-1.
 RMSDP=5.25D-05 MaxDP=7.23D-03 DE=-9.44D-05 OVMax= 1.81D-02

 Cycle  23  Pass 1  IDiag  1:
 E= -2593.71512212927     Delta-E=       -0.000111217611 Rises=F Damp=F
 DIIS: error= 1.41D-03 at cycle  23 NSaved=   8.
 NSaved= 8 IEnMin= 8 EnMin= -2593.71512212927     IErMin= 6 ErrMin= 1.24D-03
 ErrMax= 1.41D-03  0.00D+00 EMaxC= 1.00D+00 BMatC= 4.56D-04 BMatP= 1.18D-04
 IDIUse=1 WtCom= 1.00D+00 WtEn= 0.00D+00
 Large coefficients: NSaved=  8 BigCof=   10.65 CofMax=   10.00 Det=-1.15D-07
 Inversion failed.  Reducing to  7 matrices.
 Coeff-Com:  0.161D+01-0.120D+01 0.104D+01-0.994D+01 0.878D+01 0.347D-01
 Coeff-Com:  0.679D+00
 Coeff:      0.161D+01-0.120D+01 0.104D+01-0.994D+01 0.878D+01 0.347D-01
 Coeff:      0.679D+00
 Gap=     0.223 Goal=   None    Shift=    0.500
 Gap=     0.111 Goal=   None    Shift=    0.500
 GapD=    0.111 DampG=1.000 DampE=1.000 DampFc=1.0000 IDamp=-1.
 RMSDP=3.22D-05 MaxDP=3.48D-03 DE=-1.11D-04 OVMax= 1.46D-02

 Cycle  24  Pass 1  IDiag  1:
 E= -2593.71524116787     Delta-E=       -0.000119038599 Rises=F Damp=F
 DIIS: error= 1.27D-03 at cycle  24 NSaved=   8.
 NSaved= 8 IEnMin= 8 EnMin= -2593.71524116787     IErMin= 5 ErrMin= 1.24D-03
 ErrMax= 1.27D-03  0.00D+00 EMaxC= 1.00D+00 BMatC= 3.39D-04 BMatP= 1.34D-04
 IDIUse=1 WtCom= 1.00D+00 WtEn= 0.00D+00
 Coeff-Com:  0.108D+01-0.852D+00 0.186D+01-0.869D+01 0.676D+01-0.736D-01
 Coeff-Com: -0.746D+00 0.165D+01
 Coeff:      0.108D+01-0.852D+00 0.186D+01-0.869D+01 0.676D+01-0.736D-01
 Coeff:     -0.746D+00 0.165D+01
 Gap=     0.222 Goal=   None    Shift=    0.500
 Gap=     0.111 Goal=   None    Shift=    0.500
 GapD=    0.111 DampG=1.000 DampE=1.000 DampFc=1.0000 IDamp=-1.
 RMSDP=2.47D-05 MaxDP=2.74D-03 DE=-1.19D-04 OVMax= 1.22D-02

 Cycle  25  Pass 1  IDiag  1:
 E= -2593.71533892539     Delta-E=       -0.000097757514 Rises=F Damp=F
 DIIS: error= 1.13D-03 at cycle  25 NSaved=   9.
 NSaved= 9 IEnMin= 9 EnMin= -2593.71533892539     IErMin= 9 ErrMin= 1.13D-03
 ErrMax= 1.13D-03  0.00D+00 EMaxC= 1.00D+00 BMatC= 2.30D-04 BMatP= 1.34D-04
 IDIUse=1 WtCom= 1.00D+00 WtEn= 0.00D+00
 Coeff-Com: -0.207D+01 0.141D+01 0.303D+01 0.221D+01-0.488D+01 0.138D+00
 Coeff-Com: -0.429D+01 0.676D+00 0.478D+01
 Coeff:     -0.207D+01 0.141D+01 0.303D+01 0.221D+01-0.488D+01 0.138D+00
 Coeff:     -0.429D+01 0.676D+00 0.478D+01
 Gap=     0.222 Goal=   None    Shift=    0.500
 Gap=     0.111 Goal=   None    Shift=    0.500
 GapD=    0.111 DampG=1.000 DampE=1.000 DampFc=1.0000 IDamp=-1.
 RMSDP=4.28D-05 MaxDP=6.51D-03 DE=-9.78D-05 OVMax= 1.34D-02

 Cycle  26  Pass 1  IDiag  1:
 E= -2593.71539741495     Delta-E=       -0.000058489559 Rises=F Damp=F
 DIIS: error= 1.12D-03 at cycle  26 NSaved=  10.
 NSaved=10 IEnMin=10 EnMin= -2593.71539741495     IErMin=10 ErrMin= 1.12D-03
 ErrMax= 1.12D-03  0.00D+00 EMaxC= 1.00D+00 BMatC= 2.83D-04 BMatP= 1.34D-04
 IDIUse=1 WtCom= 1.00D+00 WtEn= 0.00D+00
 Coeff-Com: -0.230D+01 0.175D+01 0.233D+01 0.343D+01-0.533D+01-0.139D+00
 Coeff-Com: -0.403D+01 0.807D-01 0.435D+01 0.854D+00
 Coeff:     -0.230D+01 0.175D+01 0.233D+01 0.343D+01-0.533D+01-0.139D+00
 Coeff:     -0.403D+01 0.807D-01 0.435D+01 0.854D+00
 Gap=     0.222 Goal=   None    Shift=    0.500
 Gap=     0.112 Goal=   None    Shift=    0.500
 GapD=    0.112 DampG=1.000 DampE=1.000 DampFc=1.0000 IDamp=-1.
 RMSDP=3.93D-05 MaxDP=5.66D-03 DE=-5.85D-05 OVMax= 1.30D-02

 Cycle  27  Pass 1  IDiag  1:
 E= -2593.71545322281     Delta-E=       -0.000055807861 Rises=F Damp=F
 DIIS: error= 1.09D-03 at cycle  27 NSaved=  11.
 NSaved=11 IEnMin=11 EnMin= -2593.71545322281     IErMin=11 ErrMin= 1.09D-03
 ErrMax= 1.09D-03  0.00D+00 EMaxC= 1.00D+00 BMatC= 3.03D-04 BMatP= 1.34D-04
 IDIUse=1 WtCom= 1.00D+00 WtEn= 0.00D+00
 Coeff-Com: -0.179D+01 0.150D+01 0.171D+01 0.194D+01-0.310D+01-0.397D+00
 Coeff-Com: -0.298D+01-0.287D+00 0.356D+01-0.105D+01 0.188D+01
 Coeff:     -0.179D+01 0.150D+01 0.171D+01 0.194D+01-0.310D+01-0.397D+00
 Coeff:     -0.298D+01-0.287D+00 0.356D+01-0.105D+01 0.188D+01
 Gap=     0.222 Goal=   None    Shift=    0.500
 Gap=     0.112 Goal=   None    Shift=    0.500
 GapD=    0.112 DampG=1.000 DampE=1.000 DampFc=1.0000 IDamp=-1.
 RMSDP=3.20D-05 MaxDP=4.25D-03 DE=-5.58D-05 OVMax= 1.17D-02

 Cycle  28  Pass 1  IDiag  1:
 E= -2593.71550926797     Delta-E=       -0.000056045161 Rises=F Damp=F
 DIIS: error= 1.02D-03 at cycle  28 NSaved=  12.
 NSaved=12 IEnMin=12 EnMin= -2593.71550926797     IErMin=12 ErrMin= 1.02D-03
 ErrMax= 1.02D-03  0.00D+00 EMaxC= 1.00D+00 BMatC= 2.78D-04 BMatP= 1.34D-04
 IDIUse=1 WtCom= 1.00D+00 WtEn= 0.00D+00
 Coeff-Com: -0.818D+00 0.595D+00 0.152D+01-0.100D+01 0.113D+00 0.828D-01
 Coeff-Com: -0.185D+01-0.539D+00 0.260D+01-0.182D+01-0.980D+00 0.311D+01
 Coeff:     -0.818D+00 0.595D+00 0.152D+01-0.100D+01 0.113D+00 0.828D-01
 Coeff:     -0.185D+01-0.539D+00 0.260D+01-0.182D+01-0.980D+00 0.311D+01
 Gap=     0.222 Goal=   None    Shift=    0.500
 Gap=     0.112 Goal=   None    Shift=    0.500
 GapD=    0.112 DampG=1.000 DampE=1.000 DampFc=1.0000 IDamp=-1.
 RMSDP=2.75D-05 MaxDP=3.58D-03 DE=-5.60D-05 OVMax= 1.05D-02

 Cycle  29  Pass 1  IDiag  1:
 E= -2593.71555834998     Delta-E=       -0.000049082015 Rises=F Damp=F
 DIIS: error= 9.42D-04 at cycle  29 NSaved=  13.
 NSaved=13 IEnMin=13 EnMin= -2593.71555834998     IErMin=13 ErrMin= 9.42D-04
 ErrMax= 9.42D-04  0.00D+00 EMaxC= 1.00D+00 BMatC= 2.44D-04 BMatP= 1.34D-04
 IDIUse=1 WtCom= 1.00D+00 WtEn= 0.00D+00
 Coeff-Com:  0.250D+00-0.805D+00 0.126D+01-0.164D+01 0.905D+00 0.120D+01
 Coeff-Com: -0.189D+01-0.371D+00 0.220D+01 0.109D+01-0.649D+01 0.184D+01
 Coeff-Com:  0.345D+01
 Coeff:      0.250D+00-0.805D+00 0.126D+01-0.164D+01 0.905D+00 0.120D+01
 Coeff:     -0.189D+01-0.371D+00 0.220D+01 0.109D+01-0.649D+01 0.184D+01
 Coeff:      0.345D+01
 Gap=     0.221 Goal=   None    Shift=    0.500
 Gap=     0.113 Goal=   None    Shift=    0.500
 RMSDP=2.82D-05 MaxDP=3.78D-03 DE=-4.91D-05 OVMax= 9.88D-03

 Cycle  30  Pass 1  IDiag  1:
 E= -2593.71559375058     Delta-E=       -0.000035400602 Rises=F Damp=F
 DIIS: error= 8.90D-04 at cycle  30 NSaved=  14.
 NSaved=14 IEnMin=14 EnMin= -2593.71559375058     IErMin=14 ErrMin= 8.90D-04
 ErrMax= 8.90D-04  0.00D+00 EMaxC= 1.00D+00 BMatC= 2.37D-04 BMatP= 1.34D-04
 IDIUse=1 WtCom= 1.00D+00 WtEn= 0.00D+00
 Coeff-Com: -0.220D+00-0.485D+00 0.148D+01 0.647D-01-0.102D+01 0.113D+01
 Coeff-Com: -0.269D+01 0.158D+00 0.264D+01 0.207D+01-0.605D+01-0.172D+00
 Coeff-Com:  0.283D+01 0.127D+01
 Coeff:     -0.220D+00-0.485D+00 0.148D+01 0.647D-01-0.102D+01 0.113D+01
 Coeff:     -0.269D+01 0.158D+00 0.264D+01 0.207D+01-0.605D+01-0.172D+00
 Coeff:      0.283D+01 0.127D+01
 Gap=     0.221 Goal=   None    Shift=    0.500
 Gap=     0.113 Goal=   None    Shift=    0.500
 RMSDP=1.96D-05 MaxDP=1.99D-03 DE=-3.54D-05 OVMax= 8.28D-03

 Cycle  31  Pass 1  IDiag  1:
 E= -2593.71563212508     Delta-E=       -0.000038374492 Rises=F Damp=F
 DIIS: error= 7.94D-04 at cycle  31 NSaved=  15.
 NSaved=15 IEnMin=15 EnMin= -2593.71563212508     IErMin=15 ErrMin= 7.94D-04
 ErrMax= 7.94D-04  0.00D+00 EMaxC= 1.00D+00 BMatC= 1.86D-04 BMatP= 1.34D-04
 IDIUse=1 WtCom= 1.00D+00 WtEn= 0.00D+00
 Coeff-Com: -0.128D+01 0.690D+00 0.165D+01 0.276D+01-0.414D+01 0.256D+00
 Coeff-Com: -0.266D+01 0.466D+00 0.254D+01 0.188D+01-0.114D+01-0.195D+01
 Coeff-Com:  0.383D+00-0.320D+01 0.476D+01
 Coeff:     -0.128D+01 0.690D+00 0.165D+01 0.276D+01-0.414D+01 0.256D+00
 Coeff:     -0.266D+01 0.466D+00 0.254D+01 0.188D+01-0.114D+01-0.195D+01
 Coeff:      0.383D+00-0.320D+01 0.476D+01
 Gap=     0.221 Goal=   None    Shift=    0.500
 Gap=     0.113 Goal=   None    Shift=    0.500
 RMSDP=2.02D-05 MaxDP=2.27D-03 DE=-3.84D-05 OVMax= 7.70D-03

 Cycle  32  Pass 1  IDiag  1:
 E= -2593.71565876671     Delta-E=       -0.000026641638 Rises=F Damp=F
 DIIS: error= 7.27D-04 at cycle  32 NSaved=  16.
 NSaved=16 IEnMin=16 EnMin= -2593.71565876671     IErMin=16 ErrMin= 7.27D-04
 ErrMax= 7.27D-04  0.00D+00 EMaxC= 1.00D+00 BMatC= 1.65D-04 BMatP= 1.34D-04
 IDIUse=1 WtCom= 1.00D+00 WtEn= 0.00D+00
 Coeff-Com: -0.123D+01 0.101D+01 0.135D+01 0.151D+01-0.281D+01-0.219D+00
 Coeff-Com: -0.161D+01 0.193D+00 0.181D+01 0.867D+00 0.923D+00-0.141D+01
 Coeff-Com: -0.431D+00-0.392D+01 0.277D+01 0.221D+01
 Coeff:     -0.123D+01 0.101D+01 0.135D+01 0.151D+01-0.281D+01-0.219D+00
 Coeff:     -0.161D+01 0.193D+00 0.181D+01 0.867D+00 0.923D+00-0.141D+01
 Coeff:     -0.431D+00-0.392D+01 0.277D+01 0.221D+01
 Gap=     0.221 Goal=   None    Shift=    0.500
 Gap=     0.113 Goal=   None    Shift=    0.500
 RMSDP=1.90D-05 MaxDP=2.17D-03 DE=-2.66D-05 OVMax= 7.06D-03

 >>>>>>>>>> Convergence criterion not met.
 SCF Done:  E(ULC-wHPBE) =  -2593.71565877     A.U. after   33 cycles
            NFock= 32  Conv=0.19D-04     -V/T= 2.0037
 <Sx>= 0.0000 <Sy>= 0.0000 <Sz>= 0.5000 <S**2>= 0.7612 S= 0.5056
 <L.S>= 0.000000000000E+00
 KE= 2.584071794323D+03 PE=-1.660472271215D+04 EE= 6.149211593779D+03
 Annihilation of the first spin contaminant:
 S**2 before annihilation     0.7612,   after     0.7501
 Leave Link  502 at Fri Jan 22 02:21:39 2021, MaxMem=  4026531840 cpu:           32664.8 elap:            4570.2
 (Enter /opt/ohpc/pub/libs/gaussian/g16-A.03/sandybridge/g16/l508.exe)
 Integral symmetry usage will be decided dynamically.
 Tight linear equation convergence will be used.
 ULC-wHPBE wavefunction.
 Quadratic Convergence SCF Method.
 Line search only if initial step raises energy.
 FoFJK:  IHMeth= 1 ICntrl=       0 DoSepK=T KAlg= 0 I1Cent=           0 FoldK=F
 IRaf=         1 NMat=       1 IRICut=       1 DoRegI=T DoRafI=F ISym2E= 1 IDoP0=0 IntGTp=1.
 FoFCou: FMM=T IPFlag=           0 FMFlag=      100000 FMFlg1=        2001
         NFxFlg=           0 DoJE=T BraDBF=F KetDBF=F FulRan=T
         wScrn=  0.000000 ICntrl=       500 IOpCl=  0 I1Cent=           0 NGrid=           0
         NMat0=    1 NMatS0=      1 NMatT0=    0 NMatD0=    1 NMtDS0=    0 NMtDT0=    0
 Petite list used in FoFCou.
 FMM levels:  10  Number of levels for PrismC:   9
 Iteration   1 EE= -2593.71567983844                                    Grad=8.644D-03 Max rot=    0.1547 deg.
 QCNR:  CnvC1=8.64D-08 CnvC2=8.64D-07
 LinEq1:  Iter=  0 NonCon=     1 RMS=5.61D-05 Max=2.22D-02 NDo=     1
 AX will form     1 AO Fock derivatives at one time.
 LinEq1:  Iter=  1 NonCon=     1 RMS=3.38D-05 Max=5.97D-03 NDo=     1
 LinEq1:  Iter=  2 NonCon=     1 RMS=2.36D-05 Max=2.94D-03 NDo=     1
 LinEq1:  Iter=  3 NonCon=     1 RMS=1.59D-05 Max=1.65D-03 NDo=     1
 LinEq1:  Iter=  4 NonCon=     1 RMS=1.16D-05 Max=1.23D-03 NDo=     1
 LinEq1:  Iter=  5 NonCon=     1 RMS=7.65D-06 Max=8.77D-04 NDo=     1
 LinEq1:  Iter=  6 NonCon=     1 RMS=4.24D-06 Max=3.82D-04 NDo=     1
 LinEq1:  Iter=  7 NonCon=     1 RMS=2.83D-06 Max=4.14D-04 NDo=     1
 LinEq1:  Iter=  8 NonCon=     1 RMS=1.60D-06 Max=2.35D-04 NDo=     1
 LinEq1:  Iter=  9 NonCon=     1 RMS=1.20D-06 Max=2.17D-04 NDo=     1
 LinEq1:  Iter= 10 NonCon=     1 RMS=8.62D-07 Max=1.13D-04 NDo=     1
 LinEq1:  Iter= 11 NonCon=     1 RMS=6.63D-07 Max=6.87D-05 NDo=     1
 LinEq1:  Iter= 12 NonCon=     1 RMS=3.54D-07 Max=2.64D-05 NDo=     1
 LinEq1:  Iter= 13 NonCon=     1 RMS=2.15D-07 Max=1.87D-05 NDo=     1
 LinEq1:  Iter= 14 NonCon=     1 RMS=1.31D-07 Max=1.22D-05 NDo=     1
 LinEq1:  Iter= 15 NonCon=     1 RMS=7.35D-08 Max=7.48D-06 NDo=     1
 LinEq1:  Iter= 16 NonCon=     1 RMS=4.38D-08 Max=4.46D-06 NDo=     1
 LinEq1:  Iter= 17 NonCon=     1 RMS=2.57D-08 Max=2.16D-06 NDo=     1
 LinEq1:  Iter= 18 NonCon=     1 RMS=1.41D-08 Max=1.26D-06 NDo=     1
 LinEq1:  Iter= 19 NonCon=     0 RMS=8.68D-09 Max=6.17D-07 NDo=     1
 Linear equations converged to 8.644D-08 8.644D-07 after    19 iterations.
 Angle between quadratic step and gradient=  78.88 degrees.
     ILin= 1 X=0.000D+00 Y=-2.593715679838D+03 DE= 0.00D+00 F= -2.04D-04
     ILin= 2 X=1.000D+00 Y=-2.593715781675D+03 DE=-1.02D-04
 Iteration   2 EE= -2593.71578167546     Delta-E=       -0.000101837023 Grad=2.248D-04 Max rot=    0.0015 deg.
 Rotation gradient small -- convergence achieved.
 SCF Done:  E(ULC-wHPBE) =  -2593.71578168     a.u. after    2 cycles
            Convg  =    0.2248D-03                    21 Fock formations.
              S**2 =  0.7606                  -V/T =  2.0037
 <Sx>= 0.0000 <Sy>= 0.0000 <Sz>= 0.5000 <S**2>= 0.7606 S= 0.5053
 <L.S>= 0.000000000000E+00
 Annihilation of the first spin contaminant:
 S**2 before annihilation     0.7606,   after     0.7501
 Leave Link  508 at Fri Jan 22 02:59:21 2021, MaxMem=  4026531840 cpu:           17763.4 elap:            2262.0
 (Enter /opt/ohpc/pub/libs/gaussian/g16-A.03/sandybridge/g16/l601.exe)
 Copying SCF densities to generalized density rwf, IOpCl= 1 IROHF=0.

 **********************************************************************

            Population analysis using the SCF density.

 **********************************************************************

 Orbital symmetries:
 Alpha Orbitals:
       Occupied  (A) (A) (A) (A) (A) (A) (A) (A) (A) (A) (A) (A)
                 (A) (A) (A) (A) (A) (A) (A) (A) (A) (A) (A) (A)
                 (A) (A) (A) (A) (A) (A) (A) (A) (A) (A) (A) (A)
                 (A) (A) (A) (A) (A) (A) (A) (A) (A) (A) (A) (A)
                 (A) (A) (A) (A) (A) (A) (A) (A) (A) (A) (A) (A)
                 (A) (A) (A) (A) (A) (A) (A) (A) (A) (A) (A) (A)
                 (A) (A) (A) (A) (A) (A) (A) (A) (A) (A) (A) (A)
                 (A) (A) (A) (A) (A) (A) (A) (A) (A) (A) (A) (A)
                 (A) (A) (A) (A) (A) (A) (A) (A) (A) (A) (A) (A)
                 (A) (A) (A) (A) (A) (A) (A) (A) (A) (A) (A) (A)
                 (A) (A) (A) (A) (A) (A) (A) (A) (A) (A) (A) (A)
                 (A) (A) (A) (A) (A) (A) (A) (A) (A) (A) (A) (A)
                 (A) (A) (A) (A) (A) (A) (A) (A) (A) (A) (A) (A)
                 (A) (A) (A) (A) (A)
       Virtual   (A) (A) (A) (A) (A) (A) (A) (A) (A) (A) (A) (A)
                 (A) (A) (A) (A) (A) (A) (A) (A) (A) (A) (A) (A)
                 (A) (A) (A) (A) (A) (A) (A) (A) (A) (A) (A) (A)
                 (A) (A) (A) (A) (A) (A) (A) (A) (A) (A) (A) (A)
                 (A) (A) (A) (A) (A) (A) (A) (A) (A) (A) (A) (A)
                 (A) (A) (A) (A) (A) (A) (A) (A) (A) (A) (A) (A)
                 (A) (A) (A) (A) (A) (A) (A) (A) (A) (A) (A) (A)
                 (A) (A) (A) (A) (A) (A) (A) (A) (A) (A) (A) (A)
                 (A) (A) (A) (A) (A) (A) (A) (A) (A) (A) (A) (A)
                 (A) (A) (A) (A) (A) (A) (A) (A) (A) (A) (A) (A)
                 (A) (A) (A) (A) (A) (A) (A) (A) (A) (A) (A) (A)
                 (A) (A) (A) (A) (A) (A) (A) (A) (A) (A) (A) (A)
                 (A) (A) (A) (A) (A) (A) (A) (A) (A) (A) (A) (A)
                 (A) (A) (A) (A) (A) (A) (A) (A) (A) (A) (A) (A)
                 (A) (A) (A) (A) (A) (A) (A) (A) (A) (A) (A) (A)
                 (A) (A) (A) (A) (A) (A) (A) (A) (A) (A) (A) (A)
                 (A) (A) (A) (A) (A) (A) (A) (A) (A) (A) (A) (A)
                 (A) (A) (A) (A) (A) (A) (A) (A) (A) (A) (A) (A)
                 (A) (A) (A) (A) (A) (A) (A) (A) (A) (A) (A) (A)
                 (A) (A) (A) (A) (A) (A) (A) (A) (A) (A) (A) (A)
                 (A) (A) (A) (A) (A) (A) (A) (A) (A) (A) (A) (A)
                 (A) (A) (A) (A) (A) (A) (A) (A) (A) (A) (A) (A)
                 (A) (A) (A) (A) (A) (A) (A) (A) (A) (A) (A) (A)
                 (A) (A) (A) (A) (A) (A) (A) (A) (A) (A) (A) (A)
                 (A) (A) (A) (A) (A) (A) (A) (A) (A) (A) (A) (A)
                 (A) (A) (A) (A) (A) (A) (A) (A) (A) (A) (A) (A)
                 (A) (A) (A) (A) (A) (A) (A) (A) (A) (A) (A) (A)
                 (A) (A) (A) (A) (A) (A) (A) (A) (A) (A) (A) (A)
                 (A) (A) (A) (A) (A) (A) (A) (A) (A) (A) (A) (A)
                 (A) (A) (A) (A) (A) (A) (A) (A) (A) (A) (A) (A)
                 (A) (A) (A) (A) (A) (A) (A) (A) (A) (A) (A) (A)
                 (A) (A) (A) (A) (A) (A) (A) (A) (A) (A) (A) (A)
                 (A) (A) (A) (A) (A) (A) (A) (A) (A) (A) (A) (A)
                 (A) (A) (A) (A) (A) (A) (A) (A) (A) (A) (A) (A)
                 (A) (A) (A) (A) (A) (A) (A) (A) (A) (A) (A) (A)
                 (A) (A) (A) (A) (A) (A) (A) (A) (A) (A) (A) (A)
                 (A) (A) (A) (A) (A) (A) (A) (A) (A) (A) (A) (A)
                 (A) (A) (A) (A) (A) (A) (A) (A) (A) (A) (A) (A)
                 (A) (A) (A) (A) (A) (A) (A) (A) (A) (A) (A) (A)
                 (A) (A) (A) (A) (A) (A) (A) (A) (A) (A) (A) (A)
                 (A) (A) (A) (A) (A) (A) (A) (A) (A) (A) (A) (A)
                 (A) (A) (A) (A) (A) (A) (A) (A) (A) (A) (A) (A)
                 (A) (A) (A) (A) (A) (A) (A) (A) (A) (A) (A) (A)
                 (A) (A) (A) (A) (A) (A) (A) (A) (A) (A) (A) (A)
                 (A) (A) (A) (A) (A) (A) (A) (A) (A) (A) (A) (A)
                 (A) (A) (A) (A) (A) (A) (A) (A) (A) (A) (A) (A)
                 (A) (A) (A) (A) (A) (A) (A) (A) (A) (A) (A) (A)
                 (A) (A) (A) (A) (A) (A) (A) (A) (A) (A) (A) (A)
                 (A) (A) (A) (A) (A) (A) (A) (A) (A) (A) (A) (A)
                 (A) (A) (A) (A) (A) (A) (A) (A) (A) (A) (A) (A)
                 (A) (A) (A) (A) (A) (A) (A) (A) (A) (A) (A) (A)
                 (A) (A) (A) (A) (A) (A) (A) (A) (A) (A) (A) (A)
                 (A) (A) (A) (A) (A) (A) (A) (A) (A) (A) (A) (A)
                 (A) (A) (A) (A) (A) (A) (A) (A) (A) (A) (A) (A)
                 (A) (A) (A) (A) (A) (A) (A) (A) (A) (A) (A) (A)
                 (A) (A) (A) (A) (A) (A) (A) (A) (A) (A) (A) (A)
                 (A) (A) (A) (A) (A) (A) (A) (A) (A) (A) (A) (A)
                 (A) (A) (A) (A) (A) (A) (A) (A) (A) (A) (A) (A)
                 (A) (A) (A) (A) (A) (A) (A) (A) (A) (A) (A) (A)
                 (A) (A) (A) (A) (A) (A) (A) (A) (A) (A) (A) (A)
                 (A) (A) (A) (A) (A) (A) (A) (A) (A) (A) (A) (A)
                 (A) (A) (A) (A) (A) (A) (A) (A) (A) (A) (A) (A)
                 (A) (A) (A) (A) (A) (A) (A) (A) (A) (A) (A) (A)
                 (A) (A) (A) (A) (A) (A) (A) (A) (A) (A) (A) (A)
                 (A) (A) (A) (A) (A) (A) (A) (A) (A) (A) (A) (A)
                 (A) (A) (A) (A) (A) (A) (A) (A) (A) (A) (A) (A)
                 (A) (A) (A) (A) (A) (A) (A) (A) (A) (A) (A) (A)
                 (A) (A) (A) (A) (A) (A) (A) (A) (A) (A) (A) (A)
                 (A) (A) (A) (A) (A) (A) (A) (A) (A) (A) (A) (A)
                 (A) (A) (A) (A) (A) (A) (A) (A) (A) (A) (A) (A)
                 (A) (A) (A) (A) (A) (A) (A) (A) (A)
 Beta  Orbitals:
       Occupied  (A) (A) (A) (A) (A) (A) (A) (A) (A) (A) (A) (A)
                 (A) (A) (A) (A) (A) (A) (A) (A) (A) (A) (A) (A)
                 (A) (A) (A) (A) (A) (A) (A) (A) (A) (A) (A) (A)
                 (A) (A) (A) (A) (A) (A) (A) (A) (A) (A) (A) (A)
                 (A) (A) (A) (A) (A) (A) (A) (A) (A) (A) (A) (A)
                 (A) (A) (A) (A) (A) (A) (A) (A) (A) (A) (A) (A)
                 (A) (A) (A) (A) (A) (A) (A) (A) (A) (A) (A) (A)
                 (A) (A) (A) (A) (A) (A) (A) (A) (A) (A) (A) (A)
                 (A) (A) (A) (A) (A) (A) (A) (A) (A) (A) (A) (A)
                 (A) (A) (A) (A) (A) (A) (A) (A) (A) (A) (A) (A)
                 (A) (A) (A) (A) (A) (A) (A) (A) (A) (A) (A) (A)
                 (A) (A) (A) (A) (A) (A) (A) (A) (A) (A) (A) (A)
                 (A) (A) (A) (A) (A) (A) (A) (A) (A) (A) (A) (A)
                 (A) (A) (A) (A)
       Virtual   (A) (A) (A) (A) (A) (A) (A) (A) (A) (A) (A) (A)
                 (A) (A) (A) (A) (A) (A) (A) (A) (A) (A) (A) (A)
                 (A) (A) (A) (A) (A) (A) (A) (A) (A) (A) (A) (A)
                 (A) (A) (A) (A) (A) (A) (A) (A) (A) (A) (A) (A)
                 (A) (A) (A) (A) (A) (A) (A) (A) (A) (A) (A) (A)
                 (A) (A) (A) (A) (A) (A) (A) (A) (A) (A) (A) (A)
                 (A) (A) (A) (A) (A) (A) (A) (A) (A) (A) (A) (A)
                 (A) (A) (A) (A) (A) (A) (A) (A) (A) (A) (A) (A)
                 (A) (A) (A) (A) (A) (A) (A) (A) (A) (A) (A) (A)
                 (A) (A) (A) (A) (A) (A) (A) (A) (A) (A) (A) (A)
                 (A) (A) (A) (A) (A) (A) (A) (A) (A) (A) (A) (A)
                 (A) (A) (A) (A) (A) (A) (A) (A) (A) (A) (A) (A)
                 (A) (A) (A) (A) (A) (A) (A) (A) (A) (A) (A) (A)
                 (A) (A) (A) (A) (A) (A) (A) (A) (A) (A) (A) (A)
                 (A) (A) (A) (A) (A) (A) (A) (A) (A) (A) (A) (A)
                 (A) (A) (A) (A) (A) (A) (A) (A) (A) (A) (A) (A)
                 (A) (A) (A) (A) (A) (A) (A) (A) (A) (A) (A) (A)
                 (A) (A) (A) (A) (A) (A) (A) (A) (A) (A) (A) (A)
                 (A) (A) (A) (A) (A) (A) (A) (A) (A) (A) (A) (A)
                 (A) (A) (A) (A) (A) (A) (A) (A) (A) (A) (A) (A)
                 (A) (A) (A) (A) (A) (A) (A) (A) (A) (A) (A) (A)
                 (A) (A) (A) (A) (A) (A) (A) (A) (A) (A) (A) (A)
                 (A) (A) (A) (A) (A) (A) (A) (A) (A) (A) (A) (A)
                 (A) (A) (A) (A) (A) (A) (A) (A) (A) (A) (A) (A)
                 (A) (A) (A) (A) (A) (A) (A) (A) (A) (A) (A) (A)
                 (A) (A) (A) (A) (A) (A) (A) (A) (A) (A) (A) (A)
                 (A) (A) (A) (A) (A) (A) (A) (A) (A) (A) (A) (A)
                 (A) (A) (A) (A) (A) (A) (A) (A) (A) (A) (A) (A)
                 (A) (A) (A) (A) (A) (A) (A) (A) (A) (A) (A) (A)
                 (A) (A) (A) (A) (A) (A) (A) (A) (A) (A) (A) (A)
                 (A) (A) (A) (A) (A) (A) (A) (A) (A) (A) (A) (A)
                 (A) (A) (A) (A) (A) (A) (A) (A) (A) (A) (A) (A)
                 (A) (A) (A) (A) (A) (A) (A) (A) (A) (A) (A) (A)
                 (A) (A) (A) (A) (A) (A) (A) (A) (A) (A) (A) (A)
                 (A) (A) (A) (A) (A) (A) (A) (A) (A) (A) (A) (A)
                 (A) (A) (A) (A) (A) (A) (A) (A) (A) (A) (A) (A)
                 (A) (A) (A) (A) (A) (A) (A) (A) (A) (A) (A) (A)
                 (A) (A) (A) (A) (A) (A) (A) (A) (A) (A) (A) (A)
                 (A) (A) (A) (A) (A) (A) (A) (A) (A) (A) (A) (A)
                 (A) (A) (A) (A) (A) (A) (A) (A) (A) (A) (A) (A)
                 (A) (A) (A) (A) (A) (A) (A) (A) (A) (A) (A) (A)
                 (A) (A) (A) (A) (A) (A) (A) (A) (A) (A) (A) (A)
                 (A) (A) (A) (A) (A) (A) (A) (A) (A) (A) (A) (A)
                 (A) (A) (A) (A) (A) (A) (A) (A) (A) (A) (A) (A)
                 (A) (A) (A) (A) (A) (A) (A) (A) (A) (A) (A) (A)
                 (A) (A) (A) (A) (A) (A) (A) (A) (A) (A) (A) (A)
                 (A) (A) (A) (A) (A) (A) (A) (A) (A) (A) (A) (A)
                 (A) (A) (A) (A) (A) (A) (A) (A) (A) (A) (A) (A)
                 (A) (A) (A) (A) (A) (A) (A) (A) (A) (A) (A) (A)
                 (A) (A) (A) (A) (A) (A) (A) (A) (A) (A) (A) (A)
                 (A) (A) (A) (A) (A) (A) (A) (A) (A) (A) (A) (A)
                 (A) (A) (A) (A) (A) (A) (A) (A) (A) (A) (A) (A)
                 (A) (A) (A) (A) (A) (A) (A) (A) (A) (A) (A) (A)
                 (A) (A) (A) (A) (A) (A) (A) (A) (A) (A) (A) (A)
                 (A) (A) (A) (A) (A) (A) (A) (A) (A) (A) (A) (A)
                 (A) (A) (A) (A) (A) (A) (A) (A) (A) (A) (A) (A)
                 (A) (A) (A) (A) (A) (A) (A) (A) (A) (A) (A) (A)
                 (A) (A) (A) (A) (A) (A) (A) (A) (A) (A) (A) (A)
                 (A) (A) (A) (A) (A) (A) (A) (A) (A) (A) (A) (A)
                 (A) (A) (A) (A) (A) (A) (A) (A) (A) (A) (A) (A)
                 (A) (A) (A) (A) (A) (A) (A) (A) (A) (A) (A) (A)
                 (A) (A) (A) (A) (A) (A) (A) (A) (A) (A) (A) (A)
                 (A) (A) (A) (A) (A) (A) (A) (A) (A) (A) (A) (A)
                 (A) (A) (A) (A) (A) (A) (A) (A) (A) (A) (A) (A)
                 (A) (A) (A) (A) (A) (A) (A) (A) (A) (A) (A) (A)
                 (A) (A) (A) (A) (A) (A) (A) (A) (A) (A) (A) (A)
                 (A) (A) (A) (A) (A) (A) (A) (A) (A) (A) (A) (A)
                 (A) (A) (A) (A) (A) (A) (A) (A) (A) (A) (A) (A)
                 (A) (A) (A) (A) (A) (A) (A) (A) (A) (A) (A) (A)
                 (A) (A) (A) (A) (A) (A) (A) (A) (A) (A) (A) (A)
                 (A) (A) (A) (A) (A) (A) (A) (A) (A) (A)
 The electronic state is 2-A.
 Alpha  occ. eigenvalues --  -88.37681 -88.29378 -18.96496 -18.96094 -18.95891
 Alpha  occ. eigenvalues --  -18.94587 -14.24388 -14.20578 -10.13989 -10.13786
 Alpha  occ. eigenvalues --  -10.13653 -10.13638 -10.13235 -10.12887 -10.12188
 Alpha  occ. eigenvalues --  -10.12164 -10.11850 -10.11635 -10.11571 -10.10630
 Alpha  occ. eigenvalues --  -10.09999 -10.09501 -10.09476 -10.09277 -10.09233
 Alpha  occ. eigenvalues --  -10.08775 -10.08666 -10.08441 -10.08227 -10.08123
 Alpha  occ. eigenvalues --  -10.07968 -10.07822 -10.07661 -10.07521 -10.07215
 Alpha  occ. eigenvalues --  -10.06947 -10.06549 -10.06483 -10.06467 -10.06344
 Alpha  occ. eigenvalues --  -10.06050 -10.06048 -10.05954 -10.05275  -7.96697
 Alpha  occ. eigenvalues --   -7.88579  -5.98650  -5.98545  -5.97969  -5.90781
 Alpha  occ. eigenvalues --   -5.90347  -5.89619  -1.16134  -1.15734  -1.15498
 Alpha  occ. eigenvalues --   -1.14435  -1.10422  -1.07923  -1.02613  -0.99975
 Alpha  occ. eigenvalues --   -0.98197  -0.97103  -0.96501  -0.96007  -0.94928
 Alpha  occ. eigenvalues --   -0.91896  -0.89790  -0.89145  -0.88043  -0.87713
 Alpha  occ. eigenvalues --   -0.87314  -0.87095  -0.86580  -0.86097  -0.85617
 Alpha  occ. eigenvalues --   -0.85332  -0.83513  -0.81553  -0.77619  -0.77343
 Alpha  occ. eigenvalues --   -0.76231  -0.76014  -0.75666  -0.74814  -0.74524
 Alpha  occ. eigenvalues --   -0.74061  -0.73711  -0.72571  -0.71290  -0.70709
 Alpha  occ. eigenvalues --   -0.68669  -0.68471  -0.68043  -0.67768  -0.67409
 Alpha  occ. eigenvalues --   -0.67059  -0.66607  -0.65943  -0.64620  -0.63130
 Alpha  occ. eigenvalues --   -0.62823  -0.62232  -0.61455  -0.61159  -0.60665
 Alpha  occ. eigenvalues --   -0.59534  -0.59475  -0.59213  -0.58603  -0.58181
 Alpha  occ. eigenvalues --   -0.58096  -0.57423  -0.56632  -0.56447  -0.56314
 Alpha  occ. eigenvalues --   -0.56261  -0.56081  -0.55645  -0.55456  -0.55245
 Alpha  occ. eigenvalues --   -0.55016  -0.54689  -0.54600  -0.54522  -0.54263
 Alpha  occ. eigenvalues --   -0.54039  -0.53807  -0.53407  -0.52900  -0.52428
 Alpha  occ. eigenvalues --   -0.51901  -0.51468  -0.51098  -0.50744  -0.50484
 Alpha  occ. eigenvalues --   -0.50074  -0.49715  -0.49316  -0.49278  -0.48372
 Alpha  occ. eigenvalues --   -0.48044  -0.47703  -0.47364  -0.47068  -0.46239
 Alpha  occ. eigenvalues --   -0.46107  -0.44714  -0.42734  -0.42255  -0.41863
 Alpha  occ. eigenvalues --   -0.41434  -0.41018  -0.40563  -0.40104  -0.39642
 Alpha  occ. eigenvalues --   -0.39051  -0.38614  -0.38163  -0.36760  -0.34017
 Alpha  occ. eigenvalues --   -0.32447
 Alpha virt. eigenvalues --   -0.10391  -0.09558  -0.08936  -0.07825  -0.06659
 Alpha virt. eigenvalues --   -0.06415  -0.06356  -0.06001  -0.05705  -0.05025
 Alpha virt. eigenvalues --   -0.04414  -0.04319  -0.02822  -0.02675  -0.01997
 Alpha virt. eigenvalues --   -0.01301  -0.00485   0.00485   0.00851   0.00998
 Alpha virt. eigenvalues --    0.01021   0.01490   0.02366   0.02505   0.02824
 Alpha virt. eigenvalues --    0.03376   0.03986   0.04243   0.04661   0.05106
 Alpha virt. eigenvalues --    0.05507   0.05728   0.05990   0.06671   0.06925
 Alpha virt. eigenvalues --    0.07344   0.07566   0.08059   0.08301   0.08538
 Alpha virt. eigenvalues --    0.08628   0.08729   0.09529   0.09584   0.09745
 Alpha virt. eigenvalues --    0.09923   0.10405   0.10526   0.10684   0.11053
 Alpha virt. eigenvalues --    0.11449   0.11624   0.12466   0.12653   0.12757
 Alpha virt. eigenvalues --    0.13229   0.13558   0.13749   0.14324   0.14671
 Alpha virt. eigenvalues --    0.14843   0.15010   0.15295   0.15470   0.15794
 Alpha virt. eigenvalues --    0.16161   0.16457   0.16693   0.16864   0.17282
 Alpha virt. eigenvalues --    0.17686   0.17907   0.18133   0.18241   0.18400
 Alpha virt. eigenvalues --    0.18673   0.18724   0.18981   0.19370   0.19577
 Alpha virt. eigenvalues --    0.20062   0.20105   0.20402   0.20574   0.20862
 Alpha virt. eigenvalues --    0.21013   0.21214   0.21460   0.21765   0.21837
 Alpha virt. eigenvalues --    0.22006   0.22211   0.22562   0.22750   0.23348
 Alpha virt. eigenvalues --    0.23513   0.23656   0.23878   0.23955   0.24194
 Alpha virt. eigenvalues --    0.24478   0.24567   0.24660   0.25023   0.25160
 Alpha virt. eigenvalues --    0.25388   0.25642   0.26012   0.26083   0.26192
 Alpha virt. eigenvalues --    0.26454   0.27082   0.27178   0.27219   0.27521
 Alpha virt. eigenvalues --    0.27697   0.27915   0.28570   0.28648   0.29093
 Alpha virt. eigenvalues --    0.29238   0.29601   0.29752   0.30118   0.30318
 Alpha virt. eigenvalues --    0.30528   0.30714   0.31035   0.31307   0.31741
 Alpha virt. eigenvalues --    0.31828   0.32081   0.32405   0.32654   0.32959
 Alpha virt. eigenvalues --    0.33233   0.33551   0.33610   0.33805   0.33968
 Alpha virt. eigenvalues --    0.34282   0.34374   0.34637   0.34715   0.34812
 Alpha virt. eigenvalues --    0.34831   0.35089   0.35289   0.35371   0.35458
 Alpha virt. eigenvalues --    0.35670   0.36065   0.36180   0.36436   0.36684
 Alpha virt. eigenvalues --    0.36762   0.37048   0.37590   0.37761   0.38018
 Alpha virt. eigenvalues --    0.38159   0.38502   0.39007   0.39179   0.39495
 Alpha virt. eigenvalues --    0.39607   0.39729   0.40077   0.40250   0.40653
 Alpha virt. eigenvalues --    0.40862   0.40928   0.41258   0.41319   0.41414
[...]
 
              Baa    -0.0227    -3.045    -1.087    -1.016  0.2263 -0.6149  0.7554
     8 C(13)  Bbb    -0.0082    -1.096    -0.391    -0.365  0.5802  0.7081  0.4025
              Bcc     0.0309     4.141     1.478     1.381  0.7824 -0.3472 -0.5170
 
              Baa    -0.0025    -1.348    -0.481    -0.450 -0.6921  0.0313  0.7211
     9 H(1)   Bbb    -0.0007    -0.356    -0.127    -0.119  0.6630 -0.3675  0.6523
              Bcc     0.0032     1.704     0.608     0.568  0.2854  0.9295  0.2336
 
              Baa    -0.0060    -0.803    -0.287    -0.268 -0.1562  0.0875  0.9838
    10 C(13)  Bbb    -0.0031    -0.413    -0.148    -0.138 -0.2414  0.9625 -0.1240
              Bcc     0.0091     1.217     0.434     0.406  0.9578  0.2568  0.1292
 
              Baa    -0.0027    -0.357    -0.127    -0.119 -0.4859  0.8705 -0.0777
    11 C(13)  Bbb    -0.0014    -0.185    -0.066    -0.062 -0.4105 -0.1488  0.8996
              Bcc     0.0040     0.542     0.193     0.181  0.7716  0.4691  0.4297
 
              Baa    -0.0021    -0.287    -0.103    -0.096  0.2278  0.0243  0.9734
    12 C(13)  Bbb    -0.0004    -0.060    -0.021    -0.020 -0.3395  0.9389  0.0560
              Bcc     0.0026     0.347     0.124     0.116  0.9126  0.3432 -0.2222
 
              Baa    -0.0036    -0.479    -0.171    -0.160  0.1005  0.9173 -0.3852
    13 C(13)  Bbb    -0.0014    -0.183    -0.065    -0.061  0.6809 -0.3457 -0.6456
              Bcc     0.0049     0.662     0.236     0.221  0.7254  0.1974  0.6594
 
              Baa    -0.0036    -1.916    -0.684    -0.639 -0.0944  0.9426  0.3203
    14 H(1)   Bbb    -0.0027    -1.449    -0.517    -0.483 -0.6086 -0.3092  0.7307
              Bcc     0.0063     3.365     1.201     1.122  0.7878 -0.1260  0.6029
 
              Baa    -0.0007    -0.396    -0.141    -0.132 -0.4330  0.8756  0.2141
    15 H(1)   Bbb    -0.0004    -0.238    -0.085    -0.080  0.4317 -0.0071  0.9020
              Bcc     0.0012     0.635     0.226     0.212  0.7913  0.4830 -0.3749
 
              Baa    -0.0006    -0.319    -0.114    -0.107  0.2258  0.2802  0.9330
    16 H(1)   Bbb    -0.0005    -0.265    -0.095    -0.089 -0.1799  0.9532 -0.2428
              Bcc     0.0011     0.585     0.209     0.195  0.9574  0.1131 -0.2656
 
              Baa    -0.0217    -2.909    -1.038    -0.970  0.3903  0.1503  0.9083
    17 C(13)  Bbb    -0.0130    -1.740    -0.621    -0.580  0.8892  0.1942 -0.4142
              Bcc     0.0346     4.649     1.659     1.551 -0.2386  0.9694 -0.0579
 
              Baa    -0.0112    -5.981    -2.134    -1.995 -0.4237  0.8161 -0.3931
    18 H(1)   Bbb    -0.0038    -2.044    -0.729    -0.682  0.7977  0.1305 -0.5888
              Bcc     0.0150     8.024     2.863     2.677  0.4292  0.5630  0.7063
 
              Baa    -0.0006    -0.322    -0.115    -0.108  0.7224 -0.5514  0.4173
    19 H(1)   Bbb    -0.0005    -0.262    -0.094    -0.088 -0.3905  0.1728  0.9042
              Bcc     0.0011     0.585     0.209     0.195  0.5707  0.8162  0.0905
 
              Baa    -0.0032    -1.722    -0.614    -0.574  0.3456 -0.6546  0.6724
    20 H(1)   Bbb    -0.0010    -0.543    -0.194    -0.181  0.8988  0.4368 -0.0368
              Bcc     0.0042     2.265     0.808     0.755 -0.2696  0.6171  0.7393
 
              Baa    -0.0036    -1.940    -0.692    -0.647  0.4952 -0.5170  0.6982
    21 H(1)   Bbb    -0.0004    -0.190    -0.068    -0.063  0.5206  0.8200  0.2379
              Bcc     0.0040     2.130     0.760     0.710  0.6955 -0.2457 -0.6752
 
              Baa    -0.0349    -1.433    -0.511    -0.478  0.5160 -0.5420  0.6633
    22 S(33)  Bbb    -0.0299    -1.227    -0.438    -0.409 -0.5366  0.3990  0.7436
              Bcc     0.0649     2.660     0.949     0.887  0.6677  0.7396  0.0849
 
              Baa    -0.0086    -0.331    -0.118    -0.111  0.3170  0.8868 -0.3363
    23 N(14)  Bbb    -0.0064    -0.246    -0.088    -0.082  0.8568 -0.4198 -0.2995
              Bcc     0.0150     0.578     0.206     0.193  0.4067  0.1932  0.8929
 
              Baa    -0.0008    -0.114    -0.041    -0.038 -0.2129 -0.6774  0.7041
    24 C(13)  Bbb    -0.0004    -0.050    -0.018    -0.017  0.1622  0.6861  0.7092
              Bcc     0.0012     0.163     0.058     0.055  0.9635 -0.2652  0.0362
 
              Baa    -0.0007    -0.093    -0.033    -0.031  0.3383  0.3824  0.8598
    25 C(13)  Bbb    -0.0001    -0.013    -0.004    -0.004  0.7007  0.5076 -0.5014
              Bcc     0.0008     0.106     0.038     0.035 -0.6282  0.7721 -0.0962
 
              Baa    -0.0008    -0.107    -0.038    -0.036 -0.0584  0.4211  0.9051
    26 C(13)  Bbb     0.0001     0.009     0.003     0.003  0.7231 -0.6072  0.3292
              Bcc     0.0007     0.097     0.035     0.032  0.6883  0.6737 -0.2690
 
              Baa    -0.0004    -0.053    -0.019    -0.018 -0.1001 -0.5787  0.8093
    27 C(13)  Bbb    -0.0001    -0.018    -0.006    -0.006  0.3880  0.7263  0.5674
              Bcc     0.0005     0.071     0.025     0.024  0.9162 -0.3708 -0.1518
 
              Baa    -0.0005    -0.062    -0.022    -0.021 -0.0180 -0.6908  0.7228
    28 C(13)  Bbb    -0.0001    -0.010    -0.004    -0.003  0.1066  0.7175  0.6884
              Bcc     0.0005     0.073     0.026     0.024  0.9941 -0.0895 -0.0607
 
              Baa    -0.0005    -0.070    -0.025    -0.023  0.2507  0.7521  0.6095
    29 C(13)  Bbb    -0.0000    -0.002    -0.001    -0.001  0.9607 -0.1156 -0.2525
              Bcc     0.0005     0.072     0.026     0.024  0.1194 -0.6488  0.7515
 
              Baa    -0.0005    -0.255    -0.091    -0.085 -0.0219 -0.4634  0.8859
    30 H(1)   Bbb    -0.0003    -0.176    -0.063    -0.059  0.5448  0.7375  0.3992
              Bcc     0.0008     0.431     0.154     0.144  0.8383 -0.4914 -0.2363
 
              Baa    -0.0004    -0.197    -0.070    -0.066 -0.1821 -0.5290  0.8289
    31 H(1)   Bbb    -0.0003    -0.147    -0.053    -0.049 -0.1124  0.8486  0.5169
              Bcc     0.0006     0.345     0.123     0.115  0.9768 -0.0010  0.2140
 
              Baa    -0.0002    -0.100    -0.036    -0.033 -0.0394 -0.5748  0.8174
    32 H(1)   Bbb    -0.0002    -0.083    -0.030    -0.028  0.4567  0.7172  0.5263
              Bcc     0.0003     0.183     0.065     0.061  0.8888 -0.3940 -0.2343
 
              Baa    -0.0002    -0.086    -0.031    -0.029  0.1051  0.7074 -0.6989
    33 H(1)   Bbb    -0.0001    -0.074    -0.026    -0.025  0.0149  0.7016  0.7124
              Bcc     0.0003     0.160     0.057     0.053  0.9943 -0.0853  0.0632
 
              Baa    -0.0029    -0.388    -0.138    -0.129 -0.0992  0.4692  0.8775
    34 C(13)  Bbb     0.0001     0.007     0.003     0.002  0.5536  0.7588 -0.3431
              Bcc     0.0028     0.381     0.136     0.127  0.8268 -0.4518  0.3351
 
              Baa    -0.0017    -0.225    -0.080    -0.075  0.6308  0.7181 -0.2939
    35 C(13)  Bbb    -0.0003    -0.046    -0.016    -0.015  0.6852 -0.3378  0.6453
              Bcc     0.0020     0.271     0.097     0.090 -0.3641  0.6084  0.7051
 
              Baa    -0.0035    -0.464    -0.166    -0.155  0.6918  0.6430  0.3285
    36 C(13)  Bbb    -0.0008    -0.110    -0.039    -0.037 -0.5177  0.1246  0.8464
              Bcc     0.0043     0.574     0.205     0.192 -0.5034  0.7556 -0.4191
 
              Baa    -0.0016    -0.209    -0.075    -0.070 -0.2434  0.4566  0.8558
    37 C(13)  Bbb     0.0002     0.032     0.011     0.011  0.7482  0.6498 -0.1339
              Bcc     0.0013     0.177     0.063     0.059  0.6172 -0.6077  0.4998
 
              Baa    -0.0014    -0.192    -0.068    -0.064  0.6748  0.5012  0.5417
    38 C(13)  Bbb    -0.0005    -0.074    -0.026    -0.025 -0.5978 -0.0592  0.7994
              Bcc     0.0020     0.266     0.095     0.089 -0.4327  0.8633 -0.2597
 
              Baa    -0.0017    -0.226    -0.081    -0.075  0.8458  0.5318  0.0413
    39 C(13)  Bbb    -0.0007    -0.101    -0.036    -0.034  0.1660 -0.3360  0.9271
              Bcc     0.0024     0.327     0.117     0.109 -0.5070  0.7773  0.3725
 
              Baa    -0.0004    -0.233    -0.083    -0.078 -0.1898  0.3326  0.9238
    40 H(1)   Bbb    -0.0004    -0.215    -0.077    -0.072  0.4926  0.8462 -0.2034
              Bcc     0.0008     0.448     0.160     0.150  0.8493 -0.4164  0.3244
 
              Baa    -0.0051    -2.745    -0.979    -0.916  0.1745  0.1154  0.9779
    41 H(1)   Bbb    -0.0048    -2.560    -0.914    -0.854  0.7142  0.6688 -0.2064
              Bcc     0.0099     5.305     1.893     1.770 -0.6779  0.7344  0.0343
 
              Baa    -0.0004    -0.202    -0.072    -0.067 -0.2474  0.3393  0.9076
    42 H(1)   Bbb    -0.0002    -0.106    -0.038    -0.035  0.7325  0.6786 -0.0540
              Bcc     0.0006     0.308     0.110     0.103 -0.6342  0.6514 -0.4164
 
              Baa    -0.0021    -1.141    -0.407    -0.381 -0.0774  0.1162  0.9902
    43 H(1)   Bbb    -0.0005    -0.290    -0.104    -0.097  0.9469  0.3195  0.0365
              Bcc     0.0027     1.431     0.511     0.477 -0.3121  0.9404 -0.1347
 
              Baa    -0.2623   -10.118    -3.610    -3.375  0.0101  0.9651  0.2619
    44 N(14)  Bbb    -0.2600   -10.028    -3.578    -3.345  0.9733 -0.0696  0.2188
              Bcc     0.5223    20.146     7.189     6.720 -0.2294 -0.2527  0.9400
 
              Baa    -0.0147    -1.966    -0.702    -0.656  0.5172  0.5889  0.6211
    45 C(13)  Bbb    -0.0015    -0.199    -0.071    -0.066 -0.1201  0.7684 -0.6286
              Bcc     0.0161     2.165     0.773     0.722  0.8474 -0.2505 -0.4681
 
              Baa    -0.0254    -3.414    -1.218    -1.139 -0.3780  0.7914 -0.4805
    46 C(13)  Bbb    -0.0210    -2.823    -1.007    -0.942  0.8252  0.0527 -0.5624
              Bcc     0.0465     6.237     2.225     2.080  0.4197  0.6091  0.6729
 
              Baa    -0.0213    -2.862    -1.021    -0.955  0.6732  0.4630 -0.5765
    47 C(13)  Bbb    -0.0176    -2.356    -0.841    -0.786  0.7320 -0.5276  0.4310
              Bcc     0.0389     5.218     1.862     1.741  0.1046  0.7122  0.6942
 
              Baa    -0.0109    -1.466    -0.523    -0.489 -0.0694  0.4182  0.9057
    48 C(13)  Bbb     0.0035     0.468     0.167     0.156  0.2148  0.8928 -0.3958
              Bcc     0.0074     0.999     0.356     0.333  0.9742 -0.1670  0.1518
 
              Baa    -0.0120    -1.613    -0.575    -0.538  0.1763  0.3391  0.9241
    49 C(13)  Bbb     0.0048     0.640     0.228     0.214  0.3842  0.8406 -0.3818
              Bcc     0.0072     0.973     0.347     0.324  0.9063 -0.4223 -0.0179
 
              Baa    -0.0252    -3.375    -1.204    -1.126  0.3697  0.8541 -0.3659
    50 C(13)  Bbb    -0.0220    -2.951    -1.053    -0.984  0.9231 -0.3825  0.0398
              Bcc     0.0471     6.326     2.257     2.110  0.1060  0.3524  0.9298
 
              Baa    -0.0026    -1.368    -0.488    -0.456  0.0157  0.4071  0.9132
    51 H(1)   Bbb    -0.0006    -0.332    -0.118    -0.111  0.9353 -0.3288  0.1305
              Bcc     0.0032     1.700     0.606     0.567  0.3534  0.8521 -0.3860
 
              Baa    -0.0029    -1.524    -0.544    -0.508  0.0932  0.3993  0.9121
    52 H(1)   Bbb     0.0007     0.391     0.140     0.131  0.9112 -0.4035  0.0835
              Bcc     0.0021     1.133     0.404     0.378  0.4013  0.8233 -0.4014
 
              Baa    -0.0013    -0.683    -0.244    -0.228  0.1229  0.5238  0.8429
    53 H(1)   Bbb     0.0003     0.173     0.062     0.058 -0.2006  0.8449 -0.4958
              Bcc     0.0010     0.510     0.182     0.170  0.9719  0.1081 -0.2089
 
              Baa    -0.0013    -0.687    -0.245    -0.229  0.1256  0.5020  0.8557
    54 H(1)   Bbb     0.0002     0.133     0.048     0.044  0.2992  0.8032 -0.5151
              Bcc     0.0010     0.553     0.197     0.185  0.9459 -0.3207  0.0493
 
              Baa    -0.0100    -1.344    -0.479    -0.448  0.9398  0.0584  0.3367
    55 C(13)  Bbb     0.0031     0.422     0.151     0.141 -0.0842  0.9945  0.0623
              Bcc     0.0069     0.922     0.329     0.307 -0.3312 -0.0869  0.9395
 
              Baa    -0.0287    -3.849    -1.374    -1.284 -0.4714  0.7295 -0.4955
    56 C(13)  Bbb    -0.0252    -3.385    -1.208    -1.129  0.0618  0.5878  0.8066
              Bcc     0.0539     7.234     2.581     2.413  0.8797  0.3496 -0.3222
 
              Baa    -0.0306    -4.108    -1.466    -1.370  0.3196  0.4869  0.8129
    57 C(13)  Bbb    -0.0272    -3.652    -1.303    -1.218 -0.2772  0.8684 -0.4111
              Bcc     0.0578     7.760     2.769     2.588  0.9061  0.0940 -0.4125
 
              Baa    -0.0134    -1.797    -0.641    -0.600  0.7256  0.0777 -0.6838
    58 C(13)  Bbb     0.0052     0.704     0.251     0.235  0.6817 -0.2165  0.6988
              Bcc     0.0081     1.094     0.390     0.365  0.0937  0.9732  0.2101
 
              Baa    -0.0140    -1.877    -0.670    -0.626  0.6971  0.3352 -0.6338
    59 C(13)  Bbb     0.0053     0.712     0.254     0.237  0.6824 -0.0389  0.7300
              Bcc     0.0087     1.165     0.416     0.389 -0.2200  0.9413  0.2559
 
              Baa    -0.0351    -4.712    -1.681    -1.572  0.6706 -0.1056  0.7343
    60 C(13)  Bbb    -0.0313    -4.202    -1.499    -1.402 -0.1097  0.9648  0.2389
              Bcc     0.0664     8.914     3.181     2.973  0.7337  0.2408 -0.6354
 
              Baa    -0.0027    -1.434    -0.512    -0.478 -0.6590  0.2537  0.7081
    61 H(1)   Bbb    -0.0014    -0.734    -0.262    -0.245  0.2212  0.9651 -0.1400
              Bcc     0.0041     2.168     0.774     0.723  0.7189 -0.0643  0.6921
 
              Baa    -0.0029    -1.544    -0.551    -0.515  0.6685 -0.6122 -0.4222
    62 H(1)   Bbb    -0.0001    -0.066    -0.024    -0.022  0.3498  0.7599 -0.5479
              Bcc     0.0030     1.611     0.575     0.537  0.6563  0.2185  0.7222
 
              Baa    -0.0014    -0.770    -0.275    -0.257  0.7954  0.1238 -0.5933
    63 H(1)   Bbb     0.0005     0.264     0.094     0.088 -0.3267  0.9121 -0.2478
              Bcc     0.0009     0.506     0.180     0.169  0.5105  0.3909  0.7659
 
              Baa    -0.0015    -0.797    -0.284    -0.266  0.8393  0.0412 -0.5421
    64 H(1)   Bbb     0.0004     0.233     0.083     0.078  0.5431 -0.0161  0.8395
              Bcc     0.0011     0.564     0.201     0.188 -0.0258  0.9990  0.0359
 
              Baa    -0.0020     0.147     0.052     0.049  0.8715  0.4876  0.0523
    65 O(17)  Bbb    -0.0010     0.075     0.027     0.025  0.2336 -0.5065  0.8300
              Bcc     0.0031    -0.221    -0.079    -0.074 -0.4312  0.7112  0.5553
 
              Baa    -0.0004    -0.240    -0.086    -0.080 -0.5586  0.1730  0.8112
    66 H(1)   Bbb    -0.0003    -0.184    -0.066    -0.061  0.7064  0.6119  0.3559
              Bcc     0.0008     0.424     0.151     0.141 -0.4348  0.7718 -0.4640
 
              Baa    -0.0006     0.042     0.015     0.014  0.2120  0.6773  0.7045
    67 O(17)  Bbb    -0.0003     0.019     0.007     0.006  0.9772 -0.1535 -0.1465
              Bcc     0.0008    -0.061    -0.022    -0.020  0.0089  0.7196 -0.6944
 
              Baa    -0.0001    -0.060    -0.021    -0.020 -0.0721 -0.5739  0.8157
    68 H(1)   Bbb    -0.0001    -0.047    -0.017    -0.016  0.0677  0.8132  0.5781
              Bcc     0.0002     0.106     0.038     0.035  0.9951 -0.0969  0.0198
 
              Baa    -0.0373     2.702     0.964     0.901 -0.3221  0.8699 -0.3736
    69 O(17)  Bbb    -0.0358     2.589     0.924     0.864  0.9373  0.2373 -0.2554
              Bcc     0.0731    -5.291    -1.888    -1.765  0.1336  0.4324  0.8917
 
              Baa    -0.0019    -1.000    -0.357    -0.333 -0.5838  0.7758 -0.2392
    70 H(1)   Bbb    -0.0014    -0.728    -0.260    -0.243  0.1555  0.3960  0.9050
              Bcc     0.0032     1.728     0.616     0.576  0.7968  0.4912 -0.3519
 
              Baa    -0.0538     3.894     1.389     1.299  0.3466  0.6338  0.6915
    71 O(17)  Bbb    -0.0521     3.767     1.344     1.257 -0.5500  0.7345 -0.3976
              Bcc     0.1059    -7.661    -2.734    -2.555  0.7599  0.2425 -0.6031
 
              Baa    -0.0027    -1.436    -0.512    -0.479  0.0228  0.7569  0.6531
    72 H(1)   Bbb    -0.0018    -0.951    -0.339    -0.317  0.7847  0.3912 -0.4808
              Bcc     0.0045     2.387     0.852     0.796  0.6194 -0.5235  0.5851
 

 ---------------------------------------------------------------------------------

 No NMR shielding tensors so no spin-rotation constants.
 Leave Link  601 at Fri Jan 22 02:59:27 2021, MaxMem=  4026531840 cpu:              27.6 elap:               5.6
 (Enter /opt/ohpc/pub/libs/gaussian/g16-A.03/sandybridge/g16/l9999.exe)

 Test job not archived.
 1\1\GINC-CASCADEB028\SP\ULC-wHPBE\TZVP\C36H28N2O4S2(1+,2)\RDU230\22-Ja
 n-2021\0\\#P LC-wHPBE/TZVP iop(3/107=0163200000, 3/108=0163200000) scf
 =(conver=6,fermi,ndamp=35,noincfock,novaracc,vshift=500,xqc)\\H28 C36 
 S2 N2 O4\\1,2\C,0,-1.748928,-0.489907,0.452051\C,0,-0.626174,-1.279763
 ,0.15257\S,0,1.952753,-5.388628,0.812439\C,0,-0.882312,-2.170069,-0.82
 0725\C,0,1.932708,-2.897266,-0.476539\C,0,2.566514,-3.761438,0.41855\C
 ,0,-2.975354,-0.631957,-0.195801\C,0,-2.049066,-2.386893,-1.545961\H,0
 ,0.246316,-4.468801,-0.586079\C,0,2.384401,-1.613824,-0.700024\C,0,3.6
 73888,-3.269502,1.095477\C,0,4.135912,-1.984797,0.893895\C,0,3.494497,
 -1.125461,-0.002977\H,0,1.857267,-0.971131,-1.395345\H,0,4.176334,-3.9
 12174,1.811785\H,0,4.992977,-1.63215,1.456718\C,0,-3.122467,-1.590215,
 -1.210611\H,0,-1.688273,0.276733,1.226088\H,0,2.539,-6.051116,-0.20624
 9\H,0,-2.132551,-3.120151,-2.347153\H,0,-4.068236,-1.688167,-1.734116\
 S,0,0.491419,-3.391365,-1.37893\N,0,3.940024,0.175839,-0.195205\C,0,5.
 26504,0.53915,0.184549\C,0,5.479402,1.520085,1.147894\C,0,6.360048,-0.
 068673,-0.412912\C,0,6.761446,1.889048,1.505778\C,0,7.649207,0.280692,
 -0.044528\C,0,7.852726,1.26556,0.91321\H,0,4.624132,2.002234,1.612555\
 H,0,6.198832,-0.830082,-1.170918\H,0,6.936355,2.656092,2.253454\H,0,8.
 499101,-0.206598,-0.518215\C,0,3.067884,1.217797,-0.624973\C,0,3.53316
 9,2.175669,-1.516644\C,0,1.768428,1.324352,-0.133595\C,0,2.72389,3.230
 889,-1.904642\C,0,0.952027,2.363639,-0.537\C,0,1.429133,3.326131,-1.41
 5171\H,0,4.545758,2.102962,-1.902377\H,0,1.364259,0.566763,0.534909\H,
 0,3.106488,3.978127,-2.597301\H,0,-0.063643,2.437107,-0.162477\N,0,-4.
 071583,0.199288,0.137893\C,0,-5.379657,-0.330758,0.192504\C,0,-6.46407
 2,0.381862,-0.308117\C,0,-5.615898,-1.583782,0.758482\C,0,-7.748035,-0
 .135409,-0.237366\C,0,-6.890741,-2.11387,0.808775\C,0,-7.966332,-1.388
 715,0.314728\H,0,-6.301182,1.359246,-0.752201\H,0,-4.779992,-2.148147,
 1.16092\H,0,-8.582756,0.442294,-0.630527\H,0,-7.071352,-3.090185,1.247
 847\C,0,-3.863071,1.579858,0.373004\C,0,-4.488297,2.228332,1.435995\C,
 0,-3.028002,2.320518,-0.45569\C,0,-4.288516,3.577498,1.662294\C,0,-2.8
 02155,3.666597,-0.218956\C,0,-3.435225,4.300687,0.840523\H,0,-5.141183
 ,1.661753,2.093518\H,0,-2.533592,1.828985,-1.288374\H,0,-4.774148,4.08
 1779,2.492022\H,0,-2.125658,4.220184,-0.867724\O,0,0.584592,4.343911,-
 1.769173\H,0,1.03059,4.920168,-2.399784\O,0,9.095256,1.661445,1.308356
 \H,0,9.763222,1.159512,0.827959\O,0,-9.209724,-1.953542,0.400297\H,0,-
 9.859516,-1.347058,0.028653\O,0,-3.254007,5.627948,1.116747\H,0,-2.609
 433,5.991357,0.499352\\Version=EM64L-G16RevA.03\State=2-A\HF=-2593.715
 7817\S2=0.76055\S2-1=0.\S2A=0.750063\RMSD=4.304e-07\Dipole=-0.6746324,
 -0.9663604,-1.8766347\Quadrupole=53.7187447,-5.8780259,-47.8407188,-10
 .6152993,-2.1023152,-2.0644224\PG=C01 [X(C36H28N2O4S2)]\\@


 THE PROMISED LAND ALWAYS LIES ON THE OTHER SIDE OF A WILDERNESS.

                         -- HAVELOCK ELLIS
 Job cpu time:       0 days 14 hours  3 minutes 32.9 seconds.
 Elapsed time:       0 days  1 hours 54 minutes 21.0 seconds.
 File lengths (MBytes):  RWF=    532 Int=      0 D2E=      0 Chk=     76 Scr=      8
 Normal termination of Gaussian 16 at Fri Jan 22 02:59:27 2021.
