 Entering Gaussian System, Link 0=g16
 Input=mol_ta_ma_whol_tune_c3.gjf
 Output=mol_ta_ma_whol_tune_c3.log
 Initial command:
 /opt/ohpc/pub/libs/gaussian/g16-A.03/sandybridge/g16/l1.exe "/mnt/gpfs2_4m/scratch/rdu230/ondemand/projects/init_structures/wtuning/mol_ta_ma_whol/tuning_mol_ta_ma_whol_ocycle0/Gau-79182.inp" -scrdir="/mnt/gpfs2_4m/scratch/rdu230/ondemand/projects/init_structures/wtuning/mol_ta_ma_whol/tuning_mol_ta_ma_whol_ocycle0/"
 Entering Link 1 = /opt/ohpc/pub/libs/gaussian/g16-A.03/sandybridge/g16/l1.exe PID=     79183.
  
 Copyright (c) 1988,1990,1992,1993,1995,1998,2003,2009,2016,
            Gaussian, Inc.  All Rights Reserved.
  
 This is part of the Gaussian(R) 16 program.  It is based on
 the Gaussian(R) 09 system (copyright 2009, Gaussian, Inc.),
 the Gaussian(R) 03 system (copyright 2003, Gaussian, Inc.),
 the Gaussian(R) 98 system (copyright 1998, Gaussian, Inc.),
 the Gaussian(R) 94 system (copyright 1995, Gaussian, Inc.),
 the Gaussian 92(TM) system (copyright 1992, Gaussian, Inc.),
 the Gaussian 90(TM) system (copyright 1990, Gaussian, Inc.),
 the Gaussian 88(TM) system (copyright 1988, Gaussian, Inc.),
 the Gaussian 86(TM) system (copyright 1986, Carnegie Mellon
 University), and the Gaussian 82(TM) system (copyright 1983,
 Carnegie Mellon University). Gaussian is a federally registered
 trademark of Gaussian, Inc.
  
 This software contains proprietary and confidential information,
 including trade secrets, belonging to Gaussian, Inc.
  
 This software is provided under written license and may be
 used, copied, transmitted, or stored only in accord with that
 written license.
  
 The following legend is applicable only to US Government
 contracts under FAR:
  
                    RESTRICTED RIGHTS LEGEND
  
 Use, reproduction and disclosure by the US Government is
 subject to restrictions as set forth in subparagraphs (a)
 and (c) of the Commercial Computer Software - Restricted
 Rights clause in FAR 52.227-19.
  
 Gaussian, Inc.
 340 Quinnipiac St., Bldg. 40, Wallingford CT 06492
  
  
 ---------------------------------------------------------------
 Warning -- This program may not be used in any manner that
 competes with the business of Gaussian, Inc. or will provide
 assistance to any competitor of Gaussian, Inc.  The licensee
 of this program is prohibited from giving any competitor of
 Gaussian, Inc. access to this program.  By using this program,
 the user acknowledges that Gaussian, Inc. is engaged in the
 business of creating and licensing software in the field of
 computational chemistry and represents and warrants to the
 licensee that it is not a competitor of Gaussian, Inc. and that
 it will not use this program in any manner prohibited above.
 ---------------------------------------------------------------
  

 Cite this work as:
 Gaussian 16, Revision A.03,
 M. J. Frisch, G. W. Trucks, H. B. Schlegel, G. E. Scuseria, 
 M. A. Robb, J. R. Cheeseman, G. Scalmani, V. Barone, 
 G. A. Petersson, H. Nakatsuji, X. Li, M. Caricato, A. V. Marenich, 
 J. Bloino, B. G. Janesko, R. Gomperts, B. Mennucci, H. P. Hratchian, 
 J. V. Ortiz, A. F. Izmaylov, J. L. Sonnenberg, D. Williams-Young, 
 F. Ding, F. Lipparini, F. Egidi, J. Goings, B. Peng, A. Petrone, 
 T. Henderson, D. Ranasinghe, V. G. Zakrzewski, J. Gao, N. Rega, 
 G. Zheng, W. Liang, M. Hada, M. Ehara, K. Toyota, R. Fukuda, 
 J. Hasegawa, M. Ishida, T. Nakajima, Y. Honda, O. Kitao, H. Nakai, 
 T. Vreven, K. Throssell, J. A. Montgomery, Jr., J. E. Peralta, 
 F. Ogliaro, M. J. Bearpark, J. J. Heyd, E. N. Brothers, K. N. Kudin, 
 V. N. Staroverov, T. A. Keith, R. Kobayashi, J. Normand, 
 K. Raghavachari, A. P. Rendell, J. C. Burant, S. S. Iyengar, 
 J. Tomasi, M. Cossi, J. M. Millam, M. Klene, C. Adamo, R. Cammi, 
 J. W. Ochterski, R. L. Martin, K. Morokuma, O. Farkas, 
 J. B. Foresman, and D. J. Fox, Gaussian, Inc., Wallingford CT, 2016.
 
 ******************************************
 Gaussian 16:  EM64L-G16RevA.03 25-Dec-2016
                21-Jan-2021 
 ******************************************
 %mem=30GB
 %nproc=8
 Will use up to    8 processors via shared memory.
 ----------------------------------------------------------------------
 #P LC-wHPBE/TZVP iop(3/107=0115700000, 3/108=0115700000) scf=(conver=6
 ,fermi,ndamp=35,noincfock,novaracc,vshift=500,xqc)
 ----------------------------------------------------------------------
 1/38=1,172=1/1;
 2/12=2,17=6,18=5,40=1/2;
 3/5=19,7=101,11=2,25=1,30=1,74=-71,107=115700000,108=115700000/1,2,3;
 4//1;
 5/5=100002,6=6,8=3,10=500,13=1,18=-1,22=13,38=1,93=35/2,8;
 6/7=2,8=2,9=2,10=2,28=1/1;
 99/5=1,9=1/99;
 Leave Link    1 at Thu Jan 21 15:04:43 2021, MaxMem=  4026531840 cpu:               1.1 elap:               0.2
 (Enter /opt/ohpc/pub/libs/gaussian/g16-A.03/sandybridge/g16/l101.exe)
 ----------------
 H28 C36 S2 N2 O4
 ----------------
 Symbolic Z-matrix:
 Charge =  1 Multiplicity = 2
 C                    -1.74893  -0.48991   0.45205 
 C                    -0.62617  -1.27976   0.15257 
 S                     1.95275  -5.38863   0.81244 
 C                    -0.88231  -2.17007  -0.82073 
 C                     1.93271  -2.89727  -0.47654 
 C                     2.56651  -3.76144   0.41855 
 C                    -2.97535  -0.63196  -0.1958 
 C                    -2.04907  -2.38689  -1.54596 
 H                     0.24632  -4.4688   -0.58608 
 C                     2.3844   -1.61382  -0.70002 
 C                     3.67389  -3.2695    1.09548 
 C                     4.13591  -1.9848    0.8939 
 C                     3.4945   -1.12546  -0.00298 
 H                     1.85727  -0.97113  -1.39535 
 H                     4.17633  -3.91217   1.81179 
 H                     4.99298  -1.63215   1.45672 
 C                    -3.12247  -1.59022  -1.21061 
 H                    -1.68827   0.27673   1.22609 
 H                     2.539    -6.05112  -0.20625 
 H                    -2.13255  -3.12015  -2.34715 
 H                    -4.06824  -1.68817  -1.73412 
 S                     0.49142  -3.39136  -1.37893 
 N                     3.94002   0.17584  -0.19521 
 C                     5.26504   0.53915   0.18455 
 C                     5.4794    1.52009   1.14789 
 C                     6.36005  -0.06867  -0.41291 
 C                     6.76145   1.88905   1.50578 
 C                     7.64921   0.28069  -0.04453 
 C                     7.85273   1.26556   0.91321 
 H                     4.62413   2.00223   1.61256 
 H                     6.19883  -0.83008  -1.17092 
 H                     6.93636   2.65609   2.25345 
 H                     8.4991   -0.2066   -0.51822 
 C                     3.06788   1.2178   -0.62497 
 C                     3.53317   2.17567  -1.51664 
 C                     1.76843   1.32435  -0.1336 
 C                     2.72389   3.23089  -1.90464 
 C                     0.95203   2.36364  -0.537 
 C                     1.42913   3.32613  -1.41517 
 H                     4.54576   2.10296  -1.90238 
 H                     1.36426   0.56676   0.53491 
 H                     3.10649   3.97813  -2.5973 
 H                    -0.06364   2.43711  -0.16248 
 N                    -4.07158   0.19929   0.13789 
 C                    -5.37966  -0.33076   0.1925 
 C                    -6.46407   0.38186  -0.30812 
 C                    -5.6159   -1.58378   0.75848 
 C                    -7.74803  -0.13541  -0.23737 
 C                    -6.89074  -2.11387   0.80878 
 C                    -7.96633  -1.38872   0.31473 
 H                    -6.30118   1.35925  -0.7522 
 H                    -4.77999  -2.14815   1.16092 
 H                    -8.58276   0.44229  -0.63053 
 H                    -7.07135  -3.09018   1.24785 
 C                    -3.86307   1.57986   0.373 
 C                    -4.4883    2.22833   1.436 
 C                    -3.028     2.32052  -0.45569 
 C                    -4.28852   3.5775    1.66229 
 C                    -2.80216   3.6666   -0.21896 
 C                    -3.43522   4.30069   0.84052 
 H                    -5.14118   1.66175   2.09352 
 H                    -2.53359   1.82899  -1.28837 
 H                    -4.77415   4.08178   2.49202 
 H                    -2.12566   4.22018  -0.86772 
 O                     0.58459   4.34391  -1.76917 
 H                     1.03059   4.92017  -2.39978 
 O                     9.09526   1.66145   1.30836 
 H                     9.76322   1.15951   0.82796 
 O                    -9.20972  -1.95354   0.4003 
 H                    -9.85952  -1.34706   0.02865 
 O                    -3.25401   5.62795   1.11675 
 H                    -2.60943   5.99136   0.49935 
 
 ITRead=  0  0  0  0  0  0  0  0  0  0  0  0  0  0  0  0  0  0  0  0
 ITRead=  0  0  0  0  0  0  0  0  0  0  0  0  0  0  0  0  0  0  0  0
 ITRead=  0  0  0  0  0  0  0  0  0  0  0  0  0  0  0  0  0  0  0  0
 ITRead=  0  0  0  0  0  0  0  0  0  0  0  0
 MicOpt= -1 -1 -1 -1 -1 -1 -1 -1 -1 -1 -1 -1 -1 -1 -1 -1 -1 -1 -1 -1
 MicOpt= -1 -1 -1 -1 -1 -1 -1 -1 -1 -1 -1 -1 -1 -1 -1 -1 -1 -1 -1 -1
 MicOpt= -1 -1 -1 -1 -1 -1 -1 -1 -1 -1 -1 -1 -1 -1 -1 -1 -1 -1 -1 -1
 MicOpt= -1 -1 -1 -1 -1 -1 -1 -1 -1 -1 -1 -1
 NAtoms=     72 NQM=       72 NQMF=       0 NMMI=      0 NMMIF=      0
                NMic=       0 NMicF=      0.
                    Isotopes and Nuclear Properties:
 (Nuclear quadrupole moments (NQMom) in fm**2, nuclear magnetic moments (NMagM)
  in nuclear magnetons)

  Atom         1           2           3           4           5           6           7           8           9          10
 IAtWgt=          12          12          32          12          12          12          12          12           1          12
 AtmWgt=  12.0000000  12.0000000  31.9720718  12.0000000  12.0000000  12.0000000  12.0000000  12.0000000   1.0078250  12.0000000
 NucSpn=           0           0           0           0           0           0           0           0           1           0
 AtZEff=  -0.0000000  -0.0000000  -0.0000000  -0.0000000  -0.0000000  -0.0000000  -0.0000000  -0.0000000  -0.0000000  -0.0000000
 NQMom=    0.0000000   0.0000000   0.0000000   0.0000000   0.0000000   0.0000000   0.0000000   0.0000000   0.0000000   0.0000000
 NMagM=    0.0000000   0.0000000   0.0000000   0.0000000   0.0000000   0.0000000   0.0000000   0.0000000   2.7928460   0.0000000
 AtZNuc=   6.0000000   6.0000000  16.0000000   6.0000000   6.0000000   6.0000000   6.0000000   6.0000000   1.0000000   6.0000000

  Atom        11          12          13          14          15          16          17          18          19          20
 IAtWgt=          12          12          12           1           1           1          12           1           1           1
 AtmWgt=  12.0000000  12.0000000  12.0000000   1.0078250   1.0078250   1.0078250  12.0000000   1.0078250   1.0078250   1.0078250
 NucSpn=           0           0           0           1           1           1           0           1           1           1
 AtZEff=  -0.0000000  -0.0000000  -0.0000000  -0.0000000  -0.0000000  -0.0000000  -0.0000000  -0.0000000  -0.0000000  -0.0000000
 NQMom=    0.0000000   0.0000000   0.0000000   0.0000000   0.0000000   0.0000000   0.0000000   0.0000000   0.0000000   0.0000000
 NMagM=    0.0000000   0.0000000   0.0000000   2.7928460   2.7928460   2.7928460   0.0000000   2.7928460   2.7928460   2.7928460
 AtZNuc=   6.0000000   6.0000000   6.0000000   1.0000000   1.0000000   1.0000000   6.0000000   1.0000000   1.0000000   1.0000000

  Atom        21          22          23          24          25          26          27          28          29          30
 IAtWgt=           1          32          14          12          12          12          12          12          12           1
 AtmWgt=   1.0078250  31.9720718  14.0030740  12.0000000  12.0000000  12.0000000  12.0000000  12.0000000  12.0000000   1.0078250
 NucSpn=           1           0           2           0           0           0           0           0           0           1
 AtZEff=  -0.0000000  -0.0000000  -0.0000000  -0.0000000  -0.0000000  -0.0000000  -0.0000000  -0.0000000  -0.0000000  -0.0000000
 NQMom=    0.0000000   0.0000000   2.0440000   0.0000000   0.0000000   0.0000000   0.0000000   0.0000000   0.0000000   0.0000000
 NMagM=    2.7928460   0.0000000   0.4037610   0.0000000   0.0000000   0.0000000   0.0000000   0.0000000   0.0000000   2.7928460
 AtZNuc=   1.0000000  16.0000000   7.0000000   6.0000000   6.0000000   6.0000000   6.0000000   6.0000000   6.0000000   1.0000000

  Atom        31          32          33          34          35          36          37          38          39          40
 IAtWgt=           1           1           1          12          12          12          12          12          12           1
 AtmWgt=   1.0078250   1.0078250   1.0078250  12.0000000  12.0000000  12.0000000  12.0000000  12.0000000  12.0000000   1.0078250
 NucSpn=           1           1           1           0           0           0           0           0           0           1
 AtZEff=  -0.0000000  -0.0000000  -0.0000000  -0.0000000  -0.0000000  -0.0000000  -0.0000000  -0.0000000  -0.0000000  -0.0000000
 NQMom=    0.0000000   0.0000000   0.0000000   0.0000000   0.0000000   0.0000000   0.0000000   0.0000000   0.0000000   0.0000000
 NMagM=    2.7928460   2.7928460   2.7928460   0.0000000   0.0000000   0.0000000   0.0000000   0.0000000   0.0000000   2.7928460
 AtZNuc=   1.0000000   1.0000000   1.0000000   6.0000000   6.0000000   6.0000000   6.0000000   6.0000000   6.0000000   1.0000000

  Atom        41          42          43          44          45          46          47          48          49          50
 IAtWgt=           1           1           1          14          12          12          12          12          12          12
 AtmWgt=   1.0078250   1.0078250   1.0078250  14.0030740  12.0000000  12.0000000  12.0000000  12.0000000  12.0000000  12.0000000
 NucSpn=           1           1           1           2           0           0           0           0           0           0
 AtZEff=  -0.0000000  -0.0000000  -0.0000000  -0.0000000  -0.0000000  -0.0000000  -0.0000000  -0.0000000  -0.0000000  -0.0000000
 NQMom=    0.0000000   0.0000000   0.0000000   2.0440000   0.0000000   0.0000000   0.0000000   0.0000000   0.0000000   0.0000000
 NMagM=    2.7928460   2.7928460   2.7928460   0.4037610   0.0000000   0.0000000   0.0000000   0.0000000   0.0000000   0.0000000
 AtZNuc=   1.0000000   1.0000000   1.0000000   7.0000000   6.0000000   6.0000000   6.0000000   6.0000000   6.0000000   6.0000000

  Atom        51          52          53          54          55          56          57          58          59          60
 IAtWgt=           1           1           1           1          12          12          12          12          12          12
 AtmWgt=   1.0078250   1.0078250   1.0078250   1.0078250  12.0000000  12.0000000  12.0000000  12.0000000  12.0000000  12.0000000
 NucSpn=           1           1           1           1           0           0           0           0           0           0
 AtZEff=  -0.0000000  -0.0000000  -0.0000000  -0.0000000  -0.0000000  -0.0000000  -0.0000000  -0.0000000  -0.0000000  -0.0000000
 NQMom=    0.0000000   0.0000000   0.0000000   0.0000000   0.0000000   0.0000000   0.0000000   0.0000000   0.0000000   0.0000000
 NMagM=    2.7928460   2.7928460   2.7928460   2.7928460   0.0000000   0.0000000   0.0000000   0.0000000   0.0000000   0.0000000
 AtZNuc=   1.0000000   1.0000000   1.0000000   1.0000000   6.0000000   6.0000000   6.0000000   6.0000000   6.0000000   6.0000000

  Atom        61          62          63          64          65          66          67          68          69          70
 IAtWgt=           1           1           1           1          16           1          16           1          16           1
 AtmWgt=   1.0078250   1.0078250   1.0078250   1.0078250  15.9949146   1.0078250  15.9949146   1.0078250  15.9949146   1.0078250
 NucSpn=           1           1           1           1           0           1           0           1           0           1
 AtZEff=  -0.0000000  -0.0000000  -0.0000000  -0.0000000  -0.0000000  -0.0000000  -0.0000000  -0.0000000  -0.0000000  -0.0000000
 NQMom=    0.0000000   0.0000000   0.0000000   0.0000000   0.0000000   0.0000000   0.0000000   0.0000000   0.0000000   0.0000000
 NMagM=    2.7928460   2.7928460   2.7928460   2.7928460   0.0000000   2.7928460   0.0000000   2.7928460   0.0000000   2.7928460
 AtZNuc=   1.0000000   1.0000000   1.0000000   1.0000000   8.0000000   1.0000000   8.0000000   1.0000000   8.0000000   1.0000000

  Atom        71          72
 IAtWgt=          16           1
 AtmWgt=  15.9949146   1.0078250
 NucSpn=           0           1
 AtZEff=  -0.0000000  -0.0000000
 NQMom=    0.0000000   0.0000000
 NMagM=    0.0000000   2.7928460
 AtZNuc=   8.0000000   1.0000000
 Leave Link  101 at Thu Jan 21 15:04:43 2021, MaxMem=  4026531840 cpu:               0.7 elap:               0.1
 (Enter /opt/ohpc/pub/libs/gaussian/g16-A.03/sandybridge/g16/l202.exe)
 Stoichiometry    C36H28N2O4S2(1+,2)
 Framework group  C1[X(C36H28N2O4S2)]
 Deg. of freedom   210
 Full point group                 C1      NOp   1
 Largest Abelian subgroup         C1      NOp   1
 Largest concise Abelian subgroup C1      NOp   1
                         Standard orientation:                         
 ---------------------------------------------------------------------
 Center     Atomic      Atomic             Coordinates (Angstroms)
 Number     Number       Type             X           Y           Z
 ---------------------------------------------------------------------
      1          6           0       -1.748928    0.489907   -0.452051
      2          6           0       -0.626174    1.279763   -0.152570
      3         16           0        1.952753    5.388628   -0.812439
      4          6           0       -0.882312    2.170069    0.820725
      5          6           0        1.932708    2.897266    0.476539
      6          6           0        2.566514    3.761438   -0.418550
      7          6           0       -2.975354    0.631957    0.195801
      8          6           0       -2.049066    2.386893    1.545961
      9          1           0        0.246316    4.468801    0.586079
     10          6           0        2.384401    1.613824    0.700024
     11          6           0        3.673888    3.269502   -1.095477
     12          6           0        4.135912    1.984797   -0.893895
     13          6           0        3.494497    1.125461    0.002977
     14          1           0        1.857267    0.971131    1.395345
     15          1           0        4.176334    3.912174   -1.811785
     16          1           0        4.992977    1.632150   -1.456718
     17          6           0       -3.122467    1.590215    1.210611
     18          1           0       -1.688273   -0.276733   -1.226088
     19          1           0        2.539000    6.051116    0.206249
     20          1           0       -2.132551    3.120151    2.347153
     21          1           0       -4.068236    1.688167    1.734116
     22         16           0        0.491419    3.391365    1.378930
     23          7           0        3.940024   -0.175839    0.195205
     24          6           0        5.265040   -0.539150   -0.184549
     25          6           0        5.479402   -1.520085   -1.147894
     26          6           0        6.360048    0.068673    0.412912
     27          6           0        6.761446   -1.889048   -1.505778
     28          6           0        7.649207   -0.280692    0.044528
     29          6           0        7.852726   -1.265560   -0.913210
     30          1           0        4.624132   -2.002234   -1.612555
     31          1           0        6.198832    0.830082    1.170918
     32          1           0        6.936355   -2.656092   -2.253454
     33          1           0        8.499101    0.206598    0.518215
     34          6           0        3.067884   -1.217797    0.624973
     35          6           0        3.533169   -2.175669    1.516644
     36          6           0        1.768428   -1.324352    0.133595
     37          6           0        2.723890   -3.230889    1.904642
     38          6           0        0.952027   -2.363639    0.537000
     39          6           0        1.429133   -3.326131    1.415171
     40          1           0        4.545758   -2.102962    1.902377
     41          1           0        1.364259   -0.566763   -0.534909
     42          1           0        3.106488   -3.978127    2.597301
     43          1           0       -0.063643   -2.437107    0.162477
     44          7           0       -4.071583   -0.199288   -0.137893
     45          6           0       -5.379657    0.330758   -0.192504
     46          6           0       -6.464072   -0.381862    0.308117
     47          6           0       -5.615898    1.583782   -0.758482
     48          6           0       -7.748035    0.135409    0.237366
     49          6           0       -6.890741    2.113870   -0.808775
     50          6           0       -7.966332    1.388715   -0.314728
     51          1           0       -6.301182   -1.359246    0.752201
     52          1           0       -4.779992    2.148147   -1.160920
     53          1           0       -8.582756   -0.442294    0.630527
     54          1           0       -7.071352    3.090185   -1.247847
     55          6           0       -3.863071   -1.579858   -0.373004
     56          6           0       -4.488297   -2.228332   -1.435995
     57          6           0       -3.028002   -2.320518    0.455690
     58          6           0       -4.288516   -3.577498   -1.662294
     59          6           0       -2.802155   -3.666597    0.218956
     60          6           0       -3.435225   -4.300687   -0.840523
     61          1           0       -5.141183   -1.661753   -2.093518
     62          1           0       -2.533592   -1.828985    1.288374
     63          1           0       -4.774148   -4.081779   -2.492022
     64          1           0       -2.125658   -4.220184    0.867724
     65          8           0        0.584592   -4.343911    1.769173
     66          1           0        1.030590   -4.920168    2.399784
     67          8           0        9.095256   -1.661445   -1.308356
     68          1           0        9.763222   -1.159512   -0.827959
     69          8           0       -9.209724    1.953542   -0.400297
     70          1           0       -9.859516    1.347058   -0.028653
     71          8           0       -3.254007   -5.627948   -1.116747
     72          1           0       -2.609433   -5.991357   -0.499352
 ---------------------------------------------------------------------
 Rotational constants (GHZ):           0.1003685           0.0370235           0.0288534
 Leave Link  202 at Thu Jan 21 15:04:43 2021, MaxMem=  4026531840 cpu:               0.3 elap:               0.1
 (Enter /opt/ohpc/pub/libs/gaussian/g16-A.03/sandybridge/g16/l301.exe)
 Standard basis: TZVP (5D, 7F)
 Ernie: Thresh=  0.10000D-02 Tol=  0.10000D-05 Strict=F.
 There are  1054 symmetry adapted cartesian basis functions of A   symmetry.
 There are  1010 symmetry adapted basis functions of A   symmetry.
  1010 basis functions,  1788 primitive gaussians,  1054 cartesian basis functions
   161 alpha electrons      160 beta electrons
       nuclear repulsion energy      5277.7236652844 Hartrees.
 IExCor=33909 DFT=T Ex+Corr=LC-wHPBE ExCW=0 ScaHFX=  1.000000
 ScaDFX=  1.000000  1.000000  1.000000  1.000000 ScalE2=  1.000000  1.000000
 IRadAn=      5 IRanWt=     -1 IRanGd=            0 ICorTp=0 IEmpDi=  4
 HFx  wShort=  0.000000 wLong=  0.115700 cFull=  0.000000 cShort=  0.000000 cLong=  1.000000
 DFx  wShort=  0.000000 wLong=  0.115700 cFull=  0.000000 cShort=  1.000000 cLong=  0.000000
 NAtoms=   72 NActive=   72 NUniq=   72 SFac= 1.00D+00 NAtFMM=   60 NAOKFM=T Big=T
 Integral buffers will be    131072 words long.
 Raffenetti 2 integral format.
 Two-electron integral symmetry is turned on.
 Leave Link  301 at Thu Jan 21 15:04:43 2021, MaxMem=  4026531840 cpu:               0.3 elap:               0.1
 (Enter /opt/ohpc/pub/libs/gaussian/g16-A.03/sandybridge/g16/l302.exe)
 NPDir=0 NMtPBC=     1 NCelOv=     1 NCel=       1 NClECP=     1 NCelD=      1
         NCelK=      1 NCelE2=     1 NClLst=     1 CellRange=     0.0.
 One-electron integrals computed using PRISM.
 One-electron integral symmetry used in STVInt
 NBasis=  1010 RedAO= T EigKep=  6.33D-06  NBF=  1010
 NBsUse=  1010 1.00D-06 EigRej= -1.00D+00 NBFU=  1010
 Precomputing XC quadrature grid using
 IXCGrd= 4 IRadAn=           5 IRanWt=          -1 IRanGd=           0 AccXCQ= 0.00D+00.
 Generated NRdTot=       0 NPtTot=           0 NUsed=           0 NTot=          32
 NSgBfM=   960   960   960   960   960 MxSgAt=    72 MxSgA2=    72.
 Leave Link  302 at Thu Jan 21 15:04:48 2021, MaxMem=  4026531840 cpu:              28.2 elap:               4.8
 (Enter /opt/ohpc/pub/libs/gaussian/g16-A.03/sandybridge/g16/l303.exe)
 DipDrv:  MaxL=1.
 Leave Link  303 at Thu Jan 21 15:04:48 2021, MaxMem=  4026531840 cpu:               1.2 elap:               0.3
 (Enter /opt/ohpc/pub/libs/gaussian/g16-A.03/sandybridge/g16/l401.exe)
 ExpMin= 9.52D-02 ExpMax= 6.07D+04 ExpMxC= 2.07D+03 IAcc=3 IRadAn=         5 AccDes= 0.00D+00
 Harris functional with IExCor=33909 and IRadAn=       5 diagonalized for initial guess.
 HarFok:  IExCor=33909 AccDes= 0.00D+00 IRadAn=         5 IDoV= 1 UseB2=F ITyADJ=14
 ICtDFT=  3500011 ScaDFX=  1.000000  1.000000  1.000000  1.000000
 FoFCou: FMM=F IPFlag=           0 FMFlag=      100000 FMFlg1=        2001
         NFxFlg=           0 DoJE=T BraDBF=F KetDBF=T FulRan=T
         wScrn=  0.000000 ICntrl=       500 IOpCl=  0 I1Cent=   200000004 NGrid=           0
         NMat0=    1 NMatS0=      1 NMatT0=    0 NMatD0=    1 NMtDS0=    0 NMtDT0=    0
 Petite list used in FoFCou.
 Harris En= -2573.46303443763    
 JPrj=0 DoOrth=F DoCkMO=F.
 Initial guess <Sx>= 0.0000 <Sy>= 0.0000 <Sz>= 0.5000 <S**2>= 0.7500 S= 0.5000
 Leave Link  401 at Thu Jan 21 15:05:02 2021, MaxMem=  4026531840 cpu:             110.6 elap:              14.0
 (Enter /opt/ohpc/pub/libs/gaussian/g16-A.03/sandybridge/g16/l502.exe)
 Integral symmetry usage will be decided dynamically.
 UHF open shell SCF:
 Using DIIS extrapolation, IDIIS=    10.
 NGot=  4026531840 LenX=  4024291472 LenY=  4023179502
 Requested convergence on RMS density matrix=1.00D-06 within  32 cycles.
 Requested convergence on MAX density matrix=1.00D-04.
 Requested convergence on             energy=1.00D-04.
 Virtual orbitals will be shifted by   0.500 hartree.
 No special actions if energy rises.
 Dynamic level shift is on during FON iterations.

 Cycle   1  Pass 1  IDiag  1:
 FoFJK:  IHMeth= 1 ICntrl=       0 DoSepK=T KAlg= 0 I1Cent=           0 FoldK=F
 IRaf=         1 NMat=       1 IRICut=       1 DoRegI=T DoRafI=F ISym2E= 0 IDoP0=0 IntGTp=1.
 FoFCou: FMM=T IPFlag=           0 FMFlag=      100000 FMFlg1=        2001
         NFxFlg=           0 DoJE=T BraDBF=F KetDBF=F FulRan=T
         wScrn=  0.000000 ICntrl=       500 IOpCl=  0 I1Cent=           0 NGrid=           0
         NMat0=    1 NMatS0=      1 NMatT0=    0 NMatD0=    1 NMtDS0=    0 NMtDT0=    0
 Symmetry not used in FoFCou.
 FMM levels:  10  Number of levels for PrismC:   9
 E= -2592.59608240723    
 DIIS: error= 3.92D-02 at cycle   1 NSaved=   1.
 NSaved= 1 IEnMin= 1 EnMin= -2592.59608240723     IErMin= 1 ErrMin= 3.92D-02
 ErrMax= 3.92D-02  0.00D+00 EMaxC= 1.00D+00 BMatC= 3.92D+00 BMatP= 3.92D+00
 IDIUse=1 WtCom= 1.00D+00 WtEn= 0.00D+00
 Coeff-Com:  0.100D+01
 Coeff:      0.100D+01
 Gap=     0.433 Goal=   None    Shift=    0.500
 T= 1656. Gap= 0.370 NK=0 IS=  162 IE= 1010 IFin=  161
          NO(<0.9)=   0  NV(>0.1)=   0    161.00e < EF      0.00e >EF  Err=0.0D+00
 Gap=    -0.006 Goal=   None    Shift=    0.500
 T= 1656. Gap= 0.328 NK=0 IS=  161 IE= 1010 IFin=  160
          NO(<0.9)=   0  NV(>0.1)=   0    160.00e < EF      0.00e >EF  Err=0.0D+00
 GapD=   -0.006 DampG=0.250 DampE=0.500 DampFc=0.1250 IDamp=-1.
 Damping current iteration by 1.25D-01
 RMSDP=4.25D-03 MaxDP=5.47D-01              OVMax= 1.72D-01

 Cycle   2  Pass 1  IDiag  1:
 E= -2592.79900734624     Delta-E=       -0.202924939017 Rises=F Damp=T
 DIIS: error= 3.48D-02 at cycle   2 NSaved=   2.
 NSaved= 2 IEnMin= 2 EnMin= -2592.79900734624     IErMin= 2 ErrMin= 3.48D-02
 ErrMax= 3.48D-02  0.00D+00 EMaxC= 1.00D+00 BMatC= 2.69D+00 BMatP= 3.92D+00
 IDIUse=1 WtCom= 1.00D+00 WtEn= 0.00D+00
 Coeff-Com: -0.453D+01 0.553D+01
 Coeff:     -0.453D+01 0.553D+01
 Gap=     0.199 Goal=   None    Shift=    0.500
 T= 1633. Gap= 0.666 NK=4 IS=  162 IE=  184 IFin=  161
          NO(<0.9)=   0  NV(>0.1)=   0    161.00e < EF      0.00e >EF  Err=0.0D+00
 Gap=     0.075 Goal=   None    Shift=    0.500
 T= 1633. Gap= 0.555 NK=4 IS=  161 IE=  182 IFin=  160
          NO(<0.9)=   0  NV(>0.1)=   0    160.00e < EF      0.00e >EF  Err=0.0D+00
 GapD=    0.075 DampG=0.500 DampE=0.500 DampFc=0.2500 IDamp=-1.
 Damping current iteration by 2.50D-01
 RMSDP=3.31D-03 MaxDP=3.69D-01 DE=-2.03D-01 OVMax= 7.29D-02

 Cycle   3  Pass 1  IDiag  1:
 E= -2593.08037063022     Delta-E=       -0.281363283972 Rises=F Damp=T
 DIIS: error= 2.62D-02 at cycle   3 NSaved=   3.
 NSaved= 3 IEnMin= 3 EnMin= -2593.08037063022     IErMin= 3 ErrMin= 2.62D-02
 ErrMax= 2.62D-02  0.00D+00 EMaxC= 1.00D+00 BMatC= 1.36D+00 BMatP= 2.69D+00
 IDIUse=1 WtCom= 1.00D+00 WtEn= 0.00D+00
 Coeff-Com: -0.450D-01-0.234D+01 0.338D+01
 Coeff:     -0.450D-01-0.234D+01 0.338D+01
 Gap=     0.202 Goal=   None    Shift=    0.500
 T= 1560. Gap= 0.694 NK=4 IS=  162 IE=  183 IFin=  161
          NO(<0.9)=   0  NV(>0.1)=   0    161.00e < EF      0.00e >EF  Err=0.0D+00
 Gap=     0.068 Goal=   None    Shift=    0.500
 T= 1560. Gap= 0.567 NK=4 IS=  161 IE=  183 IFin=  160
          NO(<0.9)=   0  NV(>0.1)=   0    160.00e < EF      0.00e >EF  Err=0.0D+00
 GapD=    0.068 DampG=0.500 DampE=0.500 DampFc=0.2500 IDamp=-1.
 Damping current iteration by 2.50D-01
 RMSDP=2.04D-03 MaxDP=1.74D-01 DE=-2.81D-01 OVMax= 3.68D-02

 Cycle   4  Pass 1  IDiag  1:
 E= -2593.24711994022     Delta-E=       -0.166749310004 Rises=F Damp=T
 DIIS: error= 2.05D-02 at cycle   4 NSaved=   4.
 NSaved= 4 IEnMin= 4 EnMin= -2593.24711994022     IErMin= 4 ErrMin= 2.05D-02
 ErrMax= 2.05D-02  0.00D+00 EMaxC= 1.00D+00 BMatC= 7.22D-01 BMatP= 1.36D+00
 IDIUse=1 WtCom= 1.00D+00 WtEn= 0.00D+00
 Coeff-Com:  0.534D+00-0.770D+00-0.264D+01 0.388D+01
 Coeff:      0.534D+00-0.770D+00-0.264D+01 0.388D+01
 Gap=     0.197 Goal=   None    Shift=    0.500
 T= 1436. Gap= 0.697 NK=4 IS=  162 IE=  184 IFin=  161
          NO(<0.9)=   0  NV(>0.1)=   0    161.00e < EF      0.00e >EF  Err=0.0D+00
 Gap=     0.071 Goal=   None    Shift=    0.500
 T= 1436. Gap= 0.572 NK=4 IS=  161 IE=  183 IFin=  160
          NO(<0.9)=   0  NV(>0.1)=   0    160.00e < EF      0.00e >EF  Err=0.0D+00
 GapD=    0.071 DampG=0.500 DampE=0.500 DampFc=0.2500 IDamp=-1.
 Damping current iteration by 2.50D-01
 RMSDP=1.36D-03 MaxDP=1.32D-01 DE=-1.67D-01 OVMax= 2.73D-02

 Cycle   5  Pass 1  IDiag  1:
 E= -2593.35342108410     Delta-E=       -0.106301143879 Rises=F Damp=T
 DIIS: error= 1.64D-02 at cycle   5 NSaved=   5.
 NSaved= 5 IEnMin= 5 EnMin= -2593.35342108410     IErMin= 5 ErrMin= 1.64D-02
 ErrMax= 1.64D-02  0.00D+00 EMaxC= 1.00D+00 BMatC= 3.97D-01 BMatP= 7.22D-01
 IDIUse=1 WtCom= 1.00D+00 WtEn= 0.00D+00
 Coeff-Com:  0.103D+00 0.208D+00-0.424D+00-0.341D+01 0.452D+01
 Coeff:      0.103D+00 0.208D+00-0.424D+00-0.341D+01 0.452D+01
 Gap=     0.197 Goal=   None    Shift=    0.500
 T= 1282. Gap= 0.697 NK=4 IS=  162 IE=  184 IFin=  161
          NO(<0.9)=   0  NV(>0.1)=   0    161.00e < EF      0.00e >EF  Err=0.0D+00
 Gap=     0.074 Goal=   None    Shift=    0.500
 T= 1282. Gap= 0.575 NK=4 IS=  161 IE=  183 IFin=  160
          NO(<0.9)=   0  NV(>0.1)=   0    160.00e < EF      0.00e >EF  Err=0.0D+00
 GapD=    0.074 DampG=0.500 DampE=0.500 DampFc=0.2500 IDamp=-1.
 Damping current iteration by 2.50D-01
 RMSDP=9.75D-04 MaxDP=9.67D-02 DE=-1.06D-01 OVMax= 2.67D-02

 Cycle   6  Pass 1  IDiag  1:
 E= -2593.42477665824     Delta-E=       -0.071355574141 Rises=F Damp=T
 DIIS: error= 1.32D-02 at cycle   6 NSaved=   6.
 NSaved= 6 IEnMin= 6 EnMin= -2593.42477665824     IErMin= 6 ErrMin= 1.32D-02
 ErrMax= 1.32D-02  0.00D+00 EMaxC= 1.00D+00 BMatC= 2.22D-01 BMatP= 3.97D-01
 IDIUse=1 WtCom= 1.00D+00 WtEn= 0.00D+00
 Coeff-Com: -0.962D-01 0.309D+00 0.300D+00-0.716D+00-0.392D+01 0.512D+01
 Coeff:     -0.962D-01 0.309D+00 0.300D+00-0.716D+00-0.392D+01 0.512D+01
 Gap=     0.198 Goal=   None    Shift=    0.500
 T= 1145. Gap= 0.698 NK=4 IS=  162 IE=  184 IFin=  161
          NO(<0.9)=   0  NV(>0.1)=   0    161.00e < EF      0.00e >EF  Err=0.0D+00
 Gap=     0.077 Goal=   None    Shift=    0.500
 T= 1145. Gap= 0.578 NK=4 IS=  161 IE=  183 IFin=  160
          NO(<0.9)=   0  NV(>0.1)=   0    160.00e < EF      0.00e >EF  Err=0.0D+00
 GapD=    0.077 DampG=0.500 DampE=0.500 DampFc=0.2500 IDamp=-1.
 Damping current iteration by 2.50D-01
 RMSDP=7.43D-04 MaxDP=6.84D-02 DE=-7.14D-02 OVMax= 2.37D-02

 Cycle   7  Pass 1  IDiag  1:
 E= -2593.47439089993     Delta-E=       -0.049614241689 Rises=F Damp=T
 DIIS: error= 1.09D-02 at cycle   7 NSaved=   7.
 NSaved= 7 IEnMin= 7 EnMin= -2593.47439089993     IErMin= 7 ErrMin= 1.09D-02
 ErrMax= 1.09D-02  0.00D+00 EMaxC= 1.00D+00 BMatC= 1.25D-01 BMatP= 2.22D-01
 IDIUse=1 WtCom= 1.00D+00 WtEn= 0.00D+00
 Coeff-Com: -0.308D-01-0.569D-01 0.320D+00 0.158D+01-0.252D+01-0.487D+01
 Coeff-Com:  0.658D+01
 Coeff:     -0.308D-01-0.569D-01 0.320D+00 0.158D+01-0.252D+01-0.487D+01
 Coeff:      0.658D+01
 Gap=     0.198 Goal=   None    Shift=    0.500
 T= 1017. Gap= 0.697 NK=4 IS=  162 IE=  184 IFin=  161
          NO(<0.9)=   0  NV(>0.1)=   0    161.00e < EF      0.00e >EF  Err=0.0D+00
 Gap=     0.079 Goal=   None    Shift=    0.500
 T= 1017. Gap= 0.580 NK=4 IS=  161 IE=  183 IFin=  160
          NO(<0.9)=   0  NV(>0.1)=   0    160.00e < EF      0.00e >EF  Err=0.0D+00
 GapD=    0.079 DampG=0.500 DampE=0.500 DampFc=0.2500 IDamp=-1.
 Damping current iteration by 2.50D-01
 RMSDP=5.86D-04 MaxDP=4.82D-02 DE=-4.96D-02 OVMax= 1.98D-02

 Cycle   8  Pass 1  IDiag  1:
 E= -2593.50960207712     Delta-E=       -0.035211177193 Rises=F Damp=T
 DIIS: error= 8.95D-03 at cycle   8 NSaved=   8.
 NSaved= 8 IEnMin= 8 EnMin= -2593.50960207712     IErMin= 8 ErrMin= 8.95D-03
 ErrMax= 8.95D-03  0.00D+00 EMaxC= 1.00D+00 BMatC= 7.05D-02 BMatP= 1.25D-01
 IDIUse=1 WtCom= 1.00D+00 WtEn= 0.00D+00
 Coeff-Com:  0.712D-01-0.273D+00 0.122D+00 0.124D+01 0.448D+00-0.307D+01
 Coeff-Com: -0.431D+01 0.677D+01
 Coeff:      0.712D-01-0.273D+00 0.122D+00 0.124D+01 0.448D+00-0.307D+01
 Coeff:     -0.431D+01 0.677D+01
 Gap=     0.197 Goal=   None    Shift=    0.500
 T=  895. Gap= 0.697 NK=4 IS=  162 IE=  184 IFin=  161
          NO(<0.9)=   0  NV(>0.1)=   0    161.00e < EF      0.00e >EF  Err=0.0D+00
 Gap=     0.081 Goal=   None    Shift=    0.500
 T=  895. Gap= 0.582 NK=4 IS=  161 IE=  183 IFin=  160
          NO(<0.9)=   0  NV(>0.1)=   0    160.00e < EF      0.00e >EF  Err=0.0D+00
 GapD=    0.081 DampG=0.500 DampE=1.000 DampFc=0.5000 IDamp=-1.
 Damping current iteration by 5.00D-01
 RMSDP=4.78D-04 MaxDP=4.72D-02 DE=-3.52D-02 OVMax= 1.93D-02

 Cycle   9  Pass 1  IDiag  1:
 E= -2593.55961992847     Delta-E=       -0.050017851352 Rises=F Damp=T
 DIIS: error= 5.99D-03 at cycle   9 NSaved=   9.
 NSaved= 9 IEnMin= 9 EnMin= -2593.55961992847     IErMin= 9 ErrMin= 5.99D-03
 ErrMax= 5.99D-03  0.00D+00 EMaxC= 1.00D+00 BMatC= 1.83D-02 BMatP= 7.05D-02
 IDIUse=1 WtCom= 1.00D+00 WtEn= 0.00D+00
 Coeff-Com:  0.873D-01-0.205D+00-0.106D+00-0.273D+00 0.233D+01 0.182D+01
 Coeff-Com: -0.664D+01 0.453D-01 0.395D+01
 Coeff:      0.873D-01-0.205D+00-0.106D+00-0.273D+00 0.233D+01 0.182D+01
 Coeff:     -0.664D+01 0.453D-01 0.395D+01
 Gap=     0.197 Goal=   None    Shift=    0.500
 T=  746. Gap= 0.697 NK=4 IS=  162 IE=  184 IFin=  161
          NO(<0.9)=   0  NV(>0.1)=   0    161.00e < EF      0.00e >EF  Err=0.0D+00
 Gap=     0.083 Goal=   None    Shift=    0.500
 T=  746. Gap= 0.584 NK=4 IS=  161 IE=  183 IFin=  160
          NO(<0.9)=   0  NV(>0.1)=   0    160.00e < EF      0.00e >EF  Err=0.0D+00
 GapD=    0.083 DampG=0.500 DampE=1.000 DampFc=0.5000 IDamp=-1.
 Damping current iteration by 5.00D-01
 RMSDP=2.84D-04 MaxDP=3.28D-02 DE=-5.00D-02 OVMax= 1.85D-02

 Cycle  10  Pass 1  IDiag  1:
 E= -2593.58375824484     Delta-E=       -0.024138316363 Rises=F Damp=T
 DIIS: error= 4.32D-03 at cycle  10 NSaved=  10.
 NSaved=10 IEnMin=10 EnMin= -2593.58375824484     IErMin=10 ErrMin= 4.32D-03
 ErrMax= 4.32D-03  0.00D+00 EMaxC= 1.00D+00 BMatC= 5.12D-03 BMatP= 1.83D-02
 IDIUse=1 WtCom= 1.00D+00 WtEn= 0.00D+00
 Coeff-Com:  0.988D-02 0.476D-02-0.147D+00-0.417D+00 0.821D+00 0.201D+01
 Coeff-Com: -0.149D+01-0.924D+00-0.421D+01 0.535D+01
 Coeff:      0.988D-02 0.476D-02-0.147D+00-0.417D+00 0.821D+00 0.201D+01
 Coeff:     -0.149D+01-0.924D+00-0.421D+01 0.535D+01
 Gap=     0.197 Goal=   None    Shift=    0.500
 T=  571. Gap= 0.697 NK=4 IS=  162 IE=  184 IFin=  161
          NO(<0.9)=   0  NV(>0.1)=   0    161.00e < EF      0.00e >EF  Err=0.0D+00
 Gap=     0.084 Goal=   None    Shift=    0.500
 T=  571. Gap= 0.585 NK=4 IS=  161 IE=  183 IFin=  160
          NO(<0.9)=   0  NV(>0.1)=   0    160.00e < EF      0.00e >EF  Err=0.0D+00
 GapD=    0.084 DampG=0.500 DampE=1.000 DampFc=0.5000 IDamp=-1.
 Damping current iteration by 5.00D-01
 RMSDP=1.97D-04 MaxDP=2.26D-02 DE=-2.41D-02 OVMax= 1.96D-02

 Cycle  11  Pass 1  IDiag  1:
 E= -2593.59594435716     Delta-E=       -0.012186112318 Rises=F Damp=T
 DIIS: error= 3.25D-03 at cycle  11 NSaved=  11.
 NSaved=11 IEnMin=11 EnMin= -2593.59594435716     IErMin=11 ErrMin= 3.25D-03
 ErrMax= 3.25D-03  0.00D+00 EMaxC= 1.00D+00 BMatC= 1.65D-03 BMatP= 5.12D-03
 IDIUse=1 WtCom= 1.00D+00 WtEn= 0.00D+00
 Coeff-Com: -0.548D-01 0.110D+00 0.163D-01 0.145D+00-0.127D+01-0.107D+01
 Coeff-Com:  0.507D+01 0.593D+00-0.835D+01 0.154D+01 0.427D+01
 Coeff:     -0.548D-01 0.110D+00 0.163D-01 0.145D+00-0.127D+01-0.107D+01
 Coeff:      0.507D+01 0.593D+00-0.835D+01 0.154D+01 0.427D+01
 Gap=     0.197 Goal=   None    Shift=    0.500
 T=  361. Gap= 0.697 NK=4 IS=  162 IE=  184 IFin=  161
          NO(<0.9)=   0  NV(>0.1)=   0    161.00e < EF      0.00e >EF  Err=0.0D+00
 Gap=     0.086 Goal=   None    Shift=    0.500
 T=  361. Gap= 0.586 NK=4 IS=  161 IE=  183 IFin=  160
          NO(<0.9)=   0  NV(>0.1)=   0    160.00e < EF      0.00e >EF  Err=0.0D+00
 GapD=    0.086 DampG=0.500 DampE=1.000 DampFc=0.5000 IDamp=-1.
 Damping current iteration by 5.00D-01
 RMSDP=1.61D-04 MaxDP=1.76D-02 DE=-1.22D-02 OVMax= 2.08D-02

 Cycle  12  Pass 1  IDiag  1:
 E= -2593.60232484552     Delta-E=       -0.006380488365 Rises=F Damp=T
 DIIS: error= 2.48D-03 at cycle  12 NSaved=  12.
 NSaved=12 IEnMin=12 EnMin= -2593.60232484552     IErMin=12 ErrMin= 2.48D-03
 ErrMax= 2.48D-03  0.00D+00 EMaxC= 1.00D+00 BMatC= 6.60D-04 BMatP= 1.65D-03
 IDIUse=1 WtCom= 1.00D+00 WtEn= 0.00D+00
 Coeff-Com: -0.171D-01-0.481D-02 0.160D+00 0.790D-01-0.324D+00-0.275D+01
 Coeff-Com:  0.444D+01 0.646D+00-0.335D+01-0.200D+00-0.194D+01 0.427D+01
 Coeff:     -0.171D-01-0.481D-02 0.160D+00 0.790D-01-0.324D+00-0.275D+01
 Coeff:      0.444D+01 0.646D+00-0.335D+01-0.200D+00-0.194D+01 0.427D+01
 Gap=     0.196 Goal=   None    Shift=    0.500
 T=  181. Gap= 0.696 NK=4 IS=  162 IE=  184 IFin=  161
          NO(<0.9)=   0  NV(>0.1)=   0    161.00e < EF      0.00e >EF  Err=0.0D+00
 Gap=     0.087 Goal=   None    Shift=    0.500
 T=  181. Gap= 0.587 NK=4 IS=  161 IE=  183 IFin=  160
          NO(<0.9)=   0  NV(>0.1)=   0    160.00e < EF      0.00e >EF  Err=0.0D+00
 GapD=    0.087 DampG=0.500 DampE=1.000 DampFc=0.5000 IDamp=-1.
 Damping current iteration by 5.00D-01
 RMSDP=1.34D-04 MaxDP=1.59D-02 DE=-6.38D-03 OVMax= 1.96D-02

 Cycle  13  Pass 1  IDiag  1:
 E= -2593.60577772270     Delta-E=       -0.003452877178 Rises=F Damp=T
 DIIS: error= 1.91D-03 at cycle  13 NSaved=  13.
 NSaved=13 IEnMin=13 EnMin= -2593.60577772270     IErMin=13 ErrMin= 1.91D-03
 ErrMax= 1.91D-03  0.00D+00 EMaxC= 1.00D+00 BMatC= 3.44D-04 BMatP= 6.60D-04
 IDIUse=1 WtCom= 1.00D+00 WtEn= 0.00D+00
 Coeff-Com:  0.193D-01-0.482D-01 0.424D-01-0.250D+00 0.129D+01-0.178D+01
 Coeff-Com:  0.867D+00-0.127D+01 0.265D+01 0.318D+00-0.321D+01-0.323D+01
 Coeff-Com:  0.559D+01
 Coeff:      0.193D-01-0.482D-01 0.424D-01-0.250D+00 0.129D+01-0.178D+01
 Coeff:      0.867D+00-0.127D+01 0.265D+01 0.318D+00-0.321D+01-0.323D+01
 Coeff:      0.559D+01
 Gap=     0.196 Goal=   None    Shift=    0.500
 T=   16. Gap= 0.696 NK=4 IS=  162 IE=  184 IFin=  161
          NO(<0.9)=   0  NV(>0.1)=   0    161.00e < EF      0.00e >EF  Err=0.0D+00
 Gap=     0.087 Goal=   None    Shift=    0.500
 T=   16. Gap= 0.588 NK=4 IS=  161 IE=  183 IFin=  160
          NO(<0.9)=   0  NV(>0.1)=   0    160.00e < EF      0.00e >EF  Err=0.0D+00
 GapD=    0.087 DampG=0.500 DampE=1.000 DampFc=0.5000 IDamp=-1.
 Damping current iteration by 5.00D-01
 RMSDP=1.23D-04 MaxDP=1.55D-02 DE=-3.45D-03 OVMax= 1.92D-02

 Cycle  14  Pass 1  IDiag  1:
 E= -2593.60771786332     Delta-E=       -0.001940140623 Rises=F Damp=T
 DIIS: error= 1.47D-03 at cycle  14 NSaved=  14.
 NSaved=14 IEnMin=14 EnMin= -2593.60771786332     IErMin=14 ErrMin= 1.47D-03
 ErrMax= 1.47D-03  0.00D+00 EMaxC= 1.00D+00 BMatC= 2.33D-04 BMatP= 3.44D-04
 IDIUse=1 WtCom= 1.00D+00 WtEn= 0.00D+00
 Coeff-Com:  0.252D-01-0.308D-01-0.104D+00-0.353D+00 0.205D+01-0.103D+01
 Coeff-Com: -0.978D+00-0.215D+01 0.433D+01 0.148D+01-0.240D+01-0.659D+01
 Coeff-Com:  0.457D+01 0.218D+01
 Coeff:      0.252D-01-0.308D-01-0.104D+00-0.353D+00 0.205D+01-0.103D+01
 Coeff:     -0.978D+00-0.215D+01 0.433D+01 0.148D+01-0.240D+01-0.659D+01
 Coeff:      0.457D+01 0.218D+01
 Gap=     0.196 Goal=   None    Shift=    0.500
 Gap=     0.088 Goal=   None    Shift=    0.500
 GapD=    0.088 DampG=0.500 DampE=1.000 DampFc=0.5000 IDamp=-1.
 Damping current iteration by 5.00D-01
 RMSDP=1.09D-04 MaxDP=1.34D-02 DE=-1.94D-03 OVMax= 1.81D-02

 Cycle  15  Pass 1  IDiag  1:
 E= -2593.60886674641     Delta-E=       -0.001148883091 Rises=F Damp=T
 DIIS: error= 1.44D-03 at cycle  15 NSaved=  15.
 NSaved=15 IEnMin=15 EnMin= -2593.60886674641     IErMin=15 ErrMin= 1.44D-03
 ErrMax= 1.44D-03  0.00D+00 EMaxC= 1.00D+00 BMatC= 1.81D-04 BMatP= 2.33D-04
 IDIUse=1 WtCom= 1.00D+00 WtEn= 0.00D+00
 Coeff-Com:  0.367D-02 0.479D-01-0.250D+00-0.273D+00 0.159D+01 0.101D+00
 Coeff-Com: -0.130D+01-0.171D+01 0.122D+01 0.311D+01 0.588D+00-0.680D+01
 Coeff-Com:  0.528D+01-0.804D+01 0.743D+01
 Coeff:      0.367D-02 0.479D-01-0.250D+00-0.273D+00 0.159D+01 0.101D+00
 Coeff:     -0.130D+01-0.171D+01 0.122D+01 0.311D+01 0.588D+00-0.680D+01
 Coeff:      0.528D+01-0.804D+01 0.743D+01
 Gap=     0.195 Goal=   None    Shift=    0.500
 Gap=     0.089 Goal=   None    Shift=    0.500
 GapD=    0.089 DampG=0.500 DampE=1.000 DampFc=0.5000 IDamp=-1.
 Damping current iteration by 5.00D-01
 RMSDP=1.18D-04 MaxDP=1.59D-02 DE=-1.15D-03 OVMax= 1.96D-02

 Cycle  16  Pass 1  IDiag  1:
 E= -2593.60958559135     Delta-E=       -0.000718844939 Rises=F Damp=T
 DIIS: error= 1.46D-03 at cycle  16 NSaved=  16.
 NSaved=16 IEnMin=16 EnMin= -2593.60958559135     IErMin=15 ErrMin= 1.44D-03
 ErrMax= 1.46D-03  0.00D+00 EMaxC= 1.00D+00 BMatC= 1.82D-04 BMatP= 1.81D-04
 IDIUse=1 WtCom= 1.00D+00 WtEn= 0.00D+00
 Coeff-Com:  0.151D-02 0.504D-01-0.243D+00-0.274D+00 0.156D+01 0.132D-01
 Coeff-Com: -0.115D+01-0.155D+01 0.777D+00 0.318D+01 0.708D+00-0.638D+01
 Coeff-Com:  0.548D+01-0.912D+01 0.762D+01 0.330D+00
 Coeff:      0.151D-02 0.504D-01-0.243D+00-0.274D+00 0.156D+01 0.132D-01
 Coeff:     -0.115D+01-0.155D+01 0.777D+00 0.318D+01 0.708D+00-0.638D+01
 Coeff:      0.548D+01-0.912D+01 0.762D+01 0.330D+00
 Gap=     0.195 Goal=   None    Shift=    0.500
 Gap=     0.089 Goal=   None    Shift=    0.500
 GapD=    0.089 DampG=0.500 DampE=1.000 DampFc=0.5000 IDamp=-1.
 Damping current iteration by 5.00D-01
 RMSDP=9.94D-05 MaxDP=1.20D-02 DE=-7.19D-04 OVMax= 1.66D-02

 Cycle  17  Pass 1  IDiag  1:
 E= -2593.61007602954     Delta-E=       -0.000490438195 Rises=F Damp=T
 DIIS: error= 1.44D-03 at cycle  17 NSaved=  17.
 NSaved=17 IEnMin=17 EnMin= -2593.61007602954     IErMin=15 ErrMin= 1.44D-03
 ErrMax= 1.44D-03  0.00D+00 EMaxC= 1.00D+00 BMatC= 1.74D-04 BMatP= 1.81D-04
 IDIUse=1 WtCom= 1.00D+00 WtEn= 0.00D+00
 Large coefficients: NSaved= 17 BigCof=   11.97 CofMax=   10.00 Det=-1.16D-07
 Inversion failed.  Reducing to 16 matrices.
 Large coefficients: NSaved= 16 BigCof=   11.82 CofMax=   10.00 Det=-1.24D-07
 Inversion failed.  Reducing to 15 matrices.
 Large coefficients: NSaved= 15 BigCof=   12.07 CofMax=   10.00 Det=-1.24D-07
 Inversion failed.  Reducing to 14 matrices.
 Large coefficients: NSaved= 14 BigCof=   12.42 CofMax=   10.00 Det=-1.24D-07
 Inversion failed.  Reducing to 13 matrices.
 Large coefficients: NSaved= 13 BigCof=   12.56 CofMax=   10.00 Det=-1.25D-07
 Inversion failed.  Reducing to 12 matrices.
 Large coefficients: NSaved= 12 BigCof=   12.10 CofMax=   10.00 Det=-1.26D-07
 Inversion failed.  Reducing to 11 matrices.
 Large coefficients: NSaved= 11 BigCof=   12.21 CofMax=   10.00 Det=-1.32D-07
 Inversion failed.  Reducing to 10 matrices.
 Large coefficients: NSaved= 10 BigCof=   12.20 CofMax=   10.00 Det=-1.41D-07
 Inversion failed.  Reducing to  9 matrices.
 Large coefficients: NSaved=  9 BigCof=   12.25 CofMax=   10.00 Det=-1.76D-07
 Inversion failed.  Reducing to  8 matrices.
 Large coefficients: NSaved=  8 BigCof=   12.69 CofMax=   10.00 Det=-1.84D-07
 Inversion failed.  Reducing to  7 matrices.
 Large coefficients: NSaved=  7 BigCof=   12.69 CofMax=   10.00 Det=-2.13D-07
 Inversion failed.  Reducing to  6 matrices.
 Large coefficients: NSaved=  6 BigCof=   12.66 CofMax=   10.00 Det=-2.93D-07
 Inversion failed.  Reducing to  5 matrices.
 Large coefficients: NSaved=  5 BigCof=   13.21 CofMax=   10.00 Det=-3.31D-07
 Inversion failed.  Reducing to  4 matrices.
 Large coefficients: NSaved=  4 BigCof=   14.42 CofMax=   10.00 Det=-3.67D-07
 Inversion failed.  Reducing to  3 matrices.
 Large coefficients: NSaved=  3 BigCof=   15.59 CofMax=   10.00 Det=-3.77D-07
 Inversion failed.  Reducing to  2 matrices.
 Coeff-Com: -0.401D+00 0.140D+01
 Coeff:     -0.401D+00 0.140D+01
 Gap=     0.196 Goal=   None    Shift=    0.500
 Gap=     0.088 Goal=   None    Shift=    0.500
 GapD=    0.088 DampG=0.500 DampE=1.000 DampFc=0.5000 IDamp=-1.
 Damping current iteration by 5.00D-01
 RMSDP=5.30D-05 MaxDP=5.04D-03 DE=-4.90D-04 OVMax= 9.25D-03

 Cycle  18  Pass 1  IDiag  1:
 E= -2593.61042416859     Delta-E=       -0.000348139050 Rises=F Damp=T
 DIIS: error= 1.17D-03 at cycle  18 NSaved=   3.
 NSaved= 3 IEnMin= 3 EnMin= -2593.61042416859     IErMin= 3 ErrMin= 1.17D-03
 ErrMax= 1.17D-03  0.00D+00 EMaxC= 1.00D+00 BMatC= 7.39D-05 BMatP= 1.74D-04
 IDIUse=1 WtCom= 1.00D+00 WtEn= 0.00D+00
 Coeff-Com: -0.222D+01 0.200D+01 0.121D+01
 Coeff:     -0.222D+01 0.200D+01 0.121D+01
 Gap=     0.195 Goal=   None    Shift=    0.500
 Gap=     0.089 Goal=   None    Shift=    0.500
 GapD=    0.089 DampG=0.500 DampE=1.000 DampFc=0.5000 IDamp=-1.
 Damping current iteration by 5.00D-01
 RMSDP=5.94D-05 MaxDP=6.55D-03 DE=-3.48D-04 OVMax= 1.20D-02

 Cycle  19  Pass 1  IDiag  1:
 E= -2593.61065988159     Delta-E=       -0.000235712997 Rises=F Damp=T
 DIIS: error= 1.09D-03 at cycle  19 NSaved=   4.
 NSaved= 4 IEnMin= 4 EnMin= -2593.61065988159     IErMin= 4 ErrMin= 1.09D-03
 ErrMax= 1.09D-03  0.00D+00 EMaxC= 1.00D+00 BMatC= 6.38D-05 BMatP= 7.39D-05
 IDIUse=1 WtCom= 1.00D+00 WtEn= 0.00D+00
 Coeff-Com: -0.240D+01 0.228D+01-0.116D+01 0.228D+01
 Coeff:     -0.240D+01 0.228D+01-0.116D+01 0.228D+01
 Gap=     0.194 Goal=   None    Shift=    0.500
 Gap=     0.090 Goal=   None    Shift=    0.500
 GapD=    0.090 DampG=0.500 DampE=1.000 DampFc=0.5000 IDamp=-1.
 Damping current iteration by 5.00D-01
 RMSDP=8.48D-05 MaxDP=1.21D-02 DE=-2.36D-04 OVMax= 1.38D-02

 Cycle  20  Pass 1  IDiag  1:
 E= -2593.61084356105     Delta-E=       -0.000183679457 Rises=F Damp=T
 DIIS: error= 1.12D-03 at cycle  20 NSaved=   5.
 NSaved= 5 IEnMin= 5 EnMin= -2593.61084356105     IErMin= 4 ErrMin= 1.09D-03
 ErrMax= 1.12D-03  0.00D+00 EMaxC= 1.00D+00 BMatC= 6.27D-05 BMatP= 6.38D-05
 IDIUse=1 WtCom= 1.00D+00 WtEn= 0.00D+00
 Coeff-Com: -0.650D+00-0.674D+00 0.995D+00-0.242D+01 0.375D+01
 Coeff:     -0.650D+00-0.674D+00 0.995D+00-0.242D+01 0.375D+01
 Gap=     0.194 Goal=   None    Shift=    0.500
 Gap=     0.091 Goal=   None    Shift=    0.500
 GapD=    0.091 DampG=0.500 DampE=1.000 DampFc=0.5000 IDamp=-1.
 Damping current iteration by 5.00D-01
 RMSDP=9.58D-05 MaxDP=1.45D-02 DE=-1.84D-04 OVMax= 1.43D-02

 Cycle  21  Pass 1  IDiag  1:
 E= -2593.61099152531     Delta-E=       -0.000147964262 Rises=F Damp=T
 DIIS: error= 1.17D-03 at cycle  21 NSaved=   6.
 NSaved= 6 IEnMin= 6 EnMin= -2593.61099152531     IErMin= 4 ErrMin= 1.09D-03
 ErrMax= 1.17D-03  0.00D+00 EMaxC= 1.00D+00 BMatC= 9.78D-05 BMatP= 6.27D-05
 IDIUse=1 WtCom= 1.00D+00 WtEn= 0.00D+00
 Coeff-Com:  0.142D+01-0.413D+01 0.310D+01-0.317D+01 0.434D+00 0.334D+01
 Coeff:      0.142D+01-0.413D+01 0.310D+01-0.317D+01 0.434D+00 0.334D+01
 Gap=     0.194 Goal=   None    Shift=    0.500
 Gap=     0.091 Goal=   None    Shift=    0.500
 GapD=    0.091 DampG=0.500 DampE=1.000 DampFc=0.5000 IDamp=-1.
 Damping current iteration by 5.00D-01
 RMSDP=9.65D-05 MaxDP=1.48D-02 DE=-1.48D-04 OVMax= 1.44D-02

 Cycle  22  Pass 1  IDiag  1:
 E= -2593.61111529973     Delta-E=       -0.000123774420 Rises=F Damp=T
 DIIS: error= 1.21D-03 at cycle  22 NSaved=   7.
 NSaved= 7 IEnMin= 7 EnMin= -2593.61111529973     IErMin= 4 ErrMin= 1.09D-03
 ErrMax= 1.21D-03  0.00D+00 EMaxC= 1.00D+00 BMatC= 1.59D-04 BMatP= 6.27D-05
 IDIUse=1 WtCom= 1.00D+00 WtEn= 0.00D+00
 Coeff-Com:  0.137D+01-0.398D+01 0.264D+01-0.204D+01 0.115D+01-0.300D+00
 Coeff-Com:  0.216D+01
 Coeff:      0.137D+01-0.398D+01 0.264D+01-0.204D+01 0.115D+01-0.300D+00
 Coeff:      0.216D+01
 Gap=     0.194 Goal=   None    Shift=    0.500
 Gap=     0.091 Goal=   None    Shift=    0.500
 GapD=    0.091 DampG=0.500 DampE=1.000 DampFc=0.5000 IDamp=-1.
 Damping current iteration by 5.00D-01
 RMSDP=7.95D-05 MaxDP=1.12D-02 DE=-1.24D-04 OVMax= 1.25D-02

 Cycle  23  Pass 1  IDiag  1:
 E= -2593.61123193275     Delta-E=       -0.000116633016 Rises=F Damp=T
 DIIS: error= 1.20D-03 at cycle  23 NSaved=   8.
 NSaved= 8 IEnMin= 8 EnMin= -2593.61123193275     IErMin= 4 ErrMin= 1.09D-03
 ErrMax= 1.20D-03  0.00D+00 EMaxC= 1.00D+00 BMatC= 1.92D-04 BMatP= 6.27D-05
 IDIUse=1 WtCom= 1.00D+00 WtEn= 0.00D+00
 Coeff-Com:  0.131D+01-0.302D+01 0.107D+01-0.735D+00 0.142D+01 0.259D+01
 Coeff-Com: -0.906D+01 0.743D+01
 Coeff:      0.131D+01-0.302D+01 0.107D+01-0.735D+00 0.142D+01 0.259D+01
 Coeff:     -0.906D+01 0.743D+01
 Gap=     0.193 Goal=   None    Shift=    0.500
 Gap=     0.092 Goal=   None    Shift=    0.500
 GapD=    0.092 DampG=0.500 DampE=1.000 DampFc=0.5000 IDamp=-1.
 Damping current iteration by 5.00D-01
 RMSDP=8.16D-05 MaxDP=1.18D-02 DE=-1.17D-04 OVMax= 1.33D-02

 Cycle  24  Pass 1  IDiag  1:
 E= -2593.61132691334     Delta-E=       -0.000094980593 Rises=F Damp=T
 DIIS: error= 1.18D-03 at cycle  24 NSaved=   9.
 NSaved= 9 IEnMin= 9 EnMin= -2593.61132691334     IErMin= 4 ErrMin= 1.09D-03
 ErrMax= 1.18D-03  0.00D+00 EMaxC= 1.00D+00 BMatC= 2.31D-04 BMatP= 6.27D-05
 IDIUse=1 WtCom= 1.00D+00 WtEn= 0.00D+00
 Large coefficients: NSaved=  9 BigCof=   17.18 CofMax=   10.00 Det=-1.78D-08
 Inversion failed.  Reducing to  8 matrices.
 Large coefficients: NSaved=  8 BigCof=   18.22 CofMax=   10.00 Det=-1.94D-08
 Inversion failed.  Reducing to  7 matrices.
 Large coefficients: NSaved=  7 BigCof=   20.99 CofMax=   10.00 Det=-3.64D-08
 Inversion failed.  Reducing to  6 matrices.
 Large coefficients: NSaved=  6 BigCof=   24.21 CofMax=   10.00 Det=-5.03D-08
 Inversion failed.  Reducing to  5 matrices.
 Large coefficients: NSaved=  5 BigCof=   21.64 CofMax=   10.00 Det=-5.94D-08
 Inversion failed.  Reducing to  4 matrices.
 Large coefficients: NSaved=  4 BigCof=   20.97 CofMax=   10.00 Det=-1.08D-07
 Inversion failed.  Reducing to  3 matrices.
 Coeff-Com:  0.386D+01-0.116D+01-0.170D+01
 Coeff:      0.386D+01-0.116D+01-0.170D+01
 Gap=     0.196 Goal=   None    Shift=    0.500
 Gap=     0.089 Goal=   None    Shift=    0.500
 GapD=    0.089 DampG=0.500 DampE=1.000 DampFc=0.5000 IDamp=-1.
 Damping current iteration by 5.00D-01
 RMSDP=1.18D-04 MaxDP=2.25D-02 DE=-9.50D-05 OVMax= 8.31D-03

 Cycle  25  Pass 1  IDiag  1:
 E= -2593.61140268299     Delta-E=       -0.000075769650 Rises=F Damp=T
 DIIS: error= 7.07D-04 at cycle  25 NSaved=   4.
 NSaved= 4 IEnMin= 4 EnMin= -2593.61140268299     IErMin= 4 ErrMin= 7.07D-04
 ErrMax= 7.07D-04  0.00D+00 EMaxC= 1.00D+00 BMatC= 2.70D-05 BMatP= 1.59D-04
 IDIUse=1 WtCom= 1.00D+00 WtEn= 0.00D+00
 Coeff-Com: -0.332D+00-0.133D+01 0.154D+01 0.112D+01
 Coeff:     -0.332D+00-0.133D+01 0.154D+01 0.112D+01
 Gap=     0.194 Goal=   None    Shift=    0.500
 Gap=     0.091 Goal=   None    Shift=    0.500
 RMSDP=2.16D-05 MaxDP=2.44D-03 DE=-7.58D-05 OVMax= 8.34D-03

 Cycle  26  Pass 1  IDiag  1:
 E= -2593.61153489864     Delta-E=       -0.000132215648 Rises=F Damp=F
 DIIS: error= 5.11D-04 at cycle  26 NSaved=   5.
 NSaved= 5 IEnMin= 5 EnMin= -2593.61153489864     IErMin= 5 ErrMin= 5.11D-04
 ErrMax= 5.11D-04  0.00D+00 EMaxC= 1.00D+00 BMatC= 3.83D-05 BMatP= 2.70D-05
 IDIUse=1 WtCom= 1.00D+00 WtEn= 0.00D+00
 Coeff-Com: -0.292D+01 0.133D+01 0.140D+01 0.148D+00 0.104D+01
 Coeff:     -0.292D+01 0.133D+01 0.140D+01 0.148D+00 0.104D+01
 Gap=     0.193 Goal=   None    Shift=    0.500
 Gap=     0.092 Goal=   None    Shift=    0.500
 RMSDP=8.16D-05 MaxDP=1.48D-02 DE=-1.32D-04 OVMax= 1.24D-02

 Cycle  27  Pass 1  IDiag  1:
 E= -2593.61160305666     Delta-E=       -0.000068158021 Rises=F Damp=F
 DIIS: error= 8.34D-04 at cycle  27 NSaved=   6.
 NSaved= 6 IEnMin= 6 EnMin= -2593.61160305666     IErMin= 5 ErrMin= 5.11D-04
 ErrMax= 8.34D-04  0.00D+00 EMaxC= 1.00D+00 BMatC= 9.05D-05 BMatP= 2.70D-05
 IDIUse=1 WtCom= 1.00D+00 WtEn= 0.00D+00
 Coeff-Com: -0.355D+01 0.340D+01-0.876D+00 0.537D+00 0.245D+00 0.125D+01
 Coeff:     -0.355D+01 0.340D+01-0.876D+00 0.537D+00 0.245D+00 0.125D+01
 Gap=     0.192 Goal=   None    Shift=    0.500
 Gap=     0.092 Goal=   None    Shift=    0.500
 RMSDP=5.15D-05 MaxDP=8.35D-03 DE=-6.82D-05 OVMax= 1.16D-02

 Cycle  28  Pass 1  IDiag  1:
 E= -2593.61162844952     Delta-E=       -0.000025392864 Rises=F Damp=F
 DIIS: error= 9.54D-04 at cycle  28 NSaved=   7.
 NSaved= 7 IEnMin= 7 EnMin= -2593.61162844952     IErMin= 5 ErrMin= 5.11D-04
 ErrMax= 9.54D-04  0.00D+00 EMaxC= 1.00D+00 BMatC= 2.18D-04 BMatP= 2.70D-05
 IDIUse=1 WtCom= 1.00D+00 WtEn= 0.00D+00
 Coeff-Com: -0.276D+01 0.350D+01-0.237D+01 0.768D+00 0.229D+00 0.194D+00
 Coeff-Com:  0.144D+01
 Coeff:     -0.276D+01 0.350D+01-0.237D+01 0.768D+00 0.229D+00 0.194D+00
 Coeff:      0.144D+01
 Gap=     0.192 Goal=   None    Shift=    0.500
 Gap=     0.092 Goal=   None    Shift=    0.500
 RMSDP=3.19D-05 MaxDP=4.30D-03 DE=-2.54D-05 OVMax= 1.02D-02

 Cycle  29  Pass 1  IDiag  1:
 E= -2593.61165963403     Delta-E=       -0.000031184507 Rises=F Damp=F
 DIIS: error= 9.47D-04 at cycle  29 NSaved=   8.
 NSaved= 8 IEnMin= 8 EnMin= -2593.61165963403     IErMin= 5 ErrMin= 5.11D-04
 ErrMax= 9.47D-04  0.00D+00 EMaxC= 1.00D+00 BMatC= 2.56D-04 BMatP= 2.70D-05
 IDIUse=1 WtCom= 1.00D+00 WtEn= 0.00D+00
 Coeff-Com: -0.124D+01 0.191D+01-0.204D+01 0.195D+00 0.742D+00 0.341D+00
 Coeff-Com: -0.159D+01 0.268D+01
 Coeff:     -0.124D+01 0.191D+01-0.204D+01 0.195D+00 0.742D+00 0.341D+00
 Coeff:     -0.159D+01 0.268D+01
 Gap=     0.192 Goal=   None    Shift=    0.500
 Gap=     0.092 Goal=   None    Shift=    0.500
 RMSDP=2.27D-05 MaxDP=2.52D-03 DE=-3.12D-05 OVMax= 9.04D-03

 Cycle  30  Pass 1  IDiag  1:
 E= -2593.61169328025     Delta-E=       -0.000033646218 Rises=F Damp=F
 DIIS: error= 8.90D-04 at cycle  30 NSaved=   9.
 NSaved= 9 IEnMin= 9 EnMin= -2593.61169328025     IErMin= 5 ErrMin= 5.11D-04
 ErrMax= 8.90D-04  0.00D+00 EMaxC= 1.00D+00 BMatC= 2.45D-04 BMatP= 2.70D-05
 IDIUse=1 WtCom= 1.00D+00 WtEn= 0.00D+00
 Coeff-Com: -0.990D+00 0.155D+01-0.173D+01 0.651D-01 0.741D+00 0.608D+00
 Coeff-Com: -0.190D+01 0.170D+01 0.954D+00
 Coeff:     -0.990D+00 0.155D+01-0.173D+01 0.651D-01 0.741D+00 0.608D+00
 Coeff:     -0.190D+01 0.170D+01 0.954D+00
 Gap=     0.192 Goal=   None    Shift=    0.500
 Gap=     0.092 Goal=   None    Shift=    0.500
 RMSDP=1.52D-05 MaxDP=1.46D-03 DE=-3.36D-05 OVMax= 7.58D-03

 Cycle  31  Pass 1  IDiag  1:
 E= -2593.61172862376     Delta-E=       -0.000035343508 Rises=F Damp=F
 DIIS: error= 7.93D-04 at cycle  31 NSaved=  10.
 NSaved=10 IEnMin=10 EnMin= -2593.61172862376     IErMin= 5 ErrMin= 5.11D-04
 ErrMax= 7.93D-04  0.00D+00 EMaxC= 1.00D+00 BMatC= 1.96D-04 BMatP= 2.70D-05
 IDIUse=1 WtCom= 1.00D+00 WtEn= 0.00D+00
 Coeff-Com: -0.106D+01 0.145D+01-0.960D+00 0.144D+00 0.460D-01 0.805D+00
 Coeff-Com:  0.662D+00-0.170D+01-0.264D+01 0.424D+01
 Coeff:     -0.106D+01 0.145D+01-0.960D+00 0.144D+00 0.460D-01 0.805D+00
 Coeff:      0.662D+00-0.170D+01-0.264D+01 0.424D+01
 Gap=     0.192 Goal=   None    Shift=    0.500
 Gap=     0.092 Goal=   None    Shift=    0.500
 RMSDP=1.23D-05 MaxDP=1.18D-03 DE=-3.53D-05 OVMax= 6.56D-03

 Cycle  32  Pass 1  IDiag  1:
 E= -2593.61175722270     Delta-E=       -0.000028598944 Rises=F Damp=F
 DIIS: error= 6.99D-04 at cycle  32 NSaved=  11.
 NSaved=11 IEnMin=11 EnMin= -2593.61175722270     IErMin= 5 ErrMin= 5.11D-04
 ErrMax= 6.99D-04  0.00D+00 EMaxC= 1.00D+00 BMatC= 1.51D-04 BMatP= 2.70D-05
 IDIUse=1 WtCom= 1.00D+00 WtEn= 0.00D+00
 Coeff-Com: -0.115D+01 0.201D+01-0.132D+01 0.358D+00-0.480D+00 0.415D+00
 Coeff-Com:  0.274D+01-0.229D+01-0.479D+01 0.301D+01 0.248D+01
 Coeff:     -0.115D+01 0.201D+01-0.132D+01 0.358D+00-0.480D+00 0.415D+00
 Coeff:      0.274D+01-0.229D+01-0.479D+01 0.301D+01 0.248D+01
 Gap=     0.192 Goal=   None    Shift=    0.500
 Gap=     0.092 Goal=   None    Shift=    0.500
 RMSDP=1.10D-05 MaxDP=1.03D-03 DE=-2.86D-05 OVMax= 5.75D-03

 >>>>>>>>>> Convergence criterion not met.
 SCF Done:  E(ULC-wHPBE) =  -2593.61175722     A.U. after   33 cycles
            NFock= 32  Conv=0.11D-04     -V/T= 2.0036
 <Sx>= 0.0000 <Sy>= 0.0000 <Sz>= 0.5000 <S**2>= 0.7569 S= 0.5034
 <L.S>= 0.000000000000E+00
 KE= 2.584318200590D+03 PE=-1.660506227556D+04 EE= 6.149408652463D+03
 Annihilation of the first spin contaminant:
 S**2 before annihilation     0.7569,   after     0.7500
 Leave Link  502 at Thu Jan 21 16:12:17 2021, MaxMem=  4026531840 cpu:           31902.9 elap:            4035.2
 (Enter /opt/ohpc/pub/libs/gaussian/g16-A.03/sandybridge/g16/l508.exe)
 Integral symmetry usage will be decided dynamically.
 Tight linear equation convergence will be used.
 ULC-wHPBE wavefunction.
 Quadratic Convergence SCF Method.
 Line search only if initial step raises energy.
 FoFJK:  IHMeth= 1 ICntrl=       0 DoSepK=T KAlg= 0 I1Cent=           0 FoldK=F
 IRaf=         1 NMat=       1 IRICut=       1 DoRegI=T DoRafI=F ISym2E= 1 IDoP0=0 IntGTp=1.
 FoFCou: FMM=T IPFlag=           0 FMFlag=      100000 FMFlg1=        2001
         NFxFlg=           0 DoJE=T BraDBF=F KetDBF=F FulRan=T
         wScrn=  0.000000 ICntrl=       500 IOpCl=  0 I1Cent=           0 NGrid=           0
         NMat0=    1 NMatS0=      1 NMatT0=    0 NMatD0=    1 NMtDS0=    0 NMtDT0=    0
 Petite list used in FoFCou.
 FMM levels:  10  Number of levels for PrismC:   9
 Iteration   1 EE= -2593.61177777517                                    Grad=7.814D-03 Max rot=    0.1599 deg.
 QCNR:  CnvC1=7.81D-08 CnvC2=7.81D-07
 LinEq1:  Iter=  0 NonCon=     1 RMS=5.95D-05 Max=2.69D-02 NDo=     1
 AX will form     1 AO Fock derivatives at one time.
 LinEq1:  Iter=  1 NonCon=     1 RMS=3.76D-05 Max=8.50D-03 NDo=     1
 LinEq1:  Iter=  2 NonCon=     1 RMS=2.90D-05 Max=2.64D-03 NDo=     1
 LinEq1:  Iter=  3 NonCon=     1 RMS=1.97D-05 Max=2.33D-03 NDo=     1
 LinEq1:  Iter=  4 NonCon=     1 RMS=1.68D-05 Max=2.38D-03 NDo=     1
 LinEq1:  Iter=  5 NonCon=     1 RMS=1.14D-05 Max=1.40D-03 NDo=     1
 LinEq1:  Iter=  6 NonCon=     1 RMS=7.25D-06 Max=1.15D-03 NDo=     1
 LinEq1:  Iter=  7 NonCon=     1 RMS=5.17D-06 Max=9.18D-04 NDo=     1
 LinEq1:  Iter=  8 NonCon=     1 RMS=4.07D-06 Max=8.71D-04 NDo=     1
 LinEq1:  Iter=  9 NonCon=     1 RMS=3.35D-06 Max=6.02D-04 NDo=     1
 LinEq1:  Iter= 10 NonCon=     1 RMS=2.81D-06 Max=5.13D-04 NDo=     1
 LinEq1:  Iter= 11 NonCon=     1 RMS=2.10D-06 Max=3.28D-04 NDo=     1
 LinEq1:  Iter= 12 NonCon=     1 RMS=1.18D-06 Max=1.51D-04 NDo=     1
 LinEq1:  Iter= 13 NonCon=     1 RMS=8.15D-07 Max=6.55D-05 NDo=     1
 LinEq1:  Iter= 14 NonCon=     1 RMS=5.26D-07 Max=3.12D-05 NDo=     1
 LinEq1:  Iter= 15 NonCon=     1 RMS=3.13D-07 Max=2.67D-05 NDo=     1
 LinEq1:  Iter= 16 NonCon=     1 RMS=2.07D-07 Max=1.47D-05 NDo=     1
 LinEq1:  Iter= 17 NonCon=     1 RMS=1.23D-07 Max=1.28D-05 NDo=     1
 LinEq1:  Iter= 18 NonCon=     1 RMS=7.20D-08 Max=7.64D-06 NDo=     1
 LinEq1:  Iter= 19 NonCon=     1 RMS=4.63D-08 Max=4.26D-06 NDo=     1
 LinEq1:  Iter= 20 NonCon=     1 RMS=3.05D-08 Max=4.34D-06 NDo=     1
 LinEq1:  Iter= 21 NonCon=     1 RMS=1.71D-08 Max=1.64D-06 NDo=     1
 LinEq1:  Iter= 22 NonCon=     1 RMS=1.21D-08 Max=1.20D-06 NDo=     1
 LinEq1:  Iter= 23 NonCon=     0 RMS=8.32D-09 Max=6.64D-07 NDo=     1
 Linear equations converged to 7.814D-08 7.814D-07 after    23 iterations.
 Angle between quadratic step and gradient=  74.82 degrees.
     ILin= 1 X=0.000D+00 Y=-2.593611777775D+03 DE= 0.00D+00 F= -1.35D-04
     ILin= 2 X=1.000D+00 Y=-2.593611844847D+03 DE=-6.71D-05
 Iteration   2 EE= -2593.61184484714     Delta-E=       -0.000067071974 Grad=1.073D-04 Max rot=    0.0017 deg.
 Rotation gradient small -- convergence achieved.
 SCF Done:  E(ULC-wHPBE) =  -2593.61184485     a.u. after    2 cycles
            Convg  =    0.1073D-03                    25 Fock formations.
              S**2 =  0.7568                  -V/T =  2.0036
 <Sx>= 0.0000 <Sy>= 0.0000 <Sz>= 0.5000 <S**2>= 0.7568 S= 0.5034
 <L.S>= 0.000000000000E+00
 Annihilation of the first spin contaminant:
 S**2 before annihilation     0.7568,   after     0.7500
 Leave Link  508 at Thu Jan 21 16:56:37 2021, MaxMem=  4026531840 cpu:           20930.2 elap:            2660.1
 (Enter /opt/ohpc/pub/libs/gaussian/g16-A.03/sandybridge/g16/l601.exe)
 Copying SCF densities to generalized density rwf, IOpCl= 1 IROHF=0.

 **********************************************************************

            Population analysis using the SCF density.

 **********************************************************************

 Orbital symmetries:
 Alpha Orbitals:
       Occupied  (A) (A) (A) (A) (A) (A) (A) (A) (A) (A) (A) (A)
                 (A) (A) (A) (A) (A) (A) (A) (A) (A) (A) (A) (A)
                 (A) (A) (A) (A) (A) (A) (A) (A) (A) (A) (A) (A)
                 (A) (A) (A) (A) (A) (A) (A) (A) (A) (A) (A) (A)
                 (A) (A) (A) (A) (A) (A) (A) (A) (A) (A) (A) (A)
                 (A) (A) (A) (A) (A) (A) (A) (A) (A) (A) (A) (A)
                 (A) (A) (A) (A) (A) (A) (A) (A) (A) (A) (A) (A)
                 (A) (A) (A) (A) (A) (A) (A) (A) (A) (A) (A) (A)
                 (A) (A) (A) (A) (A) (A) (A) (A) (A) (A) (A) (A)
                 (A) (A) (A) (A) (A) (A) (A) (A) (A) (A) (A) (A)
                 (A) (A) (A) (A) (A) (A) (A) (A) (A) (A) (A) (A)
                 (A) (A) (A) (A) (A) (A) (A) (A) (A) (A) (A) (A)
                 (A) (A) (A) (A) (A) (A) (A) (A) (A) (A) (A) (A)
                 (A) (A) (A) (A) (A)
       Virtual   (A) (A) (A) (A) (A) (A) (A) (A) (A) (A) (A) (A)
                 (A) (A) (A) (A) (A) (A) (A) (A) (A) (A) (A) (A)
                 (A) (A) (A) (A) (A) (A) (A) (A) (A) (A) (A) (A)
                 (A) (A) (A) (A) (A) (A) (A) (A) (A) (A) (A) (A)
                 (A) (A) (A) (A) (A) (A) (A) (A) (A) (A) (A) (A)
                 (A) (A) (A) (A) (A) (A) (A) (A) (A) (A) (A) (A)
                 (A) (A) (A) (A) (A) (A) (A) (A) (A) (A) (A) (A)
                 (A) (A) (A) (A) (A) (A) (A) (A) (A) (A) (A) (A)
                 (A) (A) (A) (A) (A) (A) (A) (A) (A) (A) (A) (A)
                 (A) (A) (A) (A) (A) (A) (A) (A) (A) (A) (A) (A)
                 (A) (A) (A) (A) (A) (A) (A) (A) (A) (A) (A) (A)
                 (A) (A) (A) (A) (A) (A) (A) (A) (A) (A) (A) (A)
                 (A) (A) (A) (A) (A) (A) (A) (A) (A) (A) (A) (A)
                 (A) (A) (A) (A) (A) (A) (A) (A) (A) (A) (A) (A)
                 (A) (A) (A) (A) (A) (A) (A) (A) (A) (A) (A) (A)
                 (A) (A) (A) (A) (A) (A) (A) (A) (A) (A) (A) (A)
                 (A) (A) (A) (A) (A) (A) (A) (A) (A) (A) (A) (A)
                 (A) (A) (A) (A) (A) (A) (A) (A) (A) (A) (A) (A)
                 (A) (A) (A) (A) (A) (A) (A) (A) (A) (A) (A) (A)
                 (A) (A) (A) (A) (A) (A) (A) (A) (A) (A) (A) (A)
                 (A) (A) (A) (A) (A) (A) (A) (A) (A) (A) (A) (A)
                 (A) (A) (A) (A) (A) (A) (A) (A) (A) (A) (A) (A)
                 (A) (A) (A) (A) (A) (A) (A) (A) (A) (A) (A) (A)
                 (A) (A) (A) (A) (A) (A) (A) (A) (A) (A) (A) (A)
                 (A) (A) (A) (A) (A) (A) (A) (A) (A) (A) (A) (A)
                 (A) (A) (A) (A) (A) (A) (A) (A) (A) (A) (A) (A)
                 (A) (A) (A) (A) (A) (A) (A) (A) (A) (A) (A) (A)
                 (A) (A) (A) (A) (A) (A) (A) (A) (A) (A) (A) (A)
                 (A) (A) (A) (A) (A) (A) (A) (A) (A) (A) (A) (A)
                 (A) (A) (A) (A) (A) (A) (A) (A) (A) (A) (A) (A)
                 (A) (A) (A) (A) (A) (A) (A) (A) (A) (A) (A) (A)
                 (A) (A) (A) (A) (A) (A) (A) (A) (A) (A) (A) (A)
                 (A) (A) (A) (A) (A) (A) (A) (A) (A) (A) (A) (A)
                 (A) (A) (A) (A) (A) (A) (A) (A) (A) (A) (A) (A)
                 (A) (A) (A) (A) (A) (A) (A) (A) (A) (A) (A) (A)
                 (A) (A) (A) (A) (A) (A) (A) (A) (A) (A) (A) (A)
                 (A) (A) (A) (A) (A) (A) (A) (A) (A) (A) (A) (A)
                 (A) (A) (A) (A) (A) (A) (A) (A) (A) (A) (A) (A)
                 (A) (A) (A) (A) (A) (A) (A) (A) (A) (A) (A) (A)
                 (A) (A) (A) (A) (A) (A) (A) (A) (A) (A) (A) (A)
                 (A) (A) (A) (A) (A) (A) (A) (A) (A) (A) (A) (A)
                 (A) (A) (A) (A) (A) (A) (A) (A) (A) (A) (A) (A)
                 (A) (A) (A) (A) (A) (A) (A) (A) (A) (A) (A) (A)
                 (A) (A) (A) (A) (A) (A) (A) (A) (A) (A) (A) (A)
                 (A) (A) (A) (A) (A) (A) (A) (A) (A) (A) (A) (A)
                 (A) (A) (A) (A) (A) (A) (A) (A) (A) (A) (A) (A)
                 (A) (A) (A) (A) (A) (A) (A) (A) (A) (A) (A) (A)
                 (A) (A) (A) (A) (A) (A) (A) (A) (A) (A) (A) (A)
                 (A) (A) (A) (A) (A) (A) (A) (A) (A) (A) (A) (A)
                 (A) (A) (A) (A) (A) (A) (A) (A) (A) (A) (A) (A)
                 (A) (A) (A) (A) (A) (A) (A) (A) (A) (A) (A) (A)
                 (A) (A) (A) (A) (A) (A) (A) (A) (A) (A) (A) (A)
                 (A) (A) (A) (A) (A) (A) (A) (A) (A) (A) (A) (A)
                 (A) (A) (A) (A) (A) (A) (A) (A) (A) (A) (A) (A)
                 (A) (A) (A) (A) (A) (A) (A) (A) (A) (A) (A) (A)
                 (A) (A) (A) (A) (A) (A) (A) (A) (A) (A) (A) (A)
                 (A) (A) (A) (A) (A) (A) (A) (A) (A) (A) (A) (A)
                 (A) (A) (A) (A) (A) (A) (A) (A) (A) (A) (A) (A)
                 (A) (A) (A) (A) (A) (A) (A) (A) (A) (A) (A) (A)
                 (A) (A) (A) (A) (A) (A) (A) (A) (A) (A) (A) (A)
                 (A) (A) (A) (A) (A) (A) (A) (A) (A) (A) (A) (A)
                 (A) (A) (A) (A) (A) (A) (A) (A) (A) (A) (A) (A)
                 (A) (A) (A) (A) (A) (A) (A) (A) (A) (A) (A) (A)
                 (A) (A) (A) (A) (A) (A) (A) (A) (A) (A) (A) (A)
                 (A) (A) (A) (A) (A) (A) (A) (A) (A) (A) (A) (A)
                 (A) (A) (A) (A) (A) (A) (A) (A) (A) (A) (A) (A)
                 (A) (A) (A) (A) (A) (A) (A) (A) (A) (A) (A) (A)
                 (A) (A) (A) (A) (A) (A) (A) (A) (A) (A) (A) (A)
                 (A) (A) (A) (A) (A) (A) (A) (A) (A) (A) (A) (A)
                 (A) (A) (A) (A) (A) (A) (A) (A) (A) (A) (A) (A)
                 (A) (A) (A) (A) (A) (A) (A) (A) (A)
 Beta  Orbitals:
       Occupied  (A) (A) (A) (A) (A) (A) (A) (A) (A) (A) (A) (A)
                 (A) (A) (A) (A) (A) (A) (A) (A) (A) (A) (A) (A)
                 (A) (A) (A) (A) (A) (A) (A) (A) (A) (A) (A) (A)
                 (A) (A) (A) (A) (A) (A) (A) (A) (A) (A) (A) (A)
                 (A) (A) (A) (A) (A) (A) (A) (A) (A) (A) (A) (A)
                 (A) (A) (A) (A) (A) (A) (A) (A) (A) (A) (A) (A)
                 (A) (A) (A) (A) (A) (A) (A) (A) (A) (A) (A) (A)
                 (A) (A) (A) (A) (A) (A) (A) (A) (A) (A) (A) (A)
                 (A) (A) (A) (A) (A) (A) (A) (A) (A) (A) (A) (A)
                 (A) (A) (A) (A) (A) (A) (A) (A) (A) (A) (A) (A)
                 (A) (A) (A) (A) (A) (A) (A) (A) (A) (A) (A) (A)
                 (A) (A) (A) (A) (A) (A) (A) (A) (A) (A) (A) (A)
                 (A) (A) (A) (A) (A) (A) (A) (A) (A) (A) (A) (A)
                 (A) (A) (A) (A)
       Virtual   (A) (A) (A) (A) (A) (A) (A) (A) (A) (A) (A) (A)
                 (A) (A) (A) (A) (A) (A) (A) (A) (A) (A) (A) (A)
                 (A) (A) (A) (A) (A) (A) (A) (A) (A) (A) (A) (A)
                 (A) (A) (A) (A) (A) (A) (A) (A) (A) (A) (A) (A)
                 (A) (A) (A) (A) (A) (A) (A) (A) (A) (A) (A) (A)
                 (A) (A) (A) (A) (A) (A) (A) (A) (A) (A) (A) (A)
                 (A) (A) (A) (A) (A) (A) (A) (A) (A) (A) (A) (A)
                 (A) (A) (A) (A) (A) (A) (A) (A) (A) (A) (A) (A)
                 (A) (A) (A) (A) (A) (A) (A) (A) (A) (A) (A) (A)
                 (A) (A) (A) (A) (A) (A) (A) (A) (A) (A) (A) (A)
                 (A) (A) (A) (A) (A) (A) (A) (A) (A) (A) (A) (A)
                 (A) (A) (A) (A) (A) (A) (A) (A) (A) (A) (A) (A)
                 (A) (A) (A) (A) (A) (A) (A) (A) (A) (A) (A) (A)
                 (A) (A) (A) (A) (A) (A) (A) (A) (A) (A) (A) (A)
                 (A) (A) (A) (A) (A) (A) (A) (A) (A) (A) (A) (A)
                 (A) (A) (A) (A) (A) (A) (A) (A) (A) (A) (A) (A)
                 (A) (A) (A) (A) (A) (A) (A) (A) (A) (A) (A) (A)
                 (A) (A) (A) (A) (A) (A) (A) (A) (A) (A) (A) (A)
                 (A) (A) (A) (A) (A) (A) (A) (A) (A) (A) (A) (A)
                 (A) (A) (A) (A) (A) (A) (A) (A) (A) (A) (A) (A)
                 (A) (A) (A) (A) (A) (A) (A) (A) (A) (A) (A) (A)
                 (A) (A) (A) (A) (A) (A) (A) (A) (A) (A) (A) (A)
                 (A) (A) (A) (A) (A) (A) (A) (A) (A) (A) (A) (A)
                 (A) (A) (A) (A) (A) (A) (A) (A) (A) (A) (A) (A)
                 (A) (A) (A) (A) (A) (A) (A) (A) (A) (A) (A) (A)
                 (A) (A) (A) (A) (A) (A) (A) (A) (A) (A) (A) (A)
                 (A) (A) (A) (A) (A) (A) (A) (A) (A) (A) (A) (A)
                 (A) (A) (A) (A) (A) (A) (A) (A) (A) (A) (A) (A)
                 (A) (A) (A) (A) (A) (A) (A) (A) (A) (A) (A) (A)
                 (A) (A) (A) (A) (A) (A) (A) (A) (A) (A) (A) (A)
                 (A) (A) (A) (A) (A) (A) (A) (A) (A) (A) (A) (A)
                 (A) (A) (A) (A) (A) (A) (A) (A) (A) (A) (A) (A)
                 (A) (A) (A) (A) (A) (A) (A) (A) (A) (A) (A) (A)
                 (A) (A) (A) (A) (A) (A) (A) (A) (A) (A) (A) (A)
                 (A) (A) (A) (A) (A) (A) (A) (A) (A) (A) (A) (A)
                 (A) (A) (A) (A) (A) (A) (A) (A) (A) (A) (A) (A)
                 (A) (A) (A) (A) (A) (A) (A) (A) (A) (A) (A) (A)
                 (A) (A) (A) (A) (A) (A) (A) (A) (A) (A) (A) (A)
                 (A) (A) (A) (A) (A) (A) (A) (A) (A) (A) (A) (A)
                 (A) (A) (A) (A) (A) (A) (A) (A) (A) (A) (A) (A)
                 (A) (A) (A) (A) (A) (A) (A) (A) (A) (A) (A) (A)
                 (A) (A) (A) (A) (A) (A) (A) (A) (A) (A) (A) (A)
                 (A) (A) (A) (A) (A) (A) (A) (A) (A) (A) (A) (A)
                 (A) (A) (A) (A) (A) (A) (A) (A) (A) (A) (A) (A)
                 (A) (A) (A) (A) (A) (A) (A) (A) (A) (A) (A) (A)
                 (A) (A) (A) (A) (A) (A) (A) (A) (A) (A) (A) (A)
                 (A) (A) (A) (A) (A) (A) (A) (A) (A) (A) (A) (A)
                 (A) (A) (A) (A) (A) (A) (A) (A) (A) (A) (A) (A)
                 (A) (A) (A) (A) (A) (A) (A) (A) (A) (A) (A) (A)
                 (A) (A) (A) (A) (A) (A) (A) (A) (A) (A) (A) (A)
                 (A) (A) (A) (A) (A) (A) (A) (A) (A) (A) (A) (A)
                 (A) (A) (A) (A) (A) (A) (A) (A) (A) (A) (A) (A)
                 (A) (A) (A) (A) (A) (A) (A) (A) (A) (A) (A) (A)
                 (A) (A) (A) (A) (A) (A) (A) (A) (A) (A) (A) (A)
                 (A) (A) (A) (A) (A) (A) (A) (A) (A) (A) (A) (A)
                 (A) (A) (A) (A) (A) (A) (A) (A) (A) (A) (A) (A)
                 (A) (A) (A) (A) (A) (A) (A) (A) (A) (A) (A) (A)
                 (A) (A) (A) (A) (A) (A) (A) (A) (A) (A) (A) (A)
                 (A) (A) (A) (A) (A) (A) (A) (A) (A) (A) (A) (A)
                 (A) (A) (A) (A) (A) (A) (A) (A) (A) (A) (A) (A)
                 (A) (A) (A) (A) (A) (A) (A) (A) (A) (A) (A) (A)
                 (A) (A) (A) (A) (A) (A) (A) (A) (A) (A) (A) (A)
                 (A) (A) (A) (A) (A) (A) (A) (A) (A) (A) (A) (A)
                 (A) (A) (A) (A) (A) (A) (A) (A) (A) (A) (A) (A)
                 (A) (A) (A) (A) (A) (A) (A) (A) (A) (A) (A) (A)
                 (A) (A) (A) (A) (A) (A) (A) (A) (A) (A) (A) (A)
                 (A) (A) (A) (A) (A) (A) (A) (A) (A) (A) (A) (A)
                 (A) (A) (A) (A) (A) (A) (A) (A) (A) (A) (A) (A)
                 (A) (A) (A) (A) (A) (A) (A) (A) (A) (A) (A) (A)
                 (A) (A) (A) (A) (A) (A) (A) (A) (A) (A) (A) (A)
                 (A) (A) (A) (A) (A) (A) (A) (A) (A) (A)
 The electronic state is 2-A.
 Alpha  occ. eigenvalues --  -88.34470 -88.26581 -18.94172 -18.93770 -18.93373
 Alpha  occ. eigenvalues --  -18.92069 -14.21751 -14.18074 -10.11113 -10.10958
 Alpha  occ. eigenvalues --  -10.10710 -10.10684 -10.10327 -10.09966 -10.09464
 Alpha  occ. eigenvalues --  -10.09306 -10.09257 -10.09099 -10.08880 -10.07540
 Alpha  occ. eigenvalues --  -10.07284 -10.06604 -10.06495 -10.06404 -10.06362
 Alpha  occ. eigenvalues --  -10.05883 -10.05845 -10.05659 -10.05571 -10.05384
 Alpha  occ. eigenvalues --  -10.05156 -10.05141 -10.05017 -10.04998 -10.04708
 Alpha  occ. eigenvalues --  -10.04439 -10.03866 -10.03791 -10.03740 -10.03664
 Alpha  occ. eigenvalues --  -10.03380 -10.03365 -10.03299 -10.02632  -7.93466
 Alpha  occ. eigenvalues --   -7.85751  -5.95453  -5.95344  -5.94782  -5.87982
 Alpha  occ. eigenvalues --   -5.87557  -5.86836  -1.13668  -1.13271  -1.12855
 Alpha  occ. eigenvalues --   -1.11791  -1.07615  -1.05139  -0.99399  -0.96813
 Alpha  occ. eigenvalues --   -0.95527  -0.94275  -0.93691  -0.93096  -0.92020
 Alpha  occ. eigenvalues --   -0.88958  -0.86825  -0.86215  -0.85245  -0.84940
 Alpha  occ. eigenvalues --   -0.84687  -0.84305  -0.83799  -0.83309  -0.82878
 Alpha  occ. eigenvalues --   -0.82540  -0.80799  -0.78818  -0.74987  -0.74666
 Alpha  occ. eigenvalues --   -0.73555  -0.73289  -0.73023  -0.72235  -0.71890
 Alpha  occ. eigenvalues --   -0.71433  -0.71082  -0.69959  -0.68720  -0.68080
 Alpha  occ. eigenvalues --   -0.66198  -0.66092  -0.65508  -0.65140  -0.64860
 Alpha  occ. eigenvalues --   -0.64681  -0.64125  -0.63423  -0.62040  -0.60599
 Alpha  occ. eigenvalues --   -0.60257  -0.59679  -0.58922  -0.58658  -0.58261
 Alpha  occ. eigenvalues --   -0.57069  -0.56968  -0.56566  -0.56073  -0.55858
 Alpha  occ. eigenvalues --   -0.55831  -0.54911  -0.54309  -0.54091  -0.54033
 Alpha  occ. eigenvalues --   -0.53921  -0.53804  -0.53218  -0.53036  -0.52917
 Alpha  occ. eigenvalues --   -0.52706  -0.52355  -0.52219  -0.52083  -0.51815
 Alpha  occ. eigenvalues --   -0.51523  -0.51474  -0.50954  -0.50492  -0.50166
 Alpha  occ. eigenvalues --   -0.49623  -0.49177  -0.48986  -0.48411  -0.48159
 Alpha  occ. eigenvalues --   -0.47827  -0.47421  -0.47087  -0.47058  -0.46102
 Alpha  occ. eigenvalues --   -0.45951  -0.45686  -0.45060  -0.44877  -0.44076
 Alpha  occ. eigenvalues --   -0.43782  -0.42457  -0.40498  -0.40107  -0.39710
 Alpha  occ. eigenvalues --   -0.39506  -0.39071  -0.38500  -0.38101  -0.37638
 Alpha  occ. eigenvalues --   -0.36925  -0.36693  -0.35715  -0.34896  -0.32417
 Alpha  occ. eigenvalues --   -0.30840
 Alpha virt. eigenvalues --   -0.11644  -0.10830  -0.10305  -0.09295  -0.08233
 Alpha virt. eigenvalues --   -0.08066  -0.07913  -0.07647  -0.07454  -0.06622
 Alpha virt. eigenvalues --   -0.06064  -0.05965  -0.04559  -0.04266  -0.03599
 Alpha virt. eigenvalues --   -0.02961  -0.02230  -0.01330  -0.00849  -0.00742
 Alpha virt. eigenvalues --   -0.00564  -0.00208   0.00753   0.00888   0.01291
 Alpha virt. eigenvalues --    0.01752   0.02369   0.02631   0.03032   0.03496
 Alpha virt. eigenvalues --    0.03860   0.04122   0.04354   0.04989   0.05165
 Alpha virt. eigenvalues --    0.05582   0.05883   0.06258   0.06544   0.06689
 Alpha virt. eigenvalues --    0.06925   0.07038   0.07640   0.07756   0.08013
 Alpha virt. eigenvalues --    0.08170   0.08587   0.08691   0.09028   0.09185
 Alpha virt. eigenvalues --    0.09623   0.09795   0.10750   0.10793   0.11037
 Alpha virt. eigenvalues --    0.11551   0.11787   0.12062   0.12477   0.12908
 Alpha virt. eigenvalues --    0.13079   0.13171   0.13551   0.13798   0.14041
 Alpha virt. eigenvalues --    0.14423   0.14696   0.14889   0.15075   0.15570
 Alpha virt. eigenvalues --    0.15915   0.16082   0.16355   0.16457   0.16561
 Alpha virt. eigenvalues --    0.16872   0.17026   0.17166   0.17596   0.17766
 Alpha virt. eigenvalues --    0.18217   0.18274   0.18565   0.18812   0.19058
 Alpha virt. eigenvalues --    0.19175   0.19437   0.19631   0.19919   0.19980
 Alpha virt. eigenvalues --    0.20147   0.20369   0.20795   0.21024   0.21499
 Alpha virt. eigenvalues --    0.21725   0.21815   0.22009   0.22099   0.22359
 Alpha virt. eigenvalues --    0.22566   0.22682   0.22818   0.23112   0.23244
 Alpha virt. eigenvalues --    0.23538   0.23715   0.24068   0.24188   0.24348
 Alpha virt. eigenvalues --    0.24627   0.25170   0.25290   0.25328   0.25621
 Alpha virt. eigenvalues --    0.25864   0.25994   0.26673   0.26766   0.27160
 Alpha virt. eigenvalues --    0.27339   0.27708   0.27812   0.28184   0.28447
 Alpha virt. eigenvalues --    0.28655   0.28915   0.29119   0.29331   0.29816
 Alpha virt. eigenvalues --    0.29930   0.30035   0.30510   0.30725   0.31019
 Alpha virt. eigenvalues --    0.31339   0.31591   0.31604   0.31842   0.32055
 Alpha virt. eigenvalues --    0.32339   0.32501   0.32675   0.32830   0.32872
 Alpha virt. eigenvalues --    0.32939   0.33276   0.33426   0.33468   0.33697
 Alpha virt. eigenvalues --    0.33813   0.34119   0.34281   0.34582   0.34759
 Alpha virt. eigenvalues --    0.34890   0.35159   0.35768   0.35950   0.36206
 Alpha virt. eigenvalues --    0.36271   0.36669   0.37153   0.37346   0.37694
 Alpha virt. eigenvalues --    0.37727   0.37900   0.38217   0.38441   0.38847
 Alpha virt. eigenvalues --    0.38957   0.39074   0.39382   0.39499   0.39577
 Alpha virt. eigenvalues --    0.39820   0.40192   0.40583   0.41112   0.41294
 Alpha virt. eigenvalues --    0.41590   0.41770   0.42012   0.42249   0.42332
 Alpha virt. eigenvalues --    0.42672   0.42929   0.43126   0.43381   0.43720
 Alpha virt. eigenvalues --    0.43790   0.43980   0.44226   0.44712   0.44809
 Alpha virt. eigenvalues --    0.44921   0.45143   0.45765   0.46042   0.46499
 Alpha virt. eigenvalues --    0.46558   0.46803   0.47116   0.47727   0.48300
 Alpha virt. eigenvalues --    0.48460   0.48502   0.48682   0.49074   0.49336
 Alpha virt. eigenvalues --    0.49585   0.50067   0.50211   0.50510   0.50910
 Alpha virt. eigenvalues --    0.51032   0.51351   0.51471   0.51874   0.52103
 Alpha virt. eigenvalues --    0.52576   0.52669   0.53094   0.53309   0.53507
 Alpha virt. eigenvalues --    0.54242   0.54457   0.54490   0.54822   0.55089
[...]
              Bcc     0.0280     3.760     1.342     1.254  0.7857 -0.3359 -0.5195
 
              Baa    -0.0023    -1.233    -0.440    -0.411 -0.6820  0.0455  0.7300
     9 H(1)   Bbb    -0.0006    -0.311    -0.111    -0.104  0.6694 -0.3634  0.6480
              Bcc     0.0029     1.545     0.551     0.515  0.2948  0.9305  0.2173
 
              Baa    -0.0065    -0.870    -0.310    -0.290 -0.1922 -0.0347  0.9807
    10 C(13)  Bbb    -0.0040    -0.537    -0.192    -0.179 -0.3048  0.9521 -0.0260
              Bcc     0.0105     1.407     0.502     0.469  0.9328  0.3039  0.1936
 
              Baa    -0.0020    -0.271    -0.097    -0.090 -0.4783  0.8600 -0.1780
    11 C(13)  Bbb    -0.0011    -0.151    -0.054    -0.050 -0.3885 -0.0255  0.9211
              Bcc     0.0031     0.422     0.151     0.141  0.7876  0.5097  0.3463
 
              Baa    -0.0021    -0.286    -0.102    -0.095  0.1402 -0.5189  0.8433
    12 C(13)  Bbb    -0.0014    -0.189    -0.068    -0.063 -0.4506  0.7249  0.5210
              Bcc     0.0035     0.475     0.170     0.159  0.8817  0.4530  0.1322
 
              Baa    -0.0030    -0.396    -0.141    -0.132  0.1540  0.9071 -0.3917
    13 C(13)  Bbb    -0.0011    -0.145    -0.052    -0.048  0.6805 -0.3848 -0.6235
              Bcc     0.0040     0.541     0.193     0.180  0.7163  0.1705  0.6766
 
              Baa    -0.0033    -1.777    -0.634    -0.593 -0.1029  0.9345  0.3408
    14 H(1)   Bbb    -0.0022    -1.179    -0.421    -0.393 -0.6086 -0.3301  0.7216
              Bcc     0.0055     2.957     1.055     0.986  0.7868 -0.1332  0.6027
 
              Baa    -0.0006    -0.346    -0.123    -0.115 -0.4043  0.8852  0.2301
    15 H(1)   Bbb    -0.0004    -0.235    -0.084    -0.078  0.4593 -0.0210  0.8880
              Bcc     0.0011     0.581     0.207     0.194  0.7909  0.4647 -0.3980
 
              Baa    -0.0006    -0.321    -0.115    -0.107  0.3268 -0.3434  0.8805
    16 H(1)   Bbb    -0.0005    -0.272    -0.097    -0.091  0.0319  0.9351  0.3529
              Bcc     0.0011     0.593     0.212     0.198  0.9445  0.0872 -0.3166
 
              Baa    -0.0212    -2.839    -1.013    -0.947  0.3691  0.2074  0.9059
    17 C(13)  Bbb    -0.0149    -2.004    -0.715    -0.669  0.8926  0.1923 -0.4077
              Bcc     0.0361     4.843     1.728     1.615 -0.2588  0.9592 -0.1142
 
              Baa    -0.0101    -5.409    -1.930    -1.804 -0.4082  0.8143 -0.4126
    18 H(1)   Bbb    -0.0033    -1.774    -0.633    -0.592  0.8087  0.1128 -0.5774
              Bcc     0.0135     7.183     2.563     2.396  0.4236  0.5693  0.7046
 
              Baa    -0.0006    -0.313    -0.112    -0.104  0.7239 -0.5466  0.4209
    19 H(1)   Bbb    -0.0004    -0.232    -0.083    -0.077 -0.4003  0.1641  0.9016
              Bcc     0.0010     0.545     0.194     0.182  0.5619  0.8211  0.1000
 
              Baa    -0.0031    -1.628    -0.581    -0.543  0.3268 -0.6537  0.6825
    20 H(1)   Bbb    -0.0008    -0.419    -0.150    -0.140  0.9084  0.4164 -0.0361
              Bcc     0.0038     2.047     0.730     0.683 -0.2606  0.6318  0.7300
 
              Baa    -0.0035    -1.889    -0.674    -0.630  0.4834 -0.5282  0.6981
    21 H(1)   Bbb    -0.0003    -0.171    -0.061    -0.057  0.5117  0.8175  0.2642
              Bcc     0.0039     2.060     0.735     0.687  0.7103 -0.2295 -0.6655
 
              Baa    -0.0331    -1.357    -0.484    -0.453  0.4949 -0.5317  0.6873
    22 S(33)  Bbb    -0.0277    -1.136    -0.405    -0.379 -0.5391  0.4325  0.7227
              Bcc     0.0608     2.493     0.890     0.832  0.6816  0.7281  0.0726
 
              Baa    -0.0153    -0.590    -0.211    -0.197  0.3087  0.8991 -0.3103
    23 N(14)  Bbb    -0.0133    -0.511    -0.182    -0.170  0.8824 -0.3925 -0.2594
              Bcc     0.0285     1.101     0.393     0.367  0.3550  0.1937  0.9146
 
              Baa    -0.0009    -0.121    -0.043    -0.040  0.2712  0.8959 -0.3520
    24 C(13)  Bbb    -0.0003    -0.042    -0.015    -0.014  0.0298  0.3577  0.9334
              Bcc     0.0012     0.163     0.058     0.054  0.9621 -0.2636  0.0703
 
              Baa    -0.0011    -0.145    -0.052    -0.048  0.3781  0.3463  0.8586
    25 C(13)  Bbb    -0.0003    -0.044    -0.016    -0.015  0.8651  0.1982 -0.4609
              Bcc     0.0014     0.189     0.067     0.063 -0.3297  0.9169 -0.2247
 
              Baa    -0.0013    -0.172    -0.061    -0.057 -0.0673  0.4664  0.8820
    26 C(13)  Bbb    -0.0003    -0.043    -0.015    -0.014  0.8745 -0.3980  0.2772
              Bcc     0.0016     0.215     0.077     0.072  0.4803  0.7900 -0.3811
 
              Baa    -0.0005    -0.070    -0.025    -0.023 -0.1174 -0.5357  0.8362
    27 C(13)  Bbb    -0.0001    -0.013    -0.005    -0.004  0.4193  0.7366  0.5307
              Bcc     0.0006     0.083     0.030     0.028  0.9002 -0.4129 -0.1381
 
              Baa    -0.0006    -0.079    -0.028    -0.026  0.0648 -0.6837  0.7269
    28 C(13)  Bbb    -0.0000    -0.005    -0.002    -0.002  0.1140  0.7287  0.6753
              Bcc     0.0006     0.084     0.030     0.028  0.9914 -0.0391 -0.1252
 
              Baa    -0.0010    -0.133    -0.047    -0.044  0.2626  0.7489  0.6085
    29 C(13)  Bbb    -0.0004    -0.059    -0.021    -0.020  0.9631 -0.1653 -0.2122
              Bcc     0.0014     0.192     0.069     0.064  0.0583 -0.6418  0.7647
 
              Baa    -0.0005    -0.268    -0.096    -0.089 -0.0401 -0.5145  0.8566
    30 H(1)   Bbb    -0.0002    -0.128    -0.046    -0.043  0.5599  0.6985  0.4457
              Bcc     0.0007     0.396     0.141     0.132  0.8276 -0.4974 -0.2601
 
              Baa    -0.0004    -0.214    -0.076    -0.071 -0.1678 -0.5401  0.8247
    31 H(1)   Bbb    -0.0002    -0.115    -0.041    -0.039 -0.1736  0.8397  0.5146
              Bcc     0.0006     0.330     0.118     0.110  0.9704  0.0569  0.2346
 
              Baa    -0.0002    -0.108    -0.038    -0.036 -0.0882 -0.6743  0.7331
    32 H(1)   Bbb    -0.0001    -0.072    -0.026    -0.024  0.4580  0.6262  0.6310
              Bcc     0.0003     0.179     0.064     0.060  0.8846 -0.3914 -0.2536
 
              Baa    -0.0002    -0.095    -0.034    -0.032  0.0903  0.7450 -0.6609
    33 H(1)   Bbb    -0.0001    -0.067    -0.024    -0.022 -0.0089  0.6642  0.7475
              Bcc     0.0003     0.162     0.058     0.054  0.9959 -0.0616  0.0666
 
              Baa    -0.0029    -0.386    -0.138    -0.129 -0.0479  0.4701  0.8813
    34 C(13)  Bbb     0.0003     0.039     0.014     0.013  0.5317  0.7589 -0.3759
              Bcc     0.0026     0.347     0.124     0.116  0.8456 -0.4506  0.2863
 
              Baa    -0.0025    -0.335    -0.119    -0.112  0.6275  0.7100 -0.3196
    35 C(13)  Bbb    -0.0014    -0.184    -0.066    -0.061  0.6938 -0.3236  0.6434
              Bcc     0.0039     0.519     0.185     0.173 -0.3533  0.6255  0.6956
 
              Baa    -0.0033    -0.447    -0.160    -0.149  0.6786  0.6607  0.3211
    36 C(13)  Bbb     0.0006     0.076     0.027     0.025 -0.6467  0.3301  0.6876
              Bcc     0.0028     0.372     0.133     0.124 -0.3483  0.6742 -0.6513
 
              Baa    -0.0020    -0.263    -0.094    -0.088 -0.2932  0.4407  0.8484
    37 C(13)  Bbb     0.0005     0.072     0.026     0.024  0.7217  0.6841 -0.1059
              Bcc     0.0014     0.191     0.068     0.064  0.6271 -0.5812  0.5187
 
              Baa    -0.0016    -0.214    -0.076    -0.071  0.7543  0.5197  0.4011
    38 C(13)  Bbb     0.0001     0.012     0.004     0.004 -0.4050 -0.1126  0.9074
              Bcc     0.0015     0.201     0.072     0.067 -0.5168  0.8469 -0.1256
 
              Baa    -0.0027    -0.362    -0.129    -0.121  0.8491  0.5275  0.0290
    39 C(13)  Bbb    -0.0017    -0.227    -0.081    -0.076  0.2827 -0.5000  0.8186
              Bcc     0.0044     0.589     0.210     0.197 -0.4463  0.6868  0.5737
 
              Baa    -0.0005    -0.250    -0.089    -0.083 -0.2636  0.2216  0.9388
    40 H(1)   Bbb    -0.0004    -0.232    -0.083    -0.077  0.4323  0.8972 -0.0904
              Bcc     0.0009     0.481     0.172     0.161  0.8623 -0.3820  0.3323
 
              Baa    -0.0049    -2.591    -0.925    -0.864  0.0520 -0.0014  0.9986
    41 H(1)   Bbb    -0.0043    -2.299    -0.820    -0.767  0.7263  0.6864 -0.0369
              Bcc     0.0092     4.890     1.745     1.631 -0.6854  0.7272  0.0367
 
              Baa    -0.0004    -0.215    -0.077    -0.072 -0.2626  0.3463  0.9006
    42 H(1)   Bbb    -0.0002    -0.086    -0.031    -0.029  0.7046  0.7065 -0.0663
              Bcc     0.0006     0.301     0.108     0.101  0.6592 -0.6172  0.4295
 
              Baa    -0.0021    -1.106    -0.394    -0.369 -0.1053  0.1096  0.9884
    43 H(1)   Bbb    -0.0003    -0.178    -0.064    -0.060  0.9284  0.3671  0.0582
              Bcc     0.0024     1.284     0.458     0.428 -0.3565  0.9237 -0.1404
 
              Baa    -0.2573    -9.922    -3.541    -3.310 -0.0285  0.9688  0.2461
    44 N(14)  Bbb    -0.2556    -9.858    -3.518    -3.288  0.9739 -0.0286  0.2253
              Bcc     0.5129    19.780     7.058     6.598 -0.2253 -0.2461  0.9427
 
              Baa    -0.0133    -1.786    -0.637    -0.596  0.5789  0.7719  0.2627
    45 C(13)  Bbb    -0.0040    -0.540    -0.193    -0.180  0.4619 -0.5759  0.6745
              Bcc     0.0173     2.326     0.830     0.776 -0.6720  0.2691  0.6900
 
              Baa    -0.0258    -3.459    -1.234    -1.154 -0.3390  0.7869 -0.5156
    46 C(13)  Bbb    -0.0218    -2.923    -1.043    -0.975  0.8400  0.0064 -0.5426
              Bcc     0.0476     6.382     2.277     2.129  0.4237  0.6171  0.6631
 
              Baa    -0.0212    -2.848    -1.016    -0.950  0.6660  0.4695 -0.5797
    47 C(13)  Bbb    -0.0176    -2.357    -0.841    -0.786  0.7398 -0.5151  0.4329
              Bcc     0.0388     5.206     1.857     1.736  0.0954  0.7172  0.6904
 
              Baa    -0.0080    -1.080    -0.385    -0.360 -0.1677  0.3849  0.9076
    48 C(13)  Bbb     0.0019     0.256     0.091     0.086  0.1689  0.9182 -0.3582
              Bcc     0.0061     0.824     0.294     0.275  0.9713 -0.0932  0.2190
 
              Baa    -0.0080    -1.074    -0.383    -0.358  0.1977  0.2601  0.9451
    49 C(13)  Bbb     0.0028     0.381     0.136     0.127  0.4486  0.8332 -0.3232
              Bcc     0.0052     0.692     0.247     0.231  0.8716 -0.4879 -0.0480
 
              Baa    -0.0273    -3.658    -1.305    -1.220  0.3761  0.8518 -0.3648
    50 C(13)  Bbb    -0.0239    -3.205    -1.144    -1.069  0.9204 -0.3889  0.0407
              Bcc     0.0511     6.864     2.449     2.289  0.1072  0.3510  0.9302
 
              Baa    -0.0027    -1.439    -0.514    -0.480  0.0349  0.4070  0.9128
    51 H(1)   Bbb    -0.0006    -0.305    -0.109    -0.102  0.9431 -0.3156  0.1046
              Bcc     0.0033     1.745     0.623     0.582  0.3307  0.8572 -0.3948
 
              Baa    -0.0029    -1.545    -0.551    -0.515  0.0902  0.3922  0.9154
    52 H(1)   Bbb     0.0005     0.286     0.102     0.096  0.9185 -0.3882  0.0758
              Bcc     0.0024     1.259     0.449     0.420  0.3851  0.8340 -0.3952
 
              Baa    -0.0014    -0.732    -0.261    -0.244  0.1227  0.5282  0.8402
    53 H(1)   Bbb     0.0002     0.128     0.046     0.043 -0.4774  0.7736 -0.4166
              Bcc     0.0011     0.604     0.215     0.201  0.8701  0.3500 -0.3471
 
              Baa    -0.0014    -0.725    -0.259    -0.242  0.1264  0.4947  0.8598
    54 H(1)   Bbb     0.0005     0.247     0.088     0.082  0.7357  0.5347 -0.4158
              Bcc     0.0009     0.478     0.171     0.160 -0.6654  0.6851 -0.2963
 
              Baa    -0.0136    -1.822    -0.650    -0.608  0.8411  0.0377  0.5396
    55 C(13)  Bbb    -0.0020    -0.275    -0.098    -0.092 -0.0942  0.9925  0.0775
              Bcc     0.0156     2.097     0.748     0.700 -0.5326 -0.1161  0.8383
 
              Baa    -0.0280    -3.760    -1.342    -1.254 -0.4631  0.7096 -0.5310
    56 C(13)  Bbb    -0.0248    -3.323    -1.186    -1.109  0.0272  0.6103  0.7917
              Bcc     0.0528     7.083     2.527     2.363  0.8859  0.3523 -0.3019
 
              Baa    -0.0298    -4.003    -1.428    -1.335  0.3263  0.4633  0.8240
    57 C(13)  Bbb    -0.0264    -3.539    -1.263    -1.181 -0.2565  0.8824 -0.3945
              Bcc     0.0562     7.542     2.691     2.516  0.9098  0.0826 -0.4067
 
              Baa    -0.0094    -1.257    -0.449    -0.419 -0.6777 -0.0088  0.7353
    58 C(13)  Bbb     0.0031     0.422     0.151     0.141  0.7079 -0.2785  0.6491
              Bcc     0.0062     0.835     0.298     0.279  0.1990  0.9604  0.1949
 
              Baa    -0.0084    -1.133    -0.404    -0.378 -0.6107 -0.4164  0.6735
    59 C(13)  Bbb     0.0026     0.349     0.125     0.116  0.7167  0.0708  0.6937
              Bcc     0.0058     0.784     0.280     0.261 -0.3366  0.9064  0.2552
 
              Baa    -0.0362    -4.864    -1.736    -1.622  0.6728 -0.1043  0.7325
    60 C(13)  Bbb    -0.0323    -4.331    -1.546    -1.445 -0.1105  0.9647  0.2389
              Bcc     0.0685     9.195     3.281     3.067  0.7315  0.2417 -0.6375
 
              Baa    -0.0027    -1.448    -0.517    -0.483 -0.6885  0.1469  0.7102
    61 H(1)   Bbb    -0.0013    -0.708    -0.252    -0.236  0.1535  0.9866 -0.0553
              Bcc     0.0040     2.155     0.769     0.719  0.7088 -0.0710  0.7018
 
              Baa    -0.0028    -1.507    -0.538    -0.503  0.6719 -0.5819 -0.4581
    62 H(1)   Bbb    -0.0004    -0.196    -0.070    -0.065  0.3351  0.7905 -0.5126
              Bcc     0.0032     1.703     0.608     0.568  0.6604  0.1909  0.7262
 
              Baa    -0.0015    -0.809    -0.289    -0.270  0.8068  0.1324 -0.5759
    63 H(1)   Bbb     0.0002     0.128     0.046     0.043 -0.3083  0.9257 -0.2192
              Bcc     0.0013     0.681     0.243     0.227  0.5041  0.3544  0.7876
 
              Baa    -0.0015    -0.819    -0.292    -0.273  0.8174  0.0482 -0.5741
    64 H(1)   Bbb     0.0005     0.251     0.090     0.084  0.3785  0.7063  0.5982
              Bcc     0.0011     0.568     0.203     0.189 -0.4343  0.7063 -0.5591
 
              Baa    -0.0042     0.305     0.109     0.102  0.8609  0.5075  0.0370
    65 O(17)  Bbb    -0.0031     0.227     0.081     0.076  0.3101 -0.5810  0.7525
              Bcc     0.0073    -0.532    -0.190    -0.177 -0.4034  0.6363  0.6575
 
              Baa    -0.0005    -0.276    -0.099    -0.092  0.7700  0.0300 -0.6373
    66 H(1)   Bbb    -0.0004    -0.230    -0.082    -0.077  0.4544  0.6754  0.5808
              Bcc     0.0009     0.507     0.181     0.169 -0.4479  0.7368 -0.5065
 
              Baa    -0.0014     0.100     0.036     0.033  0.1727  0.6857  0.7071
    67 O(17)  Bbb    -0.0010     0.076     0.027     0.025  0.9849 -0.1279 -0.1165
              Bcc     0.0024    -0.175    -0.063    -0.059  0.0106  0.7166 -0.6974
 
              Baa    -0.0001    -0.072    -0.026    -0.024 -0.0797 -0.5927  0.8015
    68 H(1)   Bbb    -0.0001    -0.048    -0.017    -0.016 -0.1187  0.8040  0.5827
              Bcc     0.0002     0.120     0.043     0.040  0.9897  0.0487  0.1344
 
              Baa    -0.0455     3.293     1.175     1.099 -0.2746  0.8817 -0.3837
    69 O(17)  Bbb    -0.0438     3.166     1.130     1.056  0.9520  0.1932 -0.2373
              Bcc     0.0893    -6.459    -2.305    -2.155  0.1351  0.4305  0.8924
 
              Baa    -0.0023    -1.232    -0.440    -0.411 -0.6030  0.7618 -0.2367
    70 H(1)   Bbb    -0.0016    -0.849    -0.303    -0.283  0.1528  0.4015  0.9030
              Bcc     0.0039     2.082     0.743     0.694  0.7830  0.5083 -0.3585
 
              Baa    -0.0620     4.487     1.601     1.497  0.3840  0.5816  0.7171
    71 O(17)  Bbb    -0.0601     4.349     1.552     1.451 -0.5254  0.7763 -0.3482
              Bcc     0.1221    -8.836    -3.153    -2.947  0.7592  0.2431 -0.6037
 
              Baa    -0.0031    -1.666    -0.595    -0.556  0.0501  0.7819  0.6214
    72 H(1)   Bbb    -0.0020    -1.081    -0.386    -0.360  0.7789  0.3589 -0.5144
              Bcc     0.0051     2.747     0.980     0.916  0.6252 -0.5098  0.5910
 

 ---------------------------------------------------------------------------------

 No NMR shielding tensors so no spin-rotation constants.
 Leave Link  601 at Thu Jan 21 16:56:42 2021, MaxMem=  4026531840 cpu:              20.2 elap:               4.2
 (Enter /opt/ohpc/pub/libs/gaussian/g16-A.03/sandybridge/g16/l9999.exe)

 Test job not archived.
 1\1\GINC-CASCADEB028\SP\ULC-wHPBE\TZVP\C36H28N2O4S2(1+,2)\RDU230\21-Ja
 n-2021\0\\#P LC-wHPBE/TZVP iop(3/107=0115700000, 3/108=0115700000) scf
 =(conver=6,fermi,ndamp=35,noincfock,novaracc,vshift=500,xqc)\\H28 C36 
 S2 N2 O4\\1,2\C,0,-1.748928,-0.489907,0.452051\C,0,-0.626174,-1.279763
 ,0.15257\S,0,1.952753,-5.388628,0.812439\C,0,-0.882312,-2.170069,-0.82
 0725\C,0,1.932708,-2.897266,-0.476539\C,0,2.566514,-3.761438,0.41855\C
 ,0,-2.975354,-0.631957,-0.195801\C,0,-2.049066,-2.386893,-1.545961\H,0
 ,0.246316,-4.468801,-0.586079\C,0,2.384401,-1.613824,-0.700024\C,0,3.6
 73888,-3.269502,1.095477\C,0,4.135912,-1.984797,0.893895\C,0,3.494497,
 -1.125461,-0.002977\H,0,1.857267,-0.971131,-1.395345\H,0,4.176334,-3.9
 12174,1.811785\H,0,4.992977,-1.63215,1.456718\C,0,-3.122467,-1.590215,
 -1.210611\H,0,-1.688273,0.276733,1.226088\H,0,2.539,-6.051116,-0.20624
 9\H,0,-2.132551,-3.120151,-2.347153\H,0,-4.068236,-1.688167,-1.734116\
 S,0,0.491419,-3.391365,-1.37893\N,0,3.940024,0.175839,-0.195205\C,0,5.
 26504,0.53915,0.184549\C,0,5.479402,1.520085,1.147894\C,0,6.360048,-0.
 068673,-0.412912\C,0,6.761446,1.889048,1.505778\C,0,7.649207,0.280692,
 -0.044528\C,0,7.852726,1.26556,0.91321\H,0,4.624132,2.002234,1.612555\
 H,0,6.198832,-0.830082,-1.170918\H,0,6.936355,2.656092,2.253454\H,0,8.
 499101,-0.206598,-0.518215\C,0,3.067884,1.217797,-0.624973\C,0,3.53316
 9,2.175669,-1.516644\C,0,1.768428,1.324352,-0.133595\C,0,2.72389,3.230
 889,-1.904642\C,0,0.952027,2.363639,-0.537\C,0,1.429133,3.326131,-1.41
 5171\H,0,4.545758,2.102962,-1.902377\H,0,1.364259,0.566763,0.534909\H,
 0,3.106488,3.978127,-2.597301\H,0,-0.063643,2.437107,-0.162477\N,0,-4.
 071583,0.199288,0.137893\C,0,-5.379657,-0.330758,0.192504\C,0,-6.46407
 2,0.381862,-0.308117\C,0,-5.615898,-1.583782,0.758482\C,0,-7.748035,-0
 .135409,-0.237366\C,0,-6.890741,-2.11387,0.808775\C,0,-7.966332,-1.388
 715,0.314728\H,0,-6.301182,1.359246,-0.752201\H,0,-4.779992,-2.148147,
 1.16092\H,0,-8.582756,0.442294,-0.630527\H,0,-7.071352,-3.090185,1.247
 847\C,0,-3.863071,1.579858,0.373004\C,0,-4.488297,2.228332,1.435995\C,
 0,-3.028002,2.320518,-0.45569\C,0,-4.288516,3.577498,1.662294\C,0,-2.8
 02155,3.666597,-0.218956\C,0,-3.435225,4.300687,0.840523\H,0,-5.141183
 ,1.661753,2.093518\H,0,-2.533592,1.828985,-1.288374\H,0,-4.774148,4.08
 1779,2.492022\H,0,-2.125658,4.220184,-0.867724\O,0,0.584592,4.343911,-
 1.769173\H,0,1.03059,4.920168,-2.399784\O,0,9.095256,1.661445,1.308356
 \H,0,9.763222,1.159512,0.827959\O,0,-9.209724,-1.953542,0.400297\H,0,-
 9.859516,-1.347058,0.028653\O,0,-3.254007,5.627948,1.116747\H,0,-2.609
 433,5.991357,0.499352\\Version=EM64L-G16RevA.03\State=2-A\HF=-2593.611
 8448\S2=0.756833\S2-1=0.\S2A=0.750028\RMSD=2.055e-07\Dipole=-0.8220509
 ,-0.7478566,-1.8199851\Quadrupole=56.2525693,-6.9353129,-49.3172564,-1
 0.3672661,-2.3053692,-2.2415362\PG=C01 [X(C36H28N2O4S2)]\\@


 THE TRULY SUCCESSFUL PERFORMANCE OF RESEARCHES IN
 INORGANIC CHEMISTRY IS POSSIBLE ONLY TO ONE WHO IS NOT
 ONLY A THEORETICAL CHEMIST, BUT ALSO AN ACCOMPLISHED
 ANALYST AND, MOREOVER, NOT MERELY A PRACTICALLY TRAINED,
 MECHANICAL WORKER, BUT A THINKING CREATIVE ARTIST.
   --  CLEMENS WINKLER, BER. 33, 1697(1900)
 Job cpu time:       0 days 14 hours 43 minutes 17.0 seconds.
 Elapsed time:       0 days  1 hours 51 minutes 59.3 seconds.
 File lengths (MBytes):  RWF=    796 Int=      0 D2E=      0 Chk=     76 Scr=      8
 Normal termination of Gaussian 16 at Thu Jan 21 16:56:42 2021.
