 Entering Gaussian System, Link 0=g16
 Input=mol_ta_ma_whol_tune_n7.gjf
 Output=mol_ta_ma_whol_tune_n7.log
 Initial command:
 /opt/ohpc/pub/libs/gaussian/g16-A.03/sandybridge/g16/l1.exe "/mnt/gpfs2_4m/scratch/rdu230/ondemand/projects/init_structures/wtuning/mol_ta_ma_whol/tuning_mol_ta_ma_whol_ocycle0/Gau-177431.inp" -scrdir="/mnt/gpfs2_4m/scratch/rdu230/ondemand/projects/init_structures/wtuning/mol_ta_ma_whol/tuning_mol_ta_ma_whol_ocycle0/"
 Entering Link 1 = /opt/ohpc/pub/libs/gaussian/g16-A.03/sandybridge/g16/l1.exe PID=    177432.
  
 Copyright (c) 1988,1990,1992,1993,1995,1998,2003,2009,2016,
            Gaussian, Inc.  All Rights Reserved.
  
 This is part of the Gaussian(R) 16 program.  It is based on
 the Gaussian(R) 09 system (copyright 2009, Gaussian, Inc.),
 the Gaussian(R) 03 system (copyright 2003, Gaussian, Inc.),
 the Gaussian(R) 98 system (copyright 1998, Gaussian, Inc.),
 the Gaussian(R) 94 system (copyright 1995, Gaussian, Inc.),
 the Gaussian 92(TM) system (copyright 1992, Gaussian, Inc.),
 the Gaussian 90(TM) system (copyright 1990, Gaussian, Inc.),
 the Gaussian 88(TM) system (copyright 1988, Gaussian, Inc.),
 the Gaussian 86(TM) system (copyright 1986, Carnegie Mellon
 University), and the Gaussian 82(TM) system (copyright 1983,
 Carnegie Mellon University). Gaussian is a federally registered
 trademark of Gaussian, Inc.
  
 This software contains proprietary and confidential information,
 including trade secrets, belonging to Gaussian, Inc.
  
 This software is provided under written license and may be
 used, copied, transmitted, or stored only in accord with that
 written license.
  
 The following legend is applicable only to US Government
 contracts under FAR:
  
                    RESTRICTED RIGHTS LEGEND
  
 Use, reproduction and disclosure by the US Government is
 subject to restrictions as set forth in subparagraphs (a)
 and (c) of the Commercial Computer Software - Restricted
 Rights clause in FAR 52.227-19.
  
 Gaussian, Inc.
 340 Quinnipiac St., Bldg. 40, Wallingford CT 06492
  
  
 ---------------------------------------------------------------
 Warning -- This program may not be used in any manner that
 competes with the business of Gaussian, Inc. or will provide
 assistance to any competitor of Gaussian, Inc.  The licensee
 of this program is prohibited from giving any competitor of
 Gaussian, Inc. access to this program.  By using this program,
 the user acknowledges that Gaussian, Inc. is engaged in the
 business of creating and licensing software in the field of
 computational chemistry and represents and warrants to the
 licensee that it is not a competitor of Gaussian, Inc. and that
 it will not use this program in any manner prohibited above.
 ---------------------------------------------------------------
  

 Cite this work as:
 Gaussian 16, Revision A.03,
 M. J. Frisch, G. W. Trucks, H. B. Schlegel, G. E. Scuseria, 
 M. A. Robb, J. R. Cheeseman, G. Scalmani, V. Barone, 
 G. A. Petersson, H. Nakatsuji, X. Li, M. Caricato, A. V. Marenich, 
 J. Bloino, B. G. Janesko, R. Gomperts, B. Mennucci, H. P. Hratchian, 
 J. V. Ortiz, A. F. Izmaylov, J. L. Sonnenberg, D. Williams-Young, 
 F. Ding, F. Lipparini, F. Egidi, J. Goings, B. Peng, A. Petrone, 
 T. Henderson, D. Ranasinghe, V. G. Zakrzewski, J. Gao, N. Rega, 
 G. Zheng, W. Liang, M. Hada, M. Ehara, K. Toyota, R. Fukuda, 
 J. Hasegawa, M. Ishida, T. Nakajima, Y. Honda, O. Kitao, H. Nakai, 
 T. Vreven, K. Throssell, J. A. Montgomery, Jr., J. E. Peralta, 
 F. Ogliaro, M. J. Bearpark, J. J. Heyd, E. N. Brothers, K. N. Kudin, 
 V. N. Staroverov, T. A. Keith, R. Kobayashi, J. Normand, 
 K. Raghavachari, A. P. Rendell, J. C. Burant, S. S. Iyengar, 
 J. Tomasi, M. Cossi, J. M. Millam, M. Klene, C. Adamo, R. Cammi, 
 J. W. Ochterski, R. L. Martin, K. Morokuma, O. Farkas, 
 J. B. Foresman, and D. J. Fox, Gaussian, Inc., Wallingford CT, 2016.
 
 ******************************************
 Gaussian 16:  EM64L-G16RevA.03 25-Dec-2016
                22-Jan-2021 
 ******************************************
 %mem=30GB
 %nproc=8
 Will use up to    8 processors via shared memory.
 ----------------------------------------------------------------------
 #P LC-wHPBE/TZVP iop(3/107=0163200000, 3/108=0163200000) scf=(conver=6
 ,fermi,ndamp=35,noincfock,novaracc,vshift=500,xqc)
 ----------------------------------------------------------------------
 1/38=1,172=1/1;
 2/12=2,17=6,18=5,40=1/2;
 3/5=19,7=101,11=2,25=1,30=1,74=-71,107=163200000,108=163200000/1,2,3;
 4//1;
 5/5=100002,6=6,8=3,10=500,13=1,18=-1,22=13,38=1,93=35/2,8;
 6/7=2,8=2,9=2,10=2,28=1/1;
 99/5=1,9=1/99;
 Leave Link    1 at Fri Jan 22 00:29:03 2021, MaxMem=  4026531840 cpu:               1.4 elap:               0.3
 (Enter /opt/ohpc/pub/libs/gaussian/g16-A.03/sandybridge/g16/l101.exe)
 ----------------
 H28 C36 S2 N2 O4
 ----------------
 Symbolic Z-matrix:
 Charge =  0 Multiplicity = 1
 C                    -1.74893  -0.48991   0.45205 
 C                    -0.62617  -1.27976   0.15257 
 S                     1.95275  -5.38863   0.81244 
 C                    -0.88231  -2.17007  -0.82073 
 C                     1.93271  -2.89727  -0.47654 
 C                     2.56651  -3.76144   0.41855 
 C                    -2.97535  -0.63196  -0.1958 
 C                    -2.04907  -2.38689  -1.54596 
 H                     0.24632  -4.4688   -0.58608 
 C                     2.3844   -1.61382  -0.70002 
 C                     3.67389  -3.2695    1.09548 
 C                     4.13591  -1.9848    0.8939 
 C                     3.4945   -1.12546  -0.00298 
 H                     1.85727  -0.97113  -1.39535 
 H                     4.17633  -3.91217   1.81179 
 H                     4.99298  -1.63215   1.45672 
 C                    -3.12247  -1.59022  -1.21061 
 H                    -1.68827   0.27673   1.22609 
 H                     2.539    -6.05112  -0.20625 
 H                    -2.13255  -3.12015  -2.34715 
 H                    -4.06824  -1.68817  -1.73412 
 S                     0.49142  -3.39136  -1.37893 
 N                     3.94002   0.17584  -0.19521 
 C                     5.26504   0.53915   0.18455 
 C                     5.4794    1.52009   1.14789 
 C                     6.36005  -0.06867  -0.41291 
 C                     6.76145   1.88905   1.50578 
 C                     7.64921   0.28069  -0.04453 
 C                     7.85273   1.26556   0.91321 
 H                     4.62413   2.00223   1.61256 
 H                     6.19883  -0.83008  -1.17092 
 H                     6.93636   2.65609   2.25345 
 H                     8.4991   -0.2066   -0.51822 
 C                     3.06788   1.2178   -0.62497 
 C                     3.53317   2.17567  -1.51664 
 C                     1.76843   1.32435  -0.1336 
 C                     2.72389   3.23089  -1.90464 
 C                     0.95203   2.36364  -0.537 
 C                     1.42913   3.32613  -1.41517 
 H                     4.54576   2.10296  -1.90238 
 H                     1.36426   0.56676   0.53491 
 H                     3.10649   3.97813  -2.5973 
 H                    -0.06364   2.43711  -0.16248 
 N                    -4.07158   0.19929   0.13789 
 C                    -5.37966  -0.33076   0.1925 
 C                    -6.46407   0.38186  -0.30812 
 C                    -5.6159   -1.58378   0.75848 
 C                    -7.74803  -0.13541  -0.23737 
 C                    -6.89074  -2.11387   0.80878 
 C                    -7.96633  -1.38872   0.31473 
 H                    -6.30118   1.35925  -0.7522 
 H                    -4.77999  -2.14815   1.16092 
 H                    -8.58276   0.44229  -0.63053 
 H                    -7.07135  -3.09018   1.24785 
 C                    -3.86307   1.57986   0.373 
 C                    -4.4883    2.22833   1.436 
 C                    -3.028     2.32052  -0.45569 
 C                    -4.28852   3.5775    1.66229 
 C                    -2.80216   3.6666   -0.21896 
 C                    -3.43522   4.30069   0.84052 
 H                    -5.14118   1.66175   2.09352 
 H                    -2.53359   1.82899  -1.28837 
 H                    -4.77415   4.08178   2.49202 
 H                    -2.12566   4.22018  -0.86772 
 O                     0.58459   4.34391  -1.76917 
 H                     1.03059   4.92017  -2.39978 
 O                     9.09526   1.66145   1.30836 
 H                     9.76322   1.15951   0.82796 
 O                    -9.20972  -1.95354   0.4003 
 H                    -9.85952  -1.34706   0.02865 
 O                    -3.25401   5.62795   1.11675 
 H                    -2.60943   5.99136   0.49935 
 
 ITRead=  0  0  0  0  0  0  0  0  0  0  0  0  0  0  0  0  0  0  0  0
 ITRead=  0  0  0  0  0  0  0  0  0  0  0  0  0  0  0  0  0  0  0  0
 ITRead=  0  0  0  0  0  0  0  0  0  0  0  0  0  0  0  0  0  0  0  0
 ITRead=  0  0  0  0  0  0  0  0  0  0  0  0
 MicOpt= -1 -1 -1 -1 -1 -1 -1 -1 -1 -1 -1 -1 -1 -1 -1 -1 -1 -1 -1 -1
 MicOpt= -1 -1 -1 -1 -1 -1 -1 -1 -1 -1 -1 -1 -1 -1 -1 -1 -1 -1 -1 -1
 MicOpt= -1 -1 -1 -1 -1 -1 -1 -1 -1 -1 -1 -1 -1 -1 -1 -1 -1 -1 -1 -1
 MicOpt= -1 -1 -1 -1 -1 -1 -1 -1 -1 -1 -1 -1
 NAtoms=     72 NQM=       72 NQMF=       0 NMMI=      0 NMMIF=      0
                NMic=       0 NMicF=      0.
                    Isotopes and Nuclear Properties:
 (Nuclear quadrupole moments (NQMom) in fm**2, nuclear magnetic moments (NMagM)
  in nuclear magnetons)

  Atom         1           2           3           4           5           6           7           8           9          10
 IAtWgt=          12          12          32          12          12          12          12          12           1          12
 AtmWgt=  12.0000000  12.0000000  31.9720718  12.0000000  12.0000000  12.0000000  12.0000000  12.0000000   1.0078250  12.0000000
 NucSpn=           0           0           0           0           0           0           0           0           1           0
 AtZEff=  -0.0000000  -0.0000000  -0.0000000  -0.0000000  -0.0000000  -0.0000000  -0.0000000  -0.0000000  -0.0000000  -0.0000000
 NQMom=    0.0000000   0.0000000   0.0000000   0.0000000   0.0000000   0.0000000   0.0000000   0.0000000   0.0000000   0.0000000
 NMagM=    0.0000000   0.0000000   0.0000000   0.0000000   0.0000000   0.0000000   0.0000000   0.0000000   2.7928460   0.0000000
 AtZNuc=   6.0000000   6.0000000  16.0000000   6.0000000   6.0000000   6.0000000   6.0000000   6.0000000   1.0000000   6.0000000

  Atom        11          12          13          14          15          16          17          18          19          20
 IAtWgt=          12          12          12           1           1           1          12           1           1           1
 AtmWgt=  12.0000000  12.0000000  12.0000000   1.0078250   1.0078250   1.0078250  12.0000000   1.0078250   1.0078250   1.0078250
 NucSpn=           0           0           0           1           1           1           0           1           1           1
 AtZEff=  -0.0000000  -0.0000000  -0.0000000  -0.0000000  -0.0000000  -0.0000000  -0.0000000  -0.0000000  -0.0000000  -0.0000000
 NQMom=    0.0000000   0.0000000   0.0000000   0.0000000   0.0000000   0.0000000   0.0000000   0.0000000   0.0000000   0.0000000
 NMagM=    0.0000000   0.0000000   0.0000000   2.7928460   2.7928460   2.7928460   0.0000000   2.7928460   2.7928460   2.7928460
 AtZNuc=   6.0000000   6.0000000   6.0000000   1.0000000   1.0000000   1.0000000   6.0000000   1.0000000   1.0000000   1.0000000

  Atom        21          22          23          24          25          26          27          28          29          30
 IAtWgt=           1          32          14          12          12          12          12          12          12           1
 AtmWgt=   1.0078250  31.9720718  14.0030740  12.0000000  12.0000000  12.0000000  12.0000000  12.0000000  12.0000000   1.0078250
 NucSpn=           1           0           2           0           0           0           0           0           0           1
 AtZEff=  -0.0000000  -0.0000000  -0.0000000  -0.0000000  -0.0000000  -0.0000000  -0.0000000  -0.0000000  -0.0000000  -0.0000000
 NQMom=    0.0000000   0.0000000   2.0440000   0.0000000   0.0000000   0.0000000   0.0000000   0.0000000   0.0000000   0.0000000
 NMagM=    2.7928460   0.0000000   0.4037610   0.0000000   0.0000000   0.0000000   0.0000000   0.0000000   0.0000000   2.7928460
 AtZNuc=   1.0000000  16.0000000   7.0000000   6.0000000   6.0000000   6.0000000   6.0000000   6.0000000   6.0000000   1.0000000

  Atom        31          32          33          34          35          36          37          38          39          40
 IAtWgt=           1           1           1          12          12          12          12          12          12           1
 AtmWgt=   1.0078250   1.0078250   1.0078250  12.0000000  12.0000000  12.0000000  12.0000000  12.0000000  12.0000000   1.0078250
 NucSpn=           1           1           1           0           0           0           0           0           0           1
 AtZEff=  -0.0000000  -0.0000000  -0.0000000  -0.0000000  -0.0000000  -0.0000000  -0.0000000  -0.0000000  -0.0000000  -0.0000000
 NQMom=    0.0000000   0.0000000   0.0000000   0.0000000   0.0000000   0.0000000   0.0000000   0.0000000   0.0000000   0.0000000
 NMagM=    2.7928460   2.7928460   2.7928460   0.0000000   0.0000000   0.0000000   0.0000000   0.0000000   0.0000000   2.7928460
 AtZNuc=   1.0000000   1.0000000   1.0000000   6.0000000   6.0000000   6.0000000   6.0000000   6.0000000   6.0000000   1.0000000

  Atom        41          42          43          44          45          46          47          48          49          50
 IAtWgt=           1           1           1          14          12          12          12          12          12          12
 AtmWgt=   1.0078250   1.0078250   1.0078250  14.0030740  12.0000000  12.0000000  12.0000000  12.0000000  12.0000000  12.0000000
 NucSpn=           1           1           1           2           0           0           0           0           0           0
 AtZEff=  -0.0000000  -0.0000000  -0.0000000  -0.0000000  -0.0000000  -0.0000000  -0.0000000  -0.0000000  -0.0000000  -0.0000000
 NQMom=    0.0000000   0.0000000   0.0000000   2.0440000   0.0000000   0.0000000   0.0000000   0.0000000   0.0000000   0.0000000
 NMagM=    2.7928460   2.7928460   2.7928460   0.4037610   0.0000000   0.0000000   0.0000000   0.0000000   0.0000000   0.0000000
 AtZNuc=   1.0000000   1.0000000   1.0000000   7.0000000   6.0000000   6.0000000   6.0000000   6.0000000   6.0000000   6.0000000

  Atom        51          52          53          54          55          56          57          58          59          60
 IAtWgt=           1           1           1           1          12          12          12          12          12          12
 AtmWgt=   1.0078250   1.0078250   1.0078250   1.0078250  12.0000000  12.0000000  12.0000000  12.0000000  12.0000000  12.0000000
 NucSpn=           1           1           1           1           0           0           0           0           0           0
 AtZEff=  -0.0000000  -0.0000000  -0.0000000  -0.0000000  -0.0000000  -0.0000000  -0.0000000  -0.0000000  -0.0000000  -0.0000000
 NQMom=    0.0000000   0.0000000   0.0000000   0.0000000   0.0000000   0.0000000   0.0000000   0.0000000   0.0000000   0.0000000
 NMagM=    2.7928460   2.7928460   2.7928460   2.7928460   0.0000000   0.0000000   0.0000000   0.0000000   0.0000000   0.0000000
 AtZNuc=   1.0000000   1.0000000   1.0000000   1.0000000   6.0000000   6.0000000   6.0000000   6.0000000   6.0000000   6.0000000

  Atom        61          62          63          64          65          66          67          68          69          70
 IAtWgt=           1           1           1           1          16           1          16           1          16           1
 AtmWgt=   1.0078250   1.0078250   1.0078250   1.0078250  15.9949146   1.0078250  15.9949146   1.0078250  15.9949146   1.0078250
 NucSpn=           1           1           1           1           0           1           0           1           0           1
 AtZEff=  -0.0000000  -0.0000000  -0.0000000  -0.0000000  -0.0000000  -0.0000000  -0.0000000  -0.0000000  -0.0000000  -0.0000000
 NQMom=    0.0000000   0.0000000   0.0000000   0.0000000   0.0000000   0.0000000   0.0000000   0.0000000   0.0000000   0.0000000
 NMagM=    2.7928460   2.7928460   2.7928460   2.7928460   0.0000000   2.7928460   0.0000000   2.7928460   0.0000000   2.7928460
 AtZNuc=   1.0000000   1.0000000   1.0000000   1.0000000   8.0000000   1.0000000   8.0000000   1.0000000   8.0000000   1.0000000

  Atom        71          72
 IAtWgt=          16           1
 AtmWgt=  15.9949146   1.0078250
 NucSpn=           0           1
 AtZEff=  -0.0000000  -0.0000000
 NQMom=    0.0000000   0.0000000
 NMagM=    0.0000000   2.7928460
 AtZNuc=   8.0000000   1.0000000
 Leave Link  101 at Fri Jan 22 00:29:04 2021, MaxMem=  4026531840 cpu:               1.0 elap:               0.2
 (Enter /opt/ohpc/pub/libs/gaussian/g16-A.03/sandybridge/g16/l202.exe)
 Stoichiometry    C36H28N2O4S2
 Framework group  C1[X(C36H28N2O4S2)]
 Deg. of freedom   210
 Full point group                 C1      NOp   1
 Largest Abelian subgroup         C1      NOp   1
 Largest concise Abelian subgroup C1      NOp   1
                         Standard orientation:                         
 ---------------------------------------------------------------------
 Center     Atomic      Atomic             Coordinates (Angstroms)
 Number     Number       Type             X           Y           Z
 ---------------------------------------------------------------------
      1          6           0       -1.748928    0.489907   -0.452051
      2          6           0       -0.626174    1.279763   -0.152570
      3         16           0        1.952753    5.388628   -0.812439
      4          6           0       -0.882312    2.170069    0.820725
      5          6           0        1.932708    2.897266    0.476539
      6          6           0        2.566514    3.761438   -0.418550
      7          6           0       -2.975354    0.631957    0.195801
      8          6           0       -2.049066    2.386893    1.545961
      9          1           0        0.246316    4.468801    0.586079
     10          6           0        2.384401    1.613824    0.700024
     11          6           0        3.673888    3.269502   -1.095477
     12          6           0        4.135912    1.984797   -0.893895
     13          6           0        3.494497    1.125461    0.002977
     14          1           0        1.857267    0.971131    1.395345
     15          1           0        4.176334    3.912174   -1.811785
     16          1           0        4.992977    1.632150   -1.456718
     17          6           0       -3.122467    1.590215    1.210611
     18          1           0       -1.688273   -0.276733   -1.226088
     19          1           0        2.539000    6.051116    0.206249
     20          1           0       -2.132551    3.120151    2.347153
     21          1           0       -4.068236    1.688167    1.734116
     22         16           0        0.491419    3.391365    1.378930
     23          7           0        3.940024   -0.175839    0.195205
     24          6           0        5.265040   -0.539150   -0.184549
     25          6           0        5.479402   -1.520085   -1.147894
     26          6           0        6.360048    0.068673    0.412912
     27          6           0        6.761446   -1.889048   -1.505778
     28          6           0        7.649207   -0.280692    0.044528
     29          6           0        7.852726   -1.265560   -0.913210
     30          1           0        4.624132   -2.002234   -1.612555
     31          1           0        6.198832    0.830082    1.170918
     32          1           0        6.936355   -2.656092   -2.253454
     33          1           0        8.499101    0.206598    0.518215
     34          6           0        3.067884   -1.217797    0.624973
     35          6           0        3.533169   -2.175669    1.516644
     36          6           0        1.768428   -1.324352    0.133595
     37          6           0        2.723890   -3.230889    1.904642
     38          6           0        0.952027   -2.363639    0.537000
     39          6           0        1.429133   -3.326131    1.415171
     40          1           0        4.545758   -2.102962    1.902377
     41          1           0        1.364259   -0.566763   -0.534909
     42          1           0        3.106488   -3.978127    2.597301
     43          1           0       -0.063643   -2.437107    0.162477
     44          7           0       -4.071583   -0.199288   -0.137893
     45          6           0       -5.379657    0.330758   -0.192504
     46          6           0       -6.464072   -0.381862    0.308117
     47          6           0       -5.615898    1.583782   -0.758482
     48          6           0       -7.748035    0.135409    0.237366
     49          6           0       -6.890741    2.113870   -0.808775
     50          6           0       -7.966332    1.388715   -0.314728
     51          1           0       -6.301182   -1.359246    0.752201
     52          1           0       -4.779992    2.148147   -1.160920
     53          1           0       -8.582756   -0.442294    0.630527
     54          1           0       -7.071352    3.090185   -1.247847
     55          6           0       -3.863071   -1.579858   -0.373004
     56          6           0       -4.488297   -2.228332   -1.435995
     57          6           0       -3.028002   -2.320518    0.455690
     58          6           0       -4.288516   -3.577498   -1.662294
     59          6           0       -2.802155   -3.666597    0.218956
     60          6           0       -3.435225   -4.300687   -0.840523
     61          1           0       -5.141183   -1.661753   -2.093518
     62          1           0       -2.533592   -1.828985    1.288374
     63          1           0       -4.774148   -4.081779   -2.492022
     64          1           0       -2.125658   -4.220184    0.867724
     65          8           0        0.584592   -4.343911    1.769173
     66          1           0        1.030590   -4.920168    2.399784
     67          8           0        9.095256   -1.661445   -1.308356
     68          1           0        9.763222   -1.159512   -0.827959
     69          8           0       -9.209724    1.953542   -0.400297
     70          1           0       -9.859516    1.347058   -0.028653
     71          8           0       -3.254007   -5.627948   -1.116747
     72          1           0       -2.609433   -5.991357   -0.499352
 ---------------------------------------------------------------------
 Rotational constants (GHZ):           0.1003685           0.0370235           0.0288534
 Leave Link  202 at Fri Jan 22 00:29:04 2021, MaxMem=  4026531840 cpu:               0.3 elap:               0.1
 (Enter /opt/ohpc/pub/libs/gaussian/g16-A.03/sandybridge/g16/l301.exe)
 Standard basis: TZVP (5D, 7F)
 Ernie: Thresh=  0.10000D-02 Tol=  0.10000D-05 Strict=F.
 There are  1054 symmetry adapted cartesian basis functions of A   symmetry.
 There are  1010 symmetry adapted basis functions of A   symmetry.
  1010 basis functions,  1788 primitive gaussians,  1054 cartesian basis functions
   161 alpha electrons      161 beta electrons
       nuclear repulsion energy      5277.7236652844 Hartrees.
 IExCor=33909 DFT=T Ex+Corr=LC-wHPBE ExCW=0 ScaHFX=  1.000000
 ScaDFX=  1.000000  1.000000  1.000000  1.000000 ScalE2=  1.000000  1.000000
 IRadAn=      5 IRanWt=     -1 IRanGd=            0 ICorTp=0 IEmpDi=  4
 HFx  wShort=  0.000000 wLong=  0.163200 cFull=  0.000000 cShort=  0.000000 cLong=  1.000000
 DFx  wShort=  0.000000 wLong=  0.163200 cFull=  0.000000 cShort=  1.000000 cLong=  0.000000
 NAtoms=   72 NActive=   72 NUniq=   72 SFac= 1.00D+00 NAtFMM=   60 NAOKFM=T Big=T
 Integral buffers will be    131072 words long.
 Raffenetti 2 integral format.
 Two-electron integral symmetry is turned on.
 Leave Link  301 at Fri Jan 22 00:29:04 2021, MaxMem=  4026531840 cpu:               0.6 elap:               0.1
 (Enter /opt/ohpc/pub/libs/gaussian/g16-A.03/sandybridge/g16/l302.exe)
 NPDir=0 NMtPBC=     1 NCelOv=     1 NCel=       1 NClECP=     1 NCelD=      1
         NCelK=      1 NCelE2=     1 NClLst=     1 CellRange=     0.0.
 One-electron integrals computed using PRISM.
 One-electron integral symmetry used in STVInt
 NBasis=  1010 RedAO= T EigKep=  6.33D-06  NBF=  1010
 NBsUse=  1010 1.00D-06 EigRej= -1.00D+00 NBFU=  1010
 Precomputing XC quadrature grid using
 IXCGrd= 4 IRadAn=           5 IRanWt=          -1 IRanGd=           0 AccXCQ= 0.00D+00.
 Generated NRdTot=       0 NPtTot=           0 NUsed=           0 NTot=          32
 NSgBfM=   960   960   960   960   960 MxSgAt=    72 MxSgA2=    72.
 Leave Link  302 at Fri Jan 22 00:29:12 2021, MaxMem=  4026531840 cpu:              52.7 elap:               8.5
 (Enter /opt/ohpc/pub/libs/gaussian/g16-A.03/sandybridge/g16/l303.exe)
 DipDrv:  MaxL=1.
 Leave Link  303 at Fri Jan 22 00:29:13 2021, MaxMem=  4026531840 cpu:               1.4 elap:               0.4
 (Enter /opt/ohpc/pub/libs/gaussian/g16-A.03/sandybridge/g16/l401.exe)
 ExpMin= 9.52D-02 ExpMax= 6.07D+04 ExpMxC= 2.07D+03 IAcc=3 IRadAn=         5 AccDes= 0.00D+00
 Harris functional with IExCor=33909 and IRadAn=       5 diagonalized for initial guess.
 HarFok:  IExCor=33909 AccDes= 0.00D+00 IRadAn=         5 IDoV= 1 UseB2=F ITyADJ=14
 ICtDFT=  3500011 ScaDFX=  1.000000  1.000000  1.000000  1.000000
 FoFCou: FMM=F IPFlag=           0 FMFlag=      100000 FMFlg1=        2001
         NFxFlg=           0 DoJE=T BraDBF=F KetDBF=T FulRan=T
         wScrn=  0.000000 ICntrl=       500 IOpCl=  0 I1Cent=   200000004 NGrid=           0
         NMat0=    1 NMatS0=      1 NMatT0=    0 NMatD0=    1 NMtDS0=    0 NMtDT0=    0
 Petite list used in FoFCou.
 Harris En= -2565.63036027878    
 JPrj=0 DoOrth=F DoCkMO=F.
 Leave Link  401 at Fri Jan 22 00:29:26 2021, MaxMem=  4026531840 cpu:             108.0 elap:              13.6
 (Enter /opt/ohpc/pub/libs/gaussian/g16-A.03/sandybridge/g16/l502.exe)
 Integral symmetry usage will be decided dynamically.
 Closed shell SCF:
 Using DIIS extrapolation, IDIIS=    10.
 NGot=  4026531840 LenX=  4024291472 LenY=  4023179502
 Requested convergence on RMS density matrix=1.00D-06 within  32 cycles.
 Requested convergence on MAX density matrix=1.00D-04.
 Requested convergence on             energy=1.00D-04.
 Virtual orbitals will be shifted by   0.500 hartree.
 No special actions if energy rises.
 Dynamic level shift is on during FON iterations.

 Cycle   1  Pass 1  IDiag  1:
 FoFJK:  IHMeth= 1 ICntrl=       0 DoSepK=T KAlg= 0 I1Cent=           0 FoldK=F
 IRaf=         1 NMat=       1 IRICut=       1 DoRegI=T DoRafI=F ISym2E= 0 IDoP0=0 IntGTp=1.
 FoFCou: FMM=T IPFlag=           0 FMFlag=      100000 FMFlg1=        2001
         NFxFlg=           0 DoJE=T BraDBF=F KetDBF=F FulRan=T
         wScrn=  0.000000 ICntrl=       500 IOpCl=  0 I1Cent=           0 NGrid=           0
         NMat0=    1 NMatS0=      1 NMatT0=    0 NMatD0=    1 NMtDS0=    0 NMtDT0=    0
 Symmetry not used in FoFCou.
 FMM levels:  10  Number of levels for PrismC:   9
 E= -2593.00916270713    
 DIIS: error= 1.92D-02 at cycle   1 NSaved=   1.
 NSaved= 1 IEnMin= 1 EnMin= -2593.00916270713     IErMin= 1 ErrMin= 1.92D-02
 ErrMax= 1.92D-02  0.00D+00 EMaxC= 1.00D+00 BMatC= 9.31D-01 BMatP= 9.31D-01
 IDIUse=1 WtCom= 1.00D+00 WtEn= 0.00D+00
 Coeff-Com:  0.100D+01
 Coeff:      0.100D+01
 Gap=     0.368 Goal=   None    Shift=    0.500
 T= 1228. Gap= 0.432 NK=0 IS=  162 IE= 1010 IFin=  161
          NO(<0.9)=   0  NV(>0.1)=   0    161.00e < EF      0.00e >EF  Err=0.0D+00
 GapD=    0.368 DampG=1.000 DampE=0.500 DampFc=0.5000 IDamp=-1.
 Damping current iteration by 5.00D-01
 RMSDP=3.44D-03 MaxDP=4.82D-01              OVMax= 1.44D-01

 Cycle   2  Pass 1  IDiag  1:
 E= -2593.58688134322     Delta-E=       -0.577718636092 Rises=F Damp=T
 DIIS: error= 7.80D-03 at cycle   2 NSaved=   2.
 NSaved= 2 IEnMin= 2 EnMin= -2593.58688134322     IErMin= 2 ErrMin= 7.80D-03
 ErrMax= 7.80D-03  0.00D+00 EMaxC= 1.00D+00 BMatC= 1.29D-01 BMatP= 9.31D-01
 IDIUse=1 WtCom= 1.00D+00 WtEn= 0.00D+00
 Coeff-Com: -0.454D+00 0.145D+01
 Coeff:     -0.454D+00 0.145D+01
 Gap=     0.224 Goal=   None    Shift=    0.500
 T= 1095. Gap= 0.680 NK=0 IS=  162 IE= 1010 IFin=  161
          NO(<0.9)=   0  NV(>0.1)=   0    161.00e < EF      0.00e >EF  Err=0.0D+00
 GapD=    0.224 DampG=1.000 DampE=1.000 DampFc=1.0000 IDamp=-1.
 RMSDP=1.59D-03 MaxDP=1.50D-01 DE=-5.78D-01 OVMax= 1.99D-02

 Cycle   3  Pass 1  IDiag  1:
 E= -2593.90783931365     Delta-E=       -0.320957970430 Rises=F Damp=F
 DIIS: error= 2.01D-03 at cycle   3 NSaved=   3.
 NSaved= 3 IEnMin= 3 EnMin= -2593.90783931365     IErMin= 3 ErrMin= 2.01D-03
 ErrMax= 2.01D-03  0.00D+00 EMaxC= 1.00D+00 BMatC= 1.46D-02 BMatP= 1.29D-01
 IDIUse=1 WtCom= 1.00D+00 WtEn= 0.00D+00
 Coeff-Com:  0.576D-01 0.924D-01 0.850D+00
 Coeff:      0.576D-01 0.924D-01 0.850D+00
 Gap=     0.204 Goal=   None    Shift=    0.500
 T=  816. Gap= 0.699 NK=0 IS=  162 IE= 1010 IFin=  161
          NO(<0.9)=   0  NV(>0.1)=   0    161.00e < EF      0.00e >EF  Err=0.0D+00
 GapD=    0.204 DampG=1.000 DampE=1.000 DampFc=1.0000 IDamp=-1.
 RMSDP=6.39D-04 MaxDP=1.05D-01 DE=-3.21D-01 OVMax= 9.59D-03

 Cycle   4  Pass 1  IDiag  1:
 E= -2593.92080466478     Delta-E=       -0.012965351125 Rises=F Damp=F
 DIIS: error= 1.02D-03 at cycle   4 NSaved=   4.
 NSaved= 4 IEnMin= 4 EnMin= -2593.92080466478     IErMin= 4 ErrMin= 1.02D-03
 ErrMax= 1.02D-03  0.00D+00 EMaxC= 1.00D+00 BMatC= 2.05D-03 BMatP= 1.46D-02
 IDIUse=1 WtCom= 1.00D+00 WtEn= 0.00D+00
 Coeff-Com:  0.751D-01-0.932D-01 0.750D-01 0.943D+00
 Coeff:      0.751D-01-0.932D-01 0.750D-01 0.943D+00
 Gap=     0.201 Goal=   None    Shift=    0.500
 T=  225. Gap= 0.701 NK=0 IS=  162 IE= 1010 IFin=  161
          NO(<0.9)=   0  NV(>0.1)=   0    161.00e < EF      0.00e >EF  Err=0.0D+00
 GapD=    0.201 DampG=1.000 DampE=1.000 DampFc=1.0000 IDamp=-1.
 RMSDP=2.96D-04 MaxDP=4.81D-02 DE=-1.30D-02 OVMax= 6.87D-03

 Cycle   5  Pass 1  IDiag  1:
 E= -2593.92272584699     Delta-E=       -0.001921182219 Rises=F Damp=F
 DIIS: error= 3.22D-04 at cycle   5 NSaved=   5.
 NSaved= 5 IEnMin= 5 EnMin= -2593.92272584699     IErMin= 5 ErrMin= 3.22D-04
 ErrMax= 3.22D-04  0.00D+00 EMaxC= 1.00D+00 BMatC= 2.48D-04 BMatP= 2.05D-03
 IDIUse=1 WtCom= 1.00D+00 WtEn= 0.00D+00
 Coeff-Com:  0.140D-01-0.247D-01-0.672D-01 0.209D-01 0.106D+01
 Coeff:      0.140D-01-0.247D-01-0.672D-01 0.209D-01 0.106D+01
 Gap=     0.203 Goal=   None    Shift=    0.500
 RMSDP=1.77D-04 MaxDP=2.87D-02 DE=-1.92D-03 OVMax= 5.23D-03

 Cycle   6  Pass 1  IDiag  1:
 E= -2593.92315013789     Delta-E=       -0.000424290897 Rises=F Damp=F
 DIIS: error= 3.04D-04 at cycle   6 NSaved=   6.
 NSaved= 6 IEnMin= 6 EnMin= -2593.92315013789     IErMin= 6 ErrMin= 3.04D-04
 ErrMax= 3.04D-04  0.00D+00 EMaxC= 1.00D+00 BMatC= 4.90D-05 BMatP= 2.48D-04
 IDIUse=1 WtCom= 1.00D+00 WtEn= 0.00D+00
 Coeff-Com: -0.952D-02 0.115D-01-0.428D-01-0.123D+00 0.224D-01 0.114D+01
 Coeff:     -0.952D-02 0.115D-01-0.428D-01-0.123D+00 0.224D-01 0.114D+01
 Gap=     0.204 Goal=   None    Shift=    0.500
 RMSDP=1.04D-04 MaxDP=1.63D-02 DE=-4.24D-04 OVMax= 4.77D-03

 Cycle   7  Pass 1  IDiag  1:
 E= -2593.92330737196     Delta-E=       -0.000157234072 Rises=F Damp=F
 DIIS: error= 2.48D-04 at cycle   7 NSaved=   7.
 NSaved= 7 IEnMin= 7 EnMin= -2593.92330737196     IErMin= 7 ErrMin= 2.48D-04
 ErrMax= 2.48D-04  0.00D+00 EMaxC= 1.00D+00 BMatC= 1.89D-05 BMatP= 4.90D-05
 IDIUse=1 WtCom= 1.00D+00 WtEn= 0.00D+00
 Coeff-Com: -0.528D-02 0.627D-02 0.528D-02-0.336D-01-0.296D+00-0.130D+00
 Coeff-Com:  0.145D+01
 Coeff:     -0.528D-02 0.627D-02 0.528D-02-0.336D-01-0.296D+00-0.130D+00
 Coeff:      0.145D+01
 Gap=     0.204 Goal=   None    Shift=    0.500
 RMSDP=6.93D-05 MaxDP=1.01D-02 DE=-1.57D-04 OVMax= 4.17D-03

 Cycle   8  Pass 1  IDiag  1:
 E= -2593.92339146786     Delta-E=       -0.000084095900 Rises=F Damp=F
 DIIS: error= 2.08D-04 at cycle   8 NSaved=   8.
 NSaved= 8 IEnMin= 8 EnMin= -2593.92339146786     IErMin= 8 ErrMin= 2.08D-04
 ErrMax= 2.08D-04  0.00D+00 EMaxC= 1.00D+00 BMatC= 9.18D-06 BMatP= 1.89D-05
 IDIUse=1 WtCom= 1.00D+00 WtEn= 0.00D+00
 Coeff-Com:  0.270D-02-0.499D-02 0.210D-01 0.316D-01-0.127D+00-0.544D+00
 Coeff-Com:  0.116D+00 0.150D+01
 Coeff:      0.270D-02-0.499D-02 0.210D-01 0.316D-01-0.127D+00-0.544D+00
 Coeff:      0.116D+00 0.150D+01
 Gap=     0.205 Goal=   None    Shift=    0.500
 RMSDP=5.09D-05 MaxDP=6.79D-03 DE=-8.41D-05 OVMax= 3.55D-03

 Cycle   9  Pass 1  IDiag  1:
 E= -2593.92344048532     Delta-E=       -0.000049017462 Rises=F Damp=F
 DIIS: error= 1.73D-04 at cycle   9 NSaved=   9.
 NSaved= 9 IEnMin= 9 EnMin= -2593.92344048532     IErMin= 9 ErrMin= 1.73D-04
 ErrMax= 1.73D-04  0.00D+00 EMaxC= 1.00D+00 BMatC= 4.76D-06 BMatP= 9.18D-06
 IDIUse=1 WtCom= 1.00D+00 WtEn= 0.00D+00
 Coeff-Com:  0.387D-02-0.567D-02 0.637D-02 0.311D-01 0.136D+00-0.267D+00
 Coeff-Com: -0.751D+00-0.571D-01 0.190D+01
 Coeff:      0.387D-02-0.567D-02 0.637D-02 0.311D-01 0.136D+00-0.267D+00
 Coeff:     -0.751D+00-0.571D-01 0.190D+01
 Gap=     0.205 Goal=   None    Shift=    0.500
 RMSDP=3.89D-05 MaxDP=4.54D-03 DE=-4.90D-05 OVMax= 3.19D-03

 Cycle  10  Pass 1  IDiag  1:
 E= -2593.92347095736     Delta-E=       -0.000030472031 Rises=F Damp=F
 DIIS: error= 1.37D-04 at cycle  10 NSaved=  10.
 NSaved=10 IEnMin=10 EnMin= -2593.92347095736     IErMin=10 ErrMin= 1.37D-04
 ErrMax= 1.37D-04  0.00D+00 EMaxC= 1.00D+00 BMatC= 2.67D-06 BMatP= 4.76D-06
 IDIUse=1 WtCom= 1.00D+00 WtEn= 0.00D+00
 Coeff-Com:  0.638D-03-0.494D-03-0.630D-02 0.105D-01 0.132D+00 0.164D-01
 Coeff-Com: -0.403D+00-0.653D+00 0.255D-01 0.188D+01
 Coeff:      0.638D-03-0.494D-03-0.630D-02 0.105D-01 0.132D+00 0.164D-01
 Coeff:     -0.403D+00-0.653D+00 0.255D-01 0.188D+01
 Gap=     0.205 Goal=   None    Shift=    0.500
 RMSDP=2.88D-05 MaxDP=3.61D-03 DE=-3.05D-05 OVMax= 2.64D-03

 Cycle  11  Pass 1  IDiag  1:
 E= -2593.92348910934     Delta-E=       -0.000018151982 Rises=F Damp=F
 DIIS: error= 1.09D-04 at cycle  11 NSaved=  11.
 NSaved=11 IEnMin=11 EnMin= -2593.92348910934     IErMin=11 ErrMin= 1.09D-04
 ErrMax= 1.09D-04  0.00D+00 EMaxC= 1.00D+00 BMatC= 1.53D-06 BMatP= 2.67D-06
 IDIUse=1 WtCom= 1.00D+00 WtEn= 0.00D+00
 Coeff-Com: -0.146D-02 0.237D-02-0.486D-02-0.356D-02-0.101D-01 0.899D-01
 Coeff-Com:  0.282D+00-0.329D+00-0.131D+01 0.894D-01 0.220D+01
 Coeff:     -0.146D-02 0.237D-02-0.486D-02-0.356D-02-0.101D-01 0.899D-01
 Coeff:      0.282D+00-0.329D+00-0.131D+01 0.894D-01 0.220D+01
 Gap=     0.205 Goal=   None    Shift=    0.500
 RMSDP=2.33D-05 MaxDP=2.86D-03 DE=-1.82D-05 OVMax= 2.23D-03

 Cycle  12  Pass 1  IDiag  1:
 E= -2593.92350017787     Delta-E=       -0.000011068534 Rises=F Damp=F
 DIIS: error= 8.28D-05 at cycle  12 NSaved=  12.
 NSaved=12 IEnMin=12 EnMin= -2593.92350017787     IErMin=12 ErrMin= 8.28D-05
 ErrMax= 8.28D-05  0.00D+00 EMaxC= 1.00D+00 BMatC= 9.07D-07 BMatP= 1.53D-06
 IDIUse=1 WtCom= 1.00D+00 WtEn= 0.00D+00
 Coeff-Com: -0.779D-03 0.970D-03 0.323D-02-0.768D-02-0.659D-01 0.710D-02
 Coeff-Com:  0.393D+00 0.211D+00-0.857D+00-0.123D+01 0.462D+00 0.208D+01
 Coeff:     -0.779D-03 0.970D-03 0.323D-02-0.768D-02-0.659D-01 0.710D-02
 Coeff:      0.393D+00 0.211D+00-0.857D+00-0.123D+01 0.462D+00 0.208D+01
 Gap=     0.205 Goal=   None    Shift=    0.500
 RMSDP=1.79D-05 MaxDP=2.15D-03 DE=-1.11D-05 OVMax= 1.82D-03

 Cycle  13  Pass 1  IDiag  1:
 E= -2593.92350667876     Delta-E=       -0.000006500886 Rises=F Damp=F
 DIIS: error= 6.24D-05 at cycle  13 NSaved=  13.
 NSaved=13 IEnMin=13 EnMin= -2593.92350667876     IErMin=13 ErrMin= 6.24D-05
 ErrMax= 6.24D-05  0.00D+00 EMaxC= 1.00D+00 BMatC= 5.22D-07 BMatP= 9.07D-07
 IDIUse=1 WtCom= 1.00D+00 WtEn= 0.00D+00
 Coeff-Com:  0.141D-03-0.440D-03 0.475D-02-0.438D-02-0.256D-01-0.542D-01
 Coeff-Com:  0.121D+00 0.310D+00 0.614D-01-0.986D+00-0.690D+00 0.198D+00
 Coeff-Com:  0.207D+01
 Coeff:      0.141D-03-0.440D-03 0.475D-02-0.438D-02-0.256D-01-0.542D-01
 Coeff:      0.121D+00 0.310D+00 0.614D-01-0.986D+00-0.690D+00 0.198D+00
 Coeff:      0.207D+01
 Gap=     0.205 Goal=   None    Shift=    0.500
 RMSDP=1.32D-05 MaxDP=1.55D-03 DE=-6.50D-06 OVMax= 1.41D-03

 Cycle  14  Pass 1  IDiag  1:
 E= -2593.92351031611     Delta-E=       -0.000003637349 Rises=F Damp=F
 DIIS: error= 4.58D-05 at cycle  14 NSaved=  14.
 NSaved=14 IEnMin=14 EnMin= -2593.92351031611     IErMin=14 ErrMin= 4.58D-05
 ErrMax= 4.58D-05  0.00D+00 EMaxC= 1.00D+00 BMatC= 3.04D-07 BMatP= 5.22D-07
 IDIUse=1 WtCom= 1.00D+00 WtEn= 0.00D+00
 Coeff-Com:  0.340D-03-0.540D-03 0.952D-03 0.258D-02 0.192D-01-0.523D-01
 Coeff-Com: -0.104D+00 0.114D+00 0.436D+00 0.567D-01-0.682D+00-0.154D+01
 Coeff-Com:  0.592D+00 0.216D+01
 Coeff:      0.340D-03-0.540D-03 0.952D-03 0.258D-02 0.192D-01-0.523D-01
 Coeff:     -0.104D+00 0.114D+00 0.436D+00 0.567D-01-0.682D+00-0.154D+01
 Coeff:      0.592D+00 0.216D+01
 Gap=     0.205 Goal=   None    Shift=    0.500
 RMSDP=1.01D-05 MaxDP=1.16D-03 DE=-3.64D-06 OVMax= 1.09D-03

 Cycle  15  Pass 1  IDiag  1:
 E= -2593.92351233828     Delta-E=       -0.000002022177 Rises=F Damp=F
 DIIS: error= 3.30D-05 at cycle  15 NSaved=  15.
 NSaved=15 IEnMin=15 EnMin= -2593.92351233828     IErMin=15 ErrMin= 3.30D-05
 ErrMax= 3.30D-05  0.00D+00 EMaxC= 1.00D+00 BMatC= 1.71D-07 BMatP= 3.04D-07
 IDIUse=1 WtCom= 1.00D+00 WtEn= 0.00D+00
 Coeff-Com:  0.143D-03-0.189D-03-0.124D-02 0.393D-02 0.201D-01-0.166D-01
 Coeff-Com: -0.983D-01-0.102D-01 0.182D+00 0.468D+00-0.198D+00-0.127D+01
 Coeff-Com: -0.403D+00 0.533D+00 0.179D+01
 Coeff:      0.143D-03-0.189D-03-0.124D-02 0.393D-02 0.201D-01-0.166D-01
 Coeff:     -0.983D-01-0.102D-01 0.182D+00 0.468D+00-0.198D+00-0.127D+01
 Coeff:     -0.403D+00 0.533D+00 0.179D+01
 Gap=     0.205 Goal=   None    Shift=    0.500
 RMSDP=7.28D-06 MaxDP=7.83D-04 DE=-2.02D-06 OVMax= 8.13D-04

 Cycle  16  Pass 1  IDiag  1:
 E= -2593.92351341048     Delta-E=       -0.000001072192 Rises=F Damp=F
 DIIS: error= 2.32D-05 at cycle  16 NSaved=  16.
 NSaved=16 IEnMin=16 EnMin= -2593.92351341048     IErMin=16 ErrMin= 2.32D-05
 ErrMax= 2.32D-05  0.00D+00 EMaxC= 1.00D+00 BMatC= 8.95D-08 BMatP= 1.71D-07
 IDIUse=1 WtCom= 1.00D+00 WtEn= 0.00D+00
 Coeff-Com: -0.413D-04 0.476D-04-0.134D-02 0.115D-02 0.675D-02 0.145D-01
 Coeff-Com: -0.240D-01-0.465D-01-0.125D+00 0.372D+00 0.204D+00-0.260D+00
 Coeff-Com: -0.665D+00-0.814D+00 0.416D+00 0.192D+01
 Coeff:     -0.413D-04 0.476D-04-0.134D-02 0.115D-02 0.675D-02 0.145D-01
 Coeff:     -0.240D-01-0.465D-01-0.125D+00 0.372D+00 0.204D+00-0.260D+00
 Coeff:     -0.665D+00-0.814D+00 0.416D+00 0.192D+01
 Gap=     0.206 Goal=   None    Shift=    0.500
 RMSDP=5.22D-06 MaxDP=5.47D-04 DE=-1.07D-06 OVMax= 5.92D-04

 Cycle  17  Pass 1  IDiag  1:
 E= -2593.92351395753     Delta-E=       -0.000000547055 Rises=F Damp=F
 DIIS: error= 1.61D-05 at cycle  17 NSaved=  17.
 NSaved=17 IEnMin=17 EnMin= -2593.92351395753     IErMin=17 ErrMin= 1.61D-05
 ErrMax= 1.61D-05  0.00D+00 EMaxC= 1.00D+00 BMatC= 5.23D-08 BMatP= 8.95D-08
 IDIUse=1 WtCom= 1.00D+00 WtEn= 0.00D+00
 Coeff-Com: -0.698D-04 0.681D-04-0.770D-04-0.153D-02-0.241D-02 0.137D-01
 Coeff-Com:  0.200D-01-0.175D-02-0.168D+00 0.612D-01 0.216D+00 0.296D+00
 Coeff-Com: -0.290D+00-0.765D+00-0.861D+00 0.842D+00 0.164D+01
 Coeff:     -0.698D-04 0.681D-04-0.770D-04-0.153D-02-0.241D-02 0.137D-01
 Coeff:      0.200D-01-0.175D-02-0.168D+00 0.612D-01 0.216D+00 0.296D+00
 Coeff:     -0.290D+00-0.765D+00-0.861D+00 0.842D+00 0.164D+01
 Gap=     0.206 Goal=   None    Shift=    0.500
 RMSDP=3.60D-06 MaxDP=3.85D-04 DE=-5.47D-07 OVMax= 4.29D-04

 Cycle  18  Pass 1  IDiag  1:
 E= -2593.92351424008     Delta-E=       -0.000000282550 Rises=F Damp=F
 DIIS: error= 1.12D-05 at cycle  18 NSaved=  18.
 NSaved=18 IEnMin=18 EnMin= -2593.92351424008     IErMin=18 ErrMin= 1.12D-05
 ErrMax= 1.12D-05  0.00D+00 EMaxC= 1.00D+00 BMatC= 2.82D-08 BMatP= 5.23D-08
 IDIUse=1 WtCom= 1.00D+00 WtEn= 0.00D+00
 Coeff-Com: -0.373D-04 0.424D-04 0.634D-03-0.156D-02-0.432D-02 0.498D-03
 Coeff-Com:  0.233D-01 0.324D-01-0.728D-01-0.113D+00 0.767D-01 0.289D+00
 Coeff-Com:  0.977D-01-0.218D+00-0.996D+00-0.399D-01 0.119D-01 0.191D+01
 Coeff:     -0.373D-04 0.424D-04 0.634D-03-0.156D-02-0.432D-02 0.498D-03
 Coeff:      0.233D-01 0.324D-01-0.728D-01-0.113D+00 0.767D-01 0.289D+00
 Coeff:      0.977D-01-0.218D+00-0.996D+00-0.399D-01 0.119D-01 0.191D+01
 Gap=     0.206 Goal=   None    Shift=    0.500
 RMSDP=2.42D-06 MaxDP=2.59D-04 DE=-2.83D-07 OVMax= 3.06D-04

 Cycle  19  Pass 1  IDiag  1:
 E= -2593.92351438337     Delta-E=       -0.000000143287 Rises=F Damp=F
 DIIS: error= 7.56D-06 at cycle  19 NSaved=  19.
 NSaved=19 IEnMin=19 EnMin= -2593.92351438337     IErMin=19 ErrMin= 7.56D-06
 ErrMax= 7.56D-06  0.00D+00 EMaxC= 1.00D+00 BMatC= 1.49D-08 BMatP= 2.82D-08
 IDIUse=1 WtCom= 1.00D+00 WtEn= 0.00D+00
 Coeff-Com:  0.402D-05 0.405D-05 0.342D-03-0.251D-03-0.516D-03-0.532D-02
 Coeff-Com: -0.928D-04 0.239D-01 0.258D-01-0.661D-01-0.486D-01-0.395D-02
 Coeff-Com:  0.223D+00 0.142D+00-0.357D+00-0.230D+00-0.945D+00 0.301D+00
 Coeff-Com:  0.194D+01
 Coeff:      0.402D-05 0.405D-05 0.342D-03-0.251D-03-0.516D-03-0.532D-02
 Coeff:     -0.928D-04 0.239D-01 0.258D-01-0.661D-01-0.486D-01-0.395D-02
 Coeff:      0.223D+00 0.142D+00-0.357D+00-0.230D+00-0.945D+00 0.301D+00
 Coeff:      0.194D+01
 Gap=     0.206 Goal=   None    Shift=    0.500
 RMSDP=1.64D-06 MaxDP=1.75D-04 DE=-1.43D-07 OVMax= 2.16D-04

 Cycle  20  Pass 1  IDiag  1:
 E= -2593.92351445358     Delta-E=       -0.000000070209 Rises=F Damp=F
 DIIS: error= 5.29D-06 at cycle  20 NSaved=  20.
 NSaved=20 IEnMin=20 EnMin= -2593.92351445358     IErMin=20 ErrMin= 5.29D-06
 ErrMax= 5.29D-06  0.00D+00 EMaxC= 1.00D+00 BMatC= 7.74D-09 BMatP= 1.49D-08
 IDIUse=1 WtCom= 1.00D+00 WtEn= 0.00D+00
 Coeff-Com:  0.239D-04-0.252D-04-0.393D-04 0.410D-03 0.204D-02-0.328D-02
 Coeff-Com: -0.141D-01 0.448D-02 0.514D-01 0.134D-01-0.752D-01-0.149D+00
 Coeff-Com:  0.167D+00 0.166D+00 0.104D+00-0.101D+00-0.834D+00-0.701D+00
 Coeff-Com:  0.786D+00 0.158D+01
 Coeff:      0.239D-04-0.252D-04-0.393D-04 0.410D-03 0.204D-02-0.328D-02
 Coeff:     -0.141D-01 0.448D-02 0.514D-01 0.134D-01-0.752D-01-0.149D+00
 Coeff:      0.167D+00 0.166D+00 0.104D+00-0.101D+00-0.834D+00-0.701D+00
 Coeff:      0.786D+00 0.158D+01
 Gap=     0.206 Goal=   None    Shift=    0.500
 RMSDP=1.10D-06 MaxDP=1.17D-04 DE=-7.02D-08 OVMax= 1.52D-04

 Cycle  21  Pass 1  IDiag  1:
 E= -2593.92351448909     Delta-E=       -0.000000035518 Rises=F Damp=F
 DIIS: error= 3.66D-06 at cycle  21 NSaved=  20.
 NSaved=20 IEnMin=20 EnMin= -2593.92351448909     IErMin=20 ErrMin= 3.66D-06
 ErrMax= 3.66D-06  0.00D+00 EMaxC= 1.00D+00 BMatC= 3.93D-09 BMatP= 7.74D-09
 IDIUse=1 WtCom= 1.00D+00 WtEn= 0.00D+00
 Coeff-Com:  0.139D-05-0.152D-03 0.139D-03 0.116D-02 0.140D-02-0.753D-02
 Coeff-Com: -0.596D-02 0.124D-01 0.370D-01-0.188D-01-0.849D-01 0.316D-01
 Coeff-Com:  0.171D-01 0.141D+00 0.686D-01-0.214D+00-0.543D+00-0.299D+00
 Coeff-Com:  0.265D-01 0.184D+01
 Coeff:      0.139D-05-0.152D-03 0.139D-03 0.116D-02 0.140D-02-0.753D-02
 Coeff:     -0.596D-02 0.124D-01 0.370D-01-0.188D-01-0.849D-01 0.316D-01
 Coeff:      0.171D-01 0.141D+00 0.686D-01-0.214D+00-0.543D+00-0.299D+00
 Coeff:      0.265D-01 0.184D+01
 Gap=     0.206 Goal=   None    Shift=    0.500
 RMSDP=7.46D-07 MaxDP=7.83D-05 DE=-3.55D-08 OVMax= 1.07D-04

 SCF Done:  E(RLC-wHPBE) =  -2593.92351449     A.U. after   21 cycles
            NFock= 21  Conv=0.75D-06     -V/T= 2.0037
 KE= 2.584419987855D+03 PE=-1.663732597961D+04 EE= 6.181258811985D+03
 Leave Link  502 at Fri Jan 22 01:05:04 2021, MaxMem=  4026531840 cpu:           16734.5 elap:            2137.9
 (Enter /opt/ohpc/pub/libs/gaussian/g16-A.03/sandybridge/g16/l508.exe)
 QCSCF skips out because SCF is already converged.
 Leave Link  508 at Fri Jan 22 01:05:04 2021, MaxMem=  4026531840 cpu:               0.1 elap:               0.0
 (Enter /opt/ohpc/pub/libs/gaussian/g16-A.03/sandybridge/g16/l601.exe)
 Copying SCF densities to generalized density rwf, IOpCl= 0 IROHF=0.

 **********************************************************************

            Population analysis using the SCF density.

 **********************************************************************

 Orbital symmetries:
       Occupied  (A) (A) (A) (A) (A) (A) (A) (A) (A) (A) (A) (A)
                 (A) (A) (A) (A) (A) (A) (A) (A) (A) (A) (A) (A)
                 (A) (A) (A) (A) (A) (A) (A) (A) (A) (A) (A) (A)
                 (A) (A) (A) (A) (A) (A) (A) (A) (A) (A) (A) (A)
                 (A) (A) (A) (A) (A) (A) (A) (A) (A) (A) (A) (A)
                 (A) (A) (A) (A) (A) (A) (A) (A) (A) (A) (A) (A)
                 (A) (A) (A) (A) (A) (A) (A) (A) (A) (A) (A) (A)
                 (A) (A) (A) (A) (A) (A) (A) (A) (A) (A) (A) (A)
                 (A) (A) (A) (A) (A) (A) (A) (A) (A) (A) (A) (A)
                 (A) (A) (A) (A) (A) (A) (A) (A) (A) (A) (A) (A)
                 (A) (A) (A) (A) (A) (A) (A) (A) (A) (A) (A) (A)
                 (A) (A) (A) (A) (A) (A) (A) (A) (A) (A) (A) (A)
                 (A) (A) (A) (A) (A) (A) (A) (A) (A) (A) (A) (A)
                 (A) (A) (A) (A) (A)
       Virtual   (A) (A) (A) (A) (A) (A) (A) (A) (A) (A) (A) (A)
                 (A) (A) (A) (A) (A) (A) (A) (A) (A) (A) (A) (A)
                 (A) (A) (A) (A) (A) (A) (A) (A) (A) (A) (A) (A)
                 (A) (A) (A) (A) (A) (A) (A) (A) (A) (A) (A) (A)
                 (A) (A) (A) (A) (A) (A) (A) (A) (A) (A) (A) (A)
                 (A) (A) (A) (A) (A) (A) (A) (A) (A) (A) (A) (A)
                 (A) (A) (A) (A) (A) (A) (A) (A) (A) (A) (A) (A)
                 (A) (A) (A) (A) (A) (A) (A) (A) (A) (A) (A) (A)
                 (A) (A) (A) (A) (A) (A) (A) (A) (A) (A) (A) (A)
                 (A) (A) (A) (A) (A) (A) (A) (A) (A) (A) (A) (A)
                 (A) (A) (A) (A) (A) (A) (A) (A) (A) (A) (A) (A)
                 (A) (A) (A) (A) (A) (A) (A) (A) (A) (A) (A) (A)
                 (A) (A) (A) (A) (A) (A) (A) (A) (A) (A) (A) (A)
                 (A) (A) (A) (A) (A) (A) (A) (A) (A) (A) (A) (A)
                 (A) (A) (A) (A) (A) (A) (A) (A) (A) (A) (A) (A)
                 (A) (A) (A) (A) (A) (A) (A) (A) (A) (A) (A) (A)
                 (A) (A) (A) (A) (A) (A) (A) (A) (A) (A) (A) (A)
                 (A) (A) (A) (A) (A) (A) (A) (A) (A) (A) (A) (A)
                 (A) (A) (A) (A) (A) (A) (A) (A) (A) (A) (A) (A)
                 (A) (A) (A) (A) (A) (A) (A) (A) (A) (A) (A) (A)
                 (A) (A) (A) (A) (A) (A) (A) (A) (A) (A) (A) (A)
                 (A) (A) (A) (A) (A) (A) (A) (A) (A) (A) (A) (A)
                 (A) (A) (A) (A) (A) (A) (A) (A) (A) (A) (A) (A)
                 (A) (A) (A) (A) (A) (A) (A) (A) (A) (A) (A) (A)
                 (A) (A) (A) (A) (A) (A) (A) (A) (A) (A) (A) (A)
                 (A) (A) (A) (A) (A) (A) (A) (A) (A) (A) (A) (A)
                 (A) (A) (A) (A) (A) (A) (A) (A) (A) (A) (A) (A)
                 (A) (A) (A) (A) (A) (A) (A) (A) (A) (A) (A) (A)
                 (A) (A) (A) (A) (A) (A) (A) (A) (A) (A) (A) (A)
                 (A) (A) (A) (A) (A) (A) (A) (A) (A) (A) (A) (A)
                 (A) (A) (A) (A) (A) (A) (A) (A) (A) (A) (A) (A)
                 (A) (A) (A) (A) (A) (A) (A) (A) (A) (A) (A) (A)
                 (A) (A) (A) (A) (A) (A) (A) (A) (A) (A) (A) (A)
                 (A) (A) (A) (A) (A) (A) (A) (A) (A) (A) (A) (A)
                 (A) (A) (A) (A) (A) (A) (A) (A) (A) (A) (A) (A)
                 (A) (A) (A) (A) (A) (A) (A) (A) (A) (A) (A) (A)
                 (A) (A) (A) (A) (A) (A) (A) (A) (A) (A) (A) (A)
                 (A) (A) (A) (A) (A) (A) (A) (A) (A) (A) (A) (A)
                 (A) (A) (A) (A) (A) (A) (A) (A) (A) (A) (A) (A)
                 (A) (A) (A) (A) (A) (A) (A) (A) (A) (A) (A) (A)
                 (A) (A) (A) (A) (A) (A) (A) (A) (A) (A) (A) (A)
                 (A) (A) (A) (A) (A) (A) (A) (A) (A) (A) (A) (A)
                 (A) (A) (A) (A) (A) (A) (A) (A) (A) (A) (A) (A)
                 (A) (A) (A) (A) (A) (A) (A) (A) (A) (A) (A) (A)
                 (A) (A) (A) (A) (A) (A) (A) (A) (A) (A) (A) (A)
                 (A) (A) (A) (A) (A) (A) (A) (A) (A) (A) (A) (A)
                 (A) (A) (A) (A) (A) (A) (A) (A) (A) (A) (A) (A)
                 (A) (A) (A) (A) (A) (A) (A) (A) (A) (A) (A) (A)
                 (A) (A) (A) (A) (A) (A) (A) (A) (A) (A) (A) (A)
                 (A) (A) (A) (A) (A) (A) (A) (A) (A) (A) (A) (A)
                 (A) (A) (A) (A) (A) (A) (A) (A) (A) (A) (A) (A)
                 (A) (A) (A) (A) (A) (A) (A) (A) (A) (A) (A) (A)
                 (A) (A) (A) (A) (A) (A) (A) (A) (A) (A) (A) (A)
                 (A) (A) (A) (A) (A) (A) (A) (A) (A) (A) (A) (A)
                 (A) (A) (A) (A) (A) (A) (A) (A) (A) (A) (A) (A)
                 (A) (A) (A) (A) (A) (A) (A) (A) (A) (A) (A) (A)
                 (A) (A) (A) (A) (A) (A) (A) (A) (A) (A) (A) (A)
                 (A) (A) (A) (A) (A) (A) (A) (A) (A) (A) (A) (A)
                 (A) (A) (A) (A) (A) (A) (A) (A) (A) (A) (A) (A)
                 (A) (A) (A) (A) (A) (A) (A) (A) (A) (A) (A) (A)
                 (A) (A) (A) (A) (A) (A) (A) (A) (A) (A) (A) (A)
                 (A) (A) (A) (A) (A) (A) (A) (A) (A) (A) (A) (A)
                 (A) (A) (A) (A) (A) (A) (A) (A) (A) (A) (A) (A)
                 (A) (A) (A) (A) (A) (A) (A) (A) (A) (A) (A) (A)
                 (A) (A) (A) (A) (A) (A) (A) (A) (A) (A) (A) (A)
                 (A) (A) (A) (A) (A) (A) (A) (A) (A) (A) (A) (A)
                 (A) (A) (A) (A) (A) (A) (A) (A) (A) (A) (A) (A)
                 (A) (A) (A) (A) (A) (A) (A) (A) (A) (A) (A) (A)
                 (A) (A) (A) (A) (A) (A) (A) (A) (A) (A) (A) (A)
                 (A) (A) (A) (A) (A) (A) (A) (A) (A) (A) (A) (A)
                 (A) (A) (A) (A) (A) (A) (A) (A) (A)
 The electronic state is 1-A.
 Alpha  occ. eigenvalues --  -88.25451 -88.20363 -18.88544 -18.87756 -18.86352
 Alpha  occ. eigenvalues --  -18.86126 -14.12018 -14.08960 -10.05006 -10.03872
 Alpha  occ. eigenvalues --  -10.03728 -10.03690 -10.02796 -10.02426 -10.02252
 Alpha  occ. eigenvalues --  -10.02181 -10.01483 -10.00034  -9.99819  -9.99696
 Alpha  occ. eigenvalues --   -9.99528  -9.99435  -9.99404  -9.99393  -9.99108
 Alpha  occ. eigenvalues --   -9.98805  -9.98690  -9.98658  -9.98339  -9.98300
 Alpha  occ. eigenvalues --   -9.97402  -9.97272  -9.97181  -9.97105  -9.96815
 Alpha  occ. eigenvalues --   -9.96699  -9.96628  -9.96571  -9.96558  -9.96476
 Alpha  occ. eigenvalues --   -9.96326  -9.95787  -9.94629  -9.90935  -7.84532
 Alpha  occ. eigenvalues --   -7.79587  -5.86537  -5.86319  -5.85798  -5.81794
 Alpha  occ. eigenvalues --   -5.81366  -5.80605  -1.08393  -1.07378  -1.06052
 Alpha  occ. eigenvalues --   -1.05845  -0.99481  -0.96536  -0.91981  -0.88973
 Alpha  occ. eigenvalues --   -0.87779  -0.86861  -0.86791  -0.85656  -0.83813
 Alpha  occ. eigenvalues --   -0.82822  -0.79347  -0.78886  -0.77932  -0.77717
 Alpha  occ. eigenvalues --   -0.77045  -0.76955  -0.76818  -0.76241  -0.75259
 Alpha  occ. eigenvalues --   -0.74005  -0.73182  -0.71308  -0.68234  -0.67380
 Alpha  occ. eigenvalues --   -0.66596  -0.65972  -0.65750  -0.65312  -0.64164
 Alpha  occ. eigenvalues --   -0.63745  -0.62828  -0.62255  -0.61537  -0.60201
 Alpha  occ. eigenvalues --   -0.59530  -0.58938  -0.58796  -0.57879  -0.57558
 Alpha  occ. eigenvalues --   -0.57397  -0.55529  -0.54644  -0.54310  -0.53738
 Alpha  occ. eigenvalues --   -0.53232  -0.51939  -0.51362  -0.50682  -0.50066
 Alpha  occ. eigenvalues --   -0.49777  -0.49372  -0.49059  -0.48624  -0.48043
 Alpha  occ. eigenvalues --   -0.47946  -0.47602  -0.47356  -0.47135  -0.46978
 Alpha  occ. eigenvalues --   -0.46653  -0.46423  -0.45999  -0.45959  -0.45590
 Alpha  occ. eigenvalues --   -0.45380  -0.45034  -0.44787  -0.44715  -0.44396
 Alpha  occ. eigenvalues --   -0.44213  -0.43648  -0.43427  -0.42907  -0.42294
 Alpha  occ. eigenvalues --   -0.41434  -0.41220  -0.41021  -0.40737  -0.40444
 Alpha  occ. eigenvalues --   -0.40331  -0.39971  -0.39884  -0.39550  -0.38889
 Alpha  occ. eigenvalues --   -0.38514  -0.38220  -0.37560  -0.37215  -0.36885
 Alpha  occ. eigenvalues --   -0.35786  -0.33456  -0.32919  -0.32378  -0.31863
 Alpha  occ. eigenvalues --   -0.31505  -0.30717  -0.30422  -0.30093  -0.29538
 Alpha  occ. eigenvalues --   -0.28629  -0.28121  -0.27369  -0.24275  -0.21744
 Alpha  occ. eigenvalues --   -0.20677
 Alpha virt. eigenvalues --   -0.00124   0.00771   0.02254   0.02467   0.02877
 Alpha virt. eigenvalues --    0.03189   0.03459   0.04802   0.04903   0.05165
 Alpha virt. eigenvalues --    0.05715   0.05969   0.06577   0.06912   0.07019
 Alpha virt. eigenvalues --    0.07172   0.07913   0.08659   0.09360   0.09694
 Alpha virt. eigenvalues --    0.09867   0.10637   0.11047   0.11503   0.12074
 Alpha virt. eigenvalues --    0.12503   0.12716   0.13270   0.13495   0.14093
 Alpha virt. eigenvalues --    0.14451   0.14676   0.15370   0.15399   0.15917
 Alpha virt. eigenvalues --    0.15994   0.16553   0.16575   0.17270   0.17560
 Alpha virt. eigenvalues --    0.17651   0.18128   0.18496   0.18954   0.19370
 Alpha virt. eigenvalues --    0.19504   0.19907   0.20188   0.20467   0.20791
 Alpha virt. eigenvalues --    0.21135   0.21377   0.21636   0.21983   0.22159
 Alpha virt. eigenvalues --    0.22267   0.22915   0.23207   0.23628   0.23918
 Alpha virt. eigenvalues --    0.24252   0.24672   0.24749   0.24889   0.25084
 Alpha virt. eigenvalues --    0.25299   0.25679   0.25851   0.26143   0.26216
 Alpha virt. eigenvalues --    0.26631   0.27038   0.27362   0.27616   0.27927
 Alpha virt. eigenvalues --    0.28188   0.28247   0.28388   0.29000   0.29131
 Alpha virt. eigenvalues --    0.29210   0.29284   0.29627   0.29727   0.29927
 Alpha virt. eigenvalues --    0.30311   0.30469   0.30804   0.30969   0.31116
 Alpha virt. eigenvalues --    0.31609   0.31638   0.31883   0.32100   0.32196
 Alpha virt. eigenvalues --    0.32313   0.32791   0.33142   0.33451   0.33762
 Alpha virt. eigenvalues --    0.33847   0.34094   0.34270   0.34433   0.34725
 Alpha virt. eigenvalues --    0.34881   0.35020   0.35149   0.35387   0.35614
 Alpha virt. eigenvalues --    0.35989   0.36154   0.36375   0.36879   0.37081
 Alpha virt. eigenvalues --    0.37468   0.37671   0.37709   0.38254   0.38532
 Alpha virt. eigenvalues --    0.38800   0.39054   0.39326   0.39380   0.39750
 Alpha virt. eigenvalues --    0.39806   0.40181   0.40389   0.40678   0.40792
 Alpha virt. eigenvalues --    0.41129   0.41566   0.41739   0.41986   0.42120
 Alpha virt. eigenvalues --    0.42187   0.42393   0.42833   0.42971   0.43114
 Alpha virt. eigenvalues --    0.43498   0.43634   0.43806   0.43886   0.44055
 Alpha virt. eigenvalues --    0.44517   0.44735   0.44923   0.44993   0.45166
 Alpha virt. eigenvalues --    0.45268   0.45652   0.45778   0.46054   0.46145
 Alpha virt. eigenvalues --    0.46300   0.46576   0.46649   0.46873   0.47111
 Alpha virt. eigenvalues --    0.47393   0.47824   0.48014   0.48272   0.48402
 Alpha virt. eigenvalues --    0.48666   0.49003   0.49318   0.49477   0.49616
 Alpha virt. eigenvalues --    0.49746   0.50399   0.50474   0.50681   0.50751
 Alpha virt. eigenvalues --    0.51036   0.51326   0.51634   0.51894   0.52193
 Alpha virt. eigenvalues --    0.52405   0.52505   0.52919   0.53483   0.53693
 Alpha virt. eigenvalues --    0.53846   0.53955   0.54375   0.54591   0.54737
 Alpha virt. eigenvalues --    0.55157   0.55328   0.55395   0.55839   0.56353
 Alpha virt. eigenvalues --    0.56562   0.56658   0.56963   0.57325   0.57604
 Alpha virt. eigenvalues --    0.58281   0.58682   0.58962   0.59209   0.59540
 Alpha virt. eigenvalues --    0.59803   0.60032   0.60450   0.60649   0.61065
 Alpha virt. eigenvalues --    0.61243   0.61458   0.61582   0.61813   0.62026
 Alpha virt. eigenvalues --    0.62235   0.62455   0.63126   0.63333   0.63414
 Alpha virt. eigenvalues --    0.63868   0.64244   0.64308   0.64840   0.65035
 Alpha virt. eigenvalues --    0.65649   0.65951   0.66226   0.66882   0.67199
 Alpha virt. eigenvalues --    0.67568   0.67736   0.68247   0.68843   0.69060
 Alpha virt. eigenvalues --    0.69708   0.69955   0.70634   0.70850   0.71334
 Alpha virt. eigenvalues --    0.71466   0.72465   0.72628   0.72800   0.73041
 Alpha virt. eigenvalues --    0.73171   0.73553   0.73772   0.73959   0.74426
 Alpha virt. eigenvalues --    0.74481   0.74626   0.75220   0.75630   0.76193
 Alpha virt. eigenvalues --    0.76468   0.76499   0.76962   0.77122   0.77571
 Alpha virt. eigenvalues --    0.77876   0.78310   0.78993   0.79252   0.79490
 Alpha virt. eigenvalues --    0.79801   0.80142   0.80800   0.81091   0.81729
 Alpha virt. eigenvalues --    0.82255   0.82708   0.82864   0.83535   0.83822
 Alpha virt. eigenvalues --    0.84098   0.84505   0.85339   0.85846   0.86014
 Alpha virt. eigenvalues --    0.86300   0.87698   0.88153   0.88323   0.89086
 Alpha virt. eigenvalues --    0.89282   0.89798   0.89982   0.90770   0.91416
 Alpha virt. eigenvalues --    0.92040   0.92524   0.92923   0.93151   0.94144
 Alpha virt. eigenvalues --    0.94252   0.94570   0.95121   0.95665   0.96216
 Alpha virt. eigenvalues --    0.97561   0.98500   0.98806   0.99159   0.99839
 Alpha virt. eigenvalues --    1.01719   1.02177   1.02457   1.10206   1.18876
 Alpha virt. eigenvalues --    1.19228   1.20199   1.20931   1.21936   1.23231
 Alpha virt. eigenvalues --    1.24814   1.25130   1.25919   1.26111   1.26414
 Alpha virt. eigenvalues --    1.26846   1.27295   1.27554   1.27776   1.28200
 Alpha virt. eigenvalues --    1.28302   1.28555   1.28842   1.29071   1.29354
 Alpha virt. eigenvalues --    1.29954   1.30429   1.30638   1.31015   1.31289
 Alpha virt. eigenvalues --    1.31872   1.31952   1.32785   1.33072   1.33317
 Alpha virt. eigenvalues --    1.33590   1.33938   1.34396   1.34894   1.35485
 Alpha virt. eigenvalues --    1.35673   1.36092   1.36700   1.37222   1.37348
 Alpha virt. eigenvalues --    1.37450   1.37817   1.38511   1.39037   1.39163
 Alpha virt. eigenvalues --    1.39364   1.39790   1.40087   1.40590   1.41044
 Alpha virt. eigenvalues --    1.41247   1.41404   1.41749   1.42052   1.42786
 Alpha virt. eigenvalues --    1.43022   1.43597   1.43776   1.43785   1.44193
 Alpha virt. eigenvalues --    1.44515   1.44917   1.45347   1.45829   1.45886
 Alpha virt. eigenvalues --    1.46224   1.46398   1.46558   1.46836   1.47001
 Alpha virt. eigenvalues --    1.47094   1.47234   1.47598   1.47856   1.47942
 Alpha virt. eigenvalues --    1.48452   1.48922   1.48948   1.49070   1.49289
 Alpha virt. eigenvalues --    1.49735   1.50401   1.50605   1.51053   1.51261
 Alpha virt. eigenvalues --    1.51399   1.51610   1.51793   1.51970   1.52293
 Alpha virt. eigenvalues --    1.52885   1.53188   1.53398   1.53471   1.53960
 Alpha virt. eigenvalues --    1.54073   1.54280   1.54789   1.55007   1.55226
 Alpha virt. eigenvalues --    1.55419   1.55607   1.55814   1.56133   1.56416
 Alpha virt. eigenvalues --    1.56498   1.56646   1.57201   1.57252   1.57377
 Alpha virt. eigenvalues --    1.57675   1.57841   1.58122   1.58193   1.58461
 Alpha virt. eigenvalues --    1.58598   1.58805   1.59105   1.59598   1.59605
 Alpha virt. eigenvalues --    1.59948   1.60328   1.60574   1.60930   1.61369
 Alpha virt. eigenvalues --    1.61665   1.62147   1.62240   1.62475   1.63192
 Alpha virt. eigenvalues --    1.63534   1.63798   1.64021   1.64457   1.64881
 Alpha virt. eigenvalues --    1.65665   1.65754   1.65994   1.66597   1.67218
 Alpha virt. eigenvalues --    1.67641   1.67913   1.69529   1.69741   1.70895
 Alpha virt. eigenvalues --    1.71060   1.71784   1.72067   1.72969   1.73264
 Alpha virt. eigenvalues --    1.73949   1.74184   1.74506   1.75402   1.75723
 Alpha virt. eigenvalues --    1.76932   1.77448   1.77642   1.78268   1.78488
 Alpha virt. eigenvalues --    1.78729   1.79526   1.79732   1.79900   1.80391
 Alpha virt. eigenvalues --    1.80469   1.80545   1.80993   1.81468   1.81810
 Alpha virt. eigenvalues --    1.82087   1.82531   1.82607   1.83131   1.83435
 Alpha virt. eigenvalues --    1.83765   1.83976   1.84293   1.84707   1.84835
 Alpha virt. eigenvalues --    1.84928   1.85564   1.85948   1.86264   1.87261
 Alpha virt. eigenvalues --    1.87420   1.87679   1.88466   1.88901   1.89196
 Alpha virt. eigenvalues --    1.89439   1.89916   1.90379   1.90713   1.90891
 Alpha virt. eigenvalues --    1.91304   1.91500   1.91999   1.92229   1.92476
 Alpha virt. eigenvalues --    1.92678   1.92953   1.93212   1.93343   1.93672
 Alpha virt. eigenvalues --    1.94358   1.94700   1.95070   1.95313   1.95334
 Alpha virt. eigenvalues --    1.95724   1.96026   1.96453   1.96847   1.97062
 Alpha virt. eigenvalues --    1.97338   1.97465   1.97931   1.98095   1.99193
 Alpha virt. eigenvalues --    1.99430   2.00413   2.00839   2.01823   2.02049
 Alpha virt. eigenvalues --    2.02309   2.02641   2.02750   2.03214   2.03571
 Alpha virt. eigenvalues --    2.03756   2.04024   2.04590   2.05047   2.05151
 Alpha virt. eigenvalues --    2.06103   2.06576   2.07359   2.07916   2.08292
 Alpha virt. eigenvalues --    2.08964   2.09964   2.10245   2.10979   2.11394
 Alpha virt. eigenvalues --    2.11752   2.12533   2.13210   2.13688   2.14654
 Alpha virt. eigenvalues --    2.16636   2.16975   2.18122   2.18692   2.19487
 Alpha virt. eigenvalues --    2.19785   2.20596   2.21235   2.21398   2.22080
 Alpha virt. eigenvalues --    2.22374   2.22879   2.23406   2.23847   2.24348
 Alpha virt. eigenvalues --    2.24695   2.24830   2.25127   2.25218   2.27334
 Alpha virt. eigenvalues --    2.27546   2.28087   2.28464   2.29078   2.29319
 Alpha virt. eigenvalues --    2.30275   2.31012   2.32243   2.32327   2.32724
 Alpha virt. eigenvalues --    2.33302   2.33373   2.33519   2.34009   2.34099
 Alpha virt. eigenvalues --    2.34359   2.34441   2.34838   2.35118   2.35463
 Alpha virt. eigenvalues --    2.35610   2.35786   2.36214   2.36482   2.36983
 Alpha virt. eigenvalues --    2.37451   2.37549   2.37585   2.37804   2.38165
 Alpha virt. eigenvalues --    2.38294   2.39089   2.39318   2.39569   2.39879
 Alpha virt. eigenvalues --    2.40110   2.40258   2.40500   2.40797   2.41078
 Alpha virt. eigenvalues --    2.41395   2.41523   2.41709   2.42748   2.44145
 Alpha virt. eigenvalues --    2.45221   2.45626   2.46467   2.47640   2.47747
 Alpha virt. eigenvalues --    2.48158   2.48558   2.49152   2.49690   2.50336
 Alpha virt. eigenvalues --    2.51278   2.51606   2.52386   2.53069   2.53990
 Alpha virt. eigenvalues --    2.54689   2.55133   2.56935   2.57116   2.58059
 Alpha virt. eigenvalues --    2.58492   2.58776   2.59742   2.59896   2.60035
 Alpha virt. eigenvalues --    2.60599   2.60857   2.61080   2.61134   2.62144
 Alpha virt. eigenvalues --    2.62854   2.62996   2.63052   2.63678   2.63738
 Alpha virt. eigenvalues --    2.64065   2.64690   2.65047   2.65358   2.66693
 Alpha virt. eigenvalues --    2.67012   2.67218   2.67644   2.67979   2.68492
 Alpha virt. eigenvalues --    2.69402   2.70021   2.70414   2.70840   2.71863
 Alpha virt. eigenvalues --    2.72617   2.73506   2.73764   2.74319   2.74933
 Alpha virt. eigenvalues --    2.75830   2.76893   2.77706   2.78641   2.79219
 Alpha virt. eigenvalues --    2.80169   2.80507   2.80746   2.81337   2.81818
 Alpha virt. eigenvalues --    2.82612   2.83616   2.84132   2.85075   2.86612
 Alpha virt. eigenvalues --    2.87047   2.87252   2.87908   2.88366   2.89269
 Alpha virt. eigenvalues --    2.89714   2.92579   2.92731   2.93514   2.93820
 Alpha virt. eigenvalues --    2.94265   2.94930   2.95356   2.95694   2.96309
 Alpha virt. eigenvalues --    2.96902   2.97209   2.97348   2.98967   2.99055
 Alpha virt. eigenvalues --    2.99242   2.99865   3.00586   3.00885   3.01551
 Alpha virt. eigenvalues --    3.01628   3.01931   3.03428   3.03976   3.05178
 Alpha virt. eigenvalues --    3.06226   3.06746   3.06846   3.07739   3.08445
 Alpha virt. eigenvalues --    3.09067   3.09708   3.10250   3.11051   3.11751
 Alpha virt. eigenvalues --    3.11943   3.12777   3.14157   3.14365   3.15615
 Alpha virt. eigenvalues --    3.16442   3.17005   3.17182   3.17696   3.17950
 Alpha virt. eigenvalues --    3.19129   3.19558   3.20012   3.20971   3.21427
 Alpha virt. eigenvalues --    3.21565   3.22112   3.22484   3.23313   3.24879
 Alpha virt. eigenvalues --    3.25054   3.25620   3.25916   3.25950   3.26686
 Alpha virt. eigenvalues --    3.26983   3.27839   3.28546   3.30797   3.31503
 Alpha virt. eigenvalues --    3.32237   3.32582   3.33243   3.33881   3.34089
 Alpha virt. eigenvalues --    3.35911   3.36622   3.37400   3.38004   3.38217
 Alpha virt. eigenvalues --    3.39543   3.41720   3.42471   3.44338   3.47475
 Alpha virt. eigenvalues --    3.47874   3.52425   3.53437   3.54286   3.56406
 Alpha virt. eigenvalues --    3.57283   3.57945   3.58875   3.59404   3.60480
 Alpha virt. eigenvalues --    3.63184   3.70260   3.70567   3.85072   3.86441
 Alpha virt. eigenvalues --    3.86890   3.87673   4.06257   4.07538   4.08259
 Alpha virt. eigenvalues --    4.09255   4.31161   4.31992   4.33143   4.33447
 Alpha virt. eigenvalues --   18.73297  19.07515  21.19653  21.23838  21.24901
 Alpha virt. eigenvalues --   21.25826  21.27303  21.28557  21.68477  21.68960
 Alpha virt. eigenvalues --   21.71003  21.72094  21.74337  21.76134  21.76252
 Alpha virt. eigenvalues --   21.76737  21.81593  21.84931  21.85476  21.85968
 Alpha virt. eigenvalues --   21.92023  21.95204  21.95443  21.97085  21.97709
 Alpha virt. eigenvalues --   21.98243  21.99928  22.01117  22.02335  22.02868
 Alpha virt. eigenvalues --   22.04186  22.06791  22.09270  22.12184  22.15015
 Alpha virt. eigenvalues --   22.17684  22.18348  22.20732  32.02235  32.07741
 Alpha virt. eigenvalues --   43.21967  43.23675  43.24077  43.27700
          Condensed to atoms (all electrons):
 Mulliken charges:
               1
     1  C   -0.305707
     2  C   -0.073510
     3  S   -0.083378
     4  C   -0.273668
     5  C    0.113778
     6  C   -0.279422
     7  C    0.016468
     8  C   -0.060818
     9  H    0.137718
    10  C   -0.144194
    11  C   -0.045256
    12  C   -0.093523
    13  C    0.020048
    14  H    0.230330
    15  H    0.118403
    16  H    0.155455
    17  C   -0.175159
    18  H    0.129882
    19  H    0.114072
    20  H    0.112057
    21  H    0.138338
    22  S    0.193866
    23  N    0.037388
    24  C   -0.294023
    25  C    0.041870
    26  C   -0.022838
    27  C   -0.217440
    28  C   -0.177833
    29  C    0.138829
    30  H    0.126076
    31  H    0.124068
    32  H    0.119469
    33  H    0.107210
    34  C   -0.090786
    35  C   -0.099450
    36  C   -0.103508
    37  C   -0.144785
    38  C   -0.186266
    39  C    0.090927
    40  H    0.117714
    41  H    0.178247
    42  H    0.099957
    43  H    0.162084
    44  N    0.012198
    45  C   -0.080868
    46  C   -0.101379
    47  C   -0.083551
    48  C   -0.170051
    49  C   -0.198580
    50  C    0.114503
    51  H    0.138832
    52  H    0.140453
    53  H    0.100092
    54  H    0.109738
    55  C   -0.101181
    56  C   -0.067169
    57  C   -0.134164
    58  C   -0.201747
    59  C   -0.138564
    60  C    0.103865
    61  H    0.129756
    62  H    0.144831
    63  H    0.107937
    64  H    0.123338
    65  O   -0.244449
    66  H    0.267399
    67  O   -0.235137
    68  H    0.269911
    69  O   -0.245545
    70  H    0.265596
    71  O   -0.245740
    72  H    0.266987
 Sum of Mulliken charges =  -0.00000
 Mulliken charges with hydrogens summed into heavy atoms:
               1
     1  C   -0.175825
     2  C   -0.073510
     3  S    0.030695
     4  C   -0.273668
     5  C    0.113778
     6  C   -0.279422
     7  C    0.016468
     8  C    0.051239
    10  C    0.086136
    11  C    0.073147
    12  C    0.061932
    13  C    0.020048
    17  C   -0.036821
    22  S    0.331584
    23  N    0.037388
    24  C   -0.294023
    25  C    0.167946
    26  C    0.101230
    27  C   -0.097971
    28  C   -0.070624
    29  C    0.138829
    34  C   -0.090786
    35  C    0.018263
    36  C    0.074739
    37  C   -0.044828
    38  C   -0.024182
    39  C    0.090927
    44  N    0.012198
    45  C   -0.080868
    46  C    0.037453
    47  C    0.056902
    48  C   -0.069959
    49  C   -0.088842
    50  C    0.114503
    55  C   -0.101181
    56  C    0.062587
    57  C    0.010668
    58  C   -0.093810
    59  C   -0.015226
    60  C    0.103865
    65  O    0.022950
    67  O    0.034774
    69  O    0.020050
    71  O    0.021247
 Electronic spatial extent (au):  <R**2>=          34720.1287
 Charge=             -0.0000 electrons
 Dipole moment (field-independent basis, Debye):
    X=              6.6390    Y=              0.7698    Z=              4.9229  Tot=              8.3009
 Quadrupole moment (field-independent basis, Debye-Ang):
   XX=           -225.0218   YY=           -245.0720   ZZ=           -267.5177
   XY=             10.5939   XZ=              1.1382   YZ=             -6.0987
 Traceless Quadrupole moment (field-independent basis, Debye-Ang):
   XX=             20.8487   YY=              0.7985   ZZ=            -21.6472
   XY=             10.5939   XZ=              1.1382   YZ=             -6.0987
 Octapole moment (field-independent basis, Debye-Ang**2):
  XXX=            220.2355  YYY=              5.5705  ZZZ=             13.5647  XYY=            100.0006
  XXY=             -2.8030  XXZ=            127.1936  XZZ=              7.5723  YZZ=            -31.4586
  YYZ=            113.8172  XYZ=            -12.6683
 Hexadecapole moment (field-independent basis, Debye-Ang**3):
 XXXX=         -27267.7846 YYYY=         -10457.7495 ZZZZ=          -1841.8985 XXXY=           1224.4078
 XXXZ=            -88.8710 YYYX=           -113.1337 YYYZ=           -301.6790 ZZZX=             31.4904
 ZZZY=            -70.8907 XXYY=          -8147.3819 XXZZ=          -6114.0918 YYZZ=          -2122.9506
 XXYZ=           -101.1161 YYXZ=             20.6675 ZZXY=            -78.4066
 N-N= 5.277723665284D+03 E-N=-1.663732593088D+04  KE= 2.584419987855D+03
 No NMR shielding tensors so no spin-rotation constants.
 Leave Link  601 at Fri Jan 22 01:05:06 2021, MaxMem=  4026531840 cpu:               9.1 elap:               1.4
 (Enter /opt/ohpc/pub/libs/gaussian/g16-A.03/sandybridge/g16/l9999.exe)

 Test job not archived.
 1\1\GINC-CASCADEB028\SP\RLC-wHPBE\TZVP\C36H28N2O4S2\RDU230\22-Jan-2021
 \0\\#P LC-wHPBE/TZVP iop(3/107=0163200000, 3/108=0163200000) scf=(conv
 er=6,fermi,ndamp=35,noincfock,novaracc,vshift=500,xqc)\\H28 C36 S2 N2 
 O4\\0,1\C,0,-1.748928,-0.489907,0.452051\C,0,-0.626174,-1.279763,0.152
 57\S,0,1.952753,-5.388628,0.812439\C,0,-0.882312,-2.170069,-0.820725\C
 ,0,1.932708,-2.897266,-0.476539\C,0,2.566514,-3.761438,0.41855\C,0,-2.
 975354,-0.631957,-0.195801\C,0,-2.049066,-2.386893,-1.545961\H,0,0.246
 316,-4.468801,-0.586079\C,0,2.384401,-1.613824,-0.700024\C,0,3.673888,
 -3.269502,1.095477\C,0,4.135912,-1.984797,0.893895\C,0,3.494497,-1.125
 461,-0.002977\H,0,1.857267,-0.971131,-1.395345\H,0,4.176334,-3.912174,
 1.811785\H,0,4.992977,-1.63215,1.456718\C,0,-3.122467,-1.590215,-1.210
 611\H,0,-1.688273,0.276733,1.226088\H,0,2.539,-6.051116,-0.206249\H,0,
 -2.132551,-3.120151,-2.347153\H,0,-4.068236,-1.688167,-1.734116\S,0,0.
 491419,-3.391365,-1.37893\N,0,3.940024,0.175839,-0.195205\C,0,5.26504,
 0.53915,0.184549\C,0,5.479402,1.520085,1.147894\C,0,6.360048,-0.068673
 ,-0.412912\C,0,6.761446,1.889048,1.505778\C,0,7.649207,0.280692,-0.044
 528\C,0,7.852726,1.26556,0.91321\H,0,4.624132,2.002234,1.612555\H,0,6.
 198832,-0.830082,-1.170918\H,0,6.936355,2.656092,2.253454\H,0,8.499101
 ,-0.206598,-0.518215\C,0,3.067884,1.217797,-0.624973\C,0,3.533169,2.17
 5669,-1.516644\C,0,1.768428,1.324352,-0.133595\C,0,2.72389,3.230889,-1
 .904642\C,0,0.952027,2.363639,-0.537\C,0,1.429133,3.326131,-1.415171\H
 ,0,4.545758,2.102962,-1.902377\H,0,1.364259,0.566763,0.534909\H,0,3.10
 6488,3.978127,-2.597301\H,0,-0.063643,2.437107,-0.162477\N,0,-4.071583
 ,0.199288,0.137893\C,0,-5.379657,-0.330758,0.192504\C,0,-6.464072,0.38
 1862,-0.308117\C,0,-5.615898,-1.583782,0.758482\C,0,-7.748035,-0.13540
 9,-0.237366\C,0,-6.890741,-2.11387,0.808775\C,0,-7.966332,-1.388715,0.
 314728\H,0,-6.301182,1.359246,-0.752201\H,0,-4.779992,-2.148147,1.1609
 2\H,0,-8.582756,0.442294,-0.630527\H,0,-7.071352,-3.090185,1.247847\C,
 0,-3.863071,1.579858,0.373004\C,0,-4.488297,2.228332,1.435995\C,0,-3.0
 28002,2.320518,-0.45569\C,0,-4.288516,3.577498,1.662294\C,0,-2.802155,
 3.666597,-0.218956\C,0,-3.435225,4.300687,0.840523\H,0,-5.141183,1.661
 753,2.093518\H,0,-2.533592,1.828985,-1.288374\H,0,-4.774148,4.081779,2
 .492022\H,0,-2.125658,4.220184,-0.867724\O,0,0.584592,4.343911,-1.7691
 73\H,0,1.03059,4.920168,-2.399784\O,0,9.095256,1.661445,1.308356\H,0,9
 .763222,1.159512,0.827959\O,0,-9.209724,-1.953542,0.400297\H,0,-9.8595
 16,-1.347058,0.028653\O,0,-3.254007,5.627948,1.116747\H,0,-2.609433,5.
 991357,0.499352\\Version=EM64L-G16RevA.03\State=1-A\HF=-2593.9235145\R
 MSD=7.457e-07\Dipole=2.612003,-0.3028685,-1.936832\Quadrupole=15.50049
 41,0.5936562,-16.0941503,-7.8763062,-0.8462233,-4.5342343\PG=C01 [X(C3
 6H28N2O4S2)]\\@


 THE CHYMISTS ARE A STRANGE CLASS OF MORTALS IMPELLED
 BY AN ALMOST INSANE IMPULSE TO SEEK THEIR PLEASURE
 AMONG SMOKE AND VAPOR, SOOT AND FLAME, POISONS AND
 POVERTY; YET AMONG ALL THESE EVILS I SEEM TO LIVE
 SO SWEETLY, THAT I MAY DIE IF I WOULD CHANGE PLACES
 WITH THE PERSIAN KING.
   --  JOHANN JOACHIM BECHER, 1635-1682
 ACTA LABORATORII CHYMICA MONACENSIS, 1669
 Job cpu time:       0 days  4 hours 41 minutes 50.2 seconds.
 Elapsed time:       0 days  0 hours 36 minutes  2.8 seconds.
 File lengths (MBytes):  RWF=    356 Int=      0 D2E=      0 Chk=     64 Scr=      8
 Normal termination of Gaussian 16 at Fri Jan 22 01:05:06 2021.
