 Entering Gaussian System, Link 0=g16
 Input=mol_ta_ma_whol_tune_c5.gjf
 Output=mol_ta_ma_whol_tune_c5.log
 Initial command:
 /opt/ohpc/pub/libs/gaussian/g16-A.03/sandybridge/g16/l1.exe "/mnt/gpfs2_4m/scratch/rdu230/ondemand/projects/init_structures/wtuning/mol_ta_ma_whol/tuning_mol_ta_ma_whol_ocycle0/Gau-131214.inp" -scrdir="/mnt/gpfs2_4m/scratch/rdu230/ondemand/projects/init_structures/wtuning/mol_ta_ma_whol/tuning_mol_ta_ma_whol_ocycle0/"
 Entering Link 1 = /opt/ohpc/pub/libs/gaussian/g16-A.03/sandybridge/g16/l1.exe PID=    131215.
  
 Copyright (c) 1988,1990,1992,1993,1995,1998,2003,2009,2016,
            Gaussian, Inc.  All Rights Reserved.
  
 This is part of the Gaussian(R) 16 program.  It is based on
 the Gaussian(R) 09 system (copyright 2009, Gaussian, Inc.),
 the Gaussian(R) 03 system (copyright 2003, Gaussian, Inc.),
 the Gaussian(R) 98 system (copyright 1998, Gaussian, Inc.),
 the Gaussian(R) 94 system (copyright 1995, Gaussian, Inc.),
 the Gaussian 92(TM) system (copyright 1992, Gaussian, Inc.),
 the Gaussian 90(TM) system (copyright 1990, Gaussian, Inc.),
 the Gaussian 88(TM) system (copyright 1988, Gaussian, Inc.),
 the Gaussian 86(TM) system (copyright 1986, Carnegie Mellon
 University), and the Gaussian 82(TM) system (copyright 1983,
 Carnegie Mellon University). Gaussian is a federally registered
 trademark of Gaussian, Inc.
  
 This software contains proprietary and confidential information,
 including trade secrets, belonging to Gaussian, Inc.
  
 This software is provided under written license and may be
 used, copied, transmitted, or stored only in accord with that
 written license.
  
 The following legend is applicable only to US Government
 contracts under FAR:
  
                    RESTRICTED RIGHTS LEGEND
  
 Use, reproduction and disclosure by the US Government is
 subject to restrictions as set forth in subparagraphs (a)
 and (c) of the Commercial Computer Software - Restricted
 Rights clause in FAR 52.227-19.
  
 Gaussian, Inc.
 340 Quinnipiac St., Bldg. 40, Wallingford CT 06492
  
  
 ---------------------------------------------------------------
 Warning -- This program may not be used in any manner that
 competes with the business of Gaussian, Inc. or will provide
 assistance to any competitor of Gaussian, Inc.  The licensee
 of this program is prohibited from giving any competitor of
 Gaussian, Inc. access to this program.  By using this program,
 the user acknowledges that Gaussian, Inc. is engaged in the
 business of creating and licensing software in the field of
 computational chemistry and represents and warrants to the
 licensee that it is not a competitor of Gaussian, Inc. and that
 it will not use this program in any manner prohibited above.
 ---------------------------------------------------------------
  

 Cite this work as:
 Gaussian 16, Revision A.03,
 M. J. Frisch, G. W. Trucks, H. B. Schlegel, G. E. Scuseria, 
 M. A. Robb, J. R. Cheeseman, G. Scalmani, V. Barone, 
 G. A. Petersson, H. Nakatsuji, X. Li, M. Caricato, A. V. Marenich, 
 J. Bloino, B. G. Janesko, R. Gomperts, B. Mennucci, H. P. Hratchian, 
 J. V. Ortiz, A. F. Izmaylov, J. L. Sonnenberg, D. Williams-Young, 
 F. Ding, F. Lipparini, F. Egidi, J. Goings, B. Peng, A. Petrone, 
 T. Henderson, D. Ranasinghe, V. G. Zakrzewski, J. Gao, N. Rega, 
 G. Zheng, W. Liang, M. Hada, M. Ehara, K. Toyota, R. Fukuda, 
 J. Hasegawa, M. Ishida, T. Nakajima, Y. Honda, O. Kitao, H. Nakai, 
 T. Vreven, K. Throssell, J. A. Montgomery, Jr., J. E. Peralta, 
 F. Ogliaro, M. J. Bearpark, J. J. Heyd, E. N. Brothers, K. N. Kudin, 
 V. N. Staroverov, T. A. Keith, R. Kobayashi, J. Normand, 
 K. Raghavachari, A. P. Rendell, J. C. Burant, S. S. Iyengar, 
 J. Tomasi, M. Cossi, J. M. Millam, M. Klene, C. Adamo, R. Cammi, 
 J. W. Ochterski, R. L. Martin, K. Morokuma, O. Farkas, 
 J. B. Foresman, and D. J. Fox, Gaussian, Inc., Wallingford CT, 2016.
 
 ******************************************
 Gaussian 16:  EM64L-G16RevA.03 25-Dec-2016
                21-Jan-2021 
 ******************************************
 %mem=30GB
 %nproc=8
 Will use up to    8 processors via shared memory.
 ----------------------------------------------------------------------
 #P LC-wHPBE/TZVP iop(3/107=0176200000, 3/108=0176200000) scf=(conver=6
 ,fermi,ndamp=35,noincfock,novaracc,vshift=500,xqc)
 ----------------------------------------------------------------------
 1/38=1,172=1/1;
 2/12=2,17=6,18=5,40=1/2;
 3/5=19,7=101,11=2,25=1,30=1,74=-71,107=176200000,108=176200000/1,2,3;
 4//1;
 5/5=100002,6=6,8=3,10=500,13=1,18=-1,22=13,38=1,93=35/2,8;
 6/7=2,8=2,9=2,10=2,28=1/1;
 99/5=1,9=1/99;
 Leave Link    1 at Thu Jan 21 20:02:57 2021, MaxMem=  4026531840 cpu:               1.1 elap:               0.2
 (Enter /opt/ohpc/pub/libs/gaussian/g16-A.03/sandybridge/g16/l101.exe)
 ----------------
 H28 C36 S2 N2 O4
 ----------------
 Symbolic Z-matrix:
 Charge =  1 Multiplicity = 2
 C                    -1.74893  -0.48991   0.45205 
 C                    -0.62617  -1.27976   0.15257 
 S                     1.95275  -5.38863   0.81244 
 C                    -0.88231  -2.17007  -0.82073 
 C                     1.93271  -2.89727  -0.47654 
 C                     2.56651  -3.76144   0.41855 
 C                    -2.97535  -0.63196  -0.1958 
 C                    -2.04907  -2.38689  -1.54596 
 H                     0.24632  -4.4688   -0.58608 
 C                     2.3844   -1.61382  -0.70002 
 C                     3.67389  -3.2695    1.09548 
 C                     4.13591  -1.9848    0.8939 
 C                     3.4945   -1.12546  -0.00298 
 H                     1.85727  -0.97113  -1.39535 
 H                     4.17633  -3.91217   1.81179 
 H                     4.99298  -1.63215   1.45672 
 C                    -3.12247  -1.59022  -1.21061 
 H                    -1.68827   0.27673   1.22609 
 H                     2.539    -6.05112  -0.20625 
 H                    -2.13255  -3.12015  -2.34715 
 H                    -4.06824  -1.68817  -1.73412 
 S                     0.49142  -3.39136  -1.37893 
 N                     3.94002   0.17584  -0.19521 
 C                     5.26504   0.53915   0.18455 
 C                     5.4794    1.52009   1.14789 
 C                     6.36005  -0.06867  -0.41291 
 C                     6.76145   1.88905   1.50578 
 C                     7.64921   0.28069  -0.04453 
 C                     7.85273   1.26556   0.91321 
 H                     4.62413   2.00223   1.61256 
 H                     6.19883  -0.83008  -1.17092 
 H                     6.93636   2.65609   2.25345 
 H                     8.4991   -0.2066   -0.51822 
 C                     3.06788   1.2178   -0.62497 
 C                     3.53317   2.17567  -1.51664 
 C                     1.76843   1.32435  -0.1336 
 C                     2.72389   3.23089  -1.90464 
 C                     0.95203   2.36364  -0.537 
 C                     1.42913   3.32613  -1.41517 
 H                     4.54576   2.10296  -1.90238 
 H                     1.36426   0.56676   0.53491 
 H                     3.10649   3.97813  -2.5973 
 H                    -0.06364   2.43711  -0.16248 
 N                    -4.07158   0.19929   0.13789 
 C                    -5.37966  -0.33076   0.1925 
 C                    -6.46407   0.38186  -0.30812 
 C                    -5.6159   -1.58378   0.75848 
 C                    -7.74803  -0.13541  -0.23737 
 C                    -6.89074  -2.11387   0.80878 
 C                    -7.96633  -1.38872   0.31473 
 H                    -6.30118   1.35925  -0.7522 
 H                    -4.77999  -2.14815   1.16092 
 H                    -8.58276   0.44229  -0.63053 
 H                    -7.07135  -3.09018   1.24785 
 C                    -3.86307   1.57986   0.373 
 C                    -4.4883    2.22833   1.436 
 C                    -3.028     2.32052  -0.45569 
 C                    -4.28852   3.5775    1.66229 
 C                    -2.80216   3.6666   -0.21896 
 C                    -3.43522   4.30069   0.84052 
 H                    -5.14118   1.66175   2.09352 
 H                    -2.53359   1.82899  -1.28837 
 H                    -4.77415   4.08178   2.49202 
 H                    -2.12566   4.22018  -0.86772 
 O                     0.58459   4.34391  -1.76917 
 H                     1.03059   4.92017  -2.39978 
 O                     9.09526   1.66145   1.30836 
 H                     9.76322   1.15951   0.82796 
 O                    -9.20972  -1.95354   0.4003 
 H                    -9.85952  -1.34706   0.02865 
 O                    -3.25401   5.62795   1.11675 
 H                    -2.60943   5.99136   0.49935 
 
 ITRead=  0  0  0  0  0  0  0  0  0  0  0  0  0  0  0  0  0  0  0  0
 ITRead=  0  0  0  0  0  0  0  0  0  0  0  0  0  0  0  0  0  0  0  0
 ITRead=  0  0  0  0  0  0  0  0  0  0  0  0  0  0  0  0  0  0  0  0
 ITRead=  0  0  0  0  0  0  0  0  0  0  0  0
 MicOpt= -1 -1 -1 -1 -1 -1 -1 -1 -1 -1 -1 -1 -1 -1 -1 -1 -1 -1 -1 -1
 MicOpt= -1 -1 -1 -1 -1 -1 -1 -1 -1 -1 -1 -1 -1 -1 -1 -1 -1 -1 -1 -1
 MicOpt= -1 -1 -1 -1 -1 -1 -1 -1 -1 -1 -1 -1 -1 -1 -1 -1 -1 -1 -1 -1
 MicOpt= -1 -1 -1 -1 -1 -1 -1 -1 -1 -1 -1 -1
 NAtoms=     72 NQM=       72 NQMF=       0 NMMI=      0 NMMIF=      0
                NMic=       0 NMicF=      0.
                    Isotopes and Nuclear Properties:
 (Nuclear quadrupole moments (NQMom) in fm**2, nuclear magnetic moments (NMagM)
  in nuclear magnetons)

  Atom         1           2           3           4           5           6           7           8           9          10
 IAtWgt=          12          12          32          12          12          12          12          12           1          12
 AtmWgt=  12.0000000  12.0000000  31.9720718  12.0000000  12.0000000  12.0000000  12.0000000  12.0000000   1.0078250  12.0000000
 NucSpn=           0           0           0           0           0           0           0           0           1           0
 AtZEff=  -0.0000000  -0.0000000  -0.0000000  -0.0000000  -0.0000000  -0.0000000  -0.0000000  -0.0000000  -0.0000000  -0.0000000
 NQMom=    0.0000000   0.0000000   0.0000000   0.0000000   0.0000000   0.0000000   0.0000000   0.0000000   0.0000000   0.0000000
 NMagM=    0.0000000   0.0000000   0.0000000   0.0000000   0.0000000   0.0000000   0.0000000   0.0000000   2.7928460   0.0000000
 AtZNuc=   6.0000000   6.0000000  16.0000000   6.0000000   6.0000000   6.0000000   6.0000000   6.0000000   1.0000000   6.0000000

  Atom        11          12          13          14          15          16          17          18          19          20
 IAtWgt=          12          12          12           1           1           1          12           1           1           1
 AtmWgt=  12.0000000  12.0000000  12.0000000   1.0078250   1.0078250   1.0078250  12.0000000   1.0078250   1.0078250   1.0078250
 NucSpn=           0           0           0           1           1           1           0           1           1           1
 AtZEff=  -0.0000000  -0.0000000  -0.0000000  -0.0000000  -0.0000000  -0.0000000  -0.0000000  -0.0000000  -0.0000000  -0.0000000
 NQMom=    0.0000000   0.0000000   0.0000000   0.0000000   0.0000000   0.0000000   0.0000000   0.0000000   0.0000000   0.0000000
 NMagM=    0.0000000   0.0000000   0.0000000   2.7928460   2.7928460   2.7928460   0.0000000   2.7928460   2.7928460   2.7928460
 AtZNuc=   6.0000000   6.0000000   6.0000000   1.0000000   1.0000000   1.0000000   6.0000000   1.0000000   1.0000000   1.0000000

  Atom        21          22          23          24          25          26          27          28          29          30
 IAtWgt=           1          32          14          12          12          12          12          12          12           1
 AtmWgt=   1.0078250  31.9720718  14.0030740  12.0000000  12.0000000  12.0000000  12.0000000  12.0000000  12.0000000   1.0078250
 NucSpn=           1           0           2           0           0           0           0           0           0           1
 AtZEff=  -0.0000000  -0.0000000  -0.0000000  -0.0000000  -0.0000000  -0.0000000  -0.0000000  -0.0000000  -0.0000000  -0.0000000
 NQMom=    0.0000000   0.0000000   2.0440000   0.0000000   0.0000000   0.0000000   0.0000000   0.0000000   0.0000000   0.0000000
 NMagM=    2.7928460   0.0000000   0.4037610   0.0000000   0.0000000   0.0000000   0.0000000   0.0000000   0.0000000   2.7928460
 AtZNuc=   1.0000000  16.0000000   7.0000000   6.0000000   6.0000000   6.0000000   6.0000000   6.0000000   6.0000000   1.0000000

  Atom        31          32          33          34          35          36          37          38          39          40
 IAtWgt=           1           1           1          12          12          12          12          12          12           1
 AtmWgt=   1.0078250   1.0078250   1.0078250  12.0000000  12.0000000  12.0000000  12.0000000  12.0000000  12.0000000   1.0078250
 NucSpn=           1           1           1           0           0           0           0           0           0           1
 AtZEff=  -0.0000000  -0.0000000  -0.0000000  -0.0000000  -0.0000000  -0.0000000  -0.0000000  -0.0000000  -0.0000000  -0.0000000
 NQMom=    0.0000000   0.0000000   0.0000000   0.0000000   0.0000000   0.0000000   0.0000000   0.0000000   0.0000000   0.0000000
 NMagM=    2.7928460   2.7928460   2.7928460   0.0000000   0.0000000   0.0000000   0.0000000   0.0000000   0.0000000   2.7928460
 AtZNuc=   1.0000000   1.0000000   1.0000000   6.0000000   6.0000000   6.0000000   6.0000000   6.0000000   6.0000000   1.0000000

  Atom        41          42          43          44          45          46          47          48          49          50
 IAtWgt=           1           1           1          14          12          12          12          12          12          12
 AtmWgt=   1.0078250   1.0078250   1.0078250  14.0030740  12.0000000  12.0000000  12.0000000  12.0000000  12.0000000  12.0000000
 NucSpn=           1           1           1           2           0           0           0           0           0           0
 AtZEff=  -0.0000000  -0.0000000  -0.0000000  -0.0000000  -0.0000000  -0.0000000  -0.0000000  -0.0000000  -0.0000000  -0.0000000
 NQMom=    0.0000000   0.0000000   0.0000000   2.0440000   0.0000000   0.0000000   0.0000000   0.0000000   0.0000000   0.0000000
 NMagM=    2.7928460   2.7928460   2.7928460   0.4037610   0.0000000   0.0000000   0.0000000   0.0000000   0.0000000   0.0000000
 AtZNuc=   1.0000000   1.0000000   1.0000000   7.0000000   6.0000000   6.0000000   6.0000000   6.0000000   6.0000000   6.0000000

  Atom        51          52          53          54          55          56          57          58          59          60
 IAtWgt=           1           1           1           1          12          12          12          12          12          12
 AtmWgt=   1.0078250   1.0078250   1.0078250   1.0078250  12.0000000  12.0000000  12.0000000  12.0000000  12.0000000  12.0000000
 NucSpn=           1           1           1           1           0           0           0           0           0           0
 AtZEff=  -0.0000000  -0.0000000  -0.0000000  -0.0000000  -0.0000000  -0.0000000  -0.0000000  -0.0000000  -0.0000000  -0.0000000
 NQMom=    0.0000000   0.0000000   0.0000000   0.0000000   0.0000000   0.0000000   0.0000000   0.0000000   0.0000000   0.0000000
 NMagM=    2.7928460   2.7928460   2.7928460   2.7928460   0.0000000   0.0000000   0.0000000   0.0000000   0.0000000   0.0000000
 AtZNuc=   1.0000000   1.0000000   1.0000000   1.0000000   6.0000000   6.0000000   6.0000000   6.0000000   6.0000000   6.0000000

  Atom        61          62          63          64          65          66          67          68          69          70
 IAtWgt=           1           1           1           1          16           1          16           1          16           1
 AtmWgt=   1.0078250   1.0078250   1.0078250   1.0078250  15.9949146   1.0078250  15.9949146   1.0078250  15.9949146   1.0078250
 NucSpn=           1           1           1           1           0           1           0           1           0           1
 AtZEff=  -0.0000000  -0.0000000  -0.0000000  -0.0000000  -0.0000000  -0.0000000  -0.0000000  -0.0000000  -0.0000000  -0.0000000
 NQMom=    0.0000000   0.0000000   0.0000000   0.0000000   0.0000000   0.0000000   0.0000000   0.0000000   0.0000000   0.0000000
 NMagM=    2.7928460   2.7928460   2.7928460   2.7928460   0.0000000   2.7928460   0.0000000   2.7928460   0.0000000   2.7928460
 AtZNuc=   1.0000000   1.0000000   1.0000000   1.0000000   8.0000000   1.0000000   8.0000000   1.0000000   8.0000000   1.0000000

  Atom        71          72
 IAtWgt=          16           1
 AtmWgt=  15.9949146   1.0078250
 NucSpn=           0           1
 AtZEff=  -0.0000000  -0.0000000
 NQMom=    0.0000000   0.0000000
 NMagM=    0.0000000   2.7928460
 AtZNuc=   8.0000000   1.0000000
 Leave Link  101 at Thu Jan 21 20:02:57 2021, MaxMem=  4026531840 cpu:               0.6 elap:               0.1
 (Enter /opt/ohpc/pub/libs/gaussian/g16-A.03/sandybridge/g16/l202.exe)
 Stoichiometry    C36H28N2O4S2(1+,2)
 Framework group  C1[X(C36H28N2O4S2)]
 Deg. of freedom   210
 Full point group                 C1      NOp   1
 Largest Abelian subgroup         C1      NOp   1
 Largest concise Abelian subgroup C1      NOp   1
                         Standard orientation:                         
 ---------------------------------------------------------------------
 Center     Atomic      Atomic             Coordinates (Angstroms)
 Number     Number       Type             X           Y           Z
 ---------------------------------------------------------------------
      1          6           0       -1.748928    0.489907   -0.452051
      2          6           0       -0.626174    1.279763   -0.152570
      3         16           0        1.952753    5.388628   -0.812439
      4          6           0       -0.882312    2.170069    0.820725
      5          6           0        1.932708    2.897266    0.476539
      6          6           0        2.566514    3.761438   -0.418550
      7          6           0       -2.975354    0.631957    0.195801
      8          6           0       -2.049066    2.386893    1.545961
      9          1           0        0.246316    4.468801    0.586079
     10          6           0        2.384401    1.613824    0.700024
     11          6           0        3.673888    3.269502   -1.095477
     12          6           0        4.135912    1.984797   -0.893895
     13          6           0        3.494497    1.125461    0.002977
     14          1           0        1.857267    0.971131    1.395345
     15          1           0        4.176334    3.912174   -1.811785
     16          1           0        4.992977    1.632150   -1.456718
     17          6           0       -3.122467    1.590215    1.210611
     18          1           0       -1.688273   -0.276733   -1.226088
     19          1           0        2.539000    6.051116    0.206249
     20          1           0       -2.132551    3.120151    2.347153
     21          1           0       -4.068236    1.688167    1.734116
     22         16           0        0.491419    3.391365    1.378930
     23          7           0        3.940024   -0.175839    0.195205
     24          6           0        5.265040   -0.539150   -0.184549
     25          6           0        5.479402   -1.520085   -1.147894
     26          6           0        6.360048    0.068673    0.412912
     27          6           0        6.761446   -1.889048   -1.505778
     28          6           0        7.649207   -0.280692    0.044528
     29          6           0        7.852726   -1.265560   -0.913210
     30          1           0        4.624132   -2.002234   -1.612555
     31          1           0        6.198832    0.830082    1.170918
     32          1           0        6.936355   -2.656092   -2.253454
     33          1           0        8.499101    0.206598    0.518215
     34          6           0        3.067884   -1.217797    0.624973
     35          6           0        3.533169   -2.175669    1.516644
     36          6           0        1.768428   -1.324352    0.133595
     37          6           0        2.723890   -3.230889    1.904642
     38          6           0        0.952027   -2.363639    0.537000
     39          6           0        1.429133   -3.326131    1.415171
     40          1           0        4.545758   -2.102962    1.902377
     41          1           0        1.364259   -0.566763   -0.534909
     42          1           0        3.106488   -3.978127    2.597301
     43          1           0       -0.063643   -2.437107    0.162477
     44          7           0       -4.071583   -0.199288   -0.137893
     45          6           0       -5.379657    0.330758   -0.192504
     46          6           0       -6.464072   -0.381862    0.308117
     47          6           0       -5.615898    1.583782   -0.758482
     48          6           0       -7.748035    0.135409    0.237366
     49          6           0       -6.890741    2.113870   -0.808775
     50          6           0       -7.966332    1.388715   -0.314728
     51          1           0       -6.301182   -1.359246    0.752201
     52          1           0       -4.779992    2.148147   -1.160920
     53          1           0       -8.582756   -0.442294    0.630527
     54          1           0       -7.071352    3.090185   -1.247847
     55          6           0       -3.863071   -1.579858   -0.373004
     56          6           0       -4.488297   -2.228332   -1.435995
     57          6           0       -3.028002   -2.320518    0.455690
     58          6           0       -4.288516   -3.577498   -1.662294
     59          6           0       -2.802155   -3.666597    0.218956
     60          6           0       -3.435225   -4.300687   -0.840523
     61          1           0       -5.141183   -1.661753   -2.093518
     62          1           0       -2.533592   -1.828985    1.288374
     63          1           0       -4.774148   -4.081779   -2.492022
     64          1           0       -2.125658   -4.220184    0.867724
     65          8           0        0.584592   -4.343911    1.769173
     66          1           0        1.030590   -4.920168    2.399784
     67          8           0        9.095256   -1.661445   -1.308356
     68          1           0        9.763222   -1.159512   -0.827959
     69          8           0       -9.209724    1.953542   -0.400297
     70          1           0       -9.859516    1.347058   -0.028653
     71          8           0       -3.254007   -5.627948   -1.116747
     72          1           0       -2.609433   -5.991357   -0.499352
 ---------------------------------------------------------------------
 Rotational constants (GHZ):           0.1003685           0.0370235           0.0288534
 Leave Link  202 at Thu Jan 21 20:02:57 2021, MaxMem=  4026531840 cpu:               0.5 elap:               0.1
 (Enter /opt/ohpc/pub/libs/gaussian/g16-A.03/sandybridge/g16/l301.exe)
 Standard basis: TZVP (5D, 7F)
 Ernie: Thresh=  0.10000D-02 Tol=  0.10000D-05 Strict=F.
 There are  1054 symmetry adapted cartesian basis functions of A   symmetry.
 There are  1010 symmetry adapted basis functions of A   symmetry.
  1010 basis functions,  1788 primitive gaussians,  1054 cartesian basis functions
   161 alpha electrons      160 beta electrons
       nuclear repulsion energy      5277.7236652844 Hartrees.
 IExCor=33909 DFT=T Ex+Corr=LC-wHPBE ExCW=0 ScaHFX=  1.000000
 ScaDFX=  1.000000  1.000000  1.000000  1.000000 ScalE2=  1.000000  1.000000
 IRadAn=      5 IRanWt=     -1 IRanGd=            0 ICorTp=0 IEmpDi=  4
 HFx  wShort=  0.000000 wLong=  0.176200 cFull=  0.000000 cShort=  0.000000 cLong=  1.000000
 DFx  wShort=  0.000000 wLong=  0.176200 cFull=  0.000000 cShort=  1.000000 cLong=  0.000000
 NAtoms=   72 NActive=   72 NUniq=   72 SFac= 1.00D+00 NAtFMM=   60 NAOKFM=T Big=T
 Integral buffers will be    131072 words long.
 Raffenetti 2 integral format.
 Two-electron integral symmetry is turned on.
 Leave Link  301 at Thu Jan 21 20:02:57 2021, MaxMem=  4026531840 cpu:               0.3 elap:               0.1
 (Enter /opt/ohpc/pub/libs/gaussian/g16-A.03/sandybridge/g16/l302.exe)
 NPDir=0 NMtPBC=     1 NCelOv=     1 NCel=       1 NClECP=     1 NCelD=      1
         NCelK=      1 NCelE2=     1 NClLst=     1 CellRange=     0.0.
 One-electron integrals computed using PRISM.
 One-electron integral symmetry used in STVInt
 NBasis=  1010 RedAO= T EigKep=  6.33D-06  NBF=  1010
 NBsUse=  1010 1.00D-06 EigRej= -1.00D+00 NBFU=  1010
 Precomputing XC quadrature grid using
 IXCGrd= 4 IRadAn=           5 IRanWt=          -1 IRanGd=           0 AccXCQ= 0.00D+00.
 Generated NRdTot=       0 NPtTot=           0 NUsed=           0 NTot=          32
 NSgBfM=   960   960   960   960   960 MxSgAt=    72 MxSgA2=    72.
 Leave Link  302 at Thu Jan 21 20:03:02 2021, MaxMem=  4026531840 cpu:              31.9 elap:               4.6
 (Enter /opt/ohpc/pub/libs/gaussian/g16-A.03/sandybridge/g16/l303.exe)
 DipDrv:  MaxL=1.
 Leave Link  303 at Thu Jan 21 20:03:02 2021, MaxMem=  4026531840 cpu:               1.9 elap:               0.5
 (Enter /opt/ohpc/pub/libs/gaussian/g16-A.03/sandybridge/g16/l401.exe)
 ExpMin= 9.52D-02 ExpMax= 6.07D+04 ExpMxC= 2.07D+03 IAcc=3 IRadAn=         5 AccDes= 0.00D+00
 Harris functional with IExCor=33909 and IRadAn=       5 diagonalized for initial guess.
 HarFok:  IExCor=33909 AccDes= 0.00D+00 IRadAn=         5 IDoV= 1 UseB2=F ITyADJ=14
 ICtDFT=  3500011 ScaDFX=  1.000000  1.000000  1.000000  1.000000
 FoFCou: FMM=F IPFlag=           0 FMFlag=      100000 FMFlg1=        2001
         NFxFlg=           0 DoJE=T BraDBF=F KetDBF=T FulRan=T
         wScrn=  0.000000 ICntrl=       500 IOpCl=  0 I1Cent=   200000004 NGrid=           0
         NMat0=    1 NMatS0=      1 NMatT0=    0 NMatD0=    1 NMtDS0=    0 NMtDT0=    0
 Petite list used in FoFCou.
 Harris En= -2563.31518682577    
 JPrj=0 DoOrth=F DoCkMO=F.
 Initial guess <Sx>= 0.0000 <Sy>= 0.0000 <Sz>= 0.5000 <S**2>= 0.7500 S= 0.5000
 Leave Link  401 at Thu Jan 21 20:03:31 2021, MaxMem=  4026531840 cpu:             114.5 elap:              28.7
 (Enter /opt/ohpc/pub/libs/gaussian/g16-A.03/sandybridge/g16/l502.exe)
 Integral symmetry usage will be decided dynamically.
 UHF open shell SCF:
 Using DIIS extrapolation, IDIIS=    10.
 NGot=  4026531840 LenX=  4024291472 LenY=  4023179502
 Requested convergence on RMS density matrix=1.00D-06 within  32 cycles.
 Requested convergence on MAX density matrix=1.00D-04.
 Requested convergence on             energy=1.00D-04.
 Virtual orbitals will be shifted by   0.500 hartree.
 No special actions if energy rises.
 Dynamic level shift is on during FON iterations.

 Cycle   1  Pass 1  IDiag  1:
 FoFJK:  IHMeth= 1 ICntrl=       0 DoSepK=T KAlg= 0 I1Cent=           0 FoldK=F
 IRaf=         1 NMat=       1 IRICut=       1 DoRegI=T DoRafI=F ISym2E= 0 IDoP0=0 IntGTp=1.
 FoFCou: FMM=T IPFlag=           0 FMFlag=      100000 FMFlg1=        2001
         NFxFlg=           0 DoJE=T BraDBF=F KetDBF=F FulRan=T
         wScrn=  0.000000 ICntrl=       500 IOpCl=  0 I1Cent=           0 NGrid=           0
         NMat0=    1 NMatS0=      1 NMatT0=    0 NMatD0=    1 NMtDS0=    0 NMtDT0=    0
 Symmetry not used in FoFCou.
 FMM levels:  10  Number of levels for PrismC:   9
 E= -2592.80338969453    
 DIIS: error= 3.56D-02 at cycle   1 NSaved=   1.
 NSaved= 1 IEnMin= 1 EnMin= -2592.80338969453     IErMin= 1 ErrMin= 3.56D-02
 ErrMax= 3.56D-02  0.00D+00 EMaxC= 1.00D+00 BMatC= 3.70D+00 BMatP= 3.70D+00
 IDIUse=1 WtCom= 1.00D+00 WtEn= 0.00D+00
 Coeff-Com:  0.100D+01
 Coeff:      0.100D+01
 Gap=     0.441 Goal=   None    Shift=    0.500
 T= 1599. Gap= 0.433 NK=0 IS=  162 IE= 1010 IFin=  161
          NO(<0.9)=   0  NV(>0.1)=   0    161.00e < EF      0.00e >EF  Err=0.0D+00
 Gap=     0.009 Goal=   None    Shift=    0.500
 T= 1599. Gap= 0.373 NK=0 IS=  161 IE= 1010 IFin=  160
          NO(<0.9)=   0  NV(>0.1)=   0    160.00e < EF      0.00e >EF  Err=0.0D+00
 GapD=    0.009 DampG=0.250 DampE=0.500 DampFc=0.1250 IDamp=-1.
 Damping current iteration by 1.25D-01
 RMSDP=3.75D-03 MaxDP=4.73D-01              OVMax= 1.54D-01

 Cycle   2  Pass 1  IDiag  1:
 E= -2592.98305693240     Delta-E=       -0.179667237868 Rises=F Damp=T
 DIIS: error= 3.20D-02 at cycle   2 NSaved=   2.
 NSaved= 2 IEnMin= 2 EnMin= -2592.98305693240     IErMin= 2 ErrMin= 3.20D-02
 ErrMax= 3.20D-02  0.00D+00 EMaxC= 1.00D+00 BMatC= 2.58D+00 BMatP= 3.70D+00
 IDIUse=1 WtCom= 1.00D+00 WtEn= 0.00D+00
 Coeff-Com: -0.474D+01 0.574D+01
 Coeff:     -0.474D+01 0.574D+01
 Gap=     0.243 Goal=   None    Shift=    0.500
 T= 1579. Gap= 0.707 NK=4 IS=  162 IE=  184 IFin=  161
          NO(<0.9)=   0  NV(>0.1)=   0    161.00e < EF      0.00e >EF  Err=0.0D+00
 Gap=     0.094 Goal=   None    Shift=    0.500
 T= 1579. Gap= 0.572 NK=4 IS=  161 IE=  182 IFin=  160
          NO(<0.9)=   0  NV(>0.1)=   0    160.00e < EF      0.00e >EF  Err=0.0D+00
 GapD=    0.094 DampG=0.500 DampE=0.500 DampFc=0.2500 IDamp=-1.
 Damping current iteration by 2.50D-01
 RMSDP=2.96D-03 MaxDP=3.14D-01 DE=-1.80D-01 OVMax= 6.96D-02

 Cycle   3  Pass 1  IDiag  1:
 E= -2593.23750369960     Delta-E=       -0.254446767203 Rises=F Damp=T
 DIIS: error= 2.47D-02 at cycle   3 NSaved=   3.
 NSaved= 3 IEnMin= 3 EnMin= -2593.23750369960     IErMin= 3 ErrMin= 2.47D-02
 ErrMax= 2.47D-02  0.00D+00 EMaxC= 1.00D+00 BMatC= 1.33D+00 BMatP= 2.58D+00
 IDIUse=1 WtCom= 1.00D+00 WtEn= 0.00D+00
 Coeff-Com: -0.507D-01-0.242D+01 0.348D+01
 Coeff:     -0.507D-01-0.242D+01 0.348D+01
 Gap=     0.238 Goal=   None    Shift=    0.500
 T= 1511. Gap= 0.732 NK=4 IS=  162 IE=  183 IFin=  161
          NO(<0.9)=   0  NV(>0.1)=   0    161.00e < EF      0.00e >EF  Err=0.0D+00
 Gap=     0.084 Goal=   None    Shift=    0.500
 T= 1511. Gap= 0.584 NK=4 IS=  161 IE=  182 IFin=  160
          NO(<0.9)=   0  NV(>0.1)=   0    160.00e < EF      0.00e >EF  Err=0.0D+00
 GapD=    0.084 DampG=0.500 DampE=0.500 DampFc=0.2500 IDamp=-1.
 Damping current iteration by 2.50D-01
 RMSDP=1.90D-03 MaxDP=1.73D-01 DE=-2.54D-01 OVMax= 2.97D-02

 Cycle   4  Pass 1  IDiag  1:
 E= -2593.39261952816     Delta-E=       -0.155115828554 Rises=F Damp=T
 DIIS: error= 1.97D-02 at cycle   4 NSaved=   4.
 NSaved= 4 IEnMin= 4 EnMin= -2593.39261952816     IErMin= 4 ErrMin= 1.97D-02
 ErrMax= 1.97D-02  0.00D+00 EMaxC= 1.00D+00 BMatC= 7.15D-01 BMatP= 1.33D+00
 IDIUse=1 WtCom= 1.00D+00 WtEn= 0.00D+00
 Coeff-Com:  0.519D+00-0.695D+00-0.283D+01 0.400D+01
 Coeff:      0.519D+00-0.695D+00-0.283D+01 0.400D+01
 Gap=     0.235 Goal=   None    Shift=    0.500
 T= 1398. Gap= 0.735 NK=4 IS=  162 IE=  184 IFin=  161
          NO(<0.9)=   0  NV(>0.1)=   0    161.00e < EF      0.00e >EF  Err=0.0D+00
 Gap=     0.088 Goal=   None    Shift=    0.500
 T= 1398. Gap= 0.589 NK=4 IS=  161 IE=  183 IFin=  160
          NO(<0.9)=   0  NV(>0.1)=   0    160.00e < EF      0.00e >EF  Err=0.0D+00
 GapD=    0.088 DampG=0.500 DampE=0.500 DampFc=0.2500 IDamp=-1.
 Damping current iteration by 2.50D-01
 RMSDP=1.33D-03 MaxDP=1.29D-01 DE=-1.55D-01 OVMax= 3.10D-02

 Cycle   5  Pass 1  IDiag  1:
 E= -2593.49343689049     Delta-E=       -0.100817362332 Rises=F Damp=T
 DIIS: error= 1.61D-02 at cycle   5 NSaved=   5.
 NSaved= 5 IEnMin= 5 EnMin= -2593.49343689049     IErMin= 5 ErrMin= 1.61D-02
 ErrMax= 1.61D-02  0.00D+00 EMaxC= 1.00D+00 BMatC= 3.96D-01 BMatP= 7.15D-01
 IDIUse=1 WtCom= 1.00D+00 WtEn= 0.00D+00
 Coeff-Com:  0.885D-01 0.263D+00-0.356D+00-0.374D+01 0.475D+01
 Coeff:      0.885D-01 0.263D+00-0.356D+00-0.374D+01 0.475D+01
 Gap=     0.235 Goal=   None    Shift=    0.500
 T= 1257. Gap= 0.734 NK=4 IS=  162 IE=  184 IFin=  161
          NO(<0.9)=   0  NV(>0.1)=   0    161.00e < EF      0.00e >EF  Err=0.0D+00
 Gap=     0.093 Goal=   None    Shift=    0.500
 T= 1257. Gap= 0.594 NK=4 IS=  161 IE=  183 IFin=  160
          NO(<0.9)=   0  NV(>0.1)=   0    160.00e < EF      0.00e >EF  Err=0.0D+00
 GapD=    0.093 DampG=0.500 DampE=0.500 DampFc=0.2500 IDamp=-1.
 Damping current iteration by 2.50D-01
 RMSDP=9.81D-04 MaxDP=1.12D-01 DE=-1.01D-01 OVMax= 2.65D-02

 Cycle   6  Pass 1  IDiag  1:
 E= -2593.56194159690     Delta-E=       -0.068504706411 Rises=F Damp=T
 DIIS: error= 1.32D-02 at cycle   6 NSaved=   6.
 NSaved= 6 IEnMin= 6 EnMin= -2593.56194159690     IErMin= 6 ErrMin= 1.32D-02
 ErrMax= 1.32D-02  0.00D+00 EMaxC= 1.00D+00 BMatC= 2.22D-01 BMatP= 3.96D-01
 IDIUse=1 WtCom= 1.00D+00 WtEn= 0.00D+00
 Coeff-Com: -0.118D+00 0.305D+00 0.511D+00-0.563D+00-0.495D+01 0.581D+01
 Coeff:     -0.118D+00 0.305D+00 0.511D+00-0.563D+00-0.495D+01 0.581D+01
 Gap=     0.235 Goal=   None    Shift=    0.500
 T= 1131. Gap= 0.735 NK=4 IS=  162 IE=  184 IFin=  161
          NO(<0.9)=   0  NV(>0.1)=   0    161.00e < EF      0.00e >EF  Err=0.0D+00
 Gap=     0.096 Goal=   None    Shift=    0.500
 T= 1131. Gap= 0.598 NK=4 IS=  161 IE=  182 IFin=  160
          NO(<0.9)=   0  NV(>0.1)=   0    160.00e < EF      0.00e >EF  Err=0.0D+00
 GapD=    0.096 DampG=0.500 DampE=0.500 DampFc=0.2500 IDamp=-1.
 Damping current iteration by 2.50D-01
 RMSDP=7.65D-04 MaxDP=9.40D-02 DE=-6.85D-02 OVMax= 2.36D-02

 Cycle   7  Pass 1  IDiag  1:
 E= -2593.60996500522     Delta-E=       -0.048023408321 Rises=F Damp=T
 DIIS: error= 1.09D-02 at cycle   7 NSaved=   7.
 NSaved= 7 IEnMin= 7 EnMin= -2593.60996500522     IErMin= 7 ErrMin= 1.09D-02
 ErrMax= 1.09D-02  0.00D+00 EMaxC= 1.00D+00 BMatC= 1.25D-01 BMatP= 2.22D-01
 IDIUse=1 WtCom= 1.00D+00 WtEn= 0.00D+00
 Coeff-Com: -0.281D-01-0.134D+00 0.429D+00 0.209D+01-0.338D+01-0.495D+01
 Coeff-Com:  0.697D+01
 Coeff:     -0.281D-01-0.134D+00 0.429D+00 0.209D+01-0.338D+01-0.495D+01
 Coeff:      0.697D+01
 Gap=     0.234 Goal=   None    Shift=    0.500
 T= 1012. Gap= 0.734 NK=4 IS=  162 IE=  184 IFin=  161
          NO(<0.9)=   0  NV(>0.1)=   0    161.00e < EF      0.00e >EF  Err=0.0D+00
 Gap=     0.100 Goal=   None    Shift=    0.500
 T= 1012. Gap= 0.602 NK=4 IS=  161 IE=  181 IFin=  160
          NO(<0.9)=   0  NV(>0.1)=   0    160.00e < EF      0.00e >EF  Err=0.0D+00
 GapD=    0.100 DampG=1.000 DampE=0.500 DampFc=0.5000 IDamp=-1.
 Damping current iteration by 5.00D-01
 RMSDP=6.14D-04 MaxDP=7.45D-02 DE=-4.80D-02 OVMax= 2.25D-02

 Cycle   8  Pass 1  IDiag  1:
 E= -2593.67716677477     Delta-E=       -0.067201769552 Rises=F Damp=T
 DIIS: error= 7.37D-03 at cycle   8 NSaved=   8.
 NSaved= 8 IEnMin= 8 EnMin= -2593.67716677477     IErMin= 8 ErrMin= 7.37D-03
 ErrMax= 7.37D-03  0.00D+00 EMaxC= 1.00D+00 BMatC= 3.21D-02 BMatP= 1.25D-01
 IDIUse=1 WtCom= 1.00D+00 WtEn= 0.00D+00
 Coeff-Com:  0.772D-01-0.310D+00 0.121D+00 0.134D+01 0.440D+00-0.341D+01
 Coeff-Com: -0.470D+00 0.321D+01
 Coeff:      0.772D-01-0.310D+00 0.121D+00 0.134D+01 0.440D+00-0.341D+01
 Coeff:     -0.470D+00 0.321D+01
 Gap=     0.234 Goal=   None    Shift=    0.500
 T=  866. Gap= 0.734 NK=4 IS=  162 IE=  184 IFin=  161
          NO(<0.9)=   0  NV(>0.1)=   0    161.00e < EF      0.00e >EF  Err=0.0D+00
 Gap=     0.103 Goal=   None    Shift=    0.500
 T=  866. Gap= 0.604 NK=4 IS=  161 IE=  181 IFin=  160
          NO(<0.9)=   0  NV(>0.1)=   0    160.00e < EF      0.00e >EF  Err=0.0D+00
 GapD=    0.103 DampG=1.000 DampE=1.000 DampFc=1.0000 IDamp=-1.
 RMSDP=3.49D-04 MaxDP=4.89D-02 DE=-6.72D-02 OVMax= 2.00D-02

 Cycle   9  Pass 1  IDiag  1:
 E= -2593.74006728260     Delta-E=       -0.062900507830 Rises=F Damp=F
 DIIS: error= 3.41D-03 at cycle   9 NSaved=   9.
 NSaved= 9 IEnMin= 9 EnMin= -2593.74006728260     IErMin= 9 ErrMin= 3.41D-03
 ErrMax= 3.41D-03  0.00D+00 EMaxC= 1.00D+00 BMatC= 5.13D-04 BMatP= 3.21D-02
 IDIUse=1 WtCom= 1.00D+00 WtEn= 0.00D+00
 Coeff-Com:  0.693D-01-0.186D+00-0.657D-01-0.368D-01 0.192D+01-0.488D-01
 Coeff-Com: -0.284D+01 0.473D+00 0.171D+01
 Coeff:      0.693D-01-0.186D+00-0.657D-01-0.368D-01 0.192D+01-0.488D-01
 Coeff:     -0.284D+01 0.473D+00 0.171D+01
 Gap=     0.233 Goal=   None    Shift=    0.500
 T=  643. Gap= 0.733 NK=4 IS=  162 IE=  184 IFin=  161
          NO(<0.9)=   0  NV(>0.1)=   0    161.00e < EF      0.00e >EF  Err=0.0D+00
 Gap=     0.105 Goal=   None    Shift=    0.500
 T=  643. Gap= 0.606 NK=4 IS=  161 IE=  181 IFin=  160
          NO(<0.9)=   0  NV(>0.1)=   0    160.00e < EF      0.00e >EF  Err=0.0D+00
 GapD=    0.105 DampG=1.000 DampE=1.000 DampFc=1.0000 IDamp=-1.
 RMSDP=6.85D-05 MaxDP=8.98D-03 DE=-6.29D-02 OVMax= 1.59D-02

 Cycle  10  Pass 1  IDiag  1:
 E= -2593.74099653752     Delta-E=       -0.000929254919 Rises=F Damp=F
 DIIS: error= 2.67D-03 at cycle  10 NSaved=  10.
 NSaved=10 IEnMin=10 EnMin= -2593.74099653752     IErMin=10 ErrMin= 2.67D-03
 ErrMax= 2.67D-03  0.00D+00 EMaxC= 1.00D+00 BMatC= 3.50D-04 BMatP= 5.13D-04
 IDIUse=1 WtCom= 1.00D+00 WtEn= 0.00D+00
 Coeff-Com: -0.463D-01 0.134D+00-0.193D-01-0.365D+00-0.771D+00 0.168D+01
 Coeff-Com:  0.949D+00-0.250D+01-0.195D+01 0.388D+01
 Coeff:     -0.463D-01 0.134D+00-0.193D-01-0.365D+00-0.771D+00 0.168D+01
 Coeff:      0.949D+00-0.250D+01-0.195D+01 0.388D+01
 Gap=     0.233 Goal=   None    Shift=    0.500
 T=  356. Gap= 0.733 NK=4 IS=  162 IE=  184 IFin=  161
          NO(<0.9)=   0  NV(>0.1)=   0    161.00e < EF      0.00e >EF  Err=0.0D+00
 Gap=     0.107 Goal=   None    Shift=    0.500
 T=  356. Gap= 0.608 NK=4 IS=  161 IE=  181 IFin=  160
          NO(<0.9)=   0  NV(>0.1)=   0    160.00e < EF      0.00e >EF  Err=0.0D+00
 GapD=    0.107 DampG=1.000 DampE=1.000 DampFc=1.0000 IDamp=-1.
 RMSDP=8.17D-05 MaxDP=1.15D-02 DE=-9.29D-04 OVMax= 1.96D-02

 Cycle  11  Pass 1  IDiag  1:
 E= -2593.74176278652     Delta-E=       -0.000766248995 Rises=F Damp=F
 DIIS: error= 1.98D-03 at cycle  11 NSaved=  11.
 NSaved=11 IEnMin=11 EnMin= -2593.74176278652     IErMin=11 ErrMin= 1.98D-03
 ErrMax= 1.98D-03  0.00D+00 EMaxC= 1.00D+00 BMatC= 2.66D-04 BMatP= 3.50D-04
 IDIUse=1 WtCom= 1.00D+00 WtEn= 0.00D+00
 Coeff-Com: -0.424D-01 0.115D+00 0.157D-01-0.332D+00-0.796D+00 0.135D+01
 Coeff-Com:  0.115D+01-0.219D+01-0.191D+01 0.311D+01 0.527D+00
 Coeff:     -0.424D-01 0.115D+00 0.157D-01-0.332D+00-0.796D+00 0.135D+01
 Coeff:      0.115D+01-0.219D+01-0.191D+01 0.311D+01 0.527D+00
 Gap=     0.233 Goal=   None    Shift=    0.500
 T=   48. Gap= 0.733 NK=4 IS=  162 IE=  184 IFin=  161
          NO(<0.9)=   0  NV(>0.1)=   0    161.00e < EF      0.00e >EF  Err=0.0D+00
 Gap=     0.108 Goal=   None    Shift=    0.500
 T=   48. Gap= 0.609 NK=4 IS=  161 IE=  181 IFin=  160
          NO(<0.9)=   0  NV(>0.1)=   0    160.00e < EF      0.00e >EF  Err=0.0D+00
 GapD=    0.108 DampG=1.000 DampE=1.000 DampFc=1.0000 IDamp=-1.
 RMSDP=4.90D-05 MaxDP=5.10D-03 DE=-7.66D-04 OVMax= 1.63D-02

 Cycle  12  Pass 1  IDiag  1:
 E= -2593.74224656949     Delta-E=       -0.000483782975 Rises=F Damp=F
 DIIS: error= 1.47D-03 at cycle  12 NSaved=  12.
 NSaved=12 IEnMin=12 EnMin= -2593.74224656949     IErMin=12 ErrMin= 1.47D-03
 ErrMax= 1.47D-03  0.00D+00 EMaxC= 1.00D+00 BMatC= 1.84D-04 BMatP= 2.66D-04
 IDIUse=1 WtCom= 1.00D+00 WtEn= 0.00D+00
 Coeff-Com:  0.393D-02-0.267D-02 0.563D-01-0.796D-01-0.636D+00 0.105D+01
 Coeff-Com:  0.368D-01-0.604D+00-0.178D+00 0.398D+00-0.223D+01 0.319D+01
 Coeff:      0.393D-02-0.267D-02 0.563D-01-0.796D-01-0.636D+00 0.105D+01
 Coeff:      0.368D-01-0.604D+00-0.178D+00 0.398D+00-0.223D+01 0.319D+01
 Gap=     0.233 Goal=   None    Shift=    0.500
 Gap=     0.109 Goal=   None    Shift=    0.500
 GapD=    0.109 DampG=1.000 DampE=1.000 DampFc=1.0000 IDamp=-1.
 RMSDP=4.96D-05 MaxDP=6.60D-03 DE=-4.84D-04 OVMax= 1.63D-02

 Cycle  13  Pass 1  IDiag  1:
 E= -2593.74260848456     Delta-E=       -0.000361915068 Rises=F Damp=F
 DIIS: error= 1.16D-03 at cycle  13 NSaved=  13.
 NSaved=13 IEnMin=13 EnMin= -2593.74260848456     IErMin=13 ErrMin= 1.16D-03
 ErrMax= 1.16D-03  0.00D+00 EMaxC= 1.00D+00 BMatC= 1.48D-04 BMatP= 1.84D-04
 IDIUse=1 WtCom= 1.00D+00 WtEn= 0.00D+00
 Coeff-Com:  0.330D-01-0.736D-01 0.281D-01-0.124D-01 0.355D+00 0.102D+00
 Coeff-Com: -0.112D+01 0.890D+00 0.154D+01-0.187D+01-0.366D+01 0.318D+01
 Coeff-Com:  0.161D+01
 Coeff:      0.330D-01-0.736D-01 0.281D-01-0.124D-01 0.355D+00 0.102D+00
 Coeff:     -0.112D+01 0.890D+00 0.154D+01-0.187D+01-0.366D+01 0.318D+01
 Coeff:      0.161D+01
 Gap=     0.232 Goal=   None    Shift=    0.500
 Gap=     0.109 Goal=   None    Shift=    0.500
 GapD=    0.109 DampG=1.000 DampE=1.000 DampFc=1.0000 IDamp=-1.
 RMSDP=5.04D-05 MaxDP=7.23D-03 DE=-3.62D-04 OVMax= 1.76D-02

 Cycle  14  Pass 1  IDiag  1:
 E= -2593.74291386852     Delta-E=       -0.000305383963 Rises=F Damp=F
 DIIS: error= 1.18D-03 at cycle  14 NSaved=  14.
 NSaved=14 IEnMin=14 EnMin= -2593.74291386852     IErMin=13 ErrMin= 1.16D-03
 ErrMax= 1.18D-03  0.00D+00 EMaxC= 1.00D+00 BMatC= 1.24D-04 BMatP= 1.48D-04
 IDIUse=1 WtCom= 1.00D+00 WtEn= 0.00D+00
 Coeff-Com:  0.245D-01-0.499D-01-0.294D-01-0.107D+00 0.114D+01-0.856D+00
 Coeff-Com: -0.929D+00 0.993D+00 0.143D+01-0.153D+01-0.301D+01 0.257D+01
 Coeff-Com: -0.367D+00 0.173D+01
 Coeff:      0.245D-01-0.499D-01-0.294D-01-0.107D+00 0.114D+01-0.856D+00
 Coeff:     -0.929D+00 0.993D+00 0.143D+01-0.153D+01-0.301D+01 0.257D+01
 Coeff:     -0.367D+00 0.173D+01
 Gap=     0.232 Goal=   None    Shift=    0.500
 Gap=     0.110 Goal=   None    Shift=    0.500
 GapD=    0.110 DampG=1.000 DampE=1.000 DampFc=1.0000 IDamp=-1.
 RMSDP=4.23D-05 MaxDP=5.63D-03 DE=-3.05D-04 OVMax= 1.66D-02

 Cycle  15  Pass 1  IDiag  1:
 E= -2593.74315986650     Delta-E=       -0.000245997978 Rises=F Damp=F
 DIIS: error= 1.17D-03 at cycle  15 NSaved=  15.
 NSaved=15 IEnMin=15 EnMin= -2593.74315986650     IErMin=13 ErrMin= 1.16D-03
 ErrMax= 1.17D-03  0.00D+00 EMaxC= 1.00D+00 BMatC= 1.04D-04 BMatP= 1.24D-04
 IDIUse=1 WtCom= 1.00D+00 WtEn= 0.00D+00
 Coeff-Com:  0.994D-02-0.749D-02-0.744D-01-0.213D+00 0.112D+01-0.461D+00
 Coeff-Com: -0.809D+00 0.324D+00 0.655D+00-0.676D-01-0.130D+01 0.115D+01
 Coeff-Com: -0.964D+00-0.233D+01 0.397D+01
 Coeff:      0.994D-02-0.749D-02-0.744D-01-0.213D+00 0.112D+01-0.461D+00
 Coeff:     -0.809D+00 0.324D+00 0.655D+00-0.676D-01-0.130D+01 0.115D+01
 Coeff:     -0.964D+00-0.233D+01 0.397D+01
 Gap=     0.232 Goal=   None    Shift=    0.500
 Gap=     0.111 Goal=   None    Shift=    0.500
 GapD=    0.111 DampG=1.000 DampE=1.000 DampFc=1.0000 IDamp=-1.
 RMSDP=5.55D-05 MaxDP=8.61D-03 DE=-2.46D-04 OVMax= 1.85D-02

 Cycle  16  Pass 1  IDiag  1:
 E= -2593.74339126395     Delta-E=       -0.000231397453 Rises=F Damp=F
 DIIS: error= 1.22D-03 at cycle  16 NSaved=  16.
 NSaved=16 IEnMin=16 EnMin= -2593.74339126395     IErMin=13 ErrMin= 1.16D-03
 ErrMax= 1.22D-03  0.00D+00 EMaxC= 1.00D+00 BMatC= 1.21D-04 BMatP= 1.04D-04
 IDIUse=1 WtCom= 1.00D+00 WtEn= 0.00D+00
 Coeff-Com:  0.659D-02-0.787D-03-0.695D-01-0.210D+00 0.911D+00-0.263D+00
 Coeff-Com: -0.558D+00-0.431D-01 0.330D+00 0.524D+00-0.109D+01 0.112D+01
 Coeff-Com: -0.713D+00-0.370D+01 0.416D+01 0.596D+00
 Coeff:      0.659D-02-0.787D-03-0.695D-01-0.210D+00 0.911D+00-0.263D+00
 Coeff:     -0.558D+00-0.431D-01 0.330D+00 0.524D+00-0.109D+01 0.112D+01
 Coeff:     -0.713D+00-0.370D+01 0.416D+01 0.596D+00
 Gap=     0.232 Goal=   None    Shift=    0.500
 Gap=     0.111 Goal=   None    Shift=    0.500
 GapD=    0.111 DampG=1.000 DampE=1.000 DampFc=1.0000 IDamp=-1.
 RMSDP=3.88D-05 MaxDP=4.85D-03 DE=-2.31D-04 OVMax= 1.60D-02

 Cycle  17  Pass 1  IDiag  1:
 E= -2593.74357912947     Delta-E=       -0.000187865523 Rises=F Damp=F
 DIIS: error= 1.19D-03 at cycle  17 NSaved=  17.
 NSaved=17 IEnMin=17 EnMin= -2593.74357912947     IErMin=13 ErrMin= 1.16D-03
 ErrMax= 1.19D-03  0.00D+00 EMaxC= 1.00D+00 BMatC= 1.02D-04 BMatP= 1.04D-04
 IDIUse=1 WtCom= 1.00D+00 WtEn= 0.00D+00
 Coeff-Com:  0.697D-02-0.349D-02-0.326D-01-0.137D+00 0.208D+00 0.540D+00
 Coeff-Com: -0.473D+00-0.413D+00 0.145D+00 0.731D+00-0.640D+00 0.652D+00
 Coeff-Com:  0.422D+00-0.354D+01 0.239D+01-0.297D+01 0.411D+01
 Coeff:      0.697D-02-0.349D-02-0.326D-01-0.137D+00 0.208D+00 0.540D+00
 Coeff:     -0.473D+00-0.413D+00 0.145D+00 0.731D+00-0.640D+00 0.652D+00
 Coeff:      0.422D+00-0.354D+01 0.239D+01-0.297D+01 0.411D+01
 Gap=     0.232 Goal=   None    Shift=    0.500
 Gap=     0.112 Goal=   None    Shift=    0.500
 GapD=    0.112 DampG=1.000 DampE=1.000 DampFc=1.0000 IDamp=-1.
 RMSDP=6.10D-05 MaxDP=9.60D-03 DE=-1.88D-04 OVMax= 1.90D-02

 Cycle  18  Pass 1  IDiag  1:
 E= -2593.74376546191     Delta-E=       -0.000186332439 Rises=F Damp=F
 DIIS: error= 1.27D-03 at cycle  18 NSaved=  18.
 NSaved=18 IEnMin=18 EnMin= -2593.74376546191     IErMin=13 ErrMin= 1.16D-03
 ErrMax= 1.27D-03  0.00D+00 EMaxC= 1.00D+00 BMatC= 1.62D-04 BMatP= 1.02D-04
 IDIUse=1 WtCom= 1.00D+00 WtEn= 0.00D+00
 Coeff-Com:  0.749D-02-0.471D-02-0.214D-01-0.126D+00 0.227D+00 0.294D+00
 Coeff-Com: -0.264D+00-0.364D+00 0.296D+00 0.357D+00-0.945D+00 0.104D+01
 Coeff-Com:  0.486D+00-0.158D+01 0.114D+01-0.564D+01 0.524D+01 0.857D+00
 Coeff:      0.749D-02-0.471D-02-0.214D-01-0.126D+00 0.227D+00 0.294D+00
 Coeff:     -0.264D+00-0.364D+00 0.296D+00 0.357D+00-0.945D+00 0.104D+01
 Coeff:      0.486D+00-0.158D+01 0.114D+01-0.564D+01 0.524D+01 0.857D+00
 Gap=     0.231 Goal=   None    Shift=    0.500
 Gap=     0.112 Goal=   None    Shift=    0.500
 GapD=    0.112 DampG=1.000 DampE=1.000 DampFc=1.0000 IDamp=-1.
 RMSDP=4.74D-05 MaxDP=6.60D-03 DE=-1.86D-04 OVMax= 1.74D-02

 Cycle  19  Pass 1  IDiag  1:
 E= -2593.74393153523     Delta-E=       -0.000166073312 Rises=F Damp=F
 DIIS: error= 1.27D-03 at cycle  19 NSaved=  19.
 NSaved=19 IEnMin=19 EnMin= -2593.74393153523     IErMin=13 ErrMin= 1.16D-03
 ErrMax= 1.27D-03  0.00D+00 EMaxC= 1.00D+00 BMatC= 1.69D-04 BMatP= 1.02D-04
 IDIUse=1 WtCom= 1.00D+00 WtEn= 0.00D+00
 Coeff-Com:  0.689D-02-0.285D-02-0.334D-01-0.164D+00 0.527D+00-0.168D-01
 Coeff-Com: -0.386D+00-0.112D+00 0.492D+00-0.226D-01-0.108D+01 0.120D+01
 Coeff-Com:  0.134D+00-0.883D+00 0.118D+01-0.470D+01 0.436D+01-0.152D+01
 Coeff-Com:  0.201D+01
 Coeff:      0.689D-02-0.285D-02-0.334D-01-0.164D+00 0.527D+00-0.168D-01
 Coeff:     -0.386D+00-0.112D+00 0.492D+00-0.226D-01-0.108D+01 0.120D+01
 Coeff:      0.134D+00-0.883D+00 0.118D+01-0.470D+01 0.436D+01-0.152D+01
 Coeff:      0.201D+01
 Gap=     0.231 Goal=   None    Shift=    0.500
 Gap=     0.113 Goal=   None    Shift=    0.500
 GapD=    0.113 DampG=1.000 DampE=1.000 DampFc=1.0000 IDamp=-1.
 RMSDP=3.83D-05 MaxDP=4.69D-03 DE=-1.66D-04 OVMax= 1.57D-02

 Cycle  20  Pass 1  IDiag  1:
 E= -2593.74407831168     Delta-E=       -0.000146776456 Rises=F Damp=F
 DIIS: error= 1.21D-03 at cycle  20 NSaved=  20.
 NSaved=20 IEnMin=20 EnMin= -2593.74407831168     IErMin=13 ErrMin= 1.16D-03
 ErrMax= 1.21D-03  0.00D+00 EMaxC= 1.00D+00 BMatC= 1.40D-04 BMatP= 1.02D-04
 IDIUse=1 WtCom= 1.00D+00 WtEn= 0.00D+00
 Coeff-Com:  0.796D-02-0.899D-02-0.582D-01-0.131D+00 0.750D+00-0.132D+00
 Coeff-Com: -0.830D+00 0.336D+00 0.551D+00-0.341D+00-0.545D+00 0.569D+00
 Coeff-Com: -0.319D+00-0.141D+01 0.180D+01 0.137D+01-0.193D+00-0.377D+01
 Coeff-Com: -0.113D+01 0.449D+01
 Coeff:      0.796D-02-0.899D-02-0.582D-01-0.131D+00 0.750D+00-0.132D+00
 Coeff:     -0.830D+00 0.336D+00 0.551D+00-0.341D+00-0.545D+00 0.569D+00
 Coeff:     -0.319D+00-0.141D+01 0.180D+01 0.137D+01-0.193D+00-0.377D+01
 Coeff:     -0.113D+01 0.449D+01
 Gap=     0.231 Goal=   None    Shift=    0.500
 Gap=     0.114 Goal=   None    Shift=    0.500
 GapD=    0.114 DampG=1.000 DampE=1.000 DampFc=1.0000 IDamp=-1.
 RMSDP=5.74D-05 MaxDP=9.02D-03 DE=-1.47D-04 OVMax= 1.79D-02

 Cycle  21  Pass 1  IDiag  1:
 E= -2593.74421275120     Delta-E=       -0.000134439519 Rises=F Damp=F
 DIIS: error= 1.25D-03 at cycle  21 NSaved=  20.
 NSaved=20 IEnMin=20 EnMin= -2593.74421275120     IErMin=12 ErrMin= 1.16D-03
 ErrMax= 1.25D-03  0.00D+00 EMaxC= 1.00D+00 BMatC= 1.98D-04 BMatP= 1.02D-04
 IDIUse=1 WtCom= 1.00D+00 WtEn= 0.00D+00
 Coeff-Com:  0.173D-02-0.427D-01-0.108D+00 0.539D+00-0.511D-01-0.549D+00
 Coeff-Com:  0.900D-01 0.194D+00 0.287D+00-0.394D+00 0.446D+00-0.349D+00
 Coeff-Com: -0.296D+01 0.299D+01 0.266D+01-0.104D+01-0.232D+01-0.486D+01
 Coeff-Com:  0.490D+01 0.158D+01
 Coeff:      0.173D-02-0.427D-01-0.108D+00 0.539D+00-0.511D-01-0.549D+00
 Coeff:      0.900D-01 0.194D+00 0.287D+00-0.394D+00 0.446D+00-0.349D+00
 Coeff:     -0.296D+01 0.299D+01 0.266D+01-0.104D+01-0.232D+01-0.486D+01
 Coeff:      0.490D+01 0.158D+01
 Gap=     0.230 Goal=   None    Shift=    0.500
 Gap=     0.114 Goal=   None    Shift=    0.500
 GapD=    0.114 DampG=1.000 DampE=1.000 DampFc=1.0000 IDamp=-1.
 RMSDP=5.37D-05 MaxDP=8.18D-03 DE=-1.34D-04 OVMax= 1.76D-02

 Cycle  22  Pass 1  IDiag  1:
 E= -2593.74433547719     Delta-E=       -0.000122725991 Rises=F Damp=F
 DIIS: error= 1.27D-03 at cycle  22 NSaved=  20.
 NSaved=20 IEnMin=20 EnMin= -2593.74433547719     IErMin=11 ErrMin= 1.16D-03
 ErrMax= 1.27D-03  0.00D+00 EMaxC= 1.00D+00 BMatC= 2.43D-04 BMatP= 1.02D-04
 IDIUse=1 WtCom= 1.00D+00 WtEn= 0.00D+00
 Coeff-Com: -0.368D-01-0.110D+00 0.528D+00-0.573D-01-0.515D+00 0.625D-01
 Coeff-Com:  0.185D+00 0.362D+00-0.521D+00 0.555D+00-0.327D+00-0.309D+01
 Coeff-Com:  0.315D+01 0.215D+01-0.608D+00-0.190D+01-0.504D+01 0.458D+01
 Coeff-Com:  0.110D+01 0.536D+00
 Coeff:     -0.368D-01-0.110D+00 0.528D+00-0.573D-01-0.515D+00 0.625D-01
 Coeff:      0.185D+00 0.362D+00-0.521D+00 0.555D+00-0.327D+00-0.309D+01
 Coeff:      0.315D+01 0.215D+01-0.608D+00-0.190D+01-0.504D+01 0.458D+01
 Coeff:      0.110D+01 0.536D+00
 Gap=     0.230 Goal=   None    Shift=    0.500
 Gap=     0.115 Goal=   None    Shift=    0.500
 GapD=    0.115 DampG=1.000 DampE=1.000 DampFc=1.0000 IDamp=-1.
 RMSDP=3.40D-05 MaxDP=3.81D-03 DE=-1.23D-04 OVMax= 1.45D-02

 Cycle  23  Pass 1  IDiag  1:
 E= -2593.74445251963     Delta-E=       -0.000117042438 Rises=F Damp=F
 DIIS: error= 1.18D-03 at cycle  23 NSaved=  20.
 NSaved=20 IEnMin=20 EnMin= -2593.74445251963     IErMin=10 ErrMin= 1.16D-03
 ErrMax= 1.18D-03  0.00D+00 EMaxC= 1.00D+00 BMatC= 1.86D-04 BMatP= 1.02D-04
 IDIUse=1 WtCom= 1.00D+00 WtEn= 0.00D+00
 Coeff-Com: -0.666D-01-0.103D+00 0.844D+00-0.704D+00-0.162D+00-0.218D+00
 Coeff-Com:  0.855D+00 0.447D+00-0.861D+00 0.317D-01-0.196D+01 0.106D+01
 Coeff-Com:  0.175D+01-0.865D+00 0.358D+01-0.555D+01 0.115D+01 0.143D+01
 Coeff-Com: -0.681D+01 0.716D+01
 Coeff:     -0.666D-01-0.103D+00 0.844D+00-0.704D+00-0.162D+00-0.218D+00
 Coeff:      0.855D+00 0.447D+00-0.861D+00 0.317D-01-0.196D+01 0.106D+01
 Coeff:      0.175D+01-0.865D+00 0.358D+01-0.555D+01 0.115D+01 0.143D+01
 Coeff:     -0.681D+01 0.716D+01
 Gap=     0.230 Goal=   None    Shift=    0.500
 Gap=     0.115 Goal=   None    Shift=    0.500
 GapD=    0.115 DampG=1.000 DampE=1.000 DampFc=1.0000 IDamp=-1.
 RMSDP=6.76D-05 MaxDP=1.11D-02 DE=-1.17D-04 OVMax= 1.82D-02

 Cycle  24  Pass 1  IDiag  1:
 E= -2593.74453381075     Delta-E=       -0.000081291125 Rises=F Damp=F
 DIIS: error= 1.28D-03 at cycle  24 NSaved=  20.
 NSaved=20 IEnMin=20 EnMin= -2593.74453381075     IErMin= 9 ErrMin= 1.16D-03
 ErrMax= 1.28D-03  0.00D+00 EMaxC= 1.00D+00 BMatC= 3.38D-04 BMatP= 1.02D-04
 IDIUse=1 WtCom= 1.00D+00 WtEn= 0.00D+00
 Large coefficients: NSaved= 20 BigCof=   10.82 CofMax=   10.00 Det=-6.64D-08
 Inversion failed.  Reducing to 19 matrices.
 Large coefficients: NSaved= 19 BigCof=   10.59 CofMax=   10.00 Det=-6.68D-08
 Inversion failed.  Reducing to 18 matrices.
 Large coefficients: NSaved= 18 BigCof=   10.36 CofMax=   10.00 Det=-6.73D-08
 Inversion failed.  Reducing to 17 matrices.
 Large coefficients: NSaved= 17 BigCof=   10.49 CofMax=   10.00 Det=-6.75D-08
 Inversion failed.  Reducing to 16 matrices.
 Large coefficients: NSaved= 16 BigCof=   10.55 CofMax=   10.00 Det=-6.78D-08
 Inversion failed.  Reducing to 15 matrices.
 Coeff-Com:  0.198D+00-0.176D-01-0.281D+00-0.216D+00 0.209D+00-0.271D+00
 Coeff-Com:  0.884D-01-0.410D-01 0.261D+01-0.185D+01-0.489D+00 0.173D+01
 Coeff-Com: -0.987D+01 0.819D+01 0.102D+01
 Coeff:      0.198D+00-0.176D-01-0.281D+00-0.216D+00 0.209D+00-0.271D+00
 Coeff:      0.884D-01-0.410D-01 0.261D+01-0.185D+01-0.489D+00 0.173D+01
 Coeff:     -0.987D+01 0.819D+01 0.102D+01
 Gap=     0.229 Goal=   None    Shift=    0.500
 Gap=     0.115 Goal=   None    Shift=    0.500
 GapD=    0.115 DampG=1.000 DampE=1.000 DampFc=1.0000 IDamp=-1.
 RMSDP=4.71D-05 MaxDP=6.64D-03 DE=-8.13D-05 OVMax= 1.60D-02

 Cycle  25  Pass 1  IDiag  1:
 E= -2593.74462763040     Delta-E=       -0.000093819644 Rises=F Damp=F
 DIIS: error= 1.26D-03 at cycle  25 NSaved=  16.
 NSaved=16 IEnMin=16 EnMin= -2593.74462763040     IErMin= 4 ErrMin= 1.16D-03
 ErrMax= 1.26D-03  0.00D+00 EMaxC= 1.00D+00 BMatC= 3.50D-04 BMatP= 1.02D-04
 IDIUse=1 WtCom= 1.00D+00 WtEn= 0.00D+00
 Coeff-Com:  0.174D+00 0.219D-02-0.268D+00-0.161D+00 0.107D+00-0.293D+00
 Coeff-Com:  0.239D+00-0.119D+00 0.256D+01-0.184D+01-0.444D+00 0.185D+01
 Coeff-Com: -0.999D+01 0.815D+01 0.736D+00 0.284D+00
 Coeff:      0.174D+00 0.219D-02-0.268D+00-0.161D+00 0.107D+00-0.293D+00
 Coeff:      0.239D+00-0.119D+00 0.256D+01-0.184D+01-0.444D+00 0.185D+01
 Coeff:     -0.999D+01 0.815D+01 0.736D+00 0.284D+00
 Gap=     0.229 Goal=   None    Shift=    0.500
 Gap=     0.116 Goal=   None    Shift=    0.500
 RMSDP=2.98D-05 MaxDP=3.27D-03 DE=-9.38D-05 OVMax= 1.31D-02

 Cycle  26  Pass 1  IDiag  1:
 E= -2593.74472563445     Delta-E=       -0.000098004052 Rises=F Damp=F
 DIIS: error= 1.13D-03 at cycle  26 NSaved=  17.
 NSaved=17 IEnMin=17 EnMin= -2593.74472563445     IErMin=17 ErrMin= 1.13D-03
 ErrMax= 1.13D-03  0.00D+00 EMaxC= 1.00D+00 BMatC= 2.54D-04 BMatP= 1.02D-04
 IDIUse=1 WtCom= 1.00D+00 WtEn= 0.00D+00
 Large coefficients: NSaved= 17 BigCof=   13.74 CofMax=   10.00 Det=-2.73D-08
 Inversion failed.  Reducing to 16 matrices.
 Large coefficients: NSaved= 16 BigCof=   12.64 CofMax=   10.00 Det=-2.75D-08
 Inversion failed.  Reducing to 15 matrices.
 Large coefficients: NSaved= 15 BigCof=   12.42 CofMax=   10.00 Det=-3.12D-08
 Inversion failed.  Reducing to 14 matrices.
 Large coefficients: NSaved= 14 BigCof=   12.33 CofMax=   10.00 Det=-3.17D-08
 Inversion failed.  Reducing to 13 matrices.
 Large coefficients: NSaved= 13 BigCof=   12.01 CofMax=   10.00 Det=-3.48D-08
 Inversion failed.  Reducing to 12 matrices.
 Large coefficients: NSaved= 12 BigCof=   12.02 CofMax=   10.00 Det=-3.66D-08
 Inversion failed.  Reducing to 11 matrices.
 Large coefficients: NSaved= 11 BigCof=   11.59 CofMax=   10.00 Det=-3.74D-08
 Inversion failed.  Reducing to 10 matrices.
 Large coefficients: NSaved= 10 BigCof=   11.55 CofMax=   10.00 Det=-3.83D-08
 Inversion failed.  Reducing to  9 matrices.
 Coeff-Com:  0.603D+00-0.146D+01 0.234D+00-0.108D-01 0.288D+01-0.232D+01
 Coeff-Com:  0.232D+01-0.971D+01 0.846D+01
 Coeff:      0.603D+00-0.146D+01 0.234D+00-0.108D-01 0.288D+01-0.232D+01
 Coeff:      0.232D+01-0.971D+01 0.846D+01
 Gap=     0.229 Goal=   None    Shift=    0.500
 Gap=     0.116 Goal=   None    Shift=    0.500
 GapD=    0.116 DampG=1.000 DampE=1.000 DampFc=1.0000 IDamp=-1.
 RMSDP=4.14D-05 MaxDP=5.96D-03 DE=-9.80D-05 OVMax= 1.35D-02

 Cycle  27  Pass 1  IDiag  1:
 E= -2593.74478981197     Delta-E=       -0.000064177517 Rises=F Damp=F
 DIIS: error= 1.12D-03 at cycle  27 NSaved=  10.
 NSaved=10 IEnMin=10 EnMin= -2593.74478981197     IErMin=10 ErrMin= 1.12D-03
 ErrMax= 1.12D-03  0.00D+00 EMaxC= 1.00D+00 BMatC= 2.88D-04 BMatP= 1.40D-04
 IDIUse=1 WtCom= 1.00D+00 WtEn= 0.00D+00
 Large coefficients: NSaved= 10 BigCof=   15.03 CofMax=   10.00 Det=-3.07D-08
 Inversion failed.  Reducing to  9 matrices.
 Large coefficients: NSaved=  9 BigCof=   15.25 CofMax=   10.00 Det=-3.07D-08
 Inversion failed.  Reducing to  8 matrices.
 Large coefficients: NSaved=  8 BigCof=   15.13 CofMax=   10.00 Det=-3.45D-08
 Inversion failed.  Reducing to  7 matrices.
 Large coefficients: NSaved=  7 BigCof=   13.41 CofMax=   10.00 Det=-3.69D-08
 Inversion failed.  Reducing to  6 matrices.
 Large coefficients: NSaved=  6 BigCof=   10.58 CofMax=   10.00 Det=-1.23D-07
 Inversion failed.  Reducing to  5 matrices.
 Coeff-Com: -0.322D+00 0.210D+01-0.794D+01 0.634D+01 0.819D+00
 Coeff:     -0.322D+00 0.210D+01-0.794D+01 0.634D+01 0.819D+00
 Gap=     0.229 Goal=   None    Shift=    0.500
 Gap=     0.117 Goal=   None    Shift=    0.500
 GapD=    0.117 DampG=1.000 DampE=1.000 DampFc=1.0000 IDamp=-1.
 RMSDP=3.95D-05 MaxDP=5.48D-03 DE=-6.42D-05 OVMax= 1.31D-02

 Cycle  28  Pass 1  IDiag  1:
 E= -2593.74485199509     Delta-E=       -0.000062183122 Rises=F Damp=F
 DIIS: error= 1.09D-03 at cycle  28 NSaved=   6.
 NSaved= 6 IEnMin= 6 EnMin= -2593.74485199509     IErMin= 6 ErrMin= 1.09D-03
 ErrMax= 1.09D-03  0.00D+00 EMaxC= 1.00D+00 BMatC= 2.90D-04 BMatP= 1.86D-04
 IDIUse=1 WtCom= 1.00D+00 WtEn= 0.00D+00
 Coeff-Com: -0.222D+00 0.228D+01-0.841D+01 0.570D+01-0.319D+00 0.197D+01
 Coeff:     -0.222D+00 0.228D+01-0.841D+01 0.570D+01-0.319D+00 0.197D+01
 Gap=     0.228 Goal=   None    Shift=    0.500
 Gap=     0.118 Goal=   None    Shift=    0.500
 GapD=    0.118 DampG=1.000 DampE=1.000 DampFc=1.0000 IDamp=-1.
 RMSDP=6.35D-05 MaxDP=1.00D-02 DE=-6.22D-05 OVMax= 1.61D-02

 Cycle  29  Pass 1  IDiag  1:
 E= -2593.74487385448     Delta-E=       -0.000021859394 Rises=F Damp=F
 DIIS: error= 1.18D-03 at cycle  29 NSaved=   7.
 NSaved= 7 IEnMin= 7 EnMin= -2593.74487385448     IErMin= 6 ErrMin= 1.09D-03
 ErrMax= 1.18D-03  0.00D+00 EMaxC= 1.00D+00 BMatC= 4.71D-04 BMatP= 1.86D-04
 IDIUse=1 WtCom= 1.00D+00 WtEn= 0.00D+00
 Large coefficients: NSaved=  7 BigCof=   10.22 CofMax=   10.00 Det=-1.43D-07
 Inversion failed.  Reducing to  6 matrices.
 Coeff-Com:  0.264D+01-0.990D+01 0.666D+01-0.418D+00 0.119D+01 0.831D+00
 Coeff:      0.264D+01-0.990D+01 0.666D+01-0.418D+00 0.119D+01 0.831D+00
 Gap=     0.228 Goal=   None    Shift=    0.500
 Gap=     0.118 Goal=   None    Shift=    0.500
 GapD=    0.118 DampG=1.000 DampE=1.000 DampFc=1.0000 IDamp=-1.
 RMSDP=4.82D-05 MaxDP=6.69D-03 DE=-2.19D-05 OVMax= 1.49D-02

 Cycle  30  Pass 1  IDiag  1:
 E= -2593.74491635555     Delta-E=       -0.000042501070 Rises=F Damp=F
 DIIS: error= 1.17D-03 at cycle  30 NSaved=   7.
 NSaved= 7 IEnMin= 7 EnMin= -2593.74491635555     IErMin= 5 ErrMin= 1.09D-03
 ErrMax= 1.17D-03  0.00D+00 EMaxC= 1.00D+00 BMatC= 5.16D-04 BMatP= 2.54D-04
 IDIUse=1 WtCom= 1.00D+00 WtEn= 0.00D+00
 Coeff-Com:  0.183D+01-0.881D+01 0.566D+01-0.920D+00 0.228D+01 0.368D+01
 Coeff-Com: -0.272D+01
 Coeff:      0.183D+01-0.881D+01 0.566D+01-0.920D+00 0.228D+01 0.368D+01
 Coeff:     -0.272D+01
 Gap=     0.228 Goal=   None    Shift=    0.500
 Gap=     0.119 Goal=   None    Shift=    0.500
 GapD=    0.119 DampG=1.000 DampE=1.000 DampFc=1.0000 IDamp=-1.
 RMSDP=2.43D-05 MaxDP=3.03D-03 DE=-4.25D-05 OVMax= 1.12D-02

 Cycle  31  Pass 1  IDiag  1:
 E= -2593.74499416406     Delta-E=       -0.000077808504 Rises=F Damp=F
 DIIS: error= 1.02D-03 at cycle  31 NSaved=   8.
 NSaved= 8 IEnMin= 8 EnMin= -2593.74499416406     IErMin= 8 ErrMin= 1.02D-03
 ErrMax= 1.02D-03  0.00D+00 EMaxC= 1.00D+00 BMatC= 3.58D-04 BMatP= 2.54D-04
 IDIUse=1 WtCom= 1.00D+00 WtEn= 0.00D+00
 Coeff-Com:  0.107D+01-0.657D+01 0.371D+01-0.103D+01 0.254D+01 0.569D+01
 Coeff-Com: -0.567D+01 0.126D+01
 Coeff:      0.107D+01-0.657D+01 0.371D+01-0.103D+01 0.254D+01 0.569D+01
 Coeff:     -0.567D+01 0.126D+01
 Gap=     0.228 Goal=   None    Shift=    0.500
 Gap=     0.119 Goal=   None    Shift=    0.500
 GapD=    0.119 DampG=1.000 DampE=1.000 DampFc=1.0000 IDamp=-1.
 RMSDP=1.75D-05 MaxDP=2.38D-03 DE=-7.78D-05 OVMax= 8.86D-03

 Cycle  32  Pass 1  IDiag  1:
 E= -2593.74505671557     Delta-E=       -0.000062551514 Rises=F Damp=F
 DIIS: error= 8.53D-04 at cycle  32 NSaved=   9.
 NSaved= 9 IEnMin= 9 EnMin= -2593.74505671557     IErMin= 9 ErrMin= 8.53D-04
 ErrMax= 8.53D-04  0.00D+00 EMaxC= 1.00D+00 BMatC= 2.28D-04 BMatP= 2.54D-04
 IDIUse=1 WtCom= 1.00D+00 WtEn= 0.00D+00
 Coeff-Com:  0.419D-01-0.300D+00-0.111D+01-0.193D+00 0.757D+00 0.415D+01
 Coeff-Com: -0.439D+01-0.213D+01 0.416D+01
 Coeff:      0.419D-01-0.300D+00-0.111D+01-0.193D+00 0.757D+00 0.415D+01
 Coeff:     -0.439D+01-0.213D+01 0.416D+01
 Gap=     0.228 Goal=   None    Shift=    0.500
 Gap=     0.118 Goal=   None    Shift=    0.500
 RMSDP=2.62D-05 MaxDP=3.31D-03 DE=-6.26D-05 OVMax= 8.93D-03

 >>>>>>>>>> Convergence criterion not met.
 SCF Done:  E(ULC-wHPBE) =  -2593.74505672     A.U. after   33 cycles
            NFock= 32  Conv=0.26D-04     -V/T= 2.0038
 <Sx>= 0.0000 <Sy>= 0.0000 <Sz>= 0.5000 <S**2>= 0.7625 S= 0.5062
 <L.S>= 0.000000000000E+00
 KE= 2.583996052508D+03 PE=-1.660463872977D+04 EE= 6.149173955257D+03
 Annihilation of the first spin contaminant:
 S**2 before annihilation     0.7625,   after     0.7501
 Leave Link  502 at Thu Jan 21 21:14:24 2021, MaxMem=  4026531840 cpu:           32557.7 elap:            4253.3
 (Enter /opt/ohpc/pub/libs/gaussian/g16-A.03/sandybridge/g16/l508.exe)
 Integral symmetry usage will be decided dynamically.
 Tight linear equation convergence will be used.
 ULC-wHPBE wavefunction.
 Quadratic Convergence SCF Method.
 Line search only if initial step raises energy.
 FoFJK:  IHMeth= 1 ICntrl=       0 DoSepK=T KAlg= 0 I1Cent=           0 FoldK=F
 IRaf=         1 NMat=       1 IRICut=       1 DoRegI=T DoRafI=F ISym2E= 1 IDoP0=0 IntGTp=1.
 FoFCou: FMM=T IPFlag=           0 FMFlag=      100000 FMFlg1=        2001
         NFxFlg=           0 DoJE=T BraDBF=F KetDBF=F FulRan=T
         wScrn=  0.000000 ICntrl=       500 IOpCl=  0 I1Cent=           0 NGrid=           0
         NMat0=    1 NMatS0=      1 NMatT0=    0 NMatD0=    1 NMtDS0=    0 NMtDT0=    0
 Petite list used in FoFCou.
 FMM levels:  10  Number of levels for PrismC:   9
 Iteration   1 EE= -2593.74508202930                                    Grad=1.078D-02 Max rot=    0.1811 deg.
 Gradient too large for Newton-Raphson -- use scaled steepest descent instead.
     ILin= 1 X=0.000D+00 Y=-2.593745082029D+03 DE= 0.00D+00 F= -2.00D-04
     ILin= 2 X=3.000D-01 Y=-2.593745129106D+03 DE=-4.71D-05 F= -1.14D-04
     ILin= 3 X=6.000D-01 Y=-2.593745150182D+03 DE=-6.82D-05 F= -2.69D-05
     ILin= 4 X=1.200D+00 Y=-2.593745114346D+03 DE=-3.23D-05 F=  1.46D-04
     An  expanding polynomial of degree  4 produced  0.6932
 Iteration   2 EE= -2593.74515143644     Delta-E=       -0.000069407134 Grad=3.085D-03 Max rot=    0.0517 deg.
 QCNR:  CnvC1=3.09D-08 CnvC2=3.09D-07
 LinEq1:  Iter=  0 NonCon=     1 RMS=2.11D-05 Max=7.55D-03 NDo=     1
 AX will form     1 AO Fock derivatives at one time.
 LinEq1:  Iter=  1 NonCon=     1 RMS=9.56D-06 Max=1.47D-03 NDo=     1
 LinEq1:  Iter=  2 NonCon=     1 RMS=6.98D-06 Max=8.07D-04 NDo=     1
 LinEq1:  Iter=  3 NonCon=     1 RMS=5.09D-06 Max=5.88D-04 NDo=     1
 LinEq1:  Iter=  4 NonCon=     1 RMS=5.30D-06 Max=1.12D-03 NDo=     1
 LinEq1:  Iter=  5 NonCon=     1 RMS=4.17D-06 Max=5.50D-04 NDo=     1
 LinEq1:  Iter=  6 NonCon=     1 RMS=3.34D-06 Max=5.65D-04 NDo=     1
 LinEq1:  Iter=  7 NonCon=     1 RMS=2.11D-06 Max=2.15D-04 NDo=     1
 LinEq1:  Iter=  8 NonCon=     1 RMS=1.25D-06 Max=1.14D-04 NDo=     1
 LinEq1:  Iter=  9 NonCon=     1 RMS=7.37D-07 Max=7.40D-05 NDo=     1
 LinEq1:  Iter= 10 NonCon=     1 RMS=4.91D-07 Max=4.02D-05 NDo=     1
 LinEq1:  Iter= 11 NonCon=     1 RMS=3.21D-07 Max=2.78D-05 NDo=     1
 LinEq1:  Iter= 12 NonCon=     1 RMS=2.26D-07 Max=2.82D-05 NDo=     1
 LinEq1:  Iter= 13 NonCon=     1 RMS=1.46D-07 Max=1.62D-05 NDo=     1
 LinEq1:  Iter= 14 NonCon=     1 RMS=9.23D-08 Max=1.05D-05 NDo=     1
 LinEq1:  Iter= 15 NonCon=     1 RMS=6.00D-08 Max=5.02D-06 NDo=     1
 LinEq1:  Iter= 16 NonCon=     1 RMS=3.09D-08 Max=3.28D-06 NDo=     1
 LinEq1:  Iter= 17 NonCon=     1 RMS=1.85D-08 Max=1.45D-06 NDo=     1
 LinEq1:  Iter= 18 NonCon=     1 RMS=1.08D-08 Max=1.18D-06 NDo=     1
 LinEq1:  Iter= 19 NonCon=     1 RMS=5.77D-09 Max=7.58D-07 NDo=     1
 LinEq1:  Iter= 20 NonCon=     1 RMS=3.32D-09 Max=3.70D-07 NDo=     1
 LinEq1:  Iter= 21 NonCon=     0 RMS=1.98D-09 Max=2.20D-07 NDo=     1
 Linear equations converged to 3.085D-08 3.085D-07 after    21 iterations.
 Angle between quadratic step and gradient=  67.14 degrees.
     ILin= 1 X=0.000D+00 Y=-2.593745151436D+03 DE= 0.00D+00 F= -2.17D-04
     ILin= 2 X=1.000D+00 Y=-2.593745263424D+03 DE=-1.12D-04
 Iteration   3 EE= -2593.74526342448     Delta-E=       -0.000111988039 Grad=3.478D-04 Max rot=    0.0024 deg.
 Rotation gradient small -- convergence achieved.
 SCF Done:  E(ULC-wHPBE) =  -2593.74526342     a.u. after    3 cycles
            Convg  =    0.3478D-03                    27 Fock formations.
              S**2 =  0.7618                  -V/T =  2.0038
 <Sx>= 0.0000 <Sy>= 0.0000 <Sz>= 0.5000 <S**2>= 0.7618 S= 0.5059
 <L.S>= 0.000000000000E+00
 Annihilation of the first spin contaminant:
 S**2 before annihilation     0.7618,   after     0.7501
 Leave Link  508 at Thu Jan 21 22:02:44 2021, MaxMem=  4026531840 cpu:           22849.4 elap:            2899.5
 (Enter /opt/ohpc/pub/libs/gaussian/g16-A.03/sandybridge/g16/l601.exe)
 Copying SCF densities to generalized density rwf, IOpCl= 1 IROHF=0.

 **********************************************************************

            Population analysis using the SCF density.

 **********************************************************************

 Orbital symmetries:
 Alpha Orbitals:
       Occupied  (A) (A) (A) (A) (A) (A) (A) (A) (A) (A) (A) (A)
                 (A) (A) (A) (A) (A) (A) (A) (A) (A) (A) (A) (A)
                 (A) (A) (A) (A) (A) (A) (A) (A) (A) (A) (A) (A)
                 (A) (A) (A) (A) (A) (A) (A) (A) (A) (A) (A) (A)
                 (A) (A) (A) (A) (A) (A) (A) (A) (A) (A) (A) (A)
                 (A) (A) (A) (A) (A) (A) (A) (A) (A) (A) (A) (A)
                 (A) (A) (A) (A) (A) (A) (A) (A) (A) (A) (A) (A)
                 (A) (A) (A) (A) (A) (A) (A) (A) (A) (A) (A) (A)
                 (A) (A) (A) (A) (A) (A) (A) (A) (A) (A) (A) (A)
                 (A) (A) (A) (A) (A) (A) (A) (A) (A) (A) (A) (A)
                 (A) (A) (A) (A) (A) (A) (A) (A) (A) (A) (A) (A)
                 (A) (A) (A) (A) (A) (A) (A) (A) (A) (A) (A) (A)
                 (A) (A) (A) (A) (A) (A) (A) (A) (A) (A) (A) (A)
                 (A) (A) (A) (A) (A)
       Virtual   (A) (A) (A) (A) (A) (A) (A) (A) (A) (A) (A) (A)
                 (A) (A) (A) (A) (A) (A) (A) (A) (A) (A) (A) (A)
                 (A) (A) (A) (A) (A) (A) (A) (A) (A) (A) (A) (A)
                 (A) (A) (A) (A) (A) (A) (A) (A) (A) (A) (A) (A)
                 (A) (A) (A) (A) (A) (A) (A) (A) (A) (A) (A) (A)
                 (A) (A) (A) (A) (A) (A) (A) (A) (A) (A) (A) (A)
                 (A) (A) (A) (A) (A) (A) (A) (A) (A) (A) (A) (A)
                 (A) (A) (A) (A) (A) (A) (A) (A) (A) (A) (A) (A)
                 (A) (A) (A) (A) (A) (A) (A) (A) (A) (A) (A) (A)
                 (A) (A) (A) (A) (A) (A) (A) (A) (A) (A) (A) (A)
                 (A) (A) (A) (A) (A) (A) (A) (A) (A) (A) (A) (A)
                 (A) (A) (A) (A) (A) (A) (A) (A) (A) (A) (A) (A)
                 (A) (A) (A) (A) (A) (A) (A) (A) (A) (A) (A) (A)
                 (A) (A) (A) (A) (A) (A) (A) (A) (A) (A) (A) (A)
                 (A) (A) (A) (A) (A) (A) (A) (A) (A) (A) (A) (A)
                 (A) (A) (A) (A) (A) (A) (A) (A) (A) (A) (A) (A)
                 (A) (A) (A) (A) (A) (A) (A) (A) (A) (A) (A) (A)
                 (A) (A) (A) (A) (A) (A) (A) (A) (A) (A) (A) (A)
                 (A) (A) (A) (A) (A) (A) (A) (A) (A) (A) (A) (A)
                 (A) (A) (A) (A) (A) (A) (A) (A) (A) (A) (A) (A)
                 (A) (A) (A) (A) (A) (A) (A) (A) (A) (A) (A) (A)
                 (A) (A) (A) (A) (A) (A) (A) (A) (A) (A) (A) (A)
                 (A) (A) (A) (A) (A) (A) (A) (A) (A) (A) (A) (A)
                 (A) (A) (A) (A) (A) (A) (A) (A) (A) (A) (A) (A)
                 (A) (A) (A) (A) (A) (A) (A) (A) (A) (A) (A) (A)
                 (A) (A) (A) (A) (A) (A) (A) (A) (A) (A) (A) (A)
                 (A) (A) (A) (A) (A) (A) (A) (A) (A) (A) (A) (A)
                 (A) (A) (A) (A) (A) (A) (A) (A) (A) (A) (A) (A)
                 (A) (A) (A) (A) (A) (A) (A) (A) (A) (A) (A) (A)
                 (A) (A) (A) (A) (A) (A) (A) (A) (A) (A) (A) (A)
                 (A) (A) (A) (A) (A) (A) (A) (A) (A) (A) (A) (A)
                 (A) (A) (A) (A) (A) (A) (A) (A) (A) (A) (A) (A)
                 (A) (A) (A) (A) (A) (A) (A) (A) (A) (A) (A) (A)
                 (A) (A) (A) (A) (A) (A) (A) (A) (A) (A) (A) (A)
                 (A) (A) (A) (A) (A) (A) (A) (A) (A) (A) (A) (A)
                 (A) (A) (A) (A) (A) (A) (A) (A) (A) (A) (A) (A)
                 (A) (A) (A) (A) (A) (A) (A) (A) (A) (A) (A) (A)
                 (A) (A) (A) (A) (A) (A) (A) (A) (A) (A) (A) (A)
                 (A) (A) (A) (A) (A) (A) (A) (A) (A) (A) (A) (A)
                 (A) (A) (A) (A) (A) (A) (A) (A) (A) (A) (A) (A)
                 (A) (A) (A) (A) (A) (A) (A) (A) (A) (A) (A) (A)
                 (A) (A) (A) (A) (A) (A) (A) (A) (A) (A) (A) (A)
                 (A) (A) (A) (A) (A) (A) (A) (A) (A) (A) (A) (A)
                 (A) (A) (A) (A) (A) (A) (A) (A) (A) (A) (A) (A)
                 (A) (A) (A) (A) (A) (A) (A) (A) (A) (A) (A) (A)
                 (A) (A) (A) (A) (A) (A) (A) (A) (A) (A) (A) (A)
                 (A) (A) (A) (A) (A) (A) (A) (A) (A) (A) (A) (A)
                 (A) (A) (A) (A) (A) (A) (A) (A) (A) (A) (A) (A)
                 (A) (A) (A) (A) (A) (A) (A) (A) (A) (A) (A) (A)
                 (A) (A) (A) (A) (A) (A) (A) (A) (A) (A) (A) (A)
                 (A) (A) (A) (A) (A) (A) (A) (A) (A) (A) (A) (A)
                 (A) (A) (A) (A) (A) (A) (A) (A) (A) (A) (A) (A)
                 (A) (A) (A) (A) (A) (A) (A) (A) (A) (A) (A) (A)
                 (A) (A) (A) (A) (A) (A) (A) (A) (A) (A) (A) (A)
                 (A) (A) (A) (A) (A) (A) (A) (A) (A) (A) (A) (A)
                 (A) (A) (A) (A) (A) (A) (A) (A) (A) (A) (A) (A)
                 (A) (A) (A) (A) (A) (A) (A) (A) (A) (A) (A) (A)
                 (A) (A) (A) (A) (A) (A) (A) (A) (A) (A) (A) (A)
                 (A) (A) (A) (A) (A) (A) (A) (A) (A) (A) (A) (A)
                 (A) (A) (A) (A) (A) (A) (A) (A) (A) (A) (A) (A)
                 (A) (A) (A) (A) (A) (A) (A) (A) (A) (A) (A) (A)
                 (A) (A) (A) (A) (A) (A) (A) (A) (A) (A) (A) (A)
                 (A) (A) (A) (A) (A) (A) (A) (A) (A) (A) (A) (A)
                 (A) (A) (A) (A) (A) (A) (A) (A) (A) (A) (A) (A)
                 (A) (A) (A) (A) (A) (A) (A) (A) (A) (A) (A) (A)
                 (A) (A) (A) (A) (A) (A) (A) (A) (A) (A) (A) (A)
                 (A) (A) (A) (A) (A) (A) (A) (A) (A) (A) (A) (A)
                 (A) (A) (A) (A) (A) (A) (A) (A) (A) (A) (A) (A)
                 (A) (A) (A) (A) (A) (A) (A) (A) (A) (A) (A) (A)
                 (A) (A) (A) (A) (A) (A) (A) (A) (A) (A) (A) (A)
                 (A) (A) (A) (A) (A) (A) (A) (A) (A)
 Beta  Orbitals:
       Occupied  (A) (A) (A) (A) (A) (A) (A) (A) (A) (A) (A) (A)
                 (A) (A) (A) (A) (A) (A) (A) (A) (A) (A) (A) (A)
                 (A) (A) (A) (A) (A) (A) (A) (A) (A) (A) (A) (A)
                 (A) (A) (A) (A) (A) (A) (A) (A) (A) (A) (A) (A)
                 (A) (A) (A) (A) (A) (A) (A) (A) (A) (A) (A) (A)
                 (A) (A) (A) (A) (A) (A) (A) (A) (A) (A) (A) (A)
                 (A) (A) (A) (A) (A) (A) (A) (A) (A) (A) (A) (A)
                 (A) (A) (A) (A) (A) (A) (A) (A) (A) (A) (A) (A)
                 (A) (A) (A) (A) (A) (A) (A) (A) (A) (A) (A) (A)
                 (A) (A) (A) (A) (A) (A) (A) (A) (A) (A) (A) (A)
                 (A) (A) (A) (A) (A) (A) (A) (A) (A) (A) (A) (A)
                 (A) (A) (A) (A) (A) (A) (A) (A) (A) (A) (A) (A)
                 (A) (A) (A) (A) (A) (A) (A) (A) (A) (A) (A) (A)
                 (A) (A) (A) (A)
       Virtual   (A) (A) (A) (A) (A) (A) (A) (A) (A) (A) (A) (A)
                 (A) (A) (A) (A) (A) (A) (A) (A) (A) (A) (A) (A)
                 (A) (A) (A) (A) (A) (A) (A) (A) (A) (A) (A) (A)
                 (A) (A) (A) (A) (A) (A) (A) (A) (A) (A) (A) (A)
                 (A) (A) (A) (A) (A) (A) (A) (A) (A) (A) (A) (A)
                 (A) (A) (A) (A) (A) (A) (A) (A) (A) (A) (A) (A)
                 (A) (A) (A) (A) (A) (A) (A) (A) (A) (A) (A) (A)
                 (A) (A) (A) (A) (A) (A) (A) (A) (A) (A) (A) (A)
                 (A) (A) (A) (A) (A) (A) (A) (A) (A) (A) (A) (A)
                 (A) (A) (A) (A) (A) (A) (A) (A) (A) (A) (A) (A)
                 (A) (A) (A) (A) (A) (A) (A) (A) (A) (A) (A) (A)
                 (A) (A) (A) (A) (A) (A) (A) (A) (A) (A) (A) (A)
                 (A) (A) (A) (A) (A) (A) (A) (A) (A) (A) (A) (A)
                 (A) (A) (A) (A) (A) (A) (A) (A) (A) (A) (A) (A)
                 (A) (A) (A) (A) (A) (A) (A) (A) (A) (A) (A) (A)
                 (A) (A) (A) (A) (A) (A) (A) (A) (A) (A) (A) (A)
                 (A) (A) (A) (A) (A) (A) (A) (A) (A) (A) (A) (A)
                 (A) (A) (A) (A) (A) (A) (A) (A) (A) (A) (A) (A)
                 (A) (A) (A) (A) (A) (A) (A) (A) (A) (A) (A) (A)
                 (A) (A) (A) (A) (A) (A) (A) (A) (A) (A) (A) (A)
                 (A) (A) (A) (A) (A) (A) (A) (A) (A) (A) (A) (A)
                 (A) (A) (A) (A) (A) (A) (A) (A) (A) (A) (A) (A)
                 (A) (A) (A) (A) (A) (A) (A) (A) (A) (A) (A) (A)
                 (A) (A) (A) (A) (A) (A) (A) (A) (A) (A) (A) (A)
                 (A) (A) (A) (A) (A) (A) (A) (A) (A) (A) (A) (A)
                 (A) (A) (A) (A) (A) (A) (A) (A) (A) (A) (A) (A)
                 (A) (A) (A) (A) (A) (A) (A) (A) (A) (A) (A) (A)
                 (A) (A) (A) (A) (A) (A) (A) (A) (A) (A) (A) (A)
                 (A) (A) (A) (A) (A) (A) (A) (A) (A) (A) (A) (A)
                 (A) (A) (A) (A) (A) (A) (A) (A) (A) (A) (A) (A)
                 (A) (A) (A) (A) (A) (A) (A) (A) (A) (A) (A) (A)
                 (A) (A) (A) (A) (A) (A) (A) (A) (A) (A) (A) (A)
                 (A) (A) (A) (A) (A) (A) (A) (A) (A) (A) (A) (A)
                 (A) (A) (A) (A) (A) (A) (A) (A) (A) (A) (A) (A)
                 (A) (A) (A) (A) (A) (A) (A) (A) (A) (A) (A) (A)
                 (A) (A) (A) (A) (A) (A) (A) (A) (A) (A) (A) (A)
                 (A) (A) (A) (A) (A) (A) (A) (A) (A) (A) (A) (A)
                 (A) (A) (A) (A) (A) (A) (A) (A) (A) (A) (A) (A)
                 (A) (A) (A) (A) (A) (A) (A) (A) (A) (A) (A) (A)
                 (A) (A) (A) (A) (A) (A) (A) (A) (A) (A) (A) (A)
                 (A) (A) (A) (A) (A) (A) (A) (A) (A) (A) (A) (A)
                 (A) (A) (A) (A) (A) (A) (A) (A) (A) (A) (A) (A)
                 (A) (A) (A) (A) (A) (A) (A) (A) (A) (A) (A) (A)
                 (A) (A) (A) (A) (A) (A) (A) (A) (A) (A) (A) (A)
                 (A) (A) (A) (A) (A) (A) (A) (A) (A) (A) (A) (A)
                 (A) (A) (A) (A) (A) (A) (A) (A) (A) (A) (A) (A)
                 (A) (A) (A) (A) (A) (A) (A) (A) (A) (A) (A) (A)
                 (A) (A) (A) (A) (A) (A) (A) (A) (A) (A) (A) (A)
                 (A) (A) (A) (A) (A) (A) (A) (A) (A) (A) (A) (A)
                 (A) (A) (A) (A) (A) (A) (A) (A) (A) (A) (A) (A)
                 (A) (A) (A) (A) (A) (A) (A) (A) (A) (A) (A) (A)
                 (A) (A) (A) (A) (A) (A) (A) (A) (A) (A) (A) (A)
                 (A) (A) (A) (A) (A) (A) (A) (A) (A) (A) (A) (A)
                 (A) (A) (A) (A) (A) (A) (A) (A) (A) (A) (A) (A)
                 (A) (A) (A) (A) (A) (A) (A) (A) (A) (A) (A) (A)
                 (A) (A) (A) (A) (A) (A) (A) (A) (A) (A) (A) (A)
                 (A) (A) (A) (A) (A) (A) (A) (A) (A) (A) (A) (A)
                 (A) (A) (A) (A) (A) (A) (A) (A) (A) (A) (A) (A)
                 (A) (A) (A) (A) (A) (A) (A) (A) (A) (A) (A) (A)
                 (A) (A) (A) (A) (A) (A) (A) (A) (A) (A) (A) (A)
                 (A) (A) (A) (A) (A) (A) (A) (A) (A) (A) (A) (A)
                 (A) (A) (A) (A) (A) (A) (A) (A) (A) (A) (A) (A)
                 (A) (A) (A) (A) (A) (A) (A) (A) (A) (A) (A) (A)
                 (A) (A) (A) (A) (A) (A) (A) (A) (A) (A) (A) (A)
                 (A) (A) (A) (A) (A) (A) (A) (A) (A) (A) (A) (A)
                 (A) (A) (A) (A) (A) (A) (A) (A) (A) (A) (A) (A)
                 (A) (A) (A) (A) (A) (A) (A) (A) (A) (A) (A) (A)
                 (A) (A) (A) (A) (A) (A) (A) (A) (A) (A) (A) (A)
                 (A) (A) (A) (A) (A) (A) (A) (A) (A) (A) (A) (A)
                 (A) (A) (A) (A) (A) (A) (A) (A) (A) (A) (A) (A)
                 (A) (A) (A) (A) (A) (A) (A) (A) (A) (A)
 The electronic state is 2-A.
 Alpha  occ. eigenvalues --  -88.38645 -88.30192 -18.97046 -18.96642 -18.96600
 Alpha  occ. eigenvalues --  -18.95305 -14.24932 -14.21335 -10.14888 -10.14641
 Alpha  occ. eigenvalues --  -10.14611 -10.14259 -10.13837 -10.13756 -10.13056
 Alpha  occ. eigenvalues --  -10.12948 -10.12451 -10.12353 -10.12238 -10.11514
 Alpha  occ. eigenvalues --  -10.10796 -10.10375 -10.10292 -10.10089 -10.10058
 Alpha  occ. eigenvalues --  -10.09832 -10.09629 -10.09063 -10.08833 -10.08724
 Alpha  occ. eigenvalues --  -10.08660 -10.08585 -10.08272 -10.08125 -10.07821
 Alpha  occ. eigenvalues --  -10.07556 -10.07333 -10.07290 -10.07241 -10.07126
 Alpha  occ. eigenvalues --  -10.06828 -10.06823 -10.06722 -10.06040  -7.97667
 Alpha  occ. eigenvalues --   -7.89405  -5.99607  -5.99505  -5.98924  -5.91596
 Alpha  occ. eigenvalues --   -5.91159  -5.90429  -1.16733  -1.16330  -1.16249
 Alpha  occ. eigenvalues --   -1.15194  -1.11081  -1.08756  -1.03570  -1.00888
 Alpha  occ. eigenvalues --   -0.98844  -0.97878  -0.97309  -0.96806  -0.95767
 Alpha  occ. eigenvalues --   -0.92758  -0.90605  -0.89984  -0.88736  -0.88449
 Alpha  occ. eigenvalues --   -0.87963  -0.87823  -0.87381  -0.86898  -0.86405
 Alpha  occ. eigenvalues --   -0.86136  -0.84194  -0.82340  -0.78297  -0.78040
 Alpha  occ. eigenvalues --   -0.76973  -0.76736  -0.76385  -0.75464  -0.75242
 Alpha  occ. eigenvalues --   -0.74722  -0.74450  -0.73308  -0.71952  -0.71432
 Alpha  occ. eigenvalues --   -0.69282  -0.69023  -0.68746  -0.68424  -0.68122
 Alpha  occ. eigenvalues --   -0.67611  -0.67295  -0.66622  -0.65320  -0.63775
 Alpha  occ. eigenvalues --   -0.63539  -0.62931  -0.62094  -0.61862  -0.61225
 Alpha  occ. eigenvalues --   -0.60234  -0.60176  -0.59914  -0.59313  -0.58708
 Alpha  occ. eigenvalues --   -0.58605  -0.58129  -0.57259  -0.57058  -0.56925
 Alpha  occ. eigenvalues --   -0.56789  -0.56608  -0.56272  -0.56115  -0.55777
 Alpha  occ. eigenvalues --   -0.55613  -0.55338  -0.55225  -0.55157  -0.54935
 Alpha  occ. eigenvalues --   -0.54693  -0.54336  -0.54079  -0.53563  -0.53010
 Alpha  occ. eigenvalues --   -0.52455  -0.52103  -0.51571  -0.51366  -0.51114
 Alpha  occ. eigenvalues --   -0.50588  -0.50344  -0.49938  -0.49753  -0.49002
 Alpha  occ. eigenvalues --   -0.48494  -0.48134  -0.47997  -0.47655  -0.46828
 Alpha  occ. eigenvalues --   -0.46663  -0.45332  -0.43323  -0.42826  -0.42400
 Alpha  occ. eigenvalues --   -0.41823  -0.41497  -0.41005  -0.40657  -0.40224
 Alpha  occ. eigenvalues --   -0.39755  -0.39187  -0.38579  -0.37249  -0.34299
 Alpha  occ. eigenvalues --   -0.32883
 Alpha virt. eigenvalues --   -0.10188  -0.09309  -0.08672  -0.07539  -0.06319
 Alpha virt. eigenvalues --   -0.06050  -0.05929  -0.05647  -0.05217  -0.04707
 Alpha virt. eigenvalues --   -0.04098  -0.03976  -0.02415  -0.02349  -0.01640
 Alpha virt. eigenvalues --   -0.00971  -0.00074   0.00959   0.01185   0.01394
 Alpha virt. eigenvalues --    0.01452   0.01854   0.02717   0.02888   0.03151
 Alpha virt. eigenvalues --    0.03762   0.04357   0.04581   0.05047   0.05459
 Alpha virt. eigenvalues --    0.05873   0.06112   0.06330   0.07002   0.07338
 Alpha virt. eigenvalues --    0.07727   0.07946   0.08417   0.08744   0.08941
 Alpha virt. eigenvalues --    0.09020   0.09269   0.09914   0.10009   0.10144
 Alpha virt. eigenvalues --    0.10368   0.10791   0.10948   0.11133   0.11516
 Alpha virt. eigenvalues --    0.11822   0.12070   0.12834   0.13063   0.13213
 Alpha virt. eigenvalues --    0.13597   0.13959   0.14103   0.14782   0.15069
 Alpha virt. eigenvalues --    0.15244   0.15479   0.15693   0.15821   0.16187
 Alpha virt. eigenvalues --    0.16542   0.16882   0.17104   0.17316   0.17678
 Alpha virt. eigenvalues --    0.18075   0.18344   0.18538   0.18649   0.18857
 Alpha virt. eigenvalues --    0.19083   0.19124   0.19414   0.19765   0.19993
 Alpha virt. eigenvalues --    0.20471   0.20573   0.20848   0.20967   0.21292
 Alpha virt. eigenvalues --    0.21441   0.21637   0.21870   0.22186   0.22323
[...]
              Bcc     0.0320     4.299     1.534     1.434  0.7837 -0.3515 -0.5122
 
              Baa    -0.0026    -1.401    -0.500    -0.467 -0.6980  0.0242  0.7157
     9 H(1)   Bbb    -0.0007    -0.384    -0.137    -0.128  0.6610 -0.3627  0.6569
              Bcc     0.0033     1.784     0.637     0.595  0.2755  0.9316  0.2372
 
              Baa    -0.0061    -0.824    -0.294    -0.275 -0.1553  0.1062  0.9821
    10 C(13)  Bbb    -0.0031    -0.416    -0.148    -0.139 -0.2291  0.9632 -0.1404
              Bcc     0.0092     1.240     0.443     0.414  0.9609  0.2468  0.1252
 
              Baa    -0.0028    -0.382    -0.136    -0.127 -0.4855  0.8718 -0.0651
    11 C(13)  Bbb    -0.0015    -0.197    -0.070    -0.066 -0.4124 -0.1627  0.8963
              Bcc     0.0043     0.579     0.207     0.193  0.7709  0.4620  0.4386
 
              Baa    -0.0023    -0.314    -0.112    -0.105  0.2569  0.0778  0.9633
    12 C(13)  Bbb    -0.0003    -0.042    -0.015    -0.014 -0.3271  0.9449  0.0109
              Bcc     0.0027     0.357     0.127     0.119  0.9094  0.3179 -0.2682
 
              Baa    -0.0038    -0.508    -0.181    -0.169  0.0980  0.9170 -0.3867
    13 C(13)  Bbb    -0.0015    -0.196    -0.070    -0.065  0.6806 -0.3452 -0.6462
              Bcc     0.0052     0.704     0.251     0.235  0.7260  0.1999  0.6580
 
              Baa    -0.0038    -2.004    -0.715    -0.669 -0.0956  0.9429  0.3189
    14 H(1)   Bbb    -0.0029    -1.546    -0.552    -0.516 -0.6123 -0.3083  0.7281
              Bcc     0.0067     3.550     1.267     1.184  0.7849 -0.1257  0.6068
 
              Baa    -0.0008    -0.417    -0.149    -0.139 -0.4381  0.8734  0.2126
    15 H(1)   Bbb    -0.0005    -0.247    -0.088    -0.082  0.4286 -0.0050  0.9035
              Bcc     0.0012     0.663     0.237     0.221  0.7902  0.4869 -0.3722
 
              Baa    -0.0006    -0.332    -0.119    -0.111  0.2083  0.3378  0.9179
    16 H(1)   Bbb    -0.0005    -0.269    -0.096    -0.090 -0.1941  0.9341 -0.2997
              Bcc     0.0011     0.602     0.215     0.201  0.9586  0.1158 -0.2601
 
              Baa    -0.0215    -2.886    -1.030    -0.963  0.3882  0.1039  0.9157
    17 C(13)  Bbb    -0.0109    -1.469    -0.524    -0.490  0.8928  0.2039 -0.4017
              Bcc     0.0325     4.355     1.554     1.453 -0.2285  0.9735 -0.0136
 
              Baa    -0.0116    -6.206    -2.214    -2.070 -0.4362  0.8143 -0.3828
    18 H(1)   Bbb    -0.0041    -2.185    -0.780    -0.729  0.7849  0.1363 -0.6044
              Bcc     0.0157     8.391     2.994     2.799  0.4400  0.5642  0.6986
 
              Baa    -0.0006    -0.330    -0.118    -0.110  0.7237 -0.5461  0.4219
    19 H(1)   Bbb    -0.0005    -0.274    -0.098    -0.091 -0.3939  0.1751  0.9023
              Bcc     0.0011     0.604     0.216     0.202  0.5666  0.8192  0.0884
 
              Baa    -0.0033    -1.762    -0.629    -0.588  0.3489 -0.6557  0.6696
    20 H(1)   Bbb    -0.0012    -0.629    -0.225    -0.210  0.8967  0.4413 -0.0351
              Bcc     0.0045     2.392     0.853     0.798 -0.2725  0.6126  0.7419
 
              Baa    -0.0036    -1.924    -0.687    -0.642  0.4954 -0.5208  0.6952
    21 H(1)   Bbb    -0.0003    -0.167    -0.060    -0.056  0.5258  0.8168  0.2372
              Bcc     0.0039     2.092     0.746     0.698  0.6915 -0.2481 -0.6785
 
              Baa    -0.0367    -1.505    -0.537    -0.502  0.5260 -0.5554  0.6440
    22 S(33)  Bbb    -0.0319    -1.306    -0.466    -0.436 -0.5341  0.3736  0.7584
              Bcc     0.0686     2.812     1.003     0.938  0.6619  0.7429  0.1001
 
              Baa    -0.0081    -0.313    -0.112    -0.104  0.3203  0.8832 -0.3426
    23 N(14)  Bbb    -0.0058    -0.225    -0.080    -0.075  0.8506 -0.4273 -0.3065
              Bcc     0.0139     0.538     0.192     0.179  0.4171  0.1933  0.8881
 
              Baa    -0.0009    -0.116    -0.041    -0.039 -0.2064 -0.6553  0.7266
    24 C(13)  Bbb    -0.0004    -0.051    -0.018    -0.017  0.1736  0.7063  0.6863
              Bcc     0.0012     0.168     0.060     0.056  0.9629 -0.2678  0.0320
 
              Baa    -0.0007    -0.091    -0.032    -0.030  0.3389  0.3904  0.8560
    25 C(13)  Bbb    -0.0001    -0.014    -0.005    -0.005  0.6560  0.5541 -0.5124
              Bcc     0.0008     0.104     0.037     0.035 -0.6744  0.7352 -0.0683
 
              Baa    -0.0008    -0.103    -0.037    -0.034 -0.0582  0.4130  0.9089
    26 C(13)  Bbb     0.0001     0.013     0.005     0.004 -0.6598  0.6673 -0.3455
              Bcc     0.0007     0.090     0.032     0.030  0.7491  0.6198 -0.2337
 
              Baa    -0.0004    -0.053    -0.019    -0.018 -0.1010 -0.5839  0.8055
    27 C(13)  Bbb    -0.0001    -0.019    -0.007    -0.006  0.3883  0.7223  0.5723
              Bcc     0.0005     0.072     0.026     0.024  0.9160 -0.3706 -0.1538
 
              Baa    -0.0005    -0.062    -0.022    -0.021 -0.0291 -0.6912  0.7220
    28 C(13)  Bbb    -0.0001    -0.011    -0.004    -0.004  0.1072  0.7160  0.6898
              Bcc     0.0005     0.073     0.026     0.024  0.9938 -0.0974 -0.0533
 
              Baa    -0.0005    -0.066    -0.023    -0.022  0.2524  0.7519  0.6090
    29 C(13)  Bbb     0.0000     0.004     0.001     0.001  0.9563 -0.0980 -0.2753
              Bcc     0.0005     0.062     0.022     0.021  0.1473 -0.6519  0.7438
 
              Baa    -0.0005    -0.260    -0.093    -0.087 -0.0232 -0.4594  0.8880
    30 H(1)   Bbb    -0.0004    -0.187    -0.067    -0.062  0.5485  0.7368  0.3955
              Bcc     0.0008     0.447     0.160     0.149  0.8359 -0.4962 -0.2349
 
              Baa    -0.0004    -0.201    -0.072    -0.067 -0.1856 -0.5283  0.8285
    31 H(1)   Bbb    -0.0003    -0.155    -0.055    -0.052 -0.1061  0.8490  0.5176
              Bcc     0.0007     0.356     0.127     0.119  0.9769 -0.0081  0.2137
 
              Baa    -0.0002    -0.101    -0.036    -0.034 -0.0354 -0.5617  0.8266
    32 H(1)   Bbb    -0.0002    -0.086    -0.031    -0.029  0.4612  0.7246  0.5121
              Bcc     0.0004     0.187     0.067     0.062  0.8866 -0.3994 -0.2334
 
              Baa    -0.0002    -0.087    -0.031    -0.029 -0.1087 -0.7028  0.7030
    33 H(1)   Bbb    -0.0001    -0.077    -0.027    -0.026  0.0178  0.7057  0.7083
              Bcc     0.0003     0.164     0.058     0.055  0.9939 -0.0895  0.0642
 
              Baa    -0.0029    -0.395    -0.141    -0.132 -0.1045  0.4699  0.8765
    34 C(13)  Bbb    -0.0000    -0.000    -0.000    -0.000  0.5595  0.7564 -0.3388
              Bcc     0.0029     0.395     0.141     0.132  0.8222 -0.4551  0.3419
 
              Baa    -0.0016    -0.220    -0.078    -0.073  0.6386  0.7156 -0.2829
    35 C(13)  Bbb    -0.0002    -0.031    -0.011    -0.010  0.6757 -0.3456  0.6511
              Bcc     0.0019     0.250     0.089     0.083 -0.3682  0.6070  0.7043
 
              Baa    -0.0037    -0.490    -0.175    -0.164  0.6992  0.6381  0.3224
    36 C(13)  Bbb    -0.0011    -0.144    -0.051    -0.048 -0.5031  0.1187  0.8560
              Bcc     0.0047     0.634     0.226     0.212 -0.5080  0.7607 -0.4041
 
              Baa    -0.0015    -0.208    -0.074    -0.069 -0.2355  0.4588  0.8568
    37 C(13)  Bbb     0.0002     0.028     0.010     0.009  0.7593  0.6372 -0.1325
              Bcc     0.0013     0.180     0.064     0.060 -0.6067  0.6193 -0.4984
 
              Baa    -0.0015    -0.198    -0.071    -0.066  0.6655  0.4914  0.5618
    38 C(13)  Bbb    -0.0006    -0.086    -0.031    -0.029 -0.6209 -0.0532  0.7821
              Bcc     0.0021     0.285     0.102     0.095 -0.4142  0.8693 -0.2697
 
              Baa    -0.0016    -0.219    -0.078    -0.073  0.8508  0.5221  0.0597
    39 C(13)  Bbb    -0.0007    -0.093    -0.033    -0.031  0.1256 -0.3123  0.9416
              Bcc     0.0023     0.312     0.111     0.104 -0.5103  0.7937  0.3313
 
              Baa    -0.0004    -0.237    -0.085    -0.079 -0.1706  0.3632  0.9159
    40 H(1)   Bbb    -0.0004    -0.219    -0.078    -0.073  0.5078  0.8290 -0.2342
              Bcc     0.0009     0.457     0.163     0.152  0.8444 -0.4251  0.3259
 
              Baa    -0.0054    -2.872    -1.025    -0.958  0.2362  0.1731  0.9562
    41 H(1)   Bbb    -0.0051    -2.718    -0.970    -0.907  0.6992  0.6531 -0.2910
              Bcc     0.0105     5.590     1.995     1.865 -0.6748  0.7372  0.0332
 
              Baa    -0.0004    -0.204    -0.073    -0.068 -0.2425  0.3431  0.9075
    42 H(1)   Bbb    -0.0002    -0.111    -0.040    -0.037  0.7447  0.6654 -0.0525
              Bcc     0.0006     0.315     0.112     0.105 -0.6218  0.6630 -0.4168
 
              Baa    -0.0022    -1.161    -0.414    -0.387 -0.0723  0.1195  0.9902
    43 H(1)   Bbb    -0.0006    -0.340    -0.121    -0.113  0.9548  0.2953  0.0341
              Bcc     0.0028     1.501     0.536     0.501 -0.2883  0.9479 -0.1355
 
              Baa    -0.2538    -9.790    -3.493    -3.266  0.0258  0.9626  0.2699
    44 N(14)  Bbb    -0.2513    -9.691    -3.458    -3.232  0.9720 -0.0872  0.2184
              Bcc     0.5051    19.481     6.951     6.498 -0.2337 -0.2567  0.9378
 
              Baa    -0.0152    -2.046    -0.730    -0.683  0.4801  0.5453  0.6871
    45 C(13)  Bbb    -0.0008    -0.103    -0.037    -0.034 -0.0563  0.8009 -0.5962
              Bcc     0.0160     2.149     0.767     0.717  0.8754 -0.2476 -0.4152
 
              Baa    -0.0243    -3.258    -1.163    -1.087 -0.3849  0.7922 -0.4736
    46 C(13)  Bbb    -0.0199    -2.666    -0.951    -0.889  0.8208  0.0591 -0.5682
              Bcc     0.0441     5.924     2.114     1.976  0.4221  0.6074  0.6730
 
              Baa    -0.0204    -2.736    -0.976    -0.913  0.6645  0.4675 -0.5830
    47 C(13)  Bbb    -0.0167    -2.236    -0.798    -0.746  0.7396 -0.5236  0.4230
              Bcc     0.0371     4.972     1.774     1.659  0.1075  0.7123  0.6936
 
              Baa    -0.0112    -1.504    -0.537    -0.502 -0.0539  0.4231  0.9045
    48 C(13)  Bbb     0.0037     0.495     0.177     0.165  0.2173  0.8890 -0.4030
              Bcc     0.0075     1.009     0.360     0.337  0.9746 -0.1749  0.1399
 
              Baa    -0.0125    -1.672    -0.597    -0.558  0.1716  0.3505  0.9207
    49 C(13)  Bbb     0.0050     0.671     0.240     0.224  0.3711  0.8428 -0.3899
              Bcc     0.0075     1.000     0.357     0.334  0.9126 -0.4086 -0.0146
 
              Baa    -0.0235    -3.159    -1.127    -1.054  0.3645  0.8563 -0.3659
    50 C(13)  Bbb    -0.0205    -2.754    -0.983    -0.919  0.9252 -0.3775  0.0380
              Bcc     0.0441     5.913     2.110     1.972  0.1056  0.3524  0.9299
 
              Baa    -0.0025    -1.309    -0.467    -0.437  0.0148  0.4049  0.9142
    51 H(1)   Bbb    -0.0006    -0.316    -0.113    -0.106  0.9286 -0.3447  0.1376
              Bcc     0.0030     1.625     0.580     0.542  0.3709  0.8469 -0.3811
 
              Baa    -0.0028    -1.490    -0.532    -0.497  0.0880  0.4035  0.9107
    52 H(1)   Bbb     0.0009     0.466     0.166     0.155  0.9099 -0.4047  0.0914
              Bcc     0.0019     1.024     0.365     0.342  0.4055  0.8206 -0.4027
 
              Baa    -0.0012    -0.649    -0.231    -0.216  0.1213  0.5232  0.8435
    53 H(1)   Bbb     0.0003     0.158     0.056     0.053 -0.1060  0.8518 -0.5131
              Bcc     0.0009     0.490     0.175     0.164  0.9869  0.0272 -0.1588
 
              Baa    -0.0012    -0.657    -0.234    -0.219  0.1235  0.5050  0.8542
    54 H(1)   Bbb     0.0001     0.077     0.027     0.026  0.2563  0.8154 -0.5191
              Bcc     0.0011     0.580     0.207     0.194  0.9587 -0.2831  0.0288
 
              Baa    -0.0092    -1.236    -0.441    -0.412  0.9732  0.0664  0.2203
    55 C(13)  Bbb     0.0044     0.597     0.213     0.199 -0.0210  0.9790 -0.2026
              Bcc     0.0048     0.639     0.228     0.213 -0.2291  0.1926  0.9542
 
              Baa    -0.0279    -3.747    -1.337    -1.250 -0.4741  0.7335 -0.4871
    56 C(13)  Bbb    -0.0245    -3.289    -1.174    -1.097  0.0716  0.5835  0.8090
              Bcc     0.0524     7.036     2.511     2.347  0.8776  0.3486 -0.3292
 
              Baa    -0.0298    -4.005    -1.429    -1.336  0.3214  0.4838  0.8140
    57 C(13)  Bbb    -0.0266    -3.566    -1.273    -1.190 -0.2819  0.8695 -0.4055
              Bcc     0.0564     7.572     2.702     2.526  0.9040  0.0992 -0.4159
 
              Baa    -0.0141    -1.896    -0.676    -0.632  0.7329  0.0905 -0.6743
    58 C(13)  Bbb     0.0057     0.761     0.271     0.254  0.6760 -0.2096  0.7065
              Bcc     0.0085     1.135     0.405     0.379  0.0774  0.9736  0.2148
 
              Baa    -0.0151    -2.023    -0.722    -0.675  0.7088  0.3199 -0.6286
    59 C(13)  Bbb     0.0059     0.787     0.281     0.263  0.6775 -0.0607  0.7330
              Bcc     0.0092     1.236     0.441     0.412 -0.1964  0.9455  0.2598
 
              Baa    -0.0338    -4.533    -1.618    -1.512  0.6699 -0.1099  0.7342
    60 C(13)  Bbb    -0.0301    -4.042    -1.442    -1.348 -0.1071  0.9644  0.2420
              Bcc     0.0639     8.575     3.060     2.860  0.7347  0.2407 -0.6343
 
              Baa    -0.0026    -1.394    -0.498    -0.465 -0.6455  0.2918  0.7058
    61 H(1)   Bbb    -0.0013    -0.713    -0.254    -0.238  0.2415  0.9547 -0.1738
              Bcc     0.0040     2.108     0.752     0.703  0.7246 -0.0583  0.6867
 
              Baa    -0.0029    -1.543    -0.550    -0.515  0.6668 -0.6229 -0.4091
    62 H(1)   Bbb     0.0001     0.038     0.013     0.013  0.3446  0.7444 -0.5719
              Bcc     0.0028     1.505     0.537     0.502  0.6608  0.2403  0.7111
 
              Baa    -0.0014    -0.738    -0.263    -0.246  0.7890  0.1165 -0.6032
    63 H(1)   Bbb     0.0005     0.290     0.103     0.097 -0.3509  0.8914 -0.2868
              Bcc     0.0008     0.448     0.160     0.150  0.5043  0.4380  0.7442
 
              Baa    -0.0014    -0.771    -0.275    -0.257  0.8464  0.0274 -0.5319
    64 H(1)   Bbb     0.0003     0.164     0.058     0.055  0.5312 -0.1170  0.8391
              Bcc     0.0011     0.608     0.217     0.203  0.0393  0.9928  0.1136
 
              Baa    -0.0019     0.135     0.048     0.045  0.8802  0.4696  0.0694
    65 O(17)  Bbb    -0.0009     0.063     0.022     0.021  0.1984 -0.4968  0.8449
              Bcc     0.0027    -0.197    -0.070    -0.066 -0.4312  0.7299  0.5304
 
              Baa    -0.0004    -0.238    -0.085    -0.080 -0.5443  0.1867  0.8178
    66 H(1)   Bbb    -0.0003    -0.182    -0.065    -0.061  0.7263  0.5926  0.3482
              Bcc     0.0008     0.421     0.150     0.140 -0.4197  0.7835 -0.4582
 
              Baa    -0.0005     0.038     0.013     0.013  0.2189  0.6758  0.7038
    67 O(17)  Bbb    -0.0002     0.014     0.005     0.005  0.9757 -0.1562 -0.1535
              Bcc     0.0007    -0.052    -0.018    -0.017  0.0062  0.7203 -0.6936
 
              Baa    -0.0001    -0.060    -0.021    -0.020 -0.0725 -0.5684  0.8195
    68 H(1)   Bbb    -0.0001    -0.048    -0.017    -0.016  0.0882  0.8148  0.5730
              Bcc     0.0002     0.108     0.038     0.036  0.9935 -0.1138  0.0089
 
              Baa    -0.0339     2.454     0.876     0.818 -0.3280  0.8679 -0.3730
    69 O(17)  Bbb    -0.0324     2.348     0.838     0.783  0.9353  0.2428 -0.2575
              Bcc     0.0664    -4.801    -1.713    -1.602  0.1329  0.4333  0.8914
 
              Baa    -0.0017    -0.905    -0.323    -0.302 -0.5762  0.7818 -0.2382
    70 H(1)   Bbb    -0.0013    -0.673    -0.240    -0.224  0.1576  0.3923  0.9062
              Bcc     0.0030     1.578     0.563     0.526  0.8020  0.4846 -0.3492
 
              Baa    -0.0503     3.638     1.298     1.214  0.3361  0.6474  0.6840
    71 O(17)  Bbb    -0.0486     3.519     1.256     1.174 -0.5562  0.7225 -0.4106
              Bcc     0.0989    -7.157    -2.554    -2.387  0.7600  0.2425 -0.6030
 
              Baa    -0.0025    -1.338    -0.478    -0.446  0.0016  0.7425  0.6699
    72 H(1)   Bbb    -0.0017    -0.889    -0.317    -0.297  0.7868  0.4125 -0.4591
              Bcc     0.0042     2.228     0.795     0.743  0.6172 -0.5278  0.5835
 

 ---------------------------------------------------------------------------------

 No NMR shielding tensors so no spin-rotation constants.
 Leave Link  601 at Thu Jan 21 22:02:46 2021, MaxMem=  4026531840 cpu:              15.1 elap:               2.3
 (Enter /opt/ohpc/pub/libs/gaussian/g16-A.03/sandybridge/g16/l9999.exe)

 Test job not archived.
 1\1\GINC-CASCADEB028\SP\ULC-wHPBE\TZVP\C36H28N2O4S2(1+,2)\RDU230\21-Ja
 n-2021\0\\#P LC-wHPBE/TZVP iop(3/107=0176200000, 3/108=0176200000) scf
 =(conver=6,fermi,ndamp=35,noincfock,novaracc,vshift=500,xqc)\\H28 C36 
 S2 N2 O4\\1,2\C,0,-1.748928,-0.489907,0.452051\C,0,-0.626174,-1.279763
 ,0.15257\S,0,1.952753,-5.388628,0.812439\C,0,-0.882312,-2.170069,-0.82
 0725\C,0,1.932708,-2.897266,-0.476539\C,0,2.566514,-3.761438,0.41855\C
 ,0,-2.975354,-0.631957,-0.195801\C,0,-2.049066,-2.386893,-1.545961\H,0
 ,0.246316,-4.468801,-0.586079\C,0,2.384401,-1.613824,-0.700024\C,0,3.6
 73888,-3.269502,1.095477\C,0,4.135912,-1.984797,0.893895\C,0,3.494497,
 -1.125461,-0.002977\H,0,1.857267,-0.971131,-1.395345\H,0,4.176334,-3.9
 12174,1.811785\H,0,4.992977,-1.63215,1.456718\C,0,-3.122467,-1.590215,
 -1.210611\H,0,-1.688273,0.276733,1.226088\H,0,2.539,-6.051116,-0.20624
 9\H,0,-2.132551,-3.120151,-2.347153\H,0,-4.068236,-1.688167,-1.734116\
 S,0,0.491419,-3.391365,-1.37893\N,0,3.940024,0.175839,-0.195205\C,0,5.
 26504,0.53915,0.184549\C,0,5.479402,1.520085,1.147894\C,0,6.360048,-0.
 068673,-0.412912\C,0,6.761446,1.889048,1.505778\C,0,7.649207,0.280692,
 -0.044528\C,0,7.852726,1.26556,0.91321\H,0,4.624132,2.002234,1.612555\
 H,0,6.198832,-0.830082,-1.170918\H,0,6.936355,2.656092,2.253454\H,0,8.
 499101,-0.206598,-0.518215\C,0,3.067884,1.217797,-0.624973\C,0,3.53316
 9,2.175669,-1.516644\C,0,1.768428,1.324352,-0.133595\C,0,2.72389,3.230
 889,-1.904642\C,0,0.952027,2.363639,-0.537\C,0,1.429133,3.326131,-1.41
 5171\H,0,4.545758,2.102962,-1.902377\H,0,1.364259,0.566763,0.534909\H,
 0,3.106488,3.978127,-2.597301\H,0,-0.063643,2.437107,-0.162477\N,0,-4.
 071583,0.199288,0.137893\C,0,-5.379657,-0.330758,0.192504\C,0,-6.46407
 2,0.381862,-0.308117\C,0,-5.615898,-1.583782,0.758482\C,0,-7.748035,-0
 .135409,-0.237366\C,0,-6.890741,-2.11387,0.808775\C,0,-7.966332,-1.388
 715,0.314728\H,0,-6.301182,1.359246,-0.752201\H,0,-4.779992,-2.148147,
 1.16092\H,0,-8.582756,0.442294,-0.630527\H,0,-7.071352,-3.090185,1.247
 847\C,0,-3.863071,1.579858,0.373004\C,0,-4.488297,2.228332,1.435995\C,
 0,-3.028002,2.320518,-0.45569\C,0,-4.288516,3.577498,1.662294\C,0,-2.8
 02155,3.666597,-0.218956\C,0,-3.435225,4.300687,0.840523\H,0,-5.141183
 ,1.661753,2.093518\H,0,-2.533592,1.828985,-1.288374\H,0,-4.774148,4.08
 1779,2.492022\H,0,-2.125658,4.220184,-0.867724\O,0,0.584592,4.343911,-
 1.769173\H,0,1.03059,4.920168,-2.399784\O,0,9.095256,1.661445,1.308356
 \H,0,9.763222,1.159512,0.827959\O,0,-9.209724,-1.953542,0.400297\H,0,-
 9.859516,-1.347058,0.028653\O,0,-3.254007,5.627948,1.116747\H,0,-2.609
 433,5.991357,0.499352\\Version=EM64L-G16RevA.03\State=2-A\HF=-2593.745
 2634\S2=0.761763\S2-1=0.\S2A=0.750075\RMSD=6.660e-07\Dipole=-0.5268292
 ,-1.0593471,-1.9009614\Quadrupole=52.5949036,-5.3933855,-47.2015181,-1
 0.6182002,-1.9595503,-2.0503428\PG=C01 [X(C36H28N2O4S2)]\\@


 THOSE WHO ASPIRE NOT TO GUESS AND DIVINE,
 BUT TO DISCOVER AND KNOW, WHO PROPOSE NOT TO DEVISE 
 MIMIC AND FABULOUS WORLDS OF THEIR OWN, BUT TO 
 EXAMINE AND DISSECT THE NATURE OF THIS VERY WORLD 
 ITSELF, MUST GO TO THE FACTS THEMSELVES FOR EVERYTHING.

                               -- FRANCIS BACON, 1620
 Job cpu time:       0 days 15 hours 26 minutes 14.1 seconds.
 Elapsed time:       0 days  1 hours 59 minutes 49.7 seconds.
 File lengths (MBytes):  RWF=    796 Int=      0 D2E=      0 Chk=     76 Scr=      8
 Normal termination of Gaussian 16 at Thu Jan 21 22:02:46 2021.
