 Entering Gaussian System, Link 0=g16
 Input=mol_ta_ma_whol_tune_c6.gjf
 Output=mol_ta_ma_whol_tune_c6.log
 Initial command:
 /opt/ohpc/pub/libs/gaussian/g16-A.03/sandybridge/g16/l1.exe "/mnt/gpfs2_4m/scratch/rdu230/ondemand/projects/init_structures/wtuning/mol_ta_ma_whol/tuning_mol_ta_ma_whol_ocycle0/Gau-158306.inp" -scrdir="/mnt/gpfs2_4m/scratch/rdu230/ondemand/projects/init_structures/wtuning/mol_ta_ma_whol/tuning_mol_ta_ma_whol_ocycle0/"
 Entering Link 1 = /opt/ohpc/pub/libs/gaussian/g16-A.03/sandybridge/g16/l1.exe PID=    158307.
  
 Copyright (c) 1988,1990,1992,1993,1995,1998,2003,2009,2016,
            Gaussian, Inc.  All Rights Reserved.
  
 This is part of the Gaussian(R) 16 program.  It is based on
 the Gaussian(R) 09 system (copyright 2009, Gaussian, Inc.),
 the Gaussian(R) 03 system (copyright 2003, Gaussian, Inc.),
 the Gaussian(R) 98 system (copyright 1998, Gaussian, Inc.),
 the Gaussian(R) 94 system (copyright 1995, Gaussian, Inc.),
 the Gaussian 92(TM) system (copyright 1992, Gaussian, Inc.),
 the Gaussian 90(TM) system (copyright 1990, Gaussian, Inc.),
 the Gaussian 88(TM) system (copyright 1988, Gaussian, Inc.),
 the Gaussian 86(TM) system (copyright 1986, Carnegie Mellon
 University), and the Gaussian 82(TM) system (copyright 1983,
 Carnegie Mellon University). Gaussian is a federally registered
 trademark of Gaussian, Inc.
  
 This software contains proprietary and confidential information,
 including trade secrets, belonging to Gaussian, Inc.
  
 This software is provided under written license and may be
 used, copied, transmitted, or stored only in accord with that
 written license.
  
 The following legend is applicable only to US Government
 contracts under FAR:
  
                    RESTRICTED RIGHTS LEGEND
  
 Use, reproduction and disclosure by the US Government is
 subject to restrictions as set forth in subparagraphs (a)
 and (c) of the Commercial Computer Software - Restricted
 Rights clause in FAR 52.227-19.
  
 Gaussian, Inc.
 340 Quinnipiac St., Bldg. 40, Wallingford CT 06492
  
  
 ---------------------------------------------------------------
 Warning -- This program may not be used in any manner that
 competes with the business of Gaussian, Inc. or will provide
 assistance to any competitor of Gaussian, Inc.  The licensee
 of this program is prohibited from giving any competitor of
 Gaussian, Inc. access to this program.  By using this program,
 the user acknowledges that Gaussian, Inc. is engaged in the
 business of creating and licensing software in the field of
 computational chemistry and represents and warrants to the
 licensee that it is not a competitor of Gaussian, Inc. and that
 it will not use this program in any manner prohibited above.
 ---------------------------------------------------------------
  

 Cite this work as:
 Gaussian 16, Revision A.03,
 M. J. Frisch, G. W. Trucks, H. B. Schlegel, G. E. Scuseria, 
 M. A. Robb, J. R. Cheeseman, G. Scalmani, V. Barone, 
 G. A. Petersson, H. Nakatsuji, X. Li, M. Caricato, A. V. Marenich, 
 J. Bloino, B. G. Janesko, R. Gomperts, B. Mennucci, H. P. Hratchian, 
 J. V. Ortiz, A. F. Izmaylov, J. L. Sonnenberg, D. Williams-Young, 
 F. Ding, F. Lipparini, F. Egidi, J. Goings, B. Peng, A. Petrone, 
 T. Henderson, D. Ranasinghe, V. G. Zakrzewski, J. Gao, N. Rega, 
 G. Zheng, W. Liang, M. Hada, M. Ehara, K. Toyota, R. Fukuda, 
 J. Hasegawa, M. Ishida, T. Nakajima, Y. Honda, O. Kitao, H. Nakai, 
 T. Vreven, K. Throssell, J. A. Montgomery, Jr., J. E. Peralta, 
 F. Ogliaro, M. J. Bearpark, J. J. Heyd, E. N. Brothers, K. N. Kudin, 
 V. N. Staroverov, T. A. Keith, R. Kobayashi, J. Normand, 
 K. Raghavachari, A. P. Rendell, J. C. Burant, S. S. Iyengar, 
 J. Tomasi, M. Cossi, J. M. Millam, M. Klene, C. Adamo, R. Cammi, 
 J. W. Ochterski, R. L. Martin, K. Morokuma, O. Farkas, 
 J. B. Foresman, and D. J. Fox, Gaussian, Inc., Wallingford CT, 2016.
 
 ******************************************
 Gaussian 16:  EM64L-G16RevA.03 25-Dec-2016
                21-Jan-2021 
 ******************************************
 %mem=30GB
 %nproc=8
 Will use up to    8 processors via shared memory.
 ----------------------------------------------------------------------
 #P LC-wHPBE/TZVP iop(3/107=0167500000, 3/108=0167500000) scf=(conver=6
 ,fermi,ndamp=35,noincfock,novaracc,vshift=500,xqc)
 ----------------------------------------------------------------------
 1/38=1,172=1/1;
 2/12=2,17=6,18=5,40=1/2;
 3/5=19,7=101,11=2,25=1,30=1,74=-71,107=167500000,108=167500000/1,2,3;
 4//1;
 5/5=100002,6=6,8=3,10=500,13=1,18=-1,22=13,38=1,93=35/2,8;
 6/7=2,8=2,9=2,10=2,28=1/1;
 99/5=1,9=1/99;
 Leave Link    1 at Thu Jan 21 22:38:24 2021, MaxMem=  4026531840 cpu:               1.1 elap:               0.2
 (Enter /opt/ohpc/pub/libs/gaussian/g16-A.03/sandybridge/g16/l101.exe)
 ----------------
 H28 C36 S2 N2 O4
 ----------------
 Symbolic Z-matrix:
 Charge =  1 Multiplicity = 2
 C                    -1.74893  -0.48991   0.45205 
 C                    -0.62617  -1.27976   0.15257 
 S                     1.95275  -5.38863   0.81244 
 C                    -0.88231  -2.17007  -0.82073 
 C                     1.93271  -2.89727  -0.47654 
 C                     2.56651  -3.76144   0.41855 
 C                    -2.97535  -0.63196  -0.1958 
 C                    -2.04907  -2.38689  -1.54596 
 H                     0.24632  -4.4688   -0.58608 
 C                     2.3844   -1.61382  -0.70002 
 C                     3.67389  -3.2695    1.09548 
 C                     4.13591  -1.9848    0.8939 
 C                     3.4945   -1.12546  -0.00298 
 H                     1.85727  -0.97113  -1.39535 
 H                     4.17633  -3.91217   1.81179 
 H                     4.99298  -1.63215   1.45672 
 C                    -3.12247  -1.59022  -1.21061 
 H                    -1.68827   0.27673   1.22609 
 H                     2.539    -6.05112  -0.20625 
 H                    -2.13255  -3.12015  -2.34715 
 H                    -4.06824  -1.68817  -1.73412 
 S                     0.49142  -3.39136  -1.37893 
 N                     3.94002   0.17584  -0.19521 
 C                     5.26504   0.53915   0.18455 
 C                     5.4794    1.52009   1.14789 
 C                     6.36005  -0.06867  -0.41291 
 C                     6.76145   1.88905   1.50578 
 C                     7.64921   0.28069  -0.04453 
 C                     7.85273   1.26556   0.91321 
 H                     4.62413   2.00223   1.61256 
 H                     6.19883  -0.83008  -1.17092 
 H                     6.93636   2.65609   2.25345 
 H                     8.4991   -0.2066   -0.51822 
 C                     3.06788   1.2178   -0.62497 
 C                     3.53317   2.17567  -1.51664 
 C                     1.76843   1.32435  -0.1336 
 C                     2.72389   3.23089  -1.90464 
 C                     0.95203   2.36364  -0.537 
 C                     1.42913   3.32613  -1.41517 
 H                     4.54576   2.10296  -1.90238 
 H                     1.36426   0.56676   0.53491 
 H                     3.10649   3.97813  -2.5973 
 H                    -0.06364   2.43711  -0.16248 
 N                    -4.07158   0.19929   0.13789 
 C                    -5.37966  -0.33076   0.1925 
 C                    -6.46407   0.38186  -0.30812 
 C                    -5.6159   -1.58378   0.75848 
 C                    -7.74803  -0.13541  -0.23737 
 C                    -6.89074  -2.11387   0.80878 
 C                    -7.96633  -1.38872   0.31473 
 H                    -6.30118   1.35925  -0.7522 
 H                    -4.77999  -2.14815   1.16092 
 H                    -8.58276   0.44229  -0.63053 
 H                    -7.07135  -3.09018   1.24785 
 C                    -3.86307   1.57986   0.373 
 C                    -4.4883    2.22833   1.436 
 C                    -3.028     2.32052  -0.45569 
 C                    -4.28852   3.5775    1.66229 
 C                    -2.80216   3.6666   -0.21896 
 C                    -3.43522   4.30069   0.84052 
 H                    -5.14118   1.66175   2.09352 
 H                    -2.53359   1.82899  -1.28837 
 H                    -4.77415   4.08178   2.49202 
 H                    -2.12566   4.22018  -0.86772 
 O                     0.58459   4.34391  -1.76917 
 H                     1.03059   4.92017  -2.39978 
 O                     9.09526   1.66145   1.30836 
 H                     9.76322   1.15951   0.82796 
 O                    -9.20972  -1.95354   0.4003 
 H                    -9.85952  -1.34706   0.02865 
 O                    -3.25401   5.62795   1.11675 
 H                    -2.60943   5.99136   0.49935 
 
 ITRead=  0  0  0  0  0  0  0  0  0  0  0  0  0  0  0  0  0  0  0  0
 ITRead=  0  0  0  0  0  0  0  0  0  0  0  0  0  0  0  0  0  0  0  0
 ITRead=  0  0  0  0  0  0  0  0  0  0  0  0  0  0  0  0  0  0  0  0
 ITRead=  0  0  0  0  0  0  0  0  0  0  0  0
 MicOpt= -1 -1 -1 -1 -1 -1 -1 -1 -1 -1 -1 -1 -1 -1 -1 -1 -1 -1 -1 -1
 MicOpt= -1 -1 -1 -1 -1 -1 -1 -1 -1 -1 -1 -1 -1 -1 -1 -1 -1 -1 -1 -1
 MicOpt= -1 -1 -1 -1 -1 -1 -1 -1 -1 -1 -1 -1 -1 -1 -1 -1 -1 -1 -1 -1
 MicOpt= -1 -1 -1 -1 -1 -1 -1 -1 -1 -1 -1 -1
 NAtoms=     72 NQM=       72 NQMF=       0 NMMI=      0 NMMIF=      0
                NMic=       0 NMicF=      0.
                    Isotopes and Nuclear Properties:
 (Nuclear quadrupole moments (NQMom) in fm**2, nuclear magnetic moments (NMagM)
  in nuclear magnetons)

  Atom         1           2           3           4           5           6           7           8           9          10
 IAtWgt=          12          12          32          12          12          12          12          12           1          12
 AtmWgt=  12.0000000  12.0000000  31.9720718  12.0000000  12.0000000  12.0000000  12.0000000  12.0000000   1.0078250  12.0000000
 NucSpn=           0           0           0           0           0           0           0           0           1           0
 AtZEff=  -0.0000000  -0.0000000  -0.0000000  -0.0000000  -0.0000000  -0.0000000  -0.0000000  -0.0000000  -0.0000000  -0.0000000
 NQMom=    0.0000000   0.0000000   0.0000000   0.0000000   0.0000000   0.0000000   0.0000000   0.0000000   0.0000000   0.0000000
 NMagM=    0.0000000   0.0000000   0.0000000   0.0000000   0.0000000   0.0000000   0.0000000   0.0000000   2.7928460   0.0000000
 AtZNuc=   6.0000000   6.0000000  16.0000000   6.0000000   6.0000000   6.0000000   6.0000000   6.0000000   1.0000000   6.0000000

  Atom        11          12          13          14          15          16          17          18          19          20
 IAtWgt=          12          12          12           1           1           1          12           1           1           1
 AtmWgt=  12.0000000  12.0000000  12.0000000   1.0078250   1.0078250   1.0078250  12.0000000   1.0078250   1.0078250   1.0078250
 NucSpn=           0           0           0           1           1           1           0           1           1           1
 AtZEff=  -0.0000000  -0.0000000  -0.0000000  -0.0000000  -0.0000000  -0.0000000  -0.0000000  -0.0000000  -0.0000000  -0.0000000
 NQMom=    0.0000000   0.0000000   0.0000000   0.0000000   0.0000000   0.0000000   0.0000000   0.0000000   0.0000000   0.0000000
 NMagM=    0.0000000   0.0000000   0.0000000   2.7928460   2.7928460   2.7928460   0.0000000   2.7928460   2.7928460   2.7928460
 AtZNuc=   6.0000000   6.0000000   6.0000000   1.0000000   1.0000000   1.0000000   6.0000000   1.0000000   1.0000000   1.0000000

  Atom        21          22          23          24          25          26          27          28          29          30
 IAtWgt=           1          32          14          12          12          12          12          12          12           1
 AtmWgt=   1.0078250  31.9720718  14.0030740  12.0000000  12.0000000  12.0000000  12.0000000  12.0000000  12.0000000   1.0078250
 NucSpn=           1           0           2           0           0           0           0           0           0           1
 AtZEff=  -0.0000000  -0.0000000  -0.0000000  -0.0000000  -0.0000000  -0.0000000  -0.0000000  -0.0000000  -0.0000000  -0.0000000
 NQMom=    0.0000000   0.0000000   2.0440000   0.0000000   0.0000000   0.0000000   0.0000000   0.0000000   0.0000000   0.0000000
 NMagM=    2.7928460   0.0000000   0.4037610   0.0000000   0.0000000   0.0000000   0.0000000   0.0000000   0.0000000   2.7928460
 AtZNuc=   1.0000000  16.0000000   7.0000000   6.0000000   6.0000000   6.0000000   6.0000000   6.0000000   6.0000000   1.0000000

  Atom        31          32          33          34          35          36          37          38          39          40
 IAtWgt=           1           1           1          12          12          12          12          12          12           1
 AtmWgt=   1.0078250   1.0078250   1.0078250  12.0000000  12.0000000  12.0000000  12.0000000  12.0000000  12.0000000   1.0078250
 NucSpn=           1           1           1           0           0           0           0           0           0           1
 AtZEff=  -0.0000000  -0.0000000  -0.0000000  -0.0000000  -0.0000000  -0.0000000  -0.0000000  -0.0000000  -0.0000000  -0.0000000
 NQMom=    0.0000000   0.0000000   0.0000000   0.0000000   0.0000000   0.0000000   0.0000000   0.0000000   0.0000000   0.0000000
 NMagM=    2.7928460   2.7928460   2.7928460   0.0000000   0.0000000   0.0000000   0.0000000   0.0000000   0.0000000   2.7928460
 AtZNuc=   1.0000000   1.0000000   1.0000000   6.0000000   6.0000000   6.0000000   6.0000000   6.0000000   6.0000000   1.0000000

  Atom        41          42          43          44          45          46          47          48          49          50
 IAtWgt=           1           1           1          14          12          12          12          12          12          12
 AtmWgt=   1.0078250   1.0078250   1.0078250  14.0030740  12.0000000  12.0000000  12.0000000  12.0000000  12.0000000  12.0000000
 NucSpn=           1           1           1           2           0           0           0           0           0           0
 AtZEff=  -0.0000000  -0.0000000  -0.0000000  -0.0000000  -0.0000000  -0.0000000  -0.0000000  -0.0000000  -0.0000000  -0.0000000
 NQMom=    0.0000000   0.0000000   0.0000000   2.0440000   0.0000000   0.0000000   0.0000000   0.0000000   0.0000000   0.0000000
 NMagM=    2.7928460   2.7928460   2.7928460   0.4037610   0.0000000   0.0000000   0.0000000   0.0000000   0.0000000   0.0000000
 AtZNuc=   1.0000000   1.0000000   1.0000000   7.0000000   6.0000000   6.0000000   6.0000000   6.0000000   6.0000000   6.0000000

  Atom        51          52          53          54          55          56          57          58          59          60
 IAtWgt=           1           1           1           1          12          12          12          12          12          12
 AtmWgt=   1.0078250   1.0078250   1.0078250   1.0078250  12.0000000  12.0000000  12.0000000  12.0000000  12.0000000  12.0000000
 NucSpn=           1           1           1           1           0           0           0           0           0           0
 AtZEff=  -0.0000000  -0.0000000  -0.0000000  -0.0000000  -0.0000000  -0.0000000  -0.0000000  -0.0000000  -0.0000000  -0.0000000
 NQMom=    0.0000000   0.0000000   0.0000000   0.0000000   0.0000000   0.0000000   0.0000000   0.0000000   0.0000000   0.0000000
 NMagM=    2.7928460   2.7928460   2.7928460   2.7928460   0.0000000   0.0000000   0.0000000   0.0000000   0.0000000   0.0000000
 AtZNuc=   1.0000000   1.0000000   1.0000000   1.0000000   6.0000000   6.0000000   6.0000000   6.0000000   6.0000000   6.0000000

  Atom        61          62          63          64          65          66          67          68          69          70
 IAtWgt=           1           1           1           1          16           1          16           1          16           1
 AtmWgt=   1.0078250   1.0078250   1.0078250   1.0078250  15.9949146   1.0078250  15.9949146   1.0078250  15.9949146   1.0078250
 NucSpn=           1           1           1           1           0           1           0           1           0           1
 AtZEff=  -0.0000000  -0.0000000  -0.0000000  -0.0000000  -0.0000000  -0.0000000  -0.0000000  -0.0000000  -0.0000000  -0.0000000
 NQMom=    0.0000000   0.0000000   0.0000000   0.0000000   0.0000000   0.0000000   0.0000000   0.0000000   0.0000000   0.0000000
 NMagM=    2.7928460   2.7928460   2.7928460   2.7928460   0.0000000   2.7928460   0.0000000   2.7928460   0.0000000   2.7928460
 AtZNuc=   1.0000000   1.0000000   1.0000000   1.0000000   8.0000000   1.0000000   8.0000000   1.0000000   8.0000000   1.0000000

  Atom        71          72
 IAtWgt=          16           1
 AtmWgt=  15.9949146   1.0078250
 NucSpn=           0           1
 AtZEff=  -0.0000000  -0.0000000
 NQMom=    0.0000000   0.0000000
 NMagM=    0.0000000   2.7928460
 AtZNuc=   8.0000000   1.0000000
 Leave Link  101 at Thu Jan 21 22:38:24 2021, MaxMem=  4026531840 cpu:               0.9 elap:               0.2
 (Enter /opt/ohpc/pub/libs/gaussian/g16-A.03/sandybridge/g16/l202.exe)
 Stoichiometry    C36H28N2O4S2(1+,2)
 Framework group  C1[X(C36H28N2O4S2)]
 Deg. of freedom   210
 Full point group                 C1      NOp   1
 Largest Abelian subgroup         C1      NOp   1
 Largest concise Abelian subgroup C1      NOp   1
                         Standard orientation:                         
 ---------------------------------------------------------------------
 Center     Atomic      Atomic             Coordinates (Angstroms)
 Number     Number       Type             X           Y           Z
 ---------------------------------------------------------------------
      1          6           0       -1.748928    0.489907   -0.452051
      2          6           0       -0.626174    1.279763   -0.152570
      3         16           0        1.952753    5.388628   -0.812439
      4          6           0       -0.882312    2.170069    0.820725
      5          6           0        1.932708    2.897266    0.476539
      6          6           0        2.566514    3.761438   -0.418550
      7          6           0       -2.975354    0.631957    0.195801
      8          6           0       -2.049066    2.386893    1.545961
      9          1           0        0.246316    4.468801    0.586079
     10          6           0        2.384401    1.613824    0.700024
     11          6           0        3.673888    3.269502   -1.095477
     12          6           0        4.135912    1.984797   -0.893895
     13          6           0        3.494497    1.125461    0.002977
     14          1           0        1.857267    0.971131    1.395345
     15          1           0        4.176334    3.912174   -1.811785
     16          1           0        4.992977    1.632150   -1.456718
     17          6           0       -3.122467    1.590215    1.210611
     18          1           0       -1.688273   -0.276733   -1.226088
     19          1           0        2.539000    6.051116    0.206249
     20          1           0       -2.132551    3.120151    2.347153
     21          1           0       -4.068236    1.688167    1.734116
     22         16           0        0.491419    3.391365    1.378930
     23          7           0        3.940024   -0.175839    0.195205
     24          6           0        5.265040   -0.539150   -0.184549
     25          6           0        5.479402   -1.520085   -1.147894
     26          6           0        6.360048    0.068673    0.412912
     27          6           0        6.761446   -1.889048   -1.505778
     28          6           0        7.649207   -0.280692    0.044528
     29          6           0        7.852726   -1.265560   -0.913210
     30          1           0        4.624132   -2.002234   -1.612555
     31          1           0        6.198832    0.830082    1.170918
     32          1           0        6.936355   -2.656092   -2.253454
     33          1           0        8.499101    0.206598    0.518215
     34          6           0        3.067884   -1.217797    0.624973
     35          6           0        3.533169   -2.175669    1.516644
     36          6           0        1.768428   -1.324352    0.133595
     37          6           0        2.723890   -3.230889    1.904642
     38          6           0        0.952027   -2.363639    0.537000
     39          6           0        1.429133   -3.326131    1.415171
     40          1           0        4.545758   -2.102962    1.902377
     41          1           0        1.364259   -0.566763   -0.534909
     42          1           0        3.106488   -3.978127    2.597301
     43          1           0       -0.063643   -2.437107    0.162477
     44          7           0       -4.071583   -0.199288   -0.137893
     45          6           0       -5.379657    0.330758   -0.192504
     46          6           0       -6.464072   -0.381862    0.308117
     47          6           0       -5.615898    1.583782   -0.758482
     48          6           0       -7.748035    0.135409    0.237366
     49          6           0       -6.890741    2.113870   -0.808775
     50          6           0       -7.966332    1.388715   -0.314728
     51          1           0       -6.301182   -1.359246    0.752201
     52          1           0       -4.779992    2.148147   -1.160920
     53          1           0       -8.582756   -0.442294    0.630527
     54          1           0       -7.071352    3.090185   -1.247847
     55          6           0       -3.863071   -1.579858   -0.373004
     56          6           0       -4.488297   -2.228332   -1.435995
     57          6           0       -3.028002   -2.320518    0.455690
     58          6           0       -4.288516   -3.577498   -1.662294
     59          6           0       -2.802155   -3.666597    0.218956
     60          6           0       -3.435225   -4.300687   -0.840523
     61          1           0       -5.141183   -1.661753   -2.093518
     62          1           0       -2.533592   -1.828985    1.288374
     63          1           0       -4.774148   -4.081779   -2.492022
     64          1           0       -2.125658   -4.220184    0.867724
     65          8           0        0.584592   -4.343911    1.769173
     66          1           0        1.030590   -4.920168    2.399784
     67          8           0        9.095256   -1.661445   -1.308356
     68          1           0        9.763222   -1.159512   -0.827959
     69          8           0       -9.209724    1.953542   -0.400297
     70          1           0       -9.859516    1.347058   -0.028653
     71          8           0       -3.254007   -5.627948   -1.116747
     72          1           0       -2.609433   -5.991357   -0.499352
 ---------------------------------------------------------------------
 Rotational constants (GHZ):           0.1003685           0.0370235           0.0288534
 Leave Link  202 at Thu Jan 21 22:38:24 2021, MaxMem=  4026531840 cpu:               0.3 elap:               0.1
 (Enter /opt/ohpc/pub/libs/gaussian/g16-A.03/sandybridge/g16/l301.exe)
 Standard basis: TZVP (5D, 7F)
 Ernie: Thresh=  0.10000D-02 Tol=  0.10000D-05 Strict=F.
 There are  1054 symmetry adapted cartesian basis functions of A   symmetry.
 There are  1010 symmetry adapted basis functions of A   symmetry.
  1010 basis functions,  1788 primitive gaussians,  1054 cartesian basis functions
   161 alpha electrons      160 beta electrons
       nuclear repulsion energy      5277.7236652844 Hartrees.
 IExCor=33909 DFT=T Ex+Corr=LC-wHPBE ExCW=0 ScaHFX=  1.000000
 ScaDFX=  1.000000  1.000000  1.000000  1.000000 ScalE2=  1.000000  1.000000
 IRadAn=      5 IRanWt=     -1 IRanGd=            0 ICorTp=0 IEmpDi=  4
 HFx  wShort=  0.000000 wLong=  0.167500 cFull=  0.000000 cShort=  0.000000 cLong=  1.000000
 DFx  wShort=  0.000000 wLong=  0.167500 cFull=  0.000000 cShort=  1.000000 cLong=  0.000000
 NAtoms=   72 NActive=   72 NUniq=   72 SFac= 1.00D+00 NAtFMM=   60 NAOKFM=T Big=T
 Integral buffers will be    131072 words long.
 Raffenetti 2 integral format.
 Two-electron integral symmetry is turned on.
 Leave Link  301 at Thu Jan 21 22:38:25 2021, MaxMem=  4026531840 cpu:               0.3 elap:               0.1
 (Enter /opt/ohpc/pub/libs/gaussian/g16-A.03/sandybridge/g16/l302.exe)
 NPDir=0 NMtPBC=     1 NCelOv=     1 NCel=       1 NClECP=     1 NCelD=      1
         NCelK=      1 NCelE2=     1 NClLst=     1 CellRange=     0.0.
 One-electron integrals computed using PRISM.
 One-electron integral symmetry used in STVInt
 NBasis=  1010 RedAO= T EigKep=  6.33D-06  NBF=  1010
 NBsUse=  1010 1.00D-06 EigRej= -1.00D+00 NBFU=  1010
 Precomputing XC quadrature grid using
 IXCGrd= 4 IRadAn=           5 IRanWt=          -1 IRanGd=           0 AccXCQ= 0.00D+00.
 Generated NRdTot=       0 NPtTot=           0 NUsed=           0 NTot=          32
 NSgBfM=   960   960   960   960   960 MxSgAt=    72 MxSgA2=    72.
 Leave Link  302 at Thu Jan 21 22:38:29 2021, MaxMem=  4026531840 cpu:              32.7 elap:               4.9
 (Enter /opt/ohpc/pub/libs/gaussian/g16-A.03/sandybridge/g16/l303.exe)
 DipDrv:  MaxL=1.
 Leave Link  303 at Thu Jan 21 22:38:30 2021, MaxMem=  4026531840 cpu:               2.4 elap:               0.6
 (Enter /opt/ohpc/pub/libs/gaussian/g16-A.03/sandybridge/g16/l401.exe)
 ExpMin= 9.52D-02 ExpMax= 6.07D+04 ExpMxC= 2.07D+03 IAcc=3 IRadAn=         5 AccDes= 0.00D+00
 Harris functional with IExCor=33909 and IRadAn=       5 diagonalized for initial guess.
 HarFok:  IExCor=33909 AccDes= 0.00D+00 IRadAn=         5 IDoV= 1 UseB2=F ITyADJ=14
 ICtDFT=  3500011 ScaDFX=  1.000000  1.000000  1.000000  1.000000
 FoFCou: FMM=F IPFlag=           0 FMFlag=      100000 FMFlg1=        2001
         NFxFlg=           0 DoJE=T BraDBF=F KetDBF=T FulRan=T
         wScrn=  0.000000 ICntrl=       500 IOpCl=  0 I1Cent=   200000004 NGrid=           0
         NMat0=    1 NMatS0=      1 NMatT0=    0 NMatD0=    1 NMtDS0=    0 NMtDT0=    0
 Petite list used in FoFCou.
 Harris En= -2564.74380810021    
 JPrj=0 DoOrth=F DoCkMO=F.
 Initial guess <Sx>= 0.0000 <Sy>= 0.0000 <Sz>= 0.5000 <S**2>= 0.7500 S= 0.5000
 Leave Link  401 at Thu Jan 21 22:38:49 2021, MaxMem=  4026531840 cpu:             112.6 elap:              18.9
 (Enter /opt/ohpc/pub/libs/gaussian/g16-A.03/sandybridge/g16/l502.exe)
 Integral symmetry usage will be decided dynamically.
 UHF open shell SCF:
 Using DIIS extrapolation, IDIIS=    10.
 NGot=  4026531840 LenX=  4024291472 LenY=  4023179502
 Requested convergence on RMS density matrix=1.00D-06 within  32 cycles.
 Requested convergence on MAX density matrix=1.00D-04.
 Requested convergence on             energy=1.00D-04.
 Virtual orbitals will be shifted by   0.500 hartree.
 No special actions if energy rises.
 Dynamic level shift is on during FON iterations.

 Cycle   1  Pass 1  IDiag  1:
 FoFJK:  IHMeth= 1 ICntrl=       0 DoSepK=T KAlg= 0 I1Cent=           0 FoldK=F
 IRaf=         1 NMat=       1 IRICut=       1 DoRegI=T DoRafI=F ISym2E= 0 IDoP0=0 IntGTp=1.
 FoFCou: FMM=T IPFlag=           0 FMFlag=      100000 FMFlg1=        2001
         NFxFlg=           0 DoJE=T BraDBF=F KetDBF=F FulRan=T
         wScrn=  0.000000 ICntrl=       500 IOpCl=  0 I1Cent=           0 NGrid=           0
         NMat0=    1 NMatS0=      1 NMatT0=    0 NMatD0=    1 NMtDS0=    0 NMtDT0=    0
 Symmetry not used in FoFCou.
 FMM levels:  10  Number of levels for PrismC:   9
 E= -2592.77155328726    
 DIIS: error= 3.62D-02 at cycle   1 NSaved=   1.
 NSaved= 1 IEnMin= 1 EnMin= -2592.77155328726     IErMin= 1 ErrMin= 3.62D-02
 ErrMax= 3.62D-02  0.00D+00 EMaxC= 1.00D+00 BMatC= 3.73D+00 BMatP= 3.73D+00
 IDIUse=1 WtCom= 1.00D+00 WtEn= 0.00D+00
 Coeff-Com:  0.100D+01
 Coeff:      0.100D+01
 Gap=     0.441 Goal=   None    Shift=    0.500
 T= 1609. Gap= 0.424 NK=0 IS=  162 IE= 1010 IFin=  161
          NO(<0.9)=   0  NV(>0.1)=   0    161.00e < EF      0.00e >EF  Err=0.0D+00
 Gap=     0.008 Goal=   None    Shift=    0.500
 T= 1609. Gap= 0.366 NK=0 IS=  161 IE= 1010 IFin=  160
          NO(<0.9)=   0  NV(>0.1)=   0    160.00e < EF      0.00e >EF  Err=0.0D+00
 GapD=    0.008 DampG=0.250 DampE=0.500 DampFc=0.1250 IDamp=-1.
 Damping current iteration by 1.25D-01
 RMSDP=3.81D-03 MaxDP=4.83D-01              OVMax= 1.56D-01

 Cycle   2  Pass 1  IDiag  1:
 E= -2592.95458616022     Delta-E=       -0.183032872958 Rises=F Damp=T
 DIIS: error= 3.25D-02 at cycle   2 NSaved=   2.
 NSaved= 2 IEnMin= 2 EnMin= -2592.95458616022     IErMin= 2 ErrMin= 3.25D-02
 ErrMax= 3.25D-02  0.00D+00 EMaxC= 1.00D+00 BMatC= 2.60D+00 BMatP= 3.73D+00
 IDIUse=1 WtCom= 1.00D+00 WtEn= 0.00D+00
 Coeff-Com: -0.471D+01 0.571D+01
 Coeff:     -0.471D+01 0.571D+01
 Gap=     0.237 Goal=   None    Shift=    0.500
 T= 1588. Gap= 0.701 NK=4 IS=  162 IE=  184 IFin=  161
          NO(<0.9)=   0  NV(>0.1)=   0    161.00e < EF      0.00e >EF  Err=0.0D+00
 Gap=     0.091 Goal=   None    Shift=    0.500
 T= 1588. Gap= 0.570 NK=4 IS=  161 IE=  182 IFin=  160
          NO(<0.9)=   0  NV(>0.1)=   0    160.00e < EF      0.00e >EF  Err=0.0D+00
 GapD=    0.091 DampG=0.500 DampE=0.500 DampFc=0.2500 IDamp=-1.
 Damping current iteration by 2.50D-01
 RMSDP=3.00D-03 MaxDP=3.20D-01 DE=-1.83D-01 OVMax= 7.11D-02

 Cycle   3  Pass 1  IDiag  1:
 E= -2593.21313014294     Delta-E=       -0.258543982717 Rises=F Damp=T
 DIIS: error= 2.49D-02 at cycle   3 NSaved=   3.
 NSaved= 3 IEnMin= 3 EnMin= -2593.21313014294     IErMin= 3 ErrMin= 2.49D-02
 ErrMax= 2.49D-02  0.00D+00 EMaxC= 1.00D+00 BMatC= 1.34D+00 BMatP= 2.60D+00
 IDIUse=1 WtCom= 1.00D+00 WtEn= 0.00D+00
 Coeff-Com: -0.499D-01-0.241D+01 0.346D+01
 Coeff:     -0.499D-01-0.241D+01 0.346D+01
 Gap=     0.233 Goal=   None    Shift=    0.500
 T= 1520. Gap= 0.727 NK=4 IS=  162 IE=  183 IFin=  161
          NO(<0.9)=   0  NV(>0.1)=   0    161.00e < EF      0.00e >EF  Err=0.0D+00
 Gap=     0.082 Goal=   None    Shift=    0.500
 T= 1520. Gap= 0.582 NK=4 IS=  161 IE=  182 IFin=  160
          NO(<0.9)=   0  NV(>0.1)=   0    160.00e < EF      0.00e >EF  Err=0.0D+00
 GapD=    0.082 DampG=0.500 DampE=0.500 DampFc=0.2500 IDamp=-1.
 Damping current iteration by 2.50D-01
 RMSDP=1.91D-03 MaxDP=1.73D-01 DE=-2.59D-01 OVMax= 3.05D-02

 Cycle   4  Pass 1  IDiag  1:
 E= -2593.37018213668     Delta-E=       -0.157051993745 Rises=F Damp=T
 DIIS: error= 1.99D-02 at cycle   4 NSaved=   4.
 NSaved= 4 IEnMin= 4 EnMin= -2593.37018213668     IErMin= 4 ErrMin= 1.99D-02
 ErrMax= 1.99D-02  0.00D+00 EMaxC= 1.00D+00 BMatC= 7.17D-01 BMatP= 1.34D+00
 IDIUse=1 WtCom= 1.00D+00 WtEn= 0.00D+00
 Coeff-Com:  0.522D+00-0.708D+00-0.280D+01 0.399D+01
 Coeff:      0.522D+00-0.708D+00-0.280D+01 0.399D+01
 Gap=     0.230 Goal=   None    Shift=    0.500
 T= 1405. Gap= 0.730 NK=4 IS=  162 IE=  184 IFin=  161
          NO(<0.9)=   0  NV(>0.1)=   0    161.00e < EF      0.00e >EF  Err=0.0D+00
 Gap=     0.086 Goal=   None    Shift=    0.500
 T= 1405. Gap= 0.587 NK=4 IS=  161 IE=  183 IFin=  160
          NO(<0.9)=   0  NV(>0.1)=   0    160.00e < EF      0.00e >EF  Err=0.0D+00
 GapD=    0.086 DampG=0.500 DampE=0.500 DampFc=0.2500 IDamp=-1.
 Damping current iteration by 2.50D-01
 RMSDP=1.33D-03 MaxDP=1.27D-01 DE=-1.57D-01 OVMax= 3.12D-02

 Cycle   5  Pass 1  IDiag  1:
 E= -2593.47201010539     Delta-E=       -0.101827968709 Rises=F Damp=T
 DIIS: error= 1.61D-02 at cycle   5 NSaved=   5.
 NSaved= 5 IEnMin= 5 EnMin= -2593.47201010539     IErMin= 5 ErrMin= 1.61D-02
 ErrMax= 1.61D-02  0.00D+00 EMaxC= 1.00D+00 BMatC= 3.97D-01 BMatP= 7.17D-01
 IDIUse=1 WtCom= 1.00D+00 WtEn= 0.00D+00
 Coeff-Com:  0.911D-01 0.255D+00-0.369D+00-0.369D+01 0.471D+01
 Coeff:      0.911D-01 0.255D+00-0.369D+00-0.369D+01 0.471D+01
 Gap=     0.230 Goal=   None    Shift=    0.500
 T= 1262. Gap= 0.730 NK=4 IS=  162 IE=  184 IFin=  161
          NO(<0.9)=   0  NV(>0.1)=   0    161.00e < EF      0.00e >EF  Err=0.0D+00
 Gap=     0.090 Goal=   None    Shift=    0.500
 T= 1262. Gap= 0.592 NK=4 IS=  161 IE=  183 IFin=  160
          NO(<0.9)=   0  NV(>0.1)=   0    160.00e < EF      0.00e >EF  Err=0.0D+00
 GapD=    0.090 DampG=0.500 DampE=0.500 DampFc=0.2500 IDamp=-1.
 Damping current iteration by 2.50D-01
 RMSDP=9.78D-04 MaxDP=1.03D-01 DE=-1.02D-01 OVMax= 2.66D-02

 Cycle   6  Pass 1  IDiag  1:
 E= -2593.54109595531     Delta-E=       -0.069085849918 Rises=F Damp=T
 DIIS: error= 1.32D-02 at cycle   6 NSaved=   6.
 NSaved= 6 IEnMin= 6 EnMin= -2593.54109595531     IErMin= 6 ErrMin= 1.32D-02
 ErrMax= 1.32D-02  0.00D+00 EMaxC= 1.00D+00 BMatC= 2.23D-01 BMatP= 3.97D-01
 IDIUse=1 WtCom= 1.00D+00 WtEn= 0.00D+00
 Coeff-Com: -0.115D+00 0.307D+00 0.478D+00-0.582D+00-0.480D+01 0.572D+01
 Coeff:     -0.115D+00 0.307D+00 0.478D+00-0.582D+00-0.480D+01 0.572D+01
 Gap=     0.231 Goal=   None    Shift=    0.500
 T= 1135. Gap= 0.731 NK=4 IS=  162 IE=  184 IFin=  161
          NO(<0.9)=   0  NV(>0.1)=   0    161.00e < EF      0.00e >EF  Err=0.0D+00
 Gap=     0.094 Goal=   None    Shift=    0.500
 T= 1135. Gap= 0.595 NK=4 IS=  161 IE=  183 IFin=  160
          NO(<0.9)=   0  NV(>0.1)=   0    160.00e < EF      0.00e >EF  Err=0.0D+00
 GapD=    0.094 DampG=0.500 DampE=0.500 DampFc=0.2500 IDamp=-1.
 Damping current iteration by 2.50D-01
 RMSDP=7.59D-04 MaxDP=8.74D-02 DE=-6.91D-02 OVMax= 2.39D-02

 Cycle   7  Pass 1  IDiag  1:
 E= -2593.58947724153     Delta-E=       -0.048381286221 Rises=F Damp=T
 DIIS: error= 1.10D-02 at cycle   7 NSaved=   7.
 NSaved= 7 IEnMin= 7 EnMin= -2593.58947724153     IErMin= 7 ErrMin= 1.10D-02
 ErrMax= 1.10D-02  0.00D+00 EMaxC= 1.00D+00 BMatC= 1.25D-01 BMatP= 2.23D-01
 IDIUse=1 WtCom= 1.00D+00 WtEn= 0.00D+00
 Coeff-Com: -0.289D-01-0.123D+00 0.415D+00 0.203D+01-0.327D+01-0.495D+01
 Coeff-Com:  0.693D+01
 Coeff:     -0.289D-01-0.123D+00 0.415D+00 0.203D+01-0.327D+01-0.495D+01
 Coeff:      0.693D+01
 Gap=     0.230 Goal=   None    Shift=    0.500
 T= 1015. Gap= 0.730 NK=4 IS=  162 IE=  184 IFin=  161
          NO(<0.9)=   0  NV(>0.1)=   0    161.00e < EF      0.00e >EF  Err=0.0D+00
 Gap=     0.098 Goal=   None    Shift=    0.500
 T= 1015. Gap= 0.599 NK=4 IS=  161 IE=  182 IFin=  160
          NO(<0.9)=   0  NV(>0.1)=   0    160.00e < EF      0.00e >EF  Err=0.0D+00
 GapD=    0.098 DampG=0.500 DampE=0.500 DampFc=0.2500 IDamp=-1.
 Damping current iteration by 2.50D-01
 RMSDP=6.09D-04 MaxDP=6.94D-02 DE=-4.84D-02 OVMax= 2.18D-02

 Cycle   8  Pass 1  IDiag  1:
 E= -2593.62400968410     Delta-E=       -0.034532442563 Rises=F Damp=T
 DIIS: error= 9.12D-03 at cycle   8 NSaved=   8.
 NSaved= 8 IEnMin= 8 EnMin= -2593.62400968410     IErMin= 8 ErrMin= 9.12D-03
 ErrMax= 9.12D-03  0.00D+00 EMaxC= 1.00D+00 BMatC= 7.11D-02 BMatP= 1.25D-01
 IDIUse=1 WtCom= 1.00D+00 WtEn= 0.00D+00
 Coeff-Com:  0.848D-01-0.314D+00 0.988D-01 0.122D+01 0.855D+00-0.313D+01
 Coeff-Com: -0.508D+01 0.727D+01
 Coeff:      0.848D-01-0.314D+00 0.988D-01 0.122D+01 0.855D+00-0.313D+01
 Coeff:     -0.508D+01 0.727D+01
 Gap=     0.229 Goal=   None    Shift=    0.500
 T=  900. Gap= 0.729 NK=4 IS=  162 IE=  184 IFin=  161
          NO(<0.9)=   0  NV(>0.1)=   0    161.00e < EF      0.00e >EF  Err=0.0D+00
 Gap=     0.101 Goal=   None    Shift=    0.500
 T=  900. Gap= 0.601 NK=4 IS=  161 IE=  182 IFin=  160
          NO(<0.9)=   0  NV(>0.1)=   0    160.00e < EF      0.00e >EF  Err=0.0D+00
 GapD=    0.101 DampG=1.000 DampE=1.000 DampFc=1.0000 IDamp=-1.
 RMSDP=4.97D-04 MaxDP=6.50D-02 DE=-3.45D-02 OVMax= 2.02D-02

 Cycle   9  Pass 1  IDiag  1:
 E= -2593.72027535160     Delta-E=       -0.096265667507 Rises=F Damp=F
 DIIS: error= 3.43D-03 at cycle   9 NSaved=   9.
 NSaved= 9 IEnMin= 9 EnMin= -2593.72027535160     IErMin= 9 ErrMin= 3.43D-03
 ErrMax= 3.43D-03  0.00D+00 EMaxC= 1.00D+00 BMatC= 5.25D-04 BMatP= 7.11D-02
 IDIUse=1 WtCom= 1.00D+00 WtEn= 0.00D+00
 Coeff-Com:  0.948D-01-0.252D+00-0.791D-01 0.140D+00 0.236D+01-0.329D+00
 Coeff-Com: -0.671D+01 0.464D+01 0.113D+01
 Coeff:      0.948D-01-0.252D+00-0.791D-01 0.140D+00 0.236D+01-0.329D+00
 Coeff:     -0.671D+01 0.464D+01 0.113D+01
 Gap=     0.229 Goal=   None    Shift=    0.500
 T=  691. Gap= 0.729 NK=4 IS=  162 IE=  184 IFin=  161
          NO(<0.9)=   0  NV(>0.1)=   0    161.00e < EF      0.00e >EF  Err=0.0D+00
 Gap=     0.102 Goal=   None    Shift=    0.500
 T=  691. Gap= 0.603 NK=4 IS=  161 IE=  182 IFin=  160
          NO(<0.9)=   0  NV(>0.1)=   0    160.00e < EF      0.00e >EF  Err=0.0D+00
 GapD=    0.102 DampG=1.000 DampE=1.000 DampFc=1.0000 IDamp=-1.
 RMSDP=6.81D-05 MaxDP=8.69D-03 DE=-9.63D-02 OVMax= 1.60D-02

 Cycle  10  Pass 1  IDiag  1:
 E= -2593.72121461847     Delta-E=       -0.000939266867 Rises=F Damp=F
 DIIS: error= 2.70D-03 at cycle  10 NSaved=  10.
 NSaved=10 IEnMin=10 EnMin= -2593.72121461847     IErMin=10 ErrMin= 2.70D-03
 ErrMax= 2.70D-03  0.00D+00 EMaxC= 1.00D+00 BMatC= 3.66D-04 BMatP= 5.25D-04
 IDIUse=1 WtCom= 1.00D+00 WtEn= 0.00D+00
 Coeff-Com: -0.215D-01 0.883D-01-0.678D-01-0.446D+00-0.923D-01 0.256D+01
 Coeff-Com: -0.252D+01 0.343D+00-0.295D+01 0.410D+01
 Coeff:     -0.215D-01 0.883D-01-0.678D-01-0.446D+00-0.923D-01 0.256D+01
 Coeff:     -0.252D+01 0.343D+00-0.295D+01 0.410D+01
 Gap=     0.228 Goal=   None    Shift=    0.500
 T=  431. Gap= 0.728 NK=4 IS=  162 IE=  184 IFin=  161
          NO(<0.9)=   0  NV(>0.1)=   0    161.00e < EF      0.00e >EF  Err=0.0D+00
 Gap=     0.104 Goal=   None    Shift=    0.500
 T=  431. Gap= 0.605 NK=4 IS=  161 IE=  181 IFin=  160
          NO(<0.9)=   0  NV(>0.1)=   0    160.00e < EF      0.00e >EF  Err=0.0D+00
 GapD=    0.104 DampG=1.000 DampE=1.000 DampFc=1.0000 IDamp=-1.
 RMSDP=8.16D-05 MaxDP=1.12D-02 DE=-9.39D-04 OVMax= 1.94D-02

 Cycle  11  Pass 1  IDiag  1:
 E= -2593.72199281104     Delta-E=       -0.000778192571 Rises=F Damp=F
 DIIS: error= 2.02D-03 at cycle  11 NSaved=  11.
 NSaved=11 IEnMin=11 EnMin= -2593.72199281104     IErMin=11 ErrMin= 2.02D-03
 ErrMax= 2.02D-03  0.00D+00 EMaxC= 1.00D+00 BMatC= 2.84D-04 BMatP= 3.66D-04
 IDIUse=1 WtCom= 1.00D+00 WtEn= 0.00D+00
 Coeff-Com: -0.318D-01 0.102D+00-0.206D-01-0.397D+00-0.439D+00 0.202D+01
 Coeff-Com: -0.742D+00-0.602D+00-0.287D+01 0.343D+01 0.550D+00
 Coeff:     -0.318D-01 0.102D+00-0.206D-01-0.397D+00-0.439D+00 0.202D+01
 Coeff:     -0.742D+00-0.602D+00-0.287D+01 0.343D+01 0.550D+00
 Gap=     0.228 Goal=   None    Shift=    0.500
 T=   56. Gap= 0.728 NK=4 IS=  162 IE=  184 IFin=  161
          NO(<0.9)=   0  NV(>0.1)=   0    161.00e < EF      0.00e >EF  Err=0.0D+00
 Gap=     0.105 Goal=   None    Shift=    0.500
 T=   56. Gap= 0.606 NK=4 IS=  161 IE=  181 IFin=  160
          NO(<0.9)=   0  NV(>0.1)=   0    160.00e < EF      0.00e >EF  Err=0.0D+00
 GapD=    0.105 DampG=1.000 DampE=1.000 DampFc=1.0000 IDamp=-1.
 RMSDP=5.02D-05 MaxDP=5.24D-03 DE=-7.78D-04 OVMax= 1.66D-02

 Cycle  12  Pass 1  IDiag  1:
 E= -2593.72249816475     Delta-E=       -0.000505353705 Rises=F Damp=F
 DIIS: error= 1.51D-03 at cycle  12 NSaved=  12.
 NSaved=12 IEnMin=12 EnMin= -2593.72249816475     IErMin=12 ErrMin= 1.51D-03
 ErrMax= 1.51D-03  0.00D+00 EMaxC= 1.00D+00 BMatC= 1.97D-04 BMatP= 2.84D-04
 IDIUse=1 WtCom= 1.00D+00 WtEn= 0.00D+00
 Coeff-Com: -0.360D-02 0.425D-02 0.881D-01 0.940D-01-0.108D+01 0.582D-01
 Coeff-Com:  0.355D+01-0.296D+01 0.156D+00-0.931D-01-0.274D+01 0.391D+01
 Coeff:     -0.360D-02 0.425D-02 0.881D-01 0.940D-01-0.108D+01 0.582D-01
 Coeff:      0.355D+01-0.296D+01 0.156D+00-0.931D-01-0.274D+01 0.391D+01
 Gap=     0.228 Goal=   None    Shift=    0.500
 Gap=     0.106 Goal=   None    Shift=    0.500
 GapD=    0.106 DampG=1.000 DampE=1.000 DampFc=1.0000 IDamp=-1.
 RMSDP=5.84D-05 MaxDP=8.65D-03 DE=-5.05D-04 OVMax= 1.83D-02

 Cycle  13  Pass 1  IDiag  1:
 E= -2593.72290542173     Delta-E=       -0.000407256979 Rises=F Damp=F
 DIIS: error= 1.25D-03 at cycle  13 NSaved=  13.
 NSaved=13 IEnMin=13 EnMin= -2593.72290542173     IErMin=13 ErrMin= 1.25D-03
 ErrMax= 1.25D-03  0.00D+00 EMaxC= 1.00D+00 BMatC= 1.64D-04 BMatP= 1.97D-04
 IDIUse=1 WtCom= 1.00D+00 WtEn= 0.00D+00
 Coeff-Com:  0.107D-01-0.417D-01 0.907D-01 0.141D+00-0.379D+00-0.109D+01
 Coeff-Com:  0.344D+01-0.241D+01 0.153D+01-0.145D+01-0.366D+01 0.372D+01
 Coeff-Com:  0.109D+01
 Coeff:      0.107D-01-0.417D-01 0.907D-01 0.141D+00-0.379D+00-0.109D+01
 Coeff:      0.344D+01-0.241D+01 0.153D+01-0.145D+01-0.366D+01 0.372D+01
 Coeff:      0.109D+01
 Gap=     0.228 Goal=   None    Shift=    0.500
 Gap=     0.107 Goal=   None    Shift=    0.500
 GapD=    0.107 DampG=1.000 DampE=1.000 DampFc=1.0000 IDamp=-1.
 RMSDP=4.87D-05 MaxDP=6.65D-03 DE=-4.07D-04 OVMax= 1.79D-02

 Cycle  14  Pass 1  IDiag  1:
 E= -2593.72322754953     Delta-E=       -0.000322127808 Rises=F Damp=F
 DIIS: error= 1.24D-03 at cycle  14 NSaved=  14.
 NSaved=14 IEnMin=14 EnMin= -2593.72322754953     IErMin=14 ErrMin= 1.24D-03
 ErrMax= 1.24D-03  0.00D+00 EMaxC= 1.00D+00 BMatC= 1.33D-04 BMatP= 1.64D-04
 IDIUse=1 WtCom= 1.00D+00 WtEn= 0.00D+00
 Coeff-Com:  0.172D-01-0.461D-01-0.434D-02-0.754D-01 0.100D+01-0.121D+01
 Coeff-Com: -0.167D+00 0.413D+00 0.150D+01-0.117D+01-0.258D+01 0.208D+01
 Coeff-Com: -0.141D+01 0.266D+01
 Coeff:      0.172D-01-0.461D-01-0.434D-02-0.754D-01 0.100D+01-0.121D+01
 Coeff:     -0.167D+00 0.413D+00 0.150D+01-0.117D+01-0.258D+01 0.208D+01
 Coeff:     -0.141D+01 0.266D+01
 Gap=     0.228 Goal=   None    Shift=    0.500
 Gap=     0.107 Goal=   None    Shift=    0.500
 GapD=    0.107 DampG=1.000 DampE=1.000 DampFc=1.0000 IDamp=-1.
 RMSDP=4.96D-05 MaxDP=7.08D-03 DE=-3.22D-04 OVMax= 1.81D-02

 Cycle  15  Pass 1  IDiag  1:
 E= -2593.72349993739     Delta-E=       -0.000272387855 Rises=F Damp=F
 DIIS: error= 1.26D-03 at cycle  15 NSaved=  15.
 NSaved=15 IEnMin=15 EnMin= -2593.72349993739     IErMin=14 ErrMin= 1.24D-03
 ErrMax= 1.26D-03  0.00D+00 EMaxC= 1.00D+00 BMatC= 1.23D-04 BMatP= 1.33D-04
 IDIUse=1 WtCom= 1.00D+00 WtEn= 0.00D+00
 Coeff-Com:  0.147D-01-0.296D-01-0.474D-01-0.157D+00 0.123D+01-0.926D+00
 Coeff-Com: -0.100D+01 0.851D+00 0.108D+01-0.567D+00-0.201D+01 0.164D+01
 Coeff-Com: -0.197D+01 0.183D+01 0.106D+01
 Coeff:      0.147D-01-0.296D-01-0.474D-01-0.157D+00 0.123D+01-0.926D+00
 Coeff:     -0.100D+01 0.851D+00 0.108D+01-0.567D+00-0.201D+01 0.164D+01
 Coeff:     -0.197D+01 0.183D+01 0.106D+01
 Gap=     0.228 Goal=   None    Shift=    0.500
 Gap=     0.108 Goal=   None    Shift=    0.500
 GapD=    0.108 DampG=1.000 DampE=1.000 DampFc=1.0000 IDamp=-1.
 RMSDP=3.85D-05 MaxDP=4.64D-03 DE=-2.72D-04 OVMax= 1.62D-02

 Cycle  16  Pass 1  IDiag  1:
 E= -2593.72371834548     Delta-E=       -0.000218408094 Rises=F Damp=F
 DIIS: error= 1.22D-03 at cycle  16 NSaved=  16.
 NSaved=16 IEnMin=16 EnMin= -2593.72371834548     IErMin=16 ErrMin= 1.22D-03
 ErrMax= 1.22D-03  0.00D+00 EMaxC= 1.00D+00 BMatC= 9.99D-05 BMatP= 1.23D-04
 IDIUse=1 WtCom= 1.00D+00 WtEn= 0.00D+00
 Coeff-Com:  0.459D-02 0.250D-01-0.975D-01-0.133D+00 0.102D+00 0.954D+00
 Coeff-Com: -0.325D+00-0.845D+00 0.826D-01 0.743D+00-0.219D+00 0.546D+00
 Coeff-Com: -0.410D+00-0.267D+01-0.205D+01 0.529D+01
 Coeff:      0.459D-02 0.250D-01-0.975D-01-0.133D+00 0.102D+00 0.954D+00
 Coeff:     -0.325D+00-0.845D+00 0.826D-01 0.743D+00-0.219D+00 0.546D+00
 Coeff:     -0.410D+00-0.267D+01-0.205D+01 0.529D+01
 Gap=     0.227 Goal=   None    Shift=    0.500
 Gap=     0.109 Goal=   None    Shift=    0.500
 GapD=    0.109 DampG=1.000 DampE=1.000 DampFc=1.0000 IDamp=-1.
 RMSDP=8.06D-05 MaxDP=1.34D-02 DE=-2.18D-04 OVMax= 2.20D-02

 Cycle  17  Pass 1  IDiag  1:
 E= -2593.72395209132     Delta-E=       -0.000233745835 Rises=F Damp=F
 DIIS: error= 1.38D-03 at cycle  17 NSaved=  17.
 NSaved=17 IEnMin=17 EnMin= -2593.72395209132     IErMin=16 ErrMin= 1.22D-03
 ErrMax= 1.38D-03  0.00D+00 EMaxC= 1.00D+00 BMatC= 2.14D-04 BMatP= 9.99D-05
 IDIUse=1 WtCom= 1.00D+00 WtEn= 0.00D+00
 Coeff-Com:  0.252D-02 0.272D-01-0.850D-01-0.970D-01-0.395D-01 0.718D+00
 Coeff-Com:  0.539D+00-0.141D+01-0.384D-01 0.876D+00-0.383D+00 0.945D+00
 Coeff-Com: -0.222D+00-0.266D+01-0.317D+01 0.567D+01 0.317D+00
 Coeff:      0.252D-02 0.272D-01-0.850D-01-0.970D-01-0.395D-01 0.718D+00
 Coeff:      0.539D+00-0.141D+01-0.384D-01 0.876D+00-0.383D+00 0.945D+00
 Coeff:     -0.222D+00-0.266D+01-0.317D+01 0.567D+01 0.317D+00
 Gap=     0.227 Goal=   None    Shift=    0.500
 Gap=     0.109 Goal=   None    Shift=    0.500
 GapD=    0.109 DampG=1.000 DampE=1.000 DampFc=1.0000 IDamp=-1.
 RMSDP=4.79D-05 MaxDP=6.14D-03 DE=-2.34D-04 OVMax= 1.83D-02

 Cycle  18  Pass 1  IDiag  1:
 E= -2593.72414879488     Delta-E=       -0.000196703560 Rises=F Damp=F
 DIIS: error= 1.37D-03 at cycle  18 NSaved=  18.
 NSaved=18 IEnMin=18 EnMin= -2593.72414879488     IErMin=16 ErrMin= 1.22D-03
 ErrMax= 1.37D-03  0.00D+00 EMaxC= 1.00D+00 BMatC= 2.07D-04 BMatP= 9.99D-05
 IDIUse=1 WtCom= 1.00D+00 WtEn= 0.00D+00
 Coeff-Com:  0.185D-02 0.183D-01-0.469D-01-0.142D+00 0.115D+00 0.428D+00
 Coeff-Com:  0.520D+00-0.120D+01 0.119D+00 0.547D+00-0.463D+00 0.942D+00
 Coeff-Com: -0.502D-01-0.175D+01-0.301D+01 0.474D+01-0.203D+01 0.226D+01
 Coeff:      0.185D-02 0.183D-01-0.469D-01-0.142D+00 0.115D+00 0.428D+00
 Coeff:      0.520D+00-0.120D+01 0.119D+00 0.547D+00-0.463D+00 0.942D+00
 Coeff:     -0.502D-01-0.175D+01-0.301D+01 0.474D+01-0.203D+01 0.226D+01
 Gap=     0.226 Goal=   None    Shift=    0.500
 Gap=     0.110 Goal=   None    Shift=    0.500
 GapD=    0.110 DampG=1.000 DampE=1.000 DampFc=1.0000 IDamp=-1.
 RMSDP=4.47D-05 MaxDP=5.71D-03 DE=-1.97D-04 OVMax= 1.75D-02

 Cycle  19  Pass 1  IDiag  1:
 E= -2593.72432486975     Delta-E=       -0.000176074870 Rises=F Damp=F
 DIIS: error= 1.32D-03 at cycle  19 NSaved=  19.
 NSaved=19 IEnMin=19 EnMin= -2593.72432486975     IErMin=16 ErrMin= 1.22D-03
 ErrMax= 1.32D-03  0.00D+00 EMaxC= 1.00D+00 BMatC= 1.87D-04 BMatP= 9.99D-05
 IDIUse=1 WtCom= 1.00D+00 WtEn= 0.00D+00
 Coeff-Com:  0.270D-02 0.108D-01-0.359D-01-0.153D+00 0.255D+00 0.277D+00
 Coeff-Com:  0.230D+00-0.846D+00 0.452D+00 0.670D-02-0.572D+00 0.812D+00
 Coeff-Com:  0.885D-01-0.101D+01-0.144D+01 0.286D+01-0.252D+01-0.190D+00
 Coeff-Com:  0.278D+01
 Coeff:      0.270D-02 0.108D-01-0.359D-01-0.153D+00 0.255D+00 0.277D+00
 Coeff:      0.230D+00-0.846D+00 0.452D+00 0.670D-02-0.572D+00 0.812D+00
 Coeff:      0.885D-01-0.101D+01-0.144D+01 0.286D+01-0.252D+01-0.190D+00
 Coeff:      0.278D+01
 Gap=     0.226 Goal=   None    Shift=    0.500
 Gap=     0.111 Goal=   None    Shift=    0.500
 GapD=    0.111 DampG=1.000 DampE=1.000 DampFc=1.0000 IDamp=-1.
 RMSDP=5.14D-05 MaxDP=7.40D-03 DE=-1.76D-04 OVMax= 1.81D-02

 Cycle  20  Pass 1  IDiag  1:
 E= -2593.72448143513     Delta-E=       -0.000156565387 Rises=F Damp=F
 DIIS: error= 1.32D-03 at cycle  20 NSaved=  20.
 NSaved=20 IEnMin=20 EnMin= -2593.72448143513     IErMin=16 ErrMin= 1.22D-03
 ErrMax= 1.32D-03  0.00D+00 EMaxC= 1.00D+00 BMatC= 2.10D-04 BMatP= 9.99D-05
 IDIUse=1 WtCom= 1.00D+00 WtEn= 0.00D+00
 Coeff-Com:  0.569D-02 0.101D-01-0.910D-01-0.849D-01 0.438D+00 0.243D+00
 Coeff-Com: -0.536D+00-0.195D+00 0.721D+00-0.290D+00-0.728D+00 0.683D+00
 Coeff-Com: -0.382D+00-0.399D+00 0.405D+00 0.170D+01-0.119D+01-0.412D+01
 Coeff-Com:  0.196D+01 0.285D+01
 Coeff:      0.569D-02 0.101D-01-0.910D-01-0.849D-01 0.438D+00 0.243D+00
 Coeff:     -0.536D+00-0.195D+00 0.721D+00-0.290D+00-0.728D+00 0.683D+00
 Coeff:     -0.382D+00-0.399D+00 0.405D+00 0.170D+01-0.119D+01-0.412D+01
 Coeff:      0.196D+01 0.285D+01
 Gap=     0.226 Goal=   None    Shift=    0.500
 Gap=     0.111 Goal=   None    Shift=    0.500
 GapD=    0.111 DampG=1.000 DampE=1.000 DampFc=1.0000 IDamp=-1.
 RMSDP=6.36D-05 MaxDP=9.97D-03 DE=-1.57D-04 OVMax= 1.97D-02

 Cycle  21  Pass 1  IDiag  1:
 E= -2593.72461847690     Delta-E=       -0.000137041764 Rises=F Damp=F
 DIIS: error= 1.37D-03 at cycle  21 NSaved=  20.
 NSaved=20 IEnMin=20 EnMin= -2593.72461847690     IErMin=15 ErrMin= 1.22D-03
 ErrMax= 1.37D-03  0.00D+00 EMaxC= 1.00D+00 BMatC= 3.04D-04 BMatP= 9.99D-05
 IDIUse=1 WtCom= 1.00D+00 WtEn= 0.00D+00
 Coeff-Com:  0.209D-01-0.818D-01-0.963D-01 0.351D+00 0.317D+00-0.427D+00
 Coeff-Com: -0.292D+00 0.626D+00-0.185D+00-0.688D+00 0.687D+00-0.405D+00
 Coeff-Com: -0.462D+00 0.310D+00 0.185D+01-0.121D+01-0.401D+01 0.187D+01
 Coeff-Com:  0.270D+01 0.130D+00
 Coeff:      0.209D-01-0.818D-01-0.963D-01 0.351D+00 0.317D+00-0.427D+00
 Coeff:     -0.292D+00 0.626D+00-0.185D+00-0.688D+00 0.687D+00-0.405D+00
 Coeff:     -0.462D+00 0.310D+00 0.185D+01-0.121D+01-0.401D+01 0.187D+01
 Coeff:      0.270D+01 0.130D+00
 Gap=     0.226 Goal=   None    Shift=    0.500
 Gap=     0.112 Goal=   None    Shift=    0.500
 GapD=    0.112 DampG=1.000 DampE=1.000 DampFc=1.0000 IDamp=-1.
 RMSDP=3.67D-05 MaxDP=3.94D-03 DE=-1.37D-04 OVMax= 1.58D-02

 Cycle  22  Pass 1  IDiag  1:
 E= -2593.72475418456     Delta-E=       -0.000135707662 Rises=F Damp=F
 DIIS: error= 1.27D-03 at cycle  22 NSaved=  20.
 NSaved=20 IEnMin=20 EnMin= -2593.72475418456     IErMin=14 ErrMin= 1.22D-03
 ErrMax= 1.27D-03  0.00D+00 EMaxC= 1.00D+00 BMatC= 2.32D-04 BMatP= 9.99D-05
 IDIUse=1 WtCom= 1.00D+00 WtEn= 0.00D+00
 Coeff-Com: -0.413D-01 0.657D-01-0.101D+00 0.930D+00-0.158D+01 0.657D+00
 Coeff-Com:  0.335D+00-0.113D+00 0.303D+00-0.899D+00 0.364D+00-0.173D+01
 Coeff-Com:  0.257D+01-0.106D+01 0.555D+01-0.788D+01 0.734D+00 0.377D+01
 Coeff-Com: -0.897D+01 0.809D+01
 Coeff:     -0.413D-01 0.657D-01-0.101D+00 0.930D+00-0.158D+01 0.657D+00
 Coeff:      0.335D+00-0.113D+00 0.303D+00-0.899D+00 0.364D+00-0.173D+01
 Coeff:      0.257D+01-0.106D+01 0.555D+01-0.788D+01 0.734D+00 0.377D+01
 Coeff:     -0.897D+01 0.809D+01
 Gap=     0.225 Goal=   None    Shift=    0.500
 Gap=     0.112 Goal=   None    Shift=    0.500
 GapD=    0.112 DampG=1.000 DampE=1.000 DampFc=1.0000 IDamp=-1.
 RMSDP=7.21D-05 MaxDP=1.17D-02 DE=-1.36D-04 OVMax= 1.95D-02

 Cycle  23  Pass 1  IDiag  1:
 E= -2593.72483404512     Delta-E=       -0.000079860563 Rises=F Damp=F
 DIIS: error= 1.39D-03 at cycle  23 NSaved=  20.
 NSaved=20 IEnMin=20 EnMin= -2593.72483404512     IErMin=13 ErrMin= 1.22D-03
 ErrMax= 1.39D-03  0.00D+00 EMaxC= 1.00D+00 BMatC= 4.38D-04 BMatP= 9.99D-05
 IDIUse=1 WtCom= 1.00D+00 WtEn= 0.00D+00
 Large coefficients: NSaved= 20 BigCof=   13.36 CofMax=   10.00 Det=-8.05D-08
 Inversion failed.  Reducing to 19 matrices.
 Large coefficients: NSaved= 19 BigCof=   13.36 CofMax=   10.00 Det=-8.05D-08
 Inversion failed.  Reducing to 18 matrices.
 Large coefficients: NSaved= 18 BigCof=   12.83 CofMax=   10.00 Det=-8.40D-08
 Inversion failed.  Reducing to 17 matrices.
 Large coefficients: NSaved= 17 BigCof=   12.15 CofMax=   10.00 Det=-8.71D-08
 Inversion failed.  Reducing to 16 matrices.
 Large coefficients: NSaved= 16 BigCof=   12.48 CofMax=   10.00 Det=-9.00D-08
 Inversion failed.  Reducing to 15 matrices.
 Large coefficients: NSaved= 15 BigCof=   12.40 CofMax=   10.00 Det=-9.08D-08
 Inversion failed.  Reducing to 14 matrices.
 Large coefficients: NSaved= 14 BigCof=   12.22 CofMax=   10.00 Det=-9.69D-08
 Inversion failed.  Reducing to 13 matrices.
 Large coefficients: NSaved= 13 BigCof=   12.66 CofMax=   10.00 Det=-9.95D-08
 Inversion failed.  Reducing to 12 matrices.
 Large coefficients: NSaved= 12 BigCof=   12.22 CofMax=   10.00 Det=-1.08D-07
 Inversion failed.  Reducing to 11 matrices.
 Large coefficients: NSaved= 11 BigCof=   11.68 CofMax=   10.00 Det=-1.21D-07
 Inversion failed.  Reducing to 10 matrices.
 Large coefficients: NSaved= 10 BigCof=   11.68 CofMax=   10.00 Det=-1.21D-07
 Inversion failed.  Reducing to  9 matrices.
 Large coefficients: NSaved=  9 BigCof=   11.20 CofMax=   10.00 Det=-1.23D-07
 Inversion failed.  Reducing to  8 matrices.
 Large coefficients: NSaved=  8 BigCof=   11.18 CofMax=   10.00 Det=-1.25D-07
 Inversion failed.  Reducing to  7 matrices.
 Coeff-Com:  0.294D+01-0.483D+01 0.852D+00 0.247D+01-0.768D+01 0.646D+01
 Coeff-Com:  0.792D+00
 Coeff:      0.294D+01-0.483D+01 0.852D+00 0.247D+01-0.768D+01 0.646D+01
 Coeff:      0.792D+00
 Gap=     0.225 Goal=   None    Shift=    0.500
 Gap=     0.113 Goal=   None    Shift=    0.500
 GapD=    0.113 DampG=1.000 DampE=1.000 DampFc=1.0000 IDamp=-1.
 RMSDP=4.17D-05 MaxDP=5.24D-03 DE=-7.99D-05 OVMax= 1.60D-02

 Cycle  24  Pass 1  IDiag  1:
 E= -2593.72494334700     Delta-E=       -0.000109301873 Rises=F Damp=F
 DIIS: error= 1.31D-03 at cycle  24 NSaved=   8.
 NSaved= 8 IEnMin= 8 EnMin= -2593.72494334700     IErMin= 6 ErrMin= 1.27D-03
 ErrMax= 1.31D-03  0.00D+00 EMaxC= 1.00D+00 BMatC= 3.95D-04 BMatP= 1.87D-04
 IDIUse=1 WtCom= 1.00D+00 WtEn= 0.00D+00
 Coeff-Com:  0.355D+01-0.545D+01 0.832D+00 0.252D+01-0.746D+01 0.614D+01
 Coeff-Com: -0.741D-01 0.949D+00
 Coeff:      0.355D+01-0.545D+01 0.832D+00 0.252D+01-0.746D+01 0.614D+01
 Coeff:     -0.741D-01 0.949D+00
 Gap=     0.225 Goal=   None    Shift=    0.500
 Gap=     0.113 Goal=   None    Shift=    0.500
 GapD=    0.113 DampG=1.000 DampE=1.000 DampFc=1.0000 IDamp=-1.
 RMSDP=3.02D-05 MaxDP=3.25D-03 DE=-1.09D-04 OVMax= 1.33D-02

 Cycle  25  Pass 1  IDiag  1:
 E= -2593.72504330196     Delta-E=       -0.000099954967 Rises=F Damp=F
 DIIS: error= 1.19D-03 at cycle  25 NSaved=   9.
 NSaved= 9 IEnMin= 9 EnMin= -2593.72504330196     IErMin= 9 ErrMin= 1.19D-03
 ErrMax= 1.19D-03  0.00D+00 EMaxC= 1.00D+00 BMatC= 2.98D-04 BMatP= 1.87D-04
 IDIUse=1 WtCom= 1.00D+00 WtEn= 0.00D+00
 Coeff-Com:  0.180D+01-0.394D+01 0.167D+01 0.166D+01-0.115D+01 0.283D+00
 Coeff-Com: -0.111D+01-0.270D+01 0.448D+01
 Coeff:      0.180D+01-0.394D+01 0.167D+01 0.166D+01-0.115D+01 0.283D+00
 Coeff:     -0.111D+01-0.270D+01 0.448D+01
 Gap=     0.225 Goal=   None    Shift=    0.500
 Gap=     0.112 Goal=   None    Shift=    0.500
 GapD=    0.112 DampG=1.000 DampE=1.000 DampFc=1.0000 IDamp=-1.
 RMSDP=2.47D-05 MaxDP=2.66D-03 DE=-1.00D-04 OVMax= 1.11D-02

 Cycle  26  Pass 1  IDiag  1:
 E= -2593.72512463287     Delta-E=       -0.000081330903 Rises=F Damp=F
 DIIS: error= 1.07D-03 at cycle  26 NSaved=  10.
 NSaved=10 IEnMin=10 EnMin= -2593.72512463287     IErMin=10 ErrMin= 1.07D-03
 ErrMax= 1.07D-03  0.00D+00 EMaxC= 1.00D+00 BMatC= 2.17D-04 BMatP= 1.87D-04
 IDIUse=1 WtCom= 1.00D+00 WtEn= 0.00D+00
 Coeff-Com:  0.252D+00-0.185D+01 0.150D+01 0.100D+01 0.153D+01-0.222D+01
 Coeff-Com: -0.942D+00-0.310D+01 0.240D+01 0.243D+01
 Coeff:      0.252D+00-0.185D+01 0.150D+01 0.100D+01 0.153D+01-0.222D+01
 Coeff:     -0.942D+00-0.310D+01 0.240D+01 0.243D+01
 Gap=     0.224 Goal=   None    Shift=    0.500
 Gap=     0.113 Goal=   None    Shift=    0.500
 GapD=    0.113 DampG=1.000 DampE=1.000 DampFc=1.0000 IDamp=-1.
 RMSDP=3.07D-05 MaxDP=4.01D-03 DE=-8.13D-05 OVMax= 1.11D-02

 Cycle  27  Pass 1  IDiag  1:
 E= -2593.72518305017     Delta-E=       -0.000058417303 Rises=F Damp=F
 DIIS: error= 1.01D-03 at cycle  27 NSaved=  11.
 NSaved=11 IEnMin=11 EnMin= -2593.72518305017     IErMin=11 ErrMin= 1.01D-03
 ErrMax= 1.01D-03  0.00D+00 EMaxC= 1.00D+00 BMatC= 2.07D-04 BMatP= 1.87D-04
 IDIUse=1 WtCom= 1.00D+00 WtEn= 0.00D+00
 Coeff-Com:  0.181D+00-0.714D+00 0.358D+00 0.134D+01-0.176D+01 0.619D+00
 Coeff-Com: -0.169D+00-0.495D+00-0.177D+01 0.112D+01 0.229D+01
 Coeff:      0.181D+00-0.714D+00 0.358D+00 0.134D+01-0.176D+01 0.619D+00
 Coeff:     -0.169D+00-0.495D+00-0.177D+01 0.112D+01 0.229D+01
 Gap=     0.224 Goal=   None    Shift=    0.500
 Gap=     0.113 Goal=   None    Shift=    0.500
 GapD=    0.113 DampG=1.000 DampE=1.000 DampFc=1.0000 IDamp=-1.
 RMSDP=3.55D-05 MaxDP=5.13D-03 DE=-5.84D-05 OVMax= 1.12D-02

 Cycle  28  Pass 1  IDiag  1:
 E= -2593.72522767304     Delta-E=       -0.000044622869 Rises=F Damp=F
 DIIS: error= 9.86D-04 at cycle  28 NSaved=  12.
 NSaved=12 IEnMin=12 EnMin= -2593.72522767304     IErMin=12 ErrMin= 9.86D-04
 ErrMax= 9.86D-04  0.00D+00 EMaxC= 1.00D+00 BMatC= 2.32D-04 BMatP= 1.87D-04
 IDIUse=1 WtCom= 1.00D+00 WtEn= 0.00D+00
 Coeff-Com:  0.680D+00-0.137D+01 0.337D+00 0.173D+01-0.339D+01 0.231D+01
 Coeff-Com: -0.205D+00 0.706D-01-0.181D+01 0.104D+00 0.114D+01 0.141D+01
 Coeff:      0.680D+00-0.137D+01 0.337D+00 0.173D+01-0.339D+01 0.231D+01
 Coeff:     -0.205D+00 0.706D-01-0.181D+01 0.104D+00 0.114D+01 0.141D+01
 Gap=     0.224 Goal=   None    Shift=    0.500
 Gap=     0.114 Goal=   None    Shift=    0.500
 RMSDP=2.81D-05 MaxDP=3.62D-03 DE=-4.46D-05 OVMax= 1.01D-02

 Cycle  29  Pass 1  IDiag  1:
 E= -2593.72527328228     Delta-E=       -0.000045609243 Rises=F Damp=F
 DIIS: error= 9.26D-04 at cycle  29 NSaved=  13.
 NSaved=13 IEnMin=13 EnMin= -2593.72527328228     IErMin=13 ErrMin= 9.26D-04
 ErrMax= 9.26D-04  0.00D+00 EMaxC= 1.00D+00 BMatC= 2.14D-04 BMatP= 1.87D-04
 IDIUse=1 WtCom= 1.00D+00 WtEn= 0.00D+00
 Coeff-Com:  0.149D+01-0.341D+01 0.126D+01 0.183D+01-0.208D+01 0.181D+01
 Coeff-Com: -0.821D+00-0.881D+00 0.756D+00-0.325D+00-0.871D+00-0.857D+00
 Coeff-Com:  0.310D+01
 Coeff:      0.149D+01-0.341D+01 0.126D+01 0.183D+01-0.208D+01 0.181D+01
 Coeff:     -0.821D+00-0.881D+00 0.756D+00-0.325D+00-0.871D+00-0.857D+00
 Coeff:      0.310D+01
 Gap=     0.224 Goal=   None    Shift=    0.500
 Gap=     0.114 Goal=   None    Shift=    0.500
 RMSDP=2.87D-05 MaxDP=3.98D-03 DE=-4.56D-05 OVMax= 9.60D-03

 Cycle  30  Pass 1  IDiag  1:
 E= -2593.72531010271     Delta-E=       -0.000036820431 Rises=F Damp=F
 DIIS: error= 8.79D-04 at cycle  30 NSaved=  14.
 NSaved=14 IEnMin=14 EnMin= -2593.72531010271     IErMin=14 ErrMin= 8.79D-04
 ErrMax= 8.79D-04  0.00D+00 EMaxC= 1.00D+00 BMatC= 2.11D-04 BMatP= 1.87D-04
 IDIUse=1 WtCom= 1.00D+00 WtEn= 0.00D+00
 Coeff-Com:  0.168D+01-0.405D+01 0.163D+01 0.170D+01-0.734D+00 0.773D+00
 Coeff-Com: -0.104D+01-0.161D+01 0.196D+01 0.163D+00-0.931D+00-0.235D+01
 Coeff-Com:  0.202D+01 0.179D+01
 Coeff:      0.168D+01-0.405D+01 0.163D+01 0.170D+01-0.734D+00 0.773D+00
 Coeff:     -0.104D+01-0.161D+01 0.196D+01 0.163D+00-0.931D+00-0.235D+01
 Coeff:      0.202D+01 0.179D+01
 Gap=     0.224 Goal=   None    Shift=    0.500
 Gap=     0.114 Goal=   None    Shift=    0.500
 RMSDP=2.46D-05 MaxDP=3.20D-03 DE=-3.68D-05 OVMax= 8.75D-03

 Cycle  31  Pass 1  IDiag  1:
 E= -2593.72534501057     Delta-E=       -0.000034907855 Rises=F Damp=F
 DIIS: error= 8.17D-04 at cycle  31 NSaved=  15.
 NSaved=15 IEnMin=15 EnMin= -2593.72534501057     IErMin=15 ErrMin= 8.17D-04
 ErrMax= 8.17D-04  0.00D+00 EMaxC= 1.00D+00 BMatC= 1.90D-04 BMatP= 1.87D-04
 IDIUse=1 WtCom= 1.00D+00 WtEn= 0.00D+00
 Coeff-Com:  0.680D+00-0.212D+01 0.898D+00 0.147D+01-0.248D+00-0.280D+00
 Coeff-Com: -0.495D+00-0.112D+01 0.218D+00 0.128D+01 0.114D+01-0.129D+01
 Coeff-Com: -0.200D+01-0.972D+00 0.383D+01
 Coeff:      0.680D+00-0.212D+01 0.898D+00 0.147D+01-0.248D+00-0.280D+00
 Coeff:     -0.495D+00-0.112D+01 0.218D+00 0.128D+01 0.114D+01-0.129D+01
 Coeff:     -0.200D+01-0.972D+00 0.383D+01
 Gap=     0.224 Goal=   None    Shift=    0.500
 Gap=     0.114 Goal=   None    Shift=    0.500
 RMSDP=2.33D-05 MaxDP=3.03D-03 DE=-3.49D-05 OVMax= 8.15D-03

 Cycle  32  Pass 1  IDiag  1:
 E= -2593.72537422722     Delta-E=       -0.000029216650 Rises=F Damp=F
 DIIS: error= 7.64D-04 at cycle  32 NSaved=  16.
 NSaved=16 IEnMin=16 EnMin= -2593.72537422722     IErMin=16 ErrMin= 7.64D-04
 ErrMax= 7.64D-04  0.00D+00 EMaxC= 1.00D+00 BMatC= 1.75D-04 BMatP= 1.87D-04
 IDIUse=1 WtCom= 1.00D+00 WtEn= 0.00D+00
 Coeff-Com: -0.130D+00-0.380D+00 0.232D+00 0.137D+01-0.104D+01 0.227D-01
 Coeff-Com: -0.468D-01-0.519D+00-0.124D+01 0.124D+01 0.183D+01 0.792D+00
 Coeff-Com: -0.250D+01-0.287D+01 0.188D+01 0.236D+01
 Coeff:     -0.130D+00-0.380D+00 0.232D+00 0.137D+01-0.104D+01 0.227D-01
 Coeff:     -0.468D-01-0.519D+00-0.124D+01 0.124D+01 0.183D+01 0.792D+00
 Coeff:     -0.250D+01-0.287D+01 0.188D+01 0.236D+01
 Gap=     0.224 Goal=   None    Shift=    0.500
 Gap=     0.114 Goal=   None    Shift=    0.500
 RMSDP=1.72D-05 MaxDP=1.80D-03 DE=-2.92D-05 OVMax= 6.94D-03

 >>>>>>>>>> Convergence criterion not met.
 SCF Done:  E(ULC-wHPBE) =  -2593.72537423     A.U. after   33 cycles
            NFock= 32  Conv=0.17D-04     -V/T= 2.0037
 <Sx>= 0.0000 <Sy>= 0.0000 <Sz>= 0.5000 <S**2>= 0.7609 S= 0.5054
 <L.S>= 0.000000000000E+00
 KE= 2.584048403710D+03 PE=-1.660470536300D+04 EE= 6.149207919779D+03
 Annihilation of the first spin contaminant:
 S**2 before annihilation     0.7609,   after     0.7501
 Leave Link  502 at Thu Jan 21 23:49:40 2021, MaxMem=  4026531840 cpu:           32469.8 elap:            4250.6
 (Enter /opt/ohpc/pub/libs/gaussian/g16-A.03/sandybridge/g16/l508.exe)
 Integral symmetry usage will be decided dynamically.
 Tight linear equation convergence will be used.
 ULC-wHPBE wavefunction.
 Quadratic Convergence SCF Method.
 Line search only if initial step raises energy.
 FoFJK:  IHMeth= 1 ICntrl=       0 DoSepK=T KAlg= 0 I1Cent=           0 FoldK=F
 IRaf=         1 NMat=       1 IRICut=       1 DoRegI=T DoRafI=F ISym2E= 1 IDoP0=0 IntGTp=1.
 FoFCou: FMM=T IPFlag=           0 FMFlag=      100000 FMFlg1=        2001
         NFxFlg=           0 DoJE=T BraDBF=F KetDBF=F FulRan=T
         wScrn=  0.000000 ICntrl=       500 IOpCl=  0 I1Cent=           0 NGrid=           0
         NMat0=    1 NMatS0=      1 NMatT0=    0 NMatD0=    1 NMtDS0=    0 NMtDT0=    0
 Petite list used in FoFCou.
 FMM levels:  10  Number of levels for PrismC:   9
 Iteration   1 EE= -2593.72540334275                                    Grad=8.322D-03 Max rot=    0.1556 deg.
 QCNR:  CnvC1=8.32D-08 CnvC2=8.32D-07
 LinEq1:  Iter=  0 NonCon=     1 RMS=5.55D-05 Max=2.21D-02 NDo=     1
 AX will form     1 AO Fock derivatives at one time.
 LinEq1:  Iter=  1 NonCon=     1 RMS=3.62D-05 Max=6.04D-03 NDo=     1
 LinEq1:  Iter=  2 NonCon=     1 RMS=2.42D-05 Max=2.99D-03 NDo=     1
 LinEq1:  Iter=  3 NonCon=     1 RMS=1.66D-05 Max=1.72D-03 NDo=     1
 LinEq1:  Iter=  4 NonCon=     1 RMS=1.20D-05 Max=1.43D-03 NDo=     1
 LinEq1:  Iter=  5 NonCon=     1 RMS=7.75D-06 Max=5.83D-04 NDo=     1
 LinEq1:  Iter=  6 NonCon=     1 RMS=4.35D-06 Max=3.03D-04 NDo=     1
 LinEq1:  Iter=  7 NonCon=     1 RMS=2.87D-06 Max=2.05D-04 NDo=     1
 LinEq1:  Iter=  8 NonCon=     1 RMS=1.59D-06 Max=1.05D-04 NDo=     1
 LinEq1:  Iter=  9 NonCon=     1 RMS=1.09D-06 Max=9.80D-05 NDo=     1
 LinEq1:  Iter= 10 NonCon=     1 RMS=6.79D-07 Max=4.82D-05 NDo=     1
 LinEq1:  Iter= 11 NonCon=     1 RMS=4.94D-07 Max=4.40D-05 NDo=     1
 LinEq1:  Iter= 12 NonCon=     1 RMS=3.18D-07 Max=3.71D-05 NDo=     1
 LinEq1:  Iter= 13 NonCon=     1 RMS=1.98D-07 Max=1.86D-05 NDo=     1
 LinEq1:  Iter= 14 NonCon=     1 RMS=1.27D-07 Max=1.40D-05 NDo=     1
 LinEq1:  Iter= 15 NonCon=     1 RMS=7.29D-08 Max=7.90D-06 NDo=     1
 LinEq1:  Iter= 16 NonCon=     1 RMS=4.36D-08 Max=4.25D-06 NDo=     1
 LinEq1:  Iter= 17 NonCon=     1 RMS=2.72D-08 Max=2.72D-06 NDo=     1
 LinEq1:  Iter= 18 NonCon=     1 RMS=1.48D-08 Max=1.54D-06 NDo=     1
 LinEq1:  Iter= 19 NonCon=     1 RMS=8.68D-09 Max=9.51D-07 NDo=     1
 LinEq1:  Iter= 20 NonCon=     0 RMS=5.60D-09 Max=6.31D-07 NDo=     1
 Linear equations converged to 8.322D-08 8.322D-07 after    20 iterations.
 Angle between quadratic step and gradient=  78.71 degrees.
     ILin= 1 X=0.000D+00 Y=-2.593725403343D+03 DE= 0.00D+00 F= -2.51D-04
     ILin= 2 X=1.000D+00 Y=-2.593725528236D+03 DE=-1.25D-04
 Iteration   2 EE= -2593.72552823597     Delta-E=       -0.000124893215 Grad=3.332D-04 Max rot=    0.0023 deg.
 Rotation gradient small -- convergence achieved.
 SCF Done:  E(ULC-wHPBE) =  -2593.72552824     a.u. after    2 cycles
            Convg  =    0.3332D-03                    22 Fock formations.
              S**2 =  0.7609                  -V/T =  2.0037
 <Sx>= 0.0000 <Sy>= 0.0000 <Sz>= 0.5000 <S**2>= 0.7609 S= 0.5055
 <L.S>= 0.000000000000E+00
 Annihilation of the first spin contaminant:
 S**2 before annihilation     0.7609,   after     0.7501
 Leave Link  508 at Fri Jan 22 00:28:58 2021, MaxMem=  4026531840 cpu:           18458.8 elap:            2358.6
 (Enter /opt/ohpc/pub/libs/gaussian/g16-A.03/sandybridge/g16/l601.exe)
 Copying SCF densities to generalized density rwf, IOpCl= 1 IROHF=0.

 **********************************************************************

            Population analysis using the SCF density.

 **********************************************************************

 Orbital symmetries:
 Alpha Orbitals:
       Occupied  (A) (A) (A) (A) (A) (A) (A) (A) (A) (A) (A) (A)
                 (A) (A) (A) (A) (A) (A) (A) (A) (A) (A) (A) (A)
                 (A) (A) (A) (A) (A) (A) (A) (A) (A) (A) (A) (A)
                 (A) (A) (A) (A) (A) (A) (A) (A) (A) (A) (A) (A)
                 (A) (A) (A) (A) (A) (A) (A) (A) (A) (A) (A) (A)
                 (A) (A) (A) (A) (A) (A) (A) (A) (A) (A) (A) (A)
                 (A) (A) (A) (A) (A) (A) (A) (A) (A) (A) (A) (A)
                 (A) (A) (A) (A) (A) (A) (A) (A) (A) (A) (A) (A)
                 (A) (A) (A) (A) (A) (A) (A) (A) (A) (A) (A) (A)
                 (A) (A) (A) (A) (A) (A) (A) (A) (A) (A) (A) (A)
                 (A) (A) (A) (A) (A) (A) (A) (A) (A) (A) (A) (A)
                 (A) (A) (A) (A) (A) (A) (A) (A) (A) (A) (A) (A)
                 (A) (A) (A) (A) (A) (A) (A) (A) (A) (A) (A) (A)
                 (A) (A) (A) (A) (A)
       Virtual   (A) (A) (A) (A) (A) (A) (A) (A) (A) (A) (A) (A)
                 (A) (A) (A) (A) (A) (A) (A) (A) (A) (A) (A) (A)
                 (A) (A) (A) (A) (A) (A) (A) (A) (A) (A) (A) (A)
                 (A) (A) (A) (A) (A) (A) (A) (A) (A) (A) (A) (A)
                 (A) (A) (A) (A) (A) (A) (A) (A) (A) (A) (A) (A)
                 (A) (A) (A) (A) (A) (A) (A) (A) (A) (A) (A) (A)
                 (A) (A) (A) (A) (A) (A) (A) (A) (A) (A) (A) (A)
                 (A) (A) (A) (A) (A) (A) (A) (A) (A) (A) (A) (A)
                 (A) (A) (A) (A) (A) (A) (A) (A) (A) (A) (A) (A)
                 (A) (A) (A) (A) (A) (A) (A) (A) (A) (A) (A) (A)
                 (A) (A) (A) (A) (A) (A) (A) (A) (A) (A) (A) (A)
                 (A) (A) (A) (A) (A) (A) (A) (A) (A) (A) (A) (A)
                 (A) (A) (A) (A) (A) (A) (A) (A) (A) (A) (A) (A)
                 (A) (A) (A) (A) (A) (A) (A) (A) (A) (A) (A) (A)
                 (A) (A) (A) (A) (A) (A) (A) (A) (A) (A) (A) (A)
                 (A) (A) (A) (A) (A) (A) (A) (A) (A) (A) (A) (A)
                 (A) (A) (A) (A) (A) (A) (A) (A) (A) (A) (A) (A)
                 (A) (A) (A) (A) (A) (A) (A) (A) (A) (A) (A) (A)
                 (A) (A) (A) (A) (A) (A) (A) (A) (A) (A) (A) (A)
                 (A) (A) (A) (A) (A) (A) (A) (A) (A) (A) (A) (A)
                 (A) (A) (A) (A) (A) (A) (A) (A) (A) (A) (A) (A)
                 (A) (A) (A) (A) (A) (A) (A) (A) (A) (A) (A) (A)
                 (A) (A) (A) (A) (A) (A) (A) (A) (A) (A) (A) (A)
                 (A) (A) (A) (A) (A) (A) (A) (A) (A) (A) (A) (A)
                 (A) (A) (A) (A) (A) (A) (A) (A) (A) (A) (A) (A)
                 (A) (A) (A) (A) (A) (A) (A) (A) (A) (A) (A) (A)
                 (A) (A) (A) (A) (A) (A) (A) (A) (A) (A) (A) (A)
                 (A) (A) (A) (A) (A) (A) (A) (A) (A) (A) (A) (A)
                 (A) (A) (A) (A) (A) (A) (A) (A) (A) (A) (A) (A)
                 (A) (A) (A) (A) (A) (A) (A) (A) (A) (A) (A) (A)
                 (A) (A) (A) (A) (A) (A) (A) (A) (A) (A) (A) (A)
                 (A) (A) (A) (A) (A) (A) (A) (A) (A) (A) (A) (A)
                 (A) (A) (A) (A) (A) (A) (A) (A) (A) (A) (A) (A)
                 (A) (A) (A) (A) (A) (A) (A) (A) (A) (A) (A) (A)
                 (A) (A) (A) (A) (A) (A) (A) (A) (A) (A) (A) (A)
                 (A) (A) (A) (A) (A) (A) (A) (A) (A) (A) (A) (A)
                 (A) (A) (A) (A) (A) (A) (A) (A) (A) (A) (A) (A)
                 (A) (A) (A) (A) (A) (A) (A) (A) (A) (A) (A) (A)
                 (A) (A) (A) (A) (A) (A) (A) (A) (A) (A) (A) (A)
                 (A) (A) (A) (A) (A) (A) (A) (A) (A) (A) (A) (A)
                 (A) (A) (A) (A) (A) (A) (A) (A) (A) (A) (A) (A)
                 (A) (A) (A) (A) (A) (A) (A) (A) (A) (A) (A) (A)
                 (A) (A) (A) (A) (A) (A) (A) (A) (A) (A) (A) (A)
                 (A) (A) (A) (A) (A) (A) (A) (A) (A) (A) (A) (A)
                 (A) (A) (A) (A) (A) (A) (A) (A) (A) (A) (A) (A)
                 (A) (A) (A) (A) (A) (A) (A) (A) (A) (A) (A) (A)
                 (A) (A) (A) (A) (A) (A) (A) (A) (A) (A) (A) (A)
                 (A) (A) (A) (A) (A) (A) (A) (A) (A) (A) (A) (A)
                 (A) (A) (A) (A) (A) (A) (A) (A) (A) (A) (A) (A)
                 (A) (A) (A) (A) (A) (A) (A) (A) (A) (A) (A) (A)
                 (A) (A) (A) (A) (A) (A) (A) (A) (A) (A) (A) (A)
                 (A) (A) (A) (A) (A) (A) (A) (A) (A) (A) (A) (A)
                 (A) (A) (A) (A) (A) (A) (A) (A) (A) (A) (A) (A)
                 (A) (A) (A) (A) (A) (A) (A) (A) (A) (A) (A) (A)
                 (A) (A) (A) (A) (A) (A) (A) (A) (A) (A) (A) (A)
                 (A) (A) (A) (A) (A) (A) (A) (A) (A) (A) (A) (A)
                 (A) (A) (A) (A) (A) (A) (A) (A) (A) (A) (A) (A)
                 (A) (A) (A) (A) (A) (A) (A) (A) (A) (A) (A) (A)
                 (A) (A) (A) (A) (A) (A) (A) (A) (A) (A) (A) (A)
                 (A) (A) (A) (A) (A) (A) (A) (A) (A) (A) (A) (A)
                 (A) (A) (A) (A) (A) (A) (A) (A) (A) (A) (A) (A)
                 (A) (A) (A) (A) (A) (A) (A) (A) (A) (A) (A) (A)
                 (A) (A) (A) (A) (A) (A) (A) (A) (A) (A) (A) (A)
                 (A) (A) (A) (A) (A) (A) (A) (A) (A) (A) (A) (A)
                 (A) (A) (A) (A) (A) (A) (A) (A) (A) (A) (A) (A)
                 (A) (A) (A) (A) (A) (A) (A) (A) (A) (A) (A) (A)
                 (A) (A) (A) (A) (A) (A) (A) (A) (A) (A) (A) (A)
                 (A) (A) (A) (A) (A) (A) (A) (A) (A) (A) (A) (A)
                 (A) (A) (A) (A) (A) (A) (A) (A) (A) (A) (A) (A)
                 (A) (A) (A) (A) (A) (A) (A) (A) (A) (A) (A) (A)
                 (A) (A) (A) (A) (A) (A) (A) (A) (A)
 Beta  Orbitals:
       Occupied  (A) (A) (A) (A) (A) (A) (A) (A) (A) (A) (A) (A)
                 (A) (A) (A) (A) (A) (A) (A) (A) (A) (A) (A) (A)
                 (A) (A) (A) (A) (A) (A) (A) (A) (A) (A) (A) (A)
                 (A) (A) (A) (A) (A) (A) (A) (A) (A) (A) (A) (A)
                 (A) (A) (A) (A) (A) (A) (A) (A) (A) (A) (A) (A)
                 (A) (A) (A) (A) (A) (A) (A) (A) (A) (A) (A) (A)
                 (A) (A) (A) (A) (A) (A) (A) (A) (A) (A) (A) (A)
                 (A) (A) (A) (A) (A) (A) (A) (A) (A) (A) (A) (A)
                 (A) (A) (A) (A) (A) (A) (A) (A) (A) (A) (A) (A)
                 (A) (A) (A) (A) (A) (A) (A) (A) (A) (A) (A) (A)
                 (A) (A) (A) (A) (A) (A) (A) (A) (A) (A) (A) (A)
                 (A) (A) (A) (A) (A) (A) (A) (A) (A) (A) (A) (A)
                 (A) (A) (A) (A) (A) (A) (A) (A) (A) (A) (A) (A)
                 (A) (A) (A) (A)
       Virtual   (A) (A) (A) (A) (A) (A) (A) (A) (A) (A) (A) (A)
                 (A) (A) (A) (A) (A) (A) (A) (A) (A) (A) (A) (A)
                 (A) (A) (A) (A) (A) (A) (A) (A) (A) (A) (A) (A)
                 (A) (A) (A) (A) (A) (A) (A) (A) (A) (A) (A) (A)
                 (A) (A) (A) (A) (A) (A) (A) (A) (A) (A) (A) (A)
                 (A) (A) (A) (A) (A) (A) (A) (A) (A) (A) (A) (A)
                 (A) (A) (A) (A) (A) (A) (A) (A) (A) (A) (A) (A)
                 (A) (A) (A) (A) (A) (A) (A) (A) (A) (A) (A) (A)
                 (A) (A) (A) (A) (A) (A) (A) (A) (A) (A) (A) (A)
                 (A) (A) (A) (A) (A) (A) (A) (A) (A) (A) (A) (A)
                 (A) (A) (A) (A) (A) (A) (A) (A) (A) (A) (A) (A)
                 (A) (A) (A) (A) (A) (A) (A) (A) (A) (A) (A) (A)
                 (A) (A) (A) (A) (A) (A) (A) (A) (A) (A) (A) (A)
                 (A) (A) (A) (A) (A) (A) (A) (A) (A) (A) (A) (A)
                 (A) (A) (A) (A) (A) (A) (A) (A) (A) (A) (A) (A)
                 (A) (A) (A) (A) (A) (A) (A) (A) (A) (A) (A) (A)
                 (A) (A) (A) (A) (A) (A) (A) (A) (A) (A) (A) (A)
                 (A) (A) (A) (A) (A) (A) (A) (A) (A) (A) (A) (A)
                 (A) (A) (A) (A) (A) (A) (A) (A) (A) (A) (A) (A)
                 (A) (A) (A) (A) (A) (A) (A) (A) (A) (A) (A) (A)
                 (A) (A) (A) (A) (A) (A) (A) (A) (A) (A) (A) (A)
                 (A) (A) (A) (A) (A) (A) (A) (A) (A) (A) (A) (A)
                 (A) (A) (A) (A) (A) (A) (A) (A) (A) (A) (A) (A)
                 (A) (A) (A) (A) (A) (A) (A) (A) (A) (A) (A) (A)
                 (A) (A) (A) (A) (A) (A) (A) (A) (A) (A) (A) (A)
                 (A) (A) (A) (A) (A) (A) (A) (A) (A) (A) (A) (A)
                 (A) (A) (A) (A) (A) (A) (A) (A) (A) (A) (A) (A)
                 (A) (A) (A) (A) (A) (A) (A) (A) (A) (A) (A) (A)
                 (A) (A) (A) (A) (A) (A) (A) (A) (A) (A) (A) (A)
                 (A) (A) (A) (A) (A) (A) (A) (A) (A) (A) (A) (A)
                 (A) (A) (A) (A) (A) (A) (A) (A) (A) (A) (A) (A)
                 (A) (A) (A) (A) (A) (A) (A) (A) (A) (A) (A) (A)
                 (A) (A) (A) (A) (A) (A) (A) (A) (A) (A) (A) (A)
                 (A) (A) (A) (A) (A) (A) (A) (A) (A) (A) (A) (A)
                 (A) (A) (A) (A) (A) (A) (A) (A) (A) (A) (A) (A)
                 (A) (A) (A) (A) (A) (A) (A) (A) (A) (A) (A) (A)
                 (A) (A) (A) (A) (A) (A) (A) (A) (A) (A) (A) (A)
                 (A) (A) (A) (A) (A) (A) (A) (A) (A) (A) (A) (A)
                 (A) (A) (A) (A) (A) (A) (A) (A) (A) (A) (A) (A)
                 (A) (A) (A) (A) (A) (A) (A) (A) (A) (A) (A) (A)
                 (A) (A) (A) (A) (A) (A) (A) (A) (A) (A) (A) (A)
                 (A) (A) (A) (A) (A) (A) (A) (A) (A) (A) (A) (A)
                 (A) (A) (A) (A) (A) (A) (A) (A) (A) (A) (A) (A)
                 (A) (A) (A) (A) (A) (A) (A) (A) (A) (A) (A) (A)
                 (A) (A) (A) (A) (A) (A) (A) (A) (A) (A) (A) (A)
                 (A) (A) (A) (A) (A) (A) (A) (A) (A) (A) (A) (A)
                 (A) (A) (A) (A) (A) (A) (A) (A) (A) (A) (A) (A)
                 (A) (A) (A) (A) (A) (A) (A) (A) (A) (A) (A) (A)
                 (A) (A) (A) (A) (A) (A) (A) (A) (A) (A) (A) (A)
                 (A) (A) (A) (A) (A) (A) (A) (A) (A) (A) (A) (A)
                 (A) (A) (A) (A) (A) (A) (A) (A) (A) (A) (A) (A)
                 (A) (A) (A) (A) (A) (A) (A) (A) (A) (A) (A) (A)
                 (A) (A) (A) (A) (A) (A) (A) (A) (A) (A) (A) (A)
                 (A) (A) (A) (A) (A) (A) (A) (A) (A) (A) (A) (A)
                 (A) (A) (A) (A) (A) (A) (A) (A) (A) (A) (A) (A)
                 (A) (A) (A) (A) (A) (A) (A) (A) (A) (A) (A) (A)
                 (A) (A) (A) (A) (A) (A) (A) (A) (A) (A) (A) (A)
                 (A) (A) (A) (A) (A) (A) (A) (A) (A) (A) (A) (A)
                 (A) (A) (A) (A) (A) (A) (A) (A) (A) (A) (A) (A)
                 (A) (A) (A) (A) (A) (A) (A) (A) (A) (A) (A) (A)
                 (A) (A) (A) (A) (A) (A) (A) (A) (A) (A) (A) (A)
                 (A) (A) (A) (A) (A) (A) (A) (A) (A) (A) (A) (A)
                 (A) (A) (A) (A) (A) (A) (A) (A) (A) (A) (A) (A)
                 (A) (A) (A) (A) (A) (A) (A) (A) (A) (A) (A) (A)
                 (A) (A) (A) (A) (A) (A) (A) (A) (A) (A) (A) (A)
                 (A) (A) (A) (A) (A) (A) (A) (A) (A) (A) (A) (A)
                 (A) (A) (A) (A) (A) (A) (A) (A) (A) (A) (A) (A)
                 (A) (A) (A) (A) (A) (A) (A) (A) (A) (A) (A) (A)
                 (A) (A) (A) (A) (A) (A) (A) (A) (A) (A) (A) (A)
                 (A) (A) (A) (A) (A) (A) (A) (A) (A) (A) (A) (A)
                 (A) (A) (A) (A) (A) (A) (A) (A) (A) (A)
 The electronic state is 2-A.
 Alpha  occ. eigenvalues --  -88.37997 -88.29645 -18.96680 -18.96280 -18.96124
 Alpha  occ. eigenvalues --  -18.94824 -14.24572 -14.20824 -10.14284 -10.14067
 Alpha  occ. eigenvalues --  -10.13959 -10.13857 -10.13438 -10.13171 -10.12473
 Alpha  occ. eigenvalues --  -10.12421 -10.12050 -10.11837 -10.11828 -10.10920
 Alpha  occ. eigenvalues --  -10.10260 -10.09788 -10.09746 -10.09533 -10.09513
 Alpha  occ. eigenvalues --  -10.09055 -10.09046 -10.08649 -10.08430 -10.08325
 Alpha  occ. eigenvalues --  -10.08175 -10.08096 -10.07865 -10.07724 -10.07418
 Alpha  occ. eigenvalues --  -10.07152 -10.06806 -10.06748 -10.06722 -10.06601
 Alpha  occ. eigenvalues --  -10.06306 -10.06303 -10.06206 -10.05527  -7.97015
 Alpha  occ. eigenvalues --   -7.88850  -5.98964  -5.98861  -5.98283  -5.91049
 Alpha  occ. eigenvalues --   -5.90614  -5.89885  -1.16335  -1.15935  -1.15745
 Alpha  occ. eigenvalues --   -1.14685  -1.10643  -1.08196  -1.02927  -1.00275
 Alpha  occ. eigenvalues --   -0.98414  -0.97357  -0.96767  -0.96274  -0.95204
 Alpha  occ. eigenvalues --   -0.92179  -0.90059  -0.89419  -0.88276  -0.87956
 Alpha  occ. eigenvalues --   -0.87529  -0.87341  -0.86843  -0.86360  -0.85876
 Alpha  occ. eigenvalues --   -0.85596  -0.83741  -0.81812  -0.77844  -0.77574
 Alpha  occ. eigenvalues --   -0.76477  -0.76254  -0.75904  -0.75031  -0.74762
 Alpha  occ. eigenvalues --   -0.74283  -0.73955  -0.72815  -0.71510  -0.70949
 Alpha  occ. eigenvalues --   -0.68873  -0.68657  -0.68276  -0.67989  -0.67645
 Alpha  occ. eigenvalues --   -0.67245  -0.66835  -0.66169  -0.64853  -0.63344
 Alpha  occ. eigenvalues --   -0.63060  -0.62463  -0.61669  -0.61391  -0.60855
 Alpha  occ. eigenvalues --   -0.59764  -0.59707  -0.59446  -0.58837  -0.58360
 Alpha  occ. eigenvalues --   -0.58269  -0.57656  -0.56835  -0.56650  -0.56520
 Alpha  occ. eigenvalues --   -0.56440  -0.56258  -0.55855  -0.55675  -0.55425
 Alpha  occ. eigenvalues --   -0.55215  -0.54903  -0.54804  -0.54739  -0.54486
 Alpha  occ. eigenvalues --   -0.54255  -0.53988  -0.53630  -0.53120  -0.52621
 Alpha  occ. eigenvalues --   -0.52088  -0.51678  -0.51258  -0.50950  -0.50694
 Alpha  occ. eigenvalues --   -0.50249  -0.49924  -0.49522  -0.49440  -0.48580
 Alpha  occ. eigenvalues --   -0.48197  -0.47851  -0.47574  -0.47263  -0.46434
 Alpha  occ. eigenvalues --   -0.46294  -0.44919  -0.42930  -0.42444  -0.42043
 Alpha  occ. eigenvalues --   -0.41569  -0.41175  -0.40718  -0.40285  -0.39829
 Alpha  occ. eigenvalues --   -0.39278  -0.38803  -0.38319  -0.36923  -0.34116
 Alpha  occ. eigenvalues --   -0.32592
 Alpha virt. eigenvalues --   -0.10318  -0.09471  -0.08843  -0.07725  -0.06541
 Alpha virt. eigenvalues --   -0.06290  -0.06214  -0.05882  -0.05544  -0.04915
 Alpha virt. eigenvalues --   -0.04304  -0.04200  -0.02680  -0.02564  -0.01877
 Alpha virt. eigenvalues --   -0.01187  -0.00346   0.00643   0.00967   0.01140
 Alpha virt. eigenvalues --    0.01157   0.01615   0.02487   0.02635   0.02936
 Alpha virt. eigenvalues --    0.03506   0.04112   0.04360   0.04792   0.05226
 Alpha virt. eigenvalues --    0.05632   0.05858   0.06107   0.06786   0.07066
 Alpha virt. eigenvalues --    0.07475   0.07695   0.08184   0.08450   0.08674
 Alpha virt. eigenvalues --    0.08774   0.08894   0.09664   0.09728   0.09881
 Alpha virt. eigenvalues --    0.10070   0.10545   0.10663   0.10831   0.11208
 Alpha virt. eigenvalues --    0.11576   0.11775   0.12593   0.12797   0.12906
 Alpha virt. eigenvalues --    0.13355   0.13695   0.13870   0.14480   0.14805
 Alpha virt. eigenvalues --    0.14980   0.15168   0.15429   0.15591   0.15928
 Alpha virt. eigenvalues --    0.16290   0.16601   0.16835   0.17014   0.17416
 Alpha virt. eigenvalues --    0.17820   0.18057   0.18268   0.18380   0.18553
 Alpha virt. eigenvalues --    0.18812   0.18860   0.19127   0.19505   0.19718
 Alpha virt. eigenvalues --    0.20201   0.20263   0.20553   0.20707   0.21006
 Alpha virt. eigenvalues --    0.21158   0.21357   0.21599   0.21909   0.21999
 Alpha virt. eigenvalues --    0.22157   0.22353   0.22693   0.22875   0.23496
 Alpha virt. eigenvalues --    0.23650   0.23796   0.24031   0.24107   0.24336
 Alpha virt. eigenvalues --    0.24634   0.24712   0.24811   0.25177   0.25322
 Alpha virt. eigenvalues --    0.25538   0.25801   0.26174   0.26246   0.26338
 Alpha virt. eigenvalues --    0.26591   0.27230   0.27323   0.27373   0.27669
 Alpha virt. eigenvalues --    0.27840   0.28072   0.28723   0.28795   0.29247
 Alpha virt. eigenvalues --    0.29392   0.29754   0.29918   0.30273   0.30461
 Alpha virt. eigenvalues --    0.30674   0.30854   0.31189   0.31463   0.31898
 Alpha virt. eigenvalues --    0.31981   0.32262   0.32556   0.32808   0.33112
 Alpha virt. eigenvalues --    0.33386   0.33707   0.33784   0.33967   0.34122
 Alpha virt. eigenvalues --    0.34440   0.34525   0.34795   0.34873   0.34975
 Alpha virt. eigenvalues --    0.34988   0.35233   0.35441   0.35524   0.35610
 Alpha virt. eigenvalues --    0.35822   0.36232   0.36331   0.36589   0.36839
 Alpha virt. eigenvalues --    0.36911   0.37197   0.37740   0.37914   0.38155
 Alpha virt. eigenvalues --    0.38309   0.38646   0.39151   0.39326   0.39632
[...]
 
              Baa    -0.0226    -3.036    -1.083    -1.013  0.2288 -0.6095  0.7591
     8 C(13)  Bbb    -0.0086    -1.156    -0.413    -0.386  0.5788  0.7121  0.3973
              Bcc     0.0312     4.192     1.496     1.398  0.7827 -0.3485 -0.5157
 
              Baa    -0.0026    -1.364    -0.487    -0.455 -0.6940  0.0290  0.7194
     9 H(1)   Bbb    -0.0007    -0.365    -0.130    -0.122  0.6623 -0.3661  0.6537
              Bcc     0.0032     1.729     0.617     0.577  0.2823  0.9301  0.2348
 
              Baa    -0.0060    -0.809    -0.289    -0.270 -0.1554  0.0944  0.9833
    10 C(13)  Bbb    -0.0031    -0.413    -0.147    -0.138 -0.2371  0.9628 -0.1299
              Bcc     0.0091     1.222     0.436     0.408  0.9590  0.2533  0.1273
 
              Baa    -0.0027    -0.365    -0.130    -0.122 -0.4859  0.8710 -0.0733
    11 C(13)  Bbb    -0.0014    -0.188    -0.067    -0.063 -0.4110 -0.1537  0.8986
              Bcc     0.0041     0.553     0.197     0.185  0.7714  0.4667  0.4326
 
              Baa    -0.0022    -0.296    -0.105    -0.099  0.2381  0.0440  0.9703
    12 C(13)  Bbb    -0.0004    -0.054    -0.019    -0.018 -0.3349  0.9414  0.0394
              Bcc     0.0026     0.349     0.125     0.117  0.9117  0.3343 -0.2389
 
              Baa    -0.0036    -0.488    -0.174    -0.163  0.0993  0.9173 -0.3855
    13 C(13)  Bbb    -0.0014    -0.187    -0.067    -0.063  0.6807 -0.3452 -0.6461
              Bcc     0.0050     0.675     0.241     0.225  0.7258  0.1983  0.6587
 
              Baa    -0.0036    -1.943    -0.693    -0.648 -0.0945  0.9428  0.3195
    14 H(1)   Bbb    -0.0028    -1.480    -0.528    -0.494 -0.6098 -0.3085  0.7301
              Bcc     0.0064     3.423     1.221     1.142  0.7869 -0.1258  0.6041
 
              Baa    -0.0008    -0.402    -0.144    -0.134 -0.4347  0.8749  0.2136
    15 H(1)   Bbb    -0.0005    -0.241    -0.086    -0.080  0.4305 -0.0064  0.9026
              Bcc     0.0012     0.643     0.230     0.215  0.7910  0.4843 -0.3738
 
              Baa    -0.0006    -0.323    -0.115    -0.108  0.2192  0.3024  0.9276
    16 H(1)   Bbb    -0.0005    -0.266    -0.095    -0.089 -0.1855  0.9463 -0.2647
              Bcc     0.0011     0.590     0.210     0.197  0.9579  0.1141 -0.2636
 
              Baa    -0.0216    -2.900    -1.035    -0.967  0.3901  0.1371  0.9105
    17 C(13)  Bbb    -0.0124    -1.660    -0.592    -0.554  0.8902  0.1967 -0.4110
              Bcc     0.0340     4.561     1.627     1.521 -0.2355  0.9708 -0.0453
 
              Baa    -0.0113    -6.051    -2.159    -2.019 -0.4275  0.8156 -0.3900
    18 H(1)   Bbb    -0.0039    -2.088    -0.745    -0.697  0.7939  0.1324 -0.5935
              Bcc     0.0153     8.140     2.904     2.715  0.4324  0.5633  0.7041
 
              Baa    -0.0006    -0.325    -0.116    -0.108  0.7227 -0.5498  0.4189
    19 H(1)   Bbb    -0.0005    -0.266    -0.095    -0.089 -0.3916  0.1737  0.9036
              Bcc     0.0011     0.591     0.211     0.197  0.5695  0.8170  0.0898
 
              Baa    -0.0033    -1.734    -0.619    -0.578  0.3468 -0.6549  0.6714
    20 H(1)   Bbb    -0.0011    -0.568    -0.203    -0.190  0.8981  0.4384 -0.0363
              Bcc     0.0043     2.302     0.822     0.768 -0.2706  0.6155  0.7402
 
              Baa    -0.0036    -1.936    -0.691    -0.646  0.4954 -0.5178  0.6974
    21 H(1)   Bbb    -0.0003    -0.184    -0.066    -0.062  0.5220  0.8192  0.2375
              Bcc     0.0040     2.120     0.756     0.707  0.6943 -0.2464 -0.6762
 
              Baa    -0.0355    -1.454    -0.519    -0.485  0.5200 -0.5471  0.6560
    22 S(33)  Bbb    -0.0305    -1.250    -0.446    -0.417 -0.5349  0.3901  0.7494
              Bcc     0.0659     2.703     0.965     0.902  0.6659  0.7406  0.0898
 
              Baa    -0.0084    -0.324    -0.116    -0.108  0.3180  0.8856 -0.3384
    23 N(14)  Bbb    -0.0062    -0.238    -0.085    -0.079  0.8547 -0.4223 -0.3019
              Bcc     0.0146     0.562     0.201     0.188  0.4103  0.1932  0.8912
 
              Baa    -0.0009    -0.115    -0.041    -0.038 -0.2101 -0.6683  0.7136
    24 C(13)  Bbb    -0.0004    -0.050    -0.018    -0.017  0.1666  0.6948  0.6997
              Bcc     0.0012     0.165     0.059     0.055  0.9634 -0.2658  0.0346
 
              Baa    -0.0007    -0.092    -0.033    -0.031  0.3382  0.3854  0.8585
    25 C(13)  Bbb    -0.0001    -0.013    -0.005    -0.004  0.6852  0.5245 -0.5054
              Bcc     0.0008     0.105     0.037     0.035 -0.6450  0.7592 -0.0867
 
              Baa    -0.0008    -0.105    -0.037    -0.035 -0.0583  0.4185  0.9064
    26 C(13)  Bbb     0.0001     0.011     0.004     0.004  0.7034 -0.6270  0.3348
              Bcc     0.0007     0.094     0.034     0.031  0.7084  0.6571 -0.2578
 
              Baa    -0.0004    -0.053    -0.019    -0.018 -0.1003 -0.5811  0.8076
    27 C(13)  Bbb    -0.0001    -0.018    -0.007    -0.006  0.3878  0.7247  0.5696
              Bcc     0.0005     0.071     0.026     0.024  0.9163 -0.3703 -0.1526
 
              Baa    -0.0005    -0.062    -0.022    -0.021 -0.0219 -0.6911  0.7225
    28 C(13)  Bbb    -0.0001    -0.011    -0.004    -0.004  0.1066  0.7169  0.6890
              Bcc     0.0005     0.073     0.026     0.024  0.9941 -0.0922 -0.0580
 
              Baa    -0.0005    -0.068    -0.024    -0.023  0.2511  0.7520  0.6094
    29 C(13)  Bbb     0.0000     0.000     0.000     0.000  0.9595 -0.1102 -0.2594
              Bcc     0.0005     0.068     0.024     0.023  0.1279 -0.6498  0.7492
 
              Baa    -0.0005    -0.256    -0.092    -0.086 -0.0220 -0.4616  0.8868
    30 H(1)   Bbb    -0.0003    -0.179    -0.064    -0.060  0.5458  0.7376  0.3975
              Bcc     0.0008     0.436     0.155     0.145  0.8376 -0.4928 -0.2357
 
              Baa    -0.0004    -0.198    -0.071    -0.066 -0.1832 -0.5288  0.8287
    31 H(1)   Bbb    -0.0003    -0.150    -0.053    -0.050 -0.1102  0.8488  0.5172
              Bcc     0.0007     0.348     0.124     0.116  0.9769 -0.0035  0.2138
 
              Baa    -0.0002    -0.100    -0.036    -0.033 -0.0375 -0.5695  0.8211
    32 H(1)   Bbb    -0.0002    -0.084    -0.030    -0.028  0.4580  0.7206  0.5206
              Bcc     0.0003     0.184     0.066     0.061  0.8882 -0.3956 -0.2338
 
              Baa    -0.0002    -0.086    -0.031    -0.029  0.1063  0.7058 -0.7004
    33 H(1)   Bbb    -0.0001    -0.075    -0.027    -0.025  0.0160  0.7031  0.7109
              Bcc     0.0003     0.161     0.057     0.054  0.9942 -0.0868  0.0634
 
              Baa    -0.0029    -0.390    -0.139    -0.130 -0.1014  0.4694  0.8771
    34 C(13)  Bbb     0.0000     0.005     0.002     0.002  0.5556  0.7581 -0.3415
              Bcc     0.0029     0.385     0.137     0.128  0.8253 -0.4527  0.3376
 
              Baa    -0.0017    -0.223    -0.080    -0.074  0.6331  0.7175 -0.2904
    35 C(13)  Bbb    -0.0003    -0.041    -0.014    -0.014  0.6823 -0.3401  0.6471
              Bcc     0.0020     0.263     0.094     0.088 -0.3655  0.6079  0.7049
 
              Baa    -0.0035    -0.472    -0.168    -0.157  0.6942  0.6414  0.3266
    36 C(13)  Bbb    -0.0009    -0.122    -0.043    -0.041 -0.5126  0.1219  0.8500
              Bcc     0.0044     0.594     0.212     0.198 -0.5054  0.7574 -0.4134
 
              Baa    -0.0016    -0.209    -0.075    -0.070 -0.2407  0.4574  0.8561
    37 C(13)  Bbb     0.0002     0.031     0.011     0.010  0.7518  0.6457 -0.1337
              Bcc     0.0013     0.178     0.064     0.059  0.6139 -0.6114  0.4993
 
              Baa    -0.0014    -0.194    -0.069    -0.065  0.6689  0.4981  0.5519
    38 C(13)  Bbb    -0.0006    -0.078    -0.028    -0.026 -0.6089 -0.0589  0.7911
              Bcc     0.0020     0.272     0.097     0.091 -0.4265  0.8651 -0.2639
 
              Baa    -0.0017    -0.223    -0.080    -0.074  0.8474  0.5289  0.0468
    39 C(13)  Bbb    -0.0007    -0.097    -0.035    -0.033  0.1530 -0.3277  0.9323
              Bcc     0.0024     0.321     0.114     0.107 -0.5085  0.7829  0.3586
 
              Baa    -0.0004    -0.234    -0.084    -0.078 -0.1842  0.3415  0.9217
    40 H(1)   Bbb    -0.0004    -0.216    -0.077    -0.072  0.4973  0.8412 -0.2122
              Bcc     0.0008     0.451     0.161     0.150  0.8478 -0.4192  0.3248
 
              Baa    -0.0052    -2.784    -0.993    -0.928  0.1923  0.1321  0.9724
    41 H(1)   Bbb    -0.0049    -2.609    -0.931    -0.870  0.7105  0.6647 -0.2308
              Bcc     0.0101     5.392     1.924     1.799 -0.6769  0.7353  0.0339
 
              Baa    -0.0004    -0.202    -0.072    -0.068 -0.2459  0.3403  0.9076
    42 H(1)   Bbb    -0.0002    -0.108    -0.038    -0.036  0.7363  0.6746 -0.0534
              Bcc     0.0006     0.310     0.111     0.103 -0.6304  0.6551 -0.4164
 
              Baa    -0.0022    -1.147    -0.409    -0.383 -0.0756  0.1173  0.9902
    43 H(1)   Bbb    -0.0006    -0.306    -0.109    -0.102  0.9495  0.3118  0.0356
              Bcc     0.0027     1.453     0.519     0.485 -0.3046  0.9429 -0.1350
 
              Baa    -0.2600   -10.028    -3.578    -3.345  0.0144  0.9644  0.2641
    44 N(14)  Bbb    -0.2576    -9.935    -3.545    -3.314  0.9729 -0.0744  0.2188
              Bcc     0.5176    19.963     7.123     6.659 -0.2306 -0.2538  0.9393
 
              Baa    -0.0149    -1.995    -0.712    -0.665  0.5052  0.5734  0.6450
    45 C(13)  Bbb    -0.0012    -0.166    -0.059    -0.055 -0.0970  0.7803 -0.6178
              Bcc     0.0161     2.161     0.771     0.721  0.8575 -0.2495 -0.4498
 
              Baa    -0.0251    -3.370    -1.202    -1.124 -0.3805  0.7917 -0.4780
    46 C(13)  Bbb    -0.0207    -2.777    -0.991    -0.926  0.8237  0.0552 -0.5643
              Bcc     0.0458     6.147     2.194     2.051  0.4203  0.6085  0.6731
 
              Baa    -0.0211    -2.827    -1.009    -0.943  0.6710  0.4642 -0.5781
    47 C(13)  Bbb    -0.0173    -2.322    -0.829    -0.775  0.7339 -0.5268  0.4289
              Bcc     0.0384     5.149     1.837     1.718  0.1055  0.7121  0.6941
 
              Baa    -0.0111    -1.483    -0.529    -0.495 -0.0639  0.4200  0.9053
    48 C(13)  Bbb     0.0036     0.478     0.171     0.160  0.2162  0.8914 -0.3983
              Bcc     0.0075     1.005     0.358     0.335  0.9743 -0.1702  0.1478
 
              Baa    -0.0122    -1.637    -0.584    -0.546  0.1748  0.3431  0.9229
    49 C(13)  Bbb     0.0049     0.653     0.233     0.218  0.3798  0.8413 -0.3847
              Bcc     0.0073     0.984     0.351     0.328  0.9084 -0.4177 -0.0168
 
              Baa    -0.0247    -3.309    -1.181    -1.104  0.3681  0.8547 -0.3659
    50 C(13)  Bbb    -0.0215    -2.891    -1.032    -0.964  0.9237 -0.3810  0.0392
              Bcc     0.0462     6.200     2.212     2.068  0.1059  0.3524  0.9298
 
              Baa    -0.0025    -1.350    -0.482    -0.450  0.0151  0.4065  0.9135
    51 H(1)   Bbb    -0.0006    -0.328    -0.117    -0.109  0.9334 -0.3333  0.1329
              Bcc     0.0031     1.678     0.599     0.560  0.3585  0.8507 -0.3845
 
              Baa    -0.0028    -1.514    -0.540    -0.505  0.0917  0.4005  0.9117
    52 H(1)   Bbb     0.0008     0.413     0.148     0.138  0.9107 -0.4041  0.0859
              Bcc     0.0021     1.101     0.393     0.367  0.4028  0.8224 -0.4018
 
              Baa    -0.0013    -0.673    -0.240    -0.224  0.1224  0.5236  0.8431
    53 H(1)   Bbb     0.0003     0.170     0.061     0.057 -0.1682  0.8482 -0.5023
              Bcc     0.0009     0.503     0.179     0.168  0.9781  0.0803 -0.1919
 
              Baa    -0.0013    -0.678    -0.242    -0.226  0.1250  0.5029  0.8553
    54 H(1)   Bbb     0.0002     0.115     0.041     0.038  0.2827  0.8082 -0.5166
              Bcc     0.0011     0.563     0.201     0.188  0.9510 -0.3064  0.0412
 
              Baa    -0.0097    -1.304    -0.465    -0.435  0.9512  0.0613  0.3023
    55 C(13)  Bbb     0.0036     0.483     0.172     0.161 -0.0798  0.9956  0.0492
              Bcc     0.0061     0.821     0.293     0.274 -0.2980 -0.0710  0.9519
 
              Baa    -0.0285    -3.822    -1.364    -1.275 -0.4723  0.7310 -0.4926
    56 C(13)  Bbb    -0.0250    -3.359    -1.198    -1.120  0.0650  0.5862  0.8076
              Bcc     0.0535     7.180     2.562     2.395  0.8791  0.3494 -0.3244
 
              Baa    -0.0304    -4.080    -1.456    -1.361  0.3200  0.4863  0.8131
    57 C(13)  Bbb    -0.0270    -3.629    -1.295    -1.211 -0.2788  0.8685 -0.4097
              Bcc     0.0575     7.709     2.751     2.572  0.9054  0.0956 -0.4136
 
              Baa    -0.0137    -1.834    -0.654    -0.612  0.7282  0.0822 -0.6804
    58 C(13)  Bbb     0.0054     0.724     0.258     0.242  0.6797 -0.2139  0.7016
              Bcc     0.0083     1.110     0.396     0.370  0.0879  0.9734  0.2116
 
              Baa    -0.0144    -1.929    -0.688    -0.644  0.7013  0.3300 -0.6319
    59 C(13)  Bbb     0.0055     0.739     0.264     0.246  0.6805 -0.0462  0.7312
              Bcc     0.0089     1.191     0.425     0.397 -0.2121  0.9429  0.2569
 
              Baa    -0.0347    -4.658    -1.662    -1.554  0.6704 -0.1068  0.7343
    60 C(13)  Bbb    -0.0310    -4.154    -1.482    -1.386 -0.1090  0.9647  0.2398
              Bcc     0.0657     8.812     3.144     2.939  0.7340  0.2408 -0.6351
 
              Baa    -0.0027    -1.423    -0.508    -0.475 -0.6548  0.2659  0.7075
    61 H(1)   Bbb    -0.0014    -0.729    -0.260    -0.243  0.2278  0.9620 -0.1507
              Bcc     0.0040     2.151     0.768     0.718  0.7207 -0.0625  0.6905
 
              Baa    -0.0029    -1.544    -0.551    -0.515  0.6678 -0.6159 -0.4180
    62 H(1)   Bbb    -0.0001    -0.035    -0.012    -0.012  0.3491  0.7551 -0.5549
              Bcc     0.0030     1.579     0.564     0.527  0.6574  0.2247  0.7192
 
              Baa    -0.0014    -0.760    -0.271    -0.254  0.7935  0.1216 -0.5963
    63 H(1)   Bbb     0.0005     0.274     0.098     0.091 -0.3325  0.9073 -0.2575
              Bcc     0.0009     0.487     0.174     0.162  0.5096  0.4026  0.7604
 
              Baa    -0.0015    -0.789    -0.282    -0.263  0.8415  0.0372 -0.5390
    64 H(1)   Bbb     0.0004     0.211     0.075     0.070  0.5403 -0.0572  0.8395
              Bcc     0.0011     0.578     0.206     0.193 -0.0004  0.9977  0.0682
 
              Baa    -0.0020     0.142     0.051     0.047  0.8742  0.4821  0.0572
    65 O(17)  Bbb    -0.0010     0.070     0.025     0.023  0.2227 -0.5029  0.8352
              Bcc     0.0029    -0.212    -0.076    -0.071 -0.4314  0.7174  0.5470
 
              Baa    -0.0004    -0.239    -0.085    -0.080 -0.5530  0.1781  0.8139
    66 H(1)   Bbb    -0.0003    -0.183    -0.065    -0.061  0.7135  0.6056  0.3523
              Bcc     0.0008     0.422     0.151     0.141 -0.4302  0.7756 -0.4620
 
              Baa    -0.0006     0.040     0.014     0.013  0.2141  0.6768  0.7043
    67 O(17)  Bbb    -0.0002     0.017     0.006     0.006  0.9768 -0.1544 -0.1486
              Bcc     0.0008    -0.057    -0.020    -0.019  0.0081  0.7198 -0.6941
 
              Baa    -0.0001    -0.060    -0.021    -0.020 -0.0722 -0.5720  0.8171
    68 H(1)   Bbb    -0.0001    -0.047    -0.017    -0.016  0.0750  0.8138  0.5763
              Bcc     0.0002     0.106     0.038     0.036  0.9946 -0.1029  0.0158
 
              Baa    -0.0362     2.623     0.936     0.875 -0.3242  0.8692 -0.3734
    69 O(17)  Bbb    -0.0347     2.512     0.896     0.838  0.9366  0.2392 -0.2562
              Bcc     0.0710    -5.135    -1.832    -1.713  0.1334  0.4327  0.8916
 
              Baa    -0.0018    -0.970    -0.346    -0.323 -0.5815  0.7777 -0.2389
    70 H(1)   Bbb    -0.0013    -0.710    -0.253    -0.237  0.1561  0.3949  0.9054
              Bcc     0.0031     1.680     0.599     0.560  0.7984  0.4891 -0.3511
 
              Baa    -0.0527     3.812     1.360     1.272  0.3430  0.6385  0.6889
    71 O(17)  Bbb    -0.0510     3.688     1.316     1.230 -0.5522  0.7304 -0.4021
              Bcc     0.1036    -7.500    -2.676    -2.502  0.7599  0.2425 -0.6031
 
              Baa    -0.0026    -1.405    -0.501    -0.469  0.0165  0.7526  0.6583
    72 H(1)   Bbb    -0.0017    -0.932    -0.332    -0.311  0.7854  0.3976 -0.4743
              Bcc     0.0044     2.336     0.834     0.779  0.6187 -0.5249  0.5845
 

 ---------------------------------------------------------------------------------

 No NMR shielding tensors so no spin-rotation constants.
 Leave Link  601 at Fri Jan 22 00:29:03 2021, MaxMem=  4026531840 cpu:              23.1 elap:               4.7
 (Enter /opt/ohpc/pub/libs/gaussian/g16-A.03/sandybridge/g16/l9999.exe)

 Test job not archived.
 1\1\GINC-CASCADEB028\SP\ULC-wHPBE\TZVP\C36H28N2O4S2(1+,2)\RDU230\22-Ja
 n-2021\0\\#P LC-wHPBE/TZVP iop(3/107=0167500000, 3/108=0167500000) scf
 =(conver=6,fermi,ndamp=35,noincfock,novaracc,vshift=500,xqc)\\H28 C36 
 S2 N2 O4\\1,2\C,0,-1.748928,-0.489907,0.452051\C,0,-0.626174,-1.279763
 ,0.15257\S,0,1.952753,-5.388628,0.812439\C,0,-0.882312,-2.170069,-0.82
 0725\C,0,1.932708,-2.897266,-0.476539\C,0,2.566514,-3.761438,0.41855\C
 ,0,-2.975354,-0.631957,-0.195801\C,0,-2.049066,-2.386893,-1.545961\H,0
 ,0.246316,-4.468801,-0.586079\C,0,2.384401,-1.613824,-0.700024\C,0,3.6
 73888,-3.269502,1.095477\C,0,4.135912,-1.984797,0.893895\C,0,3.494497,
 -1.125461,-0.002977\H,0,1.857267,-0.971131,-1.395345\H,0,4.176334,-3.9
 12174,1.811785\H,0,4.992977,-1.63215,1.456718\C,0,-3.122467,-1.590215,
 -1.210611\H,0,-1.688273,0.276733,1.226088\H,0,2.539,-6.051116,-0.20624
 9\H,0,-2.132551,-3.120151,-2.347153\H,0,-4.068236,-1.688167,-1.734116\
 S,0,0.491419,-3.391365,-1.37893\N,0,3.940024,0.175839,-0.195205\C,0,5.
 26504,0.53915,0.184549\C,0,5.479402,1.520085,1.147894\C,0,6.360048,-0.
 068673,-0.412912\C,0,6.761446,1.889048,1.505778\C,0,7.649207,0.280692,
 -0.044528\C,0,7.852726,1.26556,0.91321\H,0,4.624132,2.002234,1.612555\
 H,0,6.198832,-0.830082,-1.170918\H,0,6.936355,2.656092,2.253454\H,0,8.
 499101,-0.206598,-0.518215\C,0,3.067884,1.217797,-0.624973\C,0,3.53316
 9,2.175669,-1.516644\C,0,1.768428,1.324352,-0.133595\C,0,2.72389,3.230
 889,-1.904642\C,0,0.952027,2.363639,-0.537\C,0,1.429133,3.326131,-1.41
 5171\H,0,4.545758,2.102962,-1.902377\H,0,1.364259,0.566763,0.534909\H,
 0,3.106488,3.978127,-2.597301\H,0,-0.063643,2.437107,-0.162477\N,0,-4.
 071583,0.199288,0.137893\C,0,-5.379657,-0.330758,0.192504\C,0,-6.46407
 2,0.381862,-0.308117\C,0,-5.615898,-1.583782,0.758482\C,0,-7.748035,-0
 .135409,-0.237366\C,0,-6.890741,-2.11387,0.808775\C,0,-7.966332,-1.388
 715,0.314728\H,0,-6.301182,1.359246,-0.752201\H,0,-4.779992,-2.148147,
 1.16092\H,0,-8.582756,0.442294,-0.630527\H,0,-7.071352,-3.090185,1.247
 847\C,0,-3.863071,1.579858,0.373004\C,0,-4.488297,2.228332,1.435995\C,
 0,-3.028002,2.320518,-0.45569\C,0,-4.288516,3.577498,1.662294\C,0,-2.8
 02155,3.666597,-0.218956\C,0,-3.435225,4.300687,0.840523\H,0,-5.141183
 ,1.661753,2.093518\H,0,-2.533592,1.828985,-1.288374\H,0,-4.774148,4.08
 1779,2.492022\H,0,-2.125658,4.220184,-0.867724\O,0,0.584592,4.343911,-
 1.769173\H,0,1.03059,4.920168,-2.399784\O,0,9.095256,1.661445,1.308356
 \H,0,9.763222,1.159512,0.827959\O,0,-9.209724,-1.953542,0.400297\H,0,-
 9.859516,-1.347058,0.028653\O,0,-3.254007,5.627948,1.116747\H,0,-2.609
 433,5.991357,0.499352\\Version=EM64L-G16RevA.03\State=2-A\HF=-2593.725
 5282\S2=0.76093\S2-1=0.\S2A=0.750067\RMSD=6.381e-07\Dipole=-0.6297685,
 -0.9961081,-1.8843724\Quadrupole=53.364712,-5.7256173,-47.6390948,-10.
 6170873,-2.0585464,-2.0583783\PG=C01 [X(C36H28N2O4S2)]\\@


 ... IT CAN BE VERY DIFFICULT, IN THESE COMPLEX TIMES,
 TO UNDERSTAND JUST HOW SCIENTISTS DO WHAT THEY DO.

                     DON MOSER IN THE FEBRUARY 1979 SMITHSONIAN
 Job cpu time:       0 days 14 hours 11 minutes 42.8 seconds.
 Elapsed time:       0 days  1 hours 50 minutes 39.2 seconds.
 File lengths (MBytes):  RWF=    796 Int=      0 D2E=      0 Chk=     76 Scr=      8
 Normal termination of Gaussian 16 at Fri Jan 22 00:29:03 2021.
