 Entering Gaussian System, Link 0=g16
 Input=mol_ta_ma_whol_tune_c8.gjf
 Output=mol_ta_ma_whol_tune_c8.log
 Initial command:
 /opt/ohpc/pub/libs/gaussian/g16-A.03/sandybridge/g16/l1.exe "/mnt/gpfs2_4m/scratch/rdu230/ondemand/projects/init_structures/wtuning/mol_ta_ma_whol/tuning_mol_ta_ma_whol_ocycle0/Gau-209964.inp" -scrdir="/mnt/gpfs2_4m/scratch/rdu230/ondemand/projects/init_structures/wtuning/mol_ta_ma_whol/tuning_mol_ta_ma_whol_ocycle0/"
 Entering Link 1 = /opt/ohpc/pub/libs/gaussian/g16-A.03/sandybridge/g16/l1.exe PID=    209965.
  
 Copyright (c) 1988,1990,1992,1993,1995,1998,2003,2009,2016,
            Gaussian, Inc.  All Rights Reserved.
  
 This is part of the Gaussian(R) 16 program.  It is based on
 the Gaussian(R) 09 system (copyright 2009, Gaussian, Inc.),
 the Gaussian(R) 03 system (copyright 2003, Gaussian, Inc.),
 the Gaussian(R) 98 system (copyright 1998, Gaussian, Inc.),
 the Gaussian(R) 94 system (copyright 1995, Gaussian, Inc.),
 the Gaussian 92(TM) system (copyright 1992, Gaussian, Inc.),
 the Gaussian 90(TM) system (copyright 1990, Gaussian, Inc.),
 the Gaussian 88(TM) system (copyright 1988, Gaussian, Inc.),
 the Gaussian 86(TM) system (copyright 1986, Carnegie Mellon
 University), and the Gaussian 82(TM) system (copyright 1983,
 Carnegie Mellon University). Gaussian is a federally registered
 trademark of Gaussian, Inc.
  
 This software contains proprietary and confidential information,
 including trade secrets, belonging to Gaussian, Inc.
  
 This software is provided under written license and may be
 used, copied, transmitted, or stored only in accord with that
 written license.
  
 The following legend is applicable only to US Government
 contracts under FAR:
  
                    RESTRICTED RIGHTS LEGEND
  
 Use, reproduction and disclosure by the US Government is
 subject to restrictions as set forth in subparagraphs (a)
 and (c) of the Commercial Computer Software - Restricted
 Rights clause in FAR 52.227-19.
  
 Gaussian, Inc.
 340 Quinnipiac St., Bldg. 40, Wallingford CT 06492
  
  
 ---------------------------------------------------------------
 Warning -- This program may not be used in any manner that
 competes with the business of Gaussian, Inc. or will provide
 assistance to any competitor of Gaussian, Inc.  The licensee
 of this program is prohibited from giving any competitor of
 Gaussian, Inc. access to this program.  By using this program,
 the user acknowledges that Gaussian, Inc. is engaged in the
 business of creating and licensing software in the field of
 computational chemistry and represents and warrants to the
 licensee that it is not a competitor of Gaussian, Inc. and that
 it will not use this program in any manner prohibited above.
 ---------------------------------------------------------------
  

 Cite this work as:
 Gaussian 16, Revision A.03,
 M. J. Frisch, G. W. Trucks, H. B. Schlegel, G. E. Scuseria, 
 M. A. Robb, J. R. Cheeseman, G. Scalmani, V. Barone, 
 G. A. Petersson, H. Nakatsuji, X. Li, M. Caricato, A. V. Marenich, 
 J. Bloino, B. G. Janesko, R. Gomperts, B. Mennucci, H. P. Hratchian, 
 J. V. Ortiz, A. F. Izmaylov, J. L. Sonnenberg, D. Williams-Young, 
 F. Ding, F. Lipparini, F. Egidi, J. Goings, B. Peng, A. Petrone, 
 T. Henderson, D. Ranasinghe, V. G. Zakrzewski, J. Gao, N. Rega, 
 G. Zheng, W. Liang, M. Hada, M. Ehara, K. Toyota, R. Fukuda, 
 J. Hasegawa, M. Ishida, T. Nakajima, Y. Honda, O. Kitao, H. Nakai, 
 T. Vreven, K. Throssell, J. A. Montgomery, Jr., J. E. Peralta, 
 F. Ogliaro, M. J. Bearpark, J. J. Heyd, E. N. Brothers, K. N. Kudin, 
 V. N. Staroverov, T. A. Keith, R. Kobayashi, J. Normand, 
 K. Raghavachari, A. P. Rendell, J. C. Burant, S. S. Iyengar, 
 J. Tomasi, M. Cossi, J. M. Millam, M. Klene, C. Adamo, R. Cammi, 
 J. W. Ochterski, R. L. Martin, K. Morokuma, O. Farkas, 
 J. B. Foresman, and D. J. Fox, Gaussian, Inc., Wallingford CT, 2016.
 
 ******************************************
 Gaussian 16:  EM64L-G16RevA.03 25-Dec-2016
                22-Jan-2021 
 ******************************************
 %mem=30GB
 %nproc=8
 Will use up to    8 processors via shared memory.
 ----------------------------------------------------------------------
 #P LC-wHPBE/TZVP iop(3/107=0167800000, 3/108=0167800000) scf=(conver=6
 ,fermi,ndamp=35,noincfock,novaracc,vshift=500,xqc)
 ----------------------------------------------------------------------
 1/38=1,172=1/1;
 2/12=2,17=6,18=5,40=1/2;
 3/5=19,7=101,11=2,25=1,30=1,74=-71,107=167800000,108=167800000/1,2,3;
 4//1;
 5/5=100002,6=6,8=3,10=500,13=1,18=-1,22=13,38=1,93=35/2,8;
 6/7=2,8=2,9=2,10=2,28=1/1;
 99/5=1,9=1/99;
 Leave Link    1 at Fri Jan 22 03:35:30 2021, MaxMem=  4026531840 cpu:               1.6 elap:               0.3
 (Enter /opt/ohpc/pub/libs/gaussian/g16-A.03/sandybridge/g16/l101.exe)
 ----------------
 H28 C36 S2 N2 O4
 ----------------
 Symbolic Z-matrix:
 Charge =  1 Multiplicity = 2
 C                    -1.74893  -0.48991   0.45205 
 C                    -0.62617  -1.27976   0.15257 
 S                     1.95275  -5.38863   0.81244 
 C                    -0.88231  -2.17007  -0.82073 
 C                     1.93271  -2.89727  -0.47654 
 C                     2.56651  -3.76144   0.41855 
 C                    -2.97535  -0.63196  -0.1958 
 C                    -2.04907  -2.38689  -1.54596 
 H                     0.24632  -4.4688   -0.58608 
 C                     2.3844   -1.61382  -0.70002 
 C                     3.67389  -3.2695    1.09548 
 C                     4.13591  -1.9848    0.8939 
 C                     3.4945   -1.12546  -0.00298 
 H                     1.85727  -0.97113  -1.39535 
 H                     4.17633  -3.91217   1.81179 
 H                     4.99298  -1.63215   1.45672 
 C                    -3.12247  -1.59022  -1.21061 
 H                    -1.68827   0.27673   1.22609 
 H                     2.539    -6.05112  -0.20625 
 H                    -2.13255  -3.12015  -2.34715 
 H                    -4.06824  -1.68817  -1.73412 
 S                     0.49142  -3.39136  -1.37893 
 N                     3.94002   0.17584  -0.19521 
 C                     5.26504   0.53915   0.18455 
 C                     5.4794    1.52009   1.14789 
 C                     6.36005  -0.06867  -0.41291 
 C                     6.76145   1.88905   1.50578 
 C                     7.64921   0.28069  -0.04453 
 C                     7.85273   1.26556   0.91321 
 H                     4.62413   2.00223   1.61256 
 H                     6.19883  -0.83008  -1.17092 
 H                     6.93636   2.65609   2.25345 
 H                     8.4991   -0.2066   -0.51822 
 C                     3.06788   1.2178   -0.62497 
 C                     3.53317   2.17567  -1.51664 
 C                     1.76843   1.32435  -0.1336 
 C                     2.72389   3.23089  -1.90464 
 C                     0.95203   2.36364  -0.537 
 C                     1.42913   3.32613  -1.41517 
 H                     4.54576   2.10296  -1.90238 
 H                     1.36426   0.56676   0.53491 
 H                     3.10649   3.97813  -2.5973 
 H                    -0.06364   2.43711  -0.16248 
 N                    -4.07158   0.19929   0.13789 
 C                    -5.37966  -0.33076   0.1925 
 C                    -6.46407   0.38186  -0.30812 
 C                    -5.6159   -1.58378   0.75848 
 C                    -7.74803  -0.13541  -0.23737 
 C                    -6.89074  -2.11387   0.80878 
 C                    -7.96633  -1.38872   0.31473 
 H                    -6.30118   1.35925  -0.7522 
 H                    -4.77999  -2.14815   1.16092 
 H                    -8.58276   0.44229  -0.63053 
 H                    -7.07135  -3.09018   1.24785 
 C                    -3.86307   1.57986   0.373 
 C                    -4.4883    2.22833   1.436 
 C                    -3.028     2.32052  -0.45569 
 C                    -4.28852   3.5775    1.66229 
 C                    -2.80216   3.6666   -0.21896 
 C                    -3.43522   4.30069   0.84052 
 H                    -5.14118   1.66175   2.09352 
 H                    -2.53359   1.82899  -1.28837 
 H                    -4.77415   4.08178   2.49202 
 H                    -2.12566   4.22018  -0.86772 
 O                     0.58459   4.34391  -1.76917 
 H                     1.03059   4.92017  -2.39978 
 O                     9.09526   1.66145   1.30836 
 H                     9.76322   1.15951   0.82796 
 O                    -9.20972  -1.95354   0.4003 
 H                    -9.85952  -1.34706   0.02865 
 O                    -3.25401   5.62795   1.11675 
 H                    -2.60943   5.99136   0.49935 
 
 ITRead=  0  0  0  0  0  0  0  0  0  0  0  0  0  0  0  0  0  0  0  0
 ITRead=  0  0  0  0  0  0  0  0  0  0  0  0  0  0  0  0  0  0  0  0
 ITRead=  0  0  0  0  0  0  0  0  0  0  0  0  0  0  0  0  0  0  0  0
 ITRead=  0  0  0  0  0  0  0  0  0  0  0  0
 MicOpt= -1 -1 -1 -1 -1 -1 -1 -1 -1 -1 -1 -1 -1 -1 -1 -1 -1 -1 -1 -1
 MicOpt= -1 -1 -1 -1 -1 -1 -1 -1 -1 -1 -1 -1 -1 -1 -1 -1 -1 -1 -1 -1
 MicOpt= -1 -1 -1 -1 -1 -1 -1 -1 -1 -1 -1 -1 -1 -1 -1 -1 -1 -1 -1 -1
 MicOpt= -1 -1 -1 -1 -1 -1 -1 -1 -1 -1 -1 -1
 NAtoms=     72 NQM=       72 NQMF=       0 NMMI=      0 NMMIF=      0
                NMic=       0 NMicF=      0.
                    Isotopes and Nuclear Properties:
 (Nuclear quadrupole moments (NQMom) in fm**2, nuclear magnetic moments (NMagM)
  in nuclear magnetons)

  Atom         1           2           3           4           5           6           7           8           9          10
 IAtWgt=          12          12          32          12          12          12          12          12           1          12
 AtmWgt=  12.0000000  12.0000000  31.9720718  12.0000000  12.0000000  12.0000000  12.0000000  12.0000000   1.0078250  12.0000000
 NucSpn=           0           0           0           0           0           0           0           0           1           0
 AtZEff=  -0.0000000  -0.0000000  -0.0000000  -0.0000000  -0.0000000  -0.0000000  -0.0000000  -0.0000000  -0.0000000  -0.0000000
 NQMom=    0.0000000   0.0000000   0.0000000   0.0000000   0.0000000   0.0000000   0.0000000   0.0000000   0.0000000   0.0000000
 NMagM=    0.0000000   0.0000000   0.0000000   0.0000000   0.0000000   0.0000000   0.0000000   0.0000000   2.7928460   0.0000000
 AtZNuc=   6.0000000   6.0000000  16.0000000   6.0000000   6.0000000   6.0000000   6.0000000   6.0000000   1.0000000   6.0000000

  Atom        11          12          13          14          15          16          17          18          19          20
 IAtWgt=          12          12          12           1           1           1          12           1           1           1
 AtmWgt=  12.0000000  12.0000000  12.0000000   1.0078250   1.0078250   1.0078250  12.0000000   1.0078250   1.0078250   1.0078250
 NucSpn=           0           0           0           1           1           1           0           1           1           1
 AtZEff=  -0.0000000  -0.0000000  -0.0000000  -0.0000000  -0.0000000  -0.0000000  -0.0000000  -0.0000000  -0.0000000  -0.0000000
 NQMom=    0.0000000   0.0000000   0.0000000   0.0000000   0.0000000   0.0000000   0.0000000   0.0000000   0.0000000   0.0000000
 NMagM=    0.0000000   0.0000000   0.0000000   2.7928460   2.7928460   2.7928460   0.0000000   2.7928460   2.7928460   2.7928460
 AtZNuc=   6.0000000   6.0000000   6.0000000   1.0000000   1.0000000   1.0000000   6.0000000   1.0000000   1.0000000   1.0000000

  Atom        21          22          23          24          25          26          27          28          29          30
 IAtWgt=           1          32          14          12          12          12          12          12          12           1
 AtmWgt=   1.0078250  31.9720718  14.0030740  12.0000000  12.0000000  12.0000000  12.0000000  12.0000000  12.0000000   1.0078250
 NucSpn=           1           0           2           0           0           0           0           0           0           1
 AtZEff=  -0.0000000  -0.0000000  -0.0000000  -0.0000000  -0.0000000  -0.0000000  -0.0000000  -0.0000000  -0.0000000  -0.0000000
 NQMom=    0.0000000   0.0000000   2.0440000   0.0000000   0.0000000   0.0000000   0.0000000   0.0000000   0.0000000   0.0000000
 NMagM=    2.7928460   0.0000000   0.4037610   0.0000000   0.0000000   0.0000000   0.0000000   0.0000000   0.0000000   2.7928460
 AtZNuc=   1.0000000  16.0000000   7.0000000   6.0000000   6.0000000   6.0000000   6.0000000   6.0000000   6.0000000   1.0000000

  Atom        31          32          33          34          35          36          37          38          39          40
 IAtWgt=           1           1           1          12          12          12          12          12          12           1
 AtmWgt=   1.0078250   1.0078250   1.0078250  12.0000000  12.0000000  12.0000000  12.0000000  12.0000000  12.0000000   1.0078250
 NucSpn=           1           1           1           0           0           0           0           0           0           1
 AtZEff=  -0.0000000  -0.0000000  -0.0000000  -0.0000000  -0.0000000  -0.0000000  -0.0000000  -0.0000000  -0.0000000  -0.0000000
 NQMom=    0.0000000   0.0000000   0.0000000   0.0000000   0.0000000   0.0000000   0.0000000   0.0000000   0.0000000   0.0000000
 NMagM=    2.7928460   2.7928460   2.7928460   0.0000000   0.0000000   0.0000000   0.0000000   0.0000000   0.0000000   2.7928460
 AtZNuc=   1.0000000   1.0000000   1.0000000   6.0000000   6.0000000   6.0000000   6.0000000   6.0000000   6.0000000   1.0000000

  Atom        41          42          43          44          45          46          47          48          49          50
 IAtWgt=           1           1           1          14          12          12          12          12          12          12
 AtmWgt=   1.0078250   1.0078250   1.0078250  14.0030740  12.0000000  12.0000000  12.0000000  12.0000000  12.0000000  12.0000000
 NucSpn=           1           1           1           2           0           0           0           0           0           0
 AtZEff=  -0.0000000  -0.0000000  -0.0000000  -0.0000000  -0.0000000  -0.0000000  -0.0000000  -0.0000000  -0.0000000  -0.0000000
 NQMom=    0.0000000   0.0000000   0.0000000   2.0440000   0.0000000   0.0000000   0.0000000   0.0000000   0.0000000   0.0000000
 NMagM=    2.7928460   2.7928460   2.7928460   0.4037610   0.0000000   0.0000000   0.0000000   0.0000000   0.0000000   0.0000000
 AtZNuc=   1.0000000   1.0000000   1.0000000   7.0000000   6.0000000   6.0000000   6.0000000   6.0000000   6.0000000   6.0000000

  Atom        51          52          53          54          55          56          57          58          59          60
 IAtWgt=           1           1           1           1          12          12          12          12          12          12
 AtmWgt=   1.0078250   1.0078250   1.0078250   1.0078250  12.0000000  12.0000000  12.0000000  12.0000000  12.0000000  12.0000000
 NucSpn=           1           1           1           1           0           0           0           0           0           0
 AtZEff=  -0.0000000  -0.0000000  -0.0000000  -0.0000000  -0.0000000  -0.0000000  -0.0000000  -0.0000000  -0.0000000  -0.0000000
 NQMom=    0.0000000   0.0000000   0.0000000   0.0000000   0.0000000   0.0000000   0.0000000   0.0000000   0.0000000   0.0000000
 NMagM=    2.7928460   2.7928460   2.7928460   2.7928460   0.0000000   0.0000000   0.0000000   0.0000000   0.0000000   0.0000000
 AtZNuc=   1.0000000   1.0000000   1.0000000   1.0000000   6.0000000   6.0000000   6.0000000   6.0000000   6.0000000   6.0000000

  Atom        61          62          63          64          65          66          67          68          69          70
 IAtWgt=           1           1           1           1          16           1          16           1          16           1
 AtmWgt=   1.0078250   1.0078250   1.0078250   1.0078250  15.9949146   1.0078250  15.9949146   1.0078250  15.9949146   1.0078250
 NucSpn=           1           1           1           1           0           1           0           1           0           1
 AtZEff=  -0.0000000  -0.0000000  -0.0000000  -0.0000000  -0.0000000  -0.0000000  -0.0000000  -0.0000000  -0.0000000  -0.0000000
 NQMom=    0.0000000   0.0000000   0.0000000   0.0000000   0.0000000   0.0000000   0.0000000   0.0000000   0.0000000   0.0000000
 NMagM=    2.7928460   2.7928460   2.7928460   2.7928460   0.0000000   2.7928460   0.0000000   2.7928460   0.0000000   2.7928460
 AtZNuc=   1.0000000   1.0000000   1.0000000   1.0000000   8.0000000   1.0000000   8.0000000   1.0000000   8.0000000   1.0000000

  Atom        71          72
 IAtWgt=          16           1
 AtmWgt=  15.9949146   1.0078250
 NucSpn=           0           1
 AtZEff=  -0.0000000  -0.0000000
 NQMom=    0.0000000   0.0000000
 NMagM=    0.0000000   2.7928460
 AtZNuc=   8.0000000   1.0000000
 Leave Link  101 at Fri Jan 22 03:35:31 2021, MaxMem=  4026531840 cpu:               0.7 elap:               0.2
 (Enter /opt/ohpc/pub/libs/gaussian/g16-A.03/sandybridge/g16/l202.exe)
 Stoichiometry    C36H28N2O4S2(1+,2)
 Framework group  C1[X(C36H28N2O4S2)]
 Deg. of freedom   210
 Full point group                 C1      NOp   1
 Largest Abelian subgroup         C1      NOp   1
 Largest concise Abelian subgroup C1      NOp   1
                         Standard orientation:                         
 ---------------------------------------------------------------------
 Center     Atomic      Atomic             Coordinates (Angstroms)
 Number     Number       Type             X           Y           Z
 ---------------------------------------------------------------------
      1          6           0       -1.748928    0.489907   -0.452051
      2          6           0       -0.626174    1.279763   -0.152570
      3         16           0        1.952753    5.388628   -0.812439
      4          6           0       -0.882312    2.170069    0.820725
      5          6           0        1.932708    2.897266    0.476539
      6          6           0        2.566514    3.761438   -0.418550
      7          6           0       -2.975354    0.631957    0.195801
      8          6           0       -2.049066    2.386893    1.545961
      9          1           0        0.246316    4.468801    0.586079
     10          6           0        2.384401    1.613824    0.700024
     11          6           0        3.673888    3.269502   -1.095477
     12          6           0        4.135912    1.984797   -0.893895
     13          6           0        3.494497    1.125461    0.002977
     14          1           0        1.857267    0.971131    1.395345
     15          1           0        4.176334    3.912174   -1.811785
     16          1           0        4.992977    1.632150   -1.456718
     17          6           0       -3.122467    1.590215    1.210611
     18          1           0       -1.688273   -0.276733   -1.226088
     19          1           0        2.539000    6.051116    0.206249
     20          1           0       -2.132551    3.120151    2.347153
     21          1           0       -4.068236    1.688167    1.734116
     22         16           0        0.491419    3.391365    1.378930
     23          7           0        3.940024   -0.175839    0.195205
     24          6           0        5.265040   -0.539150   -0.184549
     25          6           0        5.479402   -1.520085   -1.147894
     26          6           0        6.360048    0.068673    0.412912
     27          6           0        6.761446   -1.889048   -1.505778
     28          6           0        7.649207   -0.280692    0.044528
     29          6           0        7.852726   -1.265560   -0.913210
     30          1           0        4.624132   -2.002234   -1.612555
     31          1           0        6.198832    0.830082    1.170918
     32          1           0        6.936355   -2.656092   -2.253454
     33          1           0        8.499101    0.206598    0.518215
     34          6           0        3.067884   -1.217797    0.624973
     35          6           0        3.533169   -2.175669    1.516644
     36          6           0        1.768428   -1.324352    0.133595
     37          6           0        2.723890   -3.230889    1.904642
     38          6           0        0.952027   -2.363639    0.537000
     39          6           0        1.429133   -3.326131    1.415171
     40          1           0        4.545758   -2.102962    1.902377
     41          1           0        1.364259   -0.566763   -0.534909
     42          1           0        3.106488   -3.978127    2.597301
     43          1           0       -0.063643   -2.437107    0.162477
     44          7           0       -4.071583   -0.199288   -0.137893
     45          6           0       -5.379657    0.330758   -0.192504
     46          6           0       -6.464072   -0.381862    0.308117
     47          6           0       -5.615898    1.583782   -0.758482
     48          6           0       -7.748035    0.135409    0.237366
     49          6           0       -6.890741    2.113870   -0.808775
     50          6           0       -7.966332    1.388715   -0.314728
     51          1           0       -6.301182   -1.359246    0.752201
     52          1           0       -4.779992    2.148147   -1.160920
     53          1           0       -8.582756   -0.442294    0.630527
     54          1           0       -7.071352    3.090185   -1.247847
     55          6           0       -3.863071   -1.579858   -0.373004
     56          6           0       -4.488297   -2.228332   -1.435995
     57          6           0       -3.028002   -2.320518    0.455690
     58          6           0       -4.288516   -3.577498   -1.662294
     59          6           0       -2.802155   -3.666597    0.218956
     60          6           0       -3.435225   -4.300687   -0.840523
     61          1           0       -5.141183   -1.661753   -2.093518
     62          1           0       -2.533592   -1.828985    1.288374
     63          1           0       -4.774148   -4.081779   -2.492022
     64          1           0       -2.125658   -4.220184    0.867724
     65          8           0        0.584592   -4.343911    1.769173
     66          1           0        1.030590   -4.920168    2.399784
     67          8           0        9.095256   -1.661445   -1.308356
     68          1           0        9.763222   -1.159512   -0.827959
     69          8           0       -9.209724    1.953542   -0.400297
     70          1           0       -9.859516    1.347058   -0.028653
     71          8           0       -3.254007   -5.627948   -1.116747
     72          1           0       -2.609433   -5.991357   -0.499352
 ---------------------------------------------------------------------
 Rotational constants (GHZ):           0.1003685           0.0370235           0.0288534
 Leave Link  202 at Fri Jan 22 03:35:31 2021, MaxMem=  4026531840 cpu:               0.2 elap:               0.0
 (Enter /opt/ohpc/pub/libs/gaussian/g16-A.03/sandybridge/g16/l301.exe)
 Standard basis: TZVP (5D, 7F)
 Ernie: Thresh=  0.10000D-02 Tol=  0.10000D-05 Strict=F.
 There are  1054 symmetry adapted cartesian basis functions of A   symmetry.
 There are  1010 symmetry adapted basis functions of A   symmetry.
  1010 basis functions,  1788 primitive gaussians,  1054 cartesian basis functions
   161 alpha electrons      160 beta electrons
       nuclear repulsion energy      5277.7236652844 Hartrees.
 IExCor=33909 DFT=T Ex+Corr=LC-wHPBE ExCW=0 ScaHFX=  1.000000
 ScaDFX=  1.000000  1.000000  1.000000  1.000000 ScalE2=  1.000000  1.000000
 IRadAn=      5 IRanWt=     -1 IRanGd=            0 ICorTp=0 IEmpDi=  4
 HFx  wShort=  0.000000 wLong=  0.167800 cFull=  0.000000 cShort=  0.000000 cLong=  1.000000
 DFx  wShort=  0.000000 wLong=  0.167800 cFull=  0.000000 cShort=  1.000000 cLong=  0.000000
 NAtoms=   72 NActive=   72 NUniq=   72 SFac= 1.00D+00 NAtFMM=   60 NAOKFM=T Big=T
 Integral buffers will be    131072 words long.
 Raffenetti 2 integral format.
 Two-electron integral symmetry is turned on.
 Leave Link  301 at Fri Jan 22 03:35:31 2021, MaxMem=  4026531840 cpu:               0.5 elap:               0.1
 (Enter /opt/ohpc/pub/libs/gaussian/g16-A.03/sandybridge/g16/l302.exe)
 NPDir=0 NMtPBC=     1 NCelOv=     1 NCel=       1 NClECP=     1 NCelD=      1
         NCelK=      1 NCelE2=     1 NClLst=     1 CellRange=     0.0.
 One-electron integrals computed using PRISM.
 One-electron integral symmetry used in STVInt
 NBasis=  1010 RedAO= T EigKep=  6.33D-06  NBF=  1010
 NBsUse=  1010 1.00D-06 EigRej= -1.00D+00 NBFU=  1010
 Precomputing XC quadrature grid using
 IXCGrd= 4 IRadAn=           5 IRanWt=          -1 IRanGd=           0 AccXCQ= 0.00D+00.
 Generated NRdTot=       0 NPtTot=           0 NUsed=           0 NTot=          32
 NSgBfM=   960   960   960   960   960 MxSgAt=    72 MxSgA2=    72.
 Leave Link  302 at Fri Jan 22 03:35:39 2021, MaxMem=  4026531840 cpu:              32.0 elap:               8.0
 (Enter /opt/ohpc/pub/libs/gaussian/g16-A.03/sandybridge/g16/l303.exe)
 DipDrv:  MaxL=1.
 Leave Link  303 at Fri Jan 22 03:35:39 2021, MaxMem=  4026531840 cpu:               2.3 elap:               0.4
 (Enter /opt/ohpc/pub/libs/gaussian/g16-A.03/sandybridge/g16/l401.exe)
 ExpMin= 9.52D-02 ExpMax= 6.07D+04 ExpMxC= 2.07D+03 IAcc=3 IRadAn=         5 AccDes= 0.00D+00
 Harris functional with IExCor=33909 and IRadAn=       5 diagonalized for initial guess.
 HarFok:  IExCor=33909 AccDes= 0.00D+00 IRadAn=         5 IDoV= 1 UseB2=F ITyADJ=14
 ICtDFT=  3500011 ScaDFX=  1.000000  1.000000  1.000000  1.000000
 FoFCou: FMM=F IPFlag=           0 FMFlag=      100000 FMFlg1=        2001
         NFxFlg=           0 DoJE=T BraDBF=F KetDBF=T FulRan=T
         wScrn=  0.000000 ICntrl=       500 IOpCl=  0 I1Cent=   200000004 NGrid=           0
         NMat0=    1 NMatS0=      1 NMatT0=    0 NMatD0=    1 NMtDS0=    0 NMtDT0=    0
 Petite list used in FoFCou.
 Harris En= -2564.69436900462    
 JPrj=0 DoOrth=F DoCkMO=F.
 Initial guess <Sx>= 0.0000 <Sy>= 0.0000 <Sz>= 0.5000 <S**2>= 0.7500 S= 0.5000
 Leave Link  401 at Fri Jan 22 03:35:56 2021, MaxMem=  4026531840 cpu:             115.9 elap:              16.7
 (Enter /opt/ohpc/pub/libs/gaussian/g16-A.03/sandybridge/g16/l502.exe)
 Integral symmetry usage will be decided dynamically.
 UHF open shell SCF:
 Using DIIS extrapolation, IDIIS=    10.
 NGot=  4026531840 LenX=  4024291472 LenY=  4023179502
 Requested convergence on RMS density matrix=1.00D-06 within  32 cycles.
 Requested convergence on MAX density matrix=1.00D-04.
 Requested convergence on             energy=1.00D-04.
 Virtual orbitals will be shifted by   0.500 hartree.
 No special actions if energy rises.
 Dynamic level shift is on during FON iterations.

 Cycle   1  Pass 1  IDiag  1:
 FoFJK:  IHMeth= 1 ICntrl=       0 DoSepK=T KAlg= 0 I1Cent=           0 FoldK=F
 IRaf=         1 NMat=       1 IRICut=       1 DoRegI=T DoRafI=F ISym2E= 0 IDoP0=0 IntGTp=1.
 FoFCou: FMM=T IPFlag=           0 FMFlag=      100000 FMFlg1=        2001
         NFxFlg=           0 DoJE=T BraDBF=F KetDBF=F FulRan=T
         wScrn=  0.000000 ICntrl=       500 IOpCl=  0 I1Cent=           0 NGrid=           0
         NMat0=    1 NMatS0=      1 NMatT0=    0 NMatD0=    1 NMtDS0=    0 NMtDT0=    0
 Symmetry not used in FoFCou.
 FMM levels:  10  Number of levels for PrismC:   9
 E= -2592.77264431686    
 DIIS: error= 3.62D-02 at cycle   1 NSaved=   1.
 NSaved= 1 IEnMin= 1 EnMin= -2592.77264431686     IErMin= 1 ErrMin= 3.62D-02
 ErrMax= 3.62D-02  0.00D+00 EMaxC= 1.00D+00 BMatC= 3.73D+00 BMatP= 3.73D+00
 IDIUse=1 WtCom= 1.00D+00 WtEn= 0.00D+00
 Coeff-Com:  0.100D+01
 Coeff:      0.100D+01
 Gap=     0.441 Goal=   None    Shift=    0.500
 T= 1608. Gap= 0.424 NK=0 IS=  162 IE= 1010 IFin=  161
          NO(<0.9)=   0  NV(>0.1)=   0    161.00e < EF      0.00e >EF  Err=0.0D+00
 Gap=     0.008 Goal=   None    Shift=    0.500
 T= 1608. Gap= 0.367 NK=0 IS=  161 IE= 1010 IFin=  160
          NO(<0.9)=   0  NV(>0.1)=   0    160.00e < EF      0.00e >EF  Err=0.0D+00
 GapD=    0.008 DampG=0.250 DampE=0.500 DampFc=0.1250 IDamp=-1.
 Damping current iteration by 1.25D-01
 RMSDP=3.81D-03 MaxDP=4.83D-01              OVMax= 1.56D-01

 Cycle   2  Pass 1  IDiag  1:
 E= -2592.95556107255     Delta-E=       -0.182916755682 Rises=F Damp=T
 DIIS: error= 3.25D-02 at cycle   2 NSaved=   2.
 NSaved= 2 IEnMin= 2 EnMin= -2592.95556107255     IErMin= 2 ErrMin= 3.25D-02
 ErrMax= 3.25D-02  0.00D+00 EMaxC= 1.00D+00 BMatC= 2.60D+00 BMatP= 3.73D+00
 IDIUse=1 WtCom= 1.00D+00 WtEn= 0.00D+00
 Coeff-Com: -0.471D+01 0.571D+01
 Coeff:     -0.471D+01 0.571D+01
 Gap=     0.238 Goal=   None    Shift=    0.500
 T= 1588. Gap= 0.702 NK=4 IS=  162 IE=  184 IFin=  161
          NO(<0.9)=   0  NV(>0.1)=   0    161.00e < EF      0.00e >EF  Err=0.0D+00
 Gap=     0.091 Goal=   None    Shift=    0.500
 T= 1588. Gap= 0.570 NK=4 IS=  161 IE=  182 IFin=  160
          NO(<0.9)=   0  NV(>0.1)=   0    160.00e < EF      0.00e >EF  Err=0.0D+00
 GapD=    0.091 DampG=0.500 DampE=0.500 DampFc=0.2500 IDamp=-1.
 Damping current iteration by 2.50D-01
 RMSDP=3.00D-03 MaxDP=3.20D-01 DE=-1.83D-01 OVMax= 7.11D-02

 Cycle   3  Pass 1  IDiag  1:
 E= -2593.21396468566     Delta-E=       -0.258403613111 Rises=F Damp=T
 DIIS: error= 2.49D-02 at cycle   3 NSaved=   3.
 NSaved= 3 IEnMin= 3 EnMin= -2593.21396468566     IErMin= 3 ErrMin= 2.49D-02
 ErrMax= 2.49D-02  0.00D+00 EMaxC= 1.00D+00 BMatC= 1.34D+00 BMatP= 2.60D+00
 IDIUse=1 WtCom= 1.00D+00 WtEn= 0.00D+00
 Coeff-Com: -0.499D-01-0.241D+01 0.346D+01
 Coeff:     -0.499D-01-0.241D+01 0.346D+01
 Gap=     0.233 Goal=   None    Shift=    0.500
 T= 1519. Gap= 0.728 NK=4 IS=  162 IE=  183 IFin=  161
          NO(<0.9)=   0  NV(>0.1)=   0    161.00e < EF      0.00e >EF  Err=0.0D+00
 Gap=     0.082 Goal=   None    Shift=    0.500
 T= 1519. Gap= 0.582 NK=4 IS=  161 IE=  182 IFin=  160
          NO(<0.9)=   0  NV(>0.1)=   0    160.00e < EF      0.00e >EF  Err=0.0D+00
 GapD=    0.082 DampG=0.500 DampE=0.500 DampFc=0.2500 IDamp=-1.
 Damping current iteration by 2.50D-01
 RMSDP=1.91D-03 MaxDP=1.73D-01 DE=-2.58D-01 OVMax= 3.05D-02

 Cycle   4  Pass 1  IDiag  1:
 E= -2593.37095112280     Delta-E=       -0.156986437145 Rises=F Damp=T
 DIIS: error= 1.99D-02 at cycle   4 NSaved=   4.
 NSaved= 4 IEnMin= 4 EnMin= -2593.37095112280     IErMin= 4 ErrMin= 1.99D-02
 ErrMax= 1.99D-02  0.00D+00 EMaxC= 1.00D+00 BMatC= 7.17D-01 BMatP= 1.34D+00
 IDIUse=1 WtCom= 1.00D+00 WtEn= 0.00D+00
 Coeff-Com:  0.522D+00-0.707D+00-0.280D+01 0.399D+01
 Coeff:      0.522D+00-0.707D+00-0.280D+01 0.399D+01
 Gap=     0.231 Goal=   None    Shift=    0.500
 T= 1404. Gap= 0.730 NK=4 IS=  162 IE=  184 IFin=  161
          NO(<0.9)=   0  NV(>0.1)=   0    161.00e < EF      0.00e >EF  Err=0.0D+00
 Gap=     0.086 Goal=   None    Shift=    0.500
 T= 1404. Gap= 0.587 NK=4 IS=  161 IE=  183 IFin=  160
          NO(<0.9)=   0  NV(>0.1)=   0    160.00e < EF      0.00e >EF  Err=0.0D+00
 GapD=    0.086 DampG=0.500 DampE=0.500 DampFc=0.2500 IDamp=-1.
 Damping current iteration by 2.50D-01
 RMSDP=1.33D-03 MaxDP=1.27D-01 DE=-1.57D-01 OVMax= 3.12D-02

 Cycle   5  Pass 1  IDiag  1:
 E= -2593.47274529469     Delta-E=       -0.101794171886 Rises=F Damp=T
 DIIS: error= 1.61D-02 at cycle   5 NSaved=   5.
 NSaved= 5 IEnMin= 5 EnMin= -2593.47274529469     IErMin= 5 ErrMin= 1.61D-02
 ErrMax= 1.61D-02  0.00D+00 EMaxC= 1.00D+00 BMatC= 3.97D-01 BMatP= 7.17D-01
 IDIUse=1 WtCom= 1.00D+00 WtEn= 0.00D+00
 Coeff-Com:  0.910D-01 0.255D+00-0.368D+00-0.369D+01 0.471D+01
 Coeff:      0.910D-01 0.255D+00-0.368D+00-0.369D+01 0.471D+01
 Gap=     0.230 Goal=   None    Shift=    0.500
 T= 1262. Gap= 0.730 NK=4 IS=  162 IE=  184 IFin=  161
          NO(<0.9)=   0  NV(>0.1)=   0    161.00e < EF      0.00e >EF  Err=0.0D+00
 Gap=     0.090 Goal=   None    Shift=    0.500
 T= 1262. Gap= 0.592 NK=4 IS=  161 IE=  183 IFin=  160
          NO(<0.9)=   0  NV(>0.1)=   0    160.00e < EF      0.00e >EF  Err=0.0D+00
 GapD=    0.090 DampG=0.500 DampE=0.500 DampFc=0.2500 IDamp=-1.
 Damping current iteration by 2.50D-01
 RMSDP=9.78D-04 MaxDP=1.04D-01 DE=-1.02D-01 OVMax= 2.66D-02

 Cycle   6  Pass 1  IDiag  1:
 E= -2593.54181192794     Delta-E=       -0.069066633248 Rises=F Damp=T
 DIIS: error= 1.32D-02 at cycle   6 NSaved=   6.
 NSaved= 6 IEnMin= 6 EnMin= -2593.54181192794     IErMin= 6 ErrMin= 1.32D-02
 ErrMax= 1.32D-02  0.00D+00 EMaxC= 1.00D+00 BMatC= 2.23D-01 BMatP= 3.97D-01
 IDIUse=1 WtCom= 1.00D+00 WtEn= 0.00D+00
 Coeff-Com: -0.115D+00 0.307D+00 0.479D+00-0.582D+00-0.481D+01 0.572D+01
 Coeff:     -0.115D+00 0.307D+00 0.479D+00-0.582D+00-0.481D+01 0.572D+01
 Gap=     0.231 Goal=   None    Shift=    0.500
 T= 1134. Gap= 0.731 NK=4 IS=  162 IE=  184 IFin=  161
          NO(<0.9)=   0  NV(>0.1)=   0    161.00e < EF      0.00e >EF  Err=0.0D+00
 Gap=     0.094 Goal=   None    Shift=    0.500
 T= 1134. Gap= 0.595 NK=4 IS=  161 IE=  183 IFin=  160
          NO(<0.9)=   0  NV(>0.1)=   0    160.00e < EF      0.00e >EF  Err=0.0D+00
 GapD=    0.094 DampG=0.500 DampE=0.500 DampFc=0.2500 IDamp=-1.
 Damping current iteration by 2.50D-01
 RMSDP=7.60D-04 MaxDP=8.76D-02 DE=-6.91D-02 OVMax= 2.39D-02

 Cycle   7  Pass 1  IDiag  1:
 E= -2593.59018150145     Delta-E=       -0.048369573516 Rises=F Damp=T
 DIIS: error= 1.10D-02 at cycle   7 NSaved=   7.
 NSaved= 7 IEnMin= 7 EnMin= -2593.59018150145     IErMin= 7 ErrMin= 1.10D-02
 ErrMax= 1.10D-02  0.00D+00 EMaxC= 1.00D+00 BMatC= 1.25D-01 BMatP= 2.23D-01
 IDIUse=1 WtCom= 1.00D+00 WtEn= 0.00D+00
 Coeff-Com: -0.288D-01-0.123D+00 0.415D+00 0.203D+01-0.328D+01-0.495D+01
 Coeff-Com:  0.693D+01
 Coeff:     -0.288D-01-0.123D+00 0.415D+00 0.203D+01-0.328D+01-0.495D+01
 Coeff:      0.693D+01
 Gap=     0.230 Goal=   None    Shift=    0.500
 T= 1015. Gap= 0.730 NK=4 IS=  162 IE=  184 IFin=  161
          NO(<0.9)=   0  NV(>0.1)=   0    161.00e < EF      0.00e >EF  Err=0.0D+00
 Gap=     0.098 Goal=   None    Shift=    0.500
 T= 1015. Gap= 0.599 NK=4 IS=  161 IE=  182 IFin=  160
          NO(<0.9)=   0  NV(>0.1)=   0    160.00e < EF      0.00e >EF  Err=0.0D+00
 GapD=    0.098 DampG=0.500 DampE=0.500 DampFc=0.2500 IDamp=-1.
 Damping current iteration by 2.50D-01
 RMSDP=6.09D-04 MaxDP=6.96D-02 DE=-4.84D-02 OVMax= 2.19D-02

 Cycle   8  Pass 1  IDiag  1:
 E= -2593.62470655270     Delta-E=       -0.034525051254 Rises=F Damp=T
 DIIS: error= 9.12D-03 at cycle   8 NSaved=   8.
 NSaved= 8 IEnMin= 8 EnMin= -2593.62470655270     IErMin= 8 ErrMin= 9.12D-03
 ErrMax= 9.12D-03  0.00D+00 EMaxC= 1.00D+00 BMatC= 7.11D-02 BMatP= 1.25D-01
 IDIUse=1 WtCom= 1.00D+00 WtEn= 0.00D+00
 Coeff-Com:  0.848D-01-0.314D+00 0.985D-01 0.122D+01 0.858D+00-0.313D+01
 Coeff-Com: -0.509D+01 0.728D+01
 Coeff:      0.848D-01-0.314D+00 0.985D-01 0.122D+01 0.858D+00-0.313D+01
 Coeff:     -0.509D+01 0.728D+01
 Gap=     0.230 Goal=   None    Shift=    0.500
 T=  900. Gap= 0.730 NK=4 IS=  162 IE=  184 IFin=  161
          NO(<0.9)=   0  NV(>0.1)=   0    161.00e < EF      0.00e >EF  Err=0.0D+00
 Gap=     0.101 Goal=   None    Shift=    0.500
 T=  900. Gap= 0.602 NK=4 IS=  161 IE=  182 IFin=  160
          NO(<0.9)=   0  NV(>0.1)=   0    160.00e < EF      0.00e >EF  Err=0.0D+00
 GapD=    0.101 DampG=1.000 DampE=1.000 DampFc=1.0000 IDamp=-1.
 RMSDP=4.97D-04 MaxDP=6.51D-02 DE=-3.45D-02 OVMax= 2.02D-02

 Cycle   9  Pass 1  IDiag  1:
 E= -2593.72095883349     Delta-E=       -0.096252280785 Rises=F Damp=F
 DIIS: error= 3.43D-03 at cycle   9 NSaved=   9.
 NSaved= 9 IEnMin= 9 EnMin= -2593.72095883349     IErMin= 9 ErrMin= 3.43D-03
 ErrMax= 3.43D-03  0.00D+00 EMaxC= 1.00D+00 BMatC= 5.25D-04 BMatP= 7.11D-02
 IDIUse=1 WtCom= 1.00D+00 WtEn= 0.00D+00
 Coeff-Com:  0.948D-01-0.252D+00-0.799D-01 0.136D+00 0.237D+01-0.323D+00
 Coeff-Com: -0.672D+01 0.464D+01 0.114D+01
 Coeff:      0.948D-01-0.252D+00-0.799D-01 0.136D+00 0.237D+01-0.323D+00
 Coeff:     -0.672D+01 0.464D+01 0.114D+01
 Gap=     0.229 Goal=   None    Shift=    0.500
 T=  691. Gap= 0.729 NK=4 IS=  162 IE=  184 IFin=  161
          NO(<0.9)=   0  NV(>0.1)=   0    161.00e < EF      0.00e >EF  Err=0.0D+00
 Gap=     0.103 Goal=   None    Shift=    0.500
 T=  691. Gap= 0.603 NK=4 IS=  161 IE=  182 IFin=  160
          NO(<0.9)=   0  NV(>0.1)=   0    160.00e < EF      0.00e >EF  Err=0.0D+00
 GapD=    0.103 DampG=1.000 DampE=1.000 DampFc=1.0000 IDamp=-1.
 RMSDP=6.81D-05 MaxDP=8.69D-03 DE=-9.63D-02 OVMax= 1.60D-02

 Cycle  10  Pass 1  IDiag  1:
 E= -2593.72189754390     Delta-E=       -0.000938710414 Rises=F Damp=F
 DIIS: error= 2.70D-03 at cycle  10 NSaved=  10.
 NSaved=10 IEnMin=10 EnMin= -2593.72189754390     IErMin=10 ErrMin= 2.70D-03
 ErrMax= 2.70D-03  0.00D+00 EMaxC= 1.00D+00 BMatC= 3.65D-04 BMatP= 5.25D-04
 IDIUse=1 WtCom= 1.00D+00 WtEn= 0.00D+00
 Coeff-Com: -0.217D-01 0.887D-01-0.674D-01-0.445D+00-0.964D-01 0.256D+01
 Coeff-Com: -0.249D+01 0.330D+00-0.294D+01 0.410D+01
 Coeff:     -0.217D-01 0.887D-01-0.674D-01-0.445D+00-0.964D-01 0.256D+01
 Coeff:     -0.249D+01 0.330D+00-0.294D+01 0.410D+01
 Gap=     0.229 Goal=   None    Shift=    0.500
 T=  431. Gap= 0.728 NK=4 IS=  162 IE=  184 IFin=  161
          NO(<0.9)=   0  NV(>0.1)=   0    161.00e < EF      0.00e >EF  Err=0.0D+00
 Gap=     0.104 Goal=   None    Shift=    0.500
 T=  431. Gap= 0.605 NK=4 IS=  161 IE=  181 IFin=  160
          NO(<0.9)=   0  NV(>0.1)=   0    160.00e < EF      0.00e >EF  Err=0.0D+00
 GapD=    0.104 DampG=1.000 DampE=1.000 DampFc=1.0000 IDamp=-1.
 RMSDP=8.15D-05 MaxDP=1.12D-02 DE=-9.39D-04 OVMax= 1.94D-02

 Cycle  11  Pass 1  IDiag  1:
 E= -2593.72267453662     Delta-E=       -0.000776992718 Rises=F Damp=F
 DIIS: error= 2.02D-03 at cycle  11 NSaved=  11.
 NSaved=11 IEnMin=11 EnMin= -2593.72267453662     IErMin=11 ErrMin= 2.02D-03
 ErrMax= 2.02D-03  0.00D+00 EMaxC= 1.00D+00 BMatC= 2.83D-04 BMatP= 3.65D-04
 IDIUse=1 WtCom= 1.00D+00 WtEn= 0.00D+00
 Coeff-Com: -0.320D-01 0.102D+00-0.200D-01-0.396D+00-0.444D+00 0.202D+01
 Coeff-Com: -0.723D+00-0.613D+00-0.287D+01 0.343D+01 0.551D+00
 Coeff:     -0.320D-01 0.102D+00-0.200D-01-0.396D+00-0.444D+00 0.202D+01
 Coeff:     -0.723D+00-0.613D+00-0.287D+01 0.343D+01 0.551D+00
 Gap=     0.229 Goal=   None    Shift=    0.500
 T=   55. Gap= 0.729 NK=4 IS=  162 IE=  184 IFin=  161
          NO(<0.9)=   0  NV(>0.1)=   0    161.00e < EF      0.00e >EF  Err=0.0D+00
 Gap=     0.105 Goal=   None    Shift=    0.500
 T=   55. Gap= 0.606 NK=4 IS=  161 IE=  181 IFin=  160
          NO(<0.9)=   0  NV(>0.1)=   0    160.00e < EF      0.00e >EF  Err=0.0D+00
 GapD=    0.105 DampG=1.000 DampE=1.000 DampFc=1.0000 IDamp=-1.
 RMSDP=5.01D-05 MaxDP=5.24D-03 DE=-7.77D-04 OVMax= 1.66D-02

 Cycle  12  Pass 1  IDiag  1:
 E= -2593.72317895281     Delta-E=       -0.000504416184 Rises=F Damp=F
 DIIS: error= 1.51D-03 at cycle  12 NSaved=  12.
 NSaved=12 IEnMin=12 EnMin= -2593.72317895281     IErMin=12 ErrMin= 1.51D-03
 ErrMax= 1.51D-03  0.00D+00 EMaxC= 1.00D+00 BMatC= 1.96D-04 BMatP= 2.83D-04
 IDIUse=1 WtCom= 1.00D+00 WtEn= 0.00D+00
 Coeff-Com: -0.353D-02 0.393D-02 0.886D-01 0.945D-01-0.108D+01 0.591D-01
 Coeff-Com:  0.355D+01-0.295D+01 0.158D+00-0.974D-01-0.273D+01 0.391D+01
 Coeff:     -0.353D-02 0.393D-02 0.886D-01 0.945D-01-0.108D+01 0.591D-01
 Coeff:      0.355D+01-0.295D+01 0.158D+00-0.974D-01-0.273D+01 0.391D+01
 Gap=     0.229 Goal=   None    Shift=    0.500
 Gap=     0.106 Goal=   None    Shift=    0.500
 GapD=    0.106 DampG=1.000 DampE=1.000 DampFc=1.0000 IDamp=-1.
 RMSDP=5.83D-05 MaxDP=8.64D-03 DE=-5.04D-04 OVMax= 1.83D-02

 Cycle  13  Pass 1  IDiag  1:
 E= -2593.72358532039     Delta-E=       -0.000406367588 Rises=F Damp=F
 DIIS: error= 1.25D-03 at cycle  13 NSaved=  13.
 NSaved=13 IEnMin=13 EnMin= -2593.72358532039     IErMin=13 ErrMin= 1.25D-03
 ErrMax= 1.25D-03  0.00D+00 EMaxC= 1.00D+00 BMatC= 1.64D-04 BMatP= 1.96D-04
 IDIUse=1 WtCom= 1.00D+00 WtEn= 0.00D+00
 Coeff-Com:  0.108D-01-0.420D-01 0.909D-01 0.141D+00-0.377D+00-0.109D+01
 Coeff-Com:  0.342D+01-0.240D+01 0.153D+01-0.145D+01-0.365D+01 0.372D+01
 Coeff-Com:  0.109D+01
 Coeff:      0.108D-01-0.420D-01 0.909D-01 0.141D+00-0.377D+00-0.109D+01
 Coeff:      0.342D+01-0.240D+01 0.153D+01-0.145D+01-0.365D+01 0.372D+01
 Coeff:      0.109D+01
 Gap=     0.228 Goal=   None    Shift=    0.500
 Gap=     0.107 Goal=   None    Shift=    0.500
 GapD=    0.107 DampG=1.000 DampE=1.000 DampFc=1.0000 IDamp=-1.
 RMSDP=4.86D-05 MaxDP=6.64D-03 DE=-4.06D-04 OVMax= 1.79D-02

 Cycle  14  Pass 1  IDiag  1:
 E= -2593.72390675215     Delta-E=       -0.000321431756 Rises=F Damp=F
 DIIS: error= 1.24D-03 at cycle  14 NSaved=  14.
 NSaved=14 IEnMin=14 EnMin= -2593.72390675215     IErMin=14 ErrMin= 1.24D-03
 ErrMax= 1.24D-03  0.00D+00 EMaxC= 1.00D+00 BMatC= 1.33D-04 BMatP= 1.64D-04
 IDIUse=1 WtCom= 1.00D+00 WtEn= 0.00D+00
 Coeff-Com:  0.172D-01-0.461D-01-0.472D-02-0.761D-01 0.100D+01-0.121D+01
 Coeff-Com: -0.178D+00 0.419D+00 0.150D+01-0.117D+01-0.257D+01 0.208D+01
 Coeff-Com: -0.141D+01 0.266D+01
 Coeff:      0.172D-01-0.461D-01-0.472D-02-0.761D-01 0.100D+01-0.121D+01
 Coeff:     -0.178D+00 0.419D+00 0.150D+01-0.117D+01-0.257D+01 0.208D+01
 Coeff:     -0.141D+01 0.266D+01
 Gap=     0.228 Goal=   None    Shift=    0.500
 Gap=     0.108 Goal=   None    Shift=    0.500
 GapD=    0.108 DampG=1.000 DampE=1.000 DampFc=1.0000 IDamp=-1.
 RMSDP=4.96D-05 MaxDP=7.07D-03 DE=-3.21D-04 OVMax= 1.81D-02

 Cycle  15  Pass 1  IDiag  1:
 E= -2593.72417852224     Delta-E=       -0.000271770092 Rises=F Damp=F
 DIIS: error= 1.26D-03 at cycle  15 NSaved=  15.
 NSaved=15 IEnMin=15 EnMin= -2593.72417852224     IErMin=14 ErrMin= 1.24D-03
 ErrMax= 1.26D-03  0.00D+00 EMaxC= 1.00D+00 BMatC= 1.23D-04 BMatP= 1.33D-04
 IDIUse=1 WtCom= 1.00D+00 WtEn= 0.00D+00
 Coeff-Com:  0.147D-01-0.295D-01-0.476D-01-0.157D+00 0.122D+01-0.923D+00
 Coeff-Com: -0.100D+01 0.848D+00 0.108D+01-0.566D+00-0.200D+01 0.164D+01
 Coeff-Com: -0.197D+01 0.183D+01 0.107D+01
 Coeff:      0.147D-01-0.295D-01-0.476D-01-0.157D+00 0.122D+01-0.923D+00
 Coeff:     -0.100D+01 0.848D+00 0.108D+01-0.566D+00-0.200D+01 0.164D+01
 Coeff:     -0.197D+01 0.183D+01 0.107D+01
 Gap=     0.228 Goal=   None    Shift=    0.500
 Gap=     0.108 Goal=   None    Shift=    0.500
 GapD=    0.108 DampG=1.000 DampE=1.000 DampFc=1.0000 IDamp=-1.
 RMSDP=3.84D-05 MaxDP=4.62D-03 DE=-2.72D-04 OVMax= 1.61D-02

 Cycle  16  Pass 1  IDiag  1:
 E= -2593.72439635561     Delta-E=       -0.000217833364 Rises=F Damp=F
 DIIS: error= 1.21D-03 at cycle  16 NSaved=  16.
 NSaved=16 IEnMin=16 EnMin= -2593.72439635561     IErMin=16 ErrMin= 1.21D-03
 ErrMax= 1.21D-03  0.00D+00 EMaxC= 1.00D+00 BMatC= 9.95D-05 BMatP= 1.23D-04
 IDIUse=1 WtCom= 1.00D+00 WtEn= 0.00D+00
 Coeff-Com:  0.458D-02 0.249D-01-0.968D-01-0.132D+00 0.989D-01 0.951D+00
 Coeff-Com: -0.314D+00-0.850D+00 0.833D-01 0.739D+00-0.218D+00 0.544D+00
 Coeff-Com: -0.399D+00-0.269D+01-0.202D+01 0.527D+01
 Coeff:      0.458D-02 0.249D-01-0.968D-01-0.132D+00 0.989D-01 0.951D+00
 Coeff:     -0.314D+00-0.850D+00 0.833D-01 0.739D+00-0.218D+00 0.544D+00
 Coeff:     -0.399D+00-0.269D+01-0.202D+01 0.527D+01
 Gap=     0.227 Goal=   None    Shift=    0.500
 Gap=     0.109 Goal=   None    Shift=    0.500
 GapD=    0.109 DampG=1.000 DampE=1.000 DampFc=1.0000 IDamp=-1.
 RMSDP=8.03D-05 MaxDP=1.33D-02 DE=-2.18D-04 OVMax= 2.19D-02

 Cycle  17  Pass 1  IDiag  1:
 E= -2593.72462962517     Delta-E=       -0.000233269567 Rises=F Damp=F
 DIIS: error= 1.38D-03 at cycle  17 NSaved=  17.
 NSaved=17 IEnMin=17 EnMin= -2593.72462962517     IErMin=16 ErrMin= 1.21D-03
 ErrMax= 1.38D-03  0.00D+00 EMaxC= 1.00D+00 BMatC= 2.13D-04 BMatP= 9.95D-05
 IDIUse=1 WtCom= 1.00D+00 WtEn= 0.00D+00
 Coeff-Com:  0.248D-02 0.271D-01-0.839D-01-0.955D-01-0.460D-01 0.711D+00
 Coeff-Com:  0.562D+00-0.142D+01-0.386D-01 0.872D+00-0.382D+00 0.947D+00
 Coeff-Com: -0.207D+00-0.268D+01-0.316D+01 0.567D+01 0.322D+00
 Coeff:      0.248D-02 0.271D-01-0.839D-01-0.955D-01-0.460D-01 0.711D+00
 Coeff:      0.562D+00-0.142D+01-0.386D-01 0.872D+00-0.382D+00 0.947D+00
 Coeff:     -0.207D+00-0.268D+01-0.316D+01 0.567D+01 0.322D+00
 Gap=     0.227 Goal=   None    Shift=    0.500
 Gap=     0.110 Goal=   None    Shift=    0.500
 GapD=    0.110 DampG=1.000 DampE=1.000 DampFc=1.0000 IDamp=-1.
 RMSDP=4.79D-05 MaxDP=6.14D-03 DE=-2.33D-04 OVMax= 1.83D-02

 Cycle  18  Pass 1  IDiag  1:
 E= -2593.72482589663     Delta-E=       -0.000196271462 Rises=F Damp=F
 DIIS: error= 1.36D-03 at cycle  18 NSaved=  18.
 NSaved=18 IEnMin=18 EnMin= -2593.72482589663     IErMin=16 ErrMin= 1.21D-03
 ErrMax= 1.36D-03  0.00D+00 EMaxC= 1.00D+00 BMatC= 2.06D-04 BMatP= 9.95D-05
 IDIUse=1 WtCom= 1.00D+00 WtEn= 0.00D+00
 Coeff-Com:  0.182D-02 0.181D-01-0.458D-01-0.140D+00 0.110D+00 0.416D+00
 Coeff-Com:  0.550D+00-0.121D+01 0.122D+00 0.539D+00-0.469D+00 0.952D+00
 Coeff-Com: -0.398D-01-0.175D+01-0.302D+01 0.474D+01-0.203D+01 0.227D+01
 Coeff:      0.182D-02 0.181D-01-0.458D-01-0.140D+00 0.110D+00 0.416D+00
 Coeff:      0.550D+00-0.121D+01 0.122D+00 0.539D+00-0.469D+00 0.952D+00
 Coeff:     -0.398D-01-0.175D+01-0.302D+01 0.474D+01-0.203D+01 0.227D+01
 Gap=     0.227 Goal=   None    Shift=    0.500
 Gap=     0.110 Goal=   None    Shift=    0.500
 GapD=    0.110 DampG=1.000 DampE=1.000 DampFc=1.0000 IDamp=-1.
 RMSDP=4.47D-05 MaxDP=5.71D-03 DE=-1.96D-04 OVMax= 1.75D-02

 Cycle  19  Pass 1  IDiag  1:
 E= -2593.72500164583     Delta-E=       -0.000175749196 Rises=F Damp=F
 DIIS: error= 1.32D-03 at cycle  19 NSaved=  19.
 NSaved=19 IEnMin=19 EnMin= -2593.72500164583     IErMin=16 ErrMin= 1.21D-03
 ErrMax= 1.32D-03  0.00D+00 EMaxC= 1.00D+00 BMatC= 1.86D-04 BMatP= 9.95D-05
 IDIUse=1 WtCom= 1.00D+00 WtEn= 0.00D+00
 Coeff-Com:  0.272D-02 0.106D-01-0.355D-01-0.152D+00 0.253D+00 0.269D+00
 Coeff-Com:  0.244D+00-0.852D+00 0.457D+00-0.102D-02-0.579D+00 0.822D+00
 Coeff-Com:  0.909D-01-0.100D+01-0.145D+01 0.286D+01-0.252D+01-0.190D+00
 Coeff-Com:  0.277D+01
 Coeff:      0.272D-02 0.106D-01-0.355D-01-0.152D+00 0.253D+00 0.269D+00
 Coeff:      0.244D+00-0.852D+00 0.457D+00-0.102D-02-0.579D+00 0.822D+00
 Coeff:      0.909D-01-0.100D+01-0.145D+01 0.286D+01-0.252D+01-0.190D+00
 Coeff:      0.277D+01
 Gap=     0.226 Goal=   None    Shift=    0.500
 Gap=     0.111 Goal=   None    Shift=    0.500
 GapD=    0.111 DampG=1.000 DampE=1.000 DampFc=1.0000 IDamp=-1.
 RMSDP=5.13D-05 MaxDP=7.38D-03 DE=-1.76D-04 OVMax= 1.81D-02

 Cycle  20  Pass 1  IDiag  1:
 E= -2593.72515803228     Delta-E=       -0.000156386451 Rises=F Damp=F
 DIIS: error= 1.32D-03 at cycle  20 NSaved=  20.
 NSaved=20 IEnMin=20 EnMin= -2593.72515803228     IErMin=16 ErrMin= 1.21D-03
 ErrMax= 1.32D-03  0.00D+00 EMaxC= 1.00D+00 BMatC= 2.09D-04 BMatP= 9.95D-05
 IDIUse=1 WtCom= 1.00D+00 WtEn= 0.00D+00
 Coeff-Com:  0.576D-02 0.996D-02-0.912D-01-0.840D-01 0.437D+00 0.244D+00
 Coeff-Com: -0.540D+00-0.191D+00 0.724D+00-0.292D+00-0.730D+00 0.684D+00
 Coeff-Com: -0.380D+00-0.414D+00 0.425D+00 0.169D+01-0.117D+01-0.414D+01
 Coeff-Com:  0.196D+01 0.286D+01
 Coeff:      0.576D-02 0.996D-02-0.912D-01-0.840D-01 0.437D+00 0.244D+00
 Coeff:     -0.540D+00-0.191D+00 0.724D+00-0.292D+00-0.730D+00 0.684D+00
 Coeff:     -0.380D+00-0.414D+00 0.425D+00 0.169D+01-0.117D+01-0.414D+01
 Coeff:      0.196D+01 0.286D+01
 Gap=     0.226 Goal=   None    Shift=    0.500
 Gap=     0.111 Goal=   None    Shift=    0.500
 GapD=    0.111 DampG=1.000 DampE=1.000 DampFc=1.0000 IDamp=-1.
 RMSDP=6.36D-05 MaxDP=9.97D-03 DE=-1.56D-04 OVMax= 1.97D-02

 Cycle  21  Pass 1  IDiag  1:
 E= -2593.72529504787     Delta-E=       -0.000137015587 Rises=F Damp=F
 DIIS: error= 1.37D-03 at cycle  21 NSaved=  20.
 NSaved=20 IEnMin=20 EnMin= -2593.72529504787     IErMin=15 ErrMin= 1.21D-03
 ErrMax= 1.37D-03  0.00D+00 EMaxC= 1.00D+00 BMatC= 3.02D-04 BMatP= 9.95D-05
 IDIUse=1 WtCom= 1.00D+00 WtEn= 0.00D+00
 Coeff-Com:  0.208D-01-0.818D-01-0.955D-01 0.349D+00 0.318D+00-0.427D+00
 Coeff-Com: -0.291D+00 0.627D+00-0.187D+00-0.689D+00 0.687D+00-0.399D+00
 Coeff-Com: -0.478D+00 0.331D+00 0.185D+01-0.120D+01-0.403D+01 0.187D+01
 Coeff-Com:  0.271D+01 0.122D+00
 Coeff:      0.208D-01-0.818D-01-0.955D-01 0.349D+00 0.318D+00-0.427D+00
 Coeff:     -0.291D+00 0.627D+00-0.187D+00-0.689D+00 0.687D+00-0.399D+00
 Coeff:     -0.478D+00 0.331D+00 0.185D+01-0.120D+01-0.403D+01 0.187D+01
 Coeff:      0.271D+01 0.122D+00
 Gap=     0.226 Goal=   None    Shift=    0.500
 Gap=     0.112 Goal=   None    Shift=    0.500
 GapD=    0.112 DampG=1.000 DampE=1.000 DampFc=1.0000 IDamp=-1.
 RMSDP=3.66D-05 MaxDP=3.93D-03 DE=-1.37D-04 OVMax= 1.58D-02

 Cycle  22  Pass 1  IDiag  1:
 E= -2593.72543059706     Delta-E=       -0.000135549189 Rises=F Damp=F
 DIIS: error= 1.27D-03 at cycle  22 NSaved=  20.
 NSaved=20 IEnMin=20 EnMin= -2593.72543059706     IErMin=14 ErrMin= 1.21D-03
 ErrMax= 1.27D-03  0.00D+00 EMaxC= 1.00D+00 BMatC= 2.30D-04 BMatP= 9.95D-05
 IDIUse=1 WtCom= 1.00D+00 WtEn= 0.00D+00
 Coeff-Com: -0.416D-01 0.655D-01-0.983D-01 0.933D+00-0.159D+01 0.665D+00
 Coeff-Com:  0.337D+00-0.115D+00 0.303D+00-0.904D+00 0.362D+00-0.173D+01
 Coeff-Com:  0.262D+01-0.108D+01 0.550D+01-0.787D+01 0.742D+00 0.378D+01
 Coeff-Com: -0.887D+01 0.800D+01
 Coeff:     -0.416D-01 0.655D-01-0.983D-01 0.933D+00-0.159D+01 0.665D+00
 Coeff:      0.337D+00-0.115D+00 0.303D+00-0.904D+00 0.362D+00-0.173D+01
 Coeff:      0.262D+01-0.108D+01 0.550D+01-0.787D+01 0.742D+00 0.378D+01
 Coeff:     -0.887D+01 0.800D+01
 Gap=     0.225 Goal=   None    Shift=    0.500
 Gap=     0.113 Goal=   None    Shift=    0.500
 GapD=    0.113 DampG=1.000 DampE=1.000 DampFc=1.0000 IDamp=-1.
 RMSDP=7.18D-05 MaxDP=1.16D-02 DE=-1.36D-04 OVMax= 1.94D-02

 Cycle  23  Pass 1  IDiag  1:
 E= -2593.72551121806     Delta-E=       -0.000080620999 Rises=F Damp=F
 DIIS: error= 1.39D-03 at cycle  23 NSaved=  20.
 NSaved=20 IEnMin=20 EnMin= -2593.72551121806     IErMin=13 ErrMin= 1.21D-03
 ErrMax= 1.39D-03  0.00D+00 EMaxC= 1.00D+00 BMatC= 4.32D-04 BMatP= 9.95D-05
 IDIUse=1 WtCom= 1.00D+00 WtEn= 0.00D+00
 Large coefficients: NSaved= 20 BigCof=   13.25 CofMax=   10.00 Det=-8.15D-08
 Inversion failed.  Reducing to 19 matrices.
 Large coefficients: NSaved= 19 BigCof=   13.24 CofMax=   10.00 Det=-8.15D-08
 Inversion failed.  Reducing to 18 matrices.
 Large coefficients: NSaved= 18 BigCof=   12.72 CofMax=   10.00 Det=-8.50D-08
 Inversion failed.  Reducing to 17 matrices.
 Large coefficients: NSaved= 17 BigCof=   12.03 CofMax=   10.00 Det=-8.83D-08
 Inversion failed.  Reducing to 16 matrices.
 Large coefficients: NSaved= 16 BigCof=   12.36 CofMax=   10.00 Det=-9.12D-08
 Inversion failed.  Reducing to 15 matrices.
 Large coefficients: NSaved= 15 BigCof=   12.28 CofMax=   10.00 Det=-9.20D-08
 Inversion failed.  Reducing to 14 matrices.
 Large coefficients: NSaved= 14 BigCof=   12.10 CofMax=   10.00 Det=-9.82D-08
 Inversion failed.  Reducing to 13 matrices.
 Large coefficients: NSaved= 13 BigCof=   12.54 CofMax=   10.00 Det=-1.01D-07
 Inversion failed.  Reducing to 12 matrices.
 Large coefficients: NSaved= 12 BigCof=   12.10 CofMax=   10.00 Det=-1.09D-07
 Inversion failed.  Reducing to 11 matrices.
 Large coefficients: NSaved= 11 BigCof=   11.55 CofMax=   10.00 Det=-1.23D-07
 Inversion failed.  Reducing to 10 matrices.
 Large coefficients: NSaved= 10 BigCof=   11.56 CofMax=   10.00 Det=-1.23D-07
 Inversion failed.  Reducing to  9 matrices.
 Large coefficients: NSaved=  9 BigCof=   11.10 CofMax=   10.00 Det=-1.25D-07
 Inversion failed.  Reducing to  8 matrices.
 Large coefficients: NSaved=  8 BigCof=   11.08 CofMax=   10.00 Det=-1.27D-07
 Inversion failed.  Reducing to  7 matrices.
 Coeff-Com:  0.292D+01-0.480D+01 0.843D+00 0.245D+01-0.764D+01 0.642D+01
 Coeff-Com:  0.805D+00
 Coeff:      0.292D+01-0.480D+01 0.843D+00 0.245D+01-0.764D+01 0.642D+01
 Coeff:      0.805D+00
 Gap=     0.225 Goal=   None    Shift=    0.500
 Gap=     0.113 Goal=   None    Shift=    0.500
 GapD=    0.113 DampG=1.000 DampE=1.000 DampFc=1.0000 IDamp=-1.
 RMSDP=4.19D-05 MaxDP=5.29D-03 DE=-8.06D-05 OVMax= 1.60D-02

 Cycle  24  Pass 1  IDiag  1:
 E= -2593.72562021323     Delta-E=       -0.000108995177 Rises=F Damp=F
 DIIS: error= 1.31D-03 at cycle  24 NSaved=   8.
 NSaved= 8 IEnMin= 8 EnMin= -2593.72562021323     IErMin= 6 ErrMin= 1.27D-03
 ErrMax= 1.31D-03  0.00D+00 EMaxC= 1.00D+00 BMatC= 3.92D-04 BMatP= 1.86D-04
 IDIUse=1 WtCom= 1.00D+00 WtEn= 0.00D+00
 Coeff-Com:  0.352D+01-0.541D+01 0.820D+00 0.251D+01-0.744D+01 0.611D+01
 Coeff-Com: -0.631D-01 0.954D+00
 Coeff:      0.352D+01-0.541D+01 0.820D+00 0.251D+01-0.744D+01 0.611D+01
 Coeff:     -0.631D-01 0.954D+00
 Gap=     0.225 Goal=   None    Shift=    0.500
 Gap=     0.113 Goal=   None    Shift=    0.500
 GapD=    0.113 DampG=1.000 DampE=1.000 DampFc=1.0000 IDamp=-1.
 RMSDP=3.04D-05 MaxDP=3.27D-03 DE=-1.09D-04 OVMax= 1.34D-02

 Cycle  25  Pass 1  IDiag  1:
 E= -2593.72571995350     Delta-E=       -0.000099740270 Rises=F Damp=F
 DIIS: error= 1.19D-03 at cycle  25 NSaved=   9.
 NSaved= 9 IEnMin= 9 EnMin= -2593.72571995350     IErMin= 9 ErrMin= 1.19D-03
 ErrMax= 1.19D-03  0.00D+00 EMaxC= 1.00D+00 BMatC= 2.97D-04 BMatP= 1.86D-04
 IDIUse=1 WtCom= 1.00D+00 WtEn= 0.00D+00
 Coeff-Com:  0.180D+01-0.393D+01 0.167D+01 0.169D+01-0.125D+01 0.340D+00
 Coeff-Com: -0.110D+01-0.269D+01 0.446D+01
 Coeff:      0.180D+01-0.393D+01 0.167D+01 0.169D+01-0.125D+01 0.340D+00
 Coeff:     -0.110D+01-0.269D+01 0.446D+01
 Gap=     0.225 Goal=   None    Shift=    0.500
 Gap=     0.113 Goal=   None    Shift=    0.500
 GapD=    0.113 DampG=1.000 DampE=1.000 DampFc=1.0000 IDamp=-1.
 RMSDP=2.50D-05 MaxDP=2.68D-03 DE=-9.97D-05 OVMax= 1.12D-02

 Cycle  26  Pass 1  IDiag  1:
 E= -2593.72580126028     Delta-E=       -0.000081306781 Rises=F Damp=F
 DIIS: error= 1.07D-03 at cycle  26 NSaved=  10.
 NSaved=10 IEnMin=10 EnMin= -2593.72580126028     IErMin=10 ErrMin= 1.07D-03
 ErrMax= 1.07D-03  0.00D+00 EMaxC= 1.00D+00 BMatC= 2.18D-04 BMatP= 1.86D-04
 IDIUse=1 WtCom= 1.00D+00 WtEn= 0.00D+00
 Coeff-Com:  0.267D+00-0.188D+01 0.150D+01 0.105D+01 0.140D+01-0.212D+01
 Coeff-Com: -0.931D+00-0.308D+01 0.233D+01 0.246D+01
 Coeff:      0.267D+00-0.188D+01 0.150D+01 0.105D+01 0.140D+01-0.212D+01
 Coeff:     -0.931D+00-0.308D+01 0.233D+01 0.246D+01
 Gap=     0.225 Goal=   None    Shift=    0.500
 Gap=     0.113 Goal=   None    Shift=    0.500
 GapD=    0.113 DampG=1.000 DampE=1.000 DampFc=1.0000 IDamp=-1.
 RMSDP=3.09D-05 MaxDP=4.05D-03 DE=-8.13D-05 OVMax= 1.11D-02

 Cycle  27  Pass 1  IDiag  1:
 E= -2593.72585990734     Delta-E=       -0.000058647056 Rises=F Damp=F
 DIIS: error= 1.01D-03 at cycle  27 NSaved=  11.
 NSaved=11 IEnMin=11 EnMin= -2593.72585990734     IErMin=11 ErrMin= 1.01D-03
 ErrMax= 1.01D-03  0.00D+00 EMaxC= 1.00D+00 BMatC= 2.08D-04 BMatP= 1.86D-04
 IDIUse=1 WtCom= 1.00D+00 WtEn= 0.00D+00
 Coeff-Com:  0.214D+00-0.761D+00 0.360D+00 0.137D+01-0.187D+01 0.722D+00
 Coeff-Com: -0.151D+00-0.460D+00-0.187D+01 0.117D+01 0.228D+01
 Coeff:      0.214D+00-0.761D+00 0.360D+00 0.137D+01-0.187D+01 0.722D+00
 Coeff:     -0.151D+00-0.460D+00-0.187D+01 0.117D+01 0.228D+01
 Gap=     0.224 Goal=   None    Shift=    0.500
 Gap=     0.114 Goal=   None    Shift=    0.500
 GapD=    0.114 DampG=1.000 DampE=1.000 DampFc=1.0000 IDamp=-1.
 RMSDP=3.56D-05 MaxDP=5.15D-03 DE=-5.86D-05 OVMax= 1.12D-02

 Cycle  28  Pass 1  IDiag  1:
 E= -2593.72590492162     Delta-E=       -0.000045014279 Rises=F Damp=F
 DIIS: error= 9.88D-04 at cycle  28 NSaved=  12.
 NSaved=12 IEnMin=12 EnMin= -2593.72590492162     IErMin=12 ErrMin= 9.88D-04
 ErrMax= 9.88D-04  0.00D+00 EMaxC= 1.00D+00 BMatC= 2.32D-04 BMatP= 1.86D-04
 IDIUse=1 WtCom= 1.00D+00 WtEn= 0.00D+00
 Coeff-Com:  0.702D+00-0.140D+01 0.339D+00 0.174D+01-0.347D+01 0.238D+01
 Coeff-Com: -0.183D+00 0.998D-01-0.191D+01 0.158D+00 0.114D+01 0.141D+01
 Coeff:      0.702D+00-0.140D+01 0.339D+00 0.174D+01-0.347D+01 0.238D+01
 Coeff:     -0.183D+00 0.998D-01-0.191D+01 0.158D+00 0.114D+01 0.141D+01
 Gap=     0.224 Goal=   None    Shift=    0.500
 Gap=     0.114 Goal=   None    Shift=    0.500
 RMSDP=2.81D-05 MaxDP=3.62D-03 DE=-4.50D-05 OVMax= 1.01D-02

 Cycle  29  Pass 1  IDiag  1:
 E= -2593.72595098637     Delta-E=       -0.000046064755 Rises=F Damp=F
 DIIS: error= 9.27D-04 at cycle  29 NSaved=  13.
 NSaved=13 IEnMin=13 EnMin= -2593.72595098637     IErMin=13 ErrMin= 9.27D-04
 ErrMax= 9.27D-04  0.00D+00 EMaxC= 1.00D+00 BMatC= 2.14D-04 BMatP= 1.86D-04
 IDIUse=1 WtCom= 1.00D+00 WtEn= 0.00D+00
 Coeff-Com:  0.152D+01-0.345D+01 0.126D+01 0.184D+01-0.213D+01 0.186D+01
 Coeff-Com: -0.801D+00-0.863D+00 0.711D+00-0.294D+00-0.901D+00-0.902D+00
 Coeff-Com:  0.315D+01
 Coeff:      0.152D+01-0.345D+01 0.126D+01 0.184D+01-0.213D+01 0.186D+01
 Coeff:     -0.801D+00-0.863D+00 0.711D+00-0.294D+00-0.901D+00-0.902D+00
 Coeff:      0.315D+01
 Gap=     0.224 Goal=   None    Shift=    0.500
 Gap=     0.114 Goal=   None    Shift=    0.500
 RMSDP=2.91D-05 MaxDP=4.04D-03 DE=-4.61D-05 OVMax= 9.66D-03

 Cycle  30  Pass 1  IDiag  1:
 E= -2593.72598782716     Delta-E=       -0.000036840788 Rises=F Damp=F
 DIIS: error= 8.82D-04 at cycle  30 NSaved=  14.
 NSaved=14 IEnMin=14 EnMin= -2593.72598782716     IErMin=14 ErrMin= 8.82D-04
 ErrMax= 8.82D-04  0.00D+00 EMaxC= 1.00D+00 BMatC= 2.13D-04 BMatP= 1.86D-04
 IDIUse=1 WtCom= 1.00D+00 WtEn= 0.00D+00
 Coeff-Com:  0.169D+01-0.408D+01 0.163D+01 0.173D+01-0.811D+00 0.831D+00
 Coeff-Com: -0.103D+01-0.160D+01 0.193D+01 0.185D+00-0.951D+00-0.242D+01
 Coeff-Com:  0.212D+01 0.176D+01
 Coeff:      0.169D+01-0.408D+01 0.163D+01 0.173D+01-0.811D+00 0.831D+00
 Coeff:     -0.103D+01-0.160D+01 0.193D+01 0.185D+00-0.951D+00-0.242D+01
 Coeff:      0.212D+01 0.176D+01
 Gap=     0.224 Goal=   None    Shift=    0.500
 Gap=     0.114 Goal=   None    Shift=    0.500
 RMSDP=2.48D-05 MaxDP=3.22D-03 DE=-3.68D-05 OVMax= 8.80D-03

 Cycle  31  Pass 1  IDiag  1:
 E= -2593.72602305262     Delta-E=       -0.000035225453 Rises=F Damp=F
 DIIS: error= 8.21D-04 at cycle  31 NSaved=  15.
 NSaved=15 IEnMin=15 EnMin= -2593.72602305262     IErMin=15 ErrMin= 8.21D-04
 ErrMax= 8.21D-04  0.00D+00 EMaxC= 1.00D+00 BMatC= 1.92D-04 BMatP= 1.86D-04
 IDIUse=1 WtCom= 1.00D+00 WtEn= 0.00D+00
 Coeff-Com:  0.723D+00-0.220D+01 0.916D+00 0.152D+01-0.348D+00-0.194D+00
 Coeff-Com: -0.498D+00-0.111D+01 0.194D+00 0.130D+01 0.111D+01-0.137D+01
 Coeff-Com: -0.183D+01-0.102D+01 0.381D+01
 Coeff:      0.723D+00-0.220D+01 0.916D+00 0.152D+01-0.348D+00-0.194D+00
 Coeff:     -0.498D+00-0.111D+01 0.194D+00 0.130D+01 0.111D+01-0.137D+01
 Coeff:     -0.183D+01-0.102D+01 0.381D+01
 Gap=     0.224 Goal=   None    Shift=    0.500
 Gap=     0.114 Goal=   None    Shift=    0.500
 RMSDP=2.34D-05 MaxDP=3.04D-03 DE=-3.52D-05 OVMax= 8.20D-03

 Cycle  32  Pass 1  IDiag  1:
 E= -2593.72605257089     Delta-E=       -0.000029518274 Rises=F Damp=F
 DIIS: error= 7.67D-04 at cycle  32 NSaved=  16.
 NSaved=16 IEnMin=16 EnMin= -2593.72605257089     IErMin=16 ErrMin= 7.67D-04
 ErrMax= 7.67D-04  0.00D+00 EMaxC= 1.00D+00 BMatC= 1.76D-04 BMatP= 1.86D-04
 IDIUse=1 WtCom= 1.00D+00 WtEn= 0.00D+00
 Coeff-Com: -0.837D-01-0.455D+00 0.245D+00 0.141D+01-0.116D+01 0.131D+00
 Coeff-Com: -0.378D-01-0.484D+00-0.132D+01 0.127D+01 0.180D+01 0.791D+00
 Coeff-Com: -0.240D+01-0.293D+01 0.181D+01 0.242D+01
 Coeff:     -0.837D-01-0.455D+00 0.245D+00 0.141D+01-0.116D+01 0.131D+00
 Coeff:     -0.378D-01-0.484D+00-0.132D+01 0.127D+01 0.180D+01 0.791D+00
 Coeff:     -0.240D+01-0.293D+01 0.181D+01 0.242D+01
 Gap=     0.224 Goal=   None    Shift=    0.500
 Gap=     0.115 Goal=   None    Shift=    0.500
 RMSDP=1.74D-05 MaxDP=1.82D-03 DE=-2.95D-05 OVMax= 6.99D-03

 >>>>>>>>>> Convergence criterion not met.
 SCF Done:  E(ULC-wHPBE) =  -2593.72605257     A.U. after   33 cycles
            NFock= 32  Conv=0.17D-04     -V/T= 2.0037
 <Sx>= 0.0000 <Sy>= 0.0000 <Sz>= 0.5000 <S**2>= 0.7609 S= 0.5054
 <L.S>= 0.000000000000E+00
 KE= 2.584046644372D+03 PE=-1.660470337045D+04 EE= 6.149207008222D+03
 Annihilation of the first spin contaminant:
 S**2 before annihilation     0.7609,   after     0.7501
 Leave Link  502 at Fri Jan 22 04:45:08 2021, MaxMem=  4026531840 cpu:           32470.0 elap:            4152.6
 (Enter /opt/ohpc/pub/libs/gaussian/g16-A.03/sandybridge/g16/l508.exe)
 Integral symmetry usage will be decided dynamically.
 Tight linear equation convergence will be used.
 ULC-wHPBE wavefunction.
 Quadratic Convergence SCF Method.
 Line search only if initial step raises energy.
 FoFJK:  IHMeth= 1 ICntrl=       0 DoSepK=T KAlg= 0 I1Cent=           0 FoldK=F
 IRaf=         1 NMat=       1 IRICut=       1 DoRegI=T DoRafI=F ISym2E= 1 IDoP0=0 IntGTp=1.
 FoFCou: FMM=T IPFlag=           0 FMFlag=      100000 FMFlg1=        2001
         NFxFlg=           0 DoJE=T BraDBF=F KetDBF=F FulRan=T
         wScrn=  0.000000 ICntrl=       500 IOpCl=  0 I1Cent=           0 NGrid=           0
         NMat0=    1 NMatS0=      1 NMatT0=    0 NMatD0=    1 NMtDS0=    0 NMtDT0=    0
 Petite list used in FoFCou.
 FMM levels:  10  Number of levels for PrismC:   9
 Iteration   1 EE= -2593.72608192928                                    Grad=8.365D-03 Max rot=    0.1563 deg.
 QCNR:  CnvC1=8.37D-08 CnvC2=8.37D-07
 LinEq1:  Iter=  0 NonCon=     1 RMS=5.57D-05 Max=2.22D-02 NDo=     1
 AX will form     1 AO Fock derivatives at one time.
 LinEq1:  Iter=  1 NonCon=     1 RMS=3.64D-05 Max=6.11D-03 NDo=     1
 LinEq1:  Iter=  2 NonCon=     1 RMS=2.43D-05 Max=3.00D-03 NDo=     1
 LinEq1:  Iter=  3 NonCon=     1 RMS=1.67D-05 Max=1.73D-03 NDo=     1
 LinEq1:  Iter=  4 NonCon=     1 RMS=1.20D-05 Max=1.44D-03 NDo=     1
 LinEq1:  Iter=  5 NonCon=     1 RMS=7.77D-06 Max=5.85D-04 NDo=     1
 LinEq1:  Iter=  6 NonCon=     1 RMS=4.36D-06 Max=3.04D-04 NDo=     1
 LinEq1:  Iter=  7 NonCon=     1 RMS=2.88D-06 Max=2.13D-04 NDo=     1
 LinEq1:  Iter=  8 NonCon=     1 RMS=1.59D-06 Max=1.06D-04 NDo=     1
 LinEq1:  Iter=  9 NonCon=     1 RMS=1.09D-06 Max=9.80D-05 NDo=     1
 LinEq1:  Iter= 10 NonCon=     1 RMS=6.77D-07 Max=4.79D-05 NDo=     1
 LinEq1:  Iter= 11 NonCon=     1 RMS=4.92D-07 Max=4.36D-05 NDo=     1
 LinEq1:  Iter= 12 NonCon=     1 RMS=3.17D-07 Max=3.68D-05 NDo=     1
 LinEq1:  Iter= 13 NonCon=     1 RMS=1.97D-07 Max=1.85D-05 NDo=     1
 LinEq1:  Iter= 14 NonCon=     1 RMS=1.27D-07 Max=1.40D-05 NDo=     1
 LinEq1:  Iter= 15 NonCon=     1 RMS=7.28D-08 Max=7.91D-06 NDo=     1
 LinEq1:  Iter= 16 NonCon=     1 RMS=4.36D-08 Max=4.26D-06 NDo=     1
 LinEq1:  Iter= 17 NonCon=     1 RMS=2.72D-08 Max=2.71D-06 NDo=     1
 LinEq1:  Iter= 18 NonCon=     1 RMS=1.48D-08 Max=1.54D-06 NDo=     1
 LinEq1:  Iter= 19 NonCon=     1 RMS=8.66D-09 Max=9.51D-07 NDo=     1
 LinEq1:  Iter= 20 NonCon=     0 RMS=5.58D-09 Max=6.30D-07 NDo=     1
 Linear equations converged to 8.365D-08 8.365D-07 after    20 iterations.
 Angle between quadratic step and gradient=  78.74 degrees.
     ILin= 1 X=0.000D+00 Y=-2.593726081929D+03 DE= 0.00D+00 F= -2.55D-04
     ILin= 2 X=1.000D+00 Y=-2.593726208630D+03 DE=-1.27D-04
 Iteration   2 EE= -2593.72620862978     Delta-E=       -0.000126700496 Grad=3.399D-04 Max rot=    0.0024 deg.
 Rotation gradient small -- convergence achieved.
 SCF Done:  E(ULC-wHPBE) =  -2593.72620863     a.u. after    2 cycles
            Convg  =    0.3399D-03                    22 Fock formations.
              S**2 =  0.7610                  -V/T =  2.0037
 <Sx>= 0.0000 <Sy>= 0.0000 <Sz>= 0.5000 <S**2>= 0.7610 S= 0.5055
 <L.S>= 0.000000000000E+00
 Annihilation of the first spin contaminant:
 S**2 before annihilation     0.7610,   after     0.7501
 Leave Link  508 at Fri Jan 22 05:24:03 2021, MaxMem=  4026531840 cpu:           18435.2 elap:            2334.6
 (Enter /opt/ohpc/pub/libs/gaussian/g16-A.03/sandybridge/g16/l601.exe)
 Copying SCF densities to generalized density rwf, IOpCl= 1 IROHF=0.

 **********************************************************************

            Population analysis using the SCF density.

 **********************************************************************

 Orbital symmetries:
 Alpha Orbitals:
       Occupied  (A) (A) (A) (A) (A) (A) (A) (A) (A) (A) (A) (A)
                 (A) (A) (A) (A) (A) (A) (A) (A) (A) (A) (A) (A)
                 (A) (A) (A) (A) (A) (A) (A) (A) (A) (A) (A) (A)
                 (A) (A) (A) (A) (A) (A) (A) (A) (A) (A) (A) (A)
                 (A) (A) (A) (A) (A) (A) (A) (A) (A) (A) (A) (A)
                 (A) (A) (A) (A) (A) (A) (A) (A) (A) (A) (A) (A)
                 (A) (A) (A) (A) (A) (A) (A) (A) (A) (A) (A) (A)
                 (A) (A) (A) (A) (A) (A) (A) (A) (A) (A) (A) (A)
                 (A) (A) (A) (A) (A) (A) (A) (A) (A) (A) (A) (A)
                 (A) (A) (A) (A) (A) (A) (A) (A) (A) (A) (A) (A)
                 (A) (A) (A) (A) (A) (A) (A) (A) (A) (A) (A) (A)
                 (A) (A) (A) (A) (A) (A) (A) (A) (A) (A) (A) (A)
                 (A) (A) (A) (A) (A) (A) (A) (A) (A) (A) (A) (A)
                 (A) (A) (A) (A) (A)
       Virtual   (A) (A) (A) (A) (A) (A) (A) (A) (A) (A) (A) (A)
                 (A) (A) (A) (A) (A) (A) (A) (A) (A) (A) (A) (A)
                 (A) (A) (A) (A) (A) (A) (A) (A) (A) (A) (A) (A)
                 (A) (A) (A) (A) (A) (A) (A) (A) (A) (A) (A) (A)
                 (A) (A) (A) (A) (A) (A) (A) (A) (A) (A) (A) (A)
                 (A) (A) (A) (A) (A) (A) (A) (A) (A) (A) (A) (A)
                 (A) (A) (A) (A) (A) (A) (A) (A) (A) (A) (A) (A)
                 (A) (A) (A) (A) (A) (A) (A) (A) (A) (A) (A) (A)
                 (A) (A) (A) (A) (A) (A) (A) (A) (A) (A) (A) (A)
                 (A) (A) (A) (A) (A) (A) (A) (A) (A) (A) (A) (A)
                 (A) (A) (A) (A) (A) (A) (A) (A) (A) (A) (A) (A)
                 (A) (A) (A) (A) (A) (A) (A) (A) (A) (A) (A) (A)
                 (A) (A) (A) (A) (A) (A) (A) (A) (A) (A) (A) (A)
                 (A) (A) (A) (A) (A) (A) (A) (A) (A) (A) (A) (A)
                 (A) (A) (A) (A) (A) (A) (A) (A) (A) (A) (A) (A)
                 (A) (A) (A) (A) (A) (A) (A) (A) (A) (A) (A) (A)
                 (A) (A) (A) (A) (A) (A) (A) (A) (A) (A) (A) (A)
                 (A) (A) (A) (A) (A) (A) (A) (A) (A) (A) (A) (A)
                 (A) (A) (A) (A) (A) (A) (A) (A) (A) (A) (A) (A)
                 (A) (A) (A) (A) (A) (A) (A) (A) (A) (A) (A) (A)
                 (A) (A) (A) (A) (A) (A) (A) (A) (A) (A) (A) (A)
                 (A) (A) (A) (A) (A) (A) (A) (A) (A) (A) (A) (A)
                 (A) (A) (A) (A) (A) (A) (A) (A) (A) (A) (A) (A)
                 (A) (A) (A) (A) (A) (A) (A) (A) (A) (A) (A) (A)
                 (A) (A) (A) (A) (A) (A) (A) (A) (A) (A) (A) (A)
                 (A) (A) (A) (A) (A) (A) (A) (A) (A) (A) (A) (A)
                 (A) (A) (A) (A) (A) (A) (A) (A) (A) (A) (A) (A)
                 (A) (A) (A) (A) (A) (A) (A) (A) (A) (A) (A) (A)
                 (A) (A) (A) (A) (A) (A) (A) (A) (A) (A) (A) (A)
                 (A) (A) (A) (A) (A) (A) (A) (A) (A) (A) (A) (A)
                 (A) (A) (A) (A) (A) (A) (A) (A) (A) (A) (A) (A)
                 (A) (A) (A) (A) (A) (A) (A) (A) (A) (A) (A) (A)
                 (A) (A) (A) (A) (A) (A) (A) (A) (A) (A) (A) (A)
                 (A) (A) (A) (A) (A) (A) (A) (A) (A) (A) (A) (A)
                 (A) (A) (A) (A) (A) (A) (A) (A) (A) (A) (A) (A)
                 (A) (A) (A) (A) (A) (A) (A) (A) (A) (A) (A) (A)
                 (A) (A) (A) (A) (A) (A) (A) (A) (A) (A) (A) (A)
                 (A) (A) (A) (A) (A) (A) (A) (A) (A) (A) (A) (A)
                 (A) (A) (A) (A) (A) (A) (A) (A) (A) (A) (A) (A)
                 (A) (A) (A) (A) (A) (A) (A) (A) (A) (A) (A) (A)
                 (A) (A) (A) (A) (A) (A) (A) (A) (A) (A) (A) (A)
                 (A) (A) (A) (A) (A) (A) (A) (A) (A) (A) (A) (A)
                 (A) (A) (A) (A) (A) (A) (A) (A) (A) (A) (A) (A)
                 (A) (A) (A) (A) (A) (A) (A) (A) (A) (A) (A) (A)
                 (A) (A) (A) (A) (A) (A) (A) (A) (A) (A) (A) (A)
                 (A) (A) (A) (A) (A) (A) (A) (A) (A) (A) (A) (A)
                 (A) (A) (A) (A) (A) (A) (A) (A) (A) (A) (A) (A)
                 (A) (A) (A) (A) (A) (A) (A) (A) (A) (A) (A) (A)
                 (A) (A) (A) (A) (A) (A) (A) (A) (A) (A) (A) (A)
                 (A) (A) (A) (A) (A) (A) (A) (A) (A) (A) (A) (A)
                 (A) (A) (A) (A) (A) (A) (A) (A) (A) (A) (A) (A)
                 (A) (A) (A) (A) (A) (A) (A) (A) (A) (A) (A) (A)
                 (A) (A) (A) (A) (A) (A) (A) (A) (A) (A) (A) (A)
                 (A) (A) (A) (A) (A) (A) (A) (A) (A) (A) (A) (A)
                 (A) (A) (A) (A) (A) (A) (A) (A) (A) (A) (A) (A)
                 (A) (A) (A) (A) (A) (A) (A) (A) (A) (A) (A) (A)
                 (A) (A) (A) (A) (A) (A) (A) (A) (A) (A) (A) (A)
                 (A) (A) (A) (A) (A) (A) (A) (A) (A) (A) (A) (A)
                 (A) (A) (A) (A) (A) (A) (A) (A) (A) (A) (A) (A)
                 (A) (A) (A) (A) (A) (A) (A) (A) (A) (A) (A) (A)
                 (A) (A) (A) (A) (A) (A) (A) (A) (A) (A) (A) (A)
                 (A) (A) (A) (A) (A) (A) (A) (A) (A) (A) (A) (A)
                 (A) (A) (A) (A) (A) (A) (A) (A) (A) (A) (A) (A)
                 (A) (A) (A) (A) (A) (A) (A) (A) (A) (A) (A) (A)
                 (A) (A) (A) (A) (A) (A) (A) (A) (A) (A) (A) (A)
                 (A) (A) (A) (A) (A) (A) (A) (A) (A) (A) (A) (A)
                 (A) (A) (A) (A) (A) (A) (A) (A) (A) (A) (A) (A)
                 (A) (A) (A) (A) (A) (A) (A) (A) (A) (A) (A) (A)
                 (A) (A) (A) (A) (A) (A) (A) (A) (A) (A) (A) (A)
                 (A) (A) (A) (A) (A) (A) (A) (A) (A) (A) (A) (A)
                 (A) (A) (A) (A) (A) (A) (A) (A) (A)
 Beta  Orbitals:
       Occupied  (A) (A) (A) (A) (A) (A) (A) (A) (A) (A) (A) (A)
                 (A) (A) (A) (A) (A) (A) (A) (A) (A) (A) (A) (A)
                 (A) (A) (A) (A) (A) (A) (A) (A) (A) (A) (A) (A)
                 (A) (A) (A) (A) (A) (A) (A) (A) (A) (A) (A) (A)
                 (A) (A) (A) (A) (A) (A) (A) (A) (A) (A) (A) (A)
                 (A) (A) (A) (A) (A) (A) (A) (A) (A) (A) (A) (A)
                 (A) (A) (A) (A) (A) (A) (A) (A) (A) (A) (A) (A)
                 (A) (A) (A) (A) (A) (A) (A) (A) (A) (A) (A) (A)
                 (A) (A) (A) (A) (A) (A) (A) (A) (A) (A) (A) (A)
                 (A) (A) (A) (A) (A) (A) (A) (A) (A) (A) (A) (A)
                 (A) (A) (A) (A) (A) (A) (A) (A) (A) (A) (A) (A)
                 (A) (A) (A) (A) (A) (A) (A) (A) (A) (A) (A) (A)
                 (A) (A) (A) (A) (A) (A) (A) (A) (A) (A) (A) (A)
                 (A) (A) (A) (A)
       Virtual   (A) (A) (A) (A) (A) (A) (A) (A) (A) (A) (A) (A)
                 (A) (A) (A) (A) (A) (A) (A) (A) (A) (A) (A) (A)
                 (A) (A) (A) (A) (A) (A) (A) (A) (A) (A) (A) (A)
                 (A) (A) (A) (A) (A) (A) (A) (A) (A) (A) (A) (A)
                 (A) (A) (A) (A) (A) (A) (A) (A) (A) (A) (A) (A)
                 (A) (A) (A) (A) (A) (A) (A) (A) (A) (A) (A) (A)
                 (A) (A) (A) (A) (A) (A) (A) (A) (A) (A) (A) (A)
                 (A) (A) (A) (A) (A) (A) (A) (A) (A) (A) (A) (A)
                 (A) (A) (A) (A) (A) (A) (A) (A) (A) (A) (A) (A)
                 (A) (A) (A) (A) (A) (A) (A) (A) (A) (A) (A) (A)
                 (A) (A) (A) (A) (A) (A) (A) (A) (A) (A) (A) (A)
                 (A) (A) (A) (A) (A) (A) (A) (A) (A) (A) (A) (A)
                 (A) (A) (A) (A) (A) (A) (A) (A) (A) (A) (A) (A)
                 (A) (A) (A) (A) (A) (A) (A) (A) (A) (A) (A) (A)
                 (A) (A) (A) (A) (A) (A) (A) (A) (A) (A) (A) (A)
                 (A) (A) (A) (A) (A) (A) (A) (A) (A) (A) (A) (A)
                 (A) (A) (A) (A) (A) (A) (A) (A) (A) (A) (A) (A)
                 (A) (A) (A) (A) (A) (A) (A) (A) (A) (A) (A) (A)
                 (A) (A) (A) (A) (A) (A) (A) (A) (A) (A) (A) (A)
                 (A) (A) (A) (A) (A) (A) (A) (A) (A) (A) (A) (A)
                 (A) (A) (A) (A) (A) (A) (A) (A) (A) (A) (A) (A)
                 (A) (A) (A) (A) (A) (A) (A) (A) (A) (A) (A) (A)
                 (A) (A) (A) (A) (A) (A) (A) (A) (A) (A) (A) (A)
                 (A) (A) (A) (A) (A) (A) (A) (A) (A) (A) (A) (A)
                 (A) (A) (A) (A) (A) (A) (A) (A) (A) (A) (A) (A)
                 (A) (A) (A) (A) (A) (A) (A) (A) (A) (A) (A) (A)
                 (A) (A) (A) (A) (A) (A) (A) (A) (A) (A) (A) (A)
                 (A) (A) (A) (A) (A) (A) (A) (A) (A) (A) (A) (A)
                 (A) (A) (A) (A) (A) (A) (A) (A) (A) (A) (A) (A)
                 (A) (A) (A) (A) (A) (A) (A) (A) (A) (A) (A) (A)
                 (A) (A) (A) (A) (A) (A) (A) (A) (A) (A) (A) (A)
                 (A) (A) (A) (A) (A) (A) (A) (A) (A) (A) (A) (A)
                 (A) (A) (A) (A) (A) (A) (A) (A) (A) (A) (A) (A)
                 (A) (A) (A) (A) (A) (A) (A) (A) (A) (A) (A) (A)
                 (A) (A) (A) (A) (A) (A) (A) (A) (A) (A) (A) (A)
                 (A) (A) (A) (A) (A) (A) (A) (A) (A) (A) (A) (A)
                 (A) (A) (A) (A) (A) (A) (A) (A) (A) (A) (A) (A)
                 (A) (A) (A) (A) (A) (A) (A) (A) (A) (A) (A) (A)
                 (A) (A) (A) (A) (A) (A) (A) (A) (A) (A) (A) (A)
                 (A) (A) (A) (A) (A) (A) (A) (A) (A) (A) (A) (A)
                 (A) (A) (A) (A) (A) (A) (A) (A) (A) (A) (A) (A)
                 (A) (A) (A) (A) (A) (A) (A) (A) (A) (A) (A) (A)
                 (A) (A) (A) (A) (A) (A) (A) (A) (A) (A) (A) (A)
                 (A) (A) (A) (A) (A) (A) (A) (A) (A) (A) (A) (A)
                 (A) (A) (A) (A) (A) (A) (A) (A) (A) (A) (A) (A)
                 (A) (A) (A) (A) (A) (A) (A) (A) (A) (A) (A) (A)
                 (A) (A) (A) (A) (A) (A) (A) (A) (A) (A) (A) (A)
                 (A) (A) (A) (A) (A) (A) (A) (A) (A) (A) (A) (A)
                 (A) (A) (A) (A) (A) (A) (A) (A) (A) (A) (A) (A)
                 (A) (A) (A) (A) (A) (A) (A) (A) (A) (A) (A) (A)
                 (A) (A) (A) (A) (A) (A) (A) (A) (A) (A) (A) (A)
                 (A) (A) (A) (A) (A) (A) (A) (A) (A) (A) (A) (A)
                 (A) (A) (A) (A) (A) (A) (A) (A) (A) (A) (A) (A)
                 (A) (A) (A) (A) (A) (A) (A) (A) (A) (A) (A) (A)
                 (A) (A) (A) (A) (A) (A) (A) (A) (A) (A) (A) (A)
                 (A) (A) (A) (A) (A) (A) (A) (A) (A) (A) (A) (A)
                 (A) (A) (A) (A) (A) (A) (A) (A) (A) (A) (A) (A)
                 (A) (A) (A) (A) (A) (A) (A) (A) (A) (A) (A) (A)
                 (A) (A) (A) (A) (A) (A) (A) (A) (A) (A) (A) (A)
                 (A) (A) (A) (A) (A) (A) (A) (A) (A) (A) (A) (A)
                 (A) (A) (A) (A) (A) (A) (A) (A) (A) (A) (A) (A)
                 (A) (A) (A) (A) (A) (A) (A) (A) (A) (A) (A) (A)
                 (A) (A) (A) (A) (A) (A) (A) (A) (A) (A) (A) (A)
                 (A) (A) (A) (A) (A) (A) (A) (A) (A) (A) (A) (A)
                 (A) (A) (A) (A) (A) (A) (A) (A) (A) (A) (A) (A)
                 (A) (A) (A) (A) (A) (A) (A) (A) (A) (A) (A) (A)
                 (A) (A) (A) (A) (A) (A) (A) (A) (A) (A) (A) (A)
                 (A) (A) (A) (A) (A) (A) (A) (A) (A) (A) (A) (A)
                 (A) (A) (A) (A) (A) (A) (A) (A) (A) (A) (A) (A)
                 (A) (A) (A) (A) (A) (A) (A) (A) (A) (A) (A) (A)
                 (A) (A) (A) (A) (A) (A) (A) (A) (A) (A)
 The electronic state is 2-A.
 Alpha  occ. eigenvalues --  -88.38020 -88.29664 -18.96693 -18.96292 -18.96141
 Alpha  occ. eigenvalues --  -18.94840 -14.24584 -14.20842 -10.14305 -10.14087
 Alpha  occ. eigenvalues --  -10.13981 -10.13871 -10.13452 -10.13191 -10.12493
 Alpha  occ. eigenvalues --  -10.12439 -10.12064 -10.11851 -10.11846 -10.10941
 Alpha  occ. eigenvalues --  -10.10279 -10.09808 -10.09764 -10.09551 -10.09533
 Alpha  occ. eigenvalues --  -10.09075 -10.09073 -10.08663 -10.08444 -10.08339
 Alpha  occ. eigenvalues --  -10.08190 -10.08116 -10.07879 -10.07738 -10.07432
 Alpha  occ. eigenvalues --  -10.07166 -10.06824 -10.06767 -10.06739 -10.06619
 Alpha  occ. eigenvalues --  -10.06323 -10.06320 -10.06224 -10.05544  -7.97038
 Alpha  occ. eigenvalues --   -7.88869  -5.98987  -5.98883  -5.98305  -5.91068
 Alpha  occ. eigenvalues --   -5.90633  -5.89904  -1.16349  -1.15949  -1.15763
 Alpha  occ. eigenvalues --   -1.14702  -1.10658  -1.08215  -1.02949  -1.00296
 Alpha  occ. eigenvalues --   -0.98429  -0.97375  -0.96785  -0.96292  -0.95223
 Alpha  occ. eigenvalues --   -0.92199  -0.90078  -0.89438  -0.88292  -0.87973
 Alpha  occ. eigenvalues --   -0.87544  -0.87358  -0.86862  -0.86379  -0.85894
 Alpha  occ. eigenvalues --   -0.85615  -0.83756  -0.81830  -0.77859  -0.77590
 Alpha  occ. eigenvalues --   -0.76494  -0.76271  -0.75921  -0.75046  -0.74779
 Alpha  occ. eigenvalues --   -0.74298  -0.73972  -0.72832  -0.71525  -0.70966
 Alpha  occ. eigenvalues --   -0.68887  -0.68669  -0.68292  -0.68004  -0.67661
 Alpha  occ. eigenvalues --   -0.67258  -0.66851  -0.66185  -0.64869  -0.63359
 Alpha  occ. eigenvalues --   -0.63076  -0.62479  -0.61684  -0.61407  -0.60868
 Alpha  occ. eigenvalues --   -0.59781  -0.59723  -0.59463  -0.58854  -0.58372
 Alpha  occ. eigenvalues --   -0.58281  -0.57673  -0.56850  -0.56664  -0.56534
 Alpha  occ. eigenvalues --   -0.56452  -0.56270  -0.55869  -0.55690  -0.55438
 Alpha  occ. eigenvalues --   -0.55228  -0.54918  -0.54819  -0.54754  -0.54501
 Alpha  occ. eigenvalues --   -0.54271  -0.54000  -0.53646  -0.53136  -0.52635
 Alpha  occ. eigenvalues --   -0.52101  -0.51692  -0.51269  -0.50964  -0.50708
 Alpha  occ. eigenvalues --   -0.50261  -0.49939  -0.49536  -0.49451  -0.48595
 Alpha  occ. eigenvalues --   -0.48208  -0.47861  -0.47588  -0.47276  -0.46448
 Alpha  occ. eigenvalues --   -0.46307  -0.44933  -0.42944  -0.42457  -0.42056
 Alpha  occ. eigenvalues --   -0.41578  -0.41186  -0.40728  -0.40298  -0.39842
 Alpha  occ. eigenvalues --   -0.39294  -0.38817  -0.38329  -0.36934  -0.34123
 Alpha  occ. eigenvalues --   -0.32602
 Alpha virt. eigenvalues --   -0.10313  -0.09465  -0.08837  -0.07718  -0.06533
 Alpha virt. eigenvalues --   -0.06281  -0.06204  -0.05874  -0.05533  -0.04908
 Alpha virt. eigenvalues --   -0.04296  -0.04192  -0.02671  -0.02557  -0.01869
 Alpha virt. eigenvalues --   -0.01179  -0.00336   0.00654   0.00975   0.01149
 Alpha virt. eigenvalues --    0.01167   0.01624   0.02495   0.02644   0.02944
 Alpha virt. eigenvalues --    0.03515   0.04121   0.04368   0.04801   0.05234
 Alpha virt. eigenvalues --    0.05640   0.05867   0.06115   0.06793   0.07076
 Alpha virt. eigenvalues --    0.07484   0.07704   0.08193   0.08460   0.08683
 Alpha virt. eigenvalues --    0.08783   0.08907   0.09673   0.09738   0.09890
 Alpha virt. eigenvalues --    0.10081   0.10554   0.10672   0.10842   0.11219
 Alpha virt. eigenvalues --    0.11585   0.11786   0.12601   0.12806   0.12916
 Alpha virt. eigenvalues --    0.13364   0.13704   0.13878   0.14491   0.14815
 Alpha virt. eigenvalues --    0.14989   0.15179   0.15438   0.15599   0.15937
 Alpha virt. eigenvalues --    0.16299   0.16611   0.16845   0.17024   0.17426
 Alpha virt. eigenvalues --    0.17829   0.18068   0.18278   0.18390   0.18564
 Alpha virt. eigenvalues --    0.18821   0.18869   0.19137   0.19514   0.19728
 Alpha virt. eigenvalues --    0.20210   0.20274   0.20563   0.20717   0.21016
 Alpha virt. eigenvalues --    0.21168   0.21366   0.21609   0.21919   0.22011
 Alpha virt. eigenvalues --    0.22168   0.22363   0.22702   0.22884   0.23506
 Alpha virt. eigenvalues --    0.23659   0.23806   0.24042   0.24117   0.24346
 Alpha virt. eigenvalues --    0.24645   0.24722   0.24822   0.25188   0.25333
 Alpha virt. eigenvalues --    0.25549   0.25812   0.26185   0.26257   0.26348
 Alpha virt. eigenvalues --    0.26601   0.27240   0.27333   0.27384   0.27679
 Alpha virt. eigenvalues --    0.27850   0.28083   0.28733   0.28806   0.29258
 Alpha virt. eigenvalues --    0.29402   0.29765   0.29929   0.30284   0.30470
 Alpha virt. eigenvalues --    0.30684   0.30864   0.31200   0.31474   0.31909
 Alpha virt. eigenvalues --    0.31992   0.32275   0.32566   0.32819   0.33123
 Alpha virt. eigenvalues --    0.33396   0.33718   0.33796   0.33978   0.34133
 Alpha virt. eigenvalues --    0.34451   0.34536   0.34806   0.34884   0.34986
 Alpha virt. eigenvalues --    0.34999   0.35243   0.35451   0.35535   0.35621
 Alpha virt. eigenvalues --    0.35832   0.36243   0.36342   0.36600   0.36850
 Alpha virt. eigenvalues --    0.36921   0.37208   0.37751   0.37925   0.38164
 Alpha virt. eigenvalues --    0.38319   0.38656   0.39161   0.39336   0.39641
[...]
              Bcc     0.0313     4.196     1.497     1.399  0.7827 -0.3486 -0.5156
 
              Baa    -0.0026    -1.365    -0.487    -0.455 -0.6941  0.0288  0.7193
     9 H(1)   Bbb    -0.0007    -0.366    -0.130    -0.122  0.6623 -0.3660  0.6538
              Bcc     0.0032     1.731     0.618     0.577  0.2821  0.9302  0.2349
 
              Baa    -0.0060    -0.809    -0.289    -0.270 -0.1554  0.0948  0.9833
    10 C(13)  Bbb    -0.0031    -0.413    -0.147    -0.138 -0.2368  0.9628 -0.1303
              Bcc     0.0091     1.222     0.436     0.408  0.9591  0.2531  0.1272
 
              Baa    -0.0027    -0.365    -0.130    -0.122 -0.4859  0.8710 -0.0730
    11 C(13)  Bbb    -0.0014    -0.189    -0.067    -0.063 -0.4111 -0.1540  0.8985
              Bcc     0.0041     0.554     0.198     0.185  0.7713  0.4666  0.4328
 
              Baa    -0.0022    -0.296    -0.106    -0.099  0.2387  0.0453  0.9700
    12 C(13)  Bbb    -0.0004    -0.053    -0.019    -0.018 -0.3346  0.9416  0.0383
              Bcc     0.0026     0.350     0.125     0.117  0.9116  0.3337 -0.2400
 
              Baa    -0.0036    -0.489    -0.174    -0.163  0.0992  0.9173 -0.3856
    13 C(13)  Bbb    -0.0014    -0.188    -0.067    -0.063  0.6807 -0.3452 -0.6461
              Bcc     0.0050     0.676     0.241     0.226  0.7258  0.1983  0.6587
 
              Baa    -0.0036    -1.945    -0.694    -0.649 -0.0945  0.9429  0.3195
    14 H(1)   Bbb    -0.0028    -1.482    -0.529    -0.494 -0.6099 -0.3085  0.7300
              Bcc     0.0064     3.427     1.223     1.143  0.7869 -0.1258  0.6042
 
              Baa    -0.0008    -0.403    -0.144    -0.134 -0.4349  0.8748  0.2135
    15 H(1)   Bbb    -0.0005    -0.241    -0.086    -0.080  0.4304 -0.0064  0.9026
              Bcc     0.0012     0.644     0.230     0.215  0.7910  0.4844 -0.3737
 
              Baa    -0.0006    -0.324    -0.115    -0.108  0.2188  0.3038  0.9273
    16 H(1)   Bbb    -0.0005    -0.267    -0.095    -0.089 -0.1859  0.9459 -0.2661
              Bcc     0.0011     0.590     0.211     0.197  0.9579  0.1141 -0.2634
 
              Baa    -0.0216    -2.899    -1.035    -0.967  0.3901  0.1361  0.9107
    17 C(13)  Bbb    -0.0123    -1.654    -0.590    -0.552  0.8902  0.1969 -0.4107
              Bcc     0.0339     4.554     1.625     1.519 -0.2352  0.9709 -0.0443
 
              Baa    -0.0114    -6.056    -2.161    -2.020 -0.4278  0.8155 -0.3897
    18 H(1)   Bbb    -0.0039    -2.092    -0.746    -0.698  0.7936  0.1325 -0.5939
              Bcc     0.0153     8.148     2.907     2.718  0.4326  0.5633  0.7039
 
              Baa    -0.0006    -0.325    -0.116    -0.108  0.7227 -0.5497  0.4190
    19 H(1)   Bbb    -0.0005    -0.266    -0.095    -0.089 -0.3917  0.1738  0.9035
              Bcc     0.0011     0.591     0.211     0.197  0.5695  0.8171  0.0898
 
              Baa    -0.0033    -1.735    -0.619    -0.579  0.3469 -0.6549  0.6714
    20 H(1)   Bbb    -0.0011    -0.570    -0.203    -0.190  0.8980  0.4385 -0.0362
              Bcc     0.0043     2.305     0.823     0.769 -0.2707  0.6154  0.7403
 
              Baa    -0.0036    -1.935    -0.691    -0.646  0.4954 -0.5179  0.6974
    21 H(1)   Bbb    -0.0003    -0.184    -0.066    -0.061  0.5221  0.8192  0.2375
              Bcc     0.0040     2.119     0.756     0.707  0.6942 -0.2465 -0.6762
 
              Baa    -0.0355    -1.455    -0.519    -0.485  0.5203 -0.5474  0.6554
    22 S(33)  Bbb    -0.0305    -1.252    -0.447    -0.418 -0.5348  0.3895  0.7499
              Bcc     0.0660     2.707     0.966     0.903  0.6658  0.7407  0.0902
 
              Baa    -0.0084    -0.324    -0.116    -0.108  0.3181  0.8856 -0.3386
    23 N(14)  Bbb    -0.0062    -0.238    -0.085    -0.079  0.8546 -0.4224 -0.3021
              Bcc     0.0146     0.561     0.200     0.187  0.4106  0.1932  0.8911
 
              Baa    -0.0009    -0.115    -0.041    -0.038 -0.2099 -0.6677  0.7142
    24 C(13)  Bbb    -0.0004    -0.050    -0.018    -0.017  0.1669  0.6953  0.6991
              Bcc     0.0012     0.165     0.059     0.055  0.9634 -0.2659  0.0345
 
              Baa    -0.0007    -0.092    -0.033    -0.031  0.3382  0.3856  0.8584
    25 C(13)  Bbb    -0.0001    -0.013    -0.005    -0.004  0.6841  0.5256 -0.5057
              Bcc     0.0008     0.105     0.037     0.035 -0.6462  0.7583 -0.0860
 
              Baa    -0.0008    -0.105    -0.037    -0.035 -0.0583  0.4183  0.9065
    26 C(13)  Bbb     0.0001     0.011     0.004     0.004  0.7019 -0.6285  0.3352
              Bcc     0.0007     0.094     0.034     0.031  0.7099  0.6558 -0.2569
 
              Baa    -0.0004    -0.053    -0.019    -0.018 -0.1004 -0.5812  0.8075
    27 C(13)  Bbb    -0.0001    -0.019    -0.007    -0.006  0.3878  0.7246  0.5697
              Bcc     0.0005     0.071     0.026     0.024  0.9163 -0.3703 -0.1527
 
              Baa    -0.0005    -0.062    -0.022    -0.021 -0.0222 -0.6911  0.7224
    28 C(13)  Bbb    -0.0001    -0.011    -0.004    -0.004  0.1067  0.7169  0.6890
              Bcc     0.0005     0.073     0.026     0.024  0.9940 -0.0924 -0.0578
 
              Baa    -0.0005    -0.068    -0.024    -0.023  0.2512  0.7520  0.6094
    29 C(13)  Bbb     0.0000     0.000     0.000     0.000  0.9594 -0.1098 -0.2599
              Bcc     0.0005     0.068     0.024     0.023  0.1285 -0.6499  0.7491
 
              Baa    -0.0005    -0.257    -0.092    -0.086 -0.0221 -0.4615  0.8869
    30 H(1)   Bbb    -0.0003    -0.180    -0.064    -0.060  0.5459  0.7376  0.3974
              Bcc     0.0008     0.436     0.156     0.145  0.8376 -0.4929 -0.2356
 
              Baa    -0.0004    -0.198    -0.071    -0.066 -0.1833 -0.5288  0.8287
    31 H(1)   Bbb    -0.0003    -0.150    -0.053    -0.050 -0.1100  0.8488  0.5172
              Bcc     0.0007     0.348     0.124     0.116  0.9769 -0.0037  0.2138
 
              Baa    -0.0002    -0.100    -0.036    -0.033 -0.0374 -0.5691  0.8214
    32 H(1)   Bbb    -0.0002    -0.084    -0.030    -0.028  0.4581  0.7208  0.5202
              Bcc     0.0003     0.184     0.066     0.061  0.8881 -0.3957 -0.2338
 
              Baa    -0.0002    -0.086    -0.031    -0.029  0.1064  0.7057 -0.7005
    33 H(1)   Bbb    -0.0001    -0.075    -0.027    -0.025  0.0161  0.7032  0.7108
              Bcc     0.0003     0.161     0.057     0.054  0.9942 -0.0869  0.0634
 
              Baa    -0.0029    -0.390    -0.139    -0.130 -0.1015  0.4694  0.8771
    34 C(13)  Bbb     0.0000     0.005     0.002     0.002  0.5557  0.7580 -0.3414
              Bcc     0.0029     0.385     0.138     0.129  0.8252 -0.4528  0.3378
 
              Baa    -0.0017    -0.223    -0.079    -0.074  0.6333  0.7174 -0.2902
    35 C(13)  Bbb    -0.0003    -0.040    -0.014    -0.013  0.6821 -0.3403  0.6473
              Bcc     0.0020     0.263     0.094     0.088 -0.3656  0.6078  0.7049
 
              Baa    -0.0035    -0.473    -0.169    -0.158  0.6944  0.6413  0.3265
    36 C(13)  Bbb    -0.0009    -0.123    -0.044    -0.041 -0.5122  0.1217  0.8502
              Bcc     0.0044     0.595     0.212     0.199 -0.5055  0.7576 -0.4130
 
              Baa    -0.0016    -0.209    -0.075    -0.070 -0.2405  0.4575  0.8561
    37 C(13)  Bbb     0.0002     0.031     0.011     0.010  0.7521  0.6454 -0.1336
              Bcc     0.0013     0.178     0.064     0.059  0.6136 -0.6117  0.4993
 
              Baa    -0.0014    -0.194    -0.069    -0.065  0.6685  0.4979  0.5525
    38 C(13)  Bbb    -0.0006    -0.079    -0.028    -0.026 -0.6095 -0.0588  0.7906
              Bcc     0.0020     0.272     0.097     0.091 -0.4261  0.8653 -0.2641
 
              Baa    -0.0017    -0.223    -0.080    -0.074  0.8475  0.5287  0.0473
    39 C(13)  Bbb    -0.0007    -0.097    -0.035    -0.032  0.1520 -0.3271  0.9327
              Bcc     0.0024     0.320     0.114     0.107 -0.5086  0.7833  0.3576
 
              Baa    -0.0004    -0.234    -0.084    -0.078 -0.1838  0.3421  0.9215
    40 H(1)   Bbb    -0.0004    -0.216    -0.077    -0.072  0.4976  0.8408 -0.2129
              Bcc     0.0008     0.451     0.161     0.150  0.8477 -0.4194  0.3248
 
              Baa    -0.0052    -2.786    -0.994    -0.929  0.1936  0.1335  0.9720
    41 H(1)   Bbb    -0.0049    -2.613    -0.932    -0.871  0.7102  0.6644 -0.2327
              Bcc     0.0101     5.399     1.927     1.801 -0.6768  0.7354  0.0339
 
              Baa    -0.0004    -0.202    -0.072    -0.068 -0.2458  0.3404  0.9076
    42 H(1)   Bbb    -0.0002    -0.108    -0.038    -0.036  0.7366  0.6743 -0.0534
              Bcc     0.0006     0.310     0.111     0.103 -0.6301  0.6554 -0.4164
 
              Baa    -0.0022    -1.148    -0.410    -0.383 -0.0755  0.1174  0.9902
    43 H(1)   Bbb    -0.0006    -0.307    -0.110    -0.102  0.9497  0.3112  0.0355
              Bcc     0.0027     1.455     0.519     0.485 -0.3040  0.9431 -0.1350
 
              Baa    -0.2598   -10.020    -3.575    -3.342  0.0147  0.9643  0.2643
    44 N(14)  Bbb    -0.2574    -9.927    -3.542    -3.311  0.9729 -0.0748  0.2188
              Bcc     0.5172    19.948     7.118     6.654 -0.2307 -0.2539  0.9393
 
              Baa    -0.0149    -1.997    -0.712    -0.666  0.5043  0.5724  0.6466
    45 C(13)  Bbb    -0.0012    -0.164    -0.059    -0.055 -0.0954  0.7811 -0.6170
              Bcc     0.0161     2.161     0.771     0.721  0.8582 -0.2495 -0.4486
 
              Baa    -0.0251    -3.367    -1.201    -1.123 -0.3807  0.7917 -0.4778
    46 C(13)  Bbb    -0.0207    -2.774    -0.990    -0.925  0.8236  0.0554 -0.5644
              Bcc     0.0458     6.140     2.191     2.048  0.4204  0.6084  0.6731
 
              Baa    -0.0210    -2.824    -1.008    -0.942  0.6708  0.4643 -0.5783
    47 C(13)  Bbb    -0.0173    -2.320    -0.828    -0.774  0.7341 -0.5267  0.4287
              Bcc     0.0383     5.144     1.835     1.716  0.1055  0.7121  0.6941
 
              Baa    -0.0111    -1.484    -0.530    -0.495 -0.0636  0.4201  0.9052
    48 C(13)  Bbb     0.0036     0.479     0.171     0.160  0.2162  0.8913 -0.3985
              Bcc     0.0075     1.005     0.359     0.335  0.9743 -0.1704  0.1475
 
              Baa    -0.0122    -1.639    -0.585    -0.547  0.1747  0.3434  0.9228
    49 C(13)  Bbb     0.0049     0.653     0.233     0.218  0.3794  0.8414 -0.3849
              Bcc     0.0073     0.985     0.352     0.329  0.9086 -0.4174 -0.0167
 
              Baa    -0.0246    -3.304    -1.179    -1.102  0.3680  0.8548 -0.3659
    50 C(13)  Bbb    -0.0215    -2.886    -1.030    -0.963  0.9238 -0.3809  0.0392
              Bcc     0.0461     6.191     2.209     2.065  0.1059  0.3525  0.9298
 
              Baa    -0.0025    -1.349    -0.481    -0.450  0.0151  0.4065  0.9135
    51 H(1)   Bbb    -0.0006    -0.327    -0.117    -0.109  0.9333 -0.3336  0.1330
              Bcc     0.0031     1.676     0.598     0.559  0.3588  0.8506 -0.3844
 
              Baa    -0.0028    -1.513    -0.540    -0.505  0.0916  0.4006  0.9117
    52 H(1)   Bbb     0.0008     0.415     0.148     0.138  0.9106 -0.4041  0.0861
              Bcc     0.0021     1.098     0.392     0.366  0.4030  0.8223 -0.4018
 
              Baa    -0.0013    -0.672    -0.240    -0.224  0.1224  0.5236  0.8431
    53 H(1)   Bbb     0.0003     0.169     0.060     0.056 -0.1659  0.8483 -0.5028
              Bcc     0.0009     0.503     0.179     0.168  0.9785  0.0784 -0.1907
 
              Baa    -0.0013    -0.677    -0.242    -0.226  0.1249  0.5030  0.8552
    54 H(1)   Bbb     0.0002     0.114     0.041     0.038  0.2816  0.8086 -0.5166
              Bcc     0.0011     0.563     0.201     0.188  0.9514 -0.3054  0.0406
 
              Baa    -0.0097    -1.301    -0.464    -0.434  0.9520  0.0615  0.2997
    55 C(13)  Bbb     0.0036     0.487     0.174     0.163 -0.0794  0.9957  0.0478
              Bcc     0.0061     0.814     0.290     0.271 -0.2955 -0.0693  0.9528
 
              Baa    -0.0285    -3.819    -1.363    -1.274 -0.4723  0.7311 -0.4924
    56 C(13)  Bbb    -0.0250    -3.357    -1.198    -1.120  0.0653  0.5861  0.8076
              Bcc     0.0535     7.176     2.561     2.394  0.8790  0.3493 -0.3245
 
              Baa    -0.0304    -4.078    -1.455    -1.360  0.3201  0.4862  0.8131
    57 C(13)  Bbb    -0.0270    -3.627    -1.294    -1.210 -0.2789  0.8686 -0.4096
              Bcc     0.0574     7.705     2.749     2.570  0.9054  0.0957 -0.4136
 
              Baa    -0.0137    -1.836    -0.655    -0.613  0.7284  0.0825 -0.6802
    58 C(13)  Bbb     0.0054     0.726     0.259     0.242  0.6796 -0.2137  0.7018
              Bcc     0.0083     1.111     0.396     0.370  0.0875  0.9734  0.2117
 
              Baa    -0.0144    -1.933    -0.690    -0.645  0.7016  0.3296 -0.6317
    59 C(13)  Bbb     0.0055     0.740     0.264     0.247  0.6804 -0.0467  0.7313
              Bcc     0.0089     1.193     0.426     0.398 -0.2116  0.9430  0.2570
 
              Baa    -0.0347    -4.654    -1.661    -1.552  0.6703 -0.1069  0.7343
    60 C(13)  Bbb    -0.0309    -4.150    -1.481    -1.384 -0.1089  0.9647  0.2398
              Bcc     0.0656     8.804     3.141     2.937  0.7340  0.2408 -0.6350
 
              Baa    -0.0027    -1.422    -0.507    -0.474 -0.6545  0.2668  0.7075
    61 H(1)   Bbb    -0.0014    -0.728    -0.260    -0.243  0.2283  0.9617 -0.1515
              Bcc     0.0040     2.150     0.767     0.717  0.7208 -0.0624  0.6903
 
              Baa    -0.0029    -1.544    -0.551    -0.515  0.6677 -0.6162 -0.4177
    62 H(1)   Bbb    -0.0001    -0.032    -0.012    -0.011  0.3490  0.7548 -0.5555
              Bcc     0.0030     1.577     0.563     0.526  0.6575  0.2251  0.7190
 
              Baa    -0.0014    -0.759    -0.271    -0.253  0.7934  0.1214 -0.5965
    63 H(1)   Bbb     0.0005     0.274     0.098     0.091 -0.3330  0.9068 -0.2583
              Bcc     0.0009     0.485     0.173     0.162  0.5095  0.4036  0.7599
 
              Baa    -0.0015    -0.788    -0.281    -0.263  0.8417  0.0369 -0.5388
    64 H(1)   Bbb     0.0004     0.210     0.075     0.070  0.5400 -0.0598  0.8395
              Bcc     0.0011     0.579     0.206     0.193  0.0013  0.9975  0.0702
 
              Baa    -0.0020     0.142     0.051     0.047  0.8744  0.4817  0.0576
    65 O(17)  Bbb    -0.0010     0.070     0.025     0.023  0.2219 -0.5026  0.8356
              Bcc     0.0029    -0.212    -0.076    -0.071 -0.4314  0.7179  0.5464
 
              Baa    -0.0004    -0.239    -0.085    -0.080 -0.5526  0.1784  0.8141
    66 H(1)   Bbb    -0.0003    -0.183    -0.065    -0.061  0.7140  0.6052  0.3521
              Bcc     0.0008     0.422     0.151     0.141 -0.4299  0.7758 -0.4618
 
              Baa    -0.0006     0.040     0.014     0.013  0.2143  0.6768  0.7043
    67 O(17)  Bbb    -0.0002     0.017     0.006     0.006  0.9767 -0.1544 -0.1488
              Bcc     0.0008    -0.057    -0.020    -0.019  0.0081  0.7198 -0.6941
 
              Baa    -0.0001    -0.060    -0.021    -0.020 -0.0722 -0.5719  0.8172
    68 H(1)   Bbb    -0.0001    -0.047    -0.017    -0.016  0.0755  0.8138  0.5762
              Bcc     0.0002     0.107     0.038     0.036  0.9945 -0.1033  0.0155
 
              Baa    -0.0362     2.617     0.934     0.873 -0.3243  0.8692 -0.3733
    69 O(17)  Bbb    -0.0346     2.507     0.894     0.836  0.9365  0.2394 -0.2562
              Bcc     0.0708    -5.124    -1.828    -1.709  0.1334  0.4327  0.8916
 
              Baa    -0.0018    -0.967    -0.345    -0.323 -0.5813  0.7778 -0.2389
    70 H(1)   Bbb    -0.0013    -0.709    -0.253    -0.237  0.1562  0.3948  0.9054
              Bcc     0.0031     1.676     0.598     0.559  0.7986  0.4890 -0.3510
 
              Baa    -0.0526     3.806     1.358     1.269  0.3427  0.6389  0.6888
    71 O(17)  Bbb    -0.0509     3.682     1.314     1.228 -0.5523  0.7301 -0.4024
              Bcc     0.1035    -7.488    -2.672    -2.498  0.7599  0.2425 -0.6031
 
              Baa    -0.0026    -1.402    -0.500    -0.468  0.0160  0.7523  0.6587
    72 H(1)   Bbb    -0.0017    -0.930    -0.332    -0.310  0.7855  0.3981 -0.4738
              Bcc     0.0044     2.332     0.832     0.778  0.6187 -0.5250  0.5845
 

 ---------------------------------------------------------------------------------

 No NMR shielding tensors so no spin-rotation constants.
 Leave Link  601 at Fri Jan 22 05:24:08 2021, MaxMem=  4026531840 cpu:              24.1 elap:               4.9
 (Enter /opt/ohpc/pub/libs/gaussian/g16-A.03/sandybridge/g16/l9999.exe)

 Test job not archived.
 1\1\GINC-CASCADEB028\SP\ULC-wHPBE\TZVP\C36H28N2O4S2(1+,2)\RDU230\22-Ja
 n-2021\0\\#P LC-wHPBE/TZVP iop(3/107=0167800000, 3/108=0167800000) scf
 =(conver=6,fermi,ndamp=35,noincfock,novaracc,vshift=500,xqc)\\H28 C36 
 S2 N2 O4\\1,2\C,0,-1.748928,-0.489907,0.452051\C,0,-0.626174,-1.279763
 ,0.15257\S,0,1.952753,-5.388628,0.812439\C,0,-0.882312,-2.170069,-0.82
 0725\C,0,1.932708,-2.897266,-0.476539\C,0,2.566514,-3.761438,0.41855\C
 ,0,-2.975354,-0.631957,-0.195801\C,0,-2.049066,-2.386893,-1.545961\H,0
 ,0.246316,-4.468801,-0.586079\C,0,2.384401,-1.613824,-0.700024\C,0,3.6
 73888,-3.269502,1.095477\C,0,4.135912,-1.984797,0.893895\C,0,3.494497,
 -1.125461,-0.002977\H,0,1.857267,-0.971131,-1.395345\H,0,4.176334,-3.9
 12174,1.811785\H,0,4.992977,-1.63215,1.456718\C,0,-3.122467,-1.590215,
 -1.210611\H,0,-1.688273,0.276733,1.226088\H,0,2.539,-6.051116,-0.20624
 9\H,0,-2.132551,-3.120151,-2.347153\H,0,-4.068236,-1.688167,-1.734116\
 S,0,0.491419,-3.391365,-1.37893\N,0,3.940024,0.175839,-0.195205\C,0,5.
 26504,0.53915,0.184549\C,0,5.479402,1.520085,1.147894\C,0,6.360048,-0.
 068673,-0.412912\C,0,6.761446,1.889048,1.505778\C,0,7.649207,0.280692,
 -0.044528\C,0,7.852726,1.26556,0.91321\H,0,4.624132,2.002234,1.612555\
 H,0,6.198832,-0.830082,-1.170918\H,0,6.936355,2.656092,2.253454\H,0,8.
 499101,-0.206598,-0.518215\C,0,3.067884,1.217797,-0.624973\C,0,3.53316
 9,2.175669,-1.516644\C,0,1.768428,1.324352,-0.133595\C,0,2.72389,3.230
 889,-1.904642\C,0,0.952027,2.363639,-0.537\C,0,1.429133,3.326131,-1.41
 5171\H,0,4.545758,2.102962,-1.902377\H,0,1.364259,0.566763,0.534909\H,
 0,3.106488,3.978127,-2.597301\H,0,-0.063643,2.437107,-0.162477\N,0,-4.
 071583,0.199288,0.137893\C,0,-5.379657,-0.330758,0.192504\C,0,-6.46407
 2,0.381862,-0.308117\C,0,-5.615898,-1.583782,0.758482\C,0,-7.748035,-0
 .135409,-0.237366\C,0,-6.890741,-2.11387,0.808775\C,0,-7.966332,-1.388
 715,0.314728\H,0,-6.301182,1.359246,-0.752201\H,0,-4.779992,-2.148147,
 1.16092\H,0,-8.582756,0.442294,-0.630527\H,0,-7.071352,-3.090185,1.247
 847\C,0,-3.863071,1.579858,0.373004\C,0,-4.488297,2.228332,1.435995\C,
 0,-3.028002,2.320518,-0.45569\C,0,-4.288516,3.577498,1.662294\C,0,-2.8
 02155,3.666597,-0.218956\C,0,-3.435225,4.300687,0.840523\H,0,-5.141183
 ,1.661753,2.093518\H,0,-2.533592,1.828985,-1.288374\H,0,-4.774148,4.08
 1779,2.492022\H,0,-2.125658,4.220184,-0.867724\O,0,0.584592,4.343911,-
 1.769173\H,0,1.03059,4.920168,-2.399784\O,0,9.095256,1.661445,1.308356
 \H,0,9.763222,1.159512,0.827959\O,0,-9.209724,-1.953542,0.400297\H,0,-
 9.859516,-1.347058,0.028653\O,0,-3.254007,5.627948,1.116747\H,0,-2.609
 433,5.991357,0.499352\\Version=EM64L-G16RevA.03\State=2-A\HF=-2593.726
 2086\S2=0.760956\S2-1=0.\S2A=0.750067\RMSD=6.509e-07\Dipole=-0.6263727
 ,-0.998287,-1.884934\Quadrupole=53.3387162,-5.7144282,-47.6242881,-10.
 617059,-2.05524,-2.0580331\PG=C01 [X(C36H28N2O4S2)]\\@


 THE TRULY SUCCESSFUL PERFORMANCE OF RESEARCHES IN
 INORGANIC CHEMISTRY IS POSSIBLE ONLY TO ONE WHO IS NOT
 ONLY A THEORETICAL CHEMIST, BUT ALSO AN ACCOMPLISHED
 ANALYST AND, MOREOVER, NOT MERELY A PRACTICALLY TRAINED,
 MECHANICAL WORKER, BUT A THINKING CREATIVE ARTIST.
   --  CLEMENS WINKLER, BER. 33, 1697(1900)
 Job cpu time:       0 days 14 hours 11 minutes 23.4 seconds.
 Elapsed time:       0 days  1 hours 48 minutes 38.1 seconds.
 File lengths (MBytes):  RWF=    796 Int=      0 D2E=      0 Chk=     76 Scr=      8
 Normal termination of Gaussian 16 at Fri Jan 22 05:24:08 2021.
