 Entering Gaussian System, Link 0=g16
 Input=mol_ta_ma_whol_tune_n2.gjf
 Output=mol_ta_ma_whol_tune_n2.log
 Initial command:
 /opt/ohpc/pub/libs/gaussian/g16-A.03/sandybridge/g16/l1.exe "/mnt/gpfs2_4m/scratch/rdu230/ondemand/projects/init_structures/wtuning/mol_ta_ma_whol/tuning_mol_ta_ma_whol_ocycle0/Gau-47310.inp" -scrdir="/mnt/gpfs2_4m/scratch/rdu230/ondemand/projects/init_structures/wtuning/mol_ta_ma_whol/tuning_mol_ta_ma_whol_ocycle0/"
 Entering Link 1 = /opt/ohpc/pub/libs/gaussian/g16-A.03/sandybridge/g16/l1.exe PID=     47311.
  
 Copyright (c) 1988,1990,1992,1993,1995,1998,2003,2009,2016,
            Gaussian, Inc.  All Rights Reserved.
  
 This is part of the Gaussian(R) 16 program.  It is based on
 the Gaussian(R) 09 system (copyright 2009, Gaussian, Inc.),
 the Gaussian(R) 03 system (copyright 2003, Gaussian, Inc.),
 the Gaussian(R) 98 system (copyright 1998, Gaussian, Inc.),
 the Gaussian(R) 94 system (copyright 1995, Gaussian, Inc.),
 the Gaussian 92(TM) system (copyright 1992, Gaussian, Inc.),
 the Gaussian 90(TM) system (copyright 1990, Gaussian, Inc.),
 the Gaussian 88(TM) system (copyright 1988, Gaussian, Inc.),
 the Gaussian 86(TM) system (copyright 1986, Carnegie Mellon
 University), and the Gaussian 82(TM) system (copyright 1983,
 Carnegie Mellon University). Gaussian is a federally registered
 trademark of Gaussian, Inc.
  
 This software contains proprietary and confidential information,
 including trade secrets, belonging to Gaussian, Inc.
  
 This software is provided under written license and may be
 used, copied, transmitted, or stored only in accord with that
 written license.
  
 The following legend is applicable only to US Government
 contracts under FAR:
  
                    RESTRICTED RIGHTS LEGEND
  
 Use, reproduction and disclosure by the US Government is
 subject to restrictions as set forth in subparagraphs (a)
 and (c) of the Commercial Computer Software - Restricted
 Rights clause in FAR 52.227-19.
  
 Gaussian, Inc.
 340 Quinnipiac St., Bldg. 40, Wallingford CT 06492
  
  
 ---------------------------------------------------------------
 Warning -- This program may not be used in any manner that
 competes with the business of Gaussian, Inc. or will provide
 assistance to any competitor of Gaussian, Inc.  The licensee
 of this program is prohibited from giving any competitor of
 Gaussian, Inc. access to this program.  By using this program,
 the user acknowledges that Gaussian, Inc. is engaged in the
 business of creating and licensing software in the field of
 computational chemistry and represents and warrants to the
 licensee that it is not a competitor of Gaussian, Inc. and that
 it will not use this program in any manner prohibited above.
 ---------------------------------------------------------------
  

 Cite this work as:
 Gaussian 16, Revision A.03,
 M. J. Frisch, G. W. Trucks, H. B. Schlegel, G. E. Scuseria, 
 M. A. Robb, J. R. Cheeseman, G. Scalmani, V. Barone, 
 G. A. Petersson, H. Nakatsuji, X. Li, M. Caricato, A. V. Marenich, 
 J. Bloino, B. G. Janesko, R. Gomperts, B. Mennucci, H. P. Hratchian, 
 J. V. Ortiz, A. F. Izmaylov, J. L. Sonnenberg, D. Williams-Young, 
 F. Ding, F. Lipparini, F. Egidi, J. Goings, B. Peng, A. Petrone, 
 T. Henderson, D. Ranasinghe, V. G. Zakrzewski, J. Gao, N. Rega, 
 G. Zheng, W. Liang, M. Hada, M. Ehara, K. Toyota, R. Fukuda, 
 J. Hasegawa, M. Ishida, T. Nakajima, Y. Honda, O. Kitao, H. Nakai, 
 T. Vreven, K. Throssell, J. A. Montgomery, Jr., J. E. Peralta, 
 F. Ogliaro, M. J. Bearpark, J. J. Heyd, E. N. Brothers, K. N. Kudin, 
 V. N. Staroverov, T. A. Keith, R. Kobayashi, J. Normand, 
 K. Raghavachari, A. P. Rendell, J. C. Burant, S. S. Iyengar, 
 J. Tomasi, M. Cossi, J. M. Millam, M. Klene, C. Adamo, R. Cammi, 
 J. W. Ochterski, R. L. Martin, K. Morokuma, O. Farkas, 
 J. B. Foresman, and D. J. Fox, Gaussian, Inc., Wallingford CT, 2016.
 
 ******************************************
 Gaussian 16:  EM64L-G16RevA.03 25-Dec-2016
                21-Jan-2021 
 ******************************************
 %mem=30GB
 %nproc=8
 Will use up to    8 processors via shared memory.
 ----------------------------------------------------------------------
 #P LC-wHPBE/TZVP iop(3/107=0156200000, 3/108=0156200000) scf=(conver=6
 ,fermi,ndamp=35,noincfock,novaracc,vshift=500,xqc)
 ----------------------------------------------------------------------
 1/38=1,172=1/1;
 2/12=2,17=6,18=5,40=1/2;
 3/5=19,7=101,11=2,25=1,30=1,74=-71,107=156200000,108=156200000/1,2,3;
 4//1;
 5/5=100002,6=6,8=3,10=500,13=1,18=-1,22=13,38=1,93=35/2,8;
 6/7=2,8=2,9=2,10=2,28=1/1;
 99/5=1,9=1/99;
 Leave Link    1 at Thu Jan 21 12:02:50 2021, MaxMem=  4026531840 cpu:               0.6 elap:               0.2
 (Enter /opt/ohpc/pub/libs/gaussian/g16-A.03/sandybridge/g16/l101.exe)
 ----------------
 H28 C36 S2 N2 O4
 ----------------
 Symbolic Z-matrix:
 Charge =  0 Multiplicity = 1
 C                    -1.74893  -0.48991   0.45205 
 C                    -0.62617  -1.27976   0.15257 
 S                     1.95275  -5.38863   0.81244 
 C                    -0.88231  -2.17007  -0.82073 
 C                     1.93271  -2.89727  -0.47654 
 C                     2.56651  -3.76144   0.41855 
 C                    -2.97535  -0.63196  -0.1958 
 C                    -2.04907  -2.38689  -1.54596 
 H                     0.24632  -4.4688   -0.58608 
 C                     2.3844   -1.61382  -0.70002 
 C                     3.67389  -3.2695    1.09548 
 C                     4.13591  -1.9848    0.8939 
 C                     3.4945   -1.12546  -0.00298 
 H                     1.85727  -0.97113  -1.39535 
 H                     4.17633  -3.91217   1.81179 
 H                     4.99298  -1.63215   1.45672 
 C                    -3.12247  -1.59022  -1.21061 
 H                    -1.68827   0.27673   1.22609 
 H                     2.539    -6.05112  -0.20625 
 H                    -2.13255  -3.12015  -2.34715 
 H                    -4.06824  -1.68817  -1.73412 
 S                     0.49142  -3.39136  -1.37893 
 N                     3.94002   0.17584  -0.19521 
 C                     5.26504   0.53915   0.18455 
 C                     5.4794    1.52009   1.14789 
 C                     6.36005  -0.06867  -0.41291 
 C                     6.76145   1.88905   1.50578 
 C                     7.64921   0.28069  -0.04453 
 C                     7.85273   1.26556   0.91321 
 H                     4.62413   2.00223   1.61256 
 H                     6.19883  -0.83008  -1.17092 
 H                     6.93636   2.65609   2.25345 
 H                     8.4991   -0.2066   -0.51822 
 C                     3.06788   1.2178   -0.62497 
 C                     3.53317   2.17567  -1.51664 
 C                     1.76843   1.32435  -0.1336 
 C                     2.72389   3.23089  -1.90464 
 C                     0.95203   2.36364  -0.537 
 C                     1.42913   3.32613  -1.41517 
 H                     4.54576   2.10296  -1.90238 
 H                     1.36426   0.56676   0.53491 
 H                     3.10649   3.97813  -2.5973 
 H                    -0.06364   2.43711  -0.16248 
 N                    -4.07158   0.19929   0.13789 
 C                    -5.37966  -0.33076   0.1925 
 C                    -6.46407   0.38186  -0.30812 
 C                    -5.6159   -1.58378   0.75848 
 C                    -7.74803  -0.13541  -0.23737 
 C                    -6.89074  -2.11387   0.80878 
 C                    -7.96633  -1.38872   0.31473 
 H                    -6.30118   1.35925  -0.7522 
 H                    -4.77999  -2.14815   1.16092 
 H                    -8.58276   0.44229  -0.63053 
 H                    -7.07135  -3.09018   1.24785 
 C                    -3.86307   1.57986   0.373 
 C                    -4.4883    2.22833   1.436 
 C                    -3.028     2.32052  -0.45569 
 C                    -4.28852   3.5775    1.66229 
 C                    -2.80216   3.6666   -0.21896 
 C                    -3.43522   4.30069   0.84052 
 H                    -5.14118   1.66175   2.09352 
 H                    -2.53359   1.82899  -1.28837 
 H                    -4.77415   4.08178   2.49202 
 H                    -2.12566   4.22018  -0.86772 
 O                     0.58459   4.34391  -1.76917 
 H                     1.03059   4.92017  -2.39978 
 O                     9.09526   1.66145   1.30836 
 H                     9.76322   1.15951   0.82796 
 O                    -9.20972  -1.95354   0.4003 
 H                    -9.85952  -1.34706   0.02865 
 O                    -3.25401   5.62795   1.11675 
 H                    -2.60943   5.99136   0.49935 
 
 ITRead=  0  0  0  0  0  0  0  0  0  0  0  0  0  0  0  0  0  0  0  0
 ITRead=  0  0  0  0  0  0  0  0  0  0  0  0  0  0  0  0  0  0  0  0
 ITRead=  0  0  0  0  0  0  0  0  0  0  0  0  0  0  0  0  0  0  0  0
 ITRead=  0  0  0  0  0  0  0  0  0  0  0  0
 MicOpt= -1 -1 -1 -1 -1 -1 -1 -1 -1 -1 -1 -1 -1 -1 -1 -1 -1 -1 -1 -1
 MicOpt= -1 -1 -1 -1 -1 -1 -1 -1 -1 -1 -1 -1 -1 -1 -1 -1 -1 -1 -1 -1
 MicOpt= -1 -1 -1 -1 -1 -1 -1 -1 -1 -1 -1 -1 -1 -1 -1 -1 -1 -1 -1 -1
 MicOpt= -1 -1 -1 -1 -1 -1 -1 -1 -1 -1 -1 -1
 NAtoms=     72 NQM=       72 NQMF=       0 NMMI=      0 NMMIF=      0
                NMic=       0 NMicF=      0.
                    Isotopes and Nuclear Properties:
 (Nuclear quadrupole moments (NQMom) in fm**2, nuclear magnetic moments (NMagM)
  in nuclear magnetons)

  Atom         1           2           3           4           5           6           7           8           9          10
 IAtWgt=          12          12          32          12          12          12          12          12           1          12
 AtmWgt=  12.0000000  12.0000000  31.9720718  12.0000000  12.0000000  12.0000000  12.0000000  12.0000000   1.0078250  12.0000000
 NucSpn=           0           0           0           0           0           0           0           0           1           0
 AtZEff=  -0.0000000  -0.0000000  -0.0000000  -0.0000000  -0.0000000  -0.0000000  -0.0000000  -0.0000000  -0.0000000  -0.0000000
 NQMom=    0.0000000   0.0000000   0.0000000   0.0000000   0.0000000   0.0000000   0.0000000   0.0000000   0.0000000   0.0000000
 NMagM=    0.0000000   0.0000000   0.0000000   0.0000000   0.0000000   0.0000000   0.0000000   0.0000000   2.7928460   0.0000000
 AtZNuc=   6.0000000   6.0000000  16.0000000   6.0000000   6.0000000   6.0000000   6.0000000   6.0000000   1.0000000   6.0000000

  Atom        11          12          13          14          15          16          17          18          19          20
 IAtWgt=          12          12          12           1           1           1          12           1           1           1
 AtmWgt=  12.0000000  12.0000000  12.0000000   1.0078250   1.0078250   1.0078250  12.0000000   1.0078250   1.0078250   1.0078250
 NucSpn=           0           0           0           1           1           1           0           1           1           1
 AtZEff=  -0.0000000  -0.0000000  -0.0000000  -0.0000000  -0.0000000  -0.0000000  -0.0000000  -0.0000000  -0.0000000  -0.0000000
 NQMom=    0.0000000   0.0000000   0.0000000   0.0000000   0.0000000   0.0000000   0.0000000   0.0000000   0.0000000   0.0000000
 NMagM=    0.0000000   0.0000000   0.0000000   2.7928460   2.7928460   2.7928460   0.0000000   2.7928460   2.7928460   2.7928460
 AtZNuc=   6.0000000   6.0000000   6.0000000   1.0000000   1.0000000   1.0000000   6.0000000   1.0000000   1.0000000   1.0000000

  Atom        21          22          23          24          25          26          27          28          29          30
 IAtWgt=           1          32          14          12          12          12          12          12          12           1
 AtmWgt=   1.0078250  31.9720718  14.0030740  12.0000000  12.0000000  12.0000000  12.0000000  12.0000000  12.0000000   1.0078250
 NucSpn=           1           0           2           0           0           0           0           0           0           1
 AtZEff=  -0.0000000  -0.0000000  -0.0000000  -0.0000000  -0.0000000  -0.0000000  -0.0000000  -0.0000000  -0.0000000  -0.0000000
 NQMom=    0.0000000   0.0000000   2.0440000   0.0000000   0.0000000   0.0000000   0.0000000   0.0000000   0.0000000   0.0000000
 NMagM=    2.7928460   0.0000000   0.4037610   0.0000000   0.0000000   0.0000000   0.0000000   0.0000000   0.0000000   2.7928460
 AtZNuc=   1.0000000  16.0000000   7.0000000   6.0000000   6.0000000   6.0000000   6.0000000   6.0000000   6.0000000   1.0000000

  Atom        31          32          33          34          35          36          37          38          39          40
 IAtWgt=           1           1           1          12          12          12          12          12          12           1
 AtmWgt=   1.0078250   1.0078250   1.0078250  12.0000000  12.0000000  12.0000000  12.0000000  12.0000000  12.0000000   1.0078250
 NucSpn=           1           1           1           0           0           0           0           0           0           1
 AtZEff=  -0.0000000  -0.0000000  -0.0000000  -0.0000000  -0.0000000  -0.0000000  -0.0000000  -0.0000000  -0.0000000  -0.0000000
 NQMom=    0.0000000   0.0000000   0.0000000   0.0000000   0.0000000   0.0000000   0.0000000   0.0000000   0.0000000   0.0000000
 NMagM=    2.7928460   2.7928460   2.7928460   0.0000000   0.0000000   0.0000000   0.0000000   0.0000000   0.0000000   2.7928460
 AtZNuc=   1.0000000   1.0000000   1.0000000   6.0000000   6.0000000   6.0000000   6.0000000   6.0000000   6.0000000   1.0000000

  Atom        41          42          43          44          45          46          47          48          49          50
 IAtWgt=           1           1           1          14          12          12          12          12          12          12
 AtmWgt=   1.0078250   1.0078250   1.0078250  14.0030740  12.0000000  12.0000000  12.0000000  12.0000000  12.0000000  12.0000000
 NucSpn=           1           1           1           2           0           0           0           0           0           0
 AtZEff=  -0.0000000  -0.0000000  -0.0000000  -0.0000000  -0.0000000  -0.0000000  -0.0000000  -0.0000000  -0.0000000  -0.0000000
 NQMom=    0.0000000   0.0000000   0.0000000   2.0440000   0.0000000   0.0000000   0.0000000   0.0000000   0.0000000   0.0000000
 NMagM=    2.7928460   2.7928460   2.7928460   0.4037610   0.0000000   0.0000000   0.0000000   0.0000000   0.0000000   0.0000000
 AtZNuc=   1.0000000   1.0000000   1.0000000   7.0000000   6.0000000   6.0000000   6.0000000   6.0000000   6.0000000   6.0000000

  Atom        51          52          53          54          55          56          57          58          59          60
 IAtWgt=           1           1           1           1          12          12          12          12          12          12
 AtmWgt=   1.0078250   1.0078250   1.0078250   1.0078250  12.0000000  12.0000000  12.0000000  12.0000000  12.0000000  12.0000000
 NucSpn=           1           1           1           1           0           0           0           0           0           0
 AtZEff=  -0.0000000  -0.0000000  -0.0000000  -0.0000000  -0.0000000  -0.0000000  -0.0000000  -0.0000000  -0.0000000  -0.0000000
 NQMom=    0.0000000   0.0000000   0.0000000   0.0000000   0.0000000   0.0000000   0.0000000   0.0000000   0.0000000   0.0000000
 NMagM=    2.7928460   2.7928460   2.7928460   2.7928460   0.0000000   0.0000000   0.0000000   0.0000000   0.0000000   0.0000000
 AtZNuc=   1.0000000   1.0000000   1.0000000   1.0000000   6.0000000   6.0000000   6.0000000   6.0000000   6.0000000   6.0000000

  Atom        61          62          63          64          65          66          67          68          69          70
 IAtWgt=           1           1           1           1          16           1          16           1          16           1
 AtmWgt=   1.0078250   1.0078250   1.0078250   1.0078250  15.9949146   1.0078250  15.9949146   1.0078250  15.9949146   1.0078250
 NucSpn=           1           1           1           1           0           1           0           1           0           1
 AtZEff=  -0.0000000  -0.0000000  -0.0000000  -0.0000000  -0.0000000  -0.0000000  -0.0000000  -0.0000000  -0.0000000  -0.0000000
 NQMom=    0.0000000   0.0000000   0.0000000   0.0000000   0.0000000   0.0000000   0.0000000   0.0000000   0.0000000   0.0000000
 NMagM=    2.7928460   2.7928460   2.7928460   2.7928460   0.0000000   2.7928460   0.0000000   2.7928460   0.0000000   2.7928460
 AtZNuc=   1.0000000   1.0000000   1.0000000   1.0000000   8.0000000   1.0000000   8.0000000   1.0000000   8.0000000   1.0000000

  Atom        71          72
 IAtWgt=          16           1
 AtmWgt=  15.9949146   1.0078250
 NucSpn=           0           1
 AtZEff=  -0.0000000  -0.0000000
 NQMom=    0.0000000   0.0000000
 NMagM=    0.0000000   2.7928460
 AtZNuc=   8.0000000   1.0000000
 Leave Link  101 at Thu Jan 21 12:02:50 2021, MaxMem=  4026531840 cpu:               0.6 elap:               0.1
 (Enter /opt/ohpc/pub/libs/gaussian/g16-A.03/sandybridge/g16/l202.exe)
 Stoichiometry    C36H28N2O4S2
 Framework group  C1[X(C36H28N2O4S2)]
 Deg. of freedom   210
 Full point group                 C1      NOp   1
 Largest Abelian subgroup         C1      NOp   1
 Largest concise Abelian subgroup C1      NOp   1
                         Standard orientation:                         
 ---------------------------------------------------------------------
 Center     Atomic      Atomic             Coordinates (Angstroms)
 Number     Number       Type             X           Y           Z
 ---------------------------------------------------------------------
      1          6           0       -1.748928    0.489907   -0.452051
      2          6           0       -0.626174    1.279763   -0.152570
      3         16           0        1.952753    5.388628   -0.812439
      4          6           0       -0.882312    2.170069    0.820725
      5          6           0        1.932708    2.897266    0.476539
      6          6           0        2.566514    3.761438   -0.418550
      7          6           0       -2.975354    0.631957    0.195801
      8          6           0       -2.049066    2.386893    1.545961
      9          1           0        0.246316    4.468801    0.586079
     10          6           0        2.384401    1.613824    0.700024
     11          6           0        3.673888    3.269502   -1.095477
     12          6           0        4.135912    1.984797   -0.893895
     13          6           0        3.494497    1.125461    0.002977
     14          1           0        1.857267    0.971131    1.395345
     15          1           0        4.176334    3.912174   -1.811785
     16          1           0        4.992977    1.632150   -1.456718
     17          6           0       -3.122467    1.590215    1.210611
     18          1           0       -1.688273   -0.276733   -1.226088
     19          1           0        2.539000    6.051116    0.206249
     20          1           0       -2.132551    3.120151    2.347153
     21          1           0       -4.068236    1.688167    1.734116
     22         16           0        0.491419    3.391365    1.378930
     23          7           0        3.940024   -0.175839    0.195205
     24          6           0        5.265040   -0.539150   -0.184549
     25          6           0        5.479402   -1.520085   -1.147894
     26          6           0        6.360048    0.068673    0.412912
     27          6           0        6.761446   -1.889048   -1.505778
     28          6           0        7.649207   -0.280692    0.044528
     29          6           0        7.852726   -1.265560   -0.913210
     30          1           0        4.624132   -2.002234   -1.612555
     31          1           0        6.198832    0.830082    1.170918
     32          1           0        6.936355   -2.656092   -2.253454
     33          1           0        8.499101    0.206598    0.518215
     34          6           0        3.067884   -1.217797    0.624973
     35          6           0        3.533169   -2.175669    1.516644
     36          6           0        1.768428   -1.324352    0.133595
     37          6           0        2.723890   -3.230889    1.904642
     38          6           0        0.952027   -2.363639    0.537000
     39          6           0        1.429133   -3.326131    1.415171
     40          1           0        4.545758   -2.102962    1.902377
     41          1           0        1.364259   -0.566763   -0.534909
     42          1           0        3.106488   -3.978127    2.597301
     43          1           0       -0.063643   -2.437107    0.162477
     44          7           0       -4.071583   -0.199288   -0.137893
     45          6           0       -5.379657    0.330758   -0.192504
     46          6           0       -6.464072   -0.381862    0.308117
     47          6           0       -5.615898    1.583782   -0.758482
     48          6           0       -7.748035    0.135409    0.237366
     49          6           0       -6.890741    2.113870   -0.808775
     50          6           0       -7.966332    1.388715   -0.314728
     51          1           0       -6.301182   -1.359246    0.752201
     52          1           0       -4.779992    2.148147   -1.160920
     53          1           0       -8.582756   -0.442294    0.630527
     54          1           0       -7.071352    3.090185   -1.247847
     55          6           0       -3.863071   -1.579858   -0.373004
     56          6           0       -4.488297   -2.228332   -1.435995
     57          6           0       -3.028002   -2.320518    0.455690
     58          6           0       -4.288516   -3.577498   -1.662294
     59          6           0       -2.802155   -3.666597    0.218956
     60          6           0       -3.435225   -4.300687   -0.840523
     61          1           0       -5.141183   -1.661753   -2.093518
     62          1           0       -2.533592   -1.828985    1.288374
     63          1           0       -4.774148   -4.081779   -2.492022
     64          1           0       -2.125658   -4.220184    0.867724
     65          8           0        0.584592   -4.343911    1.769173
     66          1           0        1.030590   -4.920168    2.399784
     67          8           0        9.095256   -1.661445   -1.308356
     68          1           0        9.763222   -1.159512   -0.827959
     69          8           0       -9.209724    1.953542   -0.400297
     70          1           0       -9.859516    1.347058   -0.028653
     71          8           0       -3.254007   -5.627948   -1.116747
     72          1           0       -2.609433   -5.991357   -0.499352
 ---------------------------------------------------------------------
 Rotational constants (GHZ):           0.1003685           0.0370235           0.0288534
 Leave Link  202 at Thu Jan 21 12:02:50 2021, MaxMem=  4026531840 cpu:               0.4 elap:               0.1
 (Enter /opt/ohpc/pub/libs/gaussian/g16-A.03/sandybridge/g16/l301.exe)
 Standard basis: TZVP (5D, 7F)
 Ernie: Thresh=  0.10000D-02 Tol=  0.10000D-05 Strict=F.
 There are  1054 symmetry adapted cartesian basis functions of A   symmetry.
 There are  1010 symmetry adapted basis functions of A   symmetry.
  1010 basis functions,  1788 primitive gaussians,  1054 cartesian basis functions
   161 alpha electrons      161 beta electrons
       nuclear repulsion energy      5277.7236652844 Hartrees.
 IExCor=33909 DFT=T Ex+Corr=LC-wHPBE ExCW=0 ScaHFX=  1.000000
 ScaDFX=  1.000000  1.000000  1.000000  1.000000 ScalE2=  1.000000  1.000000
 IRadAn=      5 IRanWt=     -1 IRanGd=            0 ICorTp=0 IEmpDi=  4
 HFx  wShort=  0.000000 wLong=  0.156200 cFull=  0.000000 cShort=  0.000000 cLong=  1.000000
 DFx  wShort=  0.000000 wLong=  0.156200 cFull=  0.000000 cShort=  1.000000 cLong=  0.000000
 NAtoms=   72 NActive=   72 NUniq=   72 SFac= 1.00D+00 NAtFMM=   60 NAOKFM=T Big=T
 Integral buffers will be    131072 words long.
 Raffenetti 2 integral format.
 Two-electron integral symmetry is turned on.
 Leave Link  301 at Thu Jan 21 12:02:50 2021, MaxMem=  4026531840 cpu:               0.4 elap:               0.1
 (Enter /opt/ohpc/pub/libs/gaussian/g16-A.03/sandybridge/g16/l302.exe)
 NPDir=0 NMtPBC=     1 NCelOv=     1 NCel=       1 NClECP=     1 NCelD=      1
         NCelK=      1 NCelE2=     1 NClLst=     1 CellRange=     0.0.
 One-electron integrals computed using PRISM.
 One-electron integral symmetry used in STVInt
 NBasis=  1010 RedAO= T EigKep=  6.33D-06  NBF=  1010
 NBsUse=  1010 1.00D-06 EigRej= -1.00D+00 NBFU=  1010
 Precomputing XC quadrature grid using
 IXCGrd= 4 IRadAn=           5 IRanWt=          -1 IRanGd=           0 AccXCQ= 0.00D+00.
 Generated NRdTot=       0 NPtTot=           0 NUsed=           0 NTot=          32
 NSgBfM=   960   960   960   960   960 MxSgAt=    72 MxSgA2=    72.
 Leave Link  302 at Thu Jan 21 12:02:55 2021, MaxMem=  4026531840 cpu:              28.5 elap:               5.4
 (Enter /opt/ohpc/pub/libs/gaussian/g16-A.03/sandybridge/g16/l303.exe)
 DipDrv:  MaxL=1.
 Leave Link  303 at Thu Jan 21 12:02:56 2021, MaxMem=  4026531840 cpu:               1.6 elap:               0.4
 (Enter /opt/ohpc/pub/libs/gaussian/g16-A.03/sandybridge/g16/l401.exe)
 ExpMin= 9.52D-02 ExpMax= 6.07D+04 ExpMxC= 2.07D+03 IAcc=3 IRadAn=         5 AccDes= 0.00D+00
 Harris functional with IExCor=33909 and IRadAn=       5 diagonalized for initial guess.
 HarFok:  IExCor=33909 AccDes= 0.00D+00 IRadAn=         5 IDoV= 1 UseB2=F ITyADJ=14
 ICtDFT=  3500011 ScaDFX=  1.000000  1.000000  1.000000  1.000000
 FoFCou: FMM=F IPFlag=           0 FMFlag=      100000 FMFlg1=        2001
         NFxFlg=           0 DoJE=T BraDBF=F KetDBF=T FulRan=T
         wScrn=  0.000000 ICntrl=       500 IOpCl=  0 I1Cent=   200000004 NGrid=           0
         NMat0=    1 NMatS0=      1 NMatT0=    0 NMatD0=    1 NMtDS0=    0 NMtDT0=    0
 Petite list used in FoFCou.
 Harris En= -2566.79516874185    
 JPrj=0 DoOrth=F DoCkMO=F.
 Leave Link  401 at Thu Jan 21 12:03:16 2021, MaxMem=  4026531840 cpu:             120.8 elap:              20.2
 (Enter /opt/ohpc/pub/libs/gaussian/g16-A.03/sandybridge/g16/l502.exe)
 Integral symmetry usage will be decided dynamically.
 Closed shell SCF:
 Using DIIS extrapolation, IDIIS=    10.
 NGot=  4026531840 LenX=  4024291472 LenY=  4023179502
 Requested convergence on RMS density matrix=1.00D-06 within  32 cycles.
 Requested convergence on MAX density matrix=1.00D-04.
 Requested convergence on             energy=1.00D-04.
 Virtual orbitals will be shifted by   0.500 hartree.
 No special actions if energy rises.
 Dynamic level shift is on during FON iterations.

 Cycle   1  Pass 1  IDiag  1:
 FoFJK:  IHMeth= 1 ICntrl=       0 DoSepK=T KAlg= 0 I1Cent=           0 FoldK=F
 IRaf=         1 NMat=       1 IRICut=       1 DoRegI=T DoRafI=F ISym2E= 0 IDoP0=0 IntGTp=1.
 FoFCou: FMM=T IPFlag=           0 FMFlag=      100000 FMFlg1=        2001
         NFxFlg=           0 DoJE=T BraDBF=F KetDBF=F FulRan=T
         wScrn=  0.000000 ICntrl=       500 IOpCl=  0 I1Cent=           0 NGrid=           0
         NMat0=    1 NMatS0=      1 NMatT0=    0 NMatD0=    1 NMtDS0=    0 NMtDT0=    0
 Symmetry not used in FoFCou.
 FMM levels:  10  Number of levels for PrismC:   9
 E= -2592.98485505697    
 DIIS: error= 1.93D-02 at cycle   1 NSaved=   1.
 NSaved= 1 IEnMin= 1 EnMin= -2592.98485505697     IErMin= 1 ErrMin= 1.93D-02
 ErrMax= 1.93D-02  0.00D+00 EMaxC= 1.00D+00 BMatC= 9.38D-01 BMatP= 9.38D-01
 IDIUse=1 WtCom= 1.00D+00 WtEn= 0.00D+00
 Coeff-Com:  0.100D+01
 Coeff:      0.100D+01
 Gap=     0.366 Goal=   None    Shift=    0.500
 T= 1231. Gap= 0.427 NK=0 IS=  162 IE= 1010 IFin=  161
          NO(<0.9)=   0  NV(>0.1)=   0    161.00e < EF      0.00e >EF  Err=0.0D+00
 GapD=    0.366 DampG=1.000 DampE=0.500 DampFc=0.5000 IDamp=-1.
 Damping current iteration by 5.00D-01
 RMSDP=3.47D-03 MaxDP=4.90D-01              OVMax= 1.45D-01

 Cycle   2  Pass 1  IDiag  1:
 E= -2593.56869147537     Delta-E=       -0.583836418392 Rises=F Damp=T
 DIIS: error= 7.80D-03 at cycle   2 NSaved=   2.
 NSaved= 2 IEnMin= 2 EnMin= -2593.56869147537     IErMin= 2 ErrMin= 7.80D-03
 ErrMax= 7.80D-03  0.00D+00 EMaxC= 1.00D+00 BMatC= 1.29D-01 BMatP= 9.38D-01
 IDIUse=1 WtCom= 1.00D+00 WtEn= 0.00D+00
 Coeff-Com: -0.448D+00 0.145D+01
 Coeff:     -0.448D+00 0.145D+01
 Gap=     0.219 Goal=   None    Shift=    0.500
 T= 1098. Gap= 0.675 NK=0 IS=  162 IE= 1010 IFin=  161
          NO(<0.9)=   0  NV(>0.1)=   0    161.00e < EF      0.00e >EF  Err=0.0D+00
 GapD=    0.219 DampG=1.000 DampE=1.000 DampFc=1.0000 IDamp=-1.
 RMSDP=1.60D-03 MaxDP=1.51D-01 DE=-5.84D-01 OVMax= 2.02D-02

 Cycle   3  Pass 1  IDiag  1:
 E= -2593.89057444415     Delta-E=       -0.321882968784 Rises=F Damp=F
 DIIS: error= 2.06D-03 at cycle   3 NSaved=   3.
 NSaved= 3 IEnMin= 3 EnMin= -2593.89057444415     IErMin= 3 ErrMin= 2.06D-03
 ErrMax= 2.06D-03  0.00D+00 EMaxC= 1.00D+00 BMatC= 1.52D-02 BMatP= 1.29D-01
 IDIUse=1 WtCom= 1.00D+00 WtEn= 0.00D+00
 Coeff-Com:  0.590D-01 0.942D-01 0.847D+00
 Coeff:      0.590D-01 0.942D-01 0.847D+00
 Gap=     0.200 Goal=   None    Shift=    0.500
 T=  820. Gap= 0.695 NK=0 IS=  162 IE= 1010 IFin=  161
          NO(<0.9)=   0  NV(>0.1)=   0    161.00e < EF      0.00e >EF  Err=0.0D+00
 GapD=    0.200 DampG=1.000 DampE=1.000 DampFc=1.0000 IDamp=-1.
 RMSDP=6.47D-04 MaxDP=1.07D-01 DE=-3.22D-01 OVMax= 9.73D-03

 Cycle   4  Pass 1  IDiag  1:
 E= -2593.90409135291     Delta-E=       -0.013516908764 Rises=F Damp=F
 DIIS: error= 1.04D-03 at cycle   4 NSaved=   4.
 NSaved= 4 IEnMin= 4 EnMin= -2593.90409135291     IErMin= 4 ErrMin= 1.04D-03
 ErrMax= 1.04D-03  0.00D+00 EMaxC= 1.00D+00 BMatC= 2.14D-03 BMatP= 1.52D-02
 IDIUse=1 WtCom= 1.00D+00 WtEn= 0.00D+00
 Coeff-Com:  0.758D-01-0.924D-01 0.765D-01 0.940D+00
 Coeff:      0.758D-01-0.924D-01 0.765D-01 0.940D+00
 Gap=     0.197 Goal=   None    Shift=    0.500
 T=  230. Gap= 0.697 NK=0 IS=  162 IE= 1010 IFin=  161
          NO(<0.9)=   0  NV(>0.1)=   0    161.00e < EF      0.00e >EF  Err=0.0D+00
 GapD=    0.197 DampG=1.000 DampE=1.000 DampFc=1.0000 IDamp=-1.
 RMSDP=2.99D-04 MaxDP=4.82D-02 DE=-1.35D-02 OVMax= 6.98D-03

 Cycle   5  Pass 1  IDiag  1:
 E= -2593.90608031605     Delta-E=       -0.001988963136 Rises=F Damp=F
 DIIS: error= 3.22D-04 at cycle   5 NSaved=   5.
 NSaved= 5 IEnMin= 5 EnMin= -2593.90608031605     IErMin= 5 ErrMin= 3.22D-04
 ErrMax= 3.22D-04  0.00D+00 EMaxC= 1.00D+00 BMatC= 2.57D-04 BMatP= 2.14D-03
 IDIUse=1 WtCom= 1.00D+00 WtEn= 0.00D+00
 Coeff-Com:  0.145D-01-0.248D-01-0.657D-01 0.250D-01 0.105D+01
 Coeff:      0.145D-01-0.248D-01-0.657D-01 0.250D-01 0.105D+01
 Gap=     0.199 Goal=   None    Shift=    0.500
 RMSDP=1.78D-04 MaxDP=2.87D-02 DE=-1.99D-03 OVMax= 5.33D-03

 Cycle   6  Pass 1  IDiag  1:
 E= -2593.90650942776     Delta-E=       -0.000429111713 Rises=F Damp=F
 DIIS: error= 3.17D-04 at cycle   6 NSaved=   6.
 NSaved= 6 IEnMin= 6 EnMin= -2593.90650942776     IErMin= 6 ErrMin= 3.17D-04
 ErrMax= 3.17D-04  0.00D+00 EMaxC= 1.00D+00 BMatC= 4.95D-05 BMatP= 2.57D-04
 IDIUse=1 WtCom= 1.00D+00 WtEn= 0.00D+00
 Coeff-Com: -0.928D-02 0.113D-01-0.428D-01-0.119D+00 0.296D-01 0.113D+01
 Coeff:     -0.928D-02 0.113D-01-0.428D-01-0.119D+00 0.296D-01 0.113D+01
 Gap=     0.200 Goal=   None    Shift=    0.500
 RMSDP=1.04D-04 MaxDP=1.61D-02 DE=-4.29D-04 OVMax= 4.86D-03

 Cycle   7  Pass 1  IDiag  1:
 E= -2593.90666584129     Delta-E=       -0.000156413528 Rises=F Damp=F
 DIIS: error= 2.59D-04 at cycle   7 NSaved=   7.
 NSaved= 7 IEnMin= 7 EnMin= -2593.90666584129     IErMin= 7 ErrMin= 2.59D-04
 ErrMax= 2.59D-04  0.00D+00 EMaxC= 1.00D+00 BMatC= 1.88D-05 BMatP= 4.95D-05
 IDIUse=1 WtCom= 1.00D+00 WtEn= 0.00D+00
 Coeff-Com: -0.531D-02 0.623D-02 0.448D-02-0.335D-01-0.288D+00-0.128D+00
 Coeff-Com:  0.144D+01
 Coeff:     -0.531D-02 0.623D-02 0.448D-02-0.335D-01-0.288D+00-0.128D+00
 Coeff:      0.144D+01
 Gap=     0.200 Goal=   None    Shift=    0.500
 RMSDP=6.95D-05 MaxDP=9.98D-03 DE=-1.56D-04 OVMax= 4.25D-03

 Cycle   8  Pass 1  IDiag  1:
 E= -2593.90674980352     Delta-E=       -0.000083962233 Rises=F Damp=F
 DIIS: error= 2.17D-04 at cycle   8 NSaved=   8.
 NSaved= 8 IEnMin= 8 EnMin= -2593.90674980352     IErMin= 8 ErrMin= 2.17D-04
 ErrMax= 2.17D-04  0.00D+00 EMaxC= 1.00D+00 BMatC= 9.28D-06 BMatP= 1.88D-05
 IDIUse=1 WtCom= 1.00D+00 WtEn= 0.00D+00
 Coeff-Com:  0.266D-02-0.501D-02 0.209D-01 0.309D-01-0.129D+00-0.541D+00
 Coeff-Com:  0.113D+00 0.151D+01
 Coeff:      0.266D-02-0.501D-02 0.209D-01 0.309D-01-0.129D+00-0.541D+00
 Coeff:      0.113D+00 0.151D+01
 Gap=     0.201 Goal=   None    Shift=    0.500
 RMSDP=5.15D-05 MaxDP=6.80D-03 DE=-8.40D-05 OVMax= 3.64D-03

 Cycle   9  Pass 1  IDiag  1:
 E= -2593.90679949035     Delta-E=       -0.000049686824 Rises=F Damp=F
 DIIS: error= 1.81D-04 at cycle   9 NSaved=   9.
 NSaved= 9 IEnMin= 9 EnMin= -2593.90679949035     IErMin= 9 ErrMin= 1.81D-04
 ErrMax= 1.81D-04  0.00D+00 EMaxC= 1.00D+00 BMatC= 4.87D-06 BMatP= 9.28D-06
 IDIUse=1 WtCom= 1.00D+00 WtEn= 0.00D+00
 Coeff-Com:  0.396D-02-0.581D-02 0.694D-02 0.313D-01 0.131D+00-0.266D+00
 Coeff-Com: -0.762D+00-0.404D-01 0.190D+01
 Coeff:      0.396D-02-0.581D-02 0.694D-02 0.313D-01 0.131D+00-0.266D+00
 Coeff:     -0.762D+00-0.404D-01 0.190D+01
 Gap=     0.201 Goal=   None    Shift=    0.500
 RMSDP=3.96D-05 MaxDP=4.62D-03 DE=-4.97D-05 OVMax= 3.29D-03

 Cycle  10  Pass 1  IDiag  1:
 E= -2593.90683079108     Delta-E=       -0.000031300729 Rises=F Damp=F
 DIIS: error= 1.43D-04 at cycle  10 NSaved=  10.
 NSaved=10 IEnMin=10 EnMin= -2593.90683079108     IErMin=10 ErrMin= 1.43D-04
 ErrMax= 1.43D-04  0.00D+00 EMaxC= 1.00D+00 BMatC= 2.76D-06 BMatP= 4.87D-06
 IDIUse=1 WtCom= 1.00D+00 WtEn= 0.00D+00
 Coeff-Com:  0.726D-03-0.595D-03-0.604D-02 0.111D-01 0.133D+00 0.182D-01
 Coeff-Com: -0.423D+00-0.650D+00 0.314D-01 0.189D+01
 Coeff:      0.726D-03-0.595D-03-0.604D-02 0.111D-01 0.133D+00 0.182D-01
 Coeff:     -0.423D+00-0.650D+00 0.314D-01 0.189D+01
 Gap=     0.201 Goal=   None    Shift=    0.500
 RMSDP=2.95D-05 MaxDP=3.69D-03 DE=-3.13D-05 OVMax= 2.74D-03

 Cycle  11  Pass 1  IDiag  1:
 E= -2593.90684969916     Delta-E=       -0.000018908083 Rises=F Damp=F
 DIIS: error= 1.14D-04 at cycle  11 NSaved=  11.
 NSaved=11 IEnMin=11 EnMin= -2593.90684969916     IErMin=11 ErrMin= 1.14D-04
 ErrMax= 1.14D-04  0.00D+00 EMaxC= 1.00D+00 BMatC= 1.60D-06 BMatP= 2.76D-06
 IDIUse=1 WtCom= 1.00D+00 WtEn= 0.00D+00
 Coeff-Com: -0.148D-02 0.242D-02-0.514D-02-0.312D-02-0.531D-02 0.906D-01
 Coeff-Com:  0.273D+00-0.339D+00-0.133D+01 0.137D+00 0.218D+01
 Coeff:     -0.148D-02 0.242D-02-0.514D-02-0.312D-02-0.531D-02 0.906D-01
 Coeff:      0.273D+00-0.339D+00-0.133D+01 0.137D+00 0.218D+01
 Gap=     0.201 Goal=   None    Shift=    0.500
 RMSDP=2.39D-05 MaxDP=2.92D-03 DE=-1.89D-05 OVMax= 2.32D-03

 Cycle  12  Pass 1  IDiag  1:
 E= -2593.90686135933     Delta-E=       -0.000011660173 Rises=F Damp=F
 DIIS: error= 8.72D-05 at cycle  12 NSaved=  12.
 NSaved=12 IEnMin=12 EnMin= -2593.90686135933     IErMin=12 ErrMin= 8.72D-05
 ErrMax= 8.72D-05  0.00D+00 EMaxC= 1.00D+00 BMatC= 9.58D-07 BMatP= 1.60D-06
 IDIUse=1 WtCom= 1.00D+00 WtEn= 0.00D+00
 Coeff-Com: -0.835D-03 0.104D-02 0.312D-02-0.794D-02-0.658D-01 0.622D-02
 Coeff-Com:  0.409D+00 0.217D+00-0.905D+00-0.121D+01 0.427D+00 0.213D+01
 Coeff:     -0.835D-03 0.104D-02 0.312D-02-0.794D-02-0.658D-01 0.622D-02
 Coeff:      0.409D+00 0.217D+00-0.905D+00-0.121D+01 0.427D+00 0.213D+01
 Gap=     0.201 Goal=   None    Shift=    0.500
 RMSDP=1.85D-05 MaxDP=2.20D-03 DE=-1.17D-05 OVMax= 1.90D-03

 Cycle  13  Pass 1  IDiag  1:
 E= -2593.90686829515     Delta-E=       -0.000006935820 Rises=F Damp=F
 DIIS: error= 6.58D-05 at cycle  13 NSaved=  13.
 NSaved=13 IEnMin=13 EnMin= -2593.90686829515     IErMin=13 ErrMin= 6.58D-05
 ErrMax= 6.58D-05  0.00D+00 EMaxC= 1.00D+00 BMatC= 5.60D-07 BMatP= 9.58D-07
 IDIUse=1 WtCom= 1.00D+00 WtEn= 0.00D+00
 Coeff-Com:  0.105D-03-0.409D-03 0.492D-02-0.503D-02-0.288D-01-0.550D-01
 Coeff-Com:  0.142D+00 0.327D+00 0.158D-01-0.101D+01-0.724D+00 0.299D+00
 Coeff-Com:  0.203D+01
 Coeff:      0.105D-03-0.409D-03 0.492D-02-0.503D-02-0.288D-01-0.550D-01
 Coeff:      0.142D+00 0.327D+00 0.158D-01-0.101D+01-0.724D+00 0.299D+00
 Coeff:      0.203D+01
 Gap=     0.201 Goal=   None    Shift=    0.500
 RMSDP=1.37D-05 MaxDP=1.59D-03 DE=-6.94D-06 OVMax= 1.48D-03

 Cycle  14  Pass 1  IDiag  1:
 E= -2593.90687221482     Delta-E=       -0.000003919668 Rises=F Damp=F
 DIIS: error= 4.84D-05 at cycle  14 NSaved=  14.
 NSaved=14 IEnMin=14 EnMin= -2593.90687221482     IErMin=14 ErrMin= 4.84D-05
 ErrMax= 4.84D-05  0.00D+00 EMaxC= 1.00D+00 BMatC= 3.27D-07 BMatP= 5.60D-07
 IDIUse=1 WtCom= 1.00D+00 WtEn= 0.00D+00
 Coeff-Com:  0.363D-03-0.579D-03 0.120D-02 0.237D-02 0.178D-01-0.549D-01
 Coeff-Com: -0.103D+00 0.129D+00 0.445D+00 0.351D-01-0.714D+00-0.150D+01
 Coeff-Com:  0.539D+00 0.220D+01
 Coeff:      0.363D-03-0.579D-03 0.120D-02 0.237D-02 0.178D-01-0.549D-01
 Coeff:     -0.103D+00 0.129D+00 0.445D+00 0.351D-01-0.714D+00-0.150D+01
 Coeff:      0.539D+00 0.220D+01
 Gap=     0.201 Goal=   None    Shift=    0.500
 RMSDP=1.05D-05 MaxDP=1.19D-03 DE=-3.92D-06 OVMax= 1.15D-03

 Cycle  15  Pass 1  IDiag  1:
 E= -2593.90687441223     Delta-E=       -0.000002197407 Rises=F Damp=F
 DIIS: error= 3.51D-05 at cycle  15 NSaved=  15.
 NSaved=15 IEnMin=15 EnMin= -2593.90687441223     IErMin=15 ErrMin= 3.51D-05
 ErrMax= 3.51D-05  0.00D+00 EMaxC= 1.00D+00 BMatC= 1.88D-07 BMatP= 3.27D-07
 IDIUse=1 WtCom= 1.00D+00 WtEn= 0.00D+00
 Coeff-Com:  0.180D-03-0.236D-03-0.109D-02 0.413D-02 0.209D-01-0.205D-01
 Coeff-Com: -0.107D+00-0.956D-03 0.220D+00 0.460D+00-0.240D+00-0.133D+01
 Coeff-Com: -0.415D+00 0.699D+00 0.171D+01
 Coeff:      0.180D-03-0.236D-03-0.109D-02 0.413D-02 0.209D-01-0.205D-01
 Coeff:     -0.107D+00-0.956D-03 0.220D+00 0.460D+00-0.240D+00-0.133D+01
 Coeff:     -0.415D+00 0.699D+00 0.171D+01
 Gap=     0.201 Goal=   None    Shift=    0.500
 RMSDP=7.58D-06 MaxDP=8.04D-04 DE=-2.20D-06 OVMax= 8.61D-04

 Cycle  16  Pass 1  IDiag  1:
 E= -2593.90687559114     Delta-E=       -0.000001178914 Rises=F Damp=F
 DIIS: error= 2.48D-05 at cycle  16 NSaved=  16.
 NSaved=16 IEnMin=16 EnMin= -2593.90687559114     IErMin=16 ErrMin= 2.48D-05
 ErrMax= 2.48D-05  0.00D+00 EMaxC= 1.00D+00 BMatC= 9.88D-08 BMatP= 1.88D-07
 IDIUse=1 WtCom= 1.00D+00 WtEn= 0.00D+00
 Coeff-Com: -0.298D-04 0.379D-04-0.142D-02 0.149D-02 0.797D-02 0.138D-01
 Coeff-Com: -0.303D-01-0.500D-01-0.112D+00 0.391D+00 0.201D+00-0.309D+00
 Coeff-Com: -0.682D+00-0.711D+00 0.288D+00 0.199D+01
 Coeff:     -0.298D-04 0.379D-04-0.142D-02 0.149D-02 0.797D-02 0.138D-01
 Coeff:     -0.303D-01-0.500D-01-0.112D+00 0.391D+00 0.201D+00-0.309D+00
 Coeff:     -0.682D+00-0.711D+00 0.288D+00 0.199D+01
 Gap=     0.201 Goal=   None    Shift=    0.500
 RMSDP=5.49D-06 MaxDP=5.65D-04 DE=-1.18D-06 OVMax= 6.30D-04

 Cycle  17  Pass 1  IDiag  1:
 E= -2593.90687619764     Delta-E=       -0.000000606496 Rises=F Damp=F
 DIIS: error= 1.73D-05 at cycle  17 NSaved=  17.
 NSaved=17 IEnMin=17 EnMin= -2593.90687619764     IErMin=17 ErrMin= 1.73D-05
 ErrMax= 1.73D-05  0.00D+00 EMaxC= 1.00D+00 BMatC= 5.93D-08 BMatP= 9.88D-08
 IDIUse=1 WtCom= 1.00D+00 WtEn= 0.00D+00
 Coeff-Com: -0.710D-04 0.708D-04-0.207D-03-0.135D-02-0.144D-02 0.145D-01
 Coeff-Com:  0.171D-01-0.791D-02-0.172D+00 0.903D-01 0.224D+00 0.260D+00
 Coeff-Com: -0.308D+00-0.737D+00-0.941D+00 0.966D+00 0.160D+01
 Coeff:     -0.710D-04 0.708D-04-0.207D-03-0.135D-02-0.144D-02 0.145D-01
 Coeff:      0.171D-01-0.791D-02-0.172D+00 0.903D-01 0.224D+00 0.260D+00
 Coeff:     -0.308D+00-0.737D+00-0.941D+00 0.966D+00 0.160D+01
 Gap=     0.201 Goal=   None    Shift=    0.500
 RMSDP=3.80D-06 MaxDP=4.01D-04 DE=-6.06D-07 OVMax= 4.59D-04

 Cycle  18  Pass 1  IDiag  1:
 E= -2593.90687651534     Delta-E=       -0.000000317701 Rises=F Damp=F
 DIIS: error= 1.20D-05 at cycle  18 NSaved=  18.
 NSaved=18 IEnMin=18 EnMin= -2593.90687651534     IErMin=18 ErrMin= 1.20D-05
 ErrMax= 1.20D-05  0.00D+00 EMaxC= 1.00D+00 BMatC= 3.26D-08 BMatP= 5.93D-08
 IDIUse=1 WtCom= 1.00D+00 WtEn= 0.00D+00
 Coeff-Com: -0.419D-04 0.462D-04 0.612D-03-0.165D-02-0.421D-02 0.116D-02
 Coeff-Com:  0.245D-01 0.311D-01-0.818D-01-0.105D+00 0.832D-01 0.297D+00
 Coeff-Com:  0.924D-01-0.236D+00-0.105D+01 0.495D-01-0.455D-01 0.195D+01
 Coeff:     -0.419D-04 0.462D-04 0.612D-03-0.165D-02-0.421D-02 0.116D-02
 Coeff:      0.245D-01 0.311D-01-0.818D-01-0.105D+00 0.832D-01 0.297D+00
 Coeff:      0.924D-01-0.236D+00-0.105D+01 0.495D-01-0.455D-01 0.195D+01
 Gap=     0.201 Goal=   None    Shift=    0.500
 RMSDP=2.57D-06 MaxDP=2.73D-04 DE=-3.18D-07 OVMax= 3.30D-04

 Cycle  19  Pass 1  IDiag  1:
 E= -2593.90687667777     Delta-E=       -0.000000162429 Rises=F Damp=F
 DIIS: error= 8.13D-06 at cycle  19 NSaved=  19.
 NSaved=19 IEnMin=19 EnMin= -2593.90687667777     IErMin=19 ErrMin= 8.13D-06
 ErrMax= 8.13D-06  0.00D+00 EMaxC= 1.00D+00 BMatC= 1.73D-08 BMatP= 3.26D-08
 IDIUse=1 WtCom= 1.00D+00 WtEn= 0.00D+00
 Coeff-Com:  0.245D-05 0.509D-05 0.381D-03-0.353D-03-0.753D-03-0.544D-02
 Coeff-Com:  0.136D-02 0.258D-01 0.223D-01-0.710D-01-0.482D-01 0.131D-01
 Coeff-Com:  0.224D+00 0.128D+00-0.378D+00-0.205D+00-0.968D+00 0.286D+00
 Coeff-Com:  0.198D+01
 Coeff:      0.245D-05 0.509D-05 0.381D-03-0.353D-03-0.753D-03-0.544D-02
 Coeff:      0.136D-02 0.258D-01 0.223D-01-0.710D-01-0.482D-01 0.131D-01
 Coeff:      0.224D+00 0.128D+00-0.378D+00-0.205D+00-0.968D+00 0.286D+00
 Coeff:      0.198D+01
 Gap=     0.201 Goal=   None    Shift=    0.500
 RMSDP=1.76D-06 MaxDP=1.86D-04 DE=-1.62D-07 OVMax= 2.34D-04

 Cycle  20  Pass 1  IDiag  1:
 E= -2593.90687675956     Delta-E=       -0.000000081788 Rises=F Damp=F
 DIIS: error= 5.63D-06 at cycle  20 NSaved=  20.
 NSaved=20 IEnMin=20 EnMin= -2593.90687675956     IErMin=20 ErrMin= 5.63D-06
 ErrMax= 5.63D-06  0.00D+00 EMaxC= 1.00D+00 BMatC= 9.15D-09 BMatP= 1.73D-08
 IDIUse=1 WtCom= 1.00D+00 WtEn= 0.00D+00
 Coeff-Com:  0.264D-04-0.278D-04-0.175D-04 0.418D-03 0.198D-02-0.373D-02
 Coeff-Com: -0.146D-01 0.598D-02 0.554D-01 0.967D-02-0.811D-01-0.148D+00
 Coeff-Com:  0.170D+00 0.175D+00 0.121D+00-0.117D+00-0.841D+00-0.794D+00
 Coeff-Com:  0.853D+00 0.161D+01
 Coeff:      0.264D-04-0.278D-04-0.175D-04 0.418D-03 0.198D-02-0.373D-02
 Coeff:     -0.146D-01 0.598D-02 0.554D-01 0.967D-02-0.811D-01-0.148D+00
 Coeff:      0.170D+00 0.175D+00 0.121D+00-0.117D+00-0.841D+00-0.794D+00
 Coeff:      0.853D+00 0.161D+01
 Gap=     0.201 Goal=   None    Shift=    0.500
 RMSDP=1.19D-06 MaxDP=1.25D-04 DE=-8.18D-08 OVMax= 1.66D-04

 Cycle  21  Pass 1  IDiag  1:
 E= -2593.90687679993     Delta-E=       -0.000000040369 Rises=F Damp=F
 DIIS: error= 3.92D-06 at cycle  21 NSaved=  20.
 NSaved=20 IEnMin=20 EnMin= -2593.90687679993     IErMin=20 ErrMin= 3.92D-06
 ErrMax= 3.92D-06  0.00D+00 EMaxC= 1.00D+00 BMatC= 4.73D-09 BMatP= 9.15D-09
 IDIUse=1 WtCom= 1.00D+00 WtEn= 0.00D+00
 Coeff-Com:  0.282D-05-0.158D-03 0.170D-03 0.122D-02 0.122D-02-0.837D-02
 Coeff-Com: -0.574D-02 0.162D-01 0.370D-01-0.239D-01-0.925D-01 0.381D-01
 Coeff-Com:  0.347D-01 0.148D+00 0.512D-01-0.233D+00-0.617D+00-0.226D+00
 Coeff-Com:  0.877D-01 0.179D+01
 Coeff:      0.282D-05-0.158D-03 0.170D-03 0.122D-02 0.122D-02-0.837D-02
 Coeff:     -0.574D-02 0.162D-01 0.370D-01-0.239D-01-0.925D-01 0.381D-01
 Coeff:      0.347D-01 0.148D+00 0.512D-01-0.233D+00-0.617D+00-0.226D+00
 Coeff:      0.877D-01 0.179D+01
 Gap=     0.201 Goal=   None    Shift=    0.500
 RMSDP=8.07D-07 MaxDP=8.41D-05 DE=-4.04D-08 OVMax= 1.17D-04

 SCF Done:  E(RLC-wHPBE) =  -2593.90687680     A.U. after   21 cycles
            NFock= 21  Conv=0.81D-06     -V/T= 2.0037
 KE= 2.584458876705D+03 PE=-1.663735671885D+04 EE= 6.181267300063D+03
 Leave Link  502 at Thu Jan 21 12:38:27 2021, MaxMem=  4026531840 cpu:           16668.3 elap:            2111.4
 (Enter /opt/ohpc/pub/libs/gaussian/g16-A.03/sandybridge/g16/l508.exe)
 QCSCF skips out because SCF is already converged.
 Leave Link  508 at Thu Jan 21 12:38:28 2021, MaxMem=  4026531840 cpu:               0.3 elap:               0.2
 (Enter /opt/ohpc/pub/libs/gaussian/g16-A.03/sandybridge/g16/l601.exe)
 Copying SCF densities to generalized density rwf, IOpCl= 0 IROHF=0.

 **********************************************************************

            Population analysis using the SCF density.

 **********************************************************************

 Orbital symmetries:
       Occupied  (A) (A) (A) (A) (A) (A) (A) (A) (A) (A) (A) (A)
                 (A) (A) (A) (A) (A) (A) (A) (A) (A) (A) (A) (A)
                 (A) (A) (A) (A) (A) (A) (A) (A) (A) (A) (A) (A)
                 (A) (A) (A) (A) (A) (A) (A) (A) (A) (A) (A) (A)
                 (A) (A) (A) (A) (A) (A) (A) (A) (A) (A) (A) (A)
                 (A) (A) (A) (A) (A) (A) (A) (A) (A) (A) (A) (A)
                 (A) (A) (A) (A) (A) (A) (A) (A) (A) (A) (A) (A)
                 (A) (A) (A) (A) (A) (A) (A) (A) (A) (A) (A) (A)
                 (A) (A) (A) (A) (A) (A) (A) (A) (A) (A) (A) (A)
                 (A) (A) (A) (A) (A) (A) (A) (A) (A) (A) (A) (A)
                 (A) (A) (A) (A) (A) (A) (A) (A) (A) (A) (A) (A)
                 (A) (A) (A) (A) (A) (A) (A) (A) (A) (A) (A) (A)
                 (A) (A) (A) (A) (A) (A) (A) (A) (A) (A) (A) (A)
                 (A) (A) (A) (A) (A)
       Virtual   (A) (A) (A) (A) (A) (A) (A) (A) (A) (A) (A) (A)
                 (A) (A) (A) (A) (A) (A) (A) (A) (A) (A) (A) (A)
                 (A) (A) (A) (A) (A) (A) (A) (A) (A) (A) (A) (A)
                 (A) (A) (A) (A) (A) (A) (A) (A) (A) (A) (A) (A)
                 (A) (A) (A) (A) (A) (A) (A) (A) (A) (A) (A) (A)
                 (A) (A) (A) (A) (A) (A) (A) (A) (A) (A) (A) (A)
                 (A) (A) (A) (A) (A) (A) (A) (A) (A) (A) (A) (A)
                 (A) (A) (A) (A) (A) (A) (A) (A) (A) (A) (A) (A)
                 (A) (A) (A) (A) (A) (A) (A) (A) (A) (A) (A) (A)
                 (A) (A) (A) (A) (A) (A) (A) (A) (A) (A) (A) (A)
                 (A) (A) (A) (A) (A) (A) (A) (A) (A) (A) (A) (A)
                 (A) (A) (A) (A) (A) (A) (A) (A) (A) (A) (A) (A)
                 (A) (A) (A) (A) (A) (A) (A) (A) (A) (A) (A) (A)
                 (A) (A) (A) (A) (A) (A) (A) (A) (A) (A) (A) (A)
                 (A) (A) (A) (A) (A) (A) (A) (A) (A) (A) (A) (A)
                 (A) (A) (A) (A) (A) (A) (A) (A) (A) (A) (A) (A)
                 (A) (A) (A) (A) (A) (A) (A) (A) (A) (A) (A) (A)
                 (A) (A) (A) (A) (A) (A) (A) (A) (A) (A) (A) (A)
                 (A) (A) (A) (A) (A) (A) (A) (A) (A) (A) (A) (A)
                 (A) (A) (A) (A) (A) (A) (A) (A) (A) (A) (A) (A)
                 (A) (A) (A) (A) (A) (A) (A) (A) (A) (A) (A) (A)
                 (A) (A) (A) (A) (A) (A) (A) (A) (A) (A) (A) (A)
                 (A) (A) (A) (A) (A) (A) (A) (A) (A) (A) (A) (A)
                 (A) (A) (A) (A) (A) (A) (A) (A) (A) (A) (A) (A)
                 (A) (A) (A) (A) (A) (A) (A) (A) (A) (A) (A) (A)
                 (A) (A) (A) (A) (A) (A) (A) (A) (A) (A) (A) (A)
                 (A) (A) (A) (A) (A) (A) (A) (A) (A) (A) (A) (A)
                 (A) (A) (A) (A) (A) (A) (A) (A) (A) (A) (A) (A)
                 (A) (A) (A) (A) (A) (A) (A) (A) (A) (A) (A) (A)
                 (A) (A) (A) (A) (A) (A) (A) (A) (A) (A) (A) (A)
                 (A) (A) (A) (A) (A) (A) (A) (A) (A) (A) (A) (A)
                 (A) (A) (A) (A) (A) (A) (A) (A) (A) (A) (A) (A)
                 (A) (A) (A) (A) (A) (A) (A) (A) (A) (A) (A) (A)
                 (A) (A) (A) (A) (A) (A) (A) (A) (A) (A) (A) (A)
                 (A) (A) (A) (A) (A) (A) (A) (A) (A) (A) (A) (A)
                 (A) (A) (A) (A) (A) (A) (A) (A) (A) (A) (A) (A)
                 (A) (A) (A) (A) (A) (A) (A) (A) (A) (A) (A) (A)
                 (A) (A) (A) (A) (A) (A) (A) (A) (A) (A) (A) (A)
                 (A) (A) (A) (A) (A) (A) (A) (A) (A) (A) (A) (A)
                 (A) (A) (A) (A) (A) (A) (A) (A) (A) (A) (A) (A)
                 (A) (A) (A) (A) (A) (A) (A) (A) (A) (A) (A) (A)
                 (A) (A) (A) (A) (A) (A) (A) (A) (A) (A) (A) (A)
                 (A) (A) (A) (A) (A) (A) (A) (A) (A) (A) (A) (A)
                 (A) (A) (A) (A) (A) (A) (A) (A) (A) (A) (A) (A)
                 (A) (A) (A) (A) (A) (A) (A) (A) (A) (A) (A) (A)
                 (A) (A) (A) (A) (A) (A) (A) (A) (A) (A) (A) (A)
                 (A) (A) (A) (A) (A) (A) (A) (A) (A) (A) (A) (A)
                 (A) (A) (A) (A) (A) (A) (A) (A) (A) (A) (A) (A)
                 (A) (A) (A) (A) (A) (A) (A) (A) (A) (A) (A) (A)
                 (A) (A) (A) (A) (A) (A) (A) (A) (A) (A) (A) (A)
                 (A) (A) (A) (A) (A) (A) (A) (A) (A) (A) (A) (A)
                 (A) (A) (A) (A) (A) (A) (A) (A) (A) (A) (A) (A)
                 (A) (A) (A) (A) (A) (A) (A) (A) (A) (A) (A) (A)
                 (A) (A) (A) (A) (A) (A) (A) (A) (A) (A) (A) (A)
                 (A) (A) (A) (A) (A) (A) (A) (A) (A) (A) (A) (A)
                 (A) (A) (A) (A) (A) (A) (A) (A) (A) (A) (A) (A)
                 (A) (A) (A) (A) (A) (A) (A) (A) (A) (A) (A) (A)
                 (A) (A) (A) (A) (A) (A) (A) (A) (A) (A) (A) (A)
                 (A) (A) (A) (A) (A) (A) (A) (A) (A) (A) (A) (A)
                 (A) (A) (A) (A) (A) (A) (A) (A) (A) (A) (A) (A)
                 (A) (A) (A) (A) (A) (A) (A) (A) (A) (A) (A) (A)
                 (A) (A) (A) (A) (A) (A) (A) (A) (A) (A) (A) (A)
                 (A) (A) (A) (A) (A) (A) (A) (A) (A) (A) (A) (A)
                 (A) (A) (A) (A) (A) (A) (A) (A) (A) (A) (A) (A)
                 (A) (A) (A) (A) (A) (A) (A) (A) (A) (A) (A) (A)
                 (A) (A) (A) (A) (A) (A) (A) (A) (A) (A) (A) (A)
                 (A) (A) (A) (A) (A) (A) (A) (A) (A) (A) (A) (A)
                 (A) (A) (A) (A) (A) (A) (A) (A) (A) (A) (A) (A)
                 (A) (A) (A) (A) (A) (A) (A) (A) (A) (A) (A) (A)
                 (A) (A) (A) (A) (A) (A) (A) (A) (A) (A) (A) (A)
                 (A) (A) (A) (A) (A) (A) (A) (A) (A)
 The electronic state is 1-A.
 Alpha  occ. eigenvalues --  -88.25032 -88.19967 -18.88170 -18.87384 -18.85979
 Alpha  occ. eigenvalues --  -18.85756 -14.11646 -14.08598 -10.04603 -10.03450
 Alpha  occ. eigenvalues --  -10.03329 -10.03273 -10.02381 -10.02026 -10.01854
 Alpha  occ. eigenvalues --  -10.01783 -10.01085  -9.99636  -9.99424  -9.99283
 Alpha  occ. eigenvalues --   -9.99121  -9.99037  -9.99010  -9.98996  -9.98710
 Alpha  occ. eigenvalues --   -9.98399  -9.98296  -9.98248  -9.97945  -9.97905
 Alpha  occ. eigenvalues --   -9.97007  -9.96875  -9.96789  -9.96711  -9.96420
 Alpha  occ. eigenvalues --   -9.96309  -9.96234  -9.96178  -9.96165  -9.96083
 Alpha  occ. eigenvalues --   -9.95935  -9.95402  -9.94251  -9.90574  -7.84107
 Alpha  occ. eigenvalues --   -7.79186  -5.86118  -5.85900  -5.85382  -5.81398
 Alpha  occ. eigenvalues --   -5.80971  -5.80212  -1.07998  -1.06985  -1.05658
 Alpha  occ. eigenvalues --   -1.05455  -0.99070  -0.96134  -0.91544  -0.88556
 Alpha  occ. eigenvalues --   -0.87359  -0.86447  -0.86373  -0.85240  -0.83399
 Alpha  occ. eigenvalues --   -0.82402  -0.78941  -0.78479  -0.77527  -0.77311
 Alpha  occ. eigenvalues --   -0.76645  -0.76552  -0.76414  -0.75842  -0.74861
 Alpha  occ. eigenvalues --   -0.73613  -0.72789  -0.70919  -0.67857  -0.67001
 Alpha  occ. eigenvalues --   -0.66212  -0.65600  -0.65373  -0.64935  -0.63787
 Alpha  occ. eigenvalues --   -0.63373  -0.62458  -0.61888  -0.61167  -0.59842
 Alpha  occ. eigenvalues --   -0.59172  -0.58582  -0.58433  -0.57522  -0.57206
 Alpha  occ. eigenvalues --   -0.57049  -0.55186  -0.54285  -0.53957  -0.53392
 Alpha  occ. eigenvalues --   -0.52883  -0.51592  -0.51018  -0.50341  -0.49728
 Alpha  occ. eigenvalues --   -0.49436  -0.49035  -0.48710  -0.48282  -0.47705
 Alpha  occ. eigenvalues --   -0.47614  -0.47267  -0.47021  -0.46787  -0.46646
 Alpha  occ. eigenvalues --   -0.46317  -0.46092  -0.45647  -0.45625  -0.45262
 Alpha  occ. eigenvalues --   -0.45054  -0.44708  -0.44455  -0.44365  -0.44069
 Alpha  occ. eigenvalues --   -0.43880  -0.43327  -0.43099  -0.42592  -0.41982
 Alpha  occ. eigenvalues --   -0.41118  -0.40903  -0.40715  -0.40411  -0.40127
 Alpha  occ. eigenvalues --   -0.40005  -0.39663  -0.39558  -0.39242  -0.38565
 Alpha  occ. eigenvalues --   -0.38208  -0.37897  -0.37259  -0.36915  -0.36589
 Alpha  occ. eigenvalues --   -0.35484  -0.33158  -0.32648  -0.32093  -0.31581
 Alpha  occ. eigenvalues --   -0.31242  -0.30453  -0.30164  -0.29832  -0.29283
 Alpha  occ. eigenvalues --   -0.28373  -0.27874  -0.27121  -0.24059  -0.21521
 Alpha  occ. eigenvalues --   -0.20448
 Alpha virt. eigenvalues --   -0.00310   0.00575   0.02040   0.02259   0.02668
 Alpha virt. eigenvalues --    0.02976   0.03239   0.04584   0.04694   0.04939
 Alpha virt. eigenvalues --    0.05493   0.05749   0.06349   0.06690   0.06790
 Alpha virt. eigenvalues --    0.06950   0.07687   0.08437   0.09132   0.09467
 Alpha virt. eigenvalues --    0.09642   0.10409   0.10829   0.11289   0.11861
 Alpha virt. eigenvalues --    0.12287   0.12506   0.13065   0.13282   0.13880
 Alpha virt. eigenvalues --    0.14241   0.14463   0.15158   0.15169   0.15688
 Alpha virt. eigenvalues --    0.15781   0.16318   0.16350   0.17055   0.17307
 Alpha virt. eigenvalues --    0.17420   0.17919   0.18271   0.18707   0.19092
 Alpha virt. eigenvalues --    0.19243   0.19656   0.19914   0.20231   0.20546
 Alpha virt. eigenvalues --    0.20896   0.21132   0.21379   0.21728   0.21914
 Alpha virt. eigenvalues --    0.22029   0.22668   0.22974   0.23382   0.23676
 Alpha virt. eigenvalues --    0.24009   0.24420   0.24516   0.24648   0.24845
 Alpha virt. eigenvalues --    0.25060   0.25437   0.25611   0.25907   0.25972
 Alpha virt. eigenvalues --    0.26389   0.26793   0.27114   0.27371   0.27688
 Alpha virt. eigenvalues --    0.27943   0.28006   0.28140   0.28751   0.28882
 Alpha virt. eigenvalues --    0.28970   0.29034   0.29377   0.29485   0.29668
 Alpha virt. eigenvalues --    0.30066   0.30219   0.30552   0.30714   0.30865
 Alpha virt. eigenvalues --    0.31362   0.31379   0.31634   0.31849   0.31938
 Alpha virt. eigenvalues --    0.32060   0.32537   0.32882   0.33188   0.33510
 Alpha virt. eigenvalues --    0.33588   0.33841   0.34005   0.34176   0.34459
 Alpha virt. eigenvalues --    0.34620   0.34759   0.34891   0.35128   0.35351
 Alpha virt. eigenvalues --    0.35729   0.35896   0.36106   0.36610   0.36819
 Alpha virt. eigenvalues --    0.37200   0.37405   0.37438   0.37990   0.38268
 Alpha virt. eigenvalues --    0.38532   0.38787   0.39058   0.39115   0.39485
 Alpha virt. eigenvalues --    0.39536   0.39909   0.40120   0.40412   0.40532
 Alpha virt. eigenvalues --    0.40858   0.41304   0.41471   0.41719   0.41855
 Alpha virt. eigenvalues --    0.41922   0.42131   0.42561   0.42703   0.42850
 Alpha virt. eigenvalues --    0.43230   0.43363   0.43536   0.43613   0.43788
 Alpha virt. eigenvalues --    0.44256   0.44477   0.44666   0.44717   0.44905
 Alpha virt. eigenvalues --    0.44999   0.45390   0.45519   0.45791   0.45884
 Alpha virt. eigenvalues --    0.46050   0.46309   0.46390   0.46615   0.46857
 Alpha virt. eigenvalues --    0.47128   0.47559   0.47753   0.48008   0.48136
 Alpha virt. eigenvalues --    0.48406   0.48743   0.49061   0.49221   0.49353
 Alpha virt. eigenvalues --    0.49492   0.50133   0.50211   0.50418   0.50485
 Alpha virt. eigenvalues --    0.50767   0.51055   0.51371   0.51623   0.51928
 Alpha virt. eigenvalues --    0.52137   0.52229   0.52648   0.53212   0.53413
 Alpha virt. eigenvalues --    0.53577   0.53682   0.54105   0.54316   0.54474
 Alpha virt. eigenvalues --    0.54885   0.55049   0.55120   0.55570   0.56082
 Alpha virt. eigenvalues --    0.56287   0.56381   0.56695   0.57053   0.57332
 Alpha virt. eigenvalues --    0.58010   0.58408   0.58679   0.58932   0.59265
 Alpha virt. eigenvalues --    0.59535   0.59755   0.60166   0.60368   0.60789
 Alpha virt. eigenvalues --    0.60961   0.61173   0.61304   0.61533   0.61743
 Alpha virt. eigenvalues --    0.61957   0.62178   0.62847   0.63040   0.63132
 Alpha virt. eigenvalues --    0.63583   0.63956   0.64026   0.64553   0.64743
 Alpha virt. eigenvalues --    0.65365   0.65660   0.65943   0.66587   0.66909
 Alpha virt. eigenvalues --    0.67273   0.67426   0.67961   0.68558   0.68767
 Alpha virt. eigenvalues --    0.69422   0.69666   0.70338   0.70564   0.71047
 Alpha virt. eigenvalues --    0.71174   0.72169   0.72340   0.72511   0.72742
 Alpha virt. eigenvalues --    0.72878   0.73266   0.73477   0.73668   0.74122
 Alpha virt. eigenvalues --    0.74180   0.74336   0.74927   0.75344   0.75903
 Alpha virt. eigenvalues --    0.76155   0.76201   0.76669   0.76834   0.77278
 Alpha virt. eigenvalues --    0.77589   0.78011   0.78692   0.78966   0.79204
 Alpha virt. eigenvalues --    0.79521   0.79857   0.80513   0.80805   0.81439
 Alpha virt. eigenvalues --    0.81974   0.82428   0.82583   0.83253   0.83537
 Alpha virt. eigenvalues --    0.83816   0.84215   0.85062   0.85569   0.85735
 Alpha virt. eigenvalues --    0.86019   0.87418   0.87864   0.88050   0.88812
 Alpha virt. eigenvalues --    0.89001   0.89514   0.89694   0.90491   0.91128
 Alpha virt. eigenvalues --    0.91752   0.92237   0.92615   0.92864   0.93861
 Alpha virt. eigenvalues --    0.93957   0.94280   0.94834   0.95389   0.95936
 Alpha virt. eigenvalues --    0.97256   0.98212   0.98526   0.98878   0.99556
 Alpha virt. eigenvalues --    1.01436   1.01889   1.02165   1.09907   1.18562
 Alpha virt. eigenvalues --    1.18915   1.19884   1.20613   1.21617   1.22926
 Alpha virt. eigenvalues --    1.24484   1.24803   1.25591   1.25782   1.26089
 Alpha virt. eigenvalues --    1.26517   1.26963   1.27219   1.27447   1.27867
 Alpha virt. eigenvalues --    1.27975   1.28223   1.28513   1.28740   1.29025
 Alpha virt. eigenvalues --    1.29620   1.30097   1.30307   1.30685   1.30958
 Alpha virt. eigenvalues --    1.31549   1.31622   1.32460   1.32746   1.32991
 Alpha virt. eigenvalues --    1.33263   1.33612   1.34070   1.34572   1.35161
 Alpha virt. eigenvalues --    1.35345   1.35760   1.36377   1.36891   1.37017
 Alpha virt. eigenvalues --    1.37116   1.37488   1.38176   1.38707   1.38834
 Alpha virt. eigenvalues --    1.39027   1.39450   1.39758   1.40263   1.40718
 Alpha virt. eigenvalues --    1.40919   1.41080   1.41425   1.41725   1.42461
 Alpha virt. eigenvalues --    1.42692   1.43267   1.43443   1.43454   1.43865
 Alpha virt. eigenvalues --    1.44185   1.44584   1.45012   1.45493   1.45553
 Alpha virt. eigenvalues --    1.45889   1.46058   1.46222   1.46504   1.46665
 Alpha virt. eigenvalues --    1.46759   1.46899   1.47264   1.47521   1.47611
 Alpha virt. eigenvalues --    1.48120   1.48585   1.48613   1.48736   1.48960
 Alpha virt. eigenvalues --    1.49400   1.50068   1.50270   1.50718   1.50924
 Alpha virt. eigenvalues --    1.51068   1.51274   1.51459   1.51630   1.51959
 Alpha virt. eigenvalues --    1.52553   1.52855   1.53067   1.53140   1.53628
 Alpha virt. eigenvalues --    1.53742   1.53946   1.54452   1.54672   1.54890
 Alpha virt. eigenvalues --    1.55081   1.55271   1.55482   1.55799   1.56080
 Alpha virt. eigenvalues --    1.56163   1.56311   1.56860   1.56912   1.57047
 Alpha virt. eigenvalues --    1.57338   1.57506   1.57786   1.57856   1.58119
 Alpha virt. eigenvalues --    1.58263   1.58469   1.58772   1.59259   1.59268
 Alpha virt. eigenvalues --    1.59613   1.59996   1.60239   1.60595   1.61039
 Alpha virt. eigenvalues --    1.61335   1.61814   1.61913   1.62146   1.62860
 Alpha virt. eigenvalues --    1.63206   1.63470   1.63689   1.64123   1.64550
 Alpha virt. eigenvalues --    1.65332   1.65426   1.65662   1.66265   1.66876
 Alpha virt. eigenvalues --    1.67313   1.67579   1.69195   1.69405   1.70566
 Alpha virt. eigenvalues --    1.70727   1.71452   1.71732   1.72635   1.72928
 Alpha virt. eigenvalues --    1.73614   1.73852   1.74175   1.75066   1.75387
 Alpha virt. eigenvalues --    1.76595   1.77116   1.77304   1.77928   1.78150
 Alpha virt. eigenvalues --    1.78392   1.79187   1.79389   1.79560   1.80053
 Alpha virt. eigenvalues --    1.80126   1.80207   1.80649   1.81128   1.81471
 Alpha virt. eigenvalues --    1.81745   1.82189   1.82268   1.82791   1.83092
 Alpha virt. eigenvalues --    1.83428   1.83635   1.83956   1.84365   1.84499
 Alpha virt. eigenvalues --    1.84588   1.85217   1.85601   1.85920   1.86921
 Alpha virt. eigenvalues --    1.87074   1.87338   1.88120   1.88556   1.88854
 Alpha virt. eigenvalues --    1.89094   1.89570   1.90036   1.90366   1.90550
 Alpha virt. eigenvalues --    1.90963   1.91155   1.91656   1.91886   1.92135
 Alpha virt. eigenvalues --    1.92332   1.92607   1.92874   1.93000   1.93329
 Alpha virt. eigenvalues --    1.94011   1.94355   1.94724   1.94969   1.94987
 Alpha virt. eigenvalues --    1.95382   1.95683   1.96107   1.96501   1.96715
 Alpha virt. eigenvalues --    1.96993   1.97124   1.97587   1.97754   1.98853
 Alpha virt. eigenvalues --    1.99088   2.00068   2.00482   2.01469   2.01701
 Alpha virt. eigenvalues --    2.01955   2.02293   2.02398   2.02854   2.03231
 Alpha virt. eigenvalues --    2.03410   2.03678   2.04238   2.04697   2.04804
 Alpha virt. eigenvalues --    2.05755   2.06230   2.07009   2.07569   2.07943
 Alpha virt. eigenvalues --    2.08619   2.09624   2.09899   2.10631   2.11049
 Alpha virt. eigenvalues --    2.11406   2.12185   2.12860   2.13333   2.14306
 Alpha virt. eigenvalues --    2.16292   2.16627   2.17770   2.18343   2.19135
 Alpha virt. eigenvalues --    2.19432   2.20248   2.20877   2.21055   2.21725
 Alpha virt. eigenvalues --    2.22021   2.22521   2.23056   2.23492   2.23992
 Alpha virt. eigenvalues --    2.24344   2.24473   2.24767   2.24863   2.26977
 Alpha virt. eigenvalues --    2.27189   2.27730   2.28109   2.28720   2.28964
 Alpha virt. eigenvalues --    2.29928   2.30660   2.31892   2.31981   2.32372
 Alpha virt. eigenvalues --    2.32949   2.33016   2.33164   2.33658   2.33743
 Alpha virt. eigenvalues --    2.34003   2.34083   2.34481   2.34764   2.35112
 Alpha virt. eigenvalues --    2.35252   2.35429   2.35859   2.36129   2.36627
 Alpha virt. eigenvalues --    2.37094   2.37192   2.37230   2.37448   2.37809
 Alpha virt. eigenvalues --    2.37938   2.38734   2.38964   2.39218   2.39521
 Alpha virt. eigenvalues --    2.39753   2.39900   2.40142   2.40439   2.40722
 Alpha virt. eigenvalues --    2.41037   2.41167   2.41353   2.42389   2.43795
 Alpha virt. eigenvalues --    2.44867   2.45270   2.46106   2.47281   2.47395
 Alpha virt. eigenvalues --    2.47800   2.48203   2.48797   2.49340   2.49979
 Alpha virt. eigenvalues --    2.50921   2.51252   2.52027   2.52714   2.53627
 Alpha virt. eigenvalues --    2.54332   2.54773   2.56585   2.56768   2.57704
 Alpha virt. eigenvalues --    2.58143   2.58432   2.59390   2.59543   2.59682
 Alpha virt. eigenvalues --    2.60252   2.60499   2.60721   2.60780   2.61787
 Alpha virt. eigenvalues --    2.62486   2.62642   2.62689   2.63313   2.63373
 Alpha virt. eigenvalues --    2.63716   2.64342   2.64690   2.64998   2.66329
 Alpha virt. eigenvalues --    2.66655   2.66858   2.67284   2.67616   2.68135
 Alpha virt. eigenvalues --    2.69040   2.69678   2.70051   2.70474   2.71503
 Alpha virt. eigenvalues --    2.72253   2.73153   2.73398   2.73959   2.74575
 Alpha virt. eigenvalues --    2.75470   2.76531   2.77344   2.78281   2.78855
 Alpha virt. eigenvalues --    2.79804   2.80145   2.80381   2.80974   2.81454
 Alpha virt. eigenvalues --    2.82250   2.83259   2.83773   2.84709   2.86253
 Alpha virt. eigenvalues --    2.86690   2.86894   2.87545   2.88005   2.88910
 Alpha virt. eigenvalues --    2.89352   2.92215   2.92353   2.93148   2.93451
 Alpha virt. eigenvalues --    2.93909   2.94550   2.94975   2.95333   2.95943
 Alpha virt. eigenvalues --    2.96546   2.96841   2.96990   2.98597   2.98680
 Alpha virt. eigenvalues --    2.98870   2.99504   3.00207   3.00510   3.01197
 Alpha virt. eigenvalues --    3.01275   3.01581   3.03073   3.03625   3.04829
 Alpha virt. eigenvalues --    3.05876   3.06391   3.06499   3.07384   3.08092
 Alpha virt. eigenvalues --    3.08714   3.09368   3.09898   3.10697   3.11406
 Alpha virt. eigenvalues --    3.11590   3.12422   3.13802   3.14005   3.15255
 Alpha virt. eigenvalues --    3.16084   3.16646   3.16823   3.17340   3.17591
 Alpha virt. eigenvalues --    3.18776   3.19197   3.19653   3.20613   3.21066
 Alpha virt. eigenvalues --    3.21214   3.21754   3.22131   3.22957   3.24521
 Alpha virt. eigenvalues --    3.24695   3.25263   3.25563   3.25594   3.26328
 Alpha virt. eigenvalues --    3.26623   3.27482   3.28194   3.30440   3.31138
 Alpha virt. eigenvalues --    3.31877   3.32224   3.32886   3.33513   3.33728
 Alpha virt. eigenvalues --    3.35563   3.36263   3.37048   3.37649   3.37858
 Alpha virt. eigenvalues --    3.39177   3.41349   3.42104   3.43965   3.47116
 Alpha virt. eigenvalues --    3.47509   3.52064   3.53077   3.53912   3.56034
 Alpha virt. eigenvalues --    3.56921   3.57581   3.58518   3.59040   3.60113
 Alpha virt. eigenvalues --    3.62811   3.69891   3.70192   3.84700   3.86064
 Alpha virt. eigenvalues --    3.86524   3.87295   4.05884   4.07164   4.07883
 Alpha virt. eigenvalues --    4.08878   4.30776   4.31605   4.32756   4.33058
 Alpha virt. eigenvalues --   18.72917  19.07154  21.19280  21.23443  21.24510
 Alpha virt. eigenvalues --   21.25432  21.26913  21.28163  21.68080  21.68575
 Alpha virt. eigenvalues --   21.70618  21.71701  21.73945  21.75744  21.75857
 Alpha virt. eigenvalues --   21.76350  21.81211  21.84538  21.85083  21.85581
 Alpha virt. eigenvalues --   21.91635  21.94813  21.95055  21.96692  21.97320
 Alpha virt. eigenvalues --   21.97854  21.99538  22.00724  22.01945  22.02477
 Alpha virt. eigenvalues --   22.03794  22.06398  22.08887  22.11789  22.14632
 Alpha virt. eigenvalues --   22.17290  22.17956  22.20337  32.01821  32.07318
 Alpha virt. eigenvalues --   43.21553  43.23258  43.23663  43.27284
          Condensed to atoms (all electrons):
 Mulliken charges:
               1
     1  C   -0.306398
     2  C   -0.070109
     3  S   -0.083843
     4  C   -0.274960
     5  C    0.114579
     6  C   -0.278556
     7  C    0.016364
     8  C   -0.060106
     9  H    0.137159
    10  C   -0.144364
    11  C   -0.044869
    12  C   -0.092685
    13  C    0.019885
    14  H    0.229483
    15  H    0.117702
    16  H    0.154584
    17  C   -0.174612
    18  H    0.129414
    19  H    0.114116
    20  H    0.111366
    21  H    0.137729
    22  S    0.192563
    23  N    0.039192
    24  C   -0.293845
    25  C    0.041660
    26  C   -0.023244
    27  C   -0.216469
    28  C   -0.176773
    29  C    0.138796
    30  H    0.125474
    31  H    0.123491
    32  H    0.119001
    33  H    0.106734
    34  C   -0.090664
    35  C   -0.099163
    36  C   -0.103841
    37  C   -0.143873
    38  C   -0.185458
    39  C    0.090935
    40  H    0.117126
    41  H    0.177313
    42  H    0.099483
    43  H    0.161788
    44  N    0.014151
    45  C   -0.080792
    46  C   -0.101258
    47  C   -0.083760
    48  C   -0.169226
    49  C   -0.197742
    50  C    0.114616
    51  H    0.138157
    52  H    0.139748
    53  H    0.099604
    54  H    0.109276
    55  C   -0.100912
    56  C   -0.067385
    57  C   -0.134363
    58  C   -0.200836
    59  C   -0.137796
    60  C    0.104152
    61  H    0.129079
    62  H    0.144147
    63  H    0.107475
    64  H    0.122666
    65  O   -0.244476
    66  H    0.267383
    67  O   -0.235156
    68  H    0.269915
    69  O   -0.245576
    70  H    0.265593
    71  O   -0.245763
    72  H    0.266974
 Sum of Mulliken charges =  -0.00000
 Mulliken charges with hydrogens summed into heavy atoms:
               1
     1  C   -0.176984
     2  C   -0.070109
     3  S    0.030273
     4  C   -0.274960
     5  C    0.114579
     6  C   -0.278556
     7  C    0.016364
     8  C    0.051260
    10  C    0.085119
    11  C    0.072833
    12  C    0.061899
    13  C    0.019885
    17  C   -0.036883
    22  S    0.329722
    23  N    0.039192
    24  C   -0.293845
    25  C    0.167133
    26  C    0.100246
    27  C   -0.097468
    28  C   -0.070038
    29  C    0.138796
    34  C   -0.090664
    35  C    0.017963
    36  C    0.073472
    37  C   -0.044389
    38  C   -0.023670
    39  C    0.090935
    44  N    0.014151
    45  C   -0.080792
    46  C    0.036899
    47  C    0.055988
    48  C   -0.069622
    49  C   -0.088466
    50  C    0.114616
    55  C   -0.100912
    56  C    0.061694
    57  C    0.009784
    58  C   -0.093361
    59  C   -0.015130
    60  C    0.104152
    65  O    0.022906
    67  O    0.034759
    69  O    0.020017
    71  O    0.021211
 Electronic spatial extent (au):  <R**2>=          34720.1842
 Charge=             -0.0000 electrons
 Dipole moment (field-independent basis, Debye):
    X=              6.6238    Y=              0.7395    Z=              4.9090  Tot=              8.2777
 Quadrupole moment (field-independent basis, Debye-Ang):
   XX=           -224.9415   YY=           -245.1633   ZZ=           -267.5813
   XY=             10.5184   XZ=              1.1274   YZ=             -6.1242
 Traceless Quadrupole moment (field-independent basis, Debye-Ang):
   XX=             20.9538   YY=              0.7321   ZZ=            -21.6859
   XY=             10.5184   XZ=              1.1274   YZ=             -6.1242
 Octapole moment (field-independent basis, Debye-Ang**2):
  XXX=            220.1724  YYY=              4.6628  ZZZ=             13.5218  XYY=             99.6440
  XXY=             -2.9204  XXZ=            126.8577  XZZ=              7.5663  YZZ=            -31.5306
  YYZ=            113.5709  XYZ=            -12.6329
 Hexadecapole moment (field-independent basis, Debye-Ang**3):
 XXXX=         -27258.4831 YYYY=         -10460.2303 ZZZZ=          -1842.5840 XXXY=           1217.9457
 XXXZ=            -90.1447 YYYX=           -112.9104 YYYZ=           -301.9249 ZZZX=             31.3911
 ZZZY=            -70.9776 XXYY=          -8147.5904 XXZZ=          -6115.0520 YYZZ=          -2123.5980
 XXYZ=           -100.6177 YYXZ=             20.7485 ZZXY=            -78.4558
 N-N= 5.277723665284D+03 E-N=-1.663735666336D+04  KE= 2.584458876705D+03
 No NMR shielding tensors so no spin-rotation constants.
 Leave Link  601 at Thu Jan 21 12:38:30 2021, MaxMem=  4026531840 cpu:              10.0 elap:               2.1
 (Enter /opt/ohpc/pub/libs/gaussian/g16-A.03/sandybridge/g16/l9999.exe)

 Test job not archived.
 1\1\GINC-CASCADEB028\SP\RLC-wHPBE\TZVP\C36H28N2O4S2\RDU230\21-Jan-2021
 \0\\#P LC-wHPBE/TZVP iop(3/107=0156200000, 3/108=0156200000) scf=(conv
 er=6,fermi,ndamp=35,noincfock,novaracc,vshift=500,xqc)\\H28 C36 S2 N2 
 O4\\0,1\C,0,-1.748928,-0.489907,0.452051\C,0,-0.626174,-1.279763,0.152
 57\S,0,1.952753,-5.388628,0.812439\C,0,-0.882312,-2.170069,-0.820725\C
 ,0,1.932708,-2.897266,-0.476539\C,0,2.566514,-3.761438,0.41855\C,0,-2.
 975354,-0.631957,-0.195801\C,0,-2.049066,-2.386893,-1.545961\H,0,0.246
 316,-4.468801,-0.586079\C,0,2.384401,-1.613824,-0.700024\C,0,3.673888,
 -3.269502,1.095477\C,0,4.135912,-1.984797,0.893895\C,0,3.494497,-1.125
 461,-0.002977\H,0,1.857267,-0.971131,-1.395345\H,0,4.176334,-3.912174,
 1.811785\H,0,4.992977,-1.63215,1.456718\C,0,-3.122467,-1.590215,-1.210
 611\H,0,-1.688273,0.276733,1.226088\H,0,2.539,-6.051116,-0.206249\H,0,
 -2.132551,-3.120151,-2.347153\H,0,-4.068236,-1.688167,-1.734116\S,0,0.
 491419,-3.391365,-1.37893\N,0,3.940024,0.175839,-0.195205\C,0,5.26504,
 0.53915,0.184549\C,0,5.479402,1.520085,1.147894\C,0,6.360048,-0.068673
 ,-0.412912\C,0,6.761446,1.889048,1.505778\C,0,7.649207,0.280692,-0.044
 528\C,0,7.852726,1.26556,0.91321\H,0,4.624132,2.002234,1.612555\H,0,6.
 198832,-0.830082,-1.170918\H,0,6.936355,2.656092,2.253454\H,0,8.499101
 ,-0.206598,-0.518215\C,0,3.067884,1.217797,-0.624973\C,0,3.533169,2.17
 5669,-1.516644\C,0,1.768428,1.324352,-0.133595\C,0,2.72389,3.230889,-1
 .904642\C,0,0.952027,2.363639,-0.537\C,0,1.429133,3.326131,-1.415171\H
 ,0,4.545758,2.102962,-1.902377\H,0,1.364259,0.566763,0.534909\H,0,3.10
 6488,3.978127,-2.597301\H,0,-0.063643,2.437107,-0.162477\N,0,-4.071583
 ,0.199288,0.137893\C,0,-5.379657,-0.330758,0.192504\C,0,-6.464072,0.38
 1862,-0.308117\C,0,-5.615898,-1.583782,0.758482\C,0,-7.748035,-0.13540
 9,-0.237366\C,0,-6.890741,-2.11387,0.808775\C,0,-7.966332,-1.388715,0.
 314728\H,0,-6.301182,1.359246,-0.752201\H,0,-4.779992,-2.148147,1.1609
 2\H,0,-8.582756,0.442294,-0.630527\H,0,-7.071352,-3.090185,1.247847\C,
 0,-3.863071,1.579858,0.373004\C,0,-4.488297,2.228332,1.435995\C,0,-3.0
 28002,2.320518,-0.45569\C,0,-4.288516,3.577498,1.662294\C,0,-2.802155,
 3.666597,-0.218956\C,0,-3.435225,4.300687,0.840523\H,0,-5.141183,1.661
 753,2.093518\H,0,-2.533592,1.828985,-1.288374\H,0,-4.774148,4.081779,2
 .492022\H,0,-2.125658,4.220184,-0.867724\O,0,0.584592,4.343911,-1.7691
 73\H,0,1.03059,4.920168,-2.399784\O,0,9.095256,1.661445,1.308356\H,0,9
 .763222,1.159512,0.827959\O,0,-9.209724,-1.953542,0.400297\H,0,-9.8595
 16,-1.347058,0.028653\O,0,-3.254007,5.627948,1.116747\H,0,-2.609433,5.
 991357,0.499352\\Version=EM64L-G16RevA.03\State=1-A\HF=-2593.9068768\R
 MSD=8.073e-07\Dipole=2.6059991,-0.2909609,-1.9313591\Quadrupole=15.578
 6665,0.5442662,-16.1229327,-7.8201925,-0.8381981,-4.5531559\PG=C01 [X(
 C36H28N2O4S2)]\\@


 NO MATTER HOW THIN YOU SLICE IT, IT'S STILL BALONEY

                                   -- ALFRED E. SMITH
 Job cpu time:       0 days  4 hours 40 minutes 32.2 seconds.
 Elapsed time:       0 days  0 hours 35 minutes 40.2 seconds.
 File lengths (MBytes):  RWF=    356 Int=      0 D2E=      0 Chk=     64 Scr=      8
 Normal termination of Gaussian 16 at Thu Jan 21 12:38:30 2021.
