 Entering Gaussian System, Link 0=g16
 Input=mol_ta_pa_half_tune_n4.gjf
 Output=mol_ta_pa_half_tune_n4.log
 Initial command:
 /opt/ohpc/pub/libs/gaussian/g16-A.03/sandybridge/g16/l1.exe "/mnt/gpfs2_4m/scratch/rdu230/ondemand/projects/init_structures/wtuning/mol_ta_pa_half/tuning_mol_ta_pa_half_ocycle0/Gau-300977.inp" -scrdir="/mnt/gpfs2_4m/scratch/rdu230/ondemand/projects/init_structures/wtuning/mol_ta_pa_half/tuning_mol_ta_pa_half_ocycle0/"
 Entering Link 1 = /opt/ohpc/pub/libs/gaussian/g16-A.03/sandybridge/g16/l1.exe PID=    300978.
  
 Copyright (c) 1988,1990,1992,1993,1995,1998,2003,2009,2016,
            Gaussian, Inc.  All Rights Reserved.
  
 This is part of the Gaussian(R) 16 program.  It is based on
 the Gaussian(R) 09 system (copyright 2009, Gaussian, Inc.),
 the Gaussian(R) 03 system (copyright 2003, Gaussian, Inc.),
 the Gaussian(R) 98 system (copyright 1998, Gaussian, Inc.),
 the Gaussian(R) 94 system (copyright 1995, Gaussian, Inc.),
 the Gaussian 92(TM) system (copyright 1992, Gaussian, Inc.),
 the Gaussian 90(TM) system (copyright 1990, Gaussian, Inc.),
 the Gaussian 88(TM) system (copyright 1988, Gaussian, Inc.),
 the Gaussian 86(TM) system (copyright 1986, Carnegie Mellon
 University), and the Gaussian 82(TM) system (copyright 1983,
 Carnegie Mellon University). Gaussian is a federally registered
 trademark of Gaussian, Inc.
  
 This software contains proprietary and confidential information,
 including trade secrets, belonging to Gaussian, Inc.
  
 This software is provided under written license and may be
 used, copied, transmitted, or stored only in accord with that
 written license.
  
 The following legend is applicable only to US Government
 contracts under FAR:
  
                    RESTRICTED RIGHTS LEGEND
  
 Use, reproduction and disclosure by the US Government is
 subject to restrictions as set forth in subparagraphs (a)
 and (c) of the Commercial Computer Software - Restricted
 Rights clause in FAR 52.227-19.
  
 Gaussian, Inc.
 340 Quinnipiac St., Bldg. 40, Wallingford CT 06492
  
  
 ---------------------------------------------------------------
 Warning -- This program may not be used in any manner that
 competes with the business of Gaussian, Inc. or will provide
 assistance to any competitor of Gaussian, Inc.  The licensee
 of this program is prohibited from giving any competitor of
 Gaussian, Inc. access to this program.  By using this program,
 the user acknowledges that Gaussian, Inc. is engaged in the
 business of creating and licensing software in the field of
 computational chemistry and represents and warrants to the
 licensee that it is not a competitor of Gaussian, Inc. and that
 it will not use this program in any manner prohibited above.
 ---------------------------------------------------------------
  

 Cite this work as:
 Gaussian 16, Revision A.03,
 M. J. Frisch, G. W. Trucks, H. B. Schlegel, G. E. Scuseria, 
 M. A. Robb, J. R. Cheeseman, G. Scalmani, V. Barone, 
 G. A. Petersson, H. Nakatsuji, X. Li, M. Caricato, A. V. Marenich, 
 J. Bloino, B. G. Janesko, R. Gomperts, B. Mennucci, H. P. Hratchian, 
 J. V. Ortiz, A. F. Izmaylov, J. L. Sonnenberg, D. Williams-Young, 
 F. Ding, F. Lipparini, F. Egidi, J. Goings, B. Peng, A. Petrone, 
 T. Henderson, D. Ranasinghe, V. G. Zakrzewski, J. Gao, N. Rega, 
 G. Zheng, W. Liang, M. Hada, M. Ehara, K. Toyota, R. Fukuda, 
 J. Hasegawa, M. Ishida, T. Nakajima, Y. Honda, O. Kitao, H. Nakai, 
 T. Vreven, K. Throssell, J. A. Montgomery, Jr., J. E. Peralta, 
 F. Ogliaro, M. J. Bearpark, J. J. Heyd, E. N. Brothers, K. N. Kudin, 
 V. N. Staroverov, T. A. Keith, R. Kobayashi, J. Normand, 
 K. Raghavachari, A. P. Rendell, J. C. Burant, S. S. Iyengar, 
 J. Tomasi, M. Cossi, J. M. Millam, M. Klene, C. Adamo, R. Cammi, 
 J. W. Ochterski, R. L. Martin, K. Morokuma, O. Farkas, 
 J. B. Foresman, and D. J. Fox, Gaussian, Inc., Wallingford CT, 2016.
 
 ******************************************
 Gaussian 16:  EM64L-G16RevA.03 25-Dec-2016
                18-Jan-2021 
 ******************************************
 %mem=30GB
 %nproc=8
 Will use up to    8 processors via shared memory.
 ----------------------------------------------------------------------
 #P LC-wHPBE/TZVP iop(3/107=0184100000, 3/108=0184100000) scf=(conver=6
 ,fermi,ndamp=35,noincfock,novaracc,vshift=500,xqc)
 ----------------------------------------------------------------------
 1/38=1,172=1/1;
 2/12=2,17=6,18=5,40=1/2;
 3/5=19,7=101,11=2,25=1,30=1,74=-71,107=184100000,108=184100000/1,2,3;
 4//1;
 5/5=100002,6=6,8=3,10=500,13=1,18=-1,22=13,38=1,93=35/2,8;
 6/7=2,8=2,9=2,10=2,28=1/1;
 99/5=1,9=1/99;
 Leave Link    1 at Mon Jan 18 20:36:18 2021, MaxMem=  4026531840 cpu:               1.3 elap:               0.2
 (Enter /opt/ohpc/pub/libs/gaussian/g16-A.03/sandybridge/g16/l101.exe)
 -------------
 H19 C24 S2 N1
 -------------
 Symbolic Z-matrix:
 Charge =  0 Multiplicity = 1
 C                    -3.35205   1.02208   0.90149 
 C                    -4.0156    0.12415   0.07783 
 S                    -3.19362  -0.83387  -1.17621 
 C                    -5.39859  -0.02823   0.20734 
 C                    -0.74911   0.37379  -1.53169 
 C                    -1.47548  -0.56699  -0.81555 
 C                    -4.04152   1.76182   1.84401 
 C                    -6.08095   0.7208    1.15641 
 H                    -7.47594  -0.83508  -0.45879 
 C                     0.60177   0.54717  -1.29919 
 C                    -0.82343  -1.33635   0.13923 
 C                     0.52157  -1.15492   0.38941 
 C                     1.25572  -0.21248  -0.33105 
 H                     1.16025   1.27548  -1.87629 
 H                    -1.38327  -2.07686   0.70081 
 H                     1.01547  -1.75211   1.1476 
 C                    -5.41117   1.6137    1.97089 
 H                    -2.27958   1.14182   0.8006 
 H                    -1.24814   0.96758  -2.29035 
 H                    -3.50323   2.45807   2.47837 
 H                    -7.15427   0.59863   1.26384 
 H                    -5.96243   2.18912   2.70691 
 S                    -6.23822  -1.19299  -0.83581 
 N                     2.62717  -0.03759  -0.08772 
 C                     3.43831  -1.14075   0.27641 
 C                     4.37489  -1.01293   1.2959 
 C                     3.31763  -2.35655  -0.38773 
 C                     5.1794   -2.08431   1.64001 
 C                     4.11287  -3.42876  -0.02576 
 C                     5.04998  -3.29847   0.98615 
 H                     4.47071  -0.06485   1.81445 
 H                     2.59379  -2.45672  -1.18961 
 H                     5.90745  -1.97037   2.43684 
 H                     4.0068   -4.37257  -0.55104 
 H                     5.67733  -4.13911   1.26285 
 C                     3.22452   1.23972  -0.22199 
 C                     4.44622   1.37675  -0.87125 
 C                     2.60473   2.36785   0.30463 
 C                     5.03746   2.62211  -0.98624 
 C                     3.19302   3.61222   0.16988 
 C                     4.41329   3.74653  -0.47213 
 H                     4.93191   0.49801  -1.28207 
 H                     1.65616   2.2625    0.82038 
 H                     5.99206   2.71427  -1.4944 
 H                     2.69731   4.48443   0.58406 
 H                     4.876     4.72281  -0.56992 
 
 ITRead=  0  0  0  0  0  0  0  0  0  0  0  0  0  0  0  0  0  0  0  0
 ITRead=  0  0  0  0  0  0  0  0  0  0  0  0  0  0  0  0  0  0  0  0
 ITRead=  0  0  0  0  0  0
 MicOpt= -1 -1 -1 -1 -1 -1 -1 -1 -1 -1 -1 -1 -1 -1 -1 -1 -1 -1 -1 -1
 MicOpt= -1 -1 -1 -1 -1 -1 -1 -1 -1 -1 -1 -1 -1 -1 -1 -1 -1 -1 -1 -1
 MicOpt= -1 -1 -1 -1 -1 -1
 NAtoms=     46 NQM=       46 NQMF=       0 NMMI=      0 NMMIF=      0
                NMic=       0 NMicF=      0.
                    Isotopes and Nuclear Properties:
 (Nuclear quadrupole moments (NQMom) in fm**2, nuclear magnetic moments (NMagM)
  in nuclear magnetons)

  Atom         1           2           3           4           5           6           7           8           9          10
 IAtWgt=          12          12          32          12          12          12          12          12           1          12
 AtmWgt=  12.0000000  12.0000000  31.9720718  12.0000000  12.0000000  12.0000000  12.0000000  12.0000000   1.0078250  12.0000000
 NucSpn=           0           0           0           0           0           0           0           0           1           0
 AtZEff=  -0.0000000  -0.0000000  -0.0000000  -0.0000000  -0.0000000  -0.0000000  -0.0000000  -0.0000000  -0.0000000  -0.0000000
 NQMom=    0.0000000   0.0000000   0.0000000   0.0000000   0.0000000   0.0000000   0.0000000   0.0000000   0.0000000   0.0000000
 NMagM=    0.0000000   0.0000000   0.0000000   0.0000000   0.0000000   0.0000000   0.0000000   0.0000000   2.7928460   0.0000000
 AtZNuc=   6.0000000   6.0000000  16.0000000   6.0000000   6.0000000   6.0000000   6.0000000   6.0000000   1.0000000   6.0000000

  Atom        11          12          13          14          15          16          17          18          19          20
 IAtWgt=          12          12          12           1           1           1          12           1           1           1
 AtmWgt=  12.0000000  12.0000000  12.0000000   1.0078250   1.0078250   1.0078250  12.0000000   1.0078250   1.0078250   1.0078250
 NucSpn=           0           0           0           1           1           1           0           1           1           1
 AtZEff=  -0.0000000  -0.0000000  -0.0000000  -0.0000000  -0.0000000  -0.0000000  -0.0000000  -0.0000000  -0.0000000  -0.0000000
 NQMom=    0.0000000   0.0000000   0.0000000   0.0000000   0.0000000   0.0000000   0.0000000   0.0000000   0.0000000   0.0000000
 NMagM=    0.0000000   0.0000000   0.0000000   2.7928460   2.7928460   2.7928460   0.0000000   2.7928460   2.7928460   2.7928460
 AtZNuc=   6.0000000   6.0000000   6.0000000   1.0000000   1.0000000   1.0000000   6.0000000   1.0000000   1.0000000   1.0000000

  Atom        21          22          23          24          25          26          27          28          29          30
 IAtWgt=           1           1          32          14          12          12          12          12          12          12
 AtmWgt=   1.0078250   1.0078250  31.9720718  14.0030740  12.0000000  12.0000000  12.0000000  12.0000000  12.0000000  12.0000000
 NucSpn=           1           1           0           2           0           0           0           0           0           0
 AtZEff=  -0.0000000  -0.0000000  -0.0000000  -0.0000000  -0.0000000  -0.0000000  -0.0000000  -0.0000000  -0.0000000  -0.0000000
 NQMom=    0.0000000   0.0000000   0.0000000   2.0440000   0.0000000   0.0000000   0.0000000   0.0000000   0.0000000   0.0000000
 NMagM=    2.7928460   2.7928460   0.0000000   0.4037610   0.0000000   0.0000000   0.0000000   0.0000000   0.0000000   0.0000000
 AtZNuc=   1.0000000   1.0000000  16.0000000   7.0000000   6.0000000   6.0000000   6.0000000   6.0000000   6.0000000   6.0000000

  Atom        31          32          33          34          35          36          37          38          39          40
 IAtWgt=           1           1           1           1           1          12          12          12          12          12
 AtmWgt=   1.0078250   1.0078250   1.0078250   1.0078250   1.0078250  12.0000000  12.0000000  12.0000000  12.0000000  12.0000000
 NucSpn=           1           1           1           1           1           0           0           0           0           0
 AtZEff=  -0.0000000  -0.0000000  -0.0000000  -0.0000000  -0.0000000  -0.0000000  -0.0000000  -0.0000000  -0.0000000  -0.0000000
 NQMom=    0.0000000   0.0000000   0.0000000   0.0000000   0.0000000   0.0000000   0.0000000   0.0000000   0.0000000   0.0000000
 NMagM=    2.7928460   2.7928460   2.7928460   2.7928460   2.7928460   0.0000000   0.0000000   0.0000000   0.0000000   0.0000000
 AtZNuc=   1.0000000   1.0000000   1.0000000   1.0000000   1.0000000   6.0000000   6.0000000   6.0000000   6.0000000   6.0000000

  Atom        41          42          43          44          45          46
 IAtWgt=          12           1           1           1           1           1
 AtmWgt=  12.0000000   1.0078250   1.0078250   1.0078250   1.0078250   1.0078250
 NucSpn=           0           1           1           1           1           1
 AtZEff=  -0.0000000  -0.0000000  -0.0000000  -0.0000000  -0.0000000  -0.0000000
 NQMom=    0.0000000   0.0000000   0.0000000   0.0000000   0.0000000   0.0000000
 NMagM=    0.0000000   2.7928460   2.7928460   2.7928460   2.7928460   2.7928460
 AtZNuc=   6.0000000   1.0000000   1.0000000   1.0000000   1.0000000   1.0000000
 Leave Link  101 at Mon Jan 18 20:36:18 2021, MaxMem=  4026531840 cpu:               0.6 elap:               0.1
 (Enter /opt/ohpc/pub/libs/gaussian/g16-A.03/sandybridge/g16/l202.exe)
                          Input orientation:                          
 ---------------------------------------------------------------------
 Center     Atomic      Atomic             Coordinates (Angstroms)
 Number     Number       Type             X           Y           Z
 ---------------------------------------------------------------------
      1          6           0       -3.352046    1.022081    0.901490
      2          6           0       -4.015603    0.124147    0.077833
      3         16           0       -3.193622   -0.833868   -1.176213
      4          6           0       -5.398593   -0.028228    0.207342
      5          6           0       -0.749106    0.373785   -1.531691
      6          6           0       -1.475477   -0.566990   -0.815552
      7          6           0       -4.041516    1.761821    1.844012
      8          6           0       -6.080951    0.720801    1.156415
      9          1           0       -7.475944   -0.835079   -0.458792
     10          6           0        0.601771    0.547170   -1.299188
     11          6           0       -0.823428   -1.336346    0.139234
     12          6           0        0.521569   -1.154920    0.389409
     13          6           0        1.255724   -0.212476   -0.331046
     14          1           0        1.160253    1.275483   -1.876291
     15          1           0       -1.383265   -2.076857    0.700814
     16          1           0        1.015474   -1.752114    1.147605
     17          6           0       -5.411167    1.613701    1.970885
     18          1           0       -2.279577    1.141824    0.800598
     19          1           0       -1.248138    0.967582   -2.290346
     20          1           0       -3.503227    2.458074    2.478369
     21          1           0       -7.154267    0.598627    1.263844
     22          1           0       -5.962434    2.189124    2.706912
     23         16           0       -6.238224   -1.192989   -0.835805
     24          7           0        2.627173   -0.037586   -0.087724
     25          6           0        3.438312   -1.140752    0.276409
     26          6           0        4.374889   -1.012928    1.295896
     27          6           0        3.317625   -2.356550   -0.387733
     28          6           0        5.179400   -2.084309    1.640010
     29          6           0        4.112866   -3.428755   -0.025756
     30          6           0        5.049979   -3.298472    0.986151
     31          1           0        4.470709   -0.064848    1.814448
     32          1           0        2.593785   -2.456724   -1.189607
     33          1           0        5.907450   -1.970366    2.436839
     34          1           0        4.006805   -4.372570   -0.551042
     35          1           0        5.677330   -4.139106    1.262850
     36          6           0        3.224517    1.239724   -0.221989
     37          6           0        4.446224    1.376745   -0.871250
     38          6           0        2.604731    2.367846    0.304633
     39          6           0        5.037460    2.622109   -0.986244
     40          6           0        3.193018    3.612223    0.169883
     41          6           0        4.413292    3.746533   -0.472133
     42          1           0        4.931907    0.498005   -1.282066
     43          1           0        1.656156    2.262505    0.820378
     44          1           0        5.992055    2.714270   -1.494403
     45          1           0        2.697309    4.484427    0.584059
     46          1           0        4.876004    4.722810   -0.569917
 ---------------------------------------------------------------------
                    Distance matrix (angstroms):
                    1          2          3          4          5
     1  C    0.000000
     2  C    1.387445   0.000000
     3  S    2.790429   1.779347   0.000000
     4  C    2.402779   1.397373   2.724918   0.000000
     5  C    3.621596   3.650053   2.749627   4.980319   0.000000
     6  C    2.999148   2.779937   1.775760   4.089916   1.387634
     7  C    1.382365   2.408742   4.071644   2.779320   4.915484
     8  C    2.757296   2.405202   4.024279   1.388307   5.981213
     9  H    4.722917   3.630708   4.342001   2.325969   6.918296
    10  C    4.549856   4.836867   4.040717   6.213299   1.381662
    11  C    3.540780   3.510953   2.756938   4.758986   2.392083
    12  C    4.472857   4.724301   4.044365   6.029171   2.764449
    13  C    4.926948   5.297866   4.571336   6.678603   2.409272
    14  H    5.304821   5.650988   4.888323   7.004259   2.139500
    15  H    3.676926   3.487367   2.888883   4.534672   3.375186
    16  H    5.179958   5.475080   4.894874   6.707916   3.848612
    17  C    2.394494   2.783885   4.562053   2.409600   5.961564
    18  H    1.083839   2.138187   2.940513   3.383672   2.893406
    19  H    3.823247   3.738785   2.876008   4.945337   1.084982
    20  H    2.138102   3.387081   4.928357   3.864152   5.292450
    21  H    3.842850   3.388652   4.867507   2.142787   6.992257
    22  H    3.381666   3.868635   5.646544   3.388571   6.959885
    23  S    4.031718   2.740370   3.084550   1.774769   5.750605
    24  N    6.152438   6.646807   5.974992   8.031194   3.695068
    25  C    7.153848   7.563085   6.796090   8.906928   4.805988
    26  C    8.000146   8.554354   7.964028   9.883093   6.014445
    27  C    7.586946   7.755440   6.733246   9.041441   5.030077
    28  C    9.109371   9.584662   8.922007  10.870784   7.158847
    29  C    8.740403   8.871632   7.838479  10.103750   6.353418
    30  C    9.448194   9.732633   8.871699  10.976051   7.311251
    31  H    7.950497   8.664239   8.263015   9.999363   6.215747
    32  H    7.199144   7.207726   6.010651   8.469189   4.393600
    33  H    9.851411  10.412438   9.857752  11.686281   8.096543
    34  H    9.239307   9.218187   8.047323  10.387972   6.790305
    35  H   10.406636  10.655165   9.775859  11.861260   8.335150
    36  C    6.675384   7.331694   6.811963   8.726400   4.272569
    37  C    8.005086   8.606525   7.959087  10.002886   5.332313
    38  C    6.136001   6.993886   6.787104   8.354869   4.312376
    39  C    8.746853   9.451456   8.929198  10.833288   6.231919
    40  C    7.076860   8.008706   7.897396   9.331134   5.378027
    41  C    8.343258   9.190779   8.907353  10.534875   6.256872
    42  H    8.582916   9.057982   8.234641  10.450574   5.687851
    43  H    5.160166   6.106783   6.090505   7.442631   3.858079
    44  H    9.793673  10.456284   9.852268  11.839092   7.136001
    45  H    6.977342   8.020692   8.129323   9.276292   5.766416
    46  H    9.141184  10.031349   9.816472  11.346534   7.175018
                    6          7          8          9         10
     6  C    0.000000
     7  C    4.368203   0.000000
     8  C    5.172760   2.390775   0.000000
     9  H    6.017039   4.882836   2.641148   0.000000
    10  C    2.406287   5.737177   7.121721   8.238104   0.000000
    11  C    1.388774   4.781318   5.736555   6.698125   2.765481
    12  C    2.405366   5.607583   6.906511   8.048724   2.398938
    13  C    2.796406   6.057184   7.543895   8.754769   1.393562
    14  H    3.386288   6.413703   7.870198   9.002648   1.084154
    15  H    2.141861   4.807146   5.486594   6.325143   3.850441
    16  H    3.385756   6.197247   7.514961   8.690549   3.382995
    17  C    5.292381   1.383467   1.381753   4.020343   6.927214
    18  H    2.485672   2.139518   3.841134   5.700565   3.614537
    19  H    2.140470   5.052395   5.941140   6.737191   2.140398
    20  H    4.910468   1.084865   3.377920   5.937529   5.896821
    21  H    6.158832   3.373253   1.085576   2.264170   8.168715
    22  H    6.335353   2.148746   2.138705   4.632299   7.863437
    23  S    4.803753   4.553883   2.766996   1.342456   7.073076
    24  N    4.200207   7.172230   8.829182  10.141334   2.431427
    25  C    5.066251   8.174970   9.739413  10.943260   3.657534
    26  C    6.235692   8.878938  10.599522  11.981352   4.837849
    27  C    5.134139   8.723452  10.009381  10.900507   4.078995
    28  C    7.253925   9.992979  11.614560  12.888882   6.043033
    29  C    6.327958   9.845408  11.069338  11.883400   5.455034
    30  C    7.299911  10.440200  11.835588  12.847370   6.308589
    31  H    6.521210   8.706065  10.601310  12.185376   5.003796
    32  H    4.502211   8.427703   9.531607  10.225618   3.606038
    33  H    8.188719  10.642490  12.353284  13.740043   6.960324
    34  H    6.678909  10.399159  11.428940  12.015651   6.029745
    35  H    8.260897  11.384843  12.723490  13.670745   7.367939
    36  C    5.070155   7.572066   9.421306  10.902328   2.918696
    37  C    6.232796   8.919790  10.740722  12.132616   3.956153
    38  C    5.149386   6.849055   8.881405  10.604789   3.146260
    39  C    7.253815   9.548730  11.481508  12.992907   4.906999
    40  C    6.342850   7.652789   9.764224  11.575858   4.274024
    41  C    7.307668   8.988180  11.042480  12.741479   5.044565
    42  H    6.512021   9.586027  11.281794  12.506385   4.330449
    43  H    4.526526   5.810506   7.896366   9.727618   2.923467
    44  H    8.184836  10.617190  12.520313  13.966294   5.812882
    45  H    6.699841   7.376437   9.568193  11.527348   4.841476
    46  H    8.269440   9.701375  11.791996  13.545224   6.019707
                   11         12         13         14         15
    11  C    0.000000
    12  C    1.380043   0.000000
    13  C    2.409797   1.395077   0.000000
    14  H    3.849543   3.383515   2.147305   0.000000
    15  H    1.084964   2.139003   3.391890   4.934485   0.000000
    16  H    2.138045   1.084179   2.148165   4.281501   2.461509
    17  C    5.753701   6.735257   7.285688   7.622251   5.608680
    18  H    2.949423   3.645618   3.951342   4.360737   3.342640
    19  H    3.375103   3.849411   3.391271   2.463045   4.270118
    20  H    5.201009   5.797971   6.137774   6.489193   5.312207
    21  H    6.714789   7.921996   8.598227   8.913463   6.385897
    22  H    6.740274   7.654786   8.191378   8.518988   6.572048
    23  S    5.503750   6.870036   7.574658   7.868509   5.168467
    24  N    3.693905   2.430979   1.403804   2.659883   4.567716
    25  C    4.268431   2.918965   2.448344   3.957507   4.929910
    26  C    5.335257   3.961055   3.607888   5.062952   5.885780
    27  C    4.297305   3.140986   2.975181   4.479031   4.833377
    28  C    6.232634   4.911533   4.773264   6.309209   6.629534
    29  C    5.363991   4.270843   4.312878   5.854251   5.706399
    30  C    6.250129   5.045534   5.065052   6.651662   6.554418
    31  H    5.696572   4.337591   3.867954   5.135870   6.289465
    32  H    3.833851   2.912398   2.750306   4.056589   4.419832
    33  H    7.140426   5.819333   5.691214   7.188498   7.495308
    34  H    5.746850   4.835762   4.992317   6.462170   5.990851
    35  H    7.167833   6.020809   6.124502   7.718547   7.377043
    36  C    4.811702   3.662520   2.448862   2.645596   5.751776
    37  C    6.012585   4.837510   3.605098   3.437727   6.955695
    38  C    5.049819   4.093486   2.980263   2.834820   5.984685
    39  C    7.161430   6.045795   4.771340   4.199800   8.133398
    40  C    6.373469   5.469048   4.316522   3.712050   7.320511
    41  C    7.323433   6.317595   5.065954   4.319723   8.299864
    42  H    6.205547   4.997707   3.863100   3.896530   7.102332
    43  H    4.423124   3.626543   2.758923   2.914130   5.299287
    44  H    8.094879   6.960287   5.687888   5.055913   9.064724
    45  H    6.817247   6.047642   4.997648   4.325874   7.727559
    46  H    8.348640   7.377609   6.125401   5.234260   9.328916
                   16         17         18         19         20
    16  H    0.000000
    17  C    7.301248   0.000000
    18  H    4.399165   3.376255   0.000000
    19  H    4.933578   5.992192   3.263152   0.000000
    20  H    6.317854   2.147264   2.458607   5.481572   0.000000
    21  H    8.502009   2.137447   4.926689   6.902953   4.273489
    22  H    8.164312   1.084778   4.277184   6.977775   2.484404
    23  S    7.540734   4.054509   4.878530   5.628918   5.638636
    24  N    2.657671   8.460469   5.124092   4.569457   7.098941
    25  C    2.646297   9.421865   6.178930   5.744225   8.123124
    26  C    3.442972  10.154885   7.012146   6.957153   8.689696
    27  C    2.832403   9.875109   6.706670   5.959529   8.827183
    28  C    4.206078  11.222516   8.169999   8.128652   9.834841
    29  C    3.712376  10.959934   7.901669   7.293594   9.946370
    30  C    4.323716  11.598910   8.571642   8.282568  10.417383
    31  H    3.902588  10.024643   6.931833   7.114805   8.389850
    32  H    2.906906   9.520311   6.376529   5.262877   8.647707
    33  H    5.063713  11.881656   8.910130   9.065333  10.400656
    34  H    4.324379  11.440881   8.470777   7.691348  10.594131
    35  H    5.238694  12.512029   9.561081   9.309435  11.370264
    36  C    3.963175   8.917600   5.599136   4.935261   7.351112
    37  C    5.063159  10.261678   6.934455   5.882772   8.693848
    38  C    4.495599   8.221907   5.060195   4.851727   6.483858
    39  C    6.313756  10.905746   7.676137   6.629245   9.218123
    40  C    5.871435   9.014971   6.037381   5.724572   7.176410
    41  C    6.663620  10.345883   7.293754   6.563555   8.546161
    42  H    5.128819  10.899800   7.533757   6.279338   9.441092
    43  H    4.078568   7.189692   4.092226   4.448410   5.422768
    44  H    7.189934  11.968832   8.726942   7.490316  10.296064
    45  H    6.483872   8.712734   5.999106   6.016391   6.792729
    46  H    7.731637  11.043012   8.118135   7.386930   9.199597
                   21         22         23         24         25
    21  H    0.000000
    22  H    2.456134   0.000000
    23  S    2.908186   4.905669   0.000000
    24  N    9.894851   9.303202   8.971613   0.000000
    25  C   10.779759  10.264962   9.740385   1.416868   0.000000
    26  C   11.641288  10.913494  10.826576   2.433148   1.390277
    27  C   11.005512  10.787005   9.636851   2.438098   1.390617
    28  C   12.627707  11.980859  11.716921   3.699730   2.404391
    29  C   12.034582  11.854944  10.620729   3.702857   2.404430
    30  C   12.814371  12.423686  11.626526   4.201973   2.785132
    31  H   11.656905  10.711086  11.089535   2.649080   2.142190
    32  H   10.506146  10.486927   8.928974   2.658475   2.143411
    33  H   13.363536  12.580479  12.602853   4.568290   3.384134
    34  H   12.352171  12.371573  10.730864   4.572760   3.384155
    35  H   13.678304  13.327262  12.452485   5.286774   3.869935
    36  C   10.504183   9.689164   9.789705   1.416463   2.441470
    37  C   11.820977  11.036456  10.989186   2.433761   2.944622
    38  C    9.964350   8.899393   9.600937   2.437325   3.606371
    39  C   12.561671  11.611397  11.904564   3.700108   4.279099
    40  C   10.832581   9.606458  10.632488   3.702384   4.760492
    41  C   12.113272  10.963008  11.746741   4.202089   5.039490
    42  H   12.351817  11.724269  11.306212   2.650492   2.710202
    43  H    8.977121   7.849032   8.775227   2.656679   3.879967
    44  H   13.598149  12.682138  12.856133   4.568795   4.951623
    45  H   10.612026   9.206849  10.681424   4.572178   5.682110
    46  H   12.849085  11.602970  12.593389   5.286882   6.096276
                   26         27         28         29         30
    26  C    0.000000
    27  C    2.399528   0.000000
    28  C    1.383297   2.766236   0.000000
    29  C    2.766160   1.383134   2.391612   0.000000
    30  C    2.403206   2.403295   1.385090   1.385320   0.000000
    31  H    1.084866   3.380991   2.147299   3.851009   3.387913
    32  H    3.381509   1.084888   3.851082   2.146392   3.387529
    33  H    2.137097   3.851563   1.085346   3.378136   2.145604
    34  H    3.851475   2.136814   3.378139   1.085339   2.145894
    35  H    3.386803   3.386759   2.147644   2.147708   1.084803
    36  C    2.949877   3.601295   4.282266   4.756298   5.038565
    37  C    3.226786   3.930015   4.338533   4.890687   5.066765
    38  C    3.942803   4.827785   5.313552   5.998684   6.208934
    39  C    4.342886   5.301235   5.391449   6.195996   6.240495
    40  C    4.904768   5.996058   6.209466   7.103504   7.202243
    41  C    5.077388   6.201228   6.248743   7.195434   7.222469
    42  H    3.039585   3.399150   3.907445   4.203402   4.424024
    43  H    4.283233   5.055263   5.655072   6.256341   6.516900
    44  H    4.928793   5.838708   5.788896   6.589767   6.572193
    45  H    5.791537   6.937445   7.100993   8.061893   8.140654
    46  H    6.052360   7.251143   7.163288   8.205273   8.172673
                   31         32         33         34         35
    31  H    0.000000
    32  H    4.274139   0.000000
    33  H    2.466292   4.936399   0.000000
    34  H    4.936316   2.464722   4.279073   0.000000
    35  H    4.284831   4.284064   2.476820   2.476967   0.000000
    36  C    2.720658   3.872704   4.957033   5.676099   6.095314
    37  C    3.048239   4.269469   4.927655   5.774967   6.041077
    38  C    3.417516   5.050678   5.854429   6.937665   7.259440
    39  C    3.922349   5.639809   5.793549   7.083586   7.154152
    40  C    4.225866   6.248153   6.608520   8.058468   8.212763
    41  C    4.445039   6.504289   6.586164   8.129655   8.172592
    42  H    3.180866   3.769056   4.568894   5.011258   5.341821
    43  H    3.785030   5.214433   6.213183   7.171511   7.572730
    44  H    4.581101   6.195185   6.116178   7.419869   7.393934
    45  H    5.035346   7.164927   7.443262   9.024945   9.149131
    46  H    5.363873   7.558985   7.409660   9.136838   9.084862
                   36         37         38         39         40
    36  C    0.000000
    37  C    1.390281   0.000000
    38  C    1.390728   2.399183   0.000000
    39  C    2.404545   1.383371   2.765716   0.000000
    40  C    2.404851   2.766197   1.383009   2.391427   0.000000
    41  C    2.785651   2.403388   2.403130   1.385000   1.385385
    42  H    2.142216   1.084823   3.380779   2.147200   3.851006
    43  H    2.142981   3.380925   1.084843   3.850508   2.146352
    44  H    3.384168   2.137027   3.851039   1.085344   3.377984
    45  H    3.384636   3.851534   2.136952   3.377926   1.085361
    46  H    3.870446   3.386984   3.386646   2.147636   2.147824
                   41         42         43         44         45
    41  C    0.000000
    42  H    3.387903   0.000000
    43  H    3.387436   4.273672   0.000000
    44  H    2.145483   2.465934   4.935820   0.000000
    45  H    2.145839   4.936336   2.465113   4.278880   0.000000
    46  H    1.084795   4.284771   4.284092   2.476788   2.476933
                   46
    46  H    0.000000
 Stoichiometry    C24H19NS2
 Framework group  C1[X(C24H19NS2)]
 Deg. of freedom   132
 Full point group                 C1      NOp   1
 Largest Abelian subgroup         C1      NOp   1
 Largest concise Abelian subgroup C1      NOp   1
                         Standard orientation:                         
 ---------------------------------------------------------------------
 Center     Atomic      Atomic             Coordinates (Angstroms)
 Number     Number       Type             X           Y           Z
 ---------------------------------------------------------------------
      1          6           0       -3.352046    1.022081    0.901490
      2          6           0       -4.015603    0.124147    0.077833
      3         16           0       -3.193622   -0.833868   -1.176213
      4          6           0       -5.398593   -0.028228    0.207342
      5          6           0       -0.749106    0.373785   -1.531691
      6          6           0       -1.475477   -0.566990   -0.815552
      7          6           0       -4.041516    1.761821    1.844012
      8          6           0       -6.080951    0.720801    1.156415
      9          1           0       -7.475944   -0.835079   -0.458792
     10          6           0        0.601771    0.547170   -1.299188
     11          6           0       -0.823428   -1.336346    0.139234
     12          6           0        0.521569   -1.154920    0.389409
     13          6           0        1.255724   -0.212476   -0.331046
     14          1           0        1.160253    1.275483   -1.876291
     15          1           0       -1.383265   -2.076857    0.700814
     16          1           0        1.015474   -1.752114    1.147605
     17          6           0       -5.411167    1.613701    1.970885
     18          1           0       -2.279577    1.141824    0.800598
     19          1           0       -1.248138    0.967582   -2.290346
     20          1           0       -3.503227    2.458074    2.478369
     21          1           0       -7.154267    0.598627    1.263844
     22          1           0       -5.962434    2.189124    2.706912
     23         16           0       -6.238224   -1.192989   -0.835805
     24          7           0        2.627173   -0.037586   -0.087724
     25          6           0        3.438312   -1.140752    0.276409
     26          6           0        4.374889   -1.012928    1.295896
     27          6           0        3.317625   -2.356550   -0.387733
     28          6           0        5.179400   -2.084309    1.640010
     29          6           0        4.112866   -3.428755   -0.025756
     30          6           0        5.049979   -3.298472    0.986151
     31          1           0        4.470709   -0.064848    1.814448
     32          1           0        2.593785   -2.456724   -1.189607
     33          1           0        5.907450   -1.970366    2.436839
     34          1           0        4.006805   -4.372570   -0.551042
     35          1           0        5.677330   -4.139106    1.262850
     36          6           0        3.224517    1.239724   -0.221989
     37          6           0        4.446224    1.376745   -0.871250
     38          6           0        2.604731    2.367846    0.304633
     39          6           0        5.037460    2.622109   -0.986244
     40          6           0        3.193018    3.612223    0.169883
     41          6           0        4.413292    3.746533   -0.472133
     42          1           0        4.931907    0.498005   -1.282066
     43          1           0        1.656156    2.262505    0.820378
     44          1           0        5.992055    2.714270   -1.494403
     45          1           0        2.697309    4.484427    0.584059
     46          1           0        4.876004    4.722810   -0.569917
 ---------------------------------------------------------------------
 Rotational constants (GHZ):           0.3083654           0.0766714           0.0675965
 Leave Link  202 at Mon Jan 18 20:36:18 2021, MaxMem=  4026531840 cpu:               0.2 elap:               0.0
 (Enter /opt/ohpc/pub/libs/gaussian/g16-A.03/sandybridge/g16/l301.exe)
 Standard basis: TZVP (5D, 7F)
 Ernie: Thresh=  0.10000D-02 Tol=  0.10000D-05 Strict=F.
 There are   660 symmetry adapted cartesian basis functions of A   symmetry.
 There are   633 symmetry adapted basis functions of A   symmetry.
   633 basis functions,  1121 primitive gaussians,   660 cartesian basis functions
   101 alpha electrons      101 beta electrons
       nuclear repulsion energy      2474.6847673599 Hartrees.
 IExCor=33909 DFT=T Ex+Corr=LC-wHPBE ExCW=0 ScaHFX=  1.000000
 ScaDFX=  1.000000  1.000000  1.000000  1.000000 ScalE2=  1.000000  1.000000
 IRadAn=      5 IRanWt=     -1 IRanGd=            0 ICorTp=0 IEmpDi=  4
 HFx  wShort=  0.000000 wLong=  0.184100 cFull=  0.000000 cShort=  0.000000 cLong=  1.000000
 DFx  wShort=  0.000000 wLong=  0.184100 cFull=  0.000000 cShort=  1.000000 cLong=  0.000000
 NAtoms=   46 NActive=   46 NUniq=   46 SFac= 1.00D+00 NAtFMM=   60 NAOKFM=F Big=F
 Integral buffers will be    131072 words long.
 Raffenetti 2 integral format.
 Two-electron integral symmetry is turned on.
 Leave Link  301 at Mon Jan 18 20:36:18 2021, MaxMem=  4026531840 cpu:               0.4 elap:               0.1
 (Enter /opt/ohpc/pub/libs/gaussian/g16-A.03/sandybridge/g16/l302.exe)
 NPDir=0 NMtPBC=     1 NCelOv=     1 NCel=       1 NClECP=     1 NCelD=      1
         NCelK=      1 NCelE2=     1 NClLst=     1 CellRange=     0.0.
 One-electron integrals computed using PRISM.
 One-electron integral symmetry used in STVInt
 NBasis=   633 RedAO= T EigKep=  6.67D-06  NBF=   633
 NBsUse=   633 1.00D-06 EigRej= -1.00D+00 NBFU=   633
 Precomputing XC quadrature grid using
 IXCGrd= 4 IRadAn=           5 IRanWt=          -1 IRanGd=           0 AccXCQ= 0.00D+00.
 Generated NRdTot=       0 NPtTot=           0 NUsed=           0 NTot=          32
 NSgBfM=   625   625   625   625   625 MxSgAt=    46 MxSgA2=    46.
 Leave Link  302 at Mon Jan 18 20:36:20 2021, MaxMem=  4026531840 cpu:               9.6 elap:               1.2
 (Enter /opt/ohpc/pub/libs/gaussian/g16-A.03/sandybridge/g16/l303.exe)
 DipDrv:  MaxL=1.
 Leave Link  303 at Mon Jan 18 20:36:20 2021, MaxMem=  4026531840 cpu:               1.0 elap:               0.2
 (Enter /opt/ohpc/pub/libs/gaussian/g16-A.03/sandybridge/g16/l401.exe)
 ExpMin= 9.52D-02 ExpMax= 6.07D+04 ExpMxC= 2.07D+03 IAcc=3 IRadAn=         5 AccDes= 0.00D+00
 Harris functional with IExCor=33909 and IRadAn=       5 diagonalized for initial guess.
 HarFok:  IExCor=33909 AccDes= 0.00D+00 IRadAn=         5 IDoV= 1 UseB2=F ITyADJ=14
 ICtDFT=  3500011 ScaDFX=  1.000000  1.000000  1.000000  1.000000
 FoFCou: FMM=F IPFlag=           0 FMFlag=      100000 FMFlg1=           0
         NFxFlg=           0 DoJE=T BraDBF=F KetDBF=T FulRan=T
         wScrn=  0.000000 ICntrl=       500 IOpCl=  0 I1Cent=   200000004 NGrid=           0
         NMat0=    1 NMatS0=      1 NMatT0=    0 NMatD0=    1 NMtDS0=    0 NMtDT0=    0
 Petite list used in FoFCou.
 Harris En= -1756.27005514115    
 JPrj=0 DoOrth=F DoCkMO=F.
 Leave Link  401 at Mon Jan 18 20:36:28 2021, MaxMem=  4026531840 cpu:              52.5 elap:               7.9
 (Enter /opt/ohpc/pub/libs/gaussian/g16-A.03/sandybridge/g16/l502.exe)
 Integral symmetry usage will be decided dynamically.
 Closed shell SCF:
 Using DIIS extrapolation, IDIIS=    10.
 NGot=  4026531840 LenX=  4025648940 LenY=  4025212680
 Requested convergence on RMS density matrix=1.00D-06 within  32 cycles.
 Requested convergence on MAX density matrix=1.00D-04.
 Requested convergence on             energy=1.00D-04.
 Virtual orbitals will be shifted by   0.500 hartree.
 No special actions if energy rises.
 Dynamic level shift is on during FON iterations.

 Cycle   1  Pass 1  IDiag  1:
 FoFJK:  IHMeth= 1 ICntrl=       0 DoSepK=T KAlg= 0 I1Cent=           0 FoldK=F
 IRaf=         1 NMat=       1 IRICut=       1 DoRegI=T DoRafI=F ISym2E= 0 IDoP0=0 IntGTp=1.
 FoFCou: FMM=F IPFlag=           0 FMFlag=      100000 FMFlg1=           0
         NFxFlg=           0 DoJE=T BraDBF=F KetDBF=F FulRan=T
         wScrn=  0.000000 ICntrl=       500 IOpCl=  0 I1Cent=           0 NGrid=           0
         NMat0=    1 NMatS0=      1 NMatT0=    0 NMatD0=    1 NMtDS0=    0 NMtDT0=    0
 Symmetry not used in FoFCou.
 E= -1775.66820443195    
 DIIS: error= 2.79D-02 at cycle   1 NSaved=   1.
 NSaved= 1 IEnMin= 1 EnMin= -1775.66820443195     IErMin= 1 ErrMin= 2.79D-02
 ErrMax= 2.79D-02  0.00D+00 EMaxC= 1.00D+00 BMatC= 5.42D-01 BMatP= 5.42D-01
 IDIUse=1 WtCom= 1.00D+00 WtEn= 0.00D+00
 Coeff-Com:  0.100D+01
 Coeff:      0.100D+01
 Gap=     0.402 Goal=   None    Shift=    0.500
 T= 1454. Gap= 0.667 NK=0 IS=  102 IE=  633 IFin=  101
          NO(<0.9)=   0  NV(>0.1)=   0    101.00e < EF      0.00e >EF  Err=0.0D+00
 GapD=    0.402 DampG=2.000 DampE=0.500 DampFc=1.0000 IDamp=-1.
 RMSDP=2.89D-03 MaxDP=2.01D-01              OVMax= 9.59D-02

 Cycle   2  Pass 1  IDiag  1:
 E= -1776.15383737872     Delta-E=       -0.485632946772 Rises=F Damp=F
 DIIS: error= 8.91D-03 at cycle   2 NSaved=   2.
 NSaved= 2 IEnMin= 2 EnMin= -1776.15383737872     IErMin= 2 ErrMin= 8.91D-03
 ErrMax= 8.91D-03  0.00D+00 EMaxC= 1.00D+00 BMatC= 7.59D-02 BMatP= 5.42D-01
 IDIUse=1 WtCom= 1.00D+00 WtEn= 0.00D+00
 Coeff-Com:  0.244D+00 0.756D+00
 Coeff:      0.244D+00 0.756D+00
 Gap=     0.352 Goal=   None    Shift=    0.500
 T= 1299. Gap= 0.753 NK=0 IS=  102 IE=  633 IFin=  101
          NO(<0.9)=   0  NV(>0.1)=   0    101.00e < EF      0.00e >EF  Err=0.0D+00
 GapD=    0.352 DampG=1.000 DampE=1.000 DampFc=1.0000 IDamp=-1.
 RMSDP=8.55D-04 MaxDP=6.11D-02 DE=-4.86D-01 OVMax= 1.84D-02

 Cycle   3  Pass 1  IDiag  1:
 E= -1776.20762626110     Delta-E=       -0.053788882382 Rises=F Damp=F
 DIIS: error= 2.61D-03 at cycle   3 NSaved=   3.
 NSaved= 3 IEnMin= 3 EnMin= -1776.20762626110     IErMin= 3 ErrMin= 2.61D-03
 ErrMax= 2.61D-03  0.00D+00 EMaxC= 1.00D+00 BMatC= 6.54D-03 BMatP= 7.59D-02
 IDIUse=1 WtCom= 1.00D+00 WtEn= 0.00D+00
 Coeff-Com:  0.793D-01-0.229D-01 0.944D+00
 Coeff:      0.793D-01-0.229D-01 0.944D+00
 Gap=     0.270 Goal=   None    Shift=    0.500
 T= 1001. Gap= 0.767 NK=0 IS=  102 IE=  633 IFin=  101
          NO(<0.9)=   0  NV(>0.1)=   0    101.00e < EF      0.00e >EF  Err=0.0D+00
 GapD=    0.270 DampG=1.000 DampE=1.000 DampFc=1.0000 IDamp=-1.
 RMSDP=3.72D-04 MaxDP=2.49D-02 DE=-5.38D-02 OVMax= 1.04D-02

 Cycle   4  Pass 1  IDiag  1:
 E= -1776.21400382541     Delta-E=       -0.006377564307 Rises=F Damp=F
 DIIS: error= 1.52D-03 at cycle   4 NSaved=   4.
 NSaved= 4 IEnMin= 4 EnMin= -1776.21400382541     IErMin= 4 ErrMin= 1.52D-03
 ErrMax= 1.52D-03  0.00D+00 EMaxC= 1.00D+00 BMatC= 9.81D-04 BMatP= 6.54D-03
 IDIUse=1 WtCom= 1.00D+00 WtEn= 0.00D+00
 Coeff-Com:  0.165D-01-0.683D-01 0.734D-01 0.978D+00
 Coeff:      0.165D-01-0.683D-01 0.734D-01 0.978D+00
 Gap=     0.264 Goal=   None    Shift=    0.500
 T=  337. Gap= 0.764 NK=0 IS=  102 IE=  633 IFin=  101
          NO(<0.9)=   0  NV(>0.1)=   0    101.00e < EF      0.00e >EF  Err=0.0D+00
 GapD=    0.264 DampG=1.000 DampE=1.000 DampFc=1.0000 IDamp=-1.
 RMSDP=2.31D-04 MaxDP=1.45D-02 DE=-6.38D-03 OVMax= 7.48D-03

 Cycle   5  Pass 1  IDiag  1:
 E= -1776.21530606525     Delta-E=       -0.001302239842 Rises=F Damp=F
 DIIS: error= 1.26D-03 at cycle   5 NSaved=   5.
 NSaved= 5 IEnMin= 5 EnMin= -1776.21530606525     IErMin= 5 ErrMin= 1.26D-03
 ErrMax= 1.26D-03  0.00D+00 EMaxC= 1.00D+00 BMatC= 1.48D-04 BMatP= 9.81D-04
 IDIUse=1 WtCom= 1.00D+00 WtEn= 0.00D+00
 Coeff-Com: -0.546D-02-0.808D-02-0.117D+00-0.849D-01 0.122D+01
 Coeff:     -0.546D-02-0.808D-02-0.117D+00-0.849D-01 0.122D+01
 Gap=     0.265 Goal=   None    Shift=    0.500
 GapD=    0.265 DampG=1.000 DampE=1.000 DampFc=1.0000 IDamp=-1.
 RMSDP=1.56D-04 MaxDP=1.04D-02 DE=-1.30D-03 OVMax= 6.07D-03

 Cycle   6  Pass 1  IDiag  1:
 E= -1776.21569799459     Delta-E=       -0.000391929338 Rises=F Damp=F
 DIIS: error= 1.02D-03 at cycle   6 NSaved=   6.
 NSaved= 6 IEnMin= 6 EnMin= -1776.21569799459     IErMin= 6 ErrMin= 1.02D-03
 ErrMax= 1.02D-03  0.00D+00 EMaxC= 1.00D+00 BMatC= 4.37D-05 BMatP= 1.48D-04
 IDIUse=1 WtCom= 1.00D+00 WtEn= 0.00D+00
 Coeff-Com: -0.626D-02 0.107D-01-0.335D-01-0.220D+00-0.282D+00 0.153D+01
 Coeff:     -0.626D-02 0.107D-01-0.335D-01-0.220D+00-0.282D+00 0.153D+01
 Gap=     0.265 Goal=   None    Shift=    0.500
 GapD=    0.265 DampG=1.000 DampE=1.000 DampFc=1.0000 IDamp=-1.
 RMSDP=9.64D-05 MaxDP=6.49D-03 DE=-3.92D-04 OVMax= 5.16D-03

 Cycle   7  Pass 1  IDiag  1:
 E= -1776.21587666375     Delta-E=       -0.000178669161 Rises=F Damp=F
 DIIS: error= 7.51D-04 at cycle   7 NSaved=   7.
 NSaved= 7 IEnMin= 7 EnMin= -1776.21587666375     IErMin= 7 ErrMin= 7.51D-04
 ErrMax= 7.51D-04  0.00D+00 EMaxC= 1.00D+00 BMatC= 1.76D-05 BMatP= 4.37D-05
 IDIUse=1 WtCom= 1.00D+00 WtEn= 0.00D+00
 Coeff-Com: -0.215D-02 0.360D-02 0.250D-01-0.521D-01-0.482D+00-0.479D-01
 Coeff-Com:  0.156D+01
 Coeff:     -0.215D-02 0.360D-02 0.250D-01-0.521D-01-0.482D+00-0.479D-01
 Coeff:      0.156D+01
 Gap=     0.265 Goal=   None    Shift=    0.500
 RMSDP=5.39D-05 MaxDP=3.46D-03 DE=-1.79D-04 OVMax= 4.04D-03

 Cycle   8  Pass 1  IDiag  1:
 E= -1776.21596107229     Delta-E=       -0.000084408543 Rises=F Damp=F
 DIIS: error= 5.21D-04 at cycle   8 NSaved=   8.
 NSaved= 8 IEnMin= 8 EnMin= -1776.21596107229     IErMin= 8 ErrMin= 5.21D-04
 ErrMax= 5.21D-04  0.00D+00 EMaxC= 1.00D+00 BMatC= 7.13D-06 BMatP= 1.76D-05
 IDIUse=1 WtCom= 1.00D+00 WtEn= 0.00D+00
 Coeff-Com:  0.737D-03-0.243D-02 0.158D-01 0.829D-01-0.724D-01-0.711D+00
 Coeff-Com: -0.114D+00 0.180D+01
 Coeff:      0.737D-03-0.243D-02 0.158D-01 0.829D-01-0.724D-01-0.711D+00
 Coeff:     -0.114D+00 0.180D+01
 Gap=     0.265 Goal=   None    Shift=    0.500
 RMSDP=2.74D-05 MaxDP=1.42D-03 DE=-8.44D-05 OVMax= 2.98D-03

 Cycle   9  Pass 1  IDiag  1:
 E= -1776.21599912607     Delta-E=       -0.000038053783 Rises=F Damp=F
 DIIS: error= 3.66D-04 at cycle   9 NSaved=   9.
 NSaved= 9 IEnMin= 9 EnMin= -1776.21599912607     IErMin= 9 ErrMin= 3.66D-04
 ErrMax= 3.66D-04  0.00D+00 EMaxC= 1.00D+00 BMatC= 3.00D-06 BMatP= 7.13D-06
 IDIUse=1 WtCom= 1.00D+00 WtEn= 0.00D+00
 Coeff-Com:  0.658D-03-0.133D-02-0.560D-02 0.664D-01 0.118D+00-0.403D+00
 Coeff-Com: -0.542D+00 0.283D+00 0.148D+01
 Coeff:      0.658D-03-0.133D-02-0.560D-02 0.664D-01 0.118D+00-0.403D+00
 Coeff:     -0.542D+00 0.283D+00 0.148D+01
 Gap=     0.265 Goal=   None    Shift=    0.500
 RMSDP=1.39D-05 MaxDP=5.60D-04 DE=-3.81D-05 OVMax= 2.10D-03

 Cycle  10  Pass 1  IDiag  1:
 E= -1776.21601508834     Delta-E=       -0.000015962264 Rises=F Damp=F
 DIIS: error= 2.37D-04 at cycle  10 NSaved=  10.
 NSaved=10 IEnMin=10 EnMin= -1776.21601508834     IErMin=10 ErrMin= 2.37D-04
 ErrMax= 2.37D-04  0.00D+00 EMaxC= 1.00D+00 BMatC= 1.17D-06 BMatP= 3.00D-06
 IDIUse=1 WtCom= 1.00D+00 WtEn= 0.00D+00
 Coeff-Com: -0.122D-03 0.700D-03-0.544D-02-0.263D-02 0.227D-01 0.113D+00
 Coeff-Com: -0.823D-01-0.534D+00-0.740D+00 0.223D+01
 Coeff:     -0.122D-03 0.700D-03-0.544D-02-0.263D-02 0.227D-01 0.113D+00
 Coeff:     -0.823D-01-0.534D+00-0.740D+00 0.223D+01
 Gap=     0.265 Goal=   None    Shift=    0.500
 RMSDP=8.76D-06 MaxDP=3.77D-04 DE=-1.60D-05 OVMax= 1.42D-03

 Cycle  11  Pass 1  IDiag  1:
 E= -1776.21602154724     Delta-E=       -0.000006458908 Rises=F Damp=F
 DIIS: error= 1.61D-04 at cycle  11 NSaved=  11.
 NSaved=11 IEnMin=11 EnMin= -1776.21602154724     IErMin=11 ErrMin= 1.61D-04
 ErrMax= 1.61D-04  0.00D+00 EMaxC= 1.00D+00 BMatC= 5.14D-07 BMatP= 1.17D-06
 IDIUse=1 WtCom= 1.00D+00 WtEn= 0.00D+00
 Coeff-Com: -0.174D-03 0.682D-03 0.381D-03-0.137D-01-0.235D-01 0.132D+00
 Coeff-Com:  0.936D-01-0.257D+00-0.100D+01 0.631D+00 0.144D+01
 Coeff:     -0.174D-03 0.682D-03 0.381D-03-0.137D-01-0.235D-01 0.132D+00
 Coeff:      0.936D-01-0.257D+00-0.100D+01 0.631D+00 0.144D+01
 Gap=     0.265 Goal=   None    Shift=    0.500
 RMSDP=5.17D-06 MaxDP=2.30D-04 DE=-6.46D-06 OVMax= 9.40D-04

 Cycle  12  Pass 1  IDiag  1:
 E= -1776.21602411777     Delta-E=       -0.000002570530 Rises=F Damp=F
 DIIS: error= 1.04D-04 at cycle  12 NSaved=  12.
 NSaved=12 IEnMin=12 EnMin= -1776.21602411777     IErMin=12 ErrMin= 1.04D-04
 ErrMax= 1.04D-04  0.00D+00 EMaxC= 1.00D+00 BMatC= 2.11D-07 BMatP= 5.14D-07
 IDIUse=1 WtCom= 1.00D+00 WtEn= 0.00D+00
 Coeff-Com: -0.370D-04 0.167D-03 0.240D-02-0.352D-02-0.144D-01 0.111D-02
 Coeff-Com:  0.633D-01 0.169D+00-0.352D+00-0.567D+00-0.240D+00 0.194D+01
 Coeff:     -0.370D-04 0.167D-03 0.240D-02-0.352D-02-0.144D-01 0.111D-02
 Coeff:      0.633D-01 0.169D+00-0.352D+00-0.567D+00-0.240D+00 0.194D+01
 Gap=     0.265 Goal=   None    Shift=    0.500
 RMSDP=3.11D-06 MaxDP=1.49D-04 DE=-2.57D-06 OVMax= 6.15D-04

 Cycle  13  Pass 1  IDiag  1:
 E= -1776.21602513696     Delta-E=       -0.000001019182 Rises=F Damp=F
 DIIS: error= 6.89D-05 at cycle  13 NSaved=  13.
 NSaved=13 IEnMin=13 EnMin= -1776.21602513696     IErMin=13 ErrMin= 6.89D-05
 ErrMax= 6.89D-05  0.00D+00 EMaxC= 1.00D+00 BMatC= 9.58D-08 BMatP= 2.11D-07
 IDIUse=1 WtCom= 1.00D+00 WtEn= 0.00D+00
 Coeff-Com:  0.212D-04-0.532D-05 0.776D-03 0.320D-02 0.676D-04-0.386D-01
 Coeff-Com:  0.523D-02 0.191D+00 0.604D-01-0.446D+00-0.856D+00 0.471D+00
 Coeff-Com:  0.161D+01
 Coeff:      0.212D-04-0.532D-05 0.776D-03 0.320D-02 0.676D-04-0.386D-01
 Coeff:      0.523D-02 0.191D+00 0.604D-01-0.446D+00-0.856D+00 0.471D+00
 Coeff:      0.161D+01
 Gap=     0.265 Goal=   None    Shift=    0.500
 RMSDP=1.87D-06 MaxDP=9.67D-05 DE=-1.02D-06 OVMax= 4.08D-04

 Cycle  14  Pass 1  IDiag  1:
 E= -1776.21602555343     Delta-E=       -0.000000416470 Rises=F Damp=F
 DIIS: error= 4.34D-05 at cycle  14 NSaved=  14.
 NSaved=14 IEnMin=14 EnMin= -1776.21602555343     IErMin=14 ErrMin= 4.34D-05
 ErrMax= 4.34D-05  0.00D+00 EMaxC= 1.00D+00 BMatC= 3.90D-08 BMatP= 9.58D-08
 IDIUse=1 WtCom= 1.00D+00 WtEn= 0.00D+00
 Coeff-Com:  0.133D-04-0.238D-04-0.450D-03 0.269D-02 0.280D-02-0.134D-01
 Coeff-Com: -0.150D-01 0.392D-01 0.867D-01 0.513D-01-0.439D+00-0.311D+00
 Coeff-Com: -0.418D+00 0.201D+01
 Coeff:      0.133D-04-0.238D-04-0.450D-03 0.269D-02 0.280D-02-0.134D-01
 Coeff:     -0.150D-01 0.392D-01 0.867D-01 0.513D-01-0.439D+00-0.311D+00
 Coeff:     -0.418D+00 0.201D+01
 Gap=     0.265 Goal=   None    Shift=    0.500
 RMSDP=1.20D-06 MaxDP=5.89D-05 DE=-4.16D-07 OVMax= 2.60D-04

 Cycle  15  Pass 1  IDiag  1:
 E= -1776.21602571677     Delta-E=       -0.000000163347 Rises=F Damp=F
 DIIS: error= 2.83D-05 at cycle  15 NSaved=  15.
 NSaved=15 IEnMin=15 EnMin= -1776.21602571677     IErMin=15 ErrMin= 2.83D-05
 ErrMax= 2.83D-05  0.00D+00 EMaxC= 1.00D+00 BMatC= 1.66D-08 BMatP= 3.90D-08
 IDIUse=1 WtCom= 1.00D+00 WtEn= 0.00D+00
 Coeff-Com: -0.204D-05-0.216D-04-0.391D-03 0.274D-03 0.149D-02 0.502D-02
 Coeff-Com: -0.868D-02-0.263D-01 0.189D-01 0.170D+00-0.402D-01-0.288D+00
 Coeff-Com: -0.103D+01 0.818D+00 0.138D+01
 Coeff:     -0.204D-05-0.216D-04-0.391D-03 0.274D-03 0.149D-02 0.502D-02
 Coeff:     -0.868D-02-0.263D-01 0.189D-01 0.170D+00-0.402D-01-0.288D+00
 Coeff:     -0.103D+01 0.818D+00 0.138D+01
 Gap=     0.265 Goal=   None    Shift=    0.500
 RMSDP=7.16D-07 MaxDP=3.51D-05 DE=-1.63D-07 OVMax= 1.68D-04

 SCF Done:  E(RLC-wHPBE) =  -1776.21602572     A.U. after   15 cycles
            NFock= 15  Conv=0.72D-06     -V/T= 2.0036
 KE= 1.769821452858D+03 PE=-9.117352730904D+03 EE= 3.096630484970D+03
 Leave Link  502 at Mon Jan 18 20:48:52 2021, MaxMem=  4026531840 cpu:            5936.9 elap:             744.1
 (Enter /opt/ohpc/pub/libs/gaussian/g16-A.03/sandybridge/g16/l508.exe)
 QCSCF skips out because SCF is already converged.
 Leave Link  508 at Mon Jan 18 20:48:52 2021, MaxMem=  4026531840 cpu:               0.1 elap:               0.0
 (Enter /opt/ohpc/pub/libs/gaussian/g16-A.03/sandybridge/g16/l601.exe)
 Copying SCF densities to generalized density rwf, IOpCl= 0 IROHF=0.

 **********************************************************************

            Population analysis using the SCF density.

 **********************************************************************

 Orbital symmetries:
       Occupied  (A) (A) (A) (A) (A) (A) (A) (A) (A) (A) (A) (A)
                 (A) (A) (A) (A) (A) (A) (A) (A) (A) (A) (A) (A)
                 (A) (A) (A) (A) (A) (A) (A) (A) (A) (A) (A) (A)
                 (A) (A) (A) (A) (A) (A) (A) (A) (A) (A) (A) (A)
                 (A) (A) (A) (A) (A) (A) (A) (A) (A) (A) (A) (A)
                 (A) (A) (A) (A) (A) (A) (A) (A) (A) (A) (A) (A)
                 (A) (A) (A) (A) (A) (A) (A) (A) (A) (A) (A) (A)
                 (A) (A) (A) (A) (A) (A) (A) (A) (A) (A) (A) (A)
                 (A) (A) (A) (A) (A)
       Virtual   (A) (A) (A) (A) (A) (A) (A) (A) (A) (A) (A) (A)
                 (A) (A) (A) (A) (A) (A) (A) (A) (A) (A) (A) (A)
                 (A) (A) (A) (A) (A) (A) (A) (A) (A) (A) (A) (A)
                 (A) (A) (A) (A) (A) (A) (A) (A) (A) (A) (A) (A)
                 (A) (A) (A) (A) (A) (A) (A) (A) (A) (A) (A) (A)
                 (A) (A) (A) (A) (A) (A) (A) (A) (A) (A) (A) (A)
                 (A) (A) (A) (A) (A) (A) (A) (A) (A) (A) (A) (A)
                 (A) (A) (A) (A) (A) (A) (A) (A) (A) (A) (A) (A)
                 (A) (A) (A) (A) (A) (A) (A) (A) (A) (A) (A) (A)
                 (A) (A) (A) (A) (A) (A) (A) (A) (A) (A) (A) (A)
                 (A) (A) (A) (A) (A) (A) (A) (A) (A) (A) (A) (A)
                 (A) (A) (A) (A) (A) (A) (A) (A) (A) (A) (A) (A)
                 (A) (A) (A) (A) (A) (A) (A) (A) (A) (A) (A) (A)
                 (A) (A) (A) (A) (A) (A) (A) (A) (A) (A) (A) (A)
                 (A) (A) (A) (A) (A) (A) (A) (A) (A) (A) (A) (A)
                 (A) (A) (A) (A) (A) (A) (A) (A) (A) (A) (A) (A)
                 (A) (A) (A) (A) (A) (A) (A) (A) (A) (A) (A) (A)
                 (A) (A) (A) (A) (A) (A) (A) (A) (A) (A) (A) (A)
                 (A) (A) (A) (A) (A) (A) (A) (A) (A) (A) (A) (A)
                 (A) (A) (A) (A) (A) (A) (A) (A) (A) (A) (A) (A)
                 (A) (A) (A) (A) (A) (A) (A) (A) (A) (A) (A) (A)
                 (A) (A) (A) (A) (A) (A) (A) (A) (A) (A) (A) (A)
                 (A) (A) (A) (A) (A) (A) (A) (A) (A) (A) (A) (A)
                 (A) (A) (A) (A) (A) (A) (A) (A) (A) (A) (A) (A)
                 (A) (A) (A) (A) (A) (A) (A) (A) (A) (A) (A) (A)
                 (A) (A) (A) (A) (A) (A) (A) (A) (A) (A) (A) (A)
                 (A) (A) (A) (A) (A) (A) (A) (A) (A) (A) (A) (A)
                 (A) (A) (A) (A) (A) (A) (A) (A) (A) (A) (A) (A)
                 (A) (A) (A) (A) (A) (A) (A) (A) (A) (A) (A) (A)
                 (A) (A) (A) (A) (A) (A) (A) (A) (A) (A) (A) (A)
                 (A) (A) (A) (A) (A) (A) (A) (A) (A) (A) (A) (A)
                 (A) (A) (A) (A) (A) (A) (A) (A) (A) (A) (A) (A)
                 (A) (A) (A) (A) (A) (A) (A) (A) (A) (A) (A) (A)
                 (A) (A) (A) (A) (A) (A) (A) (A) (A) (A) (A) (A)
                 (A) (A) (A) (A) (A) (A) (A) (A) (A) (A) (A) (A)
                 (A) (A) (A) (A) (A) (A) (A) (A) (A) (A) (A) (A)
                 (A) (A) (A) (A) (A) (A) (A) (A) (A) (A) (A) (A)
                 (A) (A) (A) (A) (A) (A) (A) (A) (A) (A) (A) (A)
                 (A) (A) (A) (A) (A) (A) (A) (A) (A) (A) (A) (A)
                 (A) (A) (A) (A) (A) (A) (A) (A) (A) (A) (A) (A)
                 (A) (A) (A) (A) (A) (A) (A) (A) (A) (A) (A) (A)
                 (A) (A) (A) (A) (A) (A) (A) (A) (A) (A) (A) (A)
                 (A) (A) (A) (A) (A) (A) (A) (A) (A) (A) (A) (A)
                 (A) (A) (A) (A) (A) (A) (A) (A) (A) (A) (A) (A)
                 (A) (A) (A) (A)
 The electronic state is 1-A.
 Alpha  occ. eigenvalues --  -88.19600 -88.19515 -14.13113 -10.04319 -10.03764
 Alpha  occ. eigenvalues --  -10.03728 -10.03109 -10.02734 -10.02199 -10.00152
 Alpha  occ. eigenvalues --  -10.00127  -9.99757  -9.99726  -9.99699  -9.99696
 Alpha  occ. eigenvalues --   -9.99657  -9.99654  -9.99573  -9.99514  -9.99511
 Alpha  occ. eigenvalues --   -9.99510  -9.99489  -9.99319  -9.99283  -9.99085
 Alpha  occ. eigenvalues --   -9.98891  -9.98821  -7.78889  -7.78677  -5.81106
 Alpha  occ. eigenvalues --   -5.80920  -5.80622  -5.80411  -5.79865  -5.79651
 Alpha  occ. eigenvalues --   -1.00869  -0.91565  -0.90536  -0.90244  -0.88597
 Alpha  occ. eigenvalues --   -0.84037  -0.82888  -0.80821  -0.80251  -0.79373
 Alpha  occ. eigenvalues --   -0.79157  -0.79103  -0.76752  -0.75010  -0.72888
 Alpha  occ. eigenvalues --   -0.68483  -0.67890  -0.66091  -0.65902  -0.65493
 Alpha  occ. eigenvalues --   -0.64793  -0.62957  -0.62222  -0.59730  -0.59695
 Alpha  occ. eigenvalues --   -0.56975  -0.55438  -0.54110  -0.53062  -0.52895
 Alpha  occ. eigenvalues --   -0.52230  -0.51317  -0.51024  -0.50052  -0.49744
 Alpha  occ. eigenvalues --   -0.49103  -0.48863  -0.48366  -0.48097  -0.47934
 Alpha  occ. eigenvalues --   -0.47442  -0.46503  -0.45459  -0.44685  -0.44441
 Alpha  occ. eigenvalues --   -0.44288  -0.43050  -0.42254  -0.41675  -0.41249
 Alpha  occ. eigenvalues --   -0.40622  -0.40151  -0.40061  -0.39952  -0.38325
 Alpha  occ. eigenvalues --   -0.36869  -0.36251  -0.35029  -0.33583  -0.33558
 Alpha  occ. eigenvalues --   -0.33210  -0.32433  -0.32181  -0.28875  -0.26655
 Alpha  occ. eigenvalues --   -0.25412
 Alpha virt. eigenvalues --    0.01134   0.01604   0.02217   0.03471   0.03960
 Alpha virt. eigenvalues --    0.04186   0.04566   0.05377   0.06749   0.09149
 Alpha virt. eigenvalues --    0.10244   0.10581   0.10768   0.11827   0.12846
 Alpha virt. eigenvalues --    0.13090   0.13363   0.13722   0.13996   0.14563
 Alpha virt. eigenvalues --    0.15075   0.15167   0.15873   0.16307   0.16428
 Alpha virt. eigenvalues --    0.16851   0.17118   0.17605   0.17974   0.18119
 Alpha virt. eigenvalues --    0.18674   0.19028   0.19877   0.20067   0.21075
 Alpha virt. eigenvalues --    0.21751   0.23049   0.23719   0.24059   0.24456
 Alpha virt. eigenvalues --    0.24591   0.25024   0.25493   0.25605   0.25948
 Alpha virt. eigenvalues --    0.26414   0.26602   0.27209   0.27350   0.27624
 Alpha virt. eigenvalues --    0.27711   0.27994   0.28175   0.28342   0.28843
 Alpha virt. eigenvalues --    0.29113   0.29340   0.29793   0.29881   0.30460
 Alpha virt. eigenvalues --    0.30665   0.30746   0.31382   0.31393   0.32010
 Alpha virt. eigenvalues --    0.32428   0.32678   0.32820   0.33113   0.33502
 Alpha virt. eigenvalues --    0.34215   0.34552   0.35147   0.35332   0.35732
 Alpha virt. eigenvalues --    0.35982   0.36513   0.36718   0.37238   0.37807
 Alpha virt. eigenvalues --    0.37963   0.38505   0.38736   0.39494   0.39764
 Alpha virt. eigenvalues --    0.40460   0.40588   0.41299   0.41634   0.41839
 Alpha virt. eigenvalues --    0.42149   0.42651   0.42942   0.43027   0.43366
 Alpha virt. eigenvalues --    0.43801   0.43873   0.44179   0.44216   0.45035
 Alpha virt. eigenvalues --    0.45221   0.45301   0.45851   0.46314   0.46759
 Alpha virt. eigenvalues --    0.46782   0.47267   0.47466   0.47859   0.47938
 Alpha virt. eigenvalues --    0.48243   0.48682   0.49046   0.49391   0.50039
 Alpha virt. eigenvalues --    0.50178   0.50408   0.50731   0.51521   0.51898
 Alpha virt. eigenvalues --    0.52230   0.52497   0.52856   0.53498   0.53827
 Alpha virt. eigenvalues --    0.54409   0.54661   0.55200   0.55292   0.55569
 Alpha virt. eigenvalues --    0.55755   0.55949   0.56363   0.56738   0.57184
 Alpha virt. eigenvalues --    0.58078   0.58413   0.59354   0.59810   0.60329
 Alpha virt. eigenvalues --    0.60720   0.61828   0.61903   0.62647   0.63087
 Alpha virt. eigenvalues --    0.63983   0.64909   0.65534   0.65955   0.66649
 Alpha virt. eigenvalues --    0.67578   0.68182   0.70036   0.70835   0.71139
 Alpha virt. eigenvalues --    0.71628   0.71961   0.72220   0.72353   0.72956
 Alpha virt. eigenvalues --    0.73424   0.73516   0.74260   0.74491   0.74711
 Alpha virt. eigenvalues --    0.75189   0.75402   0.75901   0.76528   0.77316
 Alpha virt. eigenvalues --    0.77557   0.77790   0.78987   0.80352   0.80978
 Alpha virt. eigenvalues --    0.81192   0.82082   0.82729   0.83237   0.84888
 Alpha virt. eigenvalues --    0.85607   0.87854   0.89183   0.89571   0.90084
 Alpha virt. eigenvalues --    0.90647   0.92269   0.92691   0.95239   0.95957
 Alpha virt. eigenvalues --    0.96398   0.97059   0.98526   0.99778   1.00494
 Alpha virt. eigenvalues --    1.01174   1.07568   1.13581   1.18173   1.19060
 Alpha virt. eigenvalues --    1.19364   1.22605   1.22726   1.23839   1.24805
 Alpha virt. eigenvalues --    1.25918   1.26206   1.26507   1.27108   1.27487
 Alpha virt. eigenvalues --    1.28642   1.28876   1.29282   1.29412   1.29565
 Alpha virt. eigenvalues --    1.30128   1.30576   1.30810   1.31032   1.31712
 Alpha virt. eigenvalues --    1.31736   1.32442   1.32814   1.33175   1.33536
 Alpha virt. eigenvalues --    1.33876   1.34010   1.34846   1.35638   1.36090
 Alpha virt. eigenvalues --    1.36825   1.37401   1.37565   1.38399   1.39206
 Alpha virt. eigenvalues --    1.40804   1.42636   1.43484   1.43826   1.44265
 Alpha virt. eigenvalues --    1.45059   1.45583   1.46311   1.46627   1.46801
 Alpha virt. eigenvalues --    1.46918   1.46960   1.47170   1.47512   1.47627
 Alpha virt. eigenvalues --    1.47822   1.48125   1.48518   1.48750   1.49147
 Alpha virt. eigenvalues --    1.49276   1.50326   1.50717   1.50985   1.51345
 Alpha virt. eigenvalues --    1.51988   1.52721   1.53315   1.53450   1.53860
 Alpha virt. eigenvalues --    1.54217   1.54486   1.54520   1.55530   1.55556
 Alpha virt. eigenvalues --    1.56148   1.56812   1.57468   1.57946   1.58305
 Alpha virt. eigenvalues --    1.58670   1.58773   1.59190   1.59254   1.59498
 Alpha virt. eigenvalues --    1.59875   1.60319   1.60885   1.61118   1.61398
 Alpha virt. eigenvalues --    1.61559   1.62642   1.62812   1.63452   1.64045
 Alpha virt. eigenvalues --    1.64658   1.64707   1.68402   1.68764   1.69462
 Alpha virt. eigenvalues --    1.69652   1.70442   1.72213   1.73307   1.74111
 Alpha virt. eigenvalues --    1.74860   1.75295   1.78049   1.78665   1.79053
 Alpha virt. eigenvalues --    1.79369   1.79694   1.79755   1.80515   1.80773
 Alpha virt. eigenvalues --    1.81399   1.81730   1.82055   1.82452   1.83026
 Alpha virt. eigenvalues --    1.83627   1.84182   1.84609   1.85036   1.85131
 Alpha virt. eigenvalues --    1.86253   1.86859   1.87577   1.89790   1.90178
 Alpha virt. eigenvalues --    1.90813   1.91229   1.91528   1.91759   1.92028
 Alpha virt. eigenvalues --    1.92510   1.93435   1.93510   1.93789   1.94336
 Alpha virt. eigenvalues --    1.94612   1.95019   1.95220   1.95665   1.95766
 Alpha virt. eigenvalues --    1.96250   1.96391   1.96528   1.97588   1.98557
 Alpha virt. eigenvalues --    1.99896   1.99975   2.00115   2.00318   2.01094
 Alpha virt. eigenvalues --    2.01944   2.02287   2.03016   2.03880   2.04136
 Alpha virt. eigenvalues --    2.05026   2.05761   2.06351   2.06624   2.08644
 Alpha virt. eigenvalues --    2.10461   2.11425   2.12120   2.13176   2.14246
 Alpha virt. eigenvalues --    2.15364   2.17136   2.18084   2.21479   2.21870
 Alpha virt. eigenvalues --    2.22833   2.24775   2.25526   2.26365   2.26790
 Alpha virt. eigenvalues --    2.29119   2.29430   2.31051   2.32126   2.32224
 Alpha virt. eigenvalues --    2.33144   2.33468   2.33761   2.34030   2.34216
 Alpha virt. eigenvalues --    2.34510   2.34884   2.35210   2.35493   2.36028
 Alpha virt. eigenvalues --    2.36269   2.36652   2.36980   2.37474   2.37841
 Alpha virt. eigenvalues --    2.38073   2.38118   2.39472   2.39702   2.39767
 Alpha virt. eigenvalues --    2.40753   2.41006   2.42576   2.45243   2.46662
 Alpha virt. eigenvalues --    2.48044   2.48601   2.49332   2.51783   2.53030
 Alpha virt. eigenvalues --    2.53287   2.54254   2.54392   2.54539   2.55375
 Alpha virt. eigenvalues --    2.55805   2.56471   2.58381   2.58654   2.59637
 Alpha virt. eigenvalues --    2.61122   2.61378   2.62249   2.63245   2.64562
 Alpha virt. eigenvalues --    2.65435   2.66286   2.67171   2.67260   2.67391
 Alpha virt. eigenvalues --    2.67633   2.68228   2.68480   2.68744   2.68970
 Alpha virt. eigenvalues --    2.69825   2.70063   2.71861   2.75796   2.76462
 Alpha virt. eigenvalues --    2.76986   2.77595   2.78785   2.80013   2.80925
 Alpha virt. eigenvalues --    2.81815   2.83200   2.84966   2.85550   2.86673
 Alpha virt. eigenvalues --    2.87016   2.87972   2.88958   2.91116   2.98158
 Alpha virt. eigenvalues --    2.99835   3.00070   3.01217   3.01891   3.03766
 Alpha virt. eigenvalues --    3.04359   3.04844   3.05548   3.05805   3.06588
 Alpha virt. eigenvalues --    3.07568   3.09550   3.12027   3.12336   3.12518
 Alpha virt. eigenvalues --    3.14171   3.14759   3.15066   3.16755   3.17147
 Alpha virt. eigenvalues --    3.18013   3.19327   3.19592   3.20068   3.21730
 Alpha virt. eigenvalues --    3.22177   3.22457   3.23339   3.23410   3.25583
 Alpha virt. eigenvalues --    3.28311   3.30728   3.35260   3.35595   3.36156
 Alpha virt. eigenvalues --    3.38447   3.41656   3.42707   3.43452   3.48677
 Alpha virt. eigenvalues --    3.54617   3.56831   3.57495   3.57670   3.59949
 Alpha virt. eigenvalues --    3.64227   3.73058   3.82429   3.93243   3.95310
 Alpha virt. eigenvalues --   18.76328  19.01514  21.05409  21.20349  21.22708
 Alpha virt. eigenvalues --   21.34205  21.62129  21.69301  21.70336  21.72388
 Alpha virt. eigenvalues --   21.73640  21.74487  21.81341  21.86862  21.91062
 Alpha virt. eigenvalues --   21.92296  21.92857  21.96283  21.98374  21.98969
 Alpha virt. eigenvalues --   22.03994  22.04112  22.08150  22.11368  22.16728
 Alpha virt. eigenvalues --   22.17418  32.04484
          Condensed to atoms (all electrons):
               1          2          3          4          5          6
     1  C    5.819990   0.092267  -0.156115  -0.064967   0.003386  -0.037788
     2  C    0.092267   5.902185   0.431863  -0.079273  -0.012139  -0.010131
     3  S   -0.156115   0.431863  15.559205  -0.100324  -0.136081   0.408356
     4  C   -0.064967  -0.079273  -0.100324   6.018108  -0.003476   0.034544
     5  C    0.003386  -0.012139  -0.136081  -0.003476   5.655074  -0.004079
     6  C   -0.037788  -0.010131   0.408356   0.034544  -0.004079   5.926389
     7  C    0.079893   0.126953   0.029492  -0.181890  -0.004280  -0.010151
     8  C   -0.401462   0.121166   0.026462  -0.049736  -0.000211  -0.003537
     9  H    0.001012   0.019490   0.000040  -0.034195   0.000007  -0.000011
    10  C   -0.003109   0.001358   0.042769   0.001130  -0.034994   0.214203
    11  C    0.004358  -0.009993  -0.148935  -0.006932   0.256222  -0.152204
    12  C    0.000246  -0.000649   0.048726   0.000474  -0.321443   0.284557
    13  C   -0.000100  -0.002546  -0.014416  -0.000539   0.231961  -0.320312
    14  H    0.000005  -0.000023  -0.000165   0.000003  -0.048760   0.017560
    15  H    0.002797  -0.001389  -0.008568  -0.001847   0.031458  -0.101317
    16  H    0.000059   0.000029  -0.000145   0.000005  -0.003514   0.017808
    17  C    0.220661  -0.210286  -0.006288   0.217556   0.000239   0.002130
    18  H    0.425103  -0.096337  -0.019305   0.009143  -0.002811   0.021808
    19  H    0.000990  -0.000465  -0.002449  -0.000846   0.454831  -0.098224
    20  H   -0.069529   0.024658  -0.000091  -0.002256   0.000005   0.000026
    21  H   -0.003361   0.032645  -0.000156  -0.123152  -0.000003   0.000017
    22  H    0.025401  -0.005062   0.000003   0.028643   0.000004   0.000007
    23  S    0.034836  -0.152427   0.021787   0.468238   0.000154   0.000151
    24  N   -0.000028  -0.000011  -0.000034  -0.000000   0.016761   0.002461
    25  C    0.000017  -0.000015   0.000020  -0.000001  -0.005506   0.003004
    26  C   -0.000001   0.000001  -0.000000   0.000000  -0.000317   0.000179
    27  C    0.000003  -0.000004   0.000006  -0.000000   0.002892  -0.001175
    28  C   -0.000000   0.000000  -0.000000   0.000000  -0.000055   0.000016
    29  C    0.000000  -0.000000   0.000000  -0.000000   0.000076  -0.000103
    30  C   -0.000000   0.000000   0.000000   0.000000   0.000016  -0.000007
    31  H    0.000000  -0.000000   0.000000  -0.000000   0.000011  -0.000003
    32  H    0.000000  -0.000001   0.000008  -0.000000  -0.000159   0.000933
    33  H    0.000000  -0.000000   0.000000  -0.000000   0.000000  -0.000000
    34  H    0.000000  -0.000000  -0.000000   0.000000  -0.000001  -0.000002
    35  H   -0.000000   0.000000  -0.000000   0.000000  -0.000000  -0.000000
    36  C   -0.000004  -0.000002  -0.000031  -0.000000  -0.003261   0.001132
    37  C    0.000003  -0.000000   0.000002  -0.000000   0.000781   0.000293
    38  C   -0.000164   0.000015  -0.000019   0.000002  -0.006307  -0.001855
    39  C   -0.000000  -0.000000  -0.000000   0.000000   0.000030   0.000024
    40  C   -0.000014   0.000001  -0.000001   0.000000  -0.000582  -0.000148
    41  C    0.000000  -0.000000   0.000000  -0.000000  -0.000058  -0.000002
    42  H   -0.000000   0.000000  -0.000000   0.000000   0.000014  -0.000009
    43  H    0.000089   0.000012  -0.000000  -0.000001  -0.002698   0.000578
    44  H   -0.000000   0.000000  -0.000000   0.000000  -0.000002  -0.000000
    45  H   -0.000000  -0.000000  -0.000000   0.000000   0.000025  -0.000003
    46  H    0.000000  -0.000000   0.000000  -0.000000  -0.000001  -0.000000
               7          8          9         10         11         12
     1  C    0.079893  -0.401462   0.001012  -0.003109   0.004358   0.000246
     2  C    0.126953   0.121166   0.019490   0.001358  -0.009993  -0.000649
     3  S    0.029492   0.026462   0.000040   0.042769  -0.148935   0.048726
     4  C   -0.181890  -0.049736  -0.034195   0.001130  -0.006932   0.000474
     5  C   -0.004280  -0.000211   0.000007  -0.034994   0.256222  -0.321443
     6  C   -0.010151  -0.003537  -0.000011   0.214203  -0.152204   0.284557
     7  C    5.313097   0.246414  -0.001088   0.000756  -0.004774   0.001144
     8  C    0.246414   5.949724  -0.035892  -0.000026   0.000817   0.000028
     9  H   -0.001088  -0.035892   0.623511  -0.000000  -0.000000  -0.000000
    10  C    0.000756  -0.000026  -0.000000   5.706090  -0.309616   0.091679
    11  C   -0.004774   0.000817  -0.000000  -0.309616   5.805862  -0.118016
    12  C    0.001144   0.000028  -0.000000   0.091679  -0.118016   5.787717
    13  C   -0.000258   0.000027   0.000000   0.103921   0.270414   0.060047
    14  H    0.000002  -0.000000  -0.000000   0.414537  -0.003259   0.014616
    15  H   -0.000976  -0.000018   0.000002  -0.009637   0.470786  -0.088890
    16  H    0.000013   0.000000  -0.000000   0.014943  -0.047174   0.413595
    17  C    0.231426  -0.062399   0.006051  -0.000014  -0.000216  -0.000026
    18  H   -0.040188   0.001802   0.000006   0.001650  -0.000550   0.000115
    19  H   -0.000437   0.000019   0.000000  -0.083583   0.038245  -0.012713
    20  H    0.427010   0.022343  -0.000003  -0.000006  -0.000021  -0.000013
    21  H    0.017984   0.447878  -0.000657   0.000000   0.000007   0.000000
    22  H   -0.074556  -0.083243   0.000036  -0.000000   0.000001  -0.000000
    23  S   -0.010184  -0.149068   0.325674   0.000006   0.000110   0.000000
    24  N    0.000002  -0.000000   0.000000  -0.018535   0.015609  -0.021462
    25  C    0.000002   0.000000  -0.000000  -0.002247  -0.006604   0.034221
    26  C   -0.000000  -0.000000   0.000000  -0.011185   0.000975   0.020767
    27  C   -0.000000   0.000000  -0.000000   0.019332  -0.007129  -0.066216
    28  C    0.000000  -0.000000  -0.000000  -0.000216   0.000023   0.002815
    29  C    0.000000   0.000000  -0.000000   0.001199  -0.000906  -0.010812
    30  C   -0.000000  -0.000000   0.000000   0.000013  -0.000013  -0.000338
    31  H    0.000000   0.000000  -0.000000  -0.000280  -0.000016   0.000428
    32  H    0.000000   0.000000   0.000000   0.000193  -0.002559   0.004705
    33  H    0.000000   0.000000  -0.000000   0.000002  -0.000002  -0.000037
    34  H    0.000000   0.000000  -0.000000  -0.000024   0.000019   0.000029
    35  H   -0.000000  -0.000000   0.000000   0.000000  -0.000001  -0.000013
    36  C   -0.000001   0.000000   0.000000   0.020075  -0.002162  -0.009361
    37  C    0.000000   0.000000  -0.000000   0.021884  -0.000548  -0.010343
    38  C    0.000013  -0.000000   0.000000  -0.064857   0.003123   0.016513
    39  C   -0.000000  -0.000000  -0.000000   0.002768  -0.000064  -0.000134
    40  C    0.000000  -0.000000   0.000000  -0.010982   0.000105   0.001033
    41  C    0.000000   0.000000  -0.000000  -0.000088   0.000011   0.000023
    42  H   -0.000000  -0.000000   0.000000   0.000410   0.000027  -0.000365
    43  H    0.000004   0.000000   0.000000   0.005641   0.000221  -0.000531
    44  H   -0.000000  -0.000000   0.000000  -0.000039   0.000000   0.000002
    45  H    0.000000   0.000000  -0.000000  -0.000005   0.000000  -0.000026
    46  H    0.000000   0.000000  -0.000000  -0.000013  -0.000000   0.000000
              13         14         15         16         17         18
     1  C   -0.000100   0.000005   0.002797   0.000059   0.220661   0.425103
     2  C   -0.002546  -0.000023  -0.001389   0.000029  -0.210286  -0.096337
     3  S   -0.014416  -0.000165  -0.008568  -0.000145  -0.006288  -0.019305
     4  C   -0.000539   0.000003  -0.001847   0.000005   0.217556   0.009143
     5  C    0.231961  -0.048760   0.031458  -0.003514   0.000239  -0.002811
     6  C   -0.320312   0.017560  -0.101317   0.017808   0.002130   0.021808
     7  C   -0.000258   0.000002  -0.000976   0.000013   0.231426  -0.040188
     8  C    0.000027  -0.000000  -0.000018   0.000000  -0.062399   0.001802
     9  H    0.000000  -0.000000   0.000002  -0.000000   0.006051   0.000006
    10  C    0.103921   0.414537  -0.009637   0.014943  -0.000014   0.001650
    11  C    0.270414  -0.003259   0.470786  -0.047174  -0.000216  -0.000550
    12  C    0.060047   0.014616  -0.088890   0.413595  -0.000026   0.000115
    13  C    5.665511  -0.053511   0.028987  -0.054607  -0.000012  -0.001697
    14  H   -0.053511   0.517582  -0.000022  -0.000230   0.000000   0.000109
    15  H    0.028987  -0.000022   0.565876  -0.008823   0.000106   0.000605
    16  H   -0.054607  -0.000230  -0.008823   0.514866  -0.000000   0.000028
    17  C   -0.000012   0.000000   0.000106  -0.000000   5.359143   0.010781
    18  H   -0.001697   0.000109   0.000605   0.000028   0.010781   0.538178
    19  H    0.028967  -0.008999   0.000193  -0.000034   0.000014   0.000587
    20  H   -0.000011  -0.000000  -0.000008   0.000000  -0.072651  -0.008941
    21  H    0.000000   0.000000  -0.000000   0.000000  -0.056043   0.000028
    22  H    0.000000  -0.000000   0.000000  -0.000000   0.436516  -0.000339
    23  S    0.000000   0.000000   0.000183  -0.000000   0.041236  -0.000076
    24  N    0.203114  -0.008546  -0.000330  -0.008820   0.000000   0.000024
    25  C   -0.091481  -0.001020  -0.000272   0.005652  -0.000000  -0.000004
    26  C   -0.012676  -0.000267  -0.000029  -0.000180   0.000000   0.000003
    27  C    0.023769   0.000178  -0.000058  -0.000837  -0.000000  -0.000007
    28  C   -0.004138   0.000010  -0.000001   0.000563  -0.000000   0.000000
    29  C    0.003645  -0.000008   0.000012  -0.001451  -0.000000  -0.000000
    30  C    0.001617  -0.000003   0.000001   0.000289   0.000000   0.000000
    31  H   -0.001475  -0.000007  -0.000001   0.000057  -0.000000  -0.000000
    32  H   -0.002384   0.000026  -0.000066   0.001180   0.000000   0.000001
    33  H    0.000011  -0.000000  -0.000000   0.000010  -0.000000  -0.000000
    34  H   -0.000165  -0.000000  -0.000000  -0.000026  -0.000000   0.000000
    35  H    0.000014   0.000000   0.000000   0.000004   0.000000   0.000000
    36  C   -0.072542   0.004705   0.000071  -0.001503  -0.000000  -0.000069
    37  C   -0.016019  -0.000270  -0.000001  -0.000220  -0.000000  -0.000005
    38  C    0.025856  -0.000895  -0.000008   0.000168   0.000000   0.000221
    39  C   -0.004036   0.000583   0.000000   0.000011   0.000000   0.000000
    40  C    0.004686  -0.001397  -0.000000  -0.000006   0.000000   0.000030
    41  C    0.001239   0.000378  -0.000000  -0.000003  -0.000000  -0.000000
    42  H   -0.001474   0.000020   0.000000  -0.000011   0.000000  -0.000000
    43  H   -0.002331   0.001026  -0.000000  -0.000009  -0.000000   0.000113
    44  H    0.000017   0.000009  -0.000000  -0.000000   0.000000   0.000000
    45  H   -0.000144  -0.000031   0.000000  -0.000000  -0.000000  -0.000001
    46  H    0.000014   0.000005  -0.000000   0.000000  -0.000000  -0.000000
              19         20         21         22         23         24
     1  C    0.000990  -0.069529  -0.003361   0.025401   0.034836  -0.000028
     2  C   -0.000465   0.024658   0.032645  -0.005062  -0.152427  -0.000011
     3  S   -0.002449  -0.000091  -0.000156   0.000003   0.021787  -0.000034
     4  C   -0.000846  -0.002256  -0.123152   0.028643   0.468238  -0.000000
     5  C    0.454831   0.000005  -0.000003   0.000004   0.000154   0.016761
     6  C   -0.098224   0.000026   0.000017   0.000007   0.000151   0.002461
     7  C   -0.000437   0.427010   0.017984  -0.074556  -0.010184   0.000002
     8  C    0.000019   0.022343   0.447878  -0.083243  -0.149068  -0.000000
     9  H    0.000000  -0.000003  -0.000657   0.000036   0.325674   0.000000
    10  C   -0.083583  -0.000006   0.000000  -0.000000   0.000006  -0.018535
    11  C    0.038245  -0.000021   0.000007   0.000001   0.000110   0.015609
    12  C   -0.012713  -0.000013   0.000000  -0.000000   0.000000  -0.021462
    13  C    0.028967  -0.000011   0.000000   0.000000   0.000000   0.203114
    14  H   -0.008999  -0.000000   0.000000  -0.000000   0.000000  -0.008546
    15  H    0.000193  -0.000008  -0.000000   0.000000   0.000183  -0.000330
    16  H   -0.000034   0.000000   0.000000  -0.000000  -0.000000  -0.008820
    17  C    0.000014  -0.072651  -0.056043   0.436516   0.041236   0.000000
    18  H    0.000587  -0.008941   0.000028  -0.000339  -0.000076   0.000024
    19  H    0.569538   0.000000   0.000000  -0.000000  -0.000008  -0.000368
    20  H    0.000000   0.589003  -0.000354  -0.009569  -0.000022   0.000000
    21  H    0.000000  -0.000354   0.608795  -0.010694  -0.017908   0.000000
    22  H   -0.000000  -0.009569  -0.010694   0.591736  -0.000067   0.000000
    23  S   -0.000008  -0.000022  -0.017908  -0.000067  15.489584   0.000000
    24  N   -0.000368   0.000000   0.000000   0.000000   0.000000   6.518328
    25  C    0.000019  -0.000000   0.000000  -0.000000  -0.000000   0.148502
    26  C    0.000002   0.000000  -0.000000   0.000000   0.000000  -0.008031
    27  C   -0.000021   0.000000   0.000000  -0.000000  -0.000000  -0.009252
    28  C    0.000000   0.000000  -0.000000   0.000000  -0.000000   0.014374
    29  C   -0.000001  -0.000000   0.000000  -0.000000  -0.000000   0.015146
    30  C    0.000000   0.000000  -0.000000   0.000000   0.000000   0.005899
    31  H   -0.000000   0.000000   0.000000  -0.000000  -0.000000  -0.007860
    32  H   -0.000008  -0.000000   0.000000  -0.000000   0.000000  -0.006491
    33  H   -0.000000  -0.000000   0.000000  -0.000000  -0.000000  -0.000625
    34  H    0.000000  -0.000000   0.000000  -0.000000   0.000000  -0.000654
    35  H    0.000000   0.000000  -0.000000   0.000000   0.000000  -0.000048
    36  C   -0.000051   0.000000   0.000000  -0.000000   0.000000   0.149814
    37  C   -0.000040   0.000000   0.000000  -0.000000  -0.000000  -0.008953
    38  C    0.000070  -0.000001  -0.000000   0.000000   0.000000  -0.005895
    39  C   -0.000002  -0.000000  -0.000000   0.000000   0.000000   0.013760
    40  C    0.000032  -0.000000  -0.000000   0.000000   0.000000   0.014565
    41  C   -0.000004   0.000000   0.000000  -0.000000  -0.000000   0.006049
    42  H    0.000000   0.000000   0.000000   0.000000  -0.000000  -0.007745
    43  H   -0.000072   0.000008   0.000000  -0.000000  -0.000000  -0.007458
    44  H    0.000000  -0.000000  -0.000000   0.000000   0.000000  -0.000628
    45  H    0.000000   0.000000  -0.000000   0.000000   0.000000  -0.000640
    46  H   -0.000000   0.000000   0.000000  -0.000000  -0.000000  -0.000047
              25         26         27         28         29         30
     1  C    0.000017  -0.000001   0.000003  -0.000000   0.000000  -0.000000
     2  C   -0.000015   0.000001  -0.000004   0.000000  -0.000000   0.000000
     3  S    0.000020  -0.000000   0.000006  -0.000000   0.000000   0.000000
     4  C   -0.000001   0.000000  -0.000000   0.000000  -0.000000   0.000000
     5  C   -0.005506  -0.000317   0.002892  -0.000055   0.000076   0.000016
     6  C    0.003004   0.000179  -0.001175   0.000016  -0.000103  -0.000007
     7  C    0.000002  -0.000000  -0.000000   0.000000   0.000000  -0.000000
     8  C    0.000000  -0.000000   0.000000  -0.000000   0.000000  -0.000000
     9  H   -0.000000   0.000000  -0.000000  -0.000000  -0.000000   0.000000
    10  C   -0.002247  -0.011185   0.019332  -0.000216   0.001199   0.000013
    11  C   -0.006604   0.000975  -0.007129   0.000023  -0.000906  -0.000013
    12  C    0.034221   0.020767  -0.066216   0.002815  -0.010812  -0.000338
    13  C   -0.091481  -0.012676   0.023769  -0.004138   0.003645   0.001617
    14  H   -0.001020  -0.000267   0.000178   0.000010  -0.000008  -0.000003
    15  H   -0.000272  -0.000029  -0.000058  -0.000001   0.000012   0.000001
    16  H    0.005652  -0.000180  -0.000837   0.000563  -0.001451   0.000289
    17  C   -0.000000   0.000000  -0.000000  -0.000000  -0.000000   0.000000
    18  H   -0.000004   0.000003  -0.000007   0.000000  -0.000000   0.000000
    19  H    0.000019   0.000002  -0.000021   0.000000  -0.000001   0.000000
    20  H   -0.000000   0.000000   0.000000   0.000000  -0.000000   0.000000
    21  H    0.000000  -0.000000   0.000000  -0.000000   0.000000  -0.000000
    22  H   -0.000000   0.000000  -0.000000   0.000000  -0.000000   0.000000
    23  S   -0.000000   0.000000  -0.000000  -0.000000  -0.000000   0.000000
    24  N    0.148502  -0.008031  -0.009252   0.014374   0.015146   0.005899
    25  C    5.507176   0.347396   0.340560   0.025615   0.023284  -0.106624
    26  C    0.347396   5.218347  -0.037605   0.355837  -0.144198  -0.014893
    27  C    0.340560  -0.037605   5.264389  -0.140453   0.348822  -0.016750
    28  C    0.025615   0.355837  -0.140453   5.096196   0.037823   0.418885
    29  C    0.023284  -0.144198   0.348822   0.037823   5.097629   0.422792
    30  C   -0.106624  -0.014893  -0.016750   0.418885   0.422792   5.065415
    31  H   -0.037876   0.404756   0.014133  -0.049558  -0.001990   0.011462
    32  H   -0.039529   0.013700   0.402024  -0.001741  -0.042425   0.010906
    33  H    0.019372  -0.054122  -0.002652   0.419309   0.017499  -0.069768
    34  H    0.018796  -0.002451  -0.052867   0.017133   0.417933  -0.068664
    35  H   -0.008443   0.025178   0.025774  -0.072675  -0.072311   0.433486
    36  C   -0.100121   0.033372  -0.006664  -0.003305  -0.006364   0.003057
    37  C    0.031191  -0.056624   0.010097  -0.005136   0.004665  -0.001556
    38  C   -0.004124   0.008436  -0.009366   0.000801  -0.000172   0.000019
    39  C   -0.004063  -0.004439   0.000835  -0.000211   0.000106  -0.000062
    40  C   -0.006551   0.005023  -0.000254   0.000140  -0.000080   0.000035
    41  C    0.003313  -0.001853   0.000052  -0.000078   0.000037  -0.000021
    42  H    0.004633   0.001356  -0.001664  -0.001573   0.000640   0.000420
    43  H   -0.001175   0.000388  -0.000265  -0.000015   0.000020  -0.000007
    44  H   -0.000258   0.000140  -0.000039   0.000025  -0.000005   0.000001
    45  H   -0.000008  -0.000018   0.000001  -0.000002   0.000000   0.000000
    46  H    0.000024  -0.000024   0.000001  -0.000001   0.000000  -0.000000
              31         32         33         34         35         36
     1  C    0.000000   0.000000   0.000000   0.000000  -0.000000  -0.000004
     2  C   -0.000000  -0.000001  -0.000000  -0.000000   0.000000  -0.000002
     3  S    0.000000   0.000008   0.000000  -0.000000  -0.000000  -0.000031
     4  C   -0.000000  -0.000000  -0.000000   0.000000   0.000000  -0.000000
     5  C    0.000011  -0.000159   0.000000  -0.000001  -0.000000  -0.003261
     6  C   -0.000003   0.000933  -0.000000  -0.000002  -0.000000   0.001132
     7  C    0.000000   0.000000   0.000000   0.000000  -0.000000  -0.000001
     8  C    0.000000   0.000000   0.000000   0.000000  -0.000000   0.000000
     9  H   -0.000000   0.000000  -0.000000  -0.000000   0.000000   0.000000
    10  C   -0.000280   0.000193   0.000002  -0.000024   0.000000   0.020075
    11  C   -0.000016  -0.002559  -0.000002   0.000019  -0.000001  -0.002162
    12  C    0.000428   0.004705  -0.000037   0.000029  -0.000013  -0.009361
    13  C   -0.001475  -0.002384   0.000011  -0.000165   0.000014  -0.072542
    14  H   -0.000007   0.000026  -0.000000  -0.000000   0.000000   0.004705
    15  H   -0.000001  -0.000066  -0.000000  -0.000000   0.000000   0.000071
    16  H    0.000057   0.001180   0.000010  -0.000026   0.000004  -0.001503
    17  C   -0.000000   0.000000  -0.000000  -0.000000   0.000000  -0.000000
    18  H   -0.000000   0.000001  -0.000000   0.000000   0.000000  -0.000069
    19  H   -0.000000  -0.000008  -0.000000   0.000000   0.000000  -0.000051
    20  H    0.000000  -0.000000  -0.000000  -0.000000   0.000000   0.000000
    21  H    0.000000   0.000000   0.000000   0.000000  -0.000000   0.000000
    22  H   -0.000000  -0.000000  -0.000000  -0.000000   0.000000  -0.000000
    23  S   -0.000000   0.000000  -0.000000   0.000000   0.000000   0.000000
    24  N   -0.007860  -0.006491  -0.000625  -0.000654  -0.000048   0.149814
    25  C   -0.037876  -0.039529   0.019372   0.018796  -0.008443  -0.100121
    26  C    0.404756   0.013700  -0.054122  -0.002451   0.025178   0.033372
    27  C    0.014133   0.402024  -0.002652  -0.052867   0.025774  -0.006664
    28  C   -0.049558  -0.001741   0.419309   0.017133  -0.072675  -0.003305
    29  C   -0.001990  -0.042425   0.017499   0.417933  -0.072311  -0.006364
    30  C    0.011462   0.010906  -0.069768  -0.068664   0.433486   0.003057
    31  H    0.529672  -0.000249  -0.007706   0.000015  -0.000093   0.004020
    32  H   -0.000249   0.520028   0.000012  -0.007501  -0.000091  -0.001505
    33  H   -0.007706   0.000012   0.581827  -0.000229  -0.009084  -0.000258
    34  H    0.000015  -0.007501  -0.000229   0.580321  -0.008982  -0.000005
    35  H   -0.000093  -0.000091  -0.009084  -0.008982   0.581085   0.000024
    36  C    0.004020  -0.001505  -0.000258  -0.000005   0.000024   5.517577
    37  C    0.001767   0.000636   0.000131  -0.000026  -0.000024   0.339559
    38  C   -0.001478  -0.000343  -0.000037   0.000002   0.000001   0.330520
    39  C   -0.001653   0.000001   0.000024  -0.000002  -0.000001   0.030361
    40  C    0.000498   0.000017  -0.000005   0.000000   0.000000   0.034729
    41  C    0.000466  -0.000007   0.000001   0.000000  -0.000000  -0.110960
    42  H    0.000868   0.000083  -0.000038   0.000004   0.000002  -0.037793
    43  H    0.000122  -0.000009   0.000000  -0.000000  -0.000000  -0.038364
    44  H   -0.000040   0.000000  -0.000000  -0.000000   0.000000   0.019747
    45  H    0.000002  -0.000000  -0.000000  -0.000000  -0.000000   0.019142
    46  H    0.000002  -0.000000   0.000000  -0.000000  -0.000000  -0.008756
              37         38         39         40         41         42
     1  C    0.000003  -0.000164  -0.000000  -0.000014   0.000000  -0.000000
     2  C   -0.000000   0.000015  -0.000000   0.000001  -0.000000   0.000000
     3  S    0.000002  -0.000019  -0.000000  -0.000001   0.000000  -0.000000
     4  C   -0.000000   0.000002   0.000000   0.000000  -0.000000   0.000000
     5  C    0.000781  -0.006307   0.000030  -0.000582  -0.000058   0.000014
     6  C    0.000293  -0.001855   0.000024  -0.000148  -0.000002  -0.000009
     7  C    0.000000   0.000013  -0.000000   0.000000   0.000000  -0.000000
     8  C    0.000000  -0.000000  -0.000000  -0.000000   0.000000  -0.000000
     9  H   -0.000000   0.000000  -0.000000   0.000000  -0.000000   0.000000
    10  C    0.021884  -0.064857   0.002768  -0.010982  -0.000088   0.000410
    11  C   -0.000548   0.003123  -0.000064   0.000105   0.000011   0.000027
    12  C   -0.010343   0.016513  -0.000134   0.001033   0.000023  -0.000365
    13  C   -0.016019   0.025856  -0.004036   0.004686   0.001239  -0.001474
    14  H   -0.000270  -0.000895   0.000583  -0.001397   0.000378   0.000020
    15  H   -0.000001  -0.000008   0.000000  -0.000000  -0.000000   0.000000
    16  H   -0.000220   0.000168   0.000011  -0.000006  -0.000003  -0.000011
    17  C   -0.000000   0.000000   0.000000   0.000000  -0.000000   0.000000
    18  H   -0.000005   0.000221   0.000000   0.000030  -0.000000  -0.000000
    19  H   -0.000040   0.000070  -0.000002   0.000032  -0.000004   0.000000
    20  H    0.000000  -0.000001  -0.000000  -0.000000   0.000000   0.000000
    21  H    0.000000  -0.000000  -0.000000  -0.000000   0.000000   0.000000
    22  H   -0.000000   0.000000   0.000000   0.000000  -0.000000   0.000000
    23  S   -0.000000   0.000000   0.000000   0.000000  -0.000000  -0.000000
    24  N   -0.008953  -0.005895   0.013760   0.014565   0.006049  -0.007745
    25  C    0.031191  -0.004124  -0.004063  -0.006551   0.003313   0.004633
    26  C   -0.056624   0.008436  -0.004439   0.005023  -0.001853   0.001356
    27  C    0.010097  -0.009366   0.000835  -0.000254   0.000052  -0.001664
    28  C   -0.005136   0.000801  -0.000211   0.000140  -0.000078  -0.001573
    29  C    0.004665  -0.000172   0.000106  -0.000080   0.000037   0.000640
    30  C   -0.001556   0.000019  -0.000062   0.000035  -0.000021   0.000420
    31  H    0.001767  -0.001478  -0.001653   0.000498   0.000466   0.000868
    32  H    0.000636  -0.000343   0.000001   0.000017  -0.000007   0.000083
    33  H    0.000131  -0.000037   0.000024  -0.000005   0.000001  -0.000038
    34  H   -0.000026   0.000002  -0.000002   0.000000   0.000000   0.000004
    35  H   -0.000024   0.000001  -0.000001   0.000000  -0.000000   0.000002
    36  C    0.339559   0.330520   0.030361   0.034729  -0.110960  -0.037793
    37  C    5.221993  -0.030613   0.353110  -0.149811  -0.012087   0.404612
    38  C   -0.030613   5.272351  -0.145645   0.336769  -0.010101   0.014262
    39  C    0.353110  -0.145645   5.098706   0.043021   0.416047  -0.049530
    40  C   -0.149811   0.336769   0.043021   5.112115   0.416517  -0.002037
    41  C   -0.012087  -0.010101   0.416047   0.416517   5.066056   0.011475
    42  H    0.404612   0.014262  -0.049530  -0.002037   0.011475   0.528395
    43  H    0.014241   0.398929  -0.001731  -0.044817   0.010795  -0.000255
    44  H   -0.054516  -0.002975   0.419978   0.017935  -0.070480  -0.007696
    45  H   -0.002562  -0.054337   0.017292   0.418762  -0.068275   0.000014
    46  H    0.025528   0.026418  -0.073342  -0.073801   0.434839  -0.000088
              43         44         45         46
     1  C    0.000089  -0.000000  -0.000000   0.000000
     2  C    0.000012   0.000000  -0.000000  -0.000000
     3  S   -0.000000  -0.000000  -0.000000   0.000000
     4  C   -0.000001   0.000000   0.000000  -0.000000
     5  C   -0.002698  -0.000002   0.000025  -0.000001
     6  C    0.000578  -0.000000  -0.000003  -0.000000
     7  C    0.000004  -0.000000   0.000000   0.000000
     8  C    0.000000  -0.000000   0.000000   0.000000
     9  H    0.000000   0.000000  -0.000000  -0.000000
    10  C    0.005641  -0.000039  -0.000005  -0.000013
    11  C    0.000221   0.000000   0.000000  -0.000000
    12  C   -0.000531   0.000002  -0.000026   0.000000
    13  C   -0.002331   0.000017  -0.000144   0.000014
    14  H    0.001026   0.000009  -0.000031   0.000005
    15  H   -0.000000  -0.000000   0.000000  -0.000000
    16  H   -0.000009  -0.000000  -0.000000   0.000000
    17  C   -0.000000   0.000000  -0.000000  -0.000000
    18  H    0.000113   0.000000  -0.000001  -0.000000
    19  H   -0.000072   0.000000   0.000000  -0.000000
    20  H    0.000008  -0.000000   0.000000   0.000000
    21  H    0.000000  -0.000000  -0.000000   0.000000
    22  H   -0.000000   0.000000   0.000000  -0.000000
    23  S   -0.000000   0.000000   0.000000  -0.000000
    24  N   -0.007458  -0.000628  -0.000640  -0.000047
    25  C   -0.001175  -0.000258  -0.000008   0.000024
    26  C    0.000388   0.000140  -0.000018  -0.000024
    27  C   -0.000265  -0.000039   0.000001   0.000001
    28  C   -0.000015   0.000025  -0.000002  -0.000001
    29  C    0.000020  -0.000005   0.000000   0.000000
    30  C   -0.000007   0.000001   0.000000  -0.000000
    31  H    0.000122  -0.000040   0.000002   0.000002
    32  H   -0.000009   0.000000  -0.000000  -0.000000
    33  H    0.000000  -0.000000  -0.000000   0.000000
    34  H   -0.000000  -0.000000  -0.000000  -0.000000
    35  H   -0.000000   0.000000  -0.000000  -0.000000
    36  C   -0.038364   0.019747   0.019142  -0.008756
    37  C    0.014241  -0.054516  -0.002562   0.025528
    38  C    0.398929  -0.002975  -0.054337   0.026418
    39  C   -0.001731   0.419978   0.017292  -0.073342
    40  C   -0.044817   0.017935   0.418762  -0.073801
    41  C    0.010795  -0.070480  -0.068275   0.434839
    42  H   -0.000255  -0.007696   0.000014  -0.000088
    43  H    0.523625   0.000006  -0.007566  -0.000080
    44  H    0.000006   0.581671  -0.000225  -0.009140
    45  H   -0.007566  -0.000225   0.581946  -0.009117
    46  H   -0.000080  -0.009140  -0.009117   0.581566
 Mulliken charges:
               1
     1  C    0.025526
     2  C   -0.171892
     3  S    0.024386
     4  C   -0.128408
     5  C   -0.063210
     6  C   -0.195116
     7  C   -0.145423
     8  C   -0.031089
     9  H    0.096018
    10  C   -0.115104
    11  C   -0.045239
    12  C   -0.122088
    13  C    0.003055
    14  H    0.156058
    15  H    0.121190
    16  H    0.158313
    17  C   -0.117924
    18  H    0.159994
    19  H    0.114816
    20  H    0.100423
    21  H    0.104973
    22  H    0.101183
    23  S   -0.052199
    24  N   -0.001946
    25  C   -0.096873
    26  C   -0.086940
    27  C   -0.099589
    28  C   -0.110408
    29  C   -0.110500
    30  C   -0.095607
    31  H    0.142006
    32  H    0.150615
    33  H    0.106364
    34  H    0.107346
    35  H    0.106198
    36  C   -0.104822
    37  C   -0.081139
    38  C   -0.095300
    39  C   -0.111743
    40  C   -0.115527
    41  C   -0.093283
    42  H    0.143041
    43  H    0.151566
    44  H    0.106511
    45  H    0.105774
    46  H    0.106013
 Sum of Mulliken charges =  -0.00000
 Mulliken charges with hydrogens summed into heavy atoms:
               1
     1  C    0.185519
     2  C   -0.171892
     3  S    0.024386
     4  C   -0.128408
     5  C    0.051605
     6  C   -0.195116
     7  C   -0.045000
     8  C    0.073884
    10  C    0.040955
    11  C    0.075951
    12  C    0.036225
    13  C    0.003055
    17  C   -0.016741
    23  S    0.043819
    24  N   -0.001946
    25  C   -0.096873
    26  C    0.055066
    27  C    0.051026
    28  C   -0.004044
    29  C   -0.003154
    30  C    0.010591
    36  C   -0.104822
    37  C    0.061902
    38  C    0.056266
    39  C   -0.005232
    40  C   -0.009752
    41  C    0.012729
 Electronic spatial extent (au):  <R**2>=          15344.2819
 Charge=             -0.0000 electrons
 Dipole moment (field-independent basis, Debye):
    X=              2.2641    Y=              1.2411    Z=              1.4597  Tot=              2.9660
 Quadrupole moment (field-independent basis, Debye-Ang):
   XX=           -154.2628   YY=           -163.0669   ZZ=           -171.7070
   XY=             -5.4838   XZ=             -6.7411   YZ=              1.2035
 Traceless Quadrupole moment (field-independent basis, Debye-Ang):
   XX=              8.7495   YY=             -0.0547   ZZ=             -8.6948
   XY=             -5.4838   XZ=             -6.7411   YZ=              1.2035
 Octapole moment (field-independent basis, Debye-Ang**2):
  XXX=            -99.3881  YYY=              4.8663  ZZZ=              2.9273  XYY=             50.9281
  XXY=             13.1789  XXZ=             44.3508  XZZ=              9.2262  YZZ=              6.6499
  YYZ=              6.2194  XYZ=            -20.3586
 Hexadecapole moment (field-independent basis, Debye-Ang**3):
 XXXX=         -14795.8833 YYYY=          -3411.3217 ZZZZ=          -1258.7149 XXXY=            -30.4763
 XXXZ=           -169.8087 YYYX=             -6.4681 YYYZ=             43.4949 ZZZX=              9.9120
 ZZZY=             24.0027 XXYY=          -3254.1942 XXZZ=          -2966.5426 YYZZ=           -808.1908
 XXYZ=            -29.8089 YYXZ=            -33.6729 ZZXY=            -60.0230
 N-N= 2.474684767360D+03 E-N=-9.117353203146D+03  KE= 1.769821452858D+03
 No NMR shielding tensors so no spin-rotation constants.
 Leave Link  601 at Mon Jan 18 20:48:52 2021, MaxMem=  4026531840 cpu:               3.3 elap:               0.5
 (Enter /opt/ohpc/pub/libs/gaussian/g16-A.03/sandybridge/g16/l9999.exe)

 Test job not archived.
 1\1\GINC-CASCADEB058\SP\RLC-wHPBE\TZVP\C24H19N1S2\RDU230\18-Jan-2021\0
 \\#P LC-wHPBE/TZVP iop(3/107=0184100000, 3/108=0184100000) scf=(conver
 =6,fermi,ndamp=35,noincfock,novaracc,vshift=500,xqc)\\H19 C24 S2 N1\\0
 ,1\C,0,-3.352046,1.022081,0.90149\C,0,-4.015603,0.124147,0.077833\S,0,
 -3.193622,-0.833868,-1.176213\C,0,-5.398593,-0.028228,0.207342\C,0,-0.
 749106,0.373785,-1.531691\C,0,-1.475477,-0.56699,-0.815552\C,0,-4.0415
 16,1.761821,1.844012\C,0,-6.080951,0.720801,1.156415\H,0,-7.475944,-0.
 835079,-0.458792\C,0,0.601771,0.54717,-1.299188\C,0,-0.823428,-1.33634
 6,0.139234\C,0,0.521569,-1.15492,0.389409\C,0,1.255724,-0.212476,-0.33
 1046\H,0,1.160253,1.275483,-1.876291\H,0,-1.383265,-2.076857,0.700814\
 H,0,1.015474,-1.752114,1.147605\C,0,-5.411167,1.613701,1.970885\H,0,-2
 .279577,1.141824,0.800598\H,0,-1.248138,0.967582,-2.290346\H,0,-3.5032
 27,2.458074,2.478369\H,0,-7.154267,0.598627,1.263844\H,0,-5.962434,2.1
 89124,2.706912\S,0,-6.238224,-1.192989,-0.835805\N,0,2.627173,-0.03758
 6,-0.087724\C,0,3.438312,-1.140752,0.276409\C,0,4.374889,-1.012928,1.2
 95896\C,0,3.317625,-2.35655,-0.387733\C,0,5.1794,-2.084309,1.64001\C,0
 ,4.112866,-3.428755,-0.025756\C,0,5.049979,-3.298472,0.986151\H,0,4.47
 0709,-0.064848,1.814448\H,0,2.593785,-2.456724,-1.189607\H,0,5.90745,-
 1.970366,2.436839\H,0,4.006805,-4.37257,-0.551042\H,0,5.67733,-4.13910
 6,1.26285\C,0,3.224517,1.239724,-0.221989\C,0,4.446224,1.376745,-0.871
 25\C,0,2.604731,2.367846,0.304633\C,0,5.03746,2.622109,-0.986244\C,0,3
 .193018,3.612223,0.169883\C,0,4.413292,3.746533,-0.472133\H,0,4.931907
 ,0.498005,-1.282066\H,0,1.656156,2.262505,0.820378\H,0,5.992055,2.7142
 7,-1.494403\H,0,2.697309,4.484427,0.584059\H,0,4.876004,4.72281,-0.569
 917\\Version=EM64L-G16RevA.03\State=1-A\HF=-1776.2160257\RMSD=7.159e-0
 7\Dipole=0.8907839,0.488283,0.5742729\Quadrupole=6.5050067,-0.0406485,
 -6.4643582,-4.0770959,-5.0118411,0.8947768\PG=C01 [X(C24H19N1S2)]\\@


 We find comfort among those who agree with us -- growth among those who don't.
 -- Frank A. Clark
 Job cpu time:       0 days  1 hours 40 minutes  6.7 seconds.
 Elapsed time:       0 days  0 hours 12 minutes 34.5 seconds.
 File lengths (MBytes):  RWF=    172 Int=      0 D2E=      0 Chk=     28 Scr=      8
 Normal termination of Gaussian 16 at Mon Jan 18 20:48:53 2021.
