 Entering Gaussian System, Link 0=g16
 Input=mol_ta_pa_half_tune_c6.gjf
 Output=mol_ta_pa_half_tune_c6.log
 Initial command:
 /opt/ohpc/pub/libs/gaussian/g16-A.03/sandybridge/g16/l1.exe "/mnt/gpfs2_4m/scratch/rdu230/ondemand/projects/init_structures/wtuning/mol_ta_pa_half/tuning_mol_ta_pa_half_ocycle0/Gau-379686.inp" -scrdir="/mnt/gpfs2_4m/scratch/rdu230/ondemand/projects/init_structures/wtuning/mol_ta_pa_half/tuning_mol_ta_pa_half_ocycle0/"
 Entering Link 1 = /opt/ohpc/pub/libs/gaussian/g16-A.03/sandybridge/g16/l1.exe PID=    379687.
  
 Copyright (c) 1988,1990,1992,1993,1995,1998,2003,2009,2016,
            Gaussian, Inc.  All Rights Reserved.
  
 This is part of the Gaussian(R) 16 program.  It is based on
 the Gaussian(R) 09 system (copyright 2009, Gaussian, Inc.),
 the Gaussian(R) 03 system (copyright 2003, Gaussian, Inc.),
 the Gaussian(R) 98 system (copyright 1998, Gaussian, Inc.),
 the Gaussian(R) 94 system (copyright 1995, Gaussian, Inc.),
 the Gaussian 92(TM) system (copyright 1992, Gaussian, Inc.),
 the Gaussian 90(TM) system (copyright 1990, Gaussian, Inc.),
 the Gaussian 88(TM) system (copyright 1988, Gaussian, Inc.),
 the Gaussian 86(TM) system (copyright 1986, Carnegie Mellon
 University), and the Gaussian 82(TM) system (copyright 1983,
 Carnegie Mellon University). Gaussian is a federally registered
 trademark of Gaussian, Inc.
  
 This software contains proprietary and confidential information,
 including trade secrets, belonging to Gaussian, Inc.
  
 This software is provided under written license and may be
 used, copied, transmitted, or stored only in accord with that
 written license.
  
 The following legend is applicable only to US Government
 contracts under FAR:
  
                    RESTRICTED RIGHTS LEGEND
  
 Use, reproduction and disclosure by the US Government is
 subject to restrictions as set forth in subparagraphs (a)
 and (c) of the Commercial Computer Software - Restricted
 Rights clause in FAR 52.227-19.
  
 Gaussian, Inc.
 340 Quinnipiac St., Bldg. 40, Wallingford CT 06492
  
  
 ---------------------------------------------------------------
 Warning -- This program may not be used in any manner that
 competes with the business of Gaussian, Inc. or will provide
 assistance to any competitor of Gaussian, Inc.  The licensee
 of this program is prohibited from giving any competitor of
 Gaussian, Inc. access to this program.  By using this program,
 the user acknowledges that Gaussian, Inc. is engaged in the
 business of creating and licensing software in the field of
 computational chemistry and represents and warrants to the
 licensee that it is not a competitor of Gaussian, Inc. and that
 it will not use this program in any manner prohibited above.
 ---------------------------------------------------------------
  

 Cite this work as:
 Gaussian 16, Revision A.03,
 M. J. Frisch, G. W. Trucks, H. B. Schlegel, G. E. Scuseria, 
 M. A. Robb, J. R. Cheeseman, G. Scalmani, V. Barone, 
 G. A. Petersson, H. Nakatsuji, X. Li, M. Caricato, A. V. Marenich, 
 J. Bloino, B. G. Janesko, R. Gomperts, B. Mennucci, H. P. Hratchian, 
 J. V. Ortiz, A. F. Izmaylov, J. L. Sonnenberg, D. Williams-Young, 
 F. Ding, F. Lipparini, F. Egidi, J. Goings, B. Peng, A. Petrone, 
 T. Henderson, D. Ranasinghe, V. G. Zakrzewski, J. Gao, N. Rega, 
 G. Zheng, W. Liang, M. Hada, M. Ehara, K. Toyota, R. Fukuda, 
 J. Hasegawa, M. Ishida, T. Nakajima, Y. Honda, O. Kitao, H. Nakai, 
 T. Vreven, K. Throssell, J. A. Montgomery, Jr., J. E. Peralta, 
 F. Ogliaro, M. J. Bearpark, J. J. Heyd, E. N. Brothers, K. N. Kudin, 
 V. N. Staroverov, T. A. Keith, R. Kobayashi, J. Normand, 
 K. Raghavachari, A. P. Rendell, J. C. Burant, S. S. Iyengar, 
 J. Tomasi, M. Cossi, J. M. Millam, M. Klene, C. Adamo, R. Cammi, 
 J. W. Ochterski, R. L. Martin, K. Morokuma, O. Farkas, 
 J. B. Foresman, and D. J. Fox, Gaussian, Inc., Wallingford CT, 2016.
 
 ******************************************
 Gaussian 16:  EM64L-G16RevA.03 25-Dec-2016
                19-Jan-2021 
 ******************************************
 %mem=30GB
 %nproc=8
 Will use up to    8 processors via shared memory.
 ----------------------------------------------------------------------
 #P LC-wHPBE/TZVP iop(3/107=0179800000, 3/108=0179800000) scf=(conver=6
 ,fermi,ndamp=35,noincfock,novaracc,vshift=500,xqc)
 ----------------------------------------------------------------------
 1/38=1,172=1/1;
 2/12=2,17=6,18=5,40=1/2;
 3/5=19,7=101,11=2,25=1,30=1,74=-71,107=179800000,108=179800000/1,2,3;
 4//1;
 5/5=100002,6=6,8=3,10=500,13=1,18=-1,22=13,38=1,93=35/2,8;
 6/7=2,8=2,9=2,10=2,28=1/1;
 99/5=1,9=1/99;
 Leave Link    1 at Tue Jan 19 01:37:12 2021, MaxMem=  4026531840 cpu:               1.3 elap:               0.2
 (Enter /opt/ohpc/pub/libs/gaussian/g16-A.03/sandybridge/g16/l101.exe)
 -------------
 H19 C24 S2 N1
 -------------
 Symbolic Z-matrix:
 Charge =  1 Multiplicity = 2
 C                    -3.35205   1.02208   0.90149 
 C                    -4.0156    0.12415   0.07783 
 S                    -3.19362  -0.83387  -1.17621 
 C                    -5.39859  -0.02823   0.20734 
 C                    -0.74911   0.37379  -1.53169 
 C                    -1.47548  -0.56699  -0.81555 
 C                    -4.04152   1.76182   1.84401 
 C                    -6.08095   0.7208    1.15641 
 H                    -7.47594  -0.83508  -0.45879 
 C                     0.60177   0.54717  -1.29919 
 C                    -0.82343  -1.33635   0.13923 
 C                     0.52157  -1.15492   0.38941 
 C                     1.25572  -0.21248  -0.33105 
 H                     1.16025   1.27548  -1.87629 
 H                    -1.38327  -2.07686   0.70081 
 H                     1.01547  -1.75211   1.1476 
 C                    -5.41117   1.6137    1.97089 
 H                    -2.27958   1.14182   0.8006 
 H                    -1.24814   0.96758  -2.29035 
 H                    -3.50323   2.45807   2.47837 
 H                    -7.15427   0.59863   1.26384 
 H                    -5.96243   2.18912   2.70691 
 S                    -6.23822  -1.19299  -0.83581 
 N                     2.62717  -0.03759  -0.08772 
 C                     3.43831  -1.14075   0.27641 
 C                     4.37489  -1.01293   1.2959 
 C                     3.31763  -2.35655  -0.38773 
 C                     5.1794   -2.08431   1.64001 
 C                     4.11287  -3.42876  -0.02576 
 C                     5.04998  -3.29847   0.98615 
 H                     4.47071  -0.06485   1.81445 
 H                     2.59379  -2.45672  -1.18961 
 H                     5.90745  -1.97037   2.43684 
 H                     4.0068   -4.37257  -0.55104 
 H                     5.67733  -4.13911   1.26285 
 C                     3.22452   1.23972  -0.22199 
 C                     4.44622   1.37675  -0.87125 
 C                     2.60473   2.36785   0.30463 
 C                     5.03746   2.62211  -0.98624 
 C                     3.19302   3.61222   0.16988 
 C                     4.41329   3.74653  -0.47213 
 H                     4.93191   0.49801  -1.28207 
 H                     1.65616   2.2625    0.82038 
 H                     5.99206   2.71427  -1.4944 
 H                     2.69731   4.48443   0.58406 
 H                     4.876     4.72281  -0.56992 
 
 ITRead=  0  0  0  0  0  0  0  0  0  0  0  0  0  0  0  0  0  0  0  0
 ITRead=  0  0  0  0  0  0  0  0  0  0  0  0  0  0  0  0  0  0  0  0
 ITRead=  0  0  0  0  0  0
 MicOpt= -1 -1 -1 -1 -1 -1 -1 -1 -1 -1 -1 -1 -1 -1 -1 -1 -1 -1 -1 -1
 MicOpt= -1 -1 -1 -1 -1 -1 -1 -1 -1 -1 -1 -1 -1 -1 -1 -1 -1 -1 -1 -1
 MicOpt= -1 -1 -1 -1 -1 -1
 NAtoms=     46 NQM=       46 NQMF=       0 NMMI=      0 NMMIF=      0
                NMic=       0 NMicF=      0.
                    Isotopes and Nuclear Properties:
 (Nuclear quadrupole moments (NQMom) in fm**2, nuclear magnetic moments (NMagM)
  in nuclear magnetons)

  Atom         1           2           3           4           5           6           7           8           9          10
 IAtWgt=          12          12          32          12          12          12          12          12           1          12
 AtmWgt=  12.0000000  12.0000000  31.9720718  12.0000000  12.0000000  12.0000000  12.0000000  12.0000000   1.0078250  12.0000000
 NucSpn=           0           0           0           0           0           0           0           0           1           0
 AtZEff=  -0.0000000  -0.0000000  -0.0000000  -0.0000000  -0.0000000  -0.0000000  -0.0000000  -0.0000000  -0.0000000  -0.0000000
 NQMom=    0.0000000   0.0000000   0.0000000   0.0000000   0.0000000   0.0000000   0.0000000   0.0000000   0.0000000   0.0000000
 NMagM=    0.0000000   0.0000000   0.0000000   0.0000000   0.0000000   0.0000000   0.0000000   0.0000000   2.7928460   0.0000000
 AtZNuc=   6.0000000   6.0000000  16.0000000   6.0000000   6.0000000   6.0000000   6.0000000   6.0000000   1.0000000   6.0000000

  Atom        11          12          13          14          15          16          17          18          19          20
 IAtWgt=          12          12          12           1           1           1          12           1           1           1
 AtmWgt=  12.0000000  12.0000000  12.0000000   1.0078250   1.0078250   1.0078250  12.0000000   1.0078250   1.0078250   1.0078250
 NucSpn=           0           0           0           1           1           1           0           1           1           1
 AtZEff=  -0.0000000  -0.0000000  -0.0000000  -0.0000000  -0.0000000  -0.0000000  -0.0000000  -0.0000000  -0.0000000  -0.0000000
 NQMom=    0.0000000   0.0000000   0.0000000   0.0000000   0.0000000   0.0000000   0.0000000   0.0000000   0.0000000   0.0000000
 NMagM=    0.0000000   0.0000000   0.0000000   2.7928460   2.7928460   2.7928460   0.0000000   2.7928460   2.7928460   2.7928460
 AtZNuc=   6.0000000   6.0000000   6.0000000   1.0000000   1.0000000   1.0000000   6.0000000   1.0000000   1.0000000   1.0000000

  Atom        21          22          23          24          25          26          27          28          29          30
 IAtWgt=           1           1          32          14          12          12          12          12          12          12
 AtmWgt=   1.0078250   1.0078250  31.9720718  14.0030740  12.0000000  12.0000000  12.0000000  12.0000000  12.0000000  12.0000000
 NucSpn=           1           1           0           2           0           0           0           0           0           0
 AtZEff=  -0.0000000  -0.0000000  -0.0000000  -0.0000000  -0.0000000  -0.0000000  -0.0000000  -0.0000000  -0.0000000  -0.0000000
 NQMom=    0.0000000   0.0000000   0.0000000   2.0440000   0.0000000   0.0000000   0.0000000   0.0000000   0.0000000   0.0000000
 NMagM=    2.7928460   2.7928460   0.0000000   0.4037610   0.0000000   0.0000000   0.0000000   0.0000000   0.0000000   0.0000000
 AtZNuc=   1.0000000   1.0000000  16.0000000   7.0000000   6.0000000   6.0000000   6.0000000   6.0000000   6.0000000   6.0000000

  Atom        31          32          33          34          35          36          37          38          39          40
 IAtWgt=           1           1           1           1           1          12          12          12          12          12
 AtmWgt=   1.0078250   1.0078250   1.0078250   1.0078250   1.0078250  12.0000000  12.0000000  12.0000000  12.0000000  12.0000000
 NucSpn=           1           1           1           1           1           0           0           0           0           0
 AtZEff=  -0.0000000  -0.0000000  -0.0000000  -0.0000000  -0.0000000  -0.0000000  -0.0000000  -0.0000000  -0.0000000  -0.0000000
 NQMom=    0.0000000   0.0000000   0.0000000   0.0000000   0.0000000   0.0000000   0.0000000   0.0000000   0.0000000   0.0000000
 NMagM=    2.7928460   2.7928460   2.7928460   2.7928460   2.7928460   0.0000000   0.0000000   0.0000000   0.0000000   0.0000000
 AtZNuc=   1.0000000   1.0000000   1.0000000   1.0000000   1.0000000   6.0000000   6.0000000   6.0000000   6.0000000   6.0000000

  Atom        41          42          43          44          45          46
 IAtWgt=          12           1           1           1           1           1
 AtmWgt=  12.0000000   1.0078250   1.0078250   1.0078250   1.0078250   1.0078250
 NucSpn=           0           1           1           1           1           1
 AtZEff=  -0.0000000  -0.0000000  -0.0000000  -0.0000000  -0.0000000  -0.0000000
 NQMom=    0.0000000   0.0000000   0.0000000   0.0000000   0.0000000   0.0000000
 NMagM=    0.0000000   2.7928460   2.7928460   2.7928460   2.7928460   2.7928460
 AtZNuc=   6.0000000   1.0000000   1.0000000   1.0000000   1.0000000   1.0000000
 Leave Link  101 at Tue Jan 19 01:37:12 2021, MaxMem=  4026531840 cpu:               0.8 elap:               0.1
 (Enter /opt/ohpc/pub/libs/gaussian/g16-A.03/sandybridge/g16/l202.exe)
                          Input orientation:                          
 ---------------------------------------------------------------------
 Center     Atomic      Atomic             Coordinates (Angstroms)
 Number     Number       Type             X           Y           Z
 ---------------------------------------------------------------------
      1          6           0       -3.352046    1.022081    0.901490
      2          6           0       -4.015603    0.124147    0.077833
      3         16           0       -3.193622   -0.833868   -1.176213
      4          6           0       -5.398593   -0.028228    0.207342
      5          6           0       -0.749106    0.373785   -1.531691
      6          6           0       -1.475477   -0.566990   -0.815552
      7          6           0       -4.041516    1.761821    1.844012
      8          6           0       -6.080951    0.720801    1.156415
      9          1           0       -7.475944   -0.835079   -0.458792
     10          6           0        0.601771    0.547170   -1.299188
     11          6           0       -0.823428   -1.336346    0.139234
     12          6           0        0.521569   -1.154920    0.389409
     13          6           0        1.255724   -0.212476   -0.331046
     14          1           0        1.160253    1.275483   -1.876291
     15          1           0       -1.383265   -2.076857    0.700814
     16          1           0        1.015474   -1.752114    1.147605
     17          6           0       -5.411167    1.613701    1.970885
     18          1           0       -2.279577    1.141824    0.800598
     19          1           0       -1.248138    0.967582   -2.290346
     20          1           0       -3.503227    2.458074    2.478369
     21          1           0       -7.154267    0.598627    1.263844
     22          1           0       -5.962434    2.189124    2.706912
     23         16           0       -6.238224   -1.192989   -0.835805
     24          7           0        2.627173   -0.037586   -0.087724
     25          6           0        3.438312   -1.140752    0.276409
     26          6           0        4.374889   -1.012928    1.295896
     27          6           0        3.317625   -2.356550   -0.387733
     28          6           0        5.179400   -2.084309    1.640010
     29          6           0        4.112866   -3.428755   -0.025756
     30          6           0        5.049979   -3.298472    0.986151
     31          1           0        4.470709   -0.064848    1.814448
     32          1           0        2.593785   -2.456724   -1.189607
     33          1           0        5.907450   -1.970366    2.436839
     34          1           0        4.006805   -4.372570   -0.551042
     35          1           0        5.677330   -4.139106    1.262850
     36          6           0        3.224517    1.239724   -0.221989
     37          6           0        4.446224    1.376745   -0.871250
     38          6           0        2.604731    2.367846    0.304633
     39          6           0        5.037460    2.622109   -0.986244
     40          6           0        3.193018    3.612223    0.169883
     41          6           0        4.413292    3.746533   -0.472133
     42          1           0        4.931907    0.498005   -1.282066
     43          1           0        1.656156    2.262505    0.820378
     44          1           0        5.992055    2.714270   -1.494403
     45          1           0        2.697309    4.484427    0.584059
     46          1           0        4.876004    4.722810   -0.569917
 ---------------------------------------------------------------------
                    Distance matrix (angstroms):
                    1          2          3          4          5
     1  C    0.000000
     2  C    1.387445   0.000000
     3  S    2.790429   1.779347   0.000000
     4  C    2.402779   1.397373   2.724918   0.000000
     5  C    3.621596   3.650053   2.749627   4.980319   0.000000
     6  C    2.999148   2.779937   1.775760   4.089916   1.387634
     7  C    1.382365   2.408742   4.071644   2.779320   4.915484
     8  C    2.757296   2.405202   4.024279   1.388307   5.981213
     9  H    4.722917   3.630708   4.342001   2.325969   6.918296
    10  C    4.549856   4.836867   4.040717   6.213299   1.381662
    11  C    3.540780   3.510953   2.756938   4.758986   2.392083
    12  C    4.472857   4.724301   4.044365   6.029171   2.764449
    13  C    4.926948   5.297866   4.571336   6.678603   2.409272
    14  H    5.304821   5.650988   4.888323   7.004259   2.139500
    15  H    3.676926   3.487367   2.888883   4.534672   3.375186
    16  H    5.179958   5.475080   4.894874   6.707916   3.848612
    17  C    2.394494   2.783885   4.562053   2.409600   5.961564
    18  H    1.083839   2.138187   2.940513   3.383672   2.893406
    19  H    3.823247   3.738785   2.876008   4.945337   1.084982
    20  H    2.138102   3.387081   4.928357   3.864152   5.292450
    21  H    3.842850   3.388652   4.867507   2.142787   6.992257
    22  H    3.381666   3.868635   5.646544   3.388571   6.959885
    23  S    4.031718   2.740370   3.084550   1.774769   5.750605
    24  N    6.152438   6.646807   5.974992   8.031194   3.695068
    25  C    7.153848   7.563085   6.796090   8.906928   4.805988
    26  C    8.000146   8.554354   7.964028   9.883093   6.014445
    27  C    7.586946   7.755440   6.733246   9.041441   5.030077
    28  C    9.109371   9.584662   8.922007  10.870784   7.158847
    29  C    8.740403   8.871632   7.838479  10.103750   6.353418
    30  C    9.448194   9.732633   8.871699  10.976051   7.311251
    31  H    7.950497   8.664239   8.263015   9.999363   6.215747
    32  H    7.199144   7.207726   6.010651   8.469189   4.393600
    33  H    9.851411  10.412438   9.857752  11.686281   8.096543
    34  H    9.239307   9.218187   8.047323  10.387972   6.790305
    35  H   10.406636  10.655165   9.775859  11.861260   8.335150
    36  C    6.675384   7.331694   6.811963   8.726400   4.272569
    37  C    8.005086   8.606525   7.959087  10.002886   5.332313
    38  C    6.136001   6.993886   6.787104   8.354869   4.312376
    39  C    8.746853   9.451456   8.929198  10.833288   6.231919
    40  C    7.076860   8.008706   7.897396   9.331134   5.378027
    41  C    8.343258   9.190779   8.907353  10.534875   6.256872
    42  H    8.582916   9.057982   8.234641  10.450574   5.687851
    43  H    5.160166   6.106783   6.090505   7.442631   3.858079
    44  H    9.793673  10.456284   9.852268  11.839092   7.136001
    45  H    6.977342   8.020692   8.129323   9.276292   5.766416
    46  H    9.141184  10.031349   9.816472  11.346534   7.175018
                    6          7          8          9         10
     6  C    0.000000
     7  C    4.368203   0.000000
     8  C    5.172760   2.390775   0.000000
     9  H    6.017039   4.882836   2.641148   0.000000
    10  C    2.406287   5.737177   7.121721   8.238104   0.000000
    11  C    1.388774   4.781318   5.736555   6.698125   2.765481
    12  C    2.405366   5.607583   6.906511   8.048724   2.398938
    13  C    2.796406   6.057184   7.543895   8.754769   1.393562
    14  H    3.386288   6.413703   7.870198   9.002648   1.084154
    15  H    2.141861   4.807146   5.486594   6.325143   3.850441
    16  H    3.385756   6.197247   7.514961   8.690549   3.382995
    17  C    5.292381   1.383467   1.381753   4.020343   6.927214
    18  H    2.485672   2.139518   3.841134   5.700565   3.614537
    19  H    2.140470   5.052395   5.941140   6.737191   2.140398
    20  H    4.910468   1.084865   3.377920   5.937529   5.896821
    21  H    6.158832   3.373253   1.085576   2.264170   8.168715
    22  H    6.335353   2.148746   2.138705   4.632299   7.863437
    23  S    4.803753   4.553883   2.766996   1.342456   7.073076
    24  N    4.200207   7.172230   8.829182  10.141334   2.431427
    25  C    5.066251   8.174970   9.739413  10.943260   3.657534
    26  C    6.235692   8.878938  10.599522  11.981352   4.837849
    27  C    5.134139   8.723452  10.009381  10.900507   4.078995
    28  C    7.253925   9.992979  11.614560  12.888882   6.043033
    29  C    6.327958   9.845408  11.069338  11.883400   5.455034
    30  C    7.299911  10.440200  11.835588  12.847370   6.308589
    31  H    6.521210   8.706065  10.601310  12.185376   5.003796
    32  H    4.502211   8.427703   9.531607  10.225618   3.606038
    33  H    8.188719  10.642490  12.353284  13.740043   6.960324
    34  H    6.678909  10.399159  11.428940  12.015651   6.029745
    35  H    8.260897  11.384843  12.723490  13.670745   7.367939
    36  C    5.070155   7.572066   9.421306  10.902328   2.918696
    37  C    6.232796   8.919790  10.740722  12.132616   3.956153
    38  C    5.149386   6.849055   8.881405  10.604789   3.146260
    39  C    7.253815   9.548730  11.481508  12.992907   4.906999
    40  C    6.342850   7.652789   9.764224  11.575858   4.274024
    41  C    7.307668   8.988180  11.042480  12.741479   5.044565
    42  H    6.512021   9.586027  11.281794  12.506385   4.330449
    43  H    4.526526   5.810506   7.896366   9.727618   2.923467
    44  H    8.184836  10.617190  12.520313  13.966294   5.812882
    45  H    6.699841   7.376437   9.568193  11.527348   4.841476
    46  H    8.269440   9.701375  11.791996  13.545224   6.019707
                   11         12         13         14         15
    11  C    0.000000
    12  C    1.380043   0.000000
    13  C    2.409797   1.395077   0.000000
    14  H    3.849543   3.383515   2.147305   0.000000
    15  H    1.084964   2.139003   3.391890   4.934485   0.000000
    16  H    2.138045   1.084179   2.148165   4.281501   2.461509
    17  C    5.753701   6.735257   7.285688   7.622251   5.608680
    18  H    2.949423   3.645618   3.951342   4.360737   3.342640
    19  H    3.375103   3.849411   3.391271   2.463045   4.270118
    20  H    5.201009   5.797971   6.137774   6.489193   5.312207
    21  H    6.714789   7.921996   8.598227   8.913463   6.385897
    22  H    6.740274   7.654786   8.191378   8.518988   6.572048
    23  S    5.503750   6.870036   7.574658   7.868509   5.168467
    24  N    3.693905   2.430979   1.403804   2.659883   4.567716
    25  C    4.268431   2.918965   2.448344   3.957507   4.929910
    26  C    5.335257   3.961055   3.607888   5.062952   5.885780
    27  C    4.297305   3.140986   2.975181   4.479031   4.833377
    28  C    6.232634   4.911533   4.773264   6.309209   6.629534
    29  C    5.363991   4.270843   4.312878   5.854251   5.706399
    30  C    6.250129   5.045534   5.065052   6.651662   6.554418
    31  H    5.696572   4.337591   3.867954   5.135870   6.289465
    32  H    3.833851   2.912398   2.750306   4.056589   4.419832
    33  H    7.140426   5.819333   5.691214   7.188498   7.495308
    34  H    5.746850   4.835762   4.992317   6.462170   5.990851
    35  H    7.167833   6.020809   6.124502   7.718547   7.377043
    36  C    4.811702   3.662520   2.448862   2.645596   5.751776
    37  C    6.012585   4.837510   3.605098   3.437727   6.955695
    38  C    5.049819   4.093486   2.980263   2.834820   5.984685
    39  C    7.161430   6.045795   4.771340   4.199800   8.133398
    40  C    6.373469   5.469048   4.316522   3.712050   7.320511
    41  C    7.323433   6.317595   5.065954   4.319723   8.299864
    42  H    6.205547   4.997707   3.863100   3.896530   7.102332
    43  H    4.423124   3.626543   2.758923   2.914130   5.299287
    44  H    8.094879   6.960287   5.687888   5.055913   9.064724
    45  H    6.817247   6.047642   4.997648   4.325874   7.727559
    46  H    8.348640   7.377609   6.125401   5.234260   9.328916
                   16         17         18         19         20
    16  H    0.000000
    17  C    7.301248   0.000000
    18  H    4.399165   3.376255   0.000000
    19  H    4.933578   5.992192   3.263152   0.000000
    20  H    6.317854   2.147264   2.458607   5.481572   0.000000
    21  H    8.502009   2.137447   4.926689   6.902953   4.273489
    22  H    8.164312   1.084778   4.277184   6.977775   2.484404
    23  S    7.540734   4.054509   4.878530   5.628918   5.638636
    24  N    2.657671   8.460469   5.124092   4.569457   7.098941
    25  C    2.646297   9.421865   6.178930   5.744225   8.123124
    26  C    3.442972  10.154885   7.012146   6.957153   8.689696
    27  C    2.832403   9.875109   6.706670   5.959529   8.827183
    28  C    4.206078  11.222516   8.169999   8.128652   9.834841
    29  C    3.712376  10.959934   7.901669   7.293594   9.946370
    30  C    4.323716  11.598910   8.571642   8.282568  10.417383
    31  H    3.902588  10.024643   6.931833   7.114805   8.389850
    32  H    2.906906   9.520311   6.376529   5.262877   8.647707
    33  H    5.063713  11.881656   8.910130   9.065333  10.400656
    34  H    4.324379  11.440881   8.470777   7.691348  10.594131
    35  H    5.238694  12.512029   9.561081   9.309435  11.370264
    36  C    3.963175   8.917600   5.599136   4.935261   7.351112
    37  C    5.063159  10.261678   6.934455   5.882772   8.693848
    38  C    4.495599   8.221907   5.060195   4.851727   6.483858
    39  C    6.313756  10.905746   7.676137   6.629245   9.218123
    40  C    5.871435   9.014971   6.037381   5.724572   7.176410
    41  C    6.663620  10.345883   7.293754   6.563555   8.546161
    42  H    5.128819  10.899800   7.533757   6.279338   9.441092
    43  H    4.078568   7.189692   4.092226   4.448410   5.422768
    44  H    7.189934  11.968832   8.726942   7.490316  10.296064
    45  H    6.483872   8.712734   5.999106   6.016391   6.792729
    46  H    7.731637  11.043012   8.118135   7.386930   9.199597
                   21         22         23         24         25
    21  H    0.000000
    22  H    2.456134   0.000000
    23  S    2.908186   4.905669   0.000000
    24  N    9.894851   9.303202   8.971613   0.000000
    25  C   10.779759  10.264962   9.740385   1.416868   0.000000
    26  C   11.641288  10.913494  10.826576   2.433148   1.390277
    27  C   11.005512  10.787005   9.636851   2.438098   1.390617
    28  C   12.627707  11.980859  11.716921   3.699730   2.404391
    29  C   12.034582  11.854944  10.620729   3.702857   2.404430
    30  C   12.814371  12.423686  11.626526   4.201973   2.785132
    31  H   11.656905  10.711086  11.089535   2.649080   2.142190
    32  H   10.506146  10.486927   8.928974   2.658475   2.143411
    33  H   13.363536  12.580479  12.602853   4.568290   3.384134
    34  H   12.352171  12.371573  10.730864   4.572760   3.384155
    35  H   13.678304  13.327262  12.452485   5.286774   3.869935
    36  C   10.504183   9.689164   9.789705   1.416463   2.441470
    37  C   11.820977  11.036456  10.989186   2.433761   2.944622
    38  C    9.964350   8.899393   9.600937   2.437325   3.606371
    39  C   12.561671  11.611397  11.904564   3.700108   4.279099
    40  C   10.832581   9.606458  10.632488   3.702384   4.760492
    41  C   12.113272  10.963008  11.746741   4.202089   5.039490
    42  H   12.351817  11.724269  11.306212   2.650492   2.710202
    43  H    8.977121   7.849032   8.775227   2.656679   3.879967
    44  H   13.598149  12.682138  12.856133   4.568795   4.951623
    45  H   10.612026   9.206849  10.681424   4.572178   5.682110
    46  H   12.849085  11.602970  12.593389   5.286882   6.096276
                   26         27         28         29         30
    26  C    0.000000
    27  C    2.399528   0.000000
    28  C    1.383297   2.766236   0.000000
    29  C    2.766160   1.383134   2.391612   0.000000
    30  C    2.403206   2.403295   1.385090   1.385320   0.000000
    31  H    1.084866   3.380991   2.147299   3.851009   3.387913
    32  H    3.381509   1.084888   3.851082   2.146392   3.387529
    33  H    2.137097   3.851563   1.085346   3.378136   2.145604
    34  H    3.851475   2.136814   3.378139   1.085339   2.145894
    35  H    3.386803   3.386759   2.147644   2.147708   1.084803
    36  C    2.949877   3.601295   4.282266   4.756298   5.038565
    37  C    3.226786   3.930015   4.338533   4.890687   5.066765
    38  C    3.942803   4.827785   5.313552   5.998684   6.208934
    39  C    4.342886   5.301235   5.391449   6.195996   6.240495
    40  C    4.904768   5.996058   6.209466   7.103504   7.202243
    41  C    5.077388   6.201228   6.248743   7.195434   7.222469
    42  H    3.039585   3.399150   3.907445   4.203402   4.424024
    43  H    4.283233   5.055263   5.655072   6.256341   6.516900
    44  H    4.928793   5.838708   5.788896   6.589767   6.572193
    45  H    5.791537   6.937445   7.100993   8.061893   8.140654
    46  H    6.052360   7.251143   7.163288   8.205273   8.172673
                   31         32         33         34         35
    31  H    0.000000
    32  H    4.274139   0.000000
    33  H    2.466292   4.936399   0.000000
    34  H    4.936316   2.464722   4.279073   0.000000
    35  H    4.284831   4.284064   2.476820   2.476967   0.000000
    36  C    2.720658   3.872704   4.957033   5.676099   6.095314
    37  C    3.048239   4.269469   4.927655   5.774967   6.041077
    38  C    3.417516   5.050678   5.854429   6.937665   7.259440
    39  C    3.922349   5.639809   5.793549   7.083586   7.154152
    40  C    4.225866   6.248153   6.608520   8.058468   8.212763
    41  C    4.445039   6.504289   6.586164   8.129655   8.172592
    42  H    3.180866   3.769056   4.568894   5.011258   5.341821
    43  H    3.785030   5.214433   6.213183   7.171511   7.572730
    44  H    4.581101   6.195185   6.116178   7.419869   7.393934
    45  H    5.035346   7.164927   7.443262   9.024945   9.149131
    46  H    5.363873   7.558985   7.409660   9.136838   9.084862
                   36         37         38         39         40
    36  C    0.000000
    37  C    1.390281   0.000000
    38  C    1.390728   2.399183   0.000000
    39  C    2.404545   1.383371   2.765716   0.000000
    40  C    2.404851   2.766197   1.383009   2.391427   0.000000
    41  C    2.785651   2.403388   2.403130   1.385000   1.385385
    42  H    2.142216   1.084823   3.380779   2.147200   3.851006
    43  H    2.142981   3.380925   1.084843   3.850508   2.146352
    44  H    3.384168   2.137027   3.851039   1.085344   3.377984
    45  H    3.384636   3.851534   2.136952   3.377926   1.085361
    46  H    3.870446   3.386984   3.386646   2.147636   2.147824
                   41         42         43         44         45
    41  C    0.000000
    42  H    3.387903   0.000000
    43  H    3.387436   4.273672   0.000000
    44  H    2.145483   2.465934   4.935820   0.000000
    45  H    2.145839   4.936336   2.465113   4.278880   0.000000
    46  H    1.084795   4.284771   4.284092   2.476788   2.476933
                   46
    46  H    0.000000
 Stoichiometry    C24H19NS2(1+,2)
 Framework group  C1[X(C24H19NS2)]
 Deg. of freedom   132
 Full point group                 C1      NOp   1
 Largest Abelian subgroup         C1      NOp   1
 Largest concise Abelian subgroup C1      NOp   1
                         Standard orientation:                         
 ---------------------------------------------------------------------
 Center     Atomic      Atomic             Coordinates (Angstroms)
 Number     Number       Type             X           Y           Z
 ---------------------------------------------------------------------
      1          6           0       -3.352046    1.022081    0.901490
      2          6           0       -4.015603    0.124147    0.077833
      3         16           0       -3.193622   -0.833868   -1.176213
      4          6           0       -5.398593   -0.028228    0.207342
      5          6           0       -0.749106    0.373785   -1.531691
      6          6           0       -1.475477   -0.566990   -0.815552
      7          6           0       -4.041516    1.761821    1.844012
      8          6           0       -6.080951    0.720801    1.156415
      9          1           0       -7.475944   -0.835079   -0.458792
     10          6           0        0.601771    0.547170   -1.299188
     11          6           0       -0.823428   -1.336346    0.139234
     12          6           0        0.521569   -1.154920    0.389409
     13          6           0        1.255724   -0.212476   -0.331046
     14          1           0        1.160253    1.275483   -1.876291
     15          1           0       -1.383265   -2.076857    0.700814
     16          1           0        1.015474   -1.752114    1.147605
     17          6           0       -5.411167    1.613701    1.970885
     18          1           0       -2.279577    1.141824    0.800598
     19          1           0       -1.248138    0.967582   -2.290346
     20          1           0       -3.503227    2.458074    2.478369
     21          1           0       -7.154267    0.598627    1.263844
     22          1           0       -5.962434    2.189124    2.706912
     23         16           0       -6.238224   -1.192989   -0.835805
     24          7           0        2.627173   -0.037586   -0.087724
     25          6           0        3.438312   -1.140752    0.276409
     26          6           0        4.374889   -1.012928    1.295896
     27          6           0        3.317625   -2.356550   -0.387733
     28          6           0        5.179400   -2.084309    1.640010
     29          6           0        4.112866   -3.428755   -0.025756
     30          6           0        5.049979   -3.298472    0.986151
     31          1           0        4.470709   -0.064848    1.814448
     32          1           0        2.593785   -2.456724   -1.189607
     33          1           0        5.907450   -1.970366    2.436839
     34          1           0        4.006805   -4.372570   -0.551042
     35          1           0        5.677330   -4.139106    1.262850
     36          6           0        3.224517    1.239724   -0.221989
     37          6           0        4.446224    1.376745   -0.871250
     38          6           0        2.604731    2.367846    0.304633
     39          6           0        5.037460    2.622109   -0.986244
     40          6           0        3.193018    3.612223    0.169883
     41          6           0        4.413292    3.746533   -0.472133
     42          1           0        4.931907    0.498005   -1.282066
     43          1           0        1.656156    2.262505    0.820378
     44          1           0        5.992055    2.714270   -1.494403
     45          1           0        2.697309    4.484427    0.584059
     46          1           0        4.876004    4.722810   -0.569917
 ---------------------------------------------------------------------
 Rotational constants (GHZ):           0.3083654           0.0766714           0.0675965
 Leave Link  202 at Tue Jan 19 01:37:12 2021, MaxMem=  4026531840 cpu:               0.3 elap:               0.1
 (Enter /opt/ohpc/pub/libs/gaussian/g16-A.03/sandybridge/g16/l301.exe)
 Standard basis: TZVP (5D, 7F)
 Ernie: Thresh=  0.10000D-02 Tol=  0.10000D-05 Strict=F.
 There are   660 symmetry adapted cartesian basis functions of A   symmetry.
 There are   633 symmetry adapted basis functions of A   symmetry.
   633 basis functions,  1121 primitive gaussians,   660 cartesian basis functions
   101 alpha electrons      100 beta electrons
       nuclear repulsion energy      2474.6847673599 Hartrees.
 IExCor=33909 DFT=T Ex+Corr=LC-wHPBE ExCW=0 ScaHFX=  1.000000
 ScaDFX=  1.000000  1.000000  1.000000  1.000000 ScalE2=  1.000000  1.000000
 IRadAn=      5 IRanWt=     -1 IRanGd=            0 ICorTp=0 IEmpDi=  4
 HFx  wShort=  0.000000 wLong=  0.179800 cFull=  0.000000 cShort=  0.000000 cLong=  1.000000
 DFx  wShort=  0.000000 wLong=  0.179800 cFull=  0.000000 cShort=  1.000000 cLong=  0.000000
 NAtoms=   46 NActive=   46 NUniq=   46 SFac= 1.00D+00 NAtFMM=   60 NAOKFM=F Big=F
 Integral buffers will be    131072 words long.
 Raffenetti 2 integral format.
 Two-electron integral symmetry is turned on.
 Leave Link  301 at Tue Jan 19 01:37:12 2021, MaxMem=  4026531840 cpu:               0.5 elap:               0.1
 (Enter /opt/ohpc/pub/libs/gaussian/g16-A.03/sandybridge/g16/l302.exe)
 NPDir=0 NMtPBC=     1 NCelOv=     1 NCel=       1 NClECP=     1 NCelD=      1
         NCelK=      1 NCelE2=     1 NClLst=     1 CellRange=     0.0.
 One-electron integrals computed using PRISM.
 One-electron integral symmetry used in STVInt
 NBasis=   633 RedAO= T EigKep=  6.67D-06  NBF=   633
 NBsUse=   633 1.00D-06 EigRej= -1.00D+00 NBFU=   633
 Precomputing XC quadrature grid using
 IXCGrd= 4 IRadAn=           5 IRanWt=          -1 IRanGd=           0 AccXCQ= 0.00D+00.
 Generated NRdTot=       0 NPtTot=           0 NUsed=           0 NTot=          32
 NSgBfM=   625   625   625   625   625 MxSgAt=    46 MxSgA2=    46.
 Leave Link  302 at Tue Jan 19 01:37:13 2021, MaxMem=  4026531840 cpu:               9.7 elap:               1.3
 (Enter /opt/ohpc/pub/libs/gaussian/g16-A.03/sandybridge/g16/l303.exe)
 DipDrv:  MaxL=1.
 Leave Link  303 at Tue Jan 19 01:37:13 2021, MaxMem=  4026531840 cpu:               0.8 elap:               0.2
 (Enter /opt/ohpc/pub/libs/gaussian/g16-A.03/sandybridge/g16/l401.exe)
 ExpMin= 9.52D-02 ExpMax= 6.07D+04 ExpMxC= 2.07D+03 IAcc=3 IRadAn=         5 AccDes= 0.00D+00
 Harris functional with IExCor=33909 and IRadAn=       5 diagonalized for initial guess.
 HarFok:  IExCor=33909 AccDes= 0.00D+00 IRadAn=         5 IDoV= 1 UseB2=F ITyADJ=14
 ICtDFT=  3500011 ScaDFX=  1.000000  1.000000  1.000000  1.000000
 FoFCou: FMM=F IPFlag=           0 FMFlag=      100000 FMFlg1=           0
         NFxFlg=           0 DoJE=T BraDBF=F KetDBF=T FulRan=T
         wScrn=  0.000000 ICntrl=       500 IOpCl=  0 I1Cent=   200000004 NGrid=           0
         NMat0=    1 NMatS0=      1 NMatT0=    0 NMatD0=    1 NMtDS0=    0 NMtDT0=    0
 Petite list used in FoFCou.
 Harris En= -1756.55109633727    
 JPrj=0 DoOrth=F DoCkMO=F.
 Initial guess <Sx>= 0.0000 <Sy>= 0.0000 <Sz>= 0.5000 <S**2>= 0.7500 S= 0.5000
 Leave Link  401 at Tue Jan 19 01:37:21 2021, MaxMem=  4026531840 cpu:              57.5 elap:               7.2
 (Enter /opt/ohpc/pub/libs/gaussian/g16-A.03/sandybridge/g16/l502.exe)
 Integral symmetry usage will be decided dynamically.
 UHF open shell SCF:
 Using DIIS extrapolation, IDIIS=    10.
 NGot=  4026531840 LenX=  4025648940 LenY=  4025212680
 Requested convergence on RMS density matrix=1.00D-06 within  32 cycles.
 Requested convergence on MAX density matrix=1.00D-04.
 Requested convergence on             energy=1.00D-04.
 Virtual orbitals will be shifted by   0.500 hartree.
 No special actions if energy rises.
 Dynamic level shift is on during FON iterations.

 Cycle   1  Pass 1  IDiag  1:
 FoFJK:  IHMeth= 1 ICntrl=       0 DoSepK=T KAlg= 0 I1Cent=           0 FoldK=F
 IRaf=         1 NMat=       1 IRICut=       1 DoRegI=T DoRafI=F ISym2E= 0 IDoP0=0 IntGTp=1.
 FoFCou: FMM=F IPFlag=           0 FMFlag=      100000 FMFlg1=           0
         NFxFlg=           0 DoJE=T BraDBF=F KetDBF=F FulRan=T
         wScrn=  0.000000 ICntrl=       500 IOpCl=  0 I1Cent=           0 NGrid=           0
         NMat0=    1 NMatS0=      1 NMatT0=    0 NMatD0=    1 NMtDS0=    0 NMtDT0=    0
 Symmetry not used in FoFCou.
 E= -1775.33810980129    
 DIIS: error= 3.63D-02 at cycle   1 NSaved=   1.
 NSaved= 1 IEnMin= 1 EnMin= -1775.33810980129     IErMin= 1 ErrMin= 3.63D-02
 ErrMax= 3.63D-02  0.00D+00 EMaxC= 1.00D+00 BMatC= 2.31D+00 BMatP= 2.31D+00
 IDIUse=1 WtCom= 1.00D+00 WtEn= 0.00D+00
 Coeff-Com:  0.100D+01
 Coeff:      0.100D+01
 Gap=     0.565 Goal=   None    Shift=    0.500
 T= 1610. Gap= 0.537 NK=0 IS=  102 IE=  633 IFin=  101
          NO(<0.9)=   0  NV(>0.1)=   0    101.00e < EF      0.00e >EF  Err=0.0D+00
 Gap=     0.166 Goal=   None    Shift=    0.500
 T= 1610. Gap= 0.370 NK=0 IS=  101 IE=  633 IFin=  100
          NO(<0.9)=   0  NV(>0.1)=   0    100.00e < EF      0.00e >EF  Err=0.0D+00
 GapD=    0.166 DampG=1.000 DampE=0.500 DampFc=0.5000 IDamp=-1.
 Damping current iteration by 5.00D-01
 RMSDP=3.47D-03 MaxDP=3.20D-01              OVMax= 1.40D-01

 Cycle   2  Pass 1  IDiag  1:
 E= -1775.71892422959     Delta-E=       -0.380814428297 Rises=F Damp=T
 DIIS: error= 1.63D-02 at cycle   2 NSaved=   2.
 NSaved= 2 IEnMin= 2 EnMin= -1775.71892422959     IErMin= 2 ErrMin= 1.63D-02
 ErrMax= 1.63D-02  0.00D+00 EMaxC= 1.00D+00 BMatC= 3.26D-01 BMatP= 2.31D+00
 IDIUse=1 WtCom= 1.00D+00 WtEn= 0.00D+00
 Coeff-Com: -0.483D+00 0.148D+01
 Coeff:     -0.483D+00 0.148D+01
 Gap=     0.205 Goal=   None    Shift=    0.500
 T= 1488. Gap= 0.676 NK=0 IS=  102 IE=  633 IFin=  101
          NO(<0.9)=   0  NV(>0.1)=   0    101.00e < EF      0.00e >EF  Err=0.0D+00
 Gap=     0.041 Goal=   None    Shift=    0.500
 T= 1488. Gap= 0.517 NK=0 IS=  101 IE=  633 IFin=  100
          NO(<0.9)=   0  NV(>0.1)=   0    100.00e < EF      0.00e >EF  Err=0.0D+00
 GapD=    0.041 DampG=0.250 DampE=0.500 DampFc=0.1250 IDamp=-1.
 Damping current iteration by 1.25D-01
 RMSDP=1.96D-03 MaxDP=1.26D-01 DE=-3.81D-01 OVMax= 2.73D-02

 Cycle   3  Pass 1  IDiag  1:
 E= -1775.75170959275     Delta-E=       -0.032785363164 Rises=F Damp=T
 DIIS: error= 1.41D-02 at cycle   3 NSaved=   3.
 NSaved= 3 IEnMin= 3 EnMin= -1775.75170959275     IErMin= 3 ErrMin= 1.41D-02
 ErrMax= 1.41D-02  0.00D+00 EMaxC= 1.00D+00 BMatC= 2.34D-01 BMatP= 3.26D-01
 IDIUse=1 WtCom= 1.00D+00 WtEn= 0.00D+00
 Coeff-Com:  0.122D+00-0.666D+01 0.754D+01
 Coeff:      0.122D+00-0.666D+01 0.754D+01
 Gap=     0.216 Goal=   None    Shift=    0.500
 T= 1317. Gap= 0.711 NK=0 IS=  102 IE=  633 IFin=  101
          NO(<0.9)=   0  NV(>0.1)=   0    101.00e < EF      0.00e >EF  Err=0.0D+00
 Gap=     0.060 Goal=   None    Shift=    0.500
 T= 1317. Gap= 0.559 NK=0 IS=  101 IE=  633 IFin=  100
          NO(<0.9)=   0  NV(>0.1)=   0    100.00e < EF      0.00e >EF  Err=0.0D+00
 GapD=    0.060 DampG=0.500 DampE=0.500 DampFc=0.2500 IDamp=-1.
 Damping current iteration by 2.50D-01
 RMSDP=1.81D-03 MaxDP=1.20D-01 DE=-3.28D-02 OVMax= 1.50D-02

 Cycle   4  Pass 1  IDiag  1:
 E= -1775.80368709458     Delta-E=       -0.051977501830 Rises=F Damp=T
 DIIS: error= 1.07D-02 at cycle   4 NSaved=   4.
 NSaved= 4 IEnMin= 4 EnMin= -1775.80368709458     IErMin= 4 ErrMin= 1.07D-02
 ErrMax= 1.07D-02  0.00D+00 EMaxC= 1.00D+00 BMatC= 1.25D-01 BMatP= 2.34D-01
 IDIUse=1 WtCom= 1.00D+00 WtEn= 0.00D+00
 Coeff-Com:  0.823D-01-0.293D+00-0.287D+01 0.408D+01
 Coeff:      0.823D-01-0.293D+00-0.287D+01 0.408D+01
 Gap=     0.211 Goal=   None    Shift=    0.500
 T= 1027. Gap= 0.710 NK=0 IS=  102 IE=  633 IFin=  101
          NO(<0.9)=   0  NV(>0.1)=   0    101.00e < EF      0.00e >EF  Err=0.0D+00
 Gap=     0.059 Goal=   None    Shift=    0.500
 T= 1027. Gap= 0.559 NK=0 IS=  101 IE=  633 IFin=  100
          NO(<0.9)=   0  NV(>0.1)=   0    100.00e < EF      0.00e >EF  Err=0.0D+00
 GapD=    0.059 DampG=0.500 DampE=0.500 DampFc=0.2500 IDamp=-1.
 Damping current iteration by 2.50D-01
 RMSDP=1.37D-03 MaxDP=9.10D-02 DE=-5.20D-02 OVMax= 1.27D-02

 Cycle   5  Pass 1  IDiag  1:
 E= -1775.83988262637     Delta-E=       -0.036195531787 Rises=F Damp=T
 DIIS: error= 8.15D-03 at cycle   5 NSaved=   5.
 NSaved= 5 IEnMin= 5 EnMin= -1775.83988262637     IErMin= 5 ErrMin= 8.15D-03
 ErrMax= 8.15D-03  0.00D+00 EMaxC= 1.00D+00 BMatC= 6.94D-02 BMatP= 1.25D-01
 IDIUse=1 WtCom= 1.00D+00 WtEn= 0.00D+00
 Coeff-Com: -0.330D-02 0.115D+01-0.133D+01-0.348D+01 0.467D+01
 Coeff:     -0.330D-02 0.115D+01-0.133D+01-0.348D+01 0.467D+01
 Gap=     0.213 Goal=   None    Shift=    0.500
 T=  894. Gap= 0.713 NK=0 IS=  102 IE=  633 IFin=  101
          NO(<0.9)=   0  NV(>0.1)=   0    101.00e < EF      0.00e >EF  Err=0.0D+00
 Gap=     0.063 Goal=   None    Shift=    0.500
 T=  894. Gap= 0.563 NK=0 IS=  101 IE=  633 IFin=  100
          NO(<0.9)=   0  NV(>0.1)=   0    100.00e < EF      0.00e >EF  Err=0.0D+00
 GapD=    0.063 DampG=0.500 DampE=1.000 DampFc=0.5000 IDamp=-1.
 Damping current iteration by 5.00D-01
 RMSDP=1.02D-03 MaxDP=6.70D-02 DE=-3.62D-02 OVMax= 1.17D-02

 Cycle   6  Pass 1  IDiag  1:
 E= -1775.89109347137     Delta-E=       -0.051210845001 Rises=F Damp=T
 DIIS: error= 4.48D-03 at cycle   6 NSaved=   6.
 NSaved= 6 IEnMin= 6 EnMin= -1775.89109347137     IErMin= 6 ErrMin= 4.48D-03
 ErrMax= 4.48D-03  0.00D+00 EMaxC= 1.00D+00 BMatC= 1.74D-02 BMatP= 6.94D-02
 IDIUse=1 WtCom= 1.00D+00 WtEn= 0.00D+00
 Coeff-Com: -0.184D-01 0.142D+00 0.583D+00 0.651D+00-0.393D+01 0.357D+01
 Coeff:     -0.184D-01 0.142D+00 0.583D+00 0.651D+00-0.393D+01 0.357D+01
 Gap=     0.216 Goal=   None    Shift=    0.500
 T=  686. Gap= 0.716 NK=0 IS=  102 IE=  633 IFin=  101
          NO(<0.9)=   0  NV(>0.1)=   0    101.00e < EF      0.00e >EF  Err=0.0D+00
 Gap=     0.065 Goal=   None    Shift=    0.500
 T=  686. Gap= 0.566 NK=0 IS=  101 IE=  633 IFin=  100
          NO(<0.9)=   0  NV(>0.1)=   0    100.00e < EF      0.00e >EF  Err=0.0D+00
 GapD=    0.065 DampG=0.500 DampE=1.000 DampFc=0.5000 IDamp=-1.
 Damping current iteration by 5.00D-01
 RMSDP=5.12D-04 MaxDP=3.29D-02 DE=-5.12D-02 OVMax= 1.19D-02

 Cycle   7  Pass 1  IDiag  1:
 E= -1775.91565028802     Delta-E=       -0.024556816654 Rises=F Damp=T
 DIIS: error= 2.89D-03 at cycle   7 NSaved=   7.
 NSaved= 7 IEnMin= 7 EnMin= -1775.91565028802     IErMin= 7 ErrMin= 2.89D-03
 ErrMax= 2.89D-03  0.00D+00 EMaxC= 1.00D+00 BMatC= 4.60D-03 BMatP= 1.74D-02
 IDIUse=1 WtCom= 1.00D+00 WtEn= 0.00D+00
 Coeff-Com: -0.466D-02-0.352D+00 0.721D+00 0.142D+01-0.253D+01-0.144D+01
 Coeff-Com:  0.318D+01
 Coeff:     -0.466D-02-0.352D+00 0.721D+00 0.142D+01-0.253D+01-0.144D+01
 Coeff:      0.318D+01
 Gap=     0.216 Goal=   None    Shift=    0.500
 T=  441. Gap= 0.716 NK=0 IS=  102 IE=  633 IFin=  101
          NO(<0.9)=   0  NV(>0.1)=   0    101.00e < EF      0.00e >EF  Err=0.0D+00
 Gap=     0.066 Goal=   None    Shift=    0.500
 T=  441. Gap= 0.566 NK=0 IS=  101 IE=  633 IFin=  100
          NO(<0.9)=   0  NV(>0.1)=   0    100.00e < EF      0.00e >EF  Err=0.0D+00
 GapD=    0.066 DampG=0.500 DampE=1.000 DampFc=0.5000 IDamp=-1.
 Damping current iteration by 5.00D-01
 RMSDP=2.69D-04 MaxDP=1.64D-02 DE=-2.46D-02 OVMax= 1.18D-02

 Cycle   8  Pass 1  IDiag  1:
 E= -1775.92784451113     Delta-E=       -0.012194223108 Rises=F Damp=T
 DIIS: error= 2.13D-03 at cycle   8 NSaved=   8.
 NSaved= 8 IEnMin= 8 EnMin= -1775.92784451113     IErMin= 8 ErrMin= 2.13D-03
 ErrMax= 2.13D-03  0.00D+00 EMaxC= 1.00D+00 BMatC= 1.33D-03 BMatP= 4.60D-03
 IDIUse=1 WtCom= 1.00D+00 WtEn= 0.00D+00
 Coeff-Com:  0.421D-02-0.171D+00-0.690D-01 0.331D+00 0.101D+01-0.195D+01
 Coeff-Com: -0.202D+01 0.387D+01
 Coeff:      0.421D-02-0.171D+00-0.690D-01 0.331D+00 0.101D+01-0.195D+01
 Coeff:     -0.202D+01 0.387D+01
 Gap=     0.216 Goal=   None    Shift=    0.500
 T=  147. Gap= 0.716 NK=0 IS=  102 IE=  633 IFin=  101
          NO(<0.9)=   0  NV(>0.1)=   0    101.00e < EF      0.00e >EF  Err=0.0D+00
 Gap=     0.067 Goal=   None    Shift=    0.500
 T=  147. Gap= 0.567 NK=0 IS=  101 IE=  633 IFin=  100
          NO(<0.9)=   0  NV(>0.1)=   0    100.00e < EF      0.00e >EF  Err=0.0D+00
 GapD=    0.067 DampG=0.500 DampE=1.000 DampFc=0.5000 IDamp=-1.
 Damping current iteration by 5.00D-01
 RMSDP=1.54D-04 MaxDP=8.50D-03 DE=-1.22D-02 OVMax= 1.23D-02

 Cycle   9  Pass 1  IDiag  1:
 E= -1775.93403762851     Delta-E=       -0.006193117378 Rises=F Damp=T
 DIIS: error= 2.09D-03 at cycle   9 NSaved=   9.
 NSaved= 9 IEnMin= 9 EnMin= -1775.93403762851     IErMin= 9 ErrMin= 2.09D-03
 ErrMax= 2.09D-03  0.00D+00 EMaxC= 1.00D+00 BMatC= 4.52D-04 BMatP= 1.33D-03
 IDIUse=1 WtCom= 1.00D+00 WtEn= 0.00D+00
 Coeff-Com:  0.224D-02-0.578D-01-0.150D+00 0.148D-01 0.102D+01-0.106D+01
 Coeff-Com: -0.118D+01 0.194D+00 0.222D+01
 Coeff:      0.224D-02-0.578D-01-0.150D+00 0.148D-01 0.102D+01-0.106D+01
 Coeff:     -0.118D+01 0.194D+00 0.222D+01
 Gap=     0.217 Goal=   None    Shift=    0.500
 Gap=     0.068 Goal=   None    Shift=    0.500
 GapD=    0.068 DampG=0.500 DampE=1.000 DampFc=0.5000 IDamp=-1.
 Damping current iteration by 5.00D-01
 RMSDP=9.67D-05 MaxDP=5.37D-03 DE=-6.19D-03 OVMax= 1.15D-02

 Cycle  10  Pass 1  IDiag  1:
 E= -1775.93724650069     Delta-E=       -0.003208872179 Rises=F Damp=T
 DIIS: error= 2.08D-03 at cycle  10 NSaved=  10.
 NSaved=10 IEnMin=10 EnMin= -1775.93724650069     IErMin=10 ErrMin= 2.08D-03
 ErrMax= 2.08D-03  0.00D+00 EMaxC= 1.00D+00 BMatC= 2.00D-04 BMatP= 4.52D-04
 IDIUse=1 WtCom= 1.00D+00 WtEn= 0.00D+00
 Coeff-Com: -0.657D-03-0.557D-01 0.842D-01 0.381D+00-0.653D+00-0.646D-02
 Coeff-Com:  0.838D+00 0.561D+00-0.514D+01 0.500D+01
 Coeff:     -0.657D-03-0.557D-01 0.842D-01 0.381D+00-0.653D+00-0.646D-02
 Coeff:      0.838D+00 0.561D+00-0.514D+01 0.500D+01
 Gap=     0.218 Goal=   None    Shift=    0.500
 Gap=     0.069 Goal=   None    Shift=    0.500
 GapD=    0.069 DampG=0.500 DampE=1.000 DampFc=0.5000 IDamp=-1.
 Damping current iteration by 5.00D-01
 RMSDP=7.25D-05 MaxDP=5.43D-03 DE=-3.21D-03 OVMax= 1.23D-02

 Cycle  11  Pass 1  IDiag  1:
 E= -1775.93895681821     Delta-E=       -0.001710317521 Rises=F Damp=T
 DIIS: error= 2.10D-03 at cycle  11 NSaved=  11.
 NSaved=11 IEnMin=11 EnMin= -1775.93895681821     IErMin=10 ErrMin= 2.08D-03
 ErrMax= 2.10D-03  0.00D+00 EMaxC= 1.00D+00 BMatC= 1.25D-04 BMatP= 2.00D-04
 IDIUse=1 WtCom= 1.00D+00 WtEn= 0.00D+00
 Coeff-Com: -0.814D-03-0.721D-01 0.142D+00 0.357D+00-0.735D+00 0.245D-01
 Coeff-Com:  0.898D+00 0.797D+00-0.478D+01 0.319D+01 0.118D+01
 Coeff:     -0.814D-03-0.721D-01 0.142D+00 0.357D+00-0.735D+00 0.245D-01
 Coeff:      0.898D+00 0.797D+00-0.478D+01 0.319D+01 0.118D+01
 Gap=     0.219 Goal=   None    Shift=    0.500
 Gap=     0.069 Goal=   None    Shift=    0.500
 GapD=    0.069 DampG=0.500 DampE=1.000 DampFc=0.5000 IDamp=-1.
 Damping current iteration by 5.00D-01
 RMSDP=5.67D-05 MaxDP=4.33D-03 DE=-1.71D-03 OVMax= 1.14D-02

 Cycle  12  Pass 1  IDiag  1:
 E= -1775.93990630133     Delta-E=       -0.000949483117 Rises=F Damp=T
 DIIS: error= 2.12D-03 at cycle  12 NSaved=  12.
 NSaved=12 IEnMin=12 EnMin= -1775.93990630133     IErMin=10 ErrMin= 2.08D-03
 ErrMax= 2.12D-03  0.00D+00 EMaxC= 1.00D+00 BMatC= 9.97D-05 BMatP= 1.25D-04
 IDIUse=1 WtCom= 1.00D+00 WtEn= 0.00D+00
 Coeff-Com: -0.534D-03-0.704D-01 0.113D+00 0.357D+00-0.608D+00-0.126D+00
 Coeff-Com:  0.720D+00 0.912D+00-0.398D+01 0.289D+01-0.258D+00 0.105D+01
 Coeff:     -0.534D-03-0.704D-01 0.113D+00 0.357D+00-0.608D+00-0.126D+00
 Coeff:      0.720D+00 0.912D+00-0.398D+01 0.289D+01-0.258D+00 0.105D+01
 Gap=     0.219 Goal=   None    Shift=    0.500
 Gap=     0.069 Goal=   None    Shift=    0.500
 GapD=    0.069 DampG=0.500 DampE=1.000 DampFc=0.5000 IDamp=-1.
 Damping current iteration by 5.00D-01
 RMSDP=4.57D-05 MaxDP=3.23D-03 DE=-9.49D-04 OVMax= 1.04D-02

 Cycle  13  Pass 1  IDiag  1:
 E= -1775.94046261546     Delta-E=       -0.000556314129 Rises=F Damp=T
 DIIS: error= 2.14D-03 at cycle  13 NSaved=  13.
 NSaved=13 IEnMin=13 EnMin= -1775.94046261546     IErMin=10 ErrMin= 2.08D-03
 ErrMax= 2.14D-03  0.00D+00 EMaxC= 1.00D+00 BMatC= 9.07D-05 BMatP= 9.97D-05
 IDIUse=1 WtCom= 1.00D+00 WtEn= 0.00D+00
 Coeff-Com: -0.432D-03-0.857D-01 0.147D+00 0.337D+00-0.619D+00-0.111D+00
 Coeff-Com:  0.661D+00 0.106D+01-0.414D+01 0.427D+01-0.474D+01 0.628D+01
 Coeff-Com: -0.205D+01
 Coeff:     -0.432D-03-0.857D-01 0.147D+00 0.337D+00-0.619D+00-0.111D+00
 Coeff:      0.661D+00 0.106D+01-0.414D+01 0.427D+01-0.474D+01 0.628D+01
 Coeff:     -0.205D+01
 Gap=     0.219 Goal=   None    Shift=    0.500
 Gap=     0.070 Goal=   None    Shift=    0.500
 GapD=    0.070 DampG=0.500 DampE=1.000 DampFc=0.5000 IDamp=-1.
 Damping current iteration by 5.00D-01
 RMSDP=3.65D-05 MaxDP=2.48D-03 DE=-5.56D-04 OVMax= 9.02D-03

 Cycle  14  Pass 1  IDiag  1:
 E= -1775.94080841288     Delta-E=       -0.000345797423 Rises=F Damp=T
 DIIS: error= 2.15D-03 at cycle  14 NSaved=  14.
 NSaved=14 IEnMin=14 EnMin= -1775.94080841288     IErMin=10 ErrMin= 2.08D-03
 ErrMax= 2.15D-03  0.00D+00 EMaxC= 1.00D+00 BMatC= 9.01D-05 BMatP= 9.07D-05
 IDIUse=1 WtCom= 1.00D+00 WtEn= 0.00D+00
 Large coefficients: NSaved= 14 BigCof=   15.69 CofMax=   10.00 Det=-8.54D-10
 Inversion failed.  Reducing to 13 matrices.
 Large coefficients: NSaved= 13 BigCof=   15.63 CofMax=   10.00 Det=-8.54D-10
 Inversion failed.  Reducing to 12 matrices.
 Coeff-Com: -0.346D-01 0.218D+00-0.215D+00-0.192D+00 0.407D+00 0.868D+00
 Coeff-Com: -0.351D+01 0.345D+01-0.295D+01 0.479D+01-0.253D+01 0.700D+00
 Coeff:     -0.346D-01 0.218D+00-0.215D+00-0.192D+00 0.407D+00 0.868D+00
 Coeff:     -0.351D+01 0.345D+01-0.295D+01 0.479D+01-0.253D+01 0.700D+00
 Gap=     0.219 Goal=   None    Shift=    0.500
 Gap=     0.070 Goal=   None    Shift=    0.500
 GapD=    0.070 DampG=0.500 DampE=1.000 DampFc=0.5000 IDamp=-1.
 Damping current iteration by 5.00D-01
 RMSDP=3.02D-05 MaxDP=2.08D-03 DE=-3.46D-04 OVMax= 7.99D-03

 Cycle  15  Pass 1  IDiag  1:
 E= -1775.94103813723     Delta-E=       -0.000229724349 Rises=F Damp=T
 DIIS: error= 2.14D-03 at cycle  15 NSaved=  13.
 NSaved=13 IEnMin=13 EnMin= -1775.94103813723     IErMin= 8 ErrMin= 2.08D-03
 ErrMax= 2.14D-03  0.00D+00 EMaxC= 1.00D+00 BMatC= 9.58D-05 BMatP= 9.01D-05
 IDIUse=1 WtCom= 1.00D+00 WtEn= 0.00D+00
 Large coefficients: NSaved= 13 BigCof=   16.87 CofMax=   10.00 Det=-1.16D-09
 Inversion failed.  Reducing to 12 matrices.
 Large coefficients: NSaved= 12 BigCof=   15.70 CofMax=   10.00 Det=-1.33D-09
 Inversion failed.  Reducing to 11 matrices.
 Large coefficients: NSaved= 11 BigCof=   12.62 CofMax=   10.00 Det=-6.75D-10
 Inversion failed.  Reducing to 10 matrices.
 Large coefficients: NSaved= 10 BigCof=   12.08 CofMax=   10.00 Det=-1.49D-09
 Inversion failed.  Reducing to  9 matrices.
 Coeff-Com:  0.304D-01 0.850D+00-0.334D+01 0.447D+01-0.647D+01 0.833D+01
 Coeff-Com: -0.179D+01-0.215D+01 0.106D+01
 Coeff:      0.304D-01 0.850D+00-0.334D+01 0.447D+01-0.647D+01 0.833D+01
 Coeff:     -0.179D+01-0.215D+01 0.106D+01
 Gap=     0.219 Goal=   None    Shift=    0.500
 Gap=     0.070 Goal=   None    Shift=    0.500
 GapD=    0.070 DampG=0.500 DampE=1.000 DampFc=0.5000 IDamp=-1.
 Damping current iteration by 5.00D-01
 RMSDP=2.48D-05 MaxDP=1.69D-03 DE=-2.30D-04 OVMax= 6.77D-03

 Cycle  16  Pass 1  IDiag  1:
 E= -1775.94119884553     Delta-E=       -0.000160708302 Rises=F Damp=T
 DIIS: error= 2.13D-03 at cycle  16 NSaved=  10.
 NSaved=10 IEnMin=10 EnMin= -1775.94119884553     IErMin= 4 ErrMin= 2.08D-03
 ErrMax= 2.13D-03  0.00D+00 EMaxC= 1.00D+00 BMatC= 1.07D-04 BMatP= 9.01D-05
 IDIUse=1 WtCom= 1.00D+00 WtEn= 0.00D+00
 Coeff-Com:  0.294D-01 0.849D+00-0.329D+01 0.433D+01-0.612D+01 0.730D+01
 Coeff-Com:  0.135D+00-0.341D+01 0.660D+00 0.522D+00
 Coeff:      0.294D-01 0.849D+00-0.329D+01 0.433D+01-0.612D+01 0.730D+01
 Coeff:      0.135D+00-0.341D+01 0.660D+00 0.522D+00
 Gap=     0.219 Goal=   None    Shift=    0.500
 Gap=     0.070 Goal=   None    Shift=    0.500
 GapD=    0.070 DampG=0.500 DampE=1.000 DampFc=0.5000 IDamp=-1.
 Damping current iteration by 5.00D-01
 RMSDP=2.12D-05 MaxDP=1.43D-03 DE=-1.61D-04 OVMax= 6.01D-03

 Cycle  17  Pass 1  IDiag  1:
 E= -1775.94131819088     Delta-E=       -0.000119345348 Rises=F Damp=T
 DIIS: error= 2.11D-03 at cycle  17 NSaved=  11.
 NSaved=11 IEnMin=11 EnMin= -1775.94131819088     IErMin= 4 ErrMin= 2.08D-03
 ErrMax= 2.11D-03  0.00D+00 EMaxC= 1.00D+00 BMatC= 1.21D-04 BMatP= 9.01D-05
 IDIUse=1 WtCom= 1.00D+00 WtEn= 0.00D+00
 Large coefficients: NSaved= 11 BigCof=   23.76 CofMax=   10.00 Det=-4.27D-10
 Inversion failed.  Reducing to 10 matrices.
 Large coefficients: NSaved= 10 BigCof=   23.41 CofMax=   10.00 Det=-6.75D-10
 Inversion failed.  Reducing to  9 matrices.
 Large coefficients: NSaved=  9 BigCof=   14.67 CofMax=   10.00 Det=-7.09D-10
 Inversion failed.  Reducing to  8 matrices.
 Large coefficients: NSaved=  8 BigCof=   16.21 CofMax=   10.00 Det=-6.06D-10
 Inversion failed.  Reducing to  7 matrices.
 Large coefficients: NSaved=  7 BigCof=   12.09 CofMax=   10.00 Det=-8.98D-10
 Inversion failed.  Reducing to  6 matrices.
 Large coefficients: NSaved=  6 BigCof=   13.32 CofMax=   10.00 Det=-1.67D-09
 Inversion failed.  Reducing to  5 matrices.
 Large coefficients: NSaved=  5 BigCof=   14.26 CofMax=   10.00 Det=-1.73D-09
 Inversion failed.  Reducing to  4 matrices.
 Large coefficients: NSaved=  4 BigCof=   19.94 CofMax=   10.00 Det=-3.08D-09
 Inversion failed.  Reducing to  3 matrices.
 Large coefficients: NSaved=  3 BigCof=   16.32 CofMax=   10.00 Det=-5.16D-09
 Inversion failed.  Reducing to  2 matrices.
 Coeff-Com:  0.404D+01-0.304D+01
 Coeff:      0.404D+01-0.304D+01
 Gap=     0.219 Goal=   None    Shift=    0.500
 Gap=     0.070 Goal=   None    Shift=    0.500
 GapD=    0.070 DampG=0.500 DampE=1.000 DampFc=0.5000 IDamp=-1.
 Damping current iteration by 5.00D-01
 RMSDP=2.00D-05 MaxDP=1.38D-03 DE=-1.19D-04 OVMax= 5.95D-03

 Cycle  18  Pass 1  IDiag  1:
 E= -1775.94141708983     Delta-E=       -0.000098898949 Rises=F Damp=T
 DIIS: error= 2.10D-03 at cycle  18 NSaved=   3.
 NSaved= 3 IEnMin= 3 EnMin= -1775.94141708983     IErMin= 3 ErrMin= 2.10D-03
 ErrMax= 2.10D-03  0.00D+00 EMaxC= 1.00D+00 BMatC= 1.35D-04 BMatP= 1.07D-04
 IDIUse=1 WtCom= 1.00D+00 WtEn= 0.00D+00
 Coeff-Com:  0.503D+01-0.533D+01 0.130D+01
 Coeff:      0.503D+01-0.533D+01 0.130D+01
 Gap=     0.219 Goal=   None    Shift=    0.500
 Gap=     0.070 Goal=   None    Shift=    0.500
 GapD=    0.070 DampG=0.500 DampE=1.000 DampFc=0.5000 IDamp=-1.
 Damping current iteration by 5.00D-01
 RMSDP=1.87D-05 MaxDP=1.27D-03 DE=-9.89D-05 OVMax= 5.43D-03

 Cycle  19  Pass 1  IDiag  1:
 E= -1775.94150169815     Delta-E=       -0.000084608324 Rises=F Damp=T
 DIIS: error= 2.09D-03 at cycle  19 NSaved=   4.
 NSaved= 4 IEnMin= 4 EnMin= -1775.94150169815     IErMin= 4 ErrMin= 2.09D-03
 ErrMax= 2.09D-03  0.00D+00 EMaxC= 1.00D+00 BMatC= 1.50D-04 BMatP= 1.07D-04
 IDIUse=1 WtCom= 1.00D+00 WtEn= 0.00D+00
 Large coefficients: NSaved=  4 BigCof=   12.90 CofMax=   10.00 Det=-1.09D-08
 Inversion failed.  Reducing to  3 matrices.
 Large coefficients: NSaved=  3 BigCof=   16.31 CofMax=   10.00 Det=-2.53D-08
 Inversion failed.  Reducing to  2 matrices.
 Coeff-Com:  0.797D+01-0.697D+01
 Coeff:      0.797D+01-0.697D+01
 Gap=     0.218 Goal=   None    Shift=    0.500
 Gap=     0.070 Goal=   None    Shift=    0.500
 GapD=    0.070 DampG=0.500 DampE=1.000 DampFc=0.5000 IDamp=-1.
 Damping current iteration by 5.00D-01
 RMSDP=1.43D-05 MaxDP=8.68D-04 DE=-8.46D-05 OVMax= 3.54D-03

 Cycle  20  Pass 1  IDiag  1:
 E= -1775.94156298162     Delta-E=       -0.000061283472 Rises=F Damp=T
 DIIS: error= 2.07D-03 at cycle  20 NSaved=   3.
 NSaved= 3 IEnMin= 3 EnMin= -1775.94156298162     IErMin= 3 ErrMin= 2.07D-03
 ErrMax= 2.07D-03  0.00D+00 EMaxC= 1.00D+00 BMatC= 1.72D-04 BMatP= 1.35D-04
 IDIUse=1 WtCom= 1.00D+00 WtEn= 0.00D+00
 Coeff-Com:  0.836D+01-0.765D+01 0.290D+00
 Coeff:      0.836D+01-0.765D+01 0.290D+00
 Gap=     0.218 Goal=   None    Shift=    0.500
 Gap=     0.070 Goal=   None    Shift=    0.500
 GapD=    0.070 DampG=0.500 DampE=1.000 DampFc=0.5000 IDamp=-1.
 Damping current iteration by 5.00D-01
 RMSDP=1.21D-05 MaxDP=1.01D-03 DE=-6.13D-05 OVMax= 2.96D-03

 Cycle  21  Pass 1  IDiag  1:
 E= -1775.94160867743     Delta-E=       -0.000045695802 Rises=F Damp=T
 DIIS: error= 2.04D-03 at cycle  21 NSaved=   4.
 NSaved= 4 IEnMin= 4 EnMin= -1775.94160867743     IErMin= 4 ErrMin= 2.04D-03
 ErrMax= 2.04D-03  0.00D+00 EMaxC= 1.00D+00 BMatC= 1.97D-04 BMatP= 1.35D-04
 IDIUse=1 WtCom= 1.00D+00 WtEn= 0.00D+00
 Coeff-Com:  0.838D+01-0.747D+01-0.144D+00 0.234D+00
 Coeff:      0.838D+01-0.747D+01-0.144D+00 0.234D+00
 Gap=     0.218 Goal=   None    Shift=    0.500
 Gap=     0.070 Goal=   None    Shift=    0.500
 GapD=    0.070 DampG=0.500 DampE=1.000 DampFc=0.5000 IDamp=-1.
 Damping current iteration by 5.00D-01
 RMSDP=9.99D-06 MaxDP=8.50D-04 DE=-4.57D-05 OVMax= 2.57D-03

 Cycle  22  Pass 1  IDiag  1:
 E= -1775.94164462280     Delta-E=       -0.000035945372 Rises=F Damp=T
 DIIS: error= 2.01D-03 at cycle  22 NSaved=   5.
 NSaved= 5 IEnMin= 5 EnMin= -1775.94164462280     IErMin= 5 ErrMin= 2.01D-03
 ErrMax= 2.01D-03  0.00D+00 EMaxC= 1.00D+00 BMatC= 2.20D-04 BMatP= 1.35D-04
 IDIUse=1 WtCom= 1.00D+00 WtEn= 0.00D+00
 Coeff-Com:  0.866D+01-0.984D+01 0.744D+01-0.944D+01 0.418D+01
 Coeff:      0.866D+01-0.984D+01 0.744D+01-0.944D+01 0.418D+01
 Gap=     0.218 Goal=   None    Shift=    0.500
 Gap=     0.070 Goal=   None    Shift=    0.500
 GapD=    0.070 DampG=0.500 DampE=1.000 DampFc=0.5000 IDamp=-1.
 Damping current iteration by 5.00D-01
 RMSDP=8.18D-06 MaxDP=5.43D-04 DE=-3.59D-05 OVMax= 2.31D-03

 Cycle  23  Pass 1  IDiag  1:
 E= -1775.94167489784     Delta-E=       -0.000030275040 Rises=F Damp=T
 DIIS: error= 1.99D-03 at cycle  23 NSaved=   6.
 NSaved= 6 IEnMin= 6 EnMin= -1775.94167489784     IErMin= 6 ErrMin= 1.99D-03
 ErrMax= 1.99D-03  0.00D+00 EMaxC= 1.00D+00 BMatC= 2.39D-04 BMatP= 1.35D-04
 IDIUse=1 WtCom= 1.00D+00 WtEn= 0.00D+00
 Large coefficients: NSaved=  6 BigCof=   18.94 CofMax=   10.00 Det=-6.89D-11
 Inversion failed.  Reducing to  5 matrices.
 Large coefficients: NSaved=  5 BigCof=   67.47 CofMax=   10.00 Det=-8.25D-11
 Inversion failed.  Reducing to  4 matrices.
 Large coefficients: NSaved=  4 BigCof=  134.83 CofMax=   10.00 Det=-1.30D-10
 Inversion failed.  Reducing to  3 matrices.
 Large coefficients: NSaved=  3 BigCof=   47.59 CofMax=   10.00 Det=-6.43D-10
 Inversion failed.  Reducing to  2 matrices.
 Large coefficients: NSaved=  2 BigCof=   14.45 CofMax=   10.00 Det=-6.97D-07
 Coeff-Com:  0.144D+02-0.134D+02
 Coeff:      0.144D+02-0.134D+02
 Gap=     0.220 Goal=   None    Shift=    0.500
 Gap=     0.071 Goal=   None    Shift=    0.500
 GapD=    0.071 DampG=0.500 DampE=1.000 DampFc=0.5000 IDamp=-1.
 Damping current iteration by 5.00D-01
 RMSDP=2.07D-05 MaxDP=2.65D-03 DE=-3.03D-05 OVMax= 5.36D-03

 Cycle  24  Pass 1  IDiag  1:
 E= -1775.94173586433     Delta-E=       -0.000060966488 Rises=F Damp=T
 DIIS: error= 2.01D-03 at cycle  24 NSaved=   3.
 NSaved= 3 IEnMin= 3 EnMin= -1775.94173586433     IErMin= 2 ErrMin= 1.99D-03
 ErrMax= 2.01D-03  0.00D+00 EMaxC= 1.00D+00 BMatC= 2.33D-04 BMatP= 2.20D-04
 IDIUse=1 WtCom= 1.00D+00 WtEn= 0.00D+00
 Large coefficients: NSaved=  3 BigCof=   14.33 CofMax=   10.00 Det=-4.66D-07
 Inversion failed.  Reducing to  2 matrices.
 Coeff-Com: -0.321D+01 0.421D+01
 Coeff:     -0.321D+01 0.421D+01
 Gap=     0.229 Goal=   None    Shift=    0.500
 Gap=     0.075 Goal=   None    Shift=    0.500
 GapD=    0.075 DampG=0.500 DampE=1.000 DampFc=0.5000 IDamp=-1.
 Damping current iteration by 5.00D-01
 RMSDP=7.69D-05 MaxDP=1.31D-02 DE=-6.10D-05 OVMax= 1.08D-02

 Cycle  25  Pass 1  IDiag  1:
 E= -1775.94187321415     Delta-E=       -0.000137349822 Rises=F Damp=T
 DIIS: error= 2.21D-03 at cycle  25 NSaved=   3.
 NSaved= 3 IEnMin= 3 EnMin= -1775.94187321415     IErMin= 1 ErrMin= 1.99D-03
 ErrMax= 2.21D-03  0.00D+00 EMaxC= 1.00D+00 BMatC= 1.22D-04 BMatP= 2.33D-04
 IDIUse=1 WtCom= 1.00D+00 WtEn= 0.00D+00
 Coeff-Com: -0.173D+01 0.136D+01 0.137D+01
 Coeff:     -0.173D+01 0.136D+01 0.137D+01
 Gap=     0.227 Goal=   None    Shift=    0.500
 Gap=     0.073 Goal=   None    Shift=    0.500
 GapD=    0.073 DampG=0.500 DampE=1.000 DampFc=0.5000 IDamp=-1.
 Damping current iteration by 5.00D-01
 RMSDP=6.48D-05 MaxDP=1.01D-02 DE=-1.37D-04 OVMax= 1.13D-02

 Cycle  26  Pass 1  IDiag  1:
 E= -1775.94202151755     Delta-E=       -0.000148303400 Rises=F Damp=T
 DIIS: error= 2.31D-03 at cycle  26 NSaved=   4.
 NSaved= 4 IEnMin= 4 EnMin= -1775.94202151755     IErMin= 1 ErrMin= 1.99D-03
 ErrMax= 2.31D-03  0.00D+00 EMaxC= 1.00D+00 BMatC= 1.09D-04 BMatP= 1.22D-04
 IDIUse=1 WtCom= 1.00D+00 WtEn= 0.00D+00
 Coeff-Com: -0.838D+00 0.847D+00-0.669D+00 0.166D+01
 Coeff:     -0.838D+00 0.847D+00-0.669D+00 0.166D+01
 Gap=     0.227 Goal=   None    Shift=    0.500
 Gap=     0.073 Goal=   None    Shift=    0.500
 GapD=    0.073 DampG=0.500 DampE=1.000 DampFc=0.5000 IDamp=-1.
 Damping current iteration by 5.00D-01
 RMSDP=5.62D-05 MaxDP=7.60D-03 DE=-1.48D-04 OVMax= 1.13D-02

 Cycle  27  Pass 1  IDiag  1:
 E= -1775.94218118325     Delta-E=       -0.000159665698 Rises=F Damp=T
 DIIS: error= 2.36D-03 at cycle  27 NSaved=   5.
 NSaved= 5 IEnMin= 5 EnMin= -1775.94218118325     IErMin= 1 ErrMin= 1.99D-03
 ErrMax= 2.36D-03  0.00D+00 EMaxC= 1.00D+00 BMatC= 1.08D-04 BMatP= 1.09D-04
 IDIUse=1 WtCom= 1.00D+00 WtEn= 0.00D+00
 Coeff-Com: -0.146D+01 0.163D+01-0.154D+01 0.421D+01-0.184D+01
 Coeff:     -0.146D+01 0.163D+01-0.154D+01 0.421D+01-0.184D+01
 Gap=     0.226 Goal=   None    Shift=    0.500
 Gap=     0.073 Goal=   None    Shift=    0.500
 GapD=    0.073 DampG=0.500 DampE=1.000 DampFc=0.5000 IDamp=-1.
 Damping current iteration by 5.00D-01
 RMSDP=3.61D-05 MaxDP=3.25D-03 DE=-1.60D-04 OVMax= 8.21D-03

 Cycle  28  Pass 1  IDiag  1:
 E= -1775.94232278453     Delta-E=       -0.000141601288 Rises=F Damp=T
 DIIS: error= 2.35D-03 at cycle  28 NSaved=   6.
 NSaved= 6 IEnMin= 6 EnMin= -1775.94232278453     IErMin= 1 ErrMin= 1.99D-03
 ErrMax= 2.35D-03  0.00D+00 EMaxC= 1.00D+00 BMatC= 1.16D-04 BMatP= 1.08D-04
 IDIUse=1 WtCom= 1.00D+00 WtEn= 0.00D+00
 Coeff-Com: -0.692D+00 0.173D+01-0.551D+00-0.156D+01 0.877D+01-0.669D+01
 Coeff:     -0.692D+00 0.173D+01-0.551D+00-0.156D+01 0.877D+01-0.669D+01
 Gap=     0.221 Goal=   None    Shift=    0.500
 Gap=     0.072 Goal=   None    Shift=    0.500
 GapD=    0.072 DampG=0.500 DampE=1.000 DampFc=0.5000 IDamp=-1.
 Damping current iteration by 5.00D-01
 RMSDP=3.44D-05 MaxDP=5.63D-03 DE=-1.42D-04 OVMax= 1.69D-03

 Cycle  29  Pass 1  IDiag  1:
 E= -1775.94237360034     Delta-E=       -0.000050815806 Rises=F Damp=T
 DIIS: error= 2.22D-03 at cycle  29 NSaved=   7.
 NSaved= 7 IEnMin= 7 EnMin= -1775.94237360034     IErMin= 1 ErrMin= 1.99D-03
 ErrMax= 2.22D-03  0.00D+00 EMaxC= 1.00D+00 BMatC= 1.70D-04 BMatP= 1.08D-04
 IDIUse=1 WtCom= 1.00D+00 WtEn= 0.00D+00
 Large coefficients: NSaved=  7 BigCof=   30.12 CofMax=   10.00 Det=-1.48D-08
 Inversion failed.  Reducing to  6 matrices.
 Large coefficients: NSaved=  6 BigCof=   30.43 CofMax=   10.00 Det=-1.58D-08
 Inversion failed.  Reducing to  5 matrices.
 Large coefficients: NSaved=  5 BigCof=   20.64 CofMax=   10.00 Det=-1.95D-08
 Inversion failed.  Reducing to  4 matrices.
 Coeff-Com: -0.108D+01 0.480D+01-0.326D+01 0.542D+00
 Coeff:     -0.108D+01 0.480D+01-0.326D+01 0.542D+00
 Gap=     0.226 Goal=   None    Shift=    0.500
 Gap=     0.073 Goal=   None    Shift=    0.500
 GapD=    0.073 DampG=0.500 DampE=1.000 DampFc=0.5000 IDamp=-1.
 Damping current iteration by 5.00D-01
 RMSDP=2.01D-05 MaxDP=1.36D-03 DE=-5.08D-05 OVMax= 7.37D-03

 Cycle  30  Pass 1  IDiag  1:
 E= -1775.94245827333     Delta-E=       -0.000084672987 Rises=F Damp=T
 DIIS: error= 2.18D-03 at cycle  30 NSaved=   5.
 NSaved= 5 IEnMin= 5 EnMin= -1775.94245827333     IErMin= 5 ErrMin= 2.18D-03
 ErrMax= 2.18D-03  0.00D+00 EMaxC= 1.00D+00 BMatC= 1.94D-04 BMatP= 1.08D-04
 IDIUse=1 WtCom= 1.00D+00 WtEn= 0.00D+00
 Coeff-Com: -0.173D+01 0.810D+01-0.633D+01-0.588D+00 0.155D+01
 Coeff:     -0.173D+01 0.810D+01-0.633D+01-0.588D+00 0.155D+01
 Gap=     0.225 Goal=   None    Shift=    0.500
 Gap=     0.073 Goal=   None    Shift=    0.500
 GapD=    0.073 DampG=0.500 DampE=1.000 DampFc=0.5000 IDamp=-1.
 Damping current iteration by 5.00D-01
 RMSDP=1.93D-05 MaxDP=1.24D-03 DE=-8.47D-05 OVMax= 5.42D-03

 Cycle  31  Pass 1  IDiag  1:
 E= -1775.94253762428     Delta-E=       -0.000079350956 Rises=F Damp=T
 DIIS: error= 2.16D-03 at cycle  31 NSaved=   6.
 NSaved= 6 IEnMin= 6 EnMin= -1775.94253762428     IErMin= 6 ErrMin= 2.16D-03
 ErrMax= 2.16D-03  0.00D+00 EMaxC= 1.00D+00 BMatC= 2.15D-04 BMatP= 1.08D-04
 IDIUse=1 WtCom= 1.00D+00 WtEn= 0.00D+00
 Coeff-Com: -0.330D+00 0.430D+01-0.345D+01-0.239D+01 0.606D+01-0.320D+01
 Coeff:     -0.330D+00 0.430D+01-0.345D+01-0.239D+01 0.606D+01-0.320D+01
 Gap=     0.225 Goal=   None    Shift=    0.500
 Gap=     0.073 Goal=   None    Shift=    0.500
 GapD=    0.073 DampG=0.500 DampE=1.000 DampFc=0.5000 IDamp=-1.
 Damping current iteration by 5.00D-01
 RMSDP=1.47D-05 MaxDP=9.42D-04 DE=-7.94D-05 OVMax= 4.03D-03

 Cycle  32  Pass 1  IDiag  1:
 E= -1775.94260001017     Delta-E=       -0.000062385888 Rises=F Damp=T
 DIIS: error= 2.12D-03 at cycle  32 NSaved=   7.
 NSaved= 7 IEnMin= 7 EnMin= -1775.94260001017     IErMin= 7 ErrMin= 2.12D-03
 ErrMax= 2.12D-03  0.00D+00 EMaxC= 1.00D+00 BMatC= 2.47D-04 BMatP= 1.08D-04
 IDIUse=1 WtCom= 1.00D+00 WtEn= 0.00D+00
 Coeff-Com: -0.227D+00 0.387D+01-0.296D+01-0.283D+01 0.782D+01-0.566D+01
 Coeff-Com:  0.997D+00
 Coeff:     -0.227D+00 0.387D+01-0.296D+01-0.283D+01 0.782D+01-0.566D+01
 Coeff:      0.997D+00
 Gap=     0.225 Goal=   None    Shift=    0.500
 Gap=     0.073 Goal=   None    Shift=    0.500
 GapD=    0.073 DampG=0.500 DampE=1.000 DampFc=0.5000 IDamp=-1.
 Damping current iteration by 5.00D-01
 RMSDP=1.23D-05 MaxDP=7.57D-04 DE=-6.24D-05 OVMax= 3.46D-03

 >>>>>>>>>> Convergence criterion not met.
 SCF Done:  E(ULC-wHPBE) =  -1775.94260001     A.U. after   33 cycles
            NFock= 32  Conv=0.12D-04     -V/T= 2.0036
 <Sx>= 0.0000 <Sy>= 0.0000 <Sz>= 0.5000 <S**2>= 0.7575 S= 0.5037
 <L.S>= 0.000000000000E+00
 KE= 1.769531637993D+03 PE=-9.093279502585D+03 EE= 3.073120497222D+03
 Annihilation of the first spin contaminant:
 S**2 before annihilation     0.7575,   after     0.7500
 Leave Link  502 at Tue Jan 19 02:09:05 2021, MaxMem=  4026531840 cpu:           15196.8 elap:            1904.5
 (Enter /opt/ohpc/pub/libs/gaussian/g16-A.03/sandybridge/g16/l508.exe)
 Integral symmetry usage will be decided dynamically.
 Tight linear equation convergence will be used.
 ULC-wHPBE wavefunction.
 Quadratic Convergence SCF Method.
 Line search only if initial step raises energy.
 FoFJK:  IHMeth= 1 ICntrl=       0 DoSepK=T KAlg= 0 I1Cent=           0 FoldK=F
 IRaf=         1 NMat=       1 IRICut=       1 DoRegI=T DoRafI=F ISym2E= 1 IDoP0=0 IntGTp=1.
 FoFCou: FMM=F IPFlag=           0 FMFlag=      100000 FMFlg1=           0
         NFxFlg=           0 DoJE=T BraDBF=F KetDBF=F FulRan=T
         wScrn=  0.000000 ICntrl=       500 IOpCl=  0 I1Cent=           0 NGrid=           0
         NMat0=    1 NMatS0=      1 NMatT0=    0 NMatD0=    1 NMtDS0=    0 NMtDT0=    0
 Petite list used in FoFCou.
 Iteration   1 EE= -1775.94270176195                                    Grad=1.259D-02 Max rot=    0.3109 deg.
 Gradient too large for Newton-Raphson -- use scaled steepest descent instead.
     ILin= 1 X=0.000D+00 Y=-1.775942701762D+03 DE= 0.00D+00 F= -3.16D-04
     ILin= 2 X=3.000D-01 Y=-1.775942788756D+03 DE=-8.70D-05 F= -2.64D-04
     ILin= 3 X=6.000D-01 Y=-1.775942860439D+03 DE=-1.59D-04 F= -2.13D-04
     ILin= 4 X=1.200D+00 Y=-1.775942958069D+03 DE=-2.56D-04 F= -1.12D-04
     ILin= 5 X=2.400D+00 Y=-1.775942971731D+03 DE=-2.70D-04 F=  8.89D-05
     Accept linear search using points  4 and  5.
     An  expanding polynomial of degree  5 produced  1.8874
 Iteration   2 EE= -1775.94299538634     Delta-E=       -0.000293624393 Grad=1.731D-02 Max rot=    0.4764 deg.
 Gradient too large for Newton-Raphson -- use scaled steepest descent instead.
     ILin= 1 X=0.000D+00 Y=-1.775942995386D+03 DE= 0.00D+00 F= -5.43D-04
     ILin= 2 X=8.000D-01 Y=-1.775943262745D+03 DE=-2.67D-04 F= -1.25D-04
     Reject lnstep minimum 1.912D+00 FVal=-1.775943393445D+03 Lims=  0.00D+00  8.00D-01
     ILin= 3 X=1.500D+00 Y=-1.775943221366D+03 DE=-2.26D-04 F=  2.44D-04
     An  expanding polynomial of degree  3 produced  1.0373
 Iteration   3 EE= -1775.94327762870     Delta-E=       -0.000282242361 Grad=1.326D-02 Max rot=    0.3500 deg.
 Gradient too large for Newton-Raphson -- use scaled steepest descent instead.
     ILin= 1 X=0.000D+00 Y=-1.775943277629D+03 DE= 0.00D+00 F= -3.21D-04
     ILin= 2 X=1.400D+00 Y=-1.775943538410D+03 DE=-2.61D-04 F= -5.20D-05
     Reject lnstep minimum 1.476D+00 FVal=-1.775943539846D+03 Lims=  0.00D+00  1.40D+00
     ILin= 3 X=2.800D+00 Y=-1.775943424636D+03 DE=-1.47D-04 F=  2.14D-04
     An  expanding polynomial of degree  3 produced  1.6747
 Iteration   4 EE= -1775.94354549759     Delta-E=       -0.000267868885 Grad=1.813D-02 Max rot=    0.4737 deg.
 Gradient too large for Newton-Raphson -- use scaled steepest descent instead.
     ILin= 1 X=0.000D+00 Y=-1.775943545498D+03 DE= 0.00D+00 F= -5.50D-04
     ILin= 2 X=1.300D+00 Y=-1.775943792252D+03 DE=-2.47D-04 F=  1.72D-04
     Accept linear search using points  1 and  2.
     An  expanding polynomial of degree  2 produced  1.0823
 Iteration   5 EE= -1775.94381640793     Delta-E=       -0.000270910347 Grad=1.559D-02 Max rot=    0.3549 deg.
 Gradient too large for Newton-Raphson -- use scaled steepest descent instead.
     ILin= 1 X=0.000D+00 Y=-1.775943816408D+03 DE= 0.00D+00 F= -4.03D-04
     ILin= 2 X=1.300D+00 Y=-1.775944074743D+03 DE=-2.58D-04 F=  5.41D-06
     Accept linear search using points  1 and  2.
     An  expanding polynomial of degree  2 produced  1.2914
     Minimum is close to point  2 DX= -8.60D-03 DF= -1.79D-08 DXR=  6.66D-03 DFR=  6.92D-05 which will be used.
 Iteration   6 EE= -1775.94407474259     Delta-E=       -0.000258334655 Grad=1.602D-02 Max rot=    0.4678 deg.
 Gradient too large for Newton-Raphson -- use scaled steepest descent instead.
     ILin= 1 X=0.000D+00 Y=-1.775944074743D+03 DE= 0.00D+00 F= -4.59D-04
     ILin= 2 X=1.200D+00 Y=-1.775944337693D+03 DE=-2.63D-04 F=  2.16D-05
     Accept linear search using points  1 and  2.
     An  expanding polynomial of degree  2 produced  1.1659
     Minimum is close to point  2 DX= -3.41D-02 DF= -3.06D-07 DXR=  2.93D-02 DFR=  1.17D-03 which will be used.
 Iteration   7 EE= -1775.94433769316     Delta-E=       -0.000262950568 Grad=1.671D-02 Max rot=    0.3610 deg.
 Gradient too large for Newton-Raphson -- use scaled steepest descent instead.
     ILin= 1 X=0.000D+00 Y=-1.775944337693D+03 DE= 0.00D+00 F= -4.46D-04
     ILin= 2 X=1.200D+00 Y=-1.775944603738D+03 DE=-2.66D-04 F=  2.81D-06
     Accept linear search using points  1 and  2.
     An  expanding polynomial of degree  2 produced  1.1954
     Minimum is close to point  2 DX= -4.55D-03 DF= -5.32D-09 DXR=  3.81D-03 DFR=  2.00D-05 which will be used.
 Iteration   8 EE= -1775.94460373831     Delta-E=       -0.000266045148 Grad=1.545D-02 Max rot=    0.4712 deg.
 Gradient too large for Newton-Raphson -- use scaled steepest descent instead.
     ILin= 1 X=0.000D+00 Y=-1.775944603738D+03 DE= 0.00D+00 F= -4.39D-04
     ILin= 2 X=1.200D+00 Y=-1.775944873506D+03 DE=-2.70D-04 F= -1.03D-05
     Reject lnstep minimum 1.217D+00 FVal=-1.775944873578D+03 Lims=  0.00D+00  1.20D+00
     ILin= 3 X=2.400D+00 Y=-1.775944627058D+03 DE=-2.33D-05 F=  4.22D-04
     An  expanding polynomial of degree  3 produced  1.2271
     Minimum is close to point  2 DX=  2.71D-02 DF= -1.32D-07 DXR=  2.21D-02 DFR=  4.88D-04 which will be used.
 Iteration   9 EE= -1775.94487350570     Delta-E=       -0.000269767399 Grad=1.626D-02 Max rot=    0.3704 deg.
 Gradient too large for Newton-Raphson -- use scaled steepest descent instead.
     ILin= 1 X=0.000D+00 Y=-1.775944873506D+03 DE= 0.00D+00 F= -4.31D-04
     ILin= 2 X=1.200D+00 Y=-1.775945146349D+03 DE=-2.73D-04 F= -2.36D-05
     Reject lnstep minimum 1.239D+00 FVal=-1.775945146737D+03 Lims=  0.00D+00  1.20D+00
     ILin= 3 X=2.400D+00 Y=-1.775944930809D+03 DE=-5.73D-05 F=  3.83D-04
     An  expanding polynomial of degree  3 produced  1.2704
     Minimum is close to point  2 DX=  7.04D-02 DF= -8.40D-07 DXR=  5.54D-02 DFR=  3.08D-03 which will be used.
 Iteration  10 EE= -1775.94514634873     Delta-E=       -0.000272843022 Grad=1.507D-02 Max rot=    0.4752 deg.
 Gradient too large for Newton-Raphson -- use scaled steepest descent instead.
     ILin= 1 X=0.000D+00 Y=-1.775945146349D+03 DE= 0.00D+00 F= -4.27D-04
     ILin= 2 X=1.200D+00 Y=-1.775945422437D+03 DE=-2.76D-04 F= -3.31D-05
     Reject lnstep minimum 1.255D+00 FVal=-1.775945423199D+03 Lims=  0.00D+00  1.20D+00
     ILin= 3 X=2.500D+00 Y=-1.775945186524D+03 DE=-4.02D-05 F=  3.97D-04
     An  expanding polynomial of degree  3 produced  1.2988
     Minimum is close to point  2 DX=  9.88D-02 DF= -1.61D-06 DXR=  7.61D-02 DFR=  5.82D-03 which will be used.
 Iteration  11 EE= -1775.94542243656     Delta-E=       -0.000276087836 Grad=1.593D-02 Max rot=    0.3766 deg.
 Gradient too large for Newton-Raphson -- use scaled steepest descent instead.
     ILin= 1 X=0.000D+00 Y=-1.775945422437D+03 DE= 0.00D+00 F= -4.21D-04
     ILin= 2 X=1.300D+00 Y=-1.775945703757D+03 DE=-2.81D-04 F= -1.18D-05
     Reject lnstep minimum 1.318D+00 FVal=-1.775945703837D+03 Lims=  0.00D+00  1.30D+00
     ILin= 3 X=2.600D+00 Y=-1.775945453685D+03 DE=-3.12D-05 F=  3.96D-04
     An  expanding polynomial of degree  3 produced  1.3382
     Minimum is close to point  2 DX=  3.82D-02 DF= -2.30D-07 DXR=  2.86D-02 DFR=  8.16D-04 which will be used.
 Iteration  12 EE= -1775.94570375750     Delta-E=       -0.000281320938 Grad=1.654D-02 Max rot=    0.4870 deg.
 Gradient too large for Newton-Raphson -- use scaled steepest descent instead.
     ILin= 1 X=0.000D+00 Y=-1.775945703757D+03 DE= 0.00D+00 F= -4.85D-04
     ILin= 2 X=1.300D+00 Y=-1.775945981864D+03 DE=-2.78D-04 F=  5.80D-05
     Accept linear search using points  1 and  2.
     An  expanding polynomial of degree  2 produced  1.2203
     Minimum is close to point  2 DX= -7.97D-02 DF= -1.76D-06 DXR=  6.53D-02 DFR=  6.32D-03 which will be used.
 Iteration  13 EE= -1775.94598186387     Delta-E=       -0.000278106365 Grad=1.961D-02 Max rot=    0.3622 deg.
 Gradient too large for Newton-Raphson -- use scaled steepest descent instead.
     ILin= 1 X=0.000D+00 Y=-1.775945981864D+03 DE= 0.00D+00 F= -5.68D-04
     ILin= 2 X=1.300D+00 Y=-1.775946254168D+03 DE=-2.72D-04 F=  1.49D-04
     Accept linear search using points  1 and  2.
     An  expanding polynomial of degree  2 produced  1.1177
 Iteration  14 EE= -1775.94627213774     Delta-E=       -0.000290273878 Grad=1.627D-02 Max rot=    0.4894 deg.
 Gradient too large for Newton-Raphson -- use scaled steepest descent instead.
     ILin= 1 X=0.000D+00 Y=-1.775946272138D+03 DE= 0.00D+00 F= -4.76D-04
     ILin= 2 X=1.200D+00 Y=-1.775946556967D+03 DE=-2.85D-04 F=  2.12D-06
     Accept linear search using points  1 and  2.
     An  expanding polynomial of degree  2 produced  1.1968
     Minimum is close to point  2 DX= -3.21D-03 DF= -2.84D-09 DXR=  2.69D-03 DFR=  9.98D-06 which will be used.
 Iteration  15 EE= -1775.94655696656     Delta-E=       -0.000284828819 Grad=1.723D-02 Max rot=    0.3736 deg.
 Gradient too large for Newton-Raphson -- use scaled steepest descent instead.
     ILin= 1 X=0.000D+00 Y=-1.775946556967D+03 DE= 0.00D+00 F= -4.70D-04
     ILin= 2 X=1.200D+00 Y=-1.775946842505D+03 DE=-2.86D-04 F= -5.82D-06
     Reject lnstep minimum 1.209D+00 FVal=-1.775946842527D+03 Lims=  0.00D+00  1.20D+00
     ILin= 3 X=2.300D+00 Y=-1.775946615043D+03 DE=-5.81D-05 F=  4.19D-04
     An  expanding polynomial of degree  3 produced  1.2153
     Minimum is close to point  2 DX=  1.53D-02 DF= -4.52D-08 DXR=  1.26D-02 DFR=  1.58D-04 which will be used.
 Iteration  16 EE= -1775.94684250527     Delta-E=       -0.000285538707 Grad=1.596D-02 Max rot=    0.4900 deg.
 Gradient too large for Newton-Raphson -- use scaled steepest descent instead.
[...]
     4   Atom       -0.000910     -0.000182      0.001092
     5   Atom        0.027653     -0.012830     -0.014823
     6   Atom       -0.072910      0.028613      0.044297
     7   Atom        0.000851     -0.001090      0.000239
     8   Atom        0.001145     -0.000822     -0.000323
     9   Atom        0.000633     -0.000379     -0.000254
    10   Atom       -0.049123      0.066224     -0.017101
    11   Atom        0.022441     -0.009588     -0.012854
    12   Atom       -0.059859      0.070324     -0.010465
    13   Atom        0.012141     -0.023360      0.011219
    14   Atom       -0.002829      0.002066      0.000762
    15   Atom        0.001611     -0.001465     -0.000146
    16   Atom       -0.003697      0.001084      0.002613
    17   Atom       -0.002034      0.001237      0.000797
    18   Atom        0.001171     -0.000484     -0.000687
    19   Atom        0.001677     -0.001095     -0.000582
    20   Atom        0.000323     -0.000122     -0.000200
    21   Atom        0.000431     -0.000249     -0.000182
    22   Atom        0.000120     -0.000162      0.000042
    23   Atom       -0.007519     -0.009291      0.016810
    24   Atom       -0.460282     -0.464530      0.924812
    25   Atom       -0.012658     -0.000385      0.013043
    26   Atom        0.062111     -0.038356     -0.023756
    27   Atom        0.022159     -0.002331     -0.019827
    28   Atom       -0.002853      0.013690     -0.010837
    29   Atom       -0.009080      0.017442     -0.008362
    30   Atom        0.016613     -0.048174      0.031561
    31   Atom       -0.001315      0.001275      0.000041
    32   Atom       -0.000929     -0.000666      0.001596
    33   Atom       -0.000688      0.001205     -0.000517
    34   Atom       -0.000330      0.000599     -0.000269
    35   Atom        0.000881      0.002723     -0.003604
    36   Atom       -0.014160      0.007121      0.007039
    37   Atom        0.031930     -0.051108      0.019177
    38   Atom        0.005021     -0.027426      0.022405
    39   Atom        0.008399      0.018578     -0.026977
    40   Atom        0.005431      0.020969     -0.026400
    41   Atom       -0.030127     -0.056324      0.086452
    42   Atom        0.002285      0.000016     -0.002301
    43   Atom        0.003313     -0.001743     -0.001571
    44   Atom       -0.000295      0.001658     -0.001364
    45   Atom        0.000142      0.001193     -0.001334
    46   Atom       -0.003535      0.005900     -0.002366
 --------------------------------------------------------
                        XY            XZ            YZ
 --------------------------------------------------------
     1   Atom       -0.002145      0.003202      0.000130
     2   Atom       -0.014279     -0.005428      0.009050
     3   Atom        0.036702     -0.009104     -0.031221
     4   Atom        0.001929     -0.002632     -0.003765
     5   Atom        0.009279      0.008063     -0.036171
     6   Atom       -0.031034     -0.032925      0.125787
     7   Atom       -0.000293     -0.000449      0.001173
     8   Atom       -0.000184     -0.001052      0.001906
     9   Atom       -0.000047     -0.000022     -0.000006
    10   Atom       -0.053586     -0.029327      0.080939
    11   Atom        0.013530      0.015777     -0.033634
    12   Atom       -0.013127     -0.011691      0.081107
    13   Atom        0.005686      0.001833     -0.004786
    14   Atom        0.002155     -0.003242     -0.006179
    15   Atom       -0.000155      0.001374     -0.001925
    16   Atom       -0.000932      0.002392     -0.005758
    17   Atom       -0.000091     -0.000627     -0.003310
    18   Atom       -0.001120     -0.001706      0.002134
    19   Atom        0.001532     -0.000045     -0.001796
    20   Atom       -0.000286     -0.000448      0.000420
    21   Atom       -0.000086     -0.000183      0.000152
    22   Atom       -0.000329     -0.000471      0.000202
    23   Atom       -0.001940      0.004289     -0.005396
    24   Atom       -0.052857     -0.281694      0.269435
    25   Atom       -0.016915      0.003069      0.003635
    26   Atom        0.040979     -0.050042     -0.021092
    27   Atom        0.058580     -0.051688     -0.036890
    28   Atom       -0.013279      0.025173      0.011477
    29   Atom       -0.010994      0.027388      0.007498
    30   Atom        0.027575     -0.085214     -0.034759
    31   Atom        0.001900      0.002997      0.004585
    32   Atom        0.001952      0.004455      0.002867
    33   Atom       -0.001244      0.001206      0.000533
    34   Atom       -0.001328      0.001606      0.000134
    35   Atom       -0.006402     -0.000814     -0.004746
    36   Atom        0.010341     -0.013869      0.005031
    37   Atom       -0.010711      0.072605     -0.013556
    38   Atom       -0.037100      0.067095     -0.037718
    39   Atom        0.006259     -0.020307      0.008538
    40   Atom        0.003735     -0.023596      0.003142
    41   Atom       -0.006092      0.069443     -0.018916
    42   Atom       -0.003246     -0.003359      0.002840
    43   Atom       -0.002045     -0.004466      0.001029
    44   Atom        0.000558     -0.001208      0.000511
    45   Atom        0.001040     -0.001396      0.000128
    46   Atom        0.006205      0.002234     -0.002153
 --------------------------------------------------------


 ---------------------------------------------------------------------------------
              Anisotropic Spin Dipole Couplings in Principal Axis System
 ---------------------------------------------------------------------------------

       Atom             a.u.   MegaHertz   Gauss  10(-4) cm-1        Axes

              Baa    -0.0040    -0.543    -0.194    -0.181  0.4230  0.8301 -0.3632
     1 C(13)  Bbb    -0.0013    -0.174    -0.062    -0.058 -0.3361  0.5160  0.7879
              Bcc     0.0053     0.717     0.256     0.239  0.8415 -0.2112  0.4973
 
              Baa    -0.0136    -1.818    -0.649    -0.607 -0.0452 -0.3942  0.9179
     2 C(13)  Bbb    -0.0096    -1.292    -0.461    -0.431  0.8250  0.5034  0.2568
              Bcc     0.0232     3.110     1.110     1.038 -0.5633  0.7689  0.3025
 
              Baa    -0.0655    -2.684    -0.958    -0.895  0.9744 -0.2114  0.0763
     3 S(33)  Bbb    -0.0429    -1.757    -0.627    -0.586 -0.0259  0.2314  0.9725
              Bcc     0.1083     4.441     1.585     1.481  0.2232  0.9496 -0.2200
 
              Baa    -0.0034    -0.457    -0.163    -0.153  0.1967  0.6923  0.6942
     4 C(13)  Bbb    -0.0024    -0.327    -0.117    -0.109  0.8789 -0.4383  0.1880
              Bcc     0.0058     0.784     0.280     0.262 -0.4345 -0.5732  0.6947
 
              Baa    -0.0519    -6.964    -2.485    -2.323 -0.1522  0.6907  0.7070
     5 C(13)  Bbb     0.0222     2.981     1.064     0.994  0.1357 -0.6939  0.7072
              Bcc     0.0297     3.983     1.421     1.329  0.9790  0.2035  0.0119
 
              Baa    -0.0896   -12.020    -4.289    -4.010  0.0083  0.7298 -0.6836
     6 C(13)  Bbb    -0.0813   -10.911    -3.893    -3.639  0.9832  0.1188  0.1387
              Bcc     0.1709    22.931     8.182     7.649 -0.1825  0.6733  0.7165
 
              Baa    -0.0018    -0.238    -0.085    -0.079  0.0106  0.8650 -0.5017
     7 C(13)  Bbb     0.0004     0.047     0.017     0.016  0.7299  0.3362  0.5951
              Bcc     0.0014     0.191     0.068     0.064  0.6834 -0.3726 -0.6278
 
              Baa    -0.0026    -0.347    -0.124    -0.116 -0.1560  0.7180 -0.6783
     8 C(13)  Bbb     0.0004     0.052     0.019     0.017  0.7187  0.5537  0.4207
              Bcc     0.0022     0.294     0.105     0.098  0.6776 -0.4219 -0.6024
 
              Baa    -0.0004    -0.203    -0.073    -0.068  0.0475  0.9974  0.0547
     9 H(1)   Bbb    -0.0003    -0.136    -0.048    -0.045  0.0219 -0.0558  0.9982
              Bcc     0.0006     0.339     0.121     0.113  0.9986 -0.0462 -0.0245
 
              Baa    -0.0709    -9.518    -3.396    -3.175  0.8110  0.4980 -0.3070
    10 C(13)  Bbb    -0.0648    -8.697    -3.103    -2.901  0.4940 -0.3017  0.8154
              Bcc     0.1357    18.215     6.500     6.076 -0.3135  0.8130  0.4907
 
              Baa    -0.0508    -6.814    -2.431    -2.273 -0.2728  0.6607  0.6994
    11 C(13)  Bbb     0.0223     2.989     1.066     0.997  0.1626  0.7481 -0.6433
              Bcc     0.0285     3.825     1.365     1.276  0.9482  0.0618  0.3115
 
              Baa    -0.0641    -8.607    -3.071    -2.871  0.7502 -0.2863  0.5960
    12 C(13)  Bbb    -0.0580    -7.790    -2.780    -2.598  0.6544  0.4506 -0.6073
              Bcc     0.1222    16.396     5.851     5.469 -0.0947  0.8456  0.5254
 
              Baa    -0.0249    -3.347    -1.194    -1.117 -0.1567  0.9780  0.1374
    13 C(13)  Bbb     0.0113     1.513     0.540     0.505 -0.4923 -0.1980  0.8476
              Bcc     0.0137     1.835     0.655     0.612  0.8562  0.0652  0.5125
 
              Baa    -0.0054    -2.893    -1.032    -0.965  0.5347  0.4410  0.7209
    14 H(1)   Bbb    -0.0034    -1.830    -0.653    -0.610  0.7866 -0.5714 -0.2339
              Bcc     0.0089     4.723     1.685     1.575  0.3087  0.6921 -0.6524
 
              Baa    -0.0029    -1.573    -0.561    -0.525 -0.1577  0.7761  0.6106
    15 H(1)   Bbb     0.0003     0.137     0.049     0.046  0.6213  0.5585 -0.5495
              Bcc     0.0027     1.436     0.512     0.479  0.7675 -0.2927  0.5703
 
              Baa    -0.0049    -2.636    -0.941    -0.879  0.7385 -0.4026 -0.5408
    16 H(1)   Bbb    -0.0032    -1.713    -0.611    -0.572  0.6437  0.6597  0.3879
              Bcc     0.0082     4.349     1.552     1.451  0.2006 -0.6346  0.7464
 
              Baa    -0.0027    -0.364    -0.130    -0.121  0.6195  0.5127  0.5945
    17 C(13)  Bbb    -0.0016    -0.221    -0.079    -0.074  0.7829 -0.4584 -0.4206
              Bcc     0.0044     0.584     0.209     0.195  0.0569  0.7260 -0.6854
 
              Baa    -0.0028    -1.489    -0.531    -0.497  0.1493 -0.6312  0.7611
    18 H(1)   Bbb    -0.0006    -0.311    -0.111    -0.104  0.7226  0.5951  0.3517
              Bcc     0.0034     1.800     0.642     0.600  0.6750 -0.4974 -0.5450
 
              Baa    -0.0029    -1.572    -0.561    -0.524 -0.2506  0.7730  0.5828
    19 H(1)   Bbb     0.0004     0.191     0.068     0.064  0.5028 -0.4105  0.7607
              Bcc     0.0026     1.381     0.493     0.461  0.8273  0.4836 -0.2859
 
              Baa    -0.0006    -0.327    -0.117    -0.109  0.2122 -0.5608  0.8003
    20 H(1)   Bbb    -0.0002    -0.107    -0.038    -0.036  0.6486  0.6934  0.3139
              Bcc     0.0008     0.434     0.155     0.145  0.7309 -0.4525 -0.5108
 
              Baa    -0.0004    -0.200    -0.071    -0.067 -0.0700  0.7495 -0.6583
    21 H(1)   Bbb    -0.0001    -0.068    -0.024    -0.023  0.3259  0.6409  0.6950
              Bcc     0.0005     0.268     0.096     0.089  0.9428 -0.1659 -0.2891
 
              Baa    -0.0004    -0.232    -0.083    -0.077  0.7142  0.4933  0.4966
    22 H(1)   Bbb    -0.0003    -0.151    -0.054    -0.050 -0.0994  0.7738 -0.6256
              Bcc     0.0007     0.383     0.137     0.128  0.6929 -0.3974 -0.6016
 
              Baa    -0.0108    -0.443    -0.158    -0.148  0.3847  0.9153  0.1191
    23 S(33)  Bbb    -0.0079    -0.323    -0.115    -0.108  0.9068 -0.3506 -0.2342
              Bcc     0.0187     0.766     0.273     0.256  0.1726 -0.1981  0.9649
 
              Baa    -0.5154   -19.879    -7.093    -6.631  0.9440  0.3041  0.1277
    24 N(14)  Bbb    -0.5149   -19.859    -7.086    -6.624 -0.2705  0.9353 -0.2280
              Bcc     1.0303    39.738    14.180    13.255 -0.1888  0.1807  0.9653
 
              Baa    -0.0251    -3.364    -1.200    -1.122  0.8106  0.5731 -0.1199
    25 C(13)  Bbb     0.0109     1.466     0.523     0.489 -0.5665  0.7158 -0.4083
              Bcc     0.0141     1.898     0.677     0.633 -0.1481  0.3989  0.9050
 
              Baa    -0.0541    -7.266    -2.593    -2.424 -0.1695  0.9181  0.3582
    26 C(13)  Bbb    -0.0462    -6.206    -2.214    -2.070  0.4804 -0.2404  0.8434
              Bcc     0.1004    13.472     4.807     4.494  0.8605  0.3150 -0.4004
 
              Baa    -0.0551    -7.390    -2.637    -2.465  0.6470 -0.2050  0.7344
    27 C(13)  Bbb    -0.0475    -6.378    -2.276    -2.127 -0.3101  0.8092  0.4991
              Bcc     0.1026    13.768     4.913     4.592  0.6966  0.5506 -0.4600
 
              Baa    -0.0382    -5.120    -1.827    -1.708 -0.6269 -0.3180  0.7113
    28 C(13)  Bbb     0.0165     2.219     0.792     0.740  0.4402  0.6087  0.6601
              Bcc     0.0216     2.901     1.035     0.968 -0.6429  0.7268 -0.2416
 
              Baa    -0.0391    -5.253    -1.874    -1.752  0.6999  0.2258 -0.6777
    29 C(13)  Bbb     0.0171     2.292     0.818     0.765  0.4831  0.5491  0.6819
              Bcc     0.0221     2.961     1.057     0.988 -0.5261  0.8047 -0.2752
 
              Baa    -0.0638    -8.556    -3.053    -2.854  0.4872  0.5847  0.6487
    30 C(13)  Bbb    -0.0574    -7.707    -2.750    -2.571 -0.5829  0.7708 -0.2571
              Bcc     0.1212    16.263     5.803     5.425 -0.6503 -0.2529  0.7163
 
              Baa    -0.0045    -2.390    -0.853    -0.797 -0.4476 -0.4622  0.7656
    31 H(1)   Bbb    -0.0023    -1.205    -0.430    -0.402  0.8033 -0.5839  0.1172
              Bcc     0.0067     3.596     1.283     1.199  0.3929  0.6674  0.6326
 
              Baa    -0.0043    -2.300    -0.821    -0.767  0.7788  0.0730 -0.6230
    32 H(1)   Bbb    -0.0023    -1.229    -0.438    -0.410 -0.3207  0.9000 -0.2954
              Bcc     0.0066     3.528     1.259     1.177  0.5391  0.4298  0.7243
 
              Baa    -0.0023    -1.220    -0.435    -0.407  0.7221  0.3486 -0.5975
    33 H(1)   Bbb     0.0005     0.247     0.088     0.082  0.5201  0.2959  0.8012
              Bcc     0.0018     0.973     0.347     0.325 -0.4561  0.8893 -0.0324
 
              Baa    -0.0023    -1.230    -0.439    -0.410  0.7219  0.3573 -0.5926
    34 H(1)   Bbb     0.0004     0.188     0.067     0.063  0.2007  0.7114  0.6735
              Bcc     0.0020     1.043     0.372     0.348  0.6623 -0.6051  0.4419
 
              Baa    -0.0082    -4.349    -1.552    -1.451  0.4648  0.5696  0.6779
    35 H(1)   Bbb    -0.0009    -0.490    -0.175    -0.164 -0.6688 -0.2759  0.6904
              Bcc     0.0091     4.839     1.727     1.614 -0.5802  0.7743 -0.2527
 
              Baa    -0.0251    -3.371    -1.203    -1.124  0.8446 -0.3360  0.4168
    36 C(13)  Bbb     0.0112     1.506     0.537     0.502  0.2897  0.9416  0.1718
              Bcc     0.0139     1.865     0.665     0.622 -0.4502 -0.0243  0.8926
 
              Baa    -0.0541    -7.264    -2.592    -2.423 -0.1767  0.9217  0.3454
    37 C(13)  Bbb    -0.0462    -6.203    -2.213    -2.069  0.6587  0.3714 -0.6543
              Bcc     0.1004    13.467     4.805     4.492  0.7313 -0.1119  0.6728
 
              Baa    -0.0552    -7.401    -2.641    -2.469  0.7837  0.3734 -0.4964
    38 C(13)  Bbb    -0.0477    -6.394    -2.282    -2.133 -0.0715  0.8481  0.5251
              Bcc     0.1028    13.795     4.923     4.602  0.6170 -0.3760  0.6913
 
              Baa    -0.0381    -5.115    -1.825    -1.706  0.4138 -0.1801  0.8924
    39 C(13)  Bbb     0.0165     2.215     0.790     0.739  0.7645 -0.4634 -0.4480
              Bcc     0.0216     2.900     1.035     0.967  0.4942  0.8677 -0.0541
 
              Baa    -0.0393    -5.272    -1.881    -1.759  0.4703 -0.0750  0.8793
    40 C(13)  Bbb     0.0172     2.305     0.823     0.769  0.7929 -0.4015 -0.4583
              Bcc     0.0221     2.967     1.059     0.990  0.3874  0.9128 -0.1293
 
              Baa    -0.0637    -8.544    -3.049    -2.850  0.7987 -0.4276 -0.4233
    41 C(13)  Bbb    -0.0573    -7.695    -2.746    -2.567  0.4322  0.8972 -0.0907
              Bcc     0.1210    16.240     5.795     5.417  0.4186 -0.1105  0.9014
 
              Baa    -0.0045    -2.391    -0.853    -0.798  0.2634 -0.3719  0.8901
    42 H(1)   Bbb    -0.0022    -1.195    -0.426    -0.399  0.6390  0.7585  0.1279
              Bcc     0.0067     3.586     1.280     1.196  0.7227 -0.5351 -0.4374
 
              Baa    -0.0042    -2.257    -0.806    -0.753  0.5237  0.0797  0.8482
    43 H(1)   Bbb    -0.0024    -1.257    -0.449    -0.419  0.1853  0.9611 -0.2048
              Bcc     0.0066     3.515     1.254     1.172  0.8315 -0.2644 -0.4885
 
              Baa    -0.0023    -1.220    -0.435    -0.407  0.5467 -0.1832  0.8170
    44 H(1)   Bbb     0.0005     0.249     0.089     0.083  0.8095 -0.1338 -0.5717
              Bcc     0.0018     0.971     0.347     0.324  0.2141  0.9739  0.0751
 
              Baa    -0.0023    -1.228    -0.438    -0.410  0.5472 -0.1926  0.8146
    45 H(1)   Bbb     0.0003     0.173     0.062     0.058 -0.5791  0.6155  0.5346
              Bcc     0.0020     1.055     0.376     0.352  0.6043  0.7642 -0.2253
 
              Baa    -0.0081    -4.343    -1.550    -1.449  0.7845 -0.4171 -0.4590
    46 H(1)   Bbb    -0.0009    -0.490    -0.175    -0.163  0.4487 -0.1291  0.8843
              Bcc     0.0091     4.833     1.725     1.612  0.4281  0.8997 -0.0859
 

 ---------------------------------------------------------------------------------

 No NMR shielding tensors so no spin-rotation constants.
 Leave Link  601 at Tue Jan 19 04:17:35 2021, MaxMem=  4026531840 cpu:               5.2 elap:               0.7
 (Enter /opt/ohpc/pub/libs/gaussian/g16-A.03/sandybridge/g16/l9999.exe)

 Test job not archived.
 1\1\GINC-CASCADEB058\SP\ULC-wHPBE\TZVP\C24H19N1S2(1+,2)\RDU230\19-Jan-
 2021\0\\#P LC-wHPBE/TZVP iop(3/107=0179800000, 3/108=0179800000) scf=(
 conver=6,fermi,ndamp=35,noincfock,novaracc,vshift=500,xqc)\\H19 C24 S2
  N1\\1,2\C,0,-3.352046,1.022081,0.90149\C,0,-4.015603,0.124147,0.07783
 3\S,0,-3.193622,-0.833868,-1.176213\C,0,-5.398593,-0.028228,0.207342\C
 ,0,-0.749106,0.373785,-1.531691\C,0,-1.475477,-0.56699,-0.815552\C,0,-
 4.041516,1.761821,1.844012\C,0,-6.080951,0.720801,1.156415\H,0,-7.4759
 44,-0.835079,-0.458792\C,0,0.601771,0.54717,-1.299188\C,0,-0.823428,-1
 .336346,0.139234\C,0,0.521569,-1.15492,0.389409\C,0,1.255724,-0.212476
 ,-0.331046\H,0,1.160253,1.275483,-1.876291\H,0,-1.383265,-2.076857,0.7
 00814\H,0,1.015474,-1.752114,1.147605\C,0,-5.411167,1.613701,1.970885\
 H,0,-2.279577,1.141824,0.800598\H,0,-1.248138,0.967582,-2.290346\H,0,-
 3.503227,2.458074,2.478369\H,0,-7.154267,0.598627,1.263844\H,0,-5.9624
 34,2.189124,2.706912\S,0,-6.238224,-1.192989,-0.835805\N,0,2.627173,-0
 .037586,-0.087724\C,0,3.438312,-1.140752,0.276409\C,0,4.374889,-1.0129
 28,1.295896\C,0,3.317625,-2.35655,-0.387733\C,0,5.1794,-2.084309,1.640
 01\C,0,4.112866,-3.428755,-0.025756\C,0,5.049979,-3.298472,0.986151\H,
 0,4.470709,-0.064848,1.814448\H,0,2.593785,-2.456724,-1.189607\H,0,5.9
 0745,-1.970366,2.436839\H,0,4.006805,-4.37257,-0.551042\H,0,5.67733,-4
 .139106,1.26285\C,0,3.224517,1.239724,-0.221989\C,0,4.446224,1.376745,
 -0.87125\C,0,2.604731,2.367846,0.304633\C,0,5.03746,2.622109,-0.986244
 \C,0,3.193018,3.612223,0.169883\C,0,4.413292,3.746533,-0.472133\H,0,4.
 931907,0.498005,-1.282066\H,0,1.656156,2.262505,0.820378\H,0,5.992055,
 2.71427,-1.494403\H,0,2.697309,4.484427,0.584059\H,0,4.876004,4.72281,
 -0.569917\\Version=EM64L-G16RevA.03\State=2-A\HF=-1775.9563843\S2=0.76
 7578\S2-1=0.\S2A=0.75028\RMSD=3.300e-08\Dipole=4.1103725,0.4664045,0.5
 193368\Quadrupole=37.3371973,-7.4590756,-29.8781217,-4.1408369,-3.7936
 073,-1.1600891\PG=C01 [X(C24H19N1S2)]\\@


 YOU CAN WIPE THE SLATE CLEAN, BUT YOU'LL STILL
 HAVE TO EAT A LITTLE CHALK DUST.
 Job cpu time:       0 days 21 hours 19 minutes  5.5 seconds.
 Elapsed time:       0 days  2 hours 40 minutes 23.2 seconds.
 File lengths (MBytes):  RWF=    244 Int=      0 D2E=      0 Chk=     36 Scr=      8
 Normal termination of Gaussian 16 at Tue Jan 19 04:17:35 2021.
