 Entering Gaussian System, Link 0=g16
 Input=mol_ta_pa_half_tune_c2.gjf
 Output=mol_ta_pa_half_tune_c2.log
 Initial command:
 /opt/ohpc/pub/libs/gaussian/g16-A.03/sandybridge/g16/l1.exe "/mnt/gpfs2_4m/scratch/rdu230/ondemand/projects/init_structures/wtuning/mol_ta_pa_half/tuning_mol_ta_pa_half_ocycle0/Gau-242307.inp" -scrdir="/mnt/gpfs2_4m/scratch/rdu230/ondemand/projects/init_structures/wtuning/mol_ta_pa_half/tuning_mol_ta_pa_half_ocycle0/"
 Entering Link 1 = /opt/ohpc/pub/libs/gaussian/g16-A.03/sandybridge/g16/l1.exe PID=    242308.
  
 Copyright (c) 1988,1990,1992,1993,1995,1998,2003,2009,2016,
            Gaussian, Inc.  All Rights Reserved.
  
 This is part of the Gaussian(R) 16 program.  It is based on
 the Gaussian(R) 09 system (copyright 2009, Gaussian, Inc.),
 the Gaussian(R) 03 system (copyright 2003, Gaussian, Inc.),
 the Gaussian(R) 98 system (copyright 1998, Gaussian, Inc.),
 the Gaussian(R) 94 system (copyright 1995, Gaussian, Inc.),
 the Gaussian 92(TM) system (copyright 1992, Gaussian, Inc.),
 the Gaussian 90(TM) system (copyright 1990, Gaussian, Inc.),
 the Gaussian 88(TM) system (copyright 1988, Gaussian, Inc.),
 the Gaussian 86(TM) system (copyright 1986, Carnegie Mellon
 University), and the Gaussian 82(TM) system (copyright 1983,
 Carnegie Mellon University). Gaussian is a federally registered
 trademark of Gaussian, Inc.
  
 This software contains proprietary and confidential information,
 including trade secrets, belonging to Gaussian, Inc.
  
 This software is provided under written license and may be
 used, copied, transmitted, or stored only in accord with that
 written license.
  
 The following legend is applicable only to US Government
 contracts under FAR:
  
                    RESTRICTED RIGHTS LEGEND
  
 Use, reproduction and disclosure by the US Government is
 subject to restrictions as set forth in subparagraphs (a)
 and (c) of the Commercial Computer Software - Restricted
 Rights clause in FAR 52.227-19.
  
 Gaussian, Inc.
 340 Quinnipiac St., Bldg. 40, Wallingford CT 06492
  
  
 ---------------------------------------------------------------
 Warning -- This program may not be used in any manner that
 competes with the business of Gaussian, Inc. or will provide
 assistance to any competitor of Gaussian, Inc.  The licensee
 of this program is prohibited from giving any competitor of
 Gaussian, Inc. access to this program.  By using this program,
 the user acknowledges that Gaussian, Inc. is engaged in the
 business of creating and licensing software in the field of
 computational chemistry and represents and warrants to the
 licensee that it is not a competitor of Gaussian, Inc. and that
 it will not use this program in any manner prohibited above.
 ---------------------------------------------------------------
  

 Cite this work as:
 Gaussian 16, Revision A.03,
 M. J. Frisch, G. W. Trucks, H. B. Schlegel, G. E. Scuseria, 
 M. A. Robb, J. R. Cheeseman, G. Scalmani, V. Barone, 
 G. A. Petersson, H. Nakatsuji, X. Li, M. Caricato, A. V. Marenich, 
 J. Bloino, B. G. Janesko, R. Gomperts, B. Mennucci, H. P. Hratchian, 
 J. V. Ortiz, A. F. Izmaylov, J. L. Sonnenberg, D. Williams-Young, 
 F. Ding, F. Lipparini, F. Egidi, J. Goings, B. Peng, A. Petrone, 
 T. Henderson, D. Ranasinghe, V. G. Zakrzewski, J. Gao, N. Rega, 
 G. Zheng, W. Liang, M. Hada, M. Ehara, K. Toyota, R. Fukuda, 
 J. Hasegawa, M. Ishida, T. Nakajima, Y. Honda, O. Kitao, H. Nakai, 
 T. Vreven, K. Throssell, J. A. Montgomery, Jr., J. E. Peralta, 
 F. Ogliaro, M. J. Bearpark, J. J. Heyd, E. N. Brothers, K. N. Kudin, 
 V. N. Staroverov, T. A. Keith, R. Kobayashi, J. Normand, 
 K. Raghavachari, A. P. Rendell, J. C. Burant, S. S. Iyengar, 
 J. Tomasi, M. Cossi, J. M. Millam, M. Klene, C. Adamo, R. Cammi, 
 J. W. Ochterski, R. L. Martin, K. Morokuma, O. Farkas, 
 J. B. Foresman, and D. J. Fox, Gaussian, Inc., Wallingford CT, 2016.
 
 ******************************************
 Gaussian 16:  EM64L-G16RevA.03 25-Dec-2016
                18-Jan-2021 
 ******************************************
 %mem=30GB
 %nproc=8
 Will use up to    8 processors via shared memory.
 ----------------------------------------------------------------------
 #P LC-wHPBE/TZVP iop(3/107=0156200000, 3/108=0156200000) scf=(conver=6
 ,fermi,ndamp=35,noincfock,novaracc,vshift=500,xqc)
 ----------------------------------------------------------------------
 1/38=1,172=1/1;
 2/12=2,17=6,18=5,40=1/2;
 3/5=19,7=101,11=2,25=1,30=1,74=-71,107=156200000,108=156200000/1,2,3;
 4//1;
 5/5=100002,6=6,8=3,10=500,13=1,18=-1,22=13,38=1,93=35/2,8;
 6/7=2,8=2,9=2,10=2,28=1/1;
 99/5=1,9=1/99;
 Leave Link    1 at Mon Jan 18 16:16:55 2021, MaxMem=  4026531840 cpu:               1.7 elap:               0.3
 (Enter /opt/ohpc/pub/libs/gaussian/g16-A.03/sandybridge/g16/l101.exe)
 -------------
 H19 C24 S2 N1
 -------------
 Symbolic Z-matrix:
 Charge =  1 Multiplicity = 2
 C                    -3.35205   1.02208   0.90149 
 C                    -4.0156    0.12415   0.07783 
 S                    -3.19362  -0.83387  -1.17621 
 C                    -5.39859  -0.02823   0.20734 
 C                    -0.74911   0.37379  -1.53169 
 C                    -1.47548  -0.56699  -0.81555 
 C                    -4.04152   1.76182   1.84401 
 C                    -6.08095   0.7208    1.15641 
 H                    -7.47594  -0.83508  -0.45879 
 C                     0.60177   0.54717  -1.29919 
 C                    -0.82343  -1.33635   0.13923 
 C                     0.52157  -1.15492   0.38941 
 C                     1.25572  -0.21248  -0.33105 
 H                     1.16025   1.27548  -1.87629 
 H                    -1.38327  -2.07686   0.70081 
 H                     1.01547  -1.75211   1.1476 
 C                    -5.41117   1.6137    1.97089 
 H                    -2.27958   1.14182   0.8006 
 H                    -1.24814   0.96758  -2.29035 
 H                    -3.50323   2.45807   2.47837 
 H                    -7.15427   0.59863   1.26384 
 H                    -5.96243   2.18912   2.70691 
 S                    -6.23822  -1.19299  -0.83581 
 N                     2.62717  -0.03759  -0.08772 
 C                     3.43831  -1.14075   0.27641 
 C                     4.37489  -1.01293   1.2959 
 C                     3.31763  -2.35655  -0.38773 
 C                     5.1794   -2.08431   1.64001 
 C                     4.11287  -3.42876  -0.02576 
 C                     5.04998  -3.29847   0.98615 
 H                     4.47071  -0.06485   1.81445 
 H                     2.59379  -2.45672  -1.18961 
 H                     5.90745  -1.97037   2.43684 
 H                     4.0068   -4.37257  -0.55104 
 H                     5.67733  -4.13911   1.26285 
 C                     3.22452   1.23972  -0.22199 
 C                     4.44622   1.37675  -0.87125 
 C                     2.60473   2.36785   0.30463 
 C                     5.03746   2.62211  -0.98624 
 C                     3.19302   3.61222   0.16988 
 C                     4.41329   3.74653  -0.47213 
 H                     4.93191   0.49801  -1.28207 
 H                     1.65616   2.2625    0.82038 
 H                     5.99206   2.71427  -1.4944 
 H                     2.69731   4.48443   0.58406 
 H                     4.876     4.72281  -0.56992 
 
 ITRead=  0  0  0  0  0  0  0  0  0  0  0  0  0  0  0  0  0  0  0  0
 ITRead=  0  0  0  0  0  0  0  0  0  0  0  0  0  0  0  0  0  0  0  0
 ITRead=  0  0  0  0  0  0
 MicOpt= -1 -1 -1 -1 -1 -1 -1 -1 -1 -1 -1 -1 -1 -1 -1 -1 -1 -1 -1 -1
 MicOpt= -1 -1 -1 -1 -1 -1 -1 -1 -1 -1 -1 -1 -1 -1 -1 -1 -1 -1 -1 -1
 MicOpt= -1 -1 -1 -1 -1 -1
 NAtoms=     46 NQM=       46 NQMF=       0 NMMI=      0 NMMIF=      0
                NMic=       0 NMicF=      0.
                    Isotopes and Nuclear Properties:
 (Nuclear quadrupole moments (NQMom) in fm**2, nuclear magnetic moments (NMagM)
  in nuclear magnetons)

  Atom         1           2           3           4           5           6           7           8           9          10
 IAtWgt=          12          12          32          12          12          12          12          12           1          12
 AtmWgt=  12.0000000  12.0000000  31.9720718  12.0000000  12.0000000  12.0000000  12.0000000  12.0000000   1.0078250  12.0000000
 NucSpn=           0           0           0           0           0           0           0           0           1           0
 AtZEff=  -0.0000000  -0.0000000  -0.0000000  -0.0000000  -0.0000000  -0.0000000  -0.0000000  -0.0000000  -0.0000000  -0.0000000
 NQMom=    0.0000000   0.0000000   0.0000000   0.0000000   0.0000000   0.0000000   0.0000000   0.0000000   0.0000000   0.0000000
 NMagM=    0.0000000   0.0000000   0.0000000   0.0000000   0.0000000   0.0000000   0.0000000   0.0000000   2.7928460   0.0000000
 AtZNuc=   6.0000000   6.0000000  16.0000000   6.0000000   6.0000000   6.0000000   6.0000000   6.0000000   1.0000000   6.0000000

  Atom        11          12          13          14          15          16          17          18          19          20
 IAtWgt=          12          12          12           1           1           1          12           1           1           1
 AtmWgt=  12.0000000  12.0000000  12.0000000   1.0078250   1.0078250   1.0078250  12.0000000   1.0078250   1.0078250   1.0078250
 NucSpn=           0           0           0           1           1           1           0           1           1           1
 AtZEff=  -0.0000000  -0.0000000  -0.0000000  -0.0000000  -0.0000000  -0.0000000  -0.0000000  -0.0000000  -0.0000000  -0.0000000
 NQMom=    0.0000000   0.0000000   0.0000000   0.0000000   0.0000000   0.0000000   0.0000000   0.0000000   0.0000000   0.0000000
 NMagM=    0.0000000   0.0000000   0.0000000   2.7928460   2.7928460   2.7928460   0.0000000   2.7928460   2.7928460   2.7928460
 AtZNuc=   6.0000000   6.0000000   6.0000000   1.0000000   1.0000000   1.0000000   6.0000000   1.0000000   1.0000000   1.0000000

  Atom        21          22          23          24          25          26          27          28          29          30
 IAtWgt=           1           1          32          14          12          12          12          12          12          12
 AtmWgt=   1.0078250   1.0078250  31.9720718  14.0030740  12.0000000  12.0000000  12.0000000  12.0000000  12.0000000  12.0000000
 NucSpn=           1           1           0           2           0           0           0           0           0           0
 AtZEff=  -0.0000000  -0.0000000  -0.0000000  -0.0000000  -0.0000000  -0.0000000  -0.0000000  -0.0000000  -0.0000000  -0.0000000
 NQMom=    0.0000000   0.0000000   0.0000000   2.0440000   0.0000000   0.0000000   0.0000000   0.0000000   0.0000000   0.0000000
 NMagM=    2.7928460   2.7928460   0.0000000   0.4037610   0.0000000   0.0000000   0.0000000   0.0000000   0.0000000   0.0000000
 AtZNuc=   1.0000000   1.0000000  16.0000000   7.0000000   6.0000000   6.0000000   6.0000000   6.0000000   6.0000000   6.0000000

  Atom        31          32          33          34          35          36          37          38          39          40
 IAtWgt=           1           1           1           1           1          12          12          12          12          12
 AtmWgt=   1.0078250   1.0078250   1.0078250   1.0078250   1.0078250  12.0000000  12.0000000  12.0000000  12.0000000  12.0000000
 NucSpn=           1           1           1           1           1           0           0           0           0           0
 AtZEff=  -0.0000000  -0.0000000  -0.0000000  -0.0000000  -0.0000000  -0.0000000  -0.0000000  -0.0000000  -0.0000000  -0.0000000
 NQMom=    0.0000000   0.0000000   0.0000000   0.0000000   0.0000000   0.0000000   0.0000000   0.0000000   0.0000000   0.0000000
 NMagM=    2.7928460   2.7928460   2.7928460   2.7928460   2.7928460   0.0000000   0.0000000   0.0000000   0.0000000   0.0000000
 AtZNuc=   1.0000000   1.0000000   1.0000000   1.0000000   1.0000000   6.0000000   6.0000000   6.0000000   6.0000000   6.0000000

  Atom        41          42          43          44          45          46
 IAtWgt=          12           1           1           1           1           1
 AtmWgt=  12.0000000   1.0078250   1.0078250   1.0078250   1.0078250   1.0078250
 NucSpn=           0           1           1           1           1           1
 AtZEff=  -0.0000000  -0.0000000  -0.0000000  -0.0000000  -0.0000000  -0.0000000
 NQMom=    0.0000000   0.0000000   0.0000000   0.0000000   0.0000000   0.0000000
 NMagM=    0.0000000   2.7928460   2.7928460   2.7928460   2.7928460   2.7928460
 AtZNuc=   6.0000000   1.0000000   1.0000000   1.0000000   1.0000000   1.0000000
 Leave Link  101 at Mon Jan 18 16:16:56 2021, MaxMem=  4026531840 cpu:               0.8 elap:               0.1
 (Enter /opt/ohpc/pub/libs/gaussian/g16-A.03/sandybridge/g16/l202.exe)
                          Input orientation:                          
 ---------------------------------------------------------------------
 Center     Atomic      Atomic             Coordinates (Angstroms)
 Number     Number       Type             X           Y           Z
 ---------------------------------------------------------------------
      1          6           0       -3.352046    1.022081    0.901490
      2          6           0       -4.015603    0.124147    0.077833
      3         16           0       -3.193622   -0.833868   -1.176213
      4          6           0       -5.398593   -0.028228    0.207342
      5          6           0       -0.749106    0.373785   -1.531691
      6          6           0       -1.475477   -0.566990   -0.815552
      7          6           0       -4.041516    1.761821    1.844012
      8          6           0       -6.080951    0.720801    1.156415
      9          1           0       -7.475944   -0.835079   -0.458792
     10          6           0        0.601771    0.547170   -1.299188
     11          6           0       -0.823428   -1.336346    0.139234
     12          6           0        0.521569   -1.154920    0.389409
     13          6           0        1.255724   -0.212476   -0.331046
     14          1           0        1.160253    1.275483   -1.876291
     15          1           0       -1.383265   -2.076857    0.700814
     16          1           0        1.015474   -1.752114    1.147605
     17          6           0       -5.411167    1.613701    1.970885
     18          1           0       -2.279577    1.141824    0.800598
     19          1           0       -1.248138    0.967582   -2.290346
     20          1           0       -3.503227    2.458074    2.478369
     21          1           0       -7.154267    0.598627    1.263844
     22          1           0       -5.962434    2.189124    2.706912
     23         16           0       -6.238224   -1.192989   -0.835805
     24          7           0        2.627173   -0.037586   -0.087724
     25          6           0        3.438312   -1.140752    0.276409
     26          6           0        4.374889   -1.012928    1.295896
     27          6           0        3.317625   -2.356550   -0.387733
     28          6           0        5.179400   -2.084309    1.640010
     29          6           0        4.112866   -3.428755   -0.025756
     30          6           0        5.049979   -3.298472    0.986151
     31          1           0        4.470709   -0.064848    1.814448
     32          1           0        2.593785   -2.456724   -1.189607
     33          1           0        5.907450   -1.970366    2.436839
     34          1           0        4.006805   -4.372570   -0.551042
     35          1           0        5.677330   -4.139106    1.262850
     36          6           0        3.224517    1.239724   -0.221989
     37          6           0        4.446224    1.376745   -0.871250
     38          6           0        2.604731    2.367846    0.304633
     39          6           0        5.037460    2.622109   -0.986244
     40          6           0        3.193018    3.612223    0.169883
     41          6           0        4.413292    3.746533   -0.472133
     42          1           0        4.931907    0.498005   -1.282066
     43          1           0        1.656156    2.262505    0.820378
     44          1           0        5.992055    2.714270   -1.494403
     45          1           0        2.697309    4.484427    0.584059
     46          1           0        4.876004    4.722810   -0.569917
 ---------------------------------------------------------------------
                    Distance matrix (angstroms):
                    1          2          3          4          5
     1  C    0.000000
     2  C    1.387445   0.000000
     3  S    2.790429   1.779347   0.000000
     4  C    2.402779   1.397373   2.724918   0.000000
     5  C    3.621596   3.650053   2.749627   4.980319   0.000000
     6  C    2.999148   2.779937   1.775760   4.089916   1.387634
     7  C    1.382365   2.408742   4.071644   2.779320   4.915484
     8  C    2.757296   2.405202   4.024279   1.388307   5.981213
     9  H    4.722917   3.630708   4.342001   2.325969   6.918296
    10  C    4.549856   4.836867   4.040717   6.213299   1.381662
    11  C    3.540780   3.510953   2.756938   4.758986   2.392083
    12  C    4.472857   4.724301   4.044365   6.029171   2.764449
    13  C    4.926948   5.297866   4.571336   6.678603   2.409272
    14  H    5.304821   5.650988   4.888323   7.004259   2.139500
    15  H    3.676926   3.487367   2.888883   4.534672   3.375186
    16  H    5.179958   5.475080   4.894874   6.707916   3.848612
    17  C    2.394494   2.783885   4.562053   2.409600   5.961564
    18  H    1.083839   2.138187   2.940513   3.383672   2.893406
    19  H    3.823247   3.738785   2.876008   4.945337   1.084982
    20  H    2.138102   3.387081   4.928357   3.864152   5.292450
    21  H    3.842850   3.388652   4.867507   2.142787   6.992257
    22  H    3.381666   3.868635   5.646544   3.388571   6.959885
    23  S    4.031718   2.740370   3.084550   1.774769   5.750605
    24  N    6.152438   6.646807   5.974992   8.031194   3.695068
    25  C    7.153848   7.563085   6.796090   8.906928   4.805988
    26  C    8.000146   8.554354   7.964028   9.883093   6.014445
    27  C    7.586946   7.755440   6.733246   9.041441   5.030077
    28  C    9.109371   9.584662   8.922007  10.870784   7.158847
    29  C    8.740403   8.871632   7.838479  10.103750   6.353418
    30  C    9.448194   9.732633   8.871699  10.976051   7.311251
    31  H    7.950497   8.664239   8.263015   9.999363   6.215747
    32  H    7.199144   7.207726   6.010651   8.469189   4.393600
    33  H    9.851411  10.412438   9.857752  11.686281   8.096543
    34  H    9.239307   9.218187   8.047323  10.387972   6.790305
    35  H   10.406636  10.655165   9.775859  11.861260   8.335150
    36  C    6.675384   7.331694   6.811963   8.726400   4.272569
    37  C    8.005086   8.606525   7.959087  10.002886   5.332313
    38  C    6.136001   6.993886   6.787104   8.354869   4.312376
    39  C    8.746853   9.451456   8.929198  10.833288   6.231919
    40  C    7.076860   8.008706   7.897396   9.331134   5.378027
    41  C    8.343258   9.190779   8.907353  10.534875   6.256872
    42  H    8.582916   9.057982   8.234641  10.450574   5.687851
    43  H    5.160166   6.106783   6.090505   7.442631   3.858079
    44  H    9.793673  10.456284   9.852268  11.839092   7.136001
    45  H    6.977342   8.020692   8.129323   9.276292   5.766416
    46  H    9.141184  10.031349   9.816472  11.346534   7.175018
                    6          7          8          9         10
     6  C    0.000000
     7  C    4.368203   0.000000
     8  C    5.172760   2.390775   0.000000
     9  H    6.017039   4.882836   2.641148   0.000000
    10  C    2.406287   5.737177   7.121721   8.238104   0.000000
    11  C    1.388774   4.781318   5.736555   6.698125   2.765481
    12  C    2.405366   5.607583   6.906511   8.048724   2.398938
    13  C    2.796406   6.057184   7.543895   8.754769   1.393562
    14  H    3.386288   6.413703   7.870198   9.002648   1.084154
    15  H    2.141861   4.807146   5.486594   6.325143   3.850441
    16  H    3.385756   6.197247   7.514961   8.690549   3.382995
    17  C    5.292381   1.383467   1.381753   4.020343   6.927214
    18  H    2.485672   2.139518   3.841134   5.700565   3.614537
    19  H    2.140470   5.052395   5.941140   6.737191   2.140398
    20  H    4.910468   1.084865   3.377920   5.937529   5.896821
    21  H    6.158832   3.373253   1.085576   2.264170   8.168715
    22  H    6.335353   2.148746   2.138705   4.632299   7.863437
    23  S    4.803753   4.553883   2.766996   1.342456   7.073076
    24  N    4.200207   7.172230   8.829182  10.141334   2.431427
    25  C    5.066251   8.174970   9.739413  10.943260   3.657534
    26  C    6.235692   8.878938  10.599522  11.981352   4.837849
    27  C    5.134139   8.723452  10.009381  10.900507   4.078995
    28  C    7.253925   9.992979  11.614560  12.888882   6.043033
    29  C    6.327958   9.845408  11.069338  11.883400   5.455034
    30  C    7.299911  10.440200  11.835588  12.847370   6.308589
    31  H    6.521210   8.706065  10.601310  12.185376   5.003796
    32  H    4.502211   8.427703   9.531607  10.225618   3.606038
    33  H    8.188719  10.642490  12.353284  13.740043   6.960324
    34  H    6.678909  10.399159  11.428940  12.015651   6.029745
    35  H    8.260897  11.384843  12.723490  13.670745   7.367939
    36  C    5.070155   7.572066   9.421306  10.902328   2.918696
    37  C    6.232796   8.919790  10.740722  12.132616   3.956153
    38  C    5.149386   6.849055   8.881405  10.604789   3.146260
    39  C    7.253815   9.548730  11.481508  12.992907   4.906999
    40  C    6.342850   7.652789   9.764224  11.575858   4.274024
    41  C    7.307668   8.988180  11.042480  12.741479   5.044565
    42  H    6.512021   9.586027  11.281794  12.506385   4.330449
    43  H    4.526526   5.810506   7.896366   9.727618   2.923467
    44  H    8.184836  10.617190  12.520313  13.966294   5.812882
    45  H    6.699841   7.376437   9.568193  11.527348   4.841476
    46  H    8.269440   9.701375  11.791996  13.545224   6.019707
                   11         12         13         14         15
    11  C    0.000000
    12  C    1.380043   0.000000
    13  C    2.409797   1.395077   0.000000
    14  H    3.849543   3.383515   2.147305   0.000000
    15  H    1.084964   2.139003   3.391890   4.934485   0.000000
    16  H    2.138045   1.084179   2.148165   4.281501   2.461509
    17  C    5.753701   6.735257   7.285688   7.622251   5.608680
    18  H    2.949423   3.645618   3.951342   4.360737   3.342640
    19  H    3.375103   3.849411   3.391271   2.463045   4.270118
    20  H    5.201009   5.797971   6.137774   6.489193   5.312207
    21  H    6.714789   7.921996   8.598227   8.913463   6.385897
    22  H    6.740274   7.654786   8.191378   8.518988   6.572048
    23  S    5.503750   6.870036   7.574658   7.868509   5.168467
    24  N    3.693905   2.430979   1.403804   2.659883   4.567716
    25  C    4.268431   2.918965   2.448344   3.957507   4.929910
    26  C    5.335257   3.961055   3.607888   5.062952   5.885780
    27  C    4.297305   3.140986   2.975181   4.479031   4.833377
    28  C    6.232634   4.911533   4.773264   6.309209   6.629534
    29  C    5.363991   4.270843   4.312878   5.854251   5.706399
    30  C    6.250129   5.045534   5.065052   6.651662   6.554418
    31  H    5.696572   4.337591   3.867954   5.135870   6.289465
    32  H    3.833851   2.912398   2.750306   4.056589   4.419832
    33  H    7.140426   5.819333   5.691214   7.188498   7.495308
    34  H    5.746850   4.835762   4.992317   6.462170   5.990851
    35  H    7.167833   6.020809   6.124502   7.718547   7.377043
    36  C    4.811702   3.662520   2.448862   2.645596   5.751776
    37  C    6.012585   4.837510   3.605098   3.437727   6.955695
    38  C    5.049819   4.093486   2.980263   2.834820   5.984685
    39  C    7.161430   6.045795   4.771340   4.199800   8.133398
    40  C    6.373469   5.469048   4.316522   3.712050   7.320511
    41  C    7.323433   6.317595   5.065954   4.319723   8.299864
    42  H    6.205547   4.997707   3.863100   3.896530   7.102332
    43  H    4.423124   3.626543   2.758923   2.914130   5.299287
    44  H    8.094879   6.960287   5.687888   5.055913   9.064724
    45  H    6.817247   6.047642   4.997648   4.325874   7.727559
    46  H    8.348640   7.377609   6.125401   5.234260   9.328916
                   16         17         18         19         20
    16  H    0.000000
    17  C    7.301248   0.000000
    18  H    4.399165   3.376255   0.000000
    19  H    4.933578   5.992192   3.263152   0.000000
    20  H    6.317854   2.147264   2.458607   5.481572   0.000000
    21  H    8.502009   2.137447   4.926689   6.902953   4.273489
    22  H    8.164312   1.084778   4.277184   6.977775   2.484404
    23  S    7.540734   4.054509   4.878530   5.628918   5.638636
    24  N    2.657671   8.460469   5.124092   4.569457   7.098941
    25  C    2.646297   9.421865   6.178930   5.744225   8.123124
    26  C    3.442972  10.154885   7.012146   6.957153   8.689696
    27  C    2.832403   9.875109   6.706670   5.959529   8.827183
    28  C    4.206078  11.222516   8.169999   8.128652   9.834841
    29  C    3.712376  10.959934   7.901669   7.293594   9.946370
    30  C    4.323716  11.598910   8.571642   8.282568  10.417383
    31  H    3.902588  10.024643   6.931833   7.114805   8.389850
    32  H    2.906906   9.520311   6.376529   5.262877   8.647707
    33  H    5.063713  11.881656   8.910130   9.065333  10.400656
    34  H    4.324379  11.440881   8.470777   7.691348  10.594131
    35  H    5.238694  12.512029   9.561081   9.309435  11.370264
    36  C    3.963175   8.917600   5.599136   4.935261   7.351112
    37  C    5.063159  10.261678   6.934455   5.882772   8.693848
    38  C    4.495599   8.221907   5.060195   4.851727   6.483858
    39  C    6.313756  10.905746   7.676137   6.629245   9.218123
    40  C    5.871435   9.014971   6.037381   5.724572   7.176410
    41  C    6.663620  10.345883   7.293754   6.563555   8.546161
    42  H    5.128819  10.899800   7.533757   6.279338   9.441092
    43  H    4.078568   7.189692   4.092226   4.448410   5.422768
    44  H    7.189934  11.968832   8.726942   7.490316  10.296064
    45  H    6.483872   8.712734   5.999106   6.016391   6.792729
    46  H    7.731637  11.043012   8.118135   7.386930   9.199597
                   21         22         23         24         25
    21  H    0.000000
    22  H    2.456134   0.000000
    23  S    2.908186   4.905669   0.000000
    24  N    9.894851   9.303202   8.971613   0.000000
    25  C   10.779759  10.264962   9.740385   1.416868   0.000000
    26  C   11.641288  10.913494  10.826576   2.433148   1.390277
    27  C   11.005512  10.787005   9.636851   2.438098   1.390617
    28  C   12.627707  11.980859  11.716921   3.699730   2.404391
    29  C   12.034582  11.854944  10.620729   3.702857   2.404430
    30  C   12.814371  12.423686  11.626526   4.201973   2.785132
    31  H   11.656905  10.711086  11.089535   2.649080   2.142190
    32  H   10.506146  10.486927   8.928974   2.658475   2.143411
    33  H   13.363536  12.580479  12.602853   4.568290   3.384134
    34  H   12.352171  12.371573  10.730864   4.572760   3.384155
    35  H   13.678304  13.327262  12.452485   5.286774   3.869935
    36  C   10.504183   9.689164   9.789705   1.416463   2.441470
    37  C   11.820977  11.036456  10.989186   2.433761   2.944622
    38  C    9.964350   8.899393   9.600937   2.437325   3.606371
    39  C   12.561671  11.611397  11.904564   3.700108   4.279099
    40  C   10.832581   9.606458  10.632488   3.702384   4.760492
    41  C   12.113272  10.963008  11.746741   4.202089   5.039490
    42  H   12.351817  11.724269  11.306212   2.650492   2.710202
    43  H    8.977121   7.849032   8.775227   2.656679   3.879967
    44  H   13.598149  12.682138  12.856133   4.568795   4.951623
    45  H   10.612026   9.206849  10.681424   4.572178   5.682110
    46  H   12.849085  11.602970  12.593389   5.286882   6.096276
                   26         27         28         29         30
    26  C    0.000000
    27  C    2.399528   0.000000
    28  C    1.383297   2.766236   0.000000
    29  C    2.766160   1.383134   2.391612   0.000000
    30  C    2.403206   2.403295   1.385090   1.385320   0.000000
    31  H    1.084866   3.380991   2.147299   3.851009   3.387913
    32  H    3.381509   1.084888   3.851082   2.146392   3.387529
    33  H    2.137097   3.851563   1.085346   3.378136   2.145604
    34  H    3.851475   2.136814   3.378139   1.085339   2.145894
    35  H    3.386803   3.386759   2.147644   2.147708   1.084803
    36  C    2.949877   3.601295   4.282266   4.756298   5.038565
    37  C    3.226786   3.930015   4.338533   4.890687   5.066765
    38  C    3.942803   4.827785   5.313552   5.998684   6.208934
    39  C    4.342886   5.301235   5.391449   6.195996   6.240495
    40  C    4.904768   5.996058   6.209466   7.103504   7.202243
    41  C    5.077388   6.201228   6.248743   7.195434   7.222469
    42  H    3.039585   3.399150   3.907445   4.203402   4.424024
    43  H    4.283233   5.055263   5.655072   6.256341   6.516900
    44  H    4.928793   5.838708   5.788896   6.589767   6.572193
    45  H    5.791537   6.937445   7.100993   8.061893   8.140654
    46  H    6.052360   7.251143   7.163288   8.205273   8.172673
                   31         32         33         34         35
    31  H    0.000000
    32  H    4.274139   0.000000
    33  H    2.466292   4.936399   0.000000
    34  H    4.936316   2.464722   4.279073   0.000000
    35  H    4.284831   4.284064   2.476820   2.476967   0.000000
    36  C    2.720658   3.872704   4.957033   5.676099   6.095314
    37  C    3.048239   4.269469   4.927655   5.774967   6.041077
    38  C    3.417516   5.050678   5.854429   6.937665   7.259440
    39  C    3.922349   5.639809   5.793549   7.083586   7.154152
    40  C    4.225866   6.248153   6.608520   8.058468   8.212763
    41  C    4.445039   6.504289   6.586164   8.129655   8.172592
    42  H    3.180866   3.769056   4.568894   5.011258   5.341821
    43  H    3.785030   5.214433   6.213183   7.171511   7.572730
    44  H    4.581101   6.195185   6.116178   7.419869   7.393934
    45  H    5.035346   7.164927   7.443262   9.024945   9.149131
    46  H    5.363873   7.558985   7.409660   9.136838   9.084862
                   36         37         38         39         40
    36  C    0.000000
    37  C    1.390281   0.000000
    38  C    1.390728   2.399183   0.000000
    39  C    2.404545   1.383371   2.765716   0.000000
    40  C    2.404851   2.766197   1.383009   2.391427   0.000000
    41  C    2.785651   2.403388   2.403130   1.385000   1.385385
    42  H    2.142216   1.084823   3.380779   2.147200   3.851006
    43  H    2.142981   3.380925   1.084843   3.850508   2.146352
    44  H    3.384168   2.137027   3.851039   1.085344   3.377984
    45  H    3.384636   3.851534   2.136952   3.377926   1.085361
    46  H    3.870446   3.386984   3.386646   2.147636   2.147824
                   41         42         43         44         45
    41  C    0.000000
    42  H    3.387903   0.000000
    43  H    3.387436   4.273672   0.000000
    44  H    2.145483   2.465934   4.935820   0.000000
    45  H    2.145839   4.936336   2.465113   4.278880   0.000000
    46  H    1.084795   4.284771   4.284092   2.476788   2.476933
                   46
    46  H    0.000000
 Stoichiometry    C24H19NS2(1+,2)
 Framework group  C1[X(C24H19NS2)]
 Deg. of freedom   132
 Full point group                 C1      NOp   1
 Largest Abelian subgroup         C1      NOp   1
 Largest concise Abelian subgroup C1      NOp   1
                         Standard orientation:                         
 ---------------------------------------------------------------------
 Center     Atomic      Atomic             Coordinates (Angstroms)
 Number     Number       Type             X           Y           Z
 ---------------------------------------------------------------------
      1          6           0       -3.352046    1.022081    0.901490
      2          6           0       -4.015603    0.124147    0.077833
      3         16           0       -3.193622   -0.833868   -1.176213
      4          6           0       -5.398593   -0.028228    0.207342
      5          6           0       -0.749106    0.373785   -1.531691
      6          6           0       -1.475477   -0.566990   -0.815552
      7          6           0       -4.041516    1.761821    1.844012
      8          6           0       -6.080951    0.720801    1.156415
      9          1           0       -7.475944   -0.835079   -0.458792
     10          6           0        0.601771    0.547170   -1.299188
     11          6           0       -0.823428   -1.336346    0.139234
     12          6           0        0.521569   -1.154920    0.389409
     13          6           0        1.255724   -0.212476   -0.331046
     14          1           0        1.160253    1.275483   -1.876291
     15          1           0       -1.383265   -2.076857    0.700814
     16          1           0        1.015474   -1.752114    1.147605
     17          6           0       -5.411167    1.613701    1.970885
     18          1           0       -2.279577    1.141824    0.800598
     19          1           0       -1.248138    0.967582   -2.290346
     20          1           0       -3.503227    2.458074    2.478369
     21          1           0       -7.154267    0.598627    1.263844
     22          1           0       -5.962434    2.189124    2.706912
     23         16           0       -6.238224   -1.192989   -0.835805
     24          7           0        2.627173   -0.037586   -0.087724
     25          6           0        3.438312   -1.140752    0.276409
     26          6           0        4.374889   -1.012928    1.295896
     27          6           0        3.317625   -2.356550   -0.387733
     28          6           0        5.179400   -2.084309    1.640010
     29          6           0        4.112866   -3.428755   -0.025756
     30          6           0        5.049979   -3.298472    0.986151
     31          1           0        4.470709   -0.064848    1.814448
     32          1           0        2.593785   -2.456724   -1.189607
     33          1           0        5.907450   -1.970366    2.436839
     34          1           0        4.006805   -4.372570   -0.551042
     35          1           0        5.677330   -4.139106    1.262850
     36          6           0        3.224517    1.239724   -0.221989
     37          6           0        4.446224    1.376745   -0.871250
     38          6           0        2.604731    2.367846    0.304633
     39          6           0        5.037460    2.622109   -0.986244
     40          6           0        3.193018    3.612223    0.169883
     41          6           0        4.413292    3.746533   -0.472133
     42          1           0        4.931907    0.498005   -1.282066
     43          1           0        1.656156    2.262505    0.820378
     44          1           0        5.992055    2.714270   -1.494403
     45          1           0        2.697309    4.484427    0.584059
     46          1           0        4.876004    4.722810   -0.569917
 ---------------------------------------------------------------------
 Rotational constants (GHZ):           0.3083654           0.0766714           0.0675965
 Leave Link  202 at Mon Jan 18 16:16:56 2021, MaxMem=  4026531840 cpu:               0.2 elap:               0.0
 (Enter /opt/ohpc/pub/libs/gaussian/g16-A.03/sandybridge/g16/l301.exe)
 Standard basis: TZVP (5D, 7F)
 Ernie: Thresh=  0.10000D-02 Tol=  0.10000D-05 Strict=F.
 There are   660 symmetry adapted cartesian basis functions of A   symmetry.
 There are   633 symmetry adapted basis functions of A   symmetry.
   633 basis functions,  1121 primitive gaussians,   660 cartesian basis functions
   101 alpha electrons      100 beta electrons
       nuclear repulsion energy      2474.6847673599 Hartrees.
 IExCor=33909 DFT=T Ex+Corr=LC-wHPBE ExCW=0 ScaHFX=  1.000000
 ScaDFX=  1.000000  1.000000  1.000000  1.000000 ScalE2=  1.000000  1.000000
 IRadAn=      5 IRanWt=     -1 IRanGd=            0 ICorTp=0 IEmpDi=  4
 HFx  wShort=  0.000000 wLong=  0.156200 cFull=  0.000000 cShort=  0.000000 cLong=  1.000000
 DFx  wShort=  0.000000 wLong=  0.156200 cFull=  0.000000 cShort=  1.000000 cLong=  0.000000
 NAtoms=   46 NActive=   46 NUniq=   46 SFac= 1.00D+00 NAtFMM=   60 NAOKFM=F Big=F
 Integral buffers will be    131072 words long.
 Raffenetti 2 integral format.
 Two-electron integral symmetry is turned on.
 Leave Link  301 at Mon Jan 18 16:16:56 2021, MaxMem=  4026531840 cpu:               0.5 elap:               0.1
 (Enter /opt/ohpc/pub/libs/gaussian/g16-A.03/sandybridge/g16/l302.exe)
 NPDir=0 NMtPBC=     1 NCelOv=     1 NCel=       1 NClECP=     1 NCelD=      1
         NCelK=      1 NCelE2=     1 NClLst=     1 CellRange=     0.0.
 One-electron integrals computed using PRISM.
 One-electron integral symmetry used in STVInt
 NBasis=   633 RedAO= T EigKep=  6.67D-06  NBF=   633
 NBsUse=   633 1.00D-06 EigRej= -1.00D+00 NBFU=   633
 Precomputing XC quadrature grid using
 IXCGrd= 4 IRadAn=           5 IRanWt=          -1 IRanGd=           0 AccXCQ= 0.00D+00.
 Generated NRdTot=       0 NPtTot=           0 NUsed=           0 NTot=          32
 NSgBfM=   625   625   625   625   625 MxSgAt=    46 MxSgA2=    46.
 Leave Link  302 at Mon Jan 18 16:16:57 2021, MaxMem=  4026531840 cpu:              10.0 elap:               1.3
 (Enter /opt/ohpc/pub/libs/gaussian/g16-A.03/sandybridge/g16/l303.exe)
 DipDrv:  MaxL=1.
 Leave Link  303 at Mon Jan 18 16:16:57 2021, MaxMem=  4026531840 cpu:               0.8 elap:               0.2
 (Enter /opt/ohpc/pub/libs/gaussian/g16-A.03/sandybridge/g16/l401.exe)
 ExpMin= 9.52D-02 ExpMax= 6.07D+04 ExpMxC= 2.07D+03 IAcc=3 IRadAn=         5 AccDes= 0.00D+00
 Harris functional with IExCor=33909 and IRadAn=       5 diagonalized for initial guess.
 HarFok:  IExCor=33909 AccDes= 0.00D+00 IRadAn=         5 IDoV= 1 UseB2=F ITyADJ=14
 ICtDFT=  3500011 ScaDFX=  1.000000  1.000000  1.000000  1.000000
 FoFCou: FMM=F IPFlag=           0 FMFlag=      100000 FMFlg1=           0
         NFxFlg=           0 DoJE=T BraDBF=F KetDBF=T FulRan=T
         wScrn=  0.000000 ICntrl=       500 IOpCl=  0 I1Cent=   200000004 NGrid=           0
         NMat0=    1 NMatS0=      1 NMatT0=    0 NMatD0=    1 NMtDS0=    0 NMtDT0=    0
 Petite list used in FoFCou.
 Harris En= -1758.98099801804    
 JPrj=0 DoOrth=F DoCkMO=F.
 Initial guess <Sx>= 0.0000 <Sy>= 0.0000 <Sz>= 0.5000 <S**2>= 0.7500 S= 0.5000
 Leave Link  401 at Mon Jan 18 16:17:05 2021, MaxMem=  4026531840 cpu:              59.0 elap:               7.4
 (Enter /opt/ohpc/pub/libs/gaussian/g16-A.03/sandybridge/g16/l502.exe)
 Integral symmetry usage will be decided dynamically.
 UHF open shell SCF:
 Using DIIS extrapolation, IDIIS=    10.
 NGot=  4026531840 LenX=  4025648940 LenY=  4025212680
 Requested convergence on RMS density matrix=1.00D-06 within  32 cycles.
 Requested convergence on MAX density matrix=1.00D-04.
 Requested convergence on             energy=1.00D-04.
 Virtual orbitals will be shifted by   0.500 hartree.
 No special actions if energy rises.
 Dynamic level shift is on during FON iterations.

 Cycle   1  Pass 1  IDiag  1:
 FoFJK:  IHMeth= 1 ICntrl=       0 DoSepK=T KAlg= 0 I1Cent=           0 FoldK=F
 IRaf=         1 NMat=       1 IRICut=       1 DoRegI=T DoRafI=F ISym2E= 0 IDoP0=0 IntGTp=1.
 FoFCou: FMM=F IPFlag=           0 FMFlag=      100000 FMFlg1=           0
         NFxFlg=           0 DoJE=T BraDBF=F KetDBF=F FulRan=T
         wScrn=  0.000000 ICntrl=       500 IOpCl=  0 I1Cent=           0 NGrid=           0
         NMat0=    1 NMatS0=      1 NMatT0=    0 NMatD0=    1 NMtDS0=    0 NMtDT0=    0
 Symmetry not used in FoFCou.
 E= -1775.29129865160    
 DIIS: error= 3.59D-02 at cycle   1 NSaved=   1.
 NSaved= 1 IEnMin= 1 EnMin= -1775.29129865160     IErMin= 1 ErrMin= 3.59D-02
 ErrMax= 3.59D-02  0.00D+00 EMaxC= 1.00D+00 BMatC= 2.35D+00 BMatP= 2.35D+00
 IDIUse=1 WtCom= 1.00D+00 WtEn= 0.00D+00
 Coeff-Com:  0.100D+01
 Coeff:      0.100D+01
 Gap=     0.552 Goal=   None    Shift=    0.500
 T= 1603. Gap= 0.521 NK=0 IS=  102 IE=  633 IFin=  101
          NO(<0.9)=   0  NV(>0.1)=   0    101.00e < EF      0.00e >EF  Err=0.0D+00
 Gap=     0.157 Goal=   None    Shift=    0.500
 T= 1603. Gap= 0.357 NK=0 IS=  101 IE=  633 IFin=  100
          NO(<0.9)=   0  NV(>0.1)=   0    100.00e < EF      0.00e >EF  Err=0.0D+00
 GapD=    0.157 DampG=1.000 DampE=0.500 DampFc=0.5000 IDamp=-1.
 Damping current iteration by 5.00D-01
 RMSDP=3.47D-03 MaxDP=3.40D-01              OVMax= 1.44D-01

 Cycle   2  Pass 1  IDiag  1:
 E= -1775.68356000711     Delta-E=       -0.392261355508 Rises=F Damp=T
 DIIS: error= 1.56D-02 at cycle   2 NSaved=   2.
 NSaved= 2 IEnMin= 2 EnMin= -1775.68356000711     IErMin= 2 ErrMin= 1.56D-02
 ErrMax= 1.56D-02  0.00D+00 EMaxC= 1.00D+00 BMatC= 3.19D-01 BMatP= 2.35D+00
 IDIUse=1 WtCom= 1.00D+00 WtEn= 0.00D+00
 Coeff-Com: -0.464D+00 0.146D+01
 Coeff:     -0.464D+00 0.146D+01
 Gap=     0.191 Goal=   None    Shift=    0.500
 T= 1478. Gap= 0.662 NK=0 IS=  102 IE=  633 IFin=  101
          NO(<0.9)=   0  NV(>0.1)=   0    101.00e < EF      0.00e >EF  Err=0.0D+00
 Gap=     0.032 Goal=   None    Shift=    0.500
 T= 1478. Gap= 0.508 NK=0 IS=  101 IE=  633 IFin=  100
          NO(<0.9)=   0  NV(>0.1)=   0    100.00e < EF      0.00e >EF  Err=0.0D+00
 GapD=    0.032 DampG=0.250 DampE=0.500 DampFc=0.1250 IDamp=-1.
 Damping current iteration by 1.25D-01
 RMSDP=1.89D-03 MaxDP=1.15D-01 DE=-3.92D-01 OVMax= 2.91D-02

 Cycle   3  Pass 1  IDiag  1:
 E= -1775.71679999078     Delta-E=       -0.033239983672 Rises=F Damp=T
 DIIS: error= 1.35D-02 at cycle   3 NSaved=   3.
 NSaved= 3 IEnMin= 3 EnMin= -1775.71679999078     IErMin= 3 ErrMin= 1.35D-02
 ErrMax= 1.35D-02  0.00D+00 EMaxC= 1.00D+00 BMatC= 2.28D-01 BMatP= 3.19D-01
 IDIUse=1 WtCom= 1.00D+00 WtEn= 0.00D+00
 Coeff-Com:  0.127D+00-0.660D+01 0.748D+01
 Coeff:      0.127D+00-0.660D+01 0.748D+01
 Gap=     0.204 Goal=   None    Shift=    0.500
 T= 1300. Gap= 0.699 NK=0 IS=  102 IE=  633 IFin=  101
          NO(<0.9)=   0  NV(>0.1)=   0    101.00e < EF      0.00e >EF  Err=0.0D+00
 Gap=     0.051 Goal=   None    Shift=    0.500
 T= 1300. Gap= 0.550 NK=0 IS=  101 IE=  633 IFin=  100
          NO(<0.9)=   0  NV(>0.1)=   0    100.00e < EF      0.00e >EF  Err=0.0D+00
 GapD=    0.051 DampG=0.500 DampE=0.500 DampFc=0.2500 IDamp=-1.
 Damping current iteration by 2.50D-01
 RMSDP=1.71D-03 MaxDP=1.08D-01 DE=-3.32D-02 OVMax= 1.57D-02

 Cycle   4  Pass 1  IDiag  1:
 E= -1775.76928313265     Delta-E=       -0.052483141868 Rises=F Damp=T
 DIIS: error= 1.01D-02 at cycle   4 NSaved=   4.
 NSaved= 4 IEnMin= 4 EnMin= -1775.76928313265     IErMin= 4 ErrMin= 1.01D-02
 ErrMax= 1.01D-02  0.00D+00 EMaxC= 1.00D+00 BMatC= 1.21D-01 BMatP= 2.28D-01
 IDIUse=1 WtCom= 1.00D+00 WtEn= 0.00D+00
 Coeff-Com:  0.851D-01-0.373D+00-0.273D+01 0.402D+01
 Coeff:      0.851D-01-0.373D+00-0.273D+01 0.402D+01
 Gap=     0.198 Goal=   None    Shift=    0.500
 T=  998. Gap= 0.697 NK=0 IS=  102 IE=  633 IFin=  101
          NO(<0.9)=   0  NV(>0.1)=   0    101.00e < EF      0.00e >EF  Err=0.0D+00
 Gap=     0.049 Goal=   None    Shift=    0.500
 T=  998. Gap= 0.549 NK=0 IS=  101 IE=  633 IFin=  100
          NO(<0.9)=   0  NV(>0.1)=   0    100.00e < EF      0.00e >EF  Err=0.0D+00
 GapD=    0.049 DampG=0.250 DampE=0.500 DampFc=0.1250 IDamp=-1.
 Damping current iteration by 1.25D-01
 RMSDP=1.27D-03 MaxDP=8.13D-02 DE=-5.25D-02 OVMax= 1.43D-02

 Cycle   5  Pass 1  IDiag  1:
 E= -1775.78773776825     Delta-E=       -0.018454635603 Rises=F Damp=T
 DIIS: error= 8.89D-03 at cycle   5 NSaved=   5.
 NSaved= 5 IEnMin= 5 EnMin= -1775.78773776825     IErMin= 5 ErrMin= 8.89D-03
 ErrMax= 8.89D-03  0.00D+00 EMaxC= 1.00D+00 BMatC= 9.22D-02 BMatP= 1.21D-01
 IDIUse=1 WtCom= 1.00D+00 WtEn= 0.00D+00
 Coeff-Com: -0.590D-03 0.108D+01-0.134D+01-0.779D+01 0.905D+01
 Coeff:     -0.590D-03 0.108D+01-0.134D+01-0.779D+01 0.905D+01
 Gap=     0.201 Goal=   None    Shift=    0.500
 T=  884. Gap= 0.701 NK=0 IS=  102 IE=  633 IFin=  101
          NO(<0.9)=   0  NV(>0.1)=   0    101.00e < EF      0.00e >EF  Err=0.0D+00
 Gap=     0.053 Goal=   None    Shift=    0.500
 T=  884. Gap= 0.553 NK=0 IS=  101 IE=  633 IFin=  100
          NO(<0.9)=   0  NV(>0.1)=   0    100.00e < EF      0.00e >EF  Err=0.0D+00
 GapD=    0.053 DampG=0.500 DampE=1.000 DampFc=0.5000 IDamp=-1.
 Damping current iteration by 5.00D-01
 RMSDP=1.10D-03 MaxDP=7.10D-02 DE=-1.85D-02 OVMax= 1.34D-02

 Cycle   6  Pass 1  IDiag  1:
 E= -1775.84895498612     Delta-E=       -0.061217217873 Rises=F Damp=T
 DIIS: error= 4.77D-03 at cycle   6 NSaved=   6.
 NSaved= 6 IEnMin= 6 EnMin= -1775.84895498612     IErMin= 6 ErrMin= 4.77D-03
 ErrMax= 4.77D-03  0.00D+00 EMaxC= 1.00D+00 BMatC= 2.30D-02 BMatP= 9.22D-02
 IDIUse=1 WtCom= 1.00D+00 WtEn= 0.00D+00
 Coeff-Com: -0.177D-01 0.180D+00 0.440D+00 0.274D+01-0.582D+01 0.347D+01
 Coeff:     -0.177D-01 0.180D+00 0.440D+00 0.274D+01-0.582D+01 0.347D+01
 Gap=     0.203 Goal=   None    Shift=    0.500
 T=  697. Gap= 0.703 NK=0 IS=  102 IE=  633 IFin=  101
          NO(<0.9)=   0  NV(>0.1)=   0    101.00e < EF      0.00e >EF  Err=0.0D+00
 Gap=     0.056 Goal=   None    Shift=    0.500
 T=  697. Gap= 0.556 NK=0 IS=  101 IE=  633 IFin=  100
          NO(<0.9)=   0  NV(>0.1)=   0    100.00e < EF      0.00e >EF  Err=0.0D+00
 GapD=    0.056 DampG=0.500 DampE=1.000 DampFc=0.5000 IDamp=-1.
 Damping current iteration by 5.00D-01
 RMSDP=5.48D-04 MaxDP=3.44D-02 DE=-6.12D-02 OVMax= 1.39D-02

 Cycle   7  Pass 1  IDiag  1:
 E= -1775.87798482473     Delta-E=       -0.029029838606 Rises=F Damp=T
 DIIS: error= 2.98D-03 at cycle   7 NSaved=   7.
 NSaved= 7 IEnMin= 7 EnMin= -1775.87798482473     IErMin= 7 ErrMin= 2.98D-03
 ErrMax= 2.98D-03  0.00D+00 EMaxC= 1.00D+00 BMatC= 5.96D-03 BMatP= 2.30D-02
 IDIUse=1 WtCom= 1.00D+00 WtEn= 0.00D+00
 Coeff-Com: -0.522D-02-0.317D+00 0.681D+00 0.382D+01-0.497D+01-0.129D+01
 Coeff-Com:  0.308D+01
 Coeff:     -0.522D-02-0.317D+00 0.681D+00 0.382D+01-0.497D+01-0.129D+01
 Coeff:      0.308D+01
 Gap=     0.204 Goal=   None    Shift=    0.500
 T=  483. Gap= 0.704 NK=0 IS=  102 IE=  633 IFin=  101
          NO(<0.9)=   0  NV(>0.1)=   0    101.00e < EF      0.00e >EF  Err=0.0D+00
 Gap=     0.057 Goal=   None    Shift=    0.500
 T=  483. Gap= 0.557 NK=0 IS=  101 IE=  633 IFin=  100
          NO(<0.9)=   0  NV(>0.1)=   0    100.00e < EF      0.00e >EF  Err=0.0D+00
 GapD=    0.057 DampG=0.500 DampE=1.000 DampFc=0.5000 IDamp=-1.
 Damping current iteration by 5.00D-01
 RMSDP=2.86D-04 MaxDP=1.68D-02 DE=-2.90D-02 OVMax= 1.44D-02

 Cycle   8  Pass 1  IDiag  1:
 E= -1775.89230713696     Delta-E=       -0.014322312225 Rises=F Damp=T
 DIIS: error= 2.65D-03 at cycle   8 NSaved=   8.
 NSaved= 8 IEnMin= 8 EnMin= -1775.89230713696     IErMin= 8 ErrMin= 2.65D-03
 ErrMax= 2.65D-03  0.00D+00 EMaxC= 1.00D+00 BMatC= 1.68D-03 BMatP= 5.96D-03
 IDIUse=1 WtCom= 1.00D+00 WtEn= 0.00D+00
 Coeff-Com:  0.445D-02-0.188D+00-0.126D-01 0.241D+00 0.107D+01-0.194D+01
 Coeff-Com: -0.212D+01 0.395D+01
 Coeff:      0.445D-02-0.188D+00-0.126D-01 0.241D+00 0.107D+01-0.194D+01
 Coeff:     -0.212D+01 0.395D+01
 Gap=     0.205 Goal=   None    Shift=    0.500
 T=  201. Gap= 0.705 NK=0 IS=  102 IE=  633 IFin=  101
          NO(<0.9)=   0  NV(>0.1)=   0    101.00e < EF      0.00e >EF  Err=0.0D+00
 Gap=     0.058 Goal=   None    Shift=    0.500
 T=  201. Gap= 0.558 NK=0 IS=  101 IE=  633 IFin=  100
          NO(<0.9)=   0  NV(>0.1)=   0    100.00e < EF      0.00e >EF  Err=0.0D+00
 GapD=    0.058 DampG=0.500 DampE=1.000 DampFc=0.5000 IDamp=-1.
 Damping current iteration by 5.00D-01
 RMSDP=1.63D-04 MaxDP=8.66D-03 DE=-1.43D-02 OVMax= 1.55D-02

 Cycle   9  Pass 1  IDiag  1:
 E= -1775.89956459069     Delta-E=       -0.007257453736 Rises=F Damp=T
 DIIS: error= 2.63D-03 at cycle   9 NSaved=   9.
 NSaved= 9 IEnMin= 9 EnMin= -1775.89956459069     IErMin= 9 ErrMin= 2.63D-03
 ErrMax= 2.63D-03  0.00D+00 EMaxC= 1.00D+00 BMatC= 5.65D-04 BMatP= 1.68D-03
 IDIUse=1 WtCom= 1.00D+00 WtEn= 0.00D+00
 Coeff-Com:  0.345D-02-0.117D+00-0.862D-01-0.240D+00 0.144D+01-0.148D+01
 Coeff-Com: -0.150D+01 0.145D+01 0.153D+01
 Coeff:      0.345D-02-0.117D+00-0.862D-01-0.240D+00 0.144D+01-0.148D+01
 Coeff:     -0.150D+01 0.145D+01 0.153D+01
 Gap=     0.205 Goal=   None    Shift=    0.500
 T=   62. Gap= 0.705 NK=0 IS=  102 IE=  633 IFin=  101
          NO(<0.9)=   0  NV(>0.1)=   0    101.00e < EF      0.00e >EF  Err=0.0D+00
 Gap=     0.059 Goal=   None    Shift=    0.500
 T=   62. Gap= 0.559 NK=0 IS=  101 IE=  633 IFin=  100
          NO(<0.9)=   0  NV(>0.1)=   0    100.00e < EF      0.00e >EF  Err=0.0D+00
 GapD=    0.059 DampG=0.500 DampE=1.000 DampFc=0.5000 IDamp=-1.
 Damping current iteration by 5.00D-01
 RMSDP=1.03D-04 MaxDP=6.20D-03 DE=-7.26D-03 OVMax= 1.45D-02

 Cycle  10  Pass 1  IDiag  1:
 E= -1775.90333340805     Delta-E=       -0.003768817362 Rises=F Damp=T
 DIIS: error= 2.64D-03 at cycle  10 NSaved=  10.
 NSaved=10 IEnMin=10 EnMin= -1775.90333340805     IErMin= 9 ErrMin= 2.63D-03
 ErrMax= 2.64D-03  0.00D+00 EMaxC= 1.00D+00 BMatC= 2.58D-04 BMatP= 5.65D-04
 IDIUse=1 WtCom= 1.00D+00 WtEn= 0.00D+00
 Coeff-Com:  0.210D-02-0.963D-01-0.513D-01 0.526D+00 0.159D+00-0.114D+01
 Coeff-Com: -0.554D+00 0.228D+01-0.288D+01 0.276D+01
 Coeff:      0.210D-02-0.963D-01-0.513D-01 0.526D+00 0.159D+00-0.114D+01
 Coeff:     -0.554D+00 0.228D+01-0.288D+01 0.276D+01
 Gap=     0.206 Goal=   None    Shift=    0.500
 T=   38. Gap= 0.706 NK=0 IS=  102 IE=  633 IFin=  101
          NO(<0.9)=   0  NV(>0.1)=   0    101.00e < EF      0.00e >EF  Err=0.0D+00
 Gap=     0.060 Goal=   None    Shift=    0.500
 T=   38. Gap= 0.560 NK=0 IS=  101 IE=  633 IFin=  100
          NO(<0.9)=   0  NV(>0.1)=   0    100.00e < EF      0.00e >EF  Err=0.0D+00
 GapD=    0.060 DampG=0.500 DampE=1.000 DampFc=0.5000 IDamp=-1.
 Damping current iteration by 5.00D-01
 RMSDP=7.51D-05 MaxDP=5.51D-03 DE=-3.77D-03 OVMax= 1.42D-02

 Cycle  11  Pass 1  IDiag  1:
 E= -1775.90535399607     Delta-E=       -0.002020588015 Rises=F Damp=T
 DIIS: error= 2.68D-03 at cycle  11 NSaved=  11.
 NSaved=11 IEnMin=11 EnMin= -1775.90535399607     IErMin= 9 ErrMin= 2.63D-03
 ErrMax= 2.68D-03  0.00D+00 EMaxC= 1.00D+00 BMatC= 1.70D-04 BMatP= 2.58D-04
 IDIUse=1 WtCom= 1.00D+00 WtEn= 0.00D+00
 Coeff-Com:  0.211D-02-0.975D-01-0.509D-01 0.527D+00 0.155D+00-0.112D+01
 Coeff-Com: -0.552D+00 0.237D+01-0.368D+01 0.415D+01-0.701D+00
 Coeff:      0.211D-02-0.975D-01-0.509D-01 0.527D+00 0.155D+00-0.112D+01
 Coeff:     -0.552D+00 0.237D+01-0.368D+01 0.415D+01-0.701D+00
 Gap=     0.206 Goal=   None    Shift=    0.500
 Gap=     0.060 Goal=   None    Shift=    0.500
 GapD=    0.060 DampG=0.500 DampE=1.000 DampFc=0.5000 IDamp=-1.
 Damping current iteration by 5.00D-01
 RMSDP=5.60D-05 MaxDP=3.52D-03 DE=-2.02D-03 OVMax= 1.23D-02

 Cycle  12  Pass 1  IDiag  1:
 E= -1775.90648071020     Delta-E=       -0.001126714130 Rises=F Damp=T
 DIIS: error= 2.70D-03 at cycle  12 NSaved=  12.
 NSaved=12 IEnMin=12 EnMin= -1775.90648071020     IErMin= 9 ErrMin= 2.63D-03
 ErrMax= 2.70D-03  0.00D+00 EMaxC= 1.00D+00 BMatC= 1.47D-04 BMatP= 1.70D-04
 IDIUse=1 WtCom= 1.00D+00 WtEn= 0.00D+00
 Coeff-Com:  0.215D-02-0.953D-01-0.597D-01 0.516D+00 0.192D+00-0.115D+01
 Coeff-Com: -0.574D+00 0.233D+01-0.351D+01 0.414D+01-0.918D+00 0.130D+00
 Coeff:      0.215D-02-0.953D-01-0.597D-01 0.516D+00 0.192D+00-0.115D+01
 Coeff:     -0.574D+00 0.233D+01-0.351D+01 0.414D+01-0.918D+00 0.130D+00
 Gap=     0.206 Goal=   None    Shift=    0.500
 Gap=     0.061 Goal=   None    Shift=    0.500
 GapD=    0.061 DampG=0.500 DampE=1.000 DampFc=0.5000 IDamp=-1.
 Damping current iteration by 5.00D-01
 RMSDP=4.39D-05 MaxDP=2.90D-03 DE=-1.13D-03 OVMax= 1.10D-02

 Cycle  13  Pass 1  IDiag  1:
 E= -1775.90714244285     Delta-E=       -0.000661732655 Rises=F Damp=T
 DIIS: error= 2.71D-03 at cycle  13 NSaved=  13.
 NSaved=13 IEnMin=13 EnMin= -1775.90714244285     IErMin= 9 ErrMin= 2.63D-03
 ErrMax= 2.71D-03  0.00D+00 EMaxC= 1.00D+00 BMatC= 1.48D-04 BMatP= 1.47D-04
 IDIUse=1 WtCom= 1.00D+00 WtEn= 0.00D+00
 Large coefficients: NSaved= 13 BigCof=   11.32 CofMax=   10.00 Det=-8.87D-10
 Inversion failed.  Reducing to 12 matrices.
 Coeff-Com: -0.756D-01-0.149D-01 0.674D+00-0.217D+00-0.918D+00-0.403D+00
 Coeff-Com:  0.233D+01-0.457D+01 0.755D+01-0.835D+01 0.811D+01-0.312D+01
 Coeff:     -0.756D-01-0.149D-01 0.674D+00-0.217D+00-0.918D+00-0.403D+00
 Coeff:      0.233D+01-0.457D+01 0.755D+01-0.835D+01 0.811D+01-0.312D+01
 Gap=     0.206 Goal=   None    Shift=    0.500
 Gap=     0.061 Goal=   None    Shift=    0.500
 GapD=    0.061 DampG=0.500 DampE=1.000 DampFc=0.5000 IDamp=-1.
 Damping current iteration by 5.00D-01
 RMSDP=3.55D-05 MaxDP=2.40D-03 DE=-6.62D-04 OVMax= 9.51D-03

 Cycle  14  Pass 1  IDiag  1:
 E= -1775.90755432435     Delta-E=       -0.000411881500 Rises=F Damp=T
 DIIS: error= 2.70D-03 at cycle  14 NSaved=  13.
 NSaved=13 IEnMin=13 EnMin= -1775.90755432435     IErMin= 8 ErrMin= 2.63D-03
 ErrMax= 2.70D-03  0.00D+00 EMaxC= 1.00D+00 BMatC= 1.66D-04 BMatP= 1.47D-04
 IDIUse=1 WtCom= 1.00D+00 WtEn= 0.00D+00
 Large coefficients: NSaved= 13 BigCof=   25.80 CofMax=   10.00 Det=-3.26D-10
 Inversion failed.  Reducing to 12 matrices.
 Large coefficients: NSaved= 12 BigCof=   26.27 CofMax=   10.00 Det=-3.26D-10
 Inversion failed.  Reducing to 11 matrices.
 Large coefficients: NSaved= 11 BigCof=   26.35 CofMax=   10.00 Det=-3.26D-10
 Inversion failed.  Reducing to 10 matrices.
 Large coefficients: NSaved= 10 BigCof=   21.24 CofMax=   10.00 Det=-3.46D-10
 Inversion failed.  Reducing to  9 matrices.
 Large coefficients: NSaved=  9 BigCof=   32.48 CofMax=   10.00 Det=-3.63D-10
 Inversion failed.  Reducing to  8 matrices.
 Large coefficients: NSaved=  8 BigCof=   32.54 CofMax=   10.00 Det=-3.65D-10
 Inversion failed.  Reducing to  7 matrices.
 Large coefficients: NSaved=  7 BigCof=   30.26 CofMax=   10.00 Det=-3.79D-10
 Inversion failed.  Reducing to  6 matrices.
 Large coefficients: NSaved=  6 BigCof=   19.28 CofMax=   10.00 Det=-3.84D-10
 Inversion failed.  Reducing to  5 matrices.
 Large coefficients: NSaved=  5 BigCof=   17.83 CofMax=   10.00 Det=-1.95D-09
 Inversion failed.  Reducing to  4 matrices.
 Coeff-Com: -0.309D+01 0.786D+01-0.417D+01 0.397D+00
 Coeff:     -0.309D+01 0.786D+01-0.417D+01 0.397D+00
 Gap=     0.207 Goal=   None    Shift=    0.500
 Gap=     0.061 Goal=   None    Shift=    0.500
 GapD=    0.061 DampG=0.500 DampE=1.000 DampFc=0.5000 IDamp=-1.
 Damping current iteration by 5.00D-01
 RMSDP=3.20D-05 MaxDP=2.21D-03 DE=-4.12D-04 OVMax= 9.35D-03

 Cycle  15  Pass 1  IDiag  1:
 E= -1775.90783921336     Delta-E=       -0.000284889005 Rises=F Damp=T
 DIIS: error= 2.69D-03 at cycle  15 NSaved=   5.
 NSaved= 5 IEnMin= 5 EnMin= -1775.90783921336     IErMin= 1 ErrMin= 2.68D-03
 ErrMax= 2.69D-03  0.00D+00 EMaxC= 1.00D+00 BMatC= 1.87D-04 BMatP= 1.47D-04
 IDIUse=1 WtCom= 1.00D+00 WtEn= 0.00D+00
 Coeff-Com: -0.365D+01 0.956D+01-0.492D+01-0.121D+01 0.122D+01
 Coeff:     -0.365D+01 0.956D+01-0.492D+01-0.121D+01 0.122D+01
 Gap=     0.207 Goal=   None    Shift=    0.500
 Gap=     0.061 Goal=   None    Shift=    0.500
 GapD=    0.061 DampG=0.500 DampE=1.000 DampFc=0.5000 IDamp=-1.
 Damping current iteration by 5.00D-01
 RMSDP=2.93D-05 MaxDP=1.98D-03 DE=-2.85D-04 OVMax= 8.56D-03

 Cycle  16  Pass 1  IDiag  1:
 E= -1775.90805234776     Delta-E=       -0.000213134401 Rises=F Damp=T
 DIIS: error= 2.69D-03 at cycle  16 NSaved=   6.
 NSaved= 6 IEnMin= 6 EnMin= -1775.90805234776     IErMin= 1 ErrMin= 2.68D-03
 ErrMax= 2.69D-03  0.00D+00 EMaxC= 1.00D+00 BMatC= 2.13D-04 BMatP= 1.47D-04
 IDIUse=1 WtCom= 1.00D+00 WtEn= 0.00D+00
 Large coefficients: NSaved=  6 BigCof=   16.54 CofMax=   10.00 Det=-7.27D-09
 Inversion failed.  Reducing to  5 matrices.
 Large coefficients: NSaved=  5 BigCof=   17.99 CofMax=   10.00 Det=-1.22D-08
 Inversion failed.  Reducing to  4 matrices.
 Large coefficients: NSaved=  4 BigCof=   14.04 CofMax=   10.00 Det=-4.31D-08
 Inversion failed.  Reducing to  3 matrices.
 Large coefficients: NSaved=  3 BigCof=   12.89 CofMax=   10.00 Det=-5.61D-08
 Inversion failed.  Reducing to  2 matrices.
 Coeff-Com:  0.520D+01-0.420D+01
 Coeff:      0.520D+01-0.420D+01
 Gap=     0.206 Goal=   None    Shift=    0.500
 Gap=     0.061 Goal=   None    Shift=    0.500
 GapD=    0.061 DampG=0.500 DampE=1.000 DampFc=0.5000 IDamp=-1.
 Damping current iteration by 5.00D-01
 RMSDP=2.37D-05 MaxDP=1.52D-03 DE=-2.13D-04 OVMax= 6.62D-03

 Cycle  17  Pass 1  IDiag  1:
 E= -1775.90820864471     Delta-E=       -0.000156296952 Rises=F Damp=T
 DIIS: error= 2.66D-03 at cycle  17 NSaved=   3.
 NSaved= 3 IEnMin= 3 EnMin= -1775.90820864471     IErMin= 3 ErrMin= 2.66D-03
 ErrMax= 2.66D-03  0.00D+00 EMaxC= 1.00D+00 BMatC= 2.50D-04 BMatP= 1.87D-04
 IDIUse=1 WtCom= 1.00D+00 WtEn= 0.00D+00
 Coeff-Com:  0.790D+01-0.919D+01 0.229D+01
 Coeff:      0.790D+01-0.919D+01 0.229D+01
 Gap=     0.206 Goal=   None    Shift=    0.500
 Gap=     0.061 Goal=   None    Shift=    0.500
 GapD=    0.061 DampG=0.500 DampE=1.000 DampFc=0.5000 IDamp=-1.
 Damping current iteration by 5.00D-01
 RMSDP=1.99D-05 MaxDP=1.44D-03 DE=-1.56D-04 OVMax= 4.95D-03

 Cycle  18  Pass 1  IDiag  1:
 E= -1775.90831750292     Delta-E=       -0.000108858211 Rises=F Damp=T
 DIIS: error= 2.62D-03 at cycle  18 NSaved=   4.
 NSaved= 4 IEnMin= 4 EnMin= -1775.90831750292     IErMin= 4 ErrMin= 2.62D-03
 ErrMax= 2.62D-03  0.00D+00 EMaxC= 1.00D+00 BMatC= 3.01D-04 BMatP= 1.87D-04
 IDIUse=1 WtCom= 1.00D+00 WtEn= 0.00D+00
 Coeff-Com:  0.839D+01-0.964D+01 0.186D+01 0.399D+00
 Coeff:      0.839D+01-0.964D+01 0.186D+01 0.399D+00
 Gap=     0.205 Goal=   None    Shift=    0.500
 Gap=     0.061 Goal=   None    Shift=    0.500
 GapD=    0.061 DampG=0.500 DampE=1.000 DampFc=0.5000 IDamp=-1.
 Damping current iteration by 5.00D-01
 RMSDP=1.70D-05 MaxDP=1.58D-03 DE=-1.09D-04 OVMax= 4.12D-03

 Cycle  19  Pass 1  IDiag  1:
 E= -1775.90839569353     Delta-E=       -0.000078190603 Rises=F Damp=T
 DIIS: error= 2.57D-03 at cycle  19 NSaved=   5.
 NSaved= 5 IEnMin= 5 EnMin= -1775.90839569353     IErMin= 5 ErrMin= 2.57D-03
 ErrMax= 2.57D-03  0.00D+00 EMaxC= 1.00D+00 BMatC= 3.55D-04 BMatP= 1.87D-04
 IDIUse=1 WtCom= 1.00D+00 WtEn= 0.00D+00
 Coeff-Com:  0.850D+01-0.961D+01 0.312D+00 0.309D+01-0.130D+01
 Coeff:      0.850D+01-0.961D+01 0.312D+00 0.309D+01-0.130D+01
 Gap=     0.205 Goal=   None    Shift=    0.500
 Gap=     0.061 Goal=   None    Shift=    0.500
 GapD=    0.061 DampG=0.500 DampE=1.000 DampFc=0.5000 IDamp=-1.
 Damping current iteration by 5.00D-01
 RMSDP=1.40D-05 MaxDP=1.22D-03 DE=-7.82D-05 OVMax= 3.65D-03

 Cycle  20  Pass 1  IDiag  1:
 E= -1775.90845665234     Delta-E=       -0.000060958811 Rises=F Damp=T
 DIIS: error= 2.54D-03 at cycle  20 NSaved=   6.
 NSaved= 6 IEnMin= 6 EnMin= -1775.90845665234     IErMin= 6 ErrMin= 2.54D-03
 ErrMax= 2.54D-03  0.00D+00 EMaxC= 1.00D+00 BMatC= 4.06D-04 BMatP= 1.87D-04
 IDIUse=1 WtCom= 1.00D+00 WtEn= 0.00D+00
 Large coefficients: NSaved=  6 BigCof=   49.32 CofMax=   10.00 Det=-3.01D-10
 Inversion failed.  Reducing to  5 matrices.
 Large coefficients: NSaved=  5 BigCof=   70.74 CofMax=   10.00 Det=-3.10D-10
 Inversion failed.  Reducing to  4 matrices.
 Large coefficients: NSaved=  4 BigCof=   41.39 CofMax=   10.00 Det=-8.70D-10
 Inversion failed.  Reducing to  3 matrices.
 Large coefficients: NSaved=  3 BigCof=   15.09 CofMax=   10.00 Det=-5.60D-09
 Inversion failed.  Reducing to  2 matrices.
 Coeff-Com:  0.972D+01-0.872D+01
 Coeff:      0.972D+01-0.872D+01
 Gap=     0.208 Goal=   None    Shift=    0.500
 Gap=     0.063 Goal=   None    Shift=    0.500
 GapD=    0.063 DampG=0.500 DampE=1.000 DampFc=0.5000 IDamp=-1.
 Damping current iteration by 5.00D-01
 RMSDP=3.33D-05 MaxDP=4.50D-03 DE=-6.10D-05 OVMax= 8.50D-03

 Cycle  21  Pass 1  IDiag  1:
 E= -1775.90858025016     Delta-E=       -0.000123597827 Rises=F Damp=T
 DIIS: error= 2.56D-03 at cycle  21 NSaved=   3.
 NSaved= 3 IEnMin= 3 EnMin= -1775.90858025016     IErMin= 2 ErrMin= 2.54D-03
 ErrMax= 2.56D-03  0.00D+00 EMaxC= 1.00D+00 BMatC= 3.94D-04 BMatP= 3.55D-04
 IDIUse=1 WtCom= 1.00D+00 WtEn= 0.00D+00
 Coeff-Com:  0.955D+01-0.934D+01 0.786D+00
 Coeff:      0.955D+01-0.934D+01 0.786D+00
 Gap=     0.209 Goal=   None    Shift=    0.500
 Gap=     0.063 Goal=   None    Shift=    0.500
 GapD=    0.063 DampG=0.500 DampE=1.000 DampFc=0.5000 IDamp=-1.
 Damping current iteration by 5.00D-01
 RMSDP=3.89D-05 MaxDP=5.39D-03 DE=-1.24D-04 OVMax= 8.27D-03

 Cycle  22  Pass 1  IDiag  1:
 E= -1775.90872380300     Delta-E=       -0.000143552836 Rises=F Damp=T
 DIIS: error= 2.59D-03 at cycle  22 NSaved=   4.
 NSaved= 4 IEnMin= 4 EnMin= -1775.90872380300     IErMin= 2 ErrMin= 2.54D-03
 ErrMax= 2.59D-03  0.00D+00 EMaxC= 1.00D+00 BMatC= 3.80D-04 BMatP= 3.55D-04
 IDIUse=1 WtCom= 1.00D+00 WtEn= 0.00D+00
 Large coefficients: NSaved=  4 BigCof=   15.93 CofMax=   10.00 Det=-2.08D-08
 Inversion failed.  Reducing to  3 matrices.
 Large coefficients: NSaved=  3 BigCof=   43.80 CofMax=   10.00 Det=-5.48D-08
 Inversion failed.  Reducing to  2 matrices.
 Coeff-Com: -0.711D+01 0.811D+01
 Coeff:     -0.711D+01 0.811D+01
 Gap=     0.223 Goal=   None    Shift=    0.500
 Gap=     0.069 Goal=   None    Shift=    0.500
 GapD=    0.069 DampG=0.500 DampE=1.000 DampFc=0.5000 IDamp=-1.
 Damping current iteration by 5.00D-01
 RMSDP=1.28D-04 MaxDP=2.12D-02 DE=-1.44D-04 OVMax= 1.90D-02

 Cycle  23  Pass 1  IDiag  1:
 E= -1775.90901259829     Delta-E=       -0.000288795294 Rises=F Damp=T
 DIIS: error= 2.93D-03 at cycle  23 NSaved=   3.
 NSaved= 3 IEnMin= 3 EnMin= -1775.90901259829     IErMin= 1 ErrMin= 2.56D-03
 ErrMax= 2.93D-03  0.00D+00 EMaxC= 1.00D+00 BMatC= 1.89D-04 BMatP= 3.80D-04
 IDIUse=1 WtCom= 1.00D+00 WtEn= 0.00D+00
 Coeff-Com: -0.258D+01 0.243D+01 0.115D+01
 Coeff:     -0.258D+01 0.243D+01 0.115D+01
 Gap=     0.218 Goal=   None    Shift=    0.500
 Gap=     0.067 Goal=   None    Shift=    0.500
 GapD=    0.067 DampG=0.500 DampE=1.000 DampFc=0.5000 IDamp=-1.
 Damping current iteration by 5.00D-01
 RMSDP=9.52D-05 MaxDP=1.45D-02 DE=-2.89D-04 OVMax= 1.57D-02

 Cycle  24  Pass 1  IDiag  1:
 E= -1775.90930503395     Delta-E=       -0.000292435660 Rises=F Damp=T
 DIIS: error= 3.08D-03 at cycle  24 NSaved=   4.
 NSaved= 4 IEnMin= 4 EnMin= -1775.90930503395     IErMin= 1 ErrMin= 2.56D-03
 ErrMax= 3.08D-03  0.00D+00 EMaxC= 1.00D+00 BMatC= 1.76D-04 BMatP= 1.89D-04
 IDIUse=1 WtCom= 1.00D+00 WtEn= 0.00D+00
 Coeff-Com: -0.926D+00 0.101D+01-0.386D+00 0.130D+01
 Coeff:     -0.926D+00 0.101D+01-0.386D+00 0.130D+01
 Gap=     0.218 Goal=   None    Shift=    0.500
 Gap=     0.067 Goal=   None    Shift=    0.500
 GapD=    0.067 DampG=0.500 DampE=1.000 DampFc=0.5000 IDamp=-1.
 Damping current iteration by 5.00D-01
 RMSDP=7.24D-05 MaxDP=9.47D-03 DE=-2.92D-04 OVMax= 1.45D-02

 Cycle  25  Pass 1  IDiag  1:
 E= -1775.90959572951     Delta-E=       -0.000290695553 Rises=F Damp=T
 DIIS: error= 3.12D-03 at cycle  25 NSaved=   5.
 NSaved= 5 IEnMin= 5 EnMin= -1775.90959572951     IErMin= 1 ErrMin= 2.56D-03
 ErrMax= 3.12D-03  0.00D+00 EMaxC= 1.00D+00 BMatC= 1.77D-04 BMatP= 1.76D-04
 IDIUse=1 WtCom= 1.00D+00 WtEn= 0.00D+00
 Large coefficients: NSaved=  5 BigCof=   12.82 CofMax=   10.00 Det=-5.25D-08
 Inversion failed.  Reducing to  4 matrices.
 Coeff-Com:  0.508D+00-0.224D+01 0.492D+01-0.219D+01
 Coeff:      0.508D+00-0.224D+01 0.492D+01-0.219D+01
 Gap=     0.216 Goal=   None    Shift=    0.500
 Gap=     0.067 Goal=   None    Shift=    0.500
 GapD=    0.067 DampG=0.500 DampE=1.000 DampFc=0.5000 IDamp=-1.
 Damping current iteration by 5.00D-01
 RMSDP=4.11D-05 MaxDP=2.30D-03 DE=-2.91D-04 OVMax= 9.72D-03

 Cycle  26  Pass 1  IDiag  1:
 E= -1775.90983073181     Delta-E=       -0.000235002306 Rises=F Damp=T
 DIIS: error= 3.03D-03 at cycle  26 NSaved=   5.
 NSaved= 5 IEnMin= 5 EnMin= -1775.90983073181     IErMin= 1 ErrMin= 2.59D-03
 ErrMax= 3.03D-03  0.00D+00 EMaxC= 1.00D+00 BMatC= 2.00D-04 BMatP= 1.76D-04
 IDIUse=1 WtCom= 1.00D+00 WtEn= 0.00D+00
 Coeff-Com:  0.534D+00-0.156D+01 0.282D+01 0.797D-01-0.874D+00
 Coeff:      0.534D+00-0.156D+01 0.282D+01 0.797D-01-0.874D+00
 Gap=     0.215 Goal=   None    Shift=    0.500
 Gap=     0.067 Goal=   None    Shift=    0.500
 GapD=    0.067 DampG=0.500 DampE=1.000 DampFc=0.5000 IDamp=-1.
 Damping current iteration by 5.00D-01
 RMSDP=3.18D-05 MaxDP=1.82D-03 DE=-2.35D-04 OVMax= 8.49D-03

 Cycle  27  Pass 1  IDiag  1:
 E= -1775.91001507371     Delta-E=       -0.000184341892 Rises=F Damp=T
 DIIS: error= 2.92D-03 at cycle  27 NSaved=   6.
 NSaved= 6 IEnMin= 6 EnMin= -1775.91001507371     IErMin= 1 ErrMin= 2.59D-03
 ErrMax= 2.92D-03  0.00D+00 EMaxC= 1.00D+00 BMatC= 2.55D-04 BMatP= 1.76D-04
 IDIUse=1 WtCom= 1.00D+00 WtEn= 0.00D+00
 Coeff-Com:  0.573D+00-0.190D+01 0.519D+01-0.614D+01 0.669D+01-0.341D+01
 Coeff:      0.573D+00-0.190D+01 0.519D+01-0.614D+01 0.669D+01-0.341D+01
 Gap=     0.214 Goal=   None    Shift=    0.500
 Gap=     0.067 Goal=   None    Shift=    0.500
 GapD=    0.067 DampG=0.500 DampE=1.000 DampFc=0.5000 IDamp=-1.
 Damping current iteration by 5.00D-01
 RMSDP=2.77D-05 MaxDP=2.53D-03 DE=-1.84D-04 OVMax= 6.08D-03

 Cycle  28  Pass 1  IDiag  1:
 E= -1775.91013998279     Delta-E=       -0.000124909086 Rises=F Damp=T
 DIIS: error= 2.78D-03 at cycle  28 NSaved=   7.
 NSaved= 7 IEnMin= 7 EnMin= -1775.91013998279     IErMin= 1 ErrMin= 2.59D-03
 ErrMax= 2.78D-03  0.00D+00 EMaxC= 1.00D+00 BMatC= 3.49D-04 BMatP= 1.76D-04
 IDIUse=1 WtCom= 1.00D+00 WtEn= 0.00D+00
 Large coefficients: NSaved=  7 BigCof=   23.84 CofMax=   10.00 Det=-3.62D-09
 Inversion failed.  Reducing to  6 matrices.
 Coeff-Com:  0.159D+00 0.889D+00-0.262D+01 0.569D+01-0.357D+01 0.452D+00
 Coeff:      0.159D+00 0.889D+00-0.262D+01 0.569D+01-0.357D+01 0.452D+00
 Gap=     0.217 Goal=   None    Shift=    0.500
 Gap=     0.068 Goal=   None    Shift=    0.500
 GapD=    0.068 DampG=0.500 DampE=1.000 DampFc=0.5000 IDamp=-1.
 Damping current iteration by 5.00D-01
 RMSDP=2.76D-05 MaxDP=1.81D-03 DE=-1.25D-04 OVMax= 8.65D-03

 Cycle  29  Pass 1  IDiag  1:
 E= -1775.91028390767     Delta-E=       -0.000143924881 Rises=F Damp=T
 DIIS: error= 2.71D-03 at cycle  29 NSaved=   7.
 NSaved= 7 IEnMin= 7 EnMin= -1775.91028390767     IErMin= 7 ErrMin= 2.71D-03
 ErrMax= 2.71D-03  0.00D+00 EMaxC= 1.00D+00 BMatC= 4.07D-04 BMatP= 1.76D-04
 IDIUse=1 WtCom= 1.00D+00 WtEn= 0.00D+00
 Coeff-Com: -0.185D+00 0.237D+01-0.493D+01 0.691D+01-0.270D+01-0.127D+01
 Coeff-Com:  0.800D+00
 Coeff:     -0.185D+00 0.237D+01-0.493D+01 0.691D+01-0.270D+01-0.127D+01
 Coeff:      0.800D+00
 Gap=     0.217 Goal=   None    Shift=    0.500
 Gap=     0.068 Goal=   None    Shift=    0.500
 GapD=    0.068 DampG=0.500 DampE=1.000 DampFc=0.5000 IDamp=-1.
 Damping current iteration by 5.00D-01
 RMSDP=2.83D-05 MaxDP=2.34D-03 DE=-1.44D-04 OVMax= 7.72D-03

 Cycle  30  Pass 1  IDiag  1:
 E= -1775.91042426752     Delta-E=       -0.000140359845 Rises=F Damp=T
 DIIS: error= 2.66D-03 at cycle  30 NSaved=   8.
 NSaved= 8 IEnMin= 8 EnMin= -1775.91042426752     IErMin= 8 ErrMin= 2.66D-03
 ErrMax= 2.66D-03  0.00D+00 EMaxC= 1.00D+00 BMatC= 4.57D-04 BMatP= 1.76D-04
 IDIUse=1 WtCom= 1.00D+00 WtEn= 0.00D+00
 Large coefficients: NSaved=  8 BigCof=   59.17 CofMax=   10.00 Det=-1.64D-09
 Inversion failed.  Reducing to  7 matrices.
 Large coefficients: NSaved=  7 BigCof=   56.28 CofMax=   10.00 Det=-1.76D-09
 Inversion failed.  Reducing to  6 matrices.
 Large coefficients: NSaved=  6 BigCof=   53.51 CofMax=   10.00 Det=-1.79D-09
 Inversion failed.  Reducing to  5 matrices.
 Large coefficients: NSaved=  5 BigCof=   35.87 CofMax=   10.00 Det=-2.87D-09
 Inversion failed.  Reducing to  4 matrices.
 Coeff-Com:  0.312D+01-0.304D+01 0.198D+01-0.106D+01
 Coeff:      0.312D+01-0.304D+01 0.198D+01-0.106D+01
 Gap=     0.219 Goal=   None    Shift=    0.500
 Gap=     0.068 Goal=   None    Shift=    0.500
 GapD=    0.068 DampG=0.500 DampE=1.000 DampFc=0.5000 IDamp=-1.
 Damping current iteration by 5.00D-01
 RMSDP=3.78D-05 MaxDP=4.50D-03 DE=-1.40D-04 OVMax= 9.29D-03

 Cycle  31  Pass 1  IDiag  1:
 E= -1775.91058923253     Delta-E=       -0.000164965012 Rises=F Damp=T
 DIIS: error= 2.64D-03 at cycle  31 NSaved=   5.
 NSaved= 5 IEnMin= 5 EnMin= -1775.91058923253     IErMin= 5 ErrMin= 2.64D-03
 ErrMax= 2.64D-03  0.00D+00 EMaxC= 1.00D+00 BMatC= 4.76D-04 BMatP= 2.55D-04
 IDIUse=1 WtCom= 1.00D+00 WtEn= 0.00D+00
 Coeff-Com:  0.326D+01-0.258D+01 0.177D-01 0.854D+00-0.548D+00
 Coeff:      0.326D+01-0.258D+01 0.177D-01 0.854D+00-0.548D+00
 Gap=     0.219 Goal=   None    Shift=    0.500
 Gap=     0.069 Goal=   None    Shift=    0.500
 RMSDP=3.44D-05 MaxDP=3.79D-03 DE=-1.65D-04 OVMax= 8.17D-03

 Cycle  32  Pass 1  IDiag  1:
 E= -1775.91091656868     Delta-E=       -0.000327336148 Rises=F Damp=F
 DIIS: error= 2.58D-03 at cycle  32 NSaved=   6.
 NSaved= 6 IEnMin= 6 EnMin= -1775.91091656868     IErMin= 6 ErrMin= 2.58D-03
 ErrMax= 2.58D-03  0.00D+00 EMaxC= 1.00D+00 BMatC= 5.40D-04 BMatP= 2.55D-04
 IDIUse=1 WtCom= 1.00D+00 WtEn= 0.00D+00
 Large coefficients: NSaved=  6 BigCof=   32.56 CofMax=   10.00 Det=-1.90D-09
 Inversion failed.  Reducing to  5 matrices.
 Large coefficients: NSaved=  5 BigCof=   13.02 CofMax=   10.00 Det=-2.80D-09
 Inversion failed.  Reducing to  4 matrices.
 Large coefficients: NSaved=  4 BigCof=   16.83 CofMax=   10.00 Det=-2.54D-08
 Inversion failed.  Reducing to  3 matrices.
 Large coefficients: NSaved=  3 BigCof=   34.15 CofMax=   10.00 Det=-3.28D-08
 Inversion failed.  Reducing to  2 matrices.
 Coeff-Com:  0.794D+01-0.694D+01
 Coeff:      0.794D+01-0.694D+01
 Gap=     0.212 Goal=   None    Shift=    0.500
 Gap=     0.069 Goal=   None    Shift=    0.500
 GapD=    0.069 DampG=0.500 DampE=1.000 DampFc=0.5000 IDamp=-1.
 Damping current iteration by 5.00D-01
 RMSDP=6.14D-05 MaxDP=1.05D-02 DE=-3.27D-04 OVMax= 2.45D-03

 >>>>>>>>>> Convergence criterion not met.
 SCF Done:  E(ULC-wHPBE) =  -1775.91091657     A.U. after   33 cycles
            NFock= 32  Conv=0.61D-04     -V/T= 2.0036
 <Sx>= 0.0000 <Sy>= 0.0000 <Sz>= 0.5000 <S**2>= 0.7560 S= 0.5030
 <L.S>= 0.000000000000E+00
 KE= 1.769622610185D+03 PE=-9.093321543096D+03 EE= 3.073103248982D+03
 Annihilation of the first spin contaminant:
 S**2 before annihilation     0.7559,   after     0.7500
 Leave Link  502 at Mon Jan 18 16:49:56 2021, MaxMem=  4026531840 cpu:           15726.9 elap:            1971.0
 (Enter /opt/ohpc/pub/libs/gaussian/g16-A.03/sandybridge/g16/l508.exe)
 Integral symmetry usage will be decided dynamically.
 Tight linear equation convergence will be used.
 ULC-wHPBE wavefunction.
 Quadratic Convergence SCF Method.
 Line search only if initial step raises energy.
 FoFJK:  IHMeth= 1 ICntrl=       0 DoSepK=T KAlg= 0 I1Cent=           0 FoldK=F
 IRaf=         1 NMat=       1 IRICut=       1 DoRegI=T DoRafI=F ISym2E= 1 IDoP0=0 IntGTp=1.
 FoFCou: FMM=F IPFlag=           0 FMFlag=      100000 FMFlg1=           0
         NFxFlg=           0 DoJE=T BraDBF=F KetDBF=F FulRan=T
         wScrn=  0.000000 ICntrl=       500 IOpCl=  0 I1Cent=           0 NGrid=           0
         NMat0=    1 NMatS0=      1 NMatT0=    0 NMatD0=    1 NMtDS0=    0 NMtDT0=    0
 Petite list used in FoFCou.
 Iteration   1 EE= -1775.91070513305                                    Grad=2.128D-02 Max rot=    0.3449 deg.
 Gradient too large for Newton-Raphson -- use scaled steepest descent instead.
     ILin= 1 X=0.000D+00 Y=-1.775910705133D+03 DE= 0.00D+00 F= -7.81D-04
     ILin= 2 X=3.000D-01 Y=-1.775910912373D+03 DE=-2.07D-04 F= -6.00D-04
     ILin= 3 X=6.000D-01 Y=-1.775911065321D+03 DE=-3.60D-04 F= -4.19D-04
     ILin= 4 X=1.200D+00 Y=-1.775911208761D+03 DE=-5.04D-04 F= -5.89D-05
     Reject lnstep minimum 1.470D+00 FVal=-1.775911227727D+03 Lims=  6.00D-01  1.20D+00
     ILin= 5 X=2.400D+00 Y=-1.775910848705D+03 DE=-1.44D-04 F=  6.58D-04
     An  expanding polynomial of degree  5 produced  1.2982
     Minimum is close to point  4 DX=  9.82D-02 DF= -2.89D-06 DXR=  7.57D-02 DFR=  5.74D-03 which will be used.
 Iteration   2 EE= -1775.91120876123     Delta-E=       -0.000503628187 Grad=1.633D-02 Max rot=    0.5599 deg.
 Gradient too large for Newton-Raphson -- use scaled steepest descent instead.
     ILin= 1 X=0.000D+00 Y=-1.775911208761D+03 DE= 0.00D+00 F= -5.46D-04
     ILin= 2 X=6.000D-01 Y=-1.775911475332D+03 DE=-2.67D-04 F= -3.42D-04
     ILin= 3 X=1.200D+00 Y=-1.775911619009D+03 DE=-4.10D-04 F= -1.36D-04
     ILin= 4 X=2.500D+00 Y=-1.775911502595D+03 DE=-2.94D-04 F=  3.17D-04
     An  expanding polynomial of degree  4 produced  1.5939
 Iteration   3 EE= -1775.91164588187     Delta-E=       -0.000437120638 Grad=2.359D-02 Max rot=    0.3938 deg.
 Gradient too large for Newton-Raphson -- use scaled steepest descent instead.
     ILin= 1 X=0.000D+00 Y=-1.775911645882D+03 DE= 0.00D+00 F= -8.15D-04
     ILin= 2 X=1.400D+00 Y=-1.775912015812D+03 DE=-3.70D-04 F=  2.86D-04
     Accept linear search using points  1 and  2.
     An  expanding polynomial of degree  2 produced  1.1586
 Iteration   4 EE= -1775.91206191165     Delta-E=       -0.000416029779 Grad=1.978D-02 Max rot=    0.5870 deg.
 Gradient too large for Newton-Raphson -- use scaled steepest descent instead.
     ILin= 1 X=0.000D+00 Y=-1.775912061912D+03 DE= 0.00D+00 F= -7.04D-04
     ILin= 2 X=1.400D+00 Y=-1.775912437639D+03 DE=-3.76D-04 F=  1.69D-04
     Accept linear search using points  1 and  2.
     An  expanding polynomial of degree  2 produced  1.2432
 Iteration   5 EE= -1775.91245642366     Delta-E=       -0.000394512009 Grad=2.204D-02 Max rot=    0.4174 deg.
 Gradient too large for Newton-Raphson -- use scaled steepest descent instead.
     ILin= 1 X=0.000D+00 Y=-1.775912456424D+03 DE= 0.00D+00 F= -7.43D-04
     ILin= 2 X=1.200D+00 Y=-1.775912847599D+03 DE=-3.91D-04 F=  9.04D-05
     Accept linear search using points  1 and  2.
     An  expanding polynomial of degree  2 produced  1.1110
     Minimum is close to point  2 DX= -8.90D-02 DF= -3.32D-06 DXR=  8.01D-02 DFR=  8.49D-03 which will be used.
 Iteration   6 EE= -1775.91284759870     Delta-E=       -0.000391175035 Grad=2.058D-02 Max rot=    0.5850 deg.
 Gradient too large for Newton-Raphson -- use scaled steepest descent instead.
     ILin= 1 X=0.000D+00 Y=-1.775912847599D+03 DE= 0.00D+00 F= -7.41D-04
     ILin= 2 X=1.200D+00 Y=-1.775913234003D+03 DE=-3.86D-04 F=  9.82D-05
     Accept linear search using points  1 and  2.
     An  expanding polynomial of degree  2 produced  1.1035
     Minimum is close to point  2 DX= -9.65D-02 DF= -3.91D-06 DXR=  8.74D-02 DFR=  1.01D-02 which will be used.
 Iteration   7 EE= -1775.91323400275     Delta-E=       -0.000386404058 Grad=2.207D-02 Max rot=    0.4179 deg.
 Gradient too large for Newton-Raphson -- use scaled steepest descent instead.
     ILin= 1 X=0.000D+00 Y=-1.775913234003D+03 DE= 0.00D+00 F= -7.43D-04
     ILin= 2 X=1.100D+00 Y=-1.775913622191D+03 DE=-3.88D-04 F=  3.68D-05
     Accept linear search using points  1 and  2.
     An  expanding polynomial of degree  2 produced  1.0591
     Minimum is close to point  2 DX= -4.09D-02 DF= -6.83D-07 DXR=  3.86D-02 DFR=  1.76D-03 which will be used.
 Iteration   8 EE= -1775.91362219096     Delta-E=       -0.000388188209 Grad=1.817D-02 Max rot=    0.5661 deg.
 Gradient too large for Newton-Raphson -- use scaled steepest descent instead.
     ILin= 1 X=0.000D+00 Y=-1.775913622191D+03 DE= 0.00D+00 F= -6.18D-04
     ILin= 2 X=1.100D+00 Y=-1.775913995243D+03 DE=-3.73D-04 F= -5.92D-05
     Reject lnstep minimum 1.182D+00 FVal=-1.775913997461D+03 Lims=  0.00D+00  1.10D+00
     ILin= 3 X=2.200D+00 Y=-1.775913750969D+03 DE=-1.29D-04 F=  5.04D-04
     An  expanding polynomial of degree  3 produced  1.2147
     Minimum is close to point  2 DX=  1.15D-01 DF= -3.36D-06 DXR=  9.45D-02 DFR=  9.00D-03 which will be used.
 Iteration   9 EE= -1775.91399524296     Delta-E=       -0.000373052000 Grad=1.737D-02 Max rot=    0.4356 deg.
 Gradient too large for Newton-Raphson -- use scaled steepest descent instead.
     ILin= 1 X=0.000D+00 Y=-1.775913995243D+03 DE= 0.00D+00 F= -5.28D-04
     ILin= 2 X=1.100D+00 Y=-1.775914355171D+03 DE=-3.60D-04 F= -1.27D-04
     Reject lnstep minimum 1.311D+00 FVal=-1.775914367627D+03 Lims=  0.00D+00  1.10D+00
     ILin= 3 X=2.300D+00 Y=-1.775914245398D+03 DE=-2.50D-04 F=  3.10D-04
     An  expanding polynomial of degree  3 produced  1.4487
 Iteration  10 EE= -1775.91437725452     Delta-E=       -0.000382011554 Grad=2.106D-02 Max rot=    0.5716 deg.
 Gradient too large for Newton-Raphson -- use scaled steepest descent instead.
     ILin= 1 X=0.000D+00 Y=-1.775914377255D+03 DE= 0.00D+00 F= -7.49D-04
     ILin= 2 X=1.300D+00 Y=-1.775914717177D+03 DE=-3.40D-04 F=  2.27D-04
     Accept linear search using points  1 and  2.
     An  expanding polynomial of degree  2 produced  1.0881
 Iteration  11 EE= -1775.91474844820     Delta-E=       -0.000371193677 Grad=1.944D-02 Max rot=    0.4121 deg.
 Gradient too large for Newton-Raphson -- use scaled steepest descent instead.
     ILin= 1 X=0.000D+00 Y=-1.775914748448D+03 DE= 0.00D+00 F= -6.04D-04
     ILin= 2 X=1.300D+00 Y=-1.775915096519D+03 DE=-3.48D-04 F=  6.85D-05
     Accept linear search using points  1 and  2.
     An  expanding polynomial of degree  2 produced  1.2243
     Minimum is close to point  2 DX= -7.57D-02 DF= -1.97D-06 DXR=  6.18D-02 DFR=  5.66D-03 which will be used.
 Iteration  12 EE= -1775.91509651941     Delta-E=       -0.000348071213 Grad=2.072D-02 Max rot=    0.5590 deg.
 Gradient too large for Newton-Raphson -- use scaled steepest descent instead.
     ILin= 1 X=0.000D+00 Y=-1.775915096519D+03 DE= 0.00D+00 F= -7.21D-04
     ILin= 2 X=1.200D+00 Y=-1.775915436681D+03 DE=-3.40D-04 F=  1.55D-04
     Accept linear search using points  1 and  2.
     An  expanding polynomial of degree  2 produced  1.0436
 Iteration  13 EE= -1775.91545194277     Delta-E=       -0.000355423366 Grad=1.790D-02 Max rot=    0.4051 deg.
 Gradient too large for Newton-Raphson -- use scaled steepest descent instead.
     ILin= 1 X=0.000D+00 Y=-1.775915451943D+03 DE= 0.00D+00 F= -5.29D-04
     ILin= 2 X=1.100D+00 Y=-1.775915780533D+03 DE=-3.29D-04 F= -6.85D-05
     Reject lnstep minimum 1.212D+00 FVal=-1.775915784060D+03 Lims=  0.00D+00  1.10D+00
     ILin= 3 X=2.300D+00 Y=-1.775915561558D+03 DE=-1.10D-04 F=  4.33D-04
     An  expanding polynomial of degree  3 produced  1.2639
 Iteration  14 EE= -1775.91578614772     Delta-E=       -0.000334204940 Grad=1.815D-02 Max rot=    0.5333 deg.
 Gradient too large for Newton-Raphson -- use scaled steepest descent instead.
     ILin= 1 X=0.000D+00 Y=-1.775915786148D+03 DE= 0.00D+00 F= -5.87D-04
     ILin= 2 X=1.100D+00 Y=-1.775916109583D+03 DE=-3.23D-04 F= -1.24D-06
     Reject lnstep minimum 1.102D+00 FVal=-1.775916109584D+03 Lims=  0.00D+00  1.10D+00
     ILin= 3 X=2.300D+00 Y=-1.775915727234D+03 DE= 5.89D-05 F=  6.39D-04
     An  expanding polynomial of degree  3 produced  1.1019
     Minimum is close to point  2 DX=  1.92D-03 DF= -9.81D-10 DXR=  1.74D-03 DFR=  3.03D-06 which will be used.
 Iteration  15 EE= -1775.91610958272     Delta-E=       -0.000323435004 Grad=1.724D-02 Max rot=    0.3914 deg.
 Gradient too large for Newton-Raphson -- use scaled steepest descent instead.
     ILin= 1 X=0.000D+00 Y=-1.775916109583D+03 DE= 0.00D+00 F= -4.92D-04
     ILin= 2 X=1.200D+00 Y=-1.775916421122D+03 DE=-3.12D-04 F= -2.76D-05
     Reject lnstep minimum 1.240D+00 FVal=-1.775916421585D+03 Lims=  0.00D+00  1.20D+00
     ILin= 3 X=2.400D+00 Y=-1.775916175731D+03 DE=-6.61D-05 F=  4.37D-04
     An  expanding polynomial of degree  3 produced  1.2713
     Minimum is close to point  2 DX=  7.13D-02 DF= -9.82D-07 DXR=  5.61D-02 DFR=  3.15D-03 which will be used.
[...]
     5   Atom        0.025404     -0.012101     -0.013303
     6   Atom       -0.068127      0.031379      0.036747
     7   Atom        0.000618     -0.001725      0.001106
     8   Atom        0.002211     -0.001159     -0.001052
     9   Atom        0.000928     -0.000603     -0.000325
    10   Atom       -0.043832      0.060919     -0.017087
    11   Atom        0.018713     -0.008552     -0.010161
    12   Atom       -0.053674      0.063608     -0.009934
    13   Atom        0.008423     -0.021348      0.012925
    14   Atom       -0.002511      0.001943      0.000568
    15   Atom        0.001397     -0.001424      0.000027
    16   Atom       -0.003144      0.000998      0.002146
    17   Atom       -0.005990      0.003840      0.002150
    18   Atom        0.001294     -0.000574     -0.000720
    19   Atom        0.001394     -0.001090     -0.000304
    20   Atom        0.000353     -0.000052     -0.000301
    21   Atom        0.000419     -0.000253     -0.000166
    22   Atom       -0.000071     -0.000171      0.000242
    23   Atom       -0.022432     -0.015196      0.037628
    24   Atom       -0.428694     -0.432868      0.861562
    25   Atom       -0.011324     -0.002280      0.013605
    26   Atom        0.058130     -0.035287     -0.022843
    27   Atom        0.020303     -0.001059     -0.019245
    28   Atom       -0.001937      0.011668     -0.009731
    29   Atom       -0.007698      0.015198     -0.007500
    30   Atom        0.015300     -0.045283      0.029983
    31   Atom       -0.001193      0.001166      0.000027
    32   Atom       -0.000885     -0.000492      0.001377
    33   Atom       -0.000579      0.000943     -0.000364
    34   Atom       -0.000411      0.000674     -0.000263
    35   Atom        0.000827      0.002568     -0.003396
    36   Atom       -0.014617      0.004417      0.010200
    37   Atom        0.030511     -0.047003      0.016492
    38   Atom        0.005324     -0.024711      0.019388
    39   Atom        0.007541      0.015815     -0.023357
    40   Atom        0.004769      0.018189     -0.022958
    41   Atom       -0.028542     -0.052932      0.081475
    42   Atom        0.002207      0.000016     -0.002223
    43   Atom        0.003055     -0.001509     -0.001545
    44   Atom       -0.000100      0.001339     -0.001239
    45   Atom        0.000079      0.001177     -0.001255
    46   Atom       -0.003321      0.005576     -0.002256
 --------------------------------------------------------
                        XY            XZ            YZ
 --------------------------------------------------------
     1   Atom       -0.003291      0.005029     -0.001253
     2   Atom       -0.019647     -0.001861      0.005949
     3   Atom        0.047423     -0.019111     -0.090918
     4   Atom        0.002375     -0.002852     -0.010350
     5   Atom        0.007355      0.005658     -0.030902
     6   Atom       -0.029649     -0.030301      0.117801
     7   Atom       -0.000394     -0.000170      0.000793
     8   Atom        0.000026     -0.001451      0.004012
     9   Atom       -0.000218     -0.000131     -0.000092
    10   Atom       -0.052897     -0.029070      0.075240
    11   Atom        0.012397      0.014729     -0.027260
    12   Atom       -0.008266     -0.008198      0.072121
    13   Atom        0.003777      0.000113      0.000899
    14   Atom        0.002052     -0.003055     -0.005892
    15   Atom       -0.000125      0.001185     -0.002113
    16   Atom       -0.000638      0.002143     -0.005364
    17   Atom       -0.000732     -0.000222     -0.009030
    18   Atom       -0.000773     -0.001676      0.002071
    19   Atom        0.001448      0.000023     -0.001960
    20   Atom       -0.000093     -0.000385      0.000491
    21   Atom       -0.000128     -0.000246      0.000321
    22   Atom       -0.000642     -0.000852      0.000341
    23   Atom       -0.004780      0.007847     -0.027740
    24   Atom       -0.049125     -0.262117      0.250578
    25   Atom       -0.015036     -0.000411      0.002188
    26   Atom        0.037885     -0.045515     -0.019242
    27   Atom        0.054431     -0.046864     -0.033995
    28   Atom       -0.011355      0.021486      0.009762
    29   Atom       -0.009190      0.023422      0.006092
    30   Atom        0.025689     -0.079880     -0.032461
    31   Atom        0.001717      0.002909      0.004228
    32   Atom        0.001734      0.004174      0.002704
    33   Atom       -0.001092      0.001261      0.000503
    34   Atom       -0.001174      0.001444      0.000290
    35   Atom       -0.006040     -0.000734     -0.004454
    36   Atom        0.009593     -0.010271      0.004133
    37   Atom       -0.009787      0.066911     -0.012365
    38   Atom       -0.034826      0.061905     -0.035107
    39   Atom        0.005474     -0.016935      0.007322
    40   Atom        0.003125     -0.020076      0.002428
    41   Atom       -0.005654      0.064910     -0.017638
    42   Atom       -0.002947     -0.003203      0.002601
    43   Atom       -0.001863     -0.004174      0.001023
    44   Atom        0.000529     -0.001249      0.000444
    45   Atom        0.000823     -0.001312      0.000246
    46   Atom        0.005856      0.002079     -0.002015
 --------------------------------------------------------


 ---------------------------------------------------------------------------------
              Anisotropic Spin Dipole Couplings in Principal Axis System
 ---------------------------------------------------------------------------------

       Atom             a.u.   MegaHertz   Gauss  10(-4) cm-1        Axes

              Baa    -0.0052    -0.695    -0.248    -0.232  0.5419  0.7958 -0.2703
     1 C(13)  Bbb    -0.0025    -0.340    -0.121    -0.113 -0.4156  0.5333  0.7368
              Bcc     0.0077     1.036     0.370     0.345  0.7305 -0.2869  0.6197
 
              Baa    -0.0193    -2.595    -0.926    -0.866 -0.1348 -0.2190  0.9664
     2 C(13)  Bbb    -0.0125    -1.679    -0.599    -0.560  0.8451  0.4837  0.2275
              Bcc     0.0318     4.274     1.525     1.426 -0.5173  0.8474  0.1198
 
              Baa    -0.1114    -4.566    -1.629    -1.523  0.9801 -0.1160  0.1610
     3 S(33)  Bbb    -0.0926    -3.796    -1.354    -1.266 -0.1112  0.3512  0.9297
              Bcc     0.2039     8.361     2.984     2.789  0.1644  0.9291 -0.3313
 
              Baa    -0.0076    -1.023    -0.365    -0.341  0.1331  0.7123  0.6891
     4 C(13)  Bbb    -0.0062    -0.839    -0.299    -0.280  0.9733 -0.2253  0.0449
              Bcc     0.0139     1.862     0.664     0.621 -0.1873 -0.6647  0.7232
 
              Baa    -0.0448    -6.013    -2.146    -2.006 -0.1298  0.6962  0.7060
     5 C(13)  Bbb     0.0180     2.418     0.863     0.806  0.1457 -0.6910  0.7081
              Bcc     0.0268     3.596     1.283     1.199  0.9808  0.1948 -0.0117
 
              Baa    -0.0838   -11.241    -4.011    -3.750  0.0027  0.7155 -0.6987
     6 C(13)  Bbb    -0.0760   -10.200    -3.640    -3.402  0.9831  0.1259  0.1327
              Bcc     0.1598    21.441     7.651     7.152 -0.1829  0.6872  0.7030
 
              Baa    -0.0020    -0.265    -0.095    -0.088  0.1305  0.9619 -0.2402
     7 C(13)  Bbb     0.0006     0.077     0.027     0.026  0.9347 -0.0386  0.3533
              Bcc     0.0014     0.189     0.067     0.063 -0.3306  0.2706  0.9041
 
              Baa    -0.0053    -0.706    -0.252    -0.236  0.1398 -0.6925  0.7077
     8 C(13)  Bbb     0.0016     0.213     0.076     0.071  0.7862  0.5121  0.3458
              Bcc     0.0037     0.493     0.176     0.164 -0.6019  0.5081  0.6161
 
              Baa    -0.0007    -0.357    -0.127    -0.119  0.1536  0.9384  0.3094
     9 H(1)   Bbb    -0.0003    -0.160    -0.057    -0.053  0.0444 -0.3194  0.9466
              Bcc     0.0010     0.517     0.184     0.172  0.9871 -0.1316 -0.0908
 
              Baa    -0.0666    -8.943    -3.191    -2.983  0.7902  0.5194 -0.3251
    10 C(13)  Bbb    -0.0612    -8.213    -2.931    -2.740  0.5154 -0.2765  0.8111
              Bcc     0.1278    17.156     6.122     5.723 -0.3314  0.8085  0.4862
 
              Baa    -0.0426    -5.722    -2.042    -1.909 -0.2988  0.6599  0.6894
    11 C(13)  Bbb     0.0177     2.372     0.846     0.791  0.1717  0.7478 -0.6414
              Bcc     0.0250     3.350     1.195     1.117  0.9387  0.0733  0.3367
 
              Baa    -0.0570    -7.644    -2.728    -2.550  0.7281 -0.3144  0.6091
    12 C(13)  Bbb    -0.0516    -6.927    -2.472    -2.311  0.6820  0.4226 -0.5970
              Bcc     0.1086    14.571     5.199     4.860 -0.0697  0.8500  0.5221
 
              Baa    -0.0218    -2.931    -1.046    -0.978 -0.1237  0.9920 -0.0252
    13 C(13)  Bbb     0.0089     1.192     0.425     0.398  0.9910  0.1222 -0.0549
              Bcc     0.0130     1.739     0.621     0.580  0.0514  0.0318  0.9982
 
              Baa    -0.0052    -2.768    -0.988    -0.923  0.4814  0.4718  0.7386
    14 H(1)   Bbb    -0.0032    -1.695    -0.605    -0.565  0.8187 -0.5431 -0.1867
              Bcc     0.0084     4.462     1.592     1.488  0.3130  0.6946 -0.6477
 
              Baa    -0.0030    -1.609    -0.574    -0.537 -0.1391  0.7871  0.6009
    15 H(1)   Bbb     0.0005     0.256     0.091     0.085  0.7081  0.5033 -0.4953
              Bcc     0.0025     1.353     0.483     0.451  0.6923 -0.3566  0.6274
 
              Baa    -0.0046    -2.471    -0.882    -0.824  0.6408 -0.4904 -0.5907
    16 H(1)   Bbb    -0.0027    -1.455    -0.519    -0.485  0.7438  0.5872  0.3194
              Bcc     0.0074     3.926     1.401     1.310  0.1903 -0.6440  0.7410
 
              Baa    -0.0067    -0.898    -0.321    -0.300  0.6862  0.5003  0.5280
    17 C(13)  Bbb    -0.0054    -0.722    -0.258    -0.241  0.7271 -0.4501 -0.5185
              Bcc     0.0121     1.620     0.578     0.540 -0.0217  0.7397 -0.6726
 
              Baa    -0.0028    -1.520    -0.542    -0.507  0.1899 -0.6248  0.7573
    18 H(1)   Bbb    -0.0003    -0.144    -0.051    -0.048  0.6891  0.6342  0.3505
              Bcc     0.0031     1.664     0.594     0.555  0.6993 -0.4553 -0.5510
 
              Baa    -0.0030    -1.602    -0.572    -0.534 -0.2600  0.7801  0.5690
    19 H(1)   Bbb     0.0006     0.326     0.116     0.109  0.5962 -0.3338  0.7301
              Bcc     0.0024     1.276     0.455     0.426  0.7595  0.5291 -0.3783
 
              Baa    -0.0007    -0.397    -0.142    -0.132  0.2377 -0.5411  0.8067
    20 H(1)   Bbb     0.0001     0.036     0.013     0.012  0.6323  0.7166  0.2944
              Bcc     0.0007     0.361     0.129     0.120  0.7374 -0.4401 -0.5124
 
              Baa    -0.0005    -0.287    -0.102    -0.096 -0.0770  0.7292 -0.6800
    21 H(1)   Bbb    -0.0000    -0.022    -0.008    -0.007  0.4977  0.6191  0.6075
              Bcc     0.0006     0.309     0.110     0.103  0.8639 -0.2917 -0.4106
 
              Baa    -0.0009    -0.495    -0.177    -0.165  0.7749  0.4636  0.4298
    22 H(1)   Bbb    -0.0003    -0.184    -0.066    -0.061 -0.1186  0.7744 -0.6215
              Bcc     0.0013     0.679     0.242     0.227 -0.6209  0.4306  0.6551
 
              Baa    -0.0275    -1.128    -0.402    -0.376  0.3089  0.8879  0.3409
    23 S(33)  Bbb    -0.0231    -0.949    -0.339    -0.316  0.9430 -0.2394 -0.2310
              Bcc     0.0507     2.077     0.741     0.693  0.1235 -0.3929  0.9113
 
              Baa    -0.4800   -18.512    -6.606    -6.175  0.8851  0.4570  0.0876
    24 N(14)  Bbb    -0.4796   -18.498    -6.600    -6.170 -0.4254  0.8710 -0.2459
              Bcc     0.9596    37.010    13.206    12.345 -0.1886  0.1804  0.9653
 
              Baa    -0.0225    -3.023    -1.079    -1.008  0.8012  0.5978 -0.0271
    25 C(13)  Bbb     0.0082     1.096     0.391     0.366 -0.5691  0.7471 -0.3436
              Bcc     0.0144     1.927     0.688     0.643 -0.1852  0.2907  0.9387
 
              Baa    -0.0499    -6.700    -2.391    -2.235 -0.1603  0.9117  0.3782
    26 C(13)  Bbb    -0.0427    -5.732    -2.045    -1.912  0.4774 -0.2638  0.8382
              Bcc     0.0926    12.432     4.436     4.147  0.8639  0.3149 -0.3930
 
              Baa    -0.0507    -6.800    -2.426    -2.268  0.6364 -0.1852  0.7488
    27 C(13)  Bbb    -0.0438    -5.879    -2.098    -1.961 -0.3335  0.8092  0.4836
              Bcc     0.0945    12.678     4.524     4.229  0.6955  0.5575 -0.4533
 
              Baa    -0.0326    -4.376    -1.562    -1.460 -0.6201 -0.3172  0.7176
    28 C(13)  Bbb     0.0140     1.873     0.668     0.625  0.4334  0.6239  0.6503
              Bcc     0.0187     2.504     0.893     0.835 -0.6540  0.7142 -0.2494
 
              Baa    -0.0334    -4.486    -1.601    -1.496  0.6984  0.2174 -0.6819
    29 C(13)  Bbb     0.0144     1.935     0.690     0.645  0.4967  0.5387  0.6805
              Bcc     0.0190     2.551     0.910     0.851 -0.5153  0.8139 -0.2683
 
              Baa    -0.0597    -8.013    -2.859    -2.673  0.4879  0.5863  0.6467
    30 C(13)  Bbb    -0.0539    -7.231    -2.580    -2.412 -0.5836  0.7700 -0.2578
              Bcc     0.1136    15.243     5.439     5.085 -0.6491 -0.2516  0.7179
 
              Baa    -0.0043    -2.269    -0.810    -0.757 -0.4746 -0.4431  0.7605
    31 H(1)   Bbb    -0.0020    -1.073    -0.383    -0.358  0.7841 -0.6054  0.1366
              Bcc     0.0063     3.342     1.192     1.115  0.3999  0.6612  0.6348
 
              Baa    -0.0041    -2.191    -0.782    -0.731  0.7646  0.1083 -0.6353
    32 H(1)   Bbb    -0.0020    -1.075    -0.383    -0.358 -0.3551  0.8934 -0.2752
              Bcc     0.0061     3.266     1.165     1.089  0.5378  0.4360  0.7216
 
              Baa    -0.0022    -1.155    -0.412    -0.385  0.7186  0.3497 -0.6011
    33 H(1)   Bbb     0.0006     0.340     0.121     0.113  0.4736  0.3868  0.7912
              Bcc     0.0015     0.816     0.291     0.272 -0.5092  0.8533 -0.1123
 
              Baa    -0.0022    -1.166    -0.416    -0.389  0.7204  0.3561 -0.5952
    34 H(1)   Bbb     0.0005     0.284     0.101     0.095  0.2543  0.6627  0.7044
              Bcc     0.0017     0.882     0.315     0.294 -0.6453  0.6588 -0.3868
 
              Baa    -0.0076    -4.081    -1.456    -1.361  0.4649  0.5701  0.6773
    35 H(1)   Bbb    -0.0009    -0.484    -0.173    -0.161 -0.6682 -0.2759  0.6909
              Bcc     0.0086     4.565     1.629     1.523 -0.5808  0.7738 -0.2527
 
              Baa    -0.0224    -3.002    -1.071    -1.002  0.8746 -0.3628  0.3218
    36 C(13)  Bbb     0.0084     1.129     0.403     0.376  0.3764  0.9262  0.0212
              Bcc     0.0140     1.874     0.669     0.625 -0.3057  0.1026  0.9466
 
              Baa    -0.0499    -6.691    -2.388    -2.232 -0.1897  0.9129  0.3614
    37 C(13)  Bbb    -0.0426    -5.723    -2.042    -1.909 -0.6487 -0.3928  0.6518
              Bcc     0.0925    12.414     4.430     4.141  0.7370 -0.1108  0.6667
 
              Baa    -0.0509    -6.835    -2.439    -2.280  0.7826  0.3529 -0.5128
    38 C(13)  Bbb    -0.0441    -5.917    -2.111    -1.974 -0.0462  0.8544  0.5175
              Bcc     0.0950    12.752     4.550     4.254  0.6208 -0.3814  0.6850
 
              Baa    -0.0325    -4.358    -1.555    -1.454  0.4042 -0.1817  0.8964
    39 C(13)  Bbb     0.0139     1.863     0.665     0.621  0.7581 -0.4817 -0.4395
              Bcc     0.0186     2.495     0.890     0.832  0.5117  0.8573 -0.0570
 
              Baa    -0.0337    -4.528    -1.616    -1.510  0.4656 -0.0693  0.8823
    40 C(13)  Bbb     0.0146     1.960     0.699     0.654  0.8008 -0.3914 -0.4533
              Bcc     0.0191     2.568     0.916     0.857  0.3767  0.9176 -0.1267
 
              Baa    -0.0597    -8.012    -2.859    -2.672  0.7990 -0.4294 -0.4210
    41 C(13)  Bbb    -0.0539    -7.229    -2.580    -2.411  0.4337  0.8964 -0.0912
              Bcc     0.1136    15.241     5.438     5.084  0.4165 -0.1097  0.9025
 
              Baa    -0.0043    -2.270    -0.810    -0.757  0.2841 -0.3481  0.8934
    42 H(1)   Bbb    -0.0020    -1.067    -0.381    -0.356  0.6226  0.7756  0.1042
              Bcc     0.0063     3.337     1.191     1.113  0.7292 -0.5266 -0.4371
 
              Baa    -0.0040    -2.141    -0.764    -0.714  0.5146  0.0327  0.8568
    43 H(1)   Bbb    -0.0021    -1.120    -0.400    -0.374  0.2141  0.9627 -0.1653
              Bcc     0.0061     3.261     1.164     1.088  0.8303 -0.2685 -0.4884
 
              Baa    -0.0022    -1.156    -0.413    -0.386  0.5426 -0.1855  0.8193
    44 H(1)   Bbb     0.0007     0.349     0.125     0.116  0.7852 -0.2345 -0.5731
              Bcc     0.0015     0.807     0.288     0.269  0.2984  0.9543  0.0185
 
              Baa    -0.0022    -1.166    -0.416    -0.389  0.5434 -0.1928  0.8170
    45 H(1)   Bbb     0.0005     0.264     0.094     0.088  0.6252 -0.5566 -0.5471
              Bcc     0.0017     0.903     0.322     0.301  0.5602  0.8081 -0.1819
 
              Baa    -0.0076    -4.081    -1.456    -1.361  0.7847 -0.4173 -0.4584
    46 H(1)   Bbb    -0.0009    -0.484    -0.173    -0.162  0.4479 -0.1295  0.8847
              Bcc     0.0086     4.566     1.629     1.523  0.4285  0.8995 -0.0852
 

 ---------------------------------------------------------------------------------

 No NMR shielding tensors so no spin-rotation constants.
 Leave Link  601 at Mon Jan 18 18:18:32 2021, MaxMem=  4026531840 cpu:               7.3 elap:               1.1
 (Enter /opt/ohpc/pub/libs/gaussian/g16-A.03/sandybridge/g16/l9999.exe)

 Test job not archived.
 1\1\GINC-CASCADEB058\SP\ULC-wHPBE\TZVP\C24H19N1S2(1+,2)\RDU230\18-Jan-
 2021\0\\#P LC-wHPBE/TZVP iop(3/107=0156200000, 3/108=0156200000) scf=(
 conver=6,fermi,ndamp=35,noincfock,novaracc,vshift=500,xqc)\\H19 C24 S2
  N1\\1,2\C,0,-3.352046,1.022081,0.90149\C,0,-4.015603,0.124147,0.07783
 3\S,0,-3.193622,-0.833868,-1.176213\C,0,-5.398593,-0.028228,0.207342\C
 ,0,-0.749106,0.373785,-1.531691\C,0,-1.475477,-0.56699,-0.815552\C,0,-
 4.041516,1.761821,1.844012\C,0,-6.080951,0.720801,1.156415\H,0,-7.4759
 44,-0.835079,-0.458792\C,0,0.601771,0.54717,-1.299188\C,0,-0.823428,-1
 .336346,0.139234\C,0,0.521569,-1.15492,0.389409\C,0,1.255724,-0.212476
 ,-0.331046\H,0,1.160253,1.275483,-1.876291\H,0,-1.383265,-2.076857,0.7
 00814\H,0,1.015474,-1.752114,1.147605\C,0,-5.411167,1.613701,1.970885\
 H,0,-2.279577,1.141824,0.800598\H,0,-1.248138,0.967582,-2.290346\H,0,-
 3.503227,2.458074,2.478369\H,0,-7.154267,0.598627,1.263844\H,0,-5.9624
 34,2.189124,2.706912\S,0,-6.238224,-1.192989,-0.835805\N,0,2.627173,-0
 .037586,-0.087724\C,0,3.438312,-1.140752,0.276409\C,0,4.374889,-1.0129
 28,1.295896\C,0,3.317625,-2.35655,-0.387733\C,0,5.1794,-2.084309,1.640
 01\C,0,4.112866,-3.428755,-0.025756\C,0,5.049979,-3.298472,0.986151\H,
 0,4.470709,-0.064848,1.814448\H,0,2.593785,-2.456724,-1.189607\H,0,5.9
 0745,-1.970366,2.436839\H,0,4.006805,-4.37257,-0.551042\H,0,5.67733,-4
 .139106,1.26285\C,0,3.224517,1.239724,-0.221989\C,0,4.446224,1.376745,
 -0.87125\C,0,2.604731,2.367846,0.304633\C,0,5.03746,2.622109,-0.986244
 \C,0,3.193018,3.612223,0.169883\C,0,4.413292,3.746533,-0.472133\H,0,4.
 931907,0.498005,-1.282066\H,0,1.656156,2.262505,0.820378\H,0,5.992055,
 2.71427,-1.494403\H,0,2.697309,4.484427,0.584059\H,0,4.876004,4.72281,
 -0.569917\\Version=EM64L-G16RevA.03\State=2-A\HF=-1775.9222331\S2=0.76
 4072\S2-1=0.\S2A=0.750175\RMSD=6.871e-08\Dipole=3.6897995,0.4546127,0.
 5120524\Quadrupole=38.1923424,-8.1625758,-30.0297666,-3.9842356,-3.819
 174,-0.9058712\PG=C01 [X(C24H19N1S2)]\\@


 I DO NOT DEFINE TIME, SPACE, PLACE, AND MOTION, AS BEING WELL KNOWN TO ALL.
                                            -- NEWTON (1642-1726), PRINCIPIA
 Job cpu time:       0 days 16 hours  9 minutes 49.9 seconds.
 Elapsed time:       0 days  2 hours  1 minutes 36.7 seconds.
 File lengths (MBytes):  RWF=    244 Int=      0 D2E=      0 Chk=     36 Scr=      8
 Normal termination of Gaussian 16 at Mon Jan 18 18:18:32 2021.
