 Entering Gaussian System, Link 0=g16
 Input=mol_ta_pa_half_tune_n0.gjf
 Output=mol_ta_pa_half_tune_n0.log
 Initial command:
 /opt/ohpc/pub/libs/gaussian/g16-A.03/sandybridge/g16/l1.exe "/mnt/gpfs2_4m/scratch/rdu230/ondemand/projects/init_structures/wtuning/mol_ta_pa_half/tuning_mol_ta_pa_half_ocycle0/Gau-199958.inp" -scrdir="/mnt/gpfs2_4m/scratch/rdu230/ondemand/projects/init_structures/wtuning/mol_ta_pa_half/tuning_mol_ta_pa_half_ocycle0/"
 Entering Link 1 = /opt/ohpc/pub/libs/gaussian/g16-A.03/sandybridge/g16/l1.exe PID=    199960.
  
 Copyright (c) 1988,1990,1992,1993,1995,1998,2003,2009,2016,
            Gaussian, Inc.  All Rights Reserved.
  
 This is part of the Gaussian(R) 16 program.  It is based on
 the Gaussian(R) 09 system (copyright 2009, Gaussian, Inc.),
 the Gaussian(R) 03 system (copyright 2003, Gaussian, Inc.),
 the Gaussian(R) 98 system (copyright 1998, Gaussian, Inc.),
 the Gaussian(R) 94 system (copyright 1995, Gaussian, Inc.),
 the Gaussian 92(TM) system (copyright 1992, Gaussian, Inc.),
 the Gaussian 90(TM) system (copyright 1990, Gaussian, Inc.),
 the Gaussian 88(TM) system (copyright 1988, Gaussian, Inc.),
 the Gaussian 86(TM) system (copyright 1986, Carnegie Mellon
 University), and the Gaussian 82(TM) system (copyright 1983,
 Carnegie Mellon University). Gaussian is a federally registered
 trademark of Gaussian, Inc.
  
 This software contains proprietary and confidential information,
 including trade secrets, belonging to Gaussian, Inc.
  
 This software is provided under written license and may be
 used, copied, transmitted, or stored only in accord with that
 written license.
  
 The following legend is applicable only to US Government
 contracts under FAR:
  
                    RESTRICTED RIGHTS LEGEND
  
 Use, reproduction and disclosure by the US Government is
 subject to restrictions as set forth in subparagraphs (a)
 and (c) of the Commercial Computer Software - Restricted
 Rights clause in FAR 52.227-19.
  
 Gaussian, Inc.
 340 Quinnipiac St., Bldg. 40, Wallingford CT 06492
  
  
 ---------------------------------------------------------------
 Warning -- This program may not be used in any manner that
 competes with the business of Gaussian, Inc. or will provide
 assistance to any competitor of Gaussian, Inc.  The licensee
 of this program is prohibited from giving any competitor of
 Gaussian, Inc. access to this program.  By using this program,
 the user acknowledges that Gaussian, Inc. is engaged in the
 business of creating and licensing software in the field of
 computational chemistry and represents and warrants to the
 licensee that it is not a competitor of Gaussian, Inc. and that
 it will not use this program in any manner prohibited above.
 ---------------------------------------------------------------
  

 Cite this work as:
 Gaussian 16, Revision A.03,
 M. J. Frisch, G. W. Trucks, H. B. Schlegel, G. E. Scuseria, 
 M. A. Robb, J. R. Cheeseman, G. Scalmani, V. Barone, 
 G. A. Petersson, H. Nakatsuji, X. Li, M. Caricato, A. V. Marenich, 
 J. Bloino, B. G. Janesko, R. Gomperts, B. Mennucci, H. P. Hratchian, 
 J. V. Ortiz, A. F. Izmaylov, J. L. Sonnenberg, D. Williams-Young, 
 F. Ding, F. Lipparini, F. Egidi, J. Goings, B. Peng, A. Petrone, 
 T. Henderson, D. Ranasinghe, V. G. Zakrzewski, J. Gao, N. Rega, 
 G. Zheng, W. Liang, M. Hada, M. Ehara, K. Toyota, R. Fukuda, 
 J. Hasegawa, M. Ishida, T. Nakajima, Y. Honda, O. Kitao, H. Nakai, 
 T. Vreven, K. Throssell, J. A. Montgomery, Jr., J. E. Peralta, 
 F. Ogliaro, M. J. Bearpark, J. J. Heyd, E. N. Brothers, K. N. Kudin, 
 V. N. Staroverov, T. A. Keith, R. Kobayashi, J. Normand, 
 K. Raghavachari, A. P. Rendell, J. C. Burant, S. S. Iyengar, 
 J. Tomasi, M. Cossi, J. M. Millam, M. Klene, C. Adamo, R. Cammi, 
 J. W. Ochterski, R. L. Martin, K. Morokuma, O. Farkas, 
 J. B. Foresman, and D. J. Fox, Gaussian, Inc., Wallingford CT, 2016.
 
 ******************************************
 Gaussian 16:  EM64L-G16RevA.03 25-Dec-2016
                18-Jan-2021 
 ******************************************
 %mem=30GB
 %nproc=8
 Will use up to    8 processors via shared memory.
 ----------------------------------------------------------------------
 #P LC-wHPBE/TZVP iop(3/107=0221900000, 3/108=0221900000) scf=(conver=6
 ,fermi,ndamp=35,noincfock,novaracc,vshift=500,xqc)
 ----------------------------------------------------------------------
 1/38=1,172=1/1;
 2/12=2,17=6,18=5,40=1/2;
 3/5=19,7=101,11=2,25=1,30=1,74=-71,107=221900000,108=221900000/1,2,3;
 4//1;
 5/5=100002,6=6,8=3,10=500,13=1,18=-1,22=13,38=1,93=35/2,8;
 6/7=2,8=2,9=2,10=2,28=1/1;
 99/5=1,9=1/99;
 Leave Link    1 at Mon Jan 18 12:30:57 2021, MaxMem=  4026531840 cpu:               0.8 elap:               0.1
 (Enter /opt/ohpc/pub/libs/gaussian/g16-A.03/sandybridge/g16/l101.exe)
 -------------
 H19 C24 S2 N1
 -------------
 Symbolic Z-matrix:
 Charge =  0 Multiplicity = 1
 C                    -3.35205   1.02208   0.90149 
 C                    -4.0156    0.12415   0.07783 
 S                    -3.19362  -0.83387  -1.17621 
 C                    -5.39859  -0.02823   0.20734 
 C                    -0.74911   0.37379  -1.53169 
 C                    -1.47548  -0.56699  -0.81555 
 C                    -4.04152   1.76182   1.84401 
 C                    -6.08095   0.7208    1.15641 
 H                    -7.47594  -0.83508  -0.45879 
 C                     0.60177   0.54717  -1.29919 
 C                    -0.82343  -1.33635   0.13923 
 C                     0.52157  -1.15492   0.38941 
 C                     1.25572  -0.21248  -0.33105 
 H                     1.16025   1.27548  -1.87629 
 H                    -1.38327  -2.07686   0.70081 
 H                     1.01547  -1.75211   1.1476 
 C                    -5.41117   1.6137    1.97089 
 H                    -2.27958   1.14182   0.8006 
 H                    -1.24814   0.96758  -2.29035 
 H                    -3.50323   2.45807   2.47837 
 H                    -7.15427   0.59863   1.26384 
 H                    -5.96243   2.18912   2.70691 
 S                    -6.23822  -1.19299  -0.83581 
 N                     2.62717  -0.03759  -0.08772 
 C                     3.43831  -1.14075   0.27641 
 C                     4.37489  -1.01293   1.2959 
 C                     3.31763  -2.35655  -0.38773 
 C                     5.1794   -2.08431   1.64001 
 C                     4.11287  -3.42876  -0.02576 
 C                     5.04998  -3.29847   0.98615 
 H                     4.47071  -0.06485   1.81445 
 H                     2.59379  -2.45672  -1.18961 
 H                     5.90745  -1.97037   2.43684 
 H                     4.0068   -4.37257  -0.55104 
 H                     5.67733  -4.13911   1.26285 
 C                     3.22452   1.23972  -0.22199 
 C                     4.44622   1.37675  -0.87125 
 C                     2.60473   2.36785   0.30463 
 C                     5.03746   2.62211  -0.98624 
 C                     3.19302   3.61222   0.16988 
 C                     4.41329   3.74653  -0.47213 
 H                     4.93191   0.49801  -1.28207 
 H                     1.65616   2.2625    0.82038 
 H                     5.99206   2.71427  -1.4944 
 H                     2.69731   4.48443   0.58406 
 H                     4.876     4.72281  -0.56992 
 
 ITRead=  0  0  0  0  0  0  0  0  0  0  0  0  0  0  0  0  0  0  0  0
 ITRead=  0  0  0  0  0  0  0  0  0  0  0  0  0  0  0  0  0  0  0  0
 ITRead=  0  0  0  0  0  0
 MicOpt= -1 -1 -1 -1 -1 -1 -1 -1 -1 -1 -1 -1 -1 -1 -1 -1 -1 -1 -1 -1
 MicOpt= -1 -1 -1 -1 -1 -1 -1 -1 -1 -1 -1 -1 -1 -1 -1 -1 -1 -1 -1 -1
 MicOpt= -1 -1 -1 -1 -1 -1
 NAtoms=     46 NQM=       46 NQMF=       0 NMMI=      0 NMMIF=      0
                NMic=       0 NMicF=      0.
                    Isotopes and Nuclear Properties:
 (Nuclear quadrupole moments (NQMom) in fm**2, nuclear magnetic moments (NMagM)
  in nuclear magnetons)

  Atom         1           2           3           4           5           6           7           8           9          10
 IAtWgt=          12          12          32          12          12          12          12          12           1          12
 AtmWgt=  12.0000000  12.0000000  31.9720718  12.0000000  12.0000000  12.0000000  12.0000000  12.0000000   1.0078250  12.0000000
 NucSpn=           0           0           0           0           0           0           0           0           1           0
 AtZEff=  -0.0000000  -0.0000000  -0.0000000  -0.0000000  -0.0000000  -0.0000000  -0.0000000  -0.0000000  -0.0000000  -0.0000000
 NQMom=    0.0000000   0.0000000   0.0000000   0.0000000   0.0000000   0.0000000   0.0000000   0.0000000   0.0000000   0.0000000
 NMagM=    0.0000000   0.0000000   0.0000000   0.0000000   0.0000000   0.0000000   0.0000000   0.0000000   2.7928460   0.0000000
 AtZNuc=   6.0000000   6.0000000  16.0000000   6.0000000   6.0000000   6.0000000   6.0000000   6.0000000   1.0000000   6.0000000

  Atom        11          12          13          14          15          16          17          18          19          20
 IAtWgt=          12          12          12           1           1           1          12           1           1           1
 AtmWgt=  12.0000000  12.0000000  12.0000000   1.0078250   1.0078250   1.0078250  12.0000000   1.0078250   1.0078250   1.0078250
 NucSpn=           0           0           0           1           1           1           0           1           1           1
 AtZEff=  -0.0000000  -0.0000000  -0.0000000  -0.0000000  -0.0000000  -0.0000000  -0.0000000  -0.0000000  -0.0000000  -0.0000000
 NQMom=    0.0000000   0.0000000   0.0000000   0.0000000   0.0000000   0.0000000   0.0000000   0.0000000   0.0000000   0.0000000
 NMagM=    0.0000000   0.0000000   0.0000000   2.7928460   2.7928460   2.7928460   0.0000000   2.7928460   2.7928460   2.7928460
 AtZNuc=   6.0000000   6.0000000   6.0000000   1.0000000   1.0000000   1.0000000   6.0000000   1.0000000   1.0000000   1.0000000

  Atom        21          22          23          24          25          26          27          28          29          30
 IAtWgt=           1           1          32          14          12          12          12          12          12          12
 AtmWgt=   1.0078250   1.0078250  31.9720718  14.0030740  12.0000000  12.0000000  12.0000000  12.0000000  12.0000000  12.0000000
 NucSpn=           1           1           0           2           0           0           0           0           0           0
 AtZEff=  -0.0000000  -0.0000000  -0.0000000  -0.0000000  -0.0000000  -0.0000000  -0.0000000  -0.0000000  -0.0000000  -0.0000000
 NQMom=    0.0000000   0.0000000   0.0000000   2.0440000   0.0000000   0.0000000   0.0000000   0.0000000   0.0000000   0.0000000
 NMagM=    2.7928460   2.7928460   0.0000000   0.4037610   0.0000000   0.0000000   0.0000000   0.0000000   0.0000000   0.0000000
 AtZNuc=   1.0000000   1.0000000  16.0000000   7.0000000   6.0000000   6.0000000   6.0000000   6.0000000   6.0000000   6.0000000

  Atom        31          32          33          34          35          36          37          38          39          40
 IAtWgt=           1           1           1           1           1          12          12          12          12          12
 AtmWgt=   1.0078250   1.0078250   1.0078250   1.0078250   1.0078250  12.0000000  12.0000000  12.0000000  12.0000000  12.0000000
 NucSpn=           1           1           1           1           1           0           0           0           0           0
 AtZEff=  -0.0000000  -0.0000000  -0.0000000  -0.0000000  -0.0000000  -0.0000000  -0.0000000  -0.0000000  -0.0000000  -0.0000000
 NQMom=    0.0000000   0.0000000   0.0000000   0.0000000   0.0000000   0.0000000   0.0000000   0.0000000   0.0000000   0.0000000
 NMagM=    2.7928460   2.7928460   2.7928460   2.7928460   2.7928460   0.0000000   0.0000000   0.0000000   0.0000000   0.0000000
 AtZNuc=   1.0000000   1.0000000   1.0000000   1.0000000   1.0000000   6.0000000   6.0000000   6.0000000   6.0000000   6.0000000

  Atom        41          42          43          44          45          46
 IAtWgt=          12           1           1           1           1           1
 AtmWgt=  12.0000000   1.0078250   1.0078250   1.0078250   1.0078250   1.0078250
 NucSpn=           0           1           1           1           1           1
 AtZEff=  -0.0000000  -0.0000000  -0.0000000  -0.0000000  -0.0000000  -0.0000000
 NQMom=    0.0000000   0.0000000   0.0000000   0.0000000   0.0000000   0.0000000
 NMagM=    0.0000000   2.7928460   2.7928460   2.7928460   2.7928460   2.7928460
 AtZNuc=   6.0000000   1.0000000   1.0000000   1.0000000   1.0000000   1.0000000
 Leave Link  101 at Mon Jan 18 12:30:57 2021, MaxMem=  4026531840 cpu:               0.7 elap:               0.1
 (Enter /opt/ohpc/pub/libs/gaussian/g16-A.03/sandybridge/g16/l202.exe)
                          Input orientation:                          
 ---------------------------------------------------------------------
 Center     Atomic      Atomic             Coordinates (Angstroms)
 Number     Number       Type             X           Y           Z
 ---------------------------------------------------------------------
      1          6           0       -3.352046    1.022081    0.901490
      2          6           0       -4.015603    0.124147    0.077833
      3         16           0       -3.193622   -0.833868   -1.176213
      4          6           0       -5.398593   -0.028228    0.207342
      5          6           0       -0.749106    0.373785   -1.531691
      6          6           0       -1.475477   -0.566990   -0.815552
      7          6           0       -4.041516    1.761821    1.844012
      8          6           0       -6.080951    0.720801    1.156415
      9          1           0       -7.475944   -0.835079   -0.458792
     10          6           0        0.601771    0.547170   -1.299188
     11          6           0       -0.823428   -1.336346    0.139234
     12          6           0        0.521569   -1.154920    0.389409
     13          6           0        1.255724   -0.212476   -0.331046
     14          1           0        1.160253    1.275483   -1.876291
     15          1           0       -1.383265   -2.076857    0.700814
     16          1           0        1.015474   -1.752114    1.147605
     17          6           0       -5.411167    1.613701    1.970885
     18          1           0       -2.279577    1.141824    0.800598
     19          1           0       -1.248138    0.967582   -2.290346
     20          1           0       -3.503227    2.458074    2.478369
     21          1           0       -7.154267    0.598627    1.263844
     22          1           0       -5.962434    2.189124    2.706912
     23         16           0       -6.238224   -1.192989   -0.835805
     24          7           0        2.627173   -0.037586   -0.087724
     25          6           0        3.438312   -1.140752    0.276409
     26          6           0        4.374889   -1.012928    1.295896
     27          6           0        3.317625   -2.356550   -0.387733
     28          6           0        5.179400   -2.084309    1.640010
     29          6           0        4.112866   -3.428755   -0.025756
     30          6           0        5.049979   -3.298472    0.986151
     31          1           0        4.470709   -0.064848    1.814448
     32          1           0        2.593785   -2.456724   -1.189607
     33          1           0        5.907450   -1.970366    2.436839
     34          1           0        4.006805   -4.372570   -0.551042
     35          1           0        5.677330   -4.139106    1.262850
     36          6           0        3.224517    1.239724   -0.221989
     37          6           0        4.446224    1.376745   -0.871250
     38          6           0        2.604731    2.367846    0.304633
     39          6           0        5.037460    2.622109   -0.986244
     40          6           0        3.193018    3.612223    0.169883
     41          6           0        4.413292    3.746533   -0.472133
     42          1           0        4.931907    0.498005   -1.282066
     43          1           0        1.656156    2.262505    0.820378
     44          1           0        5.992055    2.714270   -1.494403
     45          1           0        2.697309    4.484427    0.584059
     46          1           0        4.876004    4.722810   -0.569917
 ---------------------------------------------------------------------
                    Distance matrix (angstroms):
                    1          2          3          4          5
     1  C    0.000000
     2  C    1.387445   0.000000
     3  S    2.790429   1.779347   0.000000
     4  C    2.402779   1.397373   2.724918   0.000000
     5  C    3.621596   3.650053   2.749627   4.980319   0.000000
     6  C    2.999148   2.779937   1.775760   4.089916   1.387634
     7  C    1.382365   2.408742   4.071644   2.779320   4.915484
     8  C    2.757296   2.405202   4.024279   1.388307   5.981213
     9  H    4.722917   3.630708   4.342001   2.325969   6.918296
    10  C    4.549856   4.836867   4.040717   6.213299   1.381662
    11  C    3.540780   3.510953   2.756938   4.758986   2.392083
    12  C    4.472857   4.724301   4.044365   6.029171   2.764449
    13  C    4.926948   5.297866   4.571336   6.678603   2.409272
    14  H    5.304821   5.650988   4.888323   7.004259   2.139500
    15  H    3.676926   3.487367   2.888883   4.534672   3.375186
    16  H    5.179958   5.475080   4.894874   6.707916   3.848612
    17  C    2.394494   2.783885   4.562053   2.409600   5.961564
    18  H    1.083839   2.138187   2.940513   3.383672   2.893406
    19  H    3.823247   3.738785   2.876008   4.945337   1.084982
    20  H    2.138102   3.387081   4.928357   3.864152   5.292450
    21  H    3.842850   3.388652   4.867507   2.142787   6.992257
    22  H    3.381666   3.868635   5.646544   3.388571   6.959885
    23  S    4.031718   2.740370   3.084550   1.774769   5.750605
    24  N    6.152438   6.646807   5.974992   8.031194   3.695068
    25  C    7.153848   7.563085   6.796090   8.906928   4.805988
    26  C    8.000146   8.554354   7.964028   9.883093   6.014445
    27  C    7.586946   7.755440   6.733246   9.041441   5.030077
    28  C    9.109371   9.584662   8.922007  10.870784   7.158847
    29  C    8.740403   8.871632   7.838479  10.103750   6.353418
    30  C    9.448194   9.732633   8.871699  10.976051   7.311251
    31  H    7.950497   8.664239   8.263015   9.999363   6.215747
    32  H    7.199144   7.207726   6.010651   8.469189   4.393600
    33  H    9.851411  10.412438   9.857752  11.686281   8.096543
    34  H    9.239307   9.218187   8.047323  10.387972   6.790305
    35  H   10.406636  10.655165   9.775859  11.861260   8.335150
    36  C    6.675384   7.331694   6.811963   8.726400   4.272569
    37  C    8.005086   8.606525   7.959087  10.002886   5.332313
    38  C    6.136001   6.993886   6.787104   8.354869   4.312376
    39  C    8.746853   9.451456   8.929198  10.833288   6.231919
    40  C    7.076860   8.008706   7.897396   9.331134   5.378027
    41  C    8.343258   9.190779   8.907353  10.534875   6.256872
    42  H    8.582916   9.057982   8.234641  10.450574   5.687851
    43  H    5.160166   6.106783   6.090505   7.442631   3.858079
    44  H    9.793673  10.456284   9.852268  11.839092   7.136001
    45  H    6.977342   8.020692   8.129323   9.276292   5.766416
    46  H    9.141184  10.031349   9.816472  11.346534   7.175018
                    6          7          8          9         10
     6  C    0.000000
     7  C    4.368203   0.000000
     8  C    5.172760   2.390775   0.000000
     9  H    6.017039   4.882836   2.641148   0.000000
    10  C    2.406287   5.737177   7.121721   8.238104   0.000000
    11  C    1.388774   4.781318   5.736555   6.698125   2.765481
    12  C    2.405366   5.607583   6.906511   8.048724   2.398938
    13  C    2.796406   6.057184   7.543895   8.754769   1.393562
    14  H    3.386288   6.413703   7.870198   9.002648   1.084154
    15  H    2.141861   4.807146   5.486594   6.325143   3.850441
    16  H    3.385756   6.197247   7.514961   8.690549   3.382995
    17  C    5.292381   1.383467   1.381753   4.020343   6.927214
    18  H    2.485672   2.139518   3.841134   5.700565   3.614537
    19  H    2.140470   5.052395   5.941140   6.737191   2.140398
    20  H    4.910468   1.084865   3.377920   5.937529   5.896821
    21  H    6.158832   3.373253   1.085576   2.264170   8.168715
    22  H    6.335353   2.148746   2.138705   4.632299   7.863437
    23  S    4.803753   4.553883   2.766996   1.342456   7.073076
    24  N    4.200207   7.172230   8.829182  10.141334   2.431427
    25  C    5.066251   8.174970   9.739413  10.943260   3.657534
    26  C    6.235692   8.878938  10.599522  11.981352   4.837849
    27  C    5.134139   8.723452  10.009381  10.900507   4.078995
    28  C    7.253925   9.992979  11.614560  12.888882   6.043033
    29  C    6.327958   9.845408  11.069338  11.883400   5.455034
    30  C    7.299911  10.440200  11.835588  12.847370   6.308589
    31  H    6.521210   8.706065  10.601310  12.185376   5.003796
    32  H    4.502211   8.427703   9.531607  10.225618   3.606038
    33  H    8.188719  10.642490  12.353284  13.740043   6.960324
    34  H    6.678909  10.399159  11.428940  12.015651   6.029745
    35  H    8.260897  11.384843  12.723490  13.670745   7.367939
    36  C    5.070155   7.572066   9.421306  10.902328   2.918696
    37  C    6.232796   8.919790  10.740722  12.132616   3.956153
    38  C    5.149386   6.849055   8.881405  10.604789   3.146260
    39  C    7.253815   9.548730  11.481508  12.992907   4.906999
    40  C    6.342850   7.652789   9.764224  11.575858   4.274024
    41  C    7.307668   8.988180  11.042480  12.741479   5.044565
    42  H    6.512021   9.586027  11.281794  12.506385   4.330449
    43  H    4.526526   5.810506   7.896366   9.727618   2.923467
    44  H    8.184836  10.617190  12.520313  13.966294   5.812882
    45  H    6.699841   7.376437   9.568193  11.527348   4.841476
    46  H    8.269440   9.701375  11.791996  13.545224   6.019707
                   11         12         13         14         15
    11  C    0.000000
    12  C    1.380043   0.000000
    13  C    2.409797   1.395077   0.000000
    14  H    3.849543   3.383515   2.147305   0.000000
    15  H    1.084964   2.139003   3.391890   4.934485   0.000000
    16  H    2.138045   1.084179   2.148165   4.281501   2.461509
    17  C    5.753701   6.735257   7.285688   7.622251   5.608680
    18  H    2.949423   3.645618   3.951342   4.360737   3.342640
    19  H    3.375103   3.849411   3.391271   2.463045   4.270118
    20  H    5.201009   5.797971   6.137774   6.489193   5.312207
    21  H    6.714789   7.921996   8.598227   8.913463   6.385897
    22  H    6.740274   7.654786   8.191378   8.518988   6.572048
    23  S    5.503750   6.870036   7.574658   7.868509   5.168467
    24  N    3.693905   2.430979   1.403804   2.659883   4.567716
    25  C    4.268431   2.918965   2.448344   3.957507   4.929910
    26  C    5.335257   3.961055   3.607888   5.062952   5.885780
    27  C    4.297305   3.140986   2.975181   4.479031   4.833377
    28  C    6.232634   4.911533   4.773264   6.309209   6.629534
    29  C    5.363991   4.270843   4.312878   5.854251   5.706399
    30  C    6.250129   5.045534   5.065052   6.651662   6.554418
    31  H    5.696572   4.337591   3.867954   5.135870   6.289465
    32  H    3.833851   2.912398   2.750306   4.056589   4.419832
    33  H    7.140426   5.819333   5.691214   7.188498   7.495308
    34  H    5.746850   4.835762   4.992317   6.462170   5.990851
    35  H    7.167833   6.020809   6.124502   7.718547   7.377043
    36  C    4.811702   3.662520   2.448862   2.645596   5.751776
    37  C    6.012585   4.837510   3.605098   3.437727   6.955695
    38  C    5.049819   4.093486   2.980263   2.834820   5.984685
    39  C    7.161430   6.045795   4.771340   4.199800   8.133398
    40  C    6.373469   5.469048   4.316522   3.712050   7.320511
    41  C    7.323433   6.317595   5.065954   4.319723   8.299864
    42  H    6.205547   4.997707   3.863100   3.896530   7.102332
    43  H    4.423124   3.626543   2.758923   2.914130   5.299287
    44  H    8.094879   6.960287   5.687888   5.055913   9.064724
    45  H    6.817247   6.047642   4.997648   4.325874   7.727559
    46  H    8.348640   7.377609   6.125401   5.234260   9.328916
                   16         17         18         19         20
    16  H    0.000000
    17  C    7.301248   0.000000
    18  H    4.399165   3.376255   0.000000
    19  H    4.933578   5.992192   3.263152   0.000000
    20  H    6.317854   2.147264   2.458607   5.481572   0.000000
    21  H    8.502009   2.137447   4.926689   6.902953   4.273489
    22  H    8.164312   1.084778   4.277184   6.977775   2.484404
    23  S    7.540734   4.054509   4.878530   5.628918   5.638636
    24  N    2.657671   8.460469   5.124092   4.569457   7.098941
    25  C    2.646297   9.421865   6.178930   5.744225   8.123124
    26  C    3.442972  10.154885   7.012146   6.957153   8.689696
    27  C    2.832403   9.875109   6.706670   5.959529   8.827183
    28  C    4.206078  11.222516   8.169999   8.128652   9.834841
    29  C    3.712376  10.959934   7.901669   7.293594   9.946370
    30  C    4.323716  11.598910   8.571642   8.282568  10.417383
    31  H    3.902588  10.024643   6.931833   7.114805   8.389850
    32  H    2.906906   9.520311   6.376529   5.262877   8.647707
    33  H    5.063713  11.881656   8.910130   9.065333  10.400656
    34  H    4.324379  11.440881   8.470777   7.691348  10.594131
    35  H    5.238694  12.512029   9.561081   9.309435  11.370264
    36  C    3.963175   8.917600   5.599136   4.935261   7.351112
    37  C    5.063159  10.261678   6.934455   5.882772   8.693848
    38  C    4.495599   8.221907   5.060195   4.851727   6.483858
    39  C    6.313756  10.905746   7.676137   6.629245   9.218123
    40  C    5.871435   9.014971   6.037381   5.724572   7.176410
    41  C    6.663620  10.345883   7.293754   6.563555   8.546161
    42  H    5.128819  10.899800   7.533757   6.279338   9.441092
    43  H    4.078568   7.189692   4.092226   4.448410   5.422768
    44  H    7.189934  11.968832   8.726942   7.490316  10.296064
    45  H    6.483872   8.712734   5.999106   6.016391   6.792729
    46  H    7.731637  11.043012   8.118135   7.386930   9.199597
                   21         22         23         24         25
    21  H    0.000000
    22  H    2.456134   0.000000
    23  S    2.908186   4.905669   0.000000
    24  N    9.894851   9.303202   8.971613   0.000000
    25  C   10.779759  10.264962   9.740385   1.416868   0.000000
    26  C   11.641288  10.913494  10.826576   2.433148   1.390277
    27  C   11.005512  10.787005   9.636851   2.438098   1.390617
    28  C   12.627707  11.980859  11.716921   3.699730   2.404391
    29  C   12.034582  11.854944  10.620729   3.702857   2.404430
    30  C   12.814371  12.423686  11.626526   4.201973   2.785132
    31  H   11.656905  10.711086  11.089535   2.649080   2.142190
    32  H   10.506146  10.486927   8.928974   2.658475   2.143411
    33  H   13.363536  12.580479  12.602853   4.568290   3.384134
    34  H   12.352171  12.371573  10.730864   4.572760   3.384155
    35  H   13.678304  13.327262  12.452485   5.286774   3.869935
    36  C   10.504183   9.689164   9.789705   1.416463   2.441470
    37  C   11.820977  11.036456  10.989186   2.433761   2.944622
    38  C    9.964350   8.899393   9.600937   2.437325   3.606371
    39  C   12.561671  11.611397  11.904564   3.700108   4.279099
    40  C   10.832581   9.606458  10.632488   3.702384   4.760492
    41  C   12.113272  10.963008  11.746741   4.202089   5.039490
    42  H   12.351817  11.724269  11.306212   2.650492   2.710202
    43  H    8.977121   7.849032   8.775227   2.656679   3.879967
    44  H   13.598149  12.682138  12.856133   4.568795   4.951623
    45  H   10.612026   9.206849  10.681424   4.572178   5.682110
    46  H   12.849085  11.602970  12.593389   5.286882   6.096276
                   26         27         28         29         30
    26  C    0.000000
    27  C    2.399528   0.000000
    28  C    1.383297   2.766236   0.000000
    29  C    2.766160   1.383134   2.391612   0.000000
    30  C    2.403206   2.403295   1.385090   1.385320   0.000000
    31  H    1.084866   3.380991   2.147299   3.851009   3.387913
    32  H    3.381509   1.084888   3.851082   2.146392   3.387529
    33  H    2.137097   3.851563   1.085346   3.378136   2.145604
    34  H    3.851475   2.136814   3.378139   1.085339   2.145894
    35  H    3.386803   3.386759   2.147644   2.147708   1.084803
    36  C    2.949877   3.601295   4.282266   4.756298   5.038565
    37  C    3.226786   3.930015   4.338533   4.890687   5.066765
    38  C    3.942803   4.827785   5.313552   5.998684   6.208934
    39  C    4.342886   5.301235   5.391449   6.195996   6.240495
    40  C    4.904768   5.996058   6.209466   7.103504   7.202243
    41  C    5.077388   6.201228   6.248743   7.195434   7.222469
    42  H    3.039585   3.399150   3.907445   4.203402   4.424024
    43  H    4.283233   5.055263   5.655072   6.256341   6.516900
    44  H    4.928793   5.838708   5.788896   6.589767   6.572193
    45  H    5.791537   6.937445   7.100993   8.061893   8.140654
    46  H    6.052360   7.251143   7.163288   8.205273   8.172673
                   31         32         33         34         35
    31  H    0.000000
    32  H    4.274139   0.000000
    33  H    2.466292   4.936399   0.000000
    34  H    4.936316   2.464722   4.279073   0.000000
    35  H    4.284831   4.284064   2.476820   2.476967   0.000000
    36  C    2.720658   3.872704   4.957033   5.676099   6.095314
    37  C    3.048239   4.269469   4.927655   5.774967   6.041077
    38  C    3.417516   5.050678   5.854429   6.937665   7.259440
    39  C    3.922349   5.639809   5.793549   7.083586   7.154152
    40  C    4.225866   6.248153   6.608520   8.058468   8.212763
    41  C    4.445039   6.504289   6.586164   8.129655   8.172592
    42  H    3.180866   3.769056   4.568894   5.011258   5.341821
    43  H    3.785030   5.214433   6.213183   7.171511   7.572730
    44  H    4.581101   6.195185   6.116178   7.419869   7.393934
    45  H    5.035346   7.164927   7.443262   9.024945   9.149131
    46  H    5.363873   7.558985   7.409660   9.136838   9.084862
                   36         37         38         39         40
    36  C    0.000000
    37  C    1.390281   0.000000
    38  C    1.390728   2.399183   0.000000
    39  C    2.404545   1.383371   2.765716   0.000000
    40  C    2.404851   2.766197   1.383009   2.391427   0.000000
    41  C    2.785651   2.403388   2.403130   1.385000   1.385385
    42  H    2.142216   1.084823   3.380779   2.147200   3.851006
    43  H    2.142981   3.380925   1.084843   3.850508   2.146352
    44  H    3.384168   2.137027   3.851039   1.085344   3.377984
    45  H    3.384636   3.851534   2.136952   3.377926   1.085361
    46  H    3.870446   3.386984   3.386646   2.147636   2.147824
                   41         42         43         44         45
    41  C    0.000000
    42  H    3.387903   0.000000
    43  H    3.387436   4.273672   0.000000
    44  H    2.145483   2.465934   4.935820   0.000000
    45  H    2.145839   4.936336   2.465113   4.278880   0.000000
    46  H    1.084795   4.284771   4.284092   2.476788   2.476933
                   46
    46  H    0.000000
 Stoichiometry    C24H19NS2
 Framework group  C1[X(C24H19NS2)]
 Deg. of freedom   132
 Full point group                 C1      NOp   1
 Largest Abelian subgroup         C1      NOp   1
 Largest concise Abelian subgroup C1      NOp   1
                         Standard orientation:                         
 ---------------------------------------------------------------------
 Center     Atomic      Atomic             Coordinates (Angstroms)
 Number     Number       Type             X           Y           Z
 ---------------------------------------------------------------------
      1          6           0       -3.352046    1.022081    0.901490
      2          6           0       -4.015603    0.124147    0.077833
      3         16           0       -3.193622   -0.833868   -1.176213
      4          6           0       -5.398593   -0.028228    0.207342
      5          6           0       -0.749106    0.373785   -1.531691
      6          6           0       -1.475477   -0.566990   -0.815552
      7          6           0       -4.041516    1.761821    1.844012
      8          6           0       -6.080951    0.720801    1.156415
      9          1           0       -7.475944   -0.835079   -0.458792
     10          6           0        0.601771    0.547170   -1.299188
     11          6           0       -0.823428   -1.336346    0.139234
     12          6           0        0.521569   -1.154920    0.389409
     13          6           0        1.255724   -0.212476   -0.331046
     14          1           0        1.160253    1.275483   -1.876291
     15          1           0       -1.383265   -2.076857    0.700814
     16          1           0        1.015474   -1.752114    1.147605
     17          6           0       -5.411167    1.613701    1.970885
     18          1           0       -2.279577    1.141824    0.800598
     19          1           0       -1.248138    0.967582   -2.290346
     20          1           0       -3.503227    2.458074    2.478369
     21          1           0       -7.154267    0.598627    1.263844
     22          1           0       -5.962434    2.189124    2.706912
     23         16           0       -6.238224   -1.192989   -0.835805
     24          7           0        2.627173   -0.037586   -0.087724
     25          6           0        3.438312   -1.140752    0.276409
     26          6           0        4.374889   -1.012928    1.295896
     27          6           0        3.317625   -2.356550   -0.387733
     28          6           0        5.179400   -2.084309    1.640010
     29          6           0        4.112866   -3.428755   -0.025756
     30          6           0        5.049979   -3.298472    0.986151
     31          1           0        4.470709   -0.064848    1.814448
     32          1           0        2.593785   -2.456724   -1.189607
     33          1           0        5.907450   -1.970366    2.436839
     34          1           0        4.006805   -4.372570   -0.551042
     35          1           0        5.677330   -4.139106    1.262850
     36          6           0        3.224517    1.239724   -0.221989
     37          6           0        4.446224    1.376745   -0.871250
     38          6           0        2.604731    2.367846    0.304633
     39          6           0        5.037460    2.622109   -0.986244
     40          6           0        3.193018    3.612223    0.169883
     41          6           0        4.413292    3.746533   -0.472133
     42          1           0        4.931907    0.498005   -1.282066
     43          1           0        1.656156    2.262505    0.820378
     44          1           0        5.992055    2.714270   -1.494403
     45          1           0        2.697309    4.484427    0.584059
     46          1           0        4.876004    4.722810   -0.569917
 ---------------------------------------------------------------------
 Rotational constants (GHZ):           0.3083654           0.0766714           0.0675965
 Leave Link  202 at Mon Jan 18 12:30:58 2021, MaxMem=  4026531840 cpu:               0.2 elap:               0.0
 (Enter /opt/ohpc/pub/libs/gaussian/g16-A.03/sandybridge/g16/l301.exe)
 Standard basis: TZVP (5D, 7F)
 Ernie: Thresh=  0.10000D-02 Tol=  0.10000D-05 Strict=F.
 There are   660 symmetry adapted cartesian basis functions of A   symmetry.
 There are   633 symmetry adapted basis functions of A   symmetry.
   633 basis functions,  1121 primitive gaussians,   660 cartesian basis functions
   101 alpha electrons      101 beta electrons
       nuclear repulsion energy      2474.6847673599 Hartrees.
 IExCor=33909 DFT=T Ex+Corr=LC-wHPBE ExCW=0 ScaHFX=  1.000000
 ScaDFX=  1.000000  1.000000  1.000000  1.000000 ScalE2=  1.000000  1.000000
 IRadAn=      5 IRanWt=     -1 IRanGd=            0 ICorTp=0 IEmpDi=  4
 HFx  wShort=  0.000000 wLong=  0.221900 cFull=  0.000000 cShort=  0.000000 cLong=  1.000000
 DFx  wShort=  0.000000 wLong=  0.221900 cFull=  0.000000 cShort=  1.000000 cLong=  0.000000
 NAtoms=   46 NActive=   46 NUniq=   46 SFac= 1.00D+00 NAtFMM=   60 NAOKFM=F Big=F
 Integral buffers will be    131072 words long.
 Raffenetti 2 integral format.
 Two-electron integral symmetry is turned on.
 Leave Link  301 at Mon Jan 18 12:30:58 2021, MaxMem=  4026531840 cpu:               0.4 elap:               0.1
 (Enter /opt/ohpc/pub/libs/gaussian/g16-A.03/sandybridge/g16/l302.exe)
 NPDir=0 NMtPBC=     1 NCelOv=     1 NCel=       1 NClECP=     1 NCelD=      1
         NCelK=      1 NCelE2=     1 NClLst=     1 CellRange=     0.0.
 One-electron integrals computed using PRISM.
 One-electron integral symmetry used in STVInt
 NBasis=   633 RedAO= T EigKep=  6.67D-06  NBF=   633
 NBsUse=   633 1.00D-06 EigRej= -1.00D+00 NBFU=   633
 Precomputing XC quadrature grid using
 IXCGrd= 4 IRadAn=           5 IRanWt=          -1 IRanGd=           0 AccXCQ= 0.00D+00.
 Generated NRdTot=       0 NPtTot=           0 NUsed=           0 NTot=          32
 NSgBfM=   625   625   625   625   625 MxSgAt=    46 MxSgA2=    46.
 Leave Link  302 at Mon Jan 18 12:30:59 2021, MaxMem=  4026531840 cpu:               7.9 elap:               1.0
 (Enter /opt/ohpc/pub/libs/gaussian/g16-A.03/sandybridge/g16/l303.exe)
 DipDrv:  MaxL=1.
 Leave Link  303 at Mon Jan 18 12:30:59 2021, MaxMem=  4026531840 cpu:               0.7 elap:               0.1
 (Enter /opt/ohpc/pub/libs/gaussian/g16-A.03/sandybridge/g16/l401.exe)
 ExpMin= 9.52D-02 ExpMax= 6.07D+04 ExpMxC= 2.07D+03 IAcc=3 IRadAn=         5 AccDes= 0.00D+00
 Harris functional with IExCor=33909 and IRadAn=       5 diagonalized for initial guess.
 HarFok:  IExCor=33909 AccDes= 0.00D+00 IRadAn=         5 IDoV= 1 UseB2=F ITyADJ=14
 ICtDFT=  3500011 ScaDFX=  1.000000  1.000000  1.000000  1.000000
 FoFCou: FMM=F IPFlag=           0 FMFlag=      100000 FMFlg1=           0
         NFxFlg=           0 DoJE=T BraDBF=F KetDBF=T FulRan=T
         wScrn=  0.000000 ICntrl=       500 IOpCl=  0 I1Cent=   200000004 NGrid=           0
         NMat0=    1 NMatS0=      1 NMatT0=    0 NMatD0=    1 NMtDS0=    0 NMtDT0=    0
 Petite list used in FoFCou.
 Harris En= -1752.47973719628    
 JPrj=0 DoOrth=F DoCkMO=F.
 Leave Link  401 at Mon Jan 18 12:31:05 2021, MaxMem=  4026531840 cpu:              45.6 elap:               5.7
 (Enter /opt/ohpc/pub/libs/gaussian/g16-A.03/sandybridge/g16/l502.exe)
 Integral symmetry usage will be decided dynamically.
 Closed shell SCF:
 Using DIIS extrapolation, IDIIS=    10.
 NGot=  4026531840 LenX=  4025648940 LenY=  4025212680
 Requested convergence on RMS density matrix=1.00D-06 within  32 cycles.
 Requested convergence on MAX density matrix=1.00D-04.
 Requested convergence on             energy=1.00D-04.
 Virtual orbitals will be shifted by   0.500 hartree.
 No special actions if energy rises.
 Dynamic level shift is on during FON iterations.

 Cycle   1  Pass 1  IDiag  1:
 FoFJK:  IHMeth= 1 ICntrl=       0 DoSepK=T KAlg= 0 I1Cent=           0 FoldK=F
 IRaf=         1 NMat=       1 IRICut=       1 DoRegI=T DoRafI=F ISym2E= 0 IDoP0=0 IntGTp=1.
 FoFCou: FMM=F IPFlag=           0 FMFlag=      100000 FMFlg1=           0
         NFxFlg=           0 DoJE=T BraDBF=F KetDBF=F FulRan=T
         wScrn=  0.000000 ICntrl=       500 IOpCl=  0 I1Cent=           0 NGrid=           0
         NMat0=    1 NMatS0=      1 NMatT0=    0 NMatD0=    1 NMtDS0=    0 NMtDT0=    0
 Symmetry not used in FoFCou.
 E= -1775.74906605379    
 DIIS: error= 2.86D-02 at cycle   1 NSaved=   1.
 NSaved= 1 IEnMin= 1 EnMin= -1775.74906605379     IErMin= 1 ErrMin= 2.86D-02
 ErrMax= 2.86D-02  0.00D+00 EMaxC= 1.00D+00 BMatC= 5.23D-01 BMatP= 5.23D-01
 IDIUse=1 WtCom= 1.00D+00 WtEn= 0.00D+00
 Coeff-Com:  0.100D+01
 Coeff:      0.100D+01
 Gap=     0.419 Goal=   None    Shift=    0.500
 T= 1468. Gap= 0.691 NK=0 IS=  102 IE=  633 IFin=  101
          NO(<0.9)=   0  NV(>0.1)=   0    101.00e < EF      0.00e >EF  Err=0.0D+00
 GapD=    0.419 DampG=2.000 DampE=0.500 DampFc=1.0000 IDamp=-1.
 RMSDP=2.99D-03 MaxDP=2.17D-01              OVMax= 9.22D-02

 Cycle   2  Pass 1  IDiag  1:
 E= -1776.21699349496     Delta-E=       -0.467927441163 Rises=F Damp=F
 DIIS: error= 8.45D-03 at cycle   2 NSaved=   2.
 NSaved= 2 IEnMin= 2 EnMin= -1776.21699349496     IErMin= 2 ErrMin= 8.45D-03
 ErrMax= 8.45D-03  0.00D+00 EMaxC= 1.00D+00 BMatC= 6.62D-02 BMatP= 5.23D-01
 IDIUse=1 WtCom= 1.00D+00 WtEn= 0.00D+00
 Coeff-Com:  0.232D+00 0.768D+00
 Coeff:      0.232D+00 0.768D+00
 Gap=     0.372 Goal=   None    Shift=    0.500
 T= 1307. Gap= 0.770 NK=0 IS=  102 IE=  633 IFin=  101
          NO(<0.9)=   0  NV(>0.1)=   0    101.00e < EF      0.00e >EF  Err=0.0D+00
 GapD=    0.372 DampG=1.000 DampE=1.000 DampFc=1.0000 IDamp=-1.
 RMSDP=9.01D-04 MaxDP=6.60D-02 DE=-4.68D-01 OVMax= 1.74D-02

 Cycle   3  Pass 1  IDiag  1:
 E= -1776.26375685318     Delta-E=       -0.046763358225 Rises=F Damp=F
 DIIS: error= 2.51D-03 at cycle   3 NSaved=   3.
 NSaved= 3 IEnMin= 3 EnMin= -1776.26375685318     IErMin= 3 ErrMin= 2.51D-03
 ErrMax= 2.51D-03  0.00D+00 EMaxC= 1.00D+00 BMatC= 5.45D-03 BMatP= 6.62D-02
 IDIUse=1 WtCom= 1.00D+00 WtEn= 0.00D+00
 Coeff-Com:  0.708D-01-0.267D-01 0.956D+00
 Coeff:      0.708D-01-0.267D-01 0.956D+00
 Gap=     0.286 Goal=   None    Shift=    0.500
 T= 1003. Gap= 0.784 NK=0 IS=  102 IE=  633 IFin=  101
          NO(<0.9)=   0  NV(>0.1)=   0    101.00e < EF      0.00e >EF  Err=0.0D+00
 GapD=    0.286 DampG=1.000 DampE=1.000 DampFc=1.0000 IDamp=-1.
 RMSDP=3.71D-04 MaxDP=2.86D-02 DE=-4.68D-02 OVMax= 1.13D-02

 Cycle   4  Pass 1  IDiag  1:
 E= -1776.26938917564     Delta-E=       -0.005632322458 Rises=F Damp=F
 DIIS: error= 1.75D-03 at cycle   4 NSaved=   4.
 NSaved= 4 IEnMin= 4 EnMin= -1776.26938917564     IErMin= 4 ErrMin= 1.75D-03
 ErrMax= 1.75D-03  0.00D+00 EMaxC= 1.00D+00 BMatC= 8.54D-04 BMatP= 5.45D-03
 IDIUse=1 WtCom= 1.00D+00 WtEn= 0.00D+00
 Coeff-Com:  0.119D-01-0.700D-01 0.513D-01 0.101D+01
 Coeff:      0.119D-01-0.700D-01 0.513D-01 0.101D+01
 Gap=     0.281 Goal=   None    Shift=    0.500
 T=  322. Gap= 0.781 NK=0 IS=  102 IE=  633 IFin=  101
          NO(<0.9)=   0  NV(>0.1)=   0    101.00e < EF      0.00e >EF  Err=0.0D+00
 GapD=    0.281 DampG=1.000 DampE=1.000 DampFc=1.0000 IDamp=-1.
 RMSDP=2.07D-04 MaxDP=1.09D-02 DE=-5.63D-03 OVMax= 8.10D-03

 Cycle   5  Pass 1  IDiag  1:
 E= -1776.27068401586     Delta-E=       -0.001294840222 Rises=F Damp=F
 DIIS: error= 1.41D-03 at cycle   5 NSaved=   5.
 NSaved= 5 IEnMin= 5 EnMin= -1776.27068401586     IErMin= 5 ErrMin= 1.41D-03
 ErrMax= 1.41D-03  0.00D+00 EMaxC= 1.00D+00 BMatC= 1.51D-04 BMatP= 8.54D-04
 IDIUse=1 WtCom= 1.00D+00 WtEn= 0.00D+00
 Coeff-Com: -0.731D-02-0.591D-02-0.137D+00-0.124D+00 0.127D+01
 Coeff:     -0.731D-02-0.591D-02-0.137D+00-0.124D+00 0.127D+01
 Gap=     0.282 Goal=   None    Shift=    0.500
 GapD=    0.282 DampG=1.000 DampE=1.000 DampFc=1.0000 IDamp=-1.
 RMSDP=1.39D-04 MaxDP=8.95D-03 DE=-1.29D-03 OVMax= 6.63D-03

 Cycle   6  Pass 1  IDiag  1:
 E= -1776.27114017379     Delta-E=       -0.000456157931 Rises=F Damp=F
 DIIS: error= 1.11D-03 at cycle   6 NSaved=   6.
 NSaved= 6 IEnMin= 6 EnMin= -1776.27114017379     IErMin= 6 ErrMin= 1.11D-03
 ErrMax= 1.11D-03  0.00D+00 EMaxC= 1.00D+00 BMatC= 5.01D-05 BMatP= 1.51D-04
 IDIUse=1 WtCom= 1.00D+00 WtEn= 0.00D+00
 Coeff-Com: -0.607D-02 0.123D-01-0.276D-01-0.250D+00-0.357D+00 0.163D+01
 Coeff:     -0.607D-02 0.123D-01-0.276D-01-0.250D+00-0.357D+00 0.163D+01
 Gap=     0.283 Goal=   None    Shift=    0.500
 GapD=    0.283 DampG=1.000 DampE=1.000 DampFc=1.0000 IDamp=-1.
 RMSDP=9.03D-05 MaxDP=6.19D-03 DE=-4.56D-04 OVMax= 5.63D-03

 Cycle   7  Pass 1  IDiag  1:
 E= -1776.27135712583     Delta-E=       -0.000216952039 Rises=F Damp=F
 DIIS: error= 7.92D-04 at cycle   7 NSaved=   7.
 NSaved= 7 IEnMin= 7 EnMin= -1776.27135712583     IErMin= 7 ErrMin= 7.92D-04
 ErrMax= 7.92D-04  0.00D+00 EMaxC= 1.00D+00 BMatC= 2.01D-05 BMatP= 5.01D-05
 IDIUse=1 WtCom= 1.00D+00 WtEn= 0.00D+00
 Coeff-Com: -0.158D-02 0.374D-02 0.302D-01-0.433D-01-0.521D+00-0.538D-01
 Coeff-Com:  0.159D+01
 Coeff:     -0.158D-02 0.374D-02 0.302D-01-0.433D-01-0.521D+00-0.538D-01
 Coeff:      0.159D+01
 Gap=     0.283 Goal=   None    Shift=    0.500
 RMSDP=5.28D-05 MaxDP=3.52D-03 DE=-2.17D-04 OVMax= 4.30D-03

 Cycle   8  Pass 1  IDiag  1:
 E= -1776.27145583544     Delta-E=       -0.000098709615 Rises=F Damp=F
 DIIS: error= 5.36D-04 at cycle   8 NSaved=   8.
 NSaved= 8 IEnMin= 8 EnMin= -1776.27145583544     IErMin= 8 ErrMin= 5.36D-04
 ErrMax= 5.36D-04  0.00D+00 EMaxC= 1.00D+00 BMatC= 8.00D-06 BMatP= 2.01D-05
 IDIUse=1 WtCom= 1.00D+00 WtEn= 0.00D+00
 Coeff-Com:  0.801D-03-0.213D-02 0.121D-01 0.989D-01-0.611D-01-0.734D+00
 Coeff-Com: -0.106D+00 0.179D+01
 Coeff:      0.801D-03-0.213D-02 0.121D-01 0.989D-01-0.611D-01-0.734D+00
 Coeff:     -0.106D+00 0.179D+01
 Gap=     0.283 Goal=   None    Shift=    0.500
 RMSDP=2.80D-05 MaxDP=1.60D-03 DE=-9.87D-05 OVMax= 3.09D-03

 Cycle   9  Pass 1  IDiag  1:
 E= -1776.27149827216     Delta-E=       -0.000042436712 Rises=F Damp=F
 DIIS: error= 3.66D-04 at cycle   9 NSaved=   9.
 NSaved= 9 IEnMin= 9 EnMin= -1776.27149827216     IErMin= 9 ErrMin= 3.66D-04
 ErrMax= 3.66D-04  0.00D+00 EMaxC= 1.00D+00 BMatC= 3.24D-06 BMatP= 8.00D-06
 IDIUse=1 WtCom= 1.00D+00 WtEn= 0.00D+00
 Coeff-Com:  0.467D-03-0.957D-03-0.985D-02 0.679D-01 0.127D+00-0.378D+00
 Coeff-Com: -0.512D+00 0.169D+00 0.154D+01
 Coeff:      0.467D-03-0.957D-03-0.985D-02 0.679D-01 0.127D+00-0.378D+00
 Coeff:     -0.512D+00 0.169D+00 0.154D+01
 Gap=     0.283 Goal=   None    Shift=    0.500
 RMSDP=1.44D-05 MaxDP=5.94D-04 DE=-4.24D-05 OVMax= 2.12D-03

 Cycle  10  Pass 1  IDiag  1:
 E= -1776.27151521805     Delta-E=       -0.000016945889 Rises=F Damp=F
 DIIS: error= 2.33D-04 at cycle  10 NSaved=  10.
 NSaved=10 IEnMin=10 EnMin= -1776.27151521805     IErMin=10 ErrMin= 2.33D-04
 ErrMax= 2.33D-04  0.00D+00 EMaxC= 1.00D+00 BMatC= 1.21D-06 BMatP= 3.24D-06
 IDIUse=1 WtCom= 1.00D+00 WtEn= 0.00D+00
 Coeff-Com: -0.211D-03 0.672D-03-0.470D-02-0.913D-02 0.123D-01 0.140D+00
 Coeff-Com: -0.559D-01-0.563D+00-0.728D+00 0.221D+01
 Coeff:     -0.211D-03 0.672D-03-0.470D-02-0.913D-02 0.123D-01 0.140D+00
 Coeff:     -0.559D-01-0.563D+00-0.728D+00 0.221D+01
 Gap=     0.283 Goal=   None    Shift=    0.500
 RMSDP=8.81D-06 MaxDP=3.58D-04 DE=-1.69D-05 OVMax= 1.40D-03

 Cycle  11  Pass 1  IDiag  1:
 E= -1776.27152174056     Delta-E=       -0.000006522511 Rises=F Damp=F
 DIIS: error= 1.56D-04 at cycle  11 NSaved=  11.
 NSaved=11 IEnMin=11 EnMin= -1776.27152174056     IErMin=11 ErrMin= 1.56D-04
 ErrMax= 1.56D-04  0.00D+00 EMaxC= 1.00D+00 BMatC= 5.15D-07 BMatP= 1.21D-06
 IDIUse=1 WtCom= 1.00D+00 WtEn= 0.00D+00
 Coeff-Com: -0.180D-03 0.587D-03 0.157D-02-0.151D-01-0.291D-01 0.128D+00
 Coeff-Com:  0.939D-01-0.220D+00-0.957D+00 0.561D+00 0.144D+01
 Coeff:     -0.180D-03 0.587D-03 0.157D-02-0.151D-01-0.291D-01 0.128D+00
 Coeff:      0.939D-01-0.220D+00-0.957D+00 0.561D+00 0.144D+01
 Gap=     0.283 Goal=   None    Shift=    0.500
 RMSDP=5.06D-06 MaxDP=2.28D-04 DE=-6.52D-06 OVMax= 9.12D-04

 Cycle  12  Pass 1  IDiag  1:
 E= -1776.27152422213     Delta-E=       -0.000002481570 Rises=F Damp=F
 DIIS: error= 9.79D-05 at cycle  12 NSaved=  12.
 NSaved=12 IEnMin=12 EnMin= -1776.27152422213     IErMin=12 ErrMin= 9.79D-05
 ErrMax= 9.79D-05  0.00D+00 EMaxC= 1.00D+00 BMatC= 2.04D-07 BMatP= 5.15D-07
 IDIUse=1 WtCom= 1.00D+00 WtEn= 0.00D+00
 Coeff-Com: -0.206D-04 0.144D-03 0.238D-02-0.853D-03-0.127D-01-0.145D-01
 Coeff-Com:  0.527D-01 0.196D+00-0.297D+00-0.587D+00-0.325D+00 0.199D+01
 Coeff:     -0.206D-04 0.144D-03 0.238D-02-0.853D-03-0.127D-01-0.145D-01
 Coeff:      0.527D-01 0.196D+00-0.297D+00-0.587D+00-0.325D+00 0.199D+01
 Gap=     0.283 Goal=   None    Shift=    0.500
 RMSDP=3.02D-06 MaxDP=1.49D-04 DE=-2.48D-06 OVMax= 5.88D-04

 Cycle  13  Pass 1  IDiag  1:
 E= -1776.27152516968     Delta-E=       -0.000000947553 Rises=F Damp=F
 DIIS: error= 6.40D-05 at cycle  13 NSaved=  13.
 NSaved=13 IEnMin=13 EnMin= -1776.27152516968     IErMin=13 ErrMin= 6.40D-05
 ErrMax= 6.40D-05  0.00D+00 EMaxC= 1.00D+00 BMatC= 8.73D-08 BMatP= 2.04D-07
 IDIUse=1 WtCom= 1.00D+00 WtEn= 0.00D+00
 Coeff-Com:  0.203D-04-0.421D-05 0.207D-03 0.449D-02 0.263D-02-0.391D-01
 Coeff-Com: -0.267D-02 0.165D+00 0.864D-01-0.366D+00-0.888D+00 0.402D+00
 Coeff-Com:  0.163D+01
 Coeff:      0.203D-04-0.421D-05 0.207D-03 0.449D-02 0.263D-02-0.391D-01
 Coeff:     -0.267D-02 0.165D+00 0.864D-01-0.366D+00-0.888D+00 0.402D+00
 Coeff:      0.163D+01
 Gap=     0.283 Goal=   None    Shift=    0.500
 RMSDP=1.78D-06 MaxDP=9.20D-05 DE=-9.48D-07 OVMax= 3.85D-04

 Cycle  14  Pass 1  IDiag  1:
 E= -1776.27152554065     Delta-E=       -0.000000370970 Rises=F Damp=F
 DIIS: error= 3.95D-05 at cycle  14 NSaved=  14.
 NSaved=14 IEnMin=14 EnMin= -1776.27152554065     IErMin=14 ErrMin= 3.95D-05
 ErrMax= 3.95D-05  0.00D+00 EMaxC= 1.00D+00 BMatC= 3.34D-08 BMatP= 8.73D-08
 IDIUse=1 WtCom= 1.00D+00 WtEn= 0.00D+00
 Coeff-Com:  0.531D-05-0.274D-04-0.667D-03 0.202D-02 0.334D-02-0.651D-02
 Coeff-Com: -0.160D-01 0.852D-02 0.805D-01 0.114D+00-0.400D+00-0.382D+00
 Coeff-Com: -0.365D+00 0.196D+01
 Coeff:      0.531D-05-0.274D-04-0.667D-03 0.202D-02 0.334D-02-0.651D-02
 Coeff:     -0.160D-01 0.852D-02 0.805D-01 0.114D+00-0.400D+00-0.382D+00
 Coeff:     -0.365D+00 0.196D+01
 Gap=     0.283 Goal=   None    Shift=    0.500
 RMSDP=1.10D-06 MaxDP=5.45D-05 DE=-3.71D-07 OVMax= 2.40D-04

 Cycle  15  Pass 1  IDiag  1:
 E= -1776.27152567958     Delta-E=       -0.000000138928 Rises=F Damp=F
 DIIS: error= 2.52D-05 at cycle  15 NSaved=  15.
 NSaved=15 IEnMin=15 EnMin= -1776.27152567958     IErMin=15 ErrMin= 2.52D-05
 ErrMax= 2.52D-05  0.00D+00 EMaxC= 1.00D+00 BMatC= 1.35D-08 BMatP= 3.34D-08
 IDIUse=1 WtCom= 1.00D+00 WtEn= 0.00D+00
 Coeff-Com: -0.428D-05-0.211D-04-0.247D-03-0.503D-03 0.777D-03 0.796D-02
 Coeff-Com: -0.550D-02-0.317D-01 0.131D-02 0.160D+00 0.118D-01-0.276D+00
 Coeff-Com: -0.923D+00 0.629D+00 0.143D+01
 Coeff:     -0.428D-05-0.211D-04-0.247D-03-0.503D-03 0.777D-03 0.796D-02
 Coeff:     -0.550D-02-0.317D-01 0.131D-02 0.160D+00 0.118D-01-0.276D+00
 Coeff:     -0.923D+00 0.629D+00 0.143D+01
 Gap=     0.283 Goal=   None    Shift=    0.500
 RMSDP=6.46D-07 MaxDP=3.18D-05 DE=-1.39D-07 OVMax= 1.52D-04

 SCF Done:  E(RLC-wHPBE) =  -1776.27152568     A.U. after   15 cycles
            NFock= 15  Conv=0.65D-06     -V/T= 2.0037
 KE= 1.769686236276D+03 PE=-9.117255251259D+03 EE= 3.096612721944D+03
 Leave Link  502 at Mon Jan 18 12:41:15 2021, MaxMem=  4026531840 cpu:            4867.6 elap:             610.0
 (Enter /opt/ohpc/pub/libs/gaussian/g16-A.03/sandybridge/g16/l508.exe)
 QCSCF skips out because SCF is already converged.
 Leave Link  508 at Mon Jan 18 12:41:15 2021, MaxMem=  4026531840 cpu:               0.1 elap:               0.0
 (Enter /opt/ohpc/pub/libs/gaussian/g16-A.03/sandybridge/g16/l601.exe)
 Copying SCF densities to generalized density rwf, IOpCl= 0 IROHF=0.

 **********************************************************************

            Population analysis using the SCF density.

 **********************************************************************

 Orbital symmetries:
       Occupied  (A) (A) (A) (A) (A) (A) (A) (A) (A) (A) (A) (A)
                 (A) (A) (A) (A) (A) (A) (A) (A) (A) (A) (A) (A)
                 (A) (A) (A) (A) (A) (A) (A) (A) (A) (A) (A) (A)
                 (A) (A) (A) (A) (A) (A) (A) (A) (A) (A) (A) (A)
                 (A) (A) (A) (A) (A) (A) (A) (A) (A) (A) (A) (A)
                 (A) (A) (A) (A) (A) (A) (A) (A) (A) (A) (A) (A)
                 (A) (A) (A) (A) (A) (A) (A) (A) (A) (A) (A) (A)
                 (A) (A) (A) (A) (A) (A) (A) (A) (A) (A) (A) (A)
                 (A) (A) (A) (A) (A)
       Virtual   (A) (A) (A) (A) (A) (A) (A) (A) (A) (A) (A) (A)
                 (A) (A) (A) (A) (A) (A) (A) (A) (A) (A) (A) (A)
                 (A) (A) (A) (A) (A) (A) (A) (A) (A) (A) (A) (A)
                 (A) (A) (A) (A) (A) (A) (A) (A) (A) (A) (A) (A)
                 (A) (A) (A) (A) (A) (A) (A) (A) (A) (A) (A) (A)
                 (A) (A) (A) (A) (A) (A) (A) (A) (A) (A) (A) (A)
                 (A) (A) (A) (A) (A) (A) (A) (A) (A) (A) (A) (A)
                 (A) (A) (A) (A) (A) (A) (A) (A) (A) (A) (A) (A)
                 (A) (A) (A) (A) (A) (A) (A) (A) (A) (A) (A) (A)
                 (A) (A) (A) (A) (A) (A) (A) (A) (A) (A) (A) (A)
                 (A) (A) (A) (A) (A) (A) (A) (A) (A) (A) (A) (A)
                 (A) (A) (A) (A) (A) (A) (A) (A) (A) (A) (A) (A)
                 (A) (A) (A) (A) (A) (A) (A) (A) (A) (A) (A) (A)
                 (A) (A) (A) (A) (A) (A) (A) (A) (A) (A) (A) (A)
                 (A) (A) (A) (A) (A) (A) (A) (A) (A) (A) (A) (A)
                 (A) (A) (A) (A) (A) (A) (A) (A) (A) (A) (A) (A)
                 (A) (A) (A) (A) (A) (A) (A) (A) (A) (A) (A) (A)
                 (A) (A) (A) (A) (A) (A) (A) (A) (A) (A) (A) (A)
                 (A) (A) (A) (A) (A) (A) (A) (A) (A) (A) (A) (A)
                 (A) (A) (A) (A) (A) (A) (A) (A) (A) (A) (A) (A)
                 (A) (A) (A) (A) (A) (A) (A) (A) (A) (A) (A) (A)
                 (A) (A) (A) (A) (A) (A) (A) (A) (A) (A) (A) (A)
                 (A) (A) (A) (A) (A) (A) (A) (A) (A) (A) (A) (A)
                 (A) (A) (A) (A) (A) (A) (A) (A) (A) (A) (A) (A)
                 (A) (A) (A) (A) (A) (A) (A) (A) (A) (A) (A) (A)
                 (A) (A) (A) (A) (A) (A) (A) (A) (A) (A) (A) (A)
                 (A) (A) (A) (A) (A) (A) (A) (A) (A) (A) (A) (A)
                 (A) (A) (A) (A) (A) (A) (A) (A) (A) (A) (A) (A)
                 (A) (A) (A) (A) (A) (A) (A) (A) (A) (A) (A) (A)
                 (A) (A) (A) (A) (A) (A) (A) (A) (A) (A) (A) (A)
                 (A) (A) (A) (A) (A) (A) (A) (A) (A) (A) (A) (A)
                 (A) (A) (A) (A) (A) (A) (A) (A) (A) (A) (A) (A)
                 (A) (A) (A) (A) (A) (A) (A) (A) (A) (A) (A) (A)
                 (A) (A) (A) (A) (A) (A) (A) (A) (A) (A) (A) (A)
                 (A) (A) (A) (A) (A) (A) (A) (A) (A) (A) (A) (A)
                 (A) (A) (A) (A) (A) (A) (A) (A) (A) (A) (A) (A)
                 (A) (A) (A) (A) (A) (A) (A) (A) (A) (A) (A) (A)
                 (A) (A) (A) (A) (A) (A) (A) (A) (A) (A) (A) (A)
                 (A) (A) (A) (A) (A) (A) (A) (A) (A) (A) (A) (A)
                 (A) (A) (A) (A) (A) (A) (A) (A) (A) (A) (A) (A)
                 (A) (A) (A) (A) (A) (A) (A) (A) (A) (A) (A) (A)
                 (A) (A) (A) (A) (A) (A) (A) (A) (A) (A) (A) (A)
                 (A) (A) (A) (A) (A) (A) (A) (A) (A) (A) (A) (A)
                 (A) (A) (A) (A) (A) (A) (A) (A) (A) (A) (A) (A)
                 (A) (A) (A) (A)
 The electronic state is 1-A.
 Alpha  occ. eigenvalues --  -88.21653 -88.21571 -14.15069 -10.06488 -10.05905
 Alpha  occ. eigenvalues --  -10.05866 -10.05314 -10.04945 -10.04332 -10.02291
 Alpha  occ. eigenvalues --  -10.02264 -10.01878 -10.01846 -10.01816 -10.01813
 Alpha  occ. eigenvalues --  -10.01760 -10.01758 -10.01701 -10.01680 -10.01616
 Alpha  occ. eigenvalues --  -10.01614 -10.01593 -10.01434 -10.01395 -10.01268
 Alpha  occ. eigenvalues --  -10.01087 -10.01015  -7.80983  -7.80775  -5.83156
 Alpha  occ. eigenvalues --   -5.82976  -5.82663  -5.82456  -5.81898  -5.81686
 Alpha  occ. eigenvalues --   -1.03055  -0.93869  -0.92807  -0.92485  -0.90817
 Alpha  occ. eigenvalues --   -0.86254  -0.85103  -0.82957  -0.82400  -0.81501
 Alpha  occ. eigenvalues --   -0.81280  -0.81230  -0.78848  -0.77095  -0.74931
 Alpha  occ. eigenvalues --   -0.70419  -0.69831  -0.68019  -0.67847  -0.67399
 Alpha  occ. eigenvalues --   -0.66704  -0.64843  -0.64104  -0.61528  -0.61497
 Alpha  occ. eigenvalues --   -0.58770  -0.57184  -0.55810  -0.54779  -0.54627
 Alpha  occ. eigenvalues --   -0.53892  -0.52976  -0.52681  -0.51709  -0.51385
 Alpha  occ. eigenvalues --   -0.50718  -0.50466  -0.49987  -0.49700  -0.49529
 Alpha  occ. eigenvalues --   -0.49032  -0.48096  -0.47254  -0.46324  -0.46126
 Alpha  occ. eigenvalues --   -0.45934  -0.44533  -0.43718  -0.43126  -0.42718
 Alpha  occ. eigenvalues --   -0.42033  -0.41568  -0.41493  -0.41373  -0.39721
 Alpha  occ. eigenvalues --   -0.38251  -0.37633  -0.36391  -0.34726  -0.34705
 Alpha  occ. eigenvalues --   -0.34335  -0.33555  -0.33287  -0.30042  -0.27745
 Alpha  occ. eigenvalues --   -0.26334
 Alpha virt. eigenvalues --    0.01961   0.02462   0.03083   0.04327   0.04786
 Alpha virt. eigenvalues --    0.05136   0.05488   0.06351   0.07729   0.10023
 Alpha virt. eigenvalues --    0.11210   0.11494   0.11676   0.12697   0.13713
 Alpha virt. eigenvalues --    0.13954   0.14235   0.14585   0.15001   0.15406
 Alpha virt. eigenvalues --    0.15934   0.16170   0.16730   0.17195   0.17295
 Alpha virt. eigenvalues --    0.17686   0.17972   0.18666   0.19014   0.19471
 Alpha virt. eigenvalues --    0.19716   0.20203   0.20839   0.21262   0.22114
 Alpha virt. eigenvalues --    0.22775   0.24053   0.24784   0.25053   0.25414
 Alpha virt. eigenvalues --    0.25577   0.26063   0.26491   0.26648   0.26963
 Alpha virt. eigenvalues --    0.27432   0.27569   0.28211   0.28337   0.28656
 Alpha virt. eigenvalues --    0.28775   0.28998   0.29173   0.29409   0.29845
 Alpha virt. eigenvalues --    0.30145   0.30361   0.30840   0.30944   0.31548
 Alpha virt. eigenvalues --    0.31730   0.31851   0.32452   0.32571   0.33096
 Alpha virt. eigenvalues --    0.33504   0.33767   0.33866   0.34203   0.34648
 Alpha virt. eigenvalues --    0.35288   0.35719   0.36249   0.36458   0.36846
 Alpha virt. eigenvalues --    0.37110   0.37655   0.37867   0.38402   0.38968
 Alpha virt. eigenvalues --    0.39163   0.39665   0.39919   0.40633   0.40915
 Alpha virt. eigenvalues --    0.41642   0.41752   0.42497   0.42832   0.43062
 Alpha virt. eigenvalues --    0.43377   0.43871   0.44115   0.44191   0.44562
 Alpha virt. eigenvalues --    0.45015   0.45074   0.45321   0.45393   0.46196
 Alpha virt. eigenvalues --    0.46411   0.46490   0.47015   0.47473   0.47885
 Alpha virt. eigenvalues --    0.47917   0.48413   0.48583   0.48969   0.49054
 Alpha virt. eigenvalues --    0.49331   0.49784   0.50265   0.50531   0.51194
 Alpha virt. eigenvalues --    0.51321   0.51595   0.51883   0.52699   0.53083
 Alpha virt. eigenvalues --    0.53432   0.53688   0.54106   0.54767   0.55070
 Alpha virt. eigenvalues --    0.55582   0.55907   0.56439   0.56550   0.56825
 Alpha virt. eigenvalues --    0.57024   0.57150   0.57682   0.58034   0.58477
 Alpha virt. eigenvalues --    0.59395   0.59707   0.60610   0.61090   0.61597
 Alpha virt. eigenvalues --    0.62004   0.63123   0.63204   0.63952   0.64487
 Alpha virt. eigenvalues --    0.65319   0.66199   0.66857   0.67349   0.68063
 Alpha virt. eigenvalues --    0.68970   0.69585   0.71318   0.72169   0.72497
 Alpha virt. eigenvalues --    0.73015   0.73337   0.73567   0.73761   0.74334
 Alpha virt. eigenvalues --    0.74924   0.74962   0.75685   0.75894   0.76082
 Alpha virt. eigenvalues --    0.76549   0.76956   0.77276   0.77881   0.78690
 Alpha virt. eigenvalues --    0.78946   0.79159   0.80335   0.81695   0.82418
 Alpha virt. eigenvalues --    0.82512   0.83388   0.84089   0.84511   0.86192
 Alpha virt. eigenvalues --    0.86895   0.89251   0.90479   0.90897   0.91427
 Alpha virt. eigenvalues --    0.91954   0.93603   0.94276   0.96883   0.97389
 Alpha virt. eigenvalues --    0.97742   0.98577   0.99821   1.01318   1.02022
 Alpha virt. eigenvalues --    1.02653   1.09169   1.15175   1.19723   1.20626
 Alpha virt. eigenvalues --    1.20859   1.24255   1.24335   1.25476   1.26428
 Alpha virt. eigenvalues --    1.27567   1.27832   1.28194   1.28763   1.29118
 Alpha virt. eigenvalues --    1.30291   1.30508   1.30928   1.31108   1.31228
 Alpha virt. eigenvalues --    1.31780   1.32278   1.32507   1.32638   1.33315
 Alpha virt. eigenvalues --    1.33379   1.34076   1.34414   1.34817   1.35159
 Alpha virt. eigenvalues --    1.35561   1.35637   1.36445   1.37266   1.37686
 Alpha virt. eigenvalues --    1.38433   1.39072   1.39218   1.40093   1.40775
 Alpha virt. eigenvalues --    1.42416   1.44290   1.45152   1.45484   1.45905
 Alpha virt. eigenvalues --    1.46767   1.47275   1.47998   1.48334   1.48501
 Alpha virt. eigenvalues --    1.48620   1.48671   1.48863   1.49189   1.49308
 Alpha virt. eigenvalues --    1.49479   1.49790   1.50174   1.50420   1.50859
 Alpha virt. eigenvalues --    1.50982   1.51982   1.52420   1.52690   1.53042
 Alpha virt. eigenvalues --    1.53678   1.54393   1.54941   1.55129   1.55526
 Alpha virt. eigenvalues --    1.55876   1.56152   1.56184   1.57195   1.57233
 Alpha virt. eigenvalues --    1.57841   1.58463   1.59181   1.59669   1.60027
 Alpha virt. eigenvalues --    1.60383   1.60495   1.60907   1.60964   1.61223
 Alpha virt. eigenvalues --    1.61582   1.62007   1.62567   1.62809   1.63104
 Alpha virt. eigenvalues --    1.63234   1.64319   1.64483   1.65122   1.65701
 Alpha virt. eigenvalues --    1.66336   1.66365   1.70112   1.70457   1.71119
 Alpha virt. eigenvalues --    1.71292   1.72118   1.73903   1.75020   1.75795
 Alpha virt. eigenvalues --    1.76566   1.76962   1.79793   1.80403   1.80804
 Alpha virt. eigenvalues --    1.81125   1.81414   1.81494   1.82259   1.82497
 Alpha virt. eigenvalues --    1.83138   1.83480   1.83805   1.84204   1.84788
 Alpha virt. eigenvalues --    1.85379   1.85939   1.86366   1.86775   1.86877
 Alpha virt. eigenvalues --    1.87999   1.88621   1.89322   1.91548   1.91903
 Alpha virt. eigenvalues --    1.92570   1.92998   1.93291   1.93476   1.93769
 Alpha virt. eigenvalues --    1.94272   1.95205   1.95264   1.95558   1.96111
 Alpha virt. eigenvalues --    1.96389   1.96791   1.96963   1.97415   1.97543
 Alpha virt. eigenvalues --    1.98028   1.98167   1.98297   1.99360   2.00323
 Alpha virt. eigenvalues --    2.01704   2.01778   2.01871   2.02077   2.02894
 Alpha virt. eigenvalues --    2.03739   2.04079   2.04805   2.05655   2.05898
 Alpha virt. eigenvalues --    2.06821   2.07564   2.08149   2.08417   2.10414
 Alpha virt. eigenvalues --    2.12238   2.13206   2.13935   2.14963   2.16051
 Alpha virt. eigenvalues --    2.17139   2.18917   2.19915   2.23317   2.23710
 Alpha virt. eigenvalues --    2.24664   2.26594   2.27374   2.28215   2.28646
 Alpha virt. eigenvalues --    2.30977   2.31249   2.32873   2.33949   2.34099
 Alpha virt. eigenvalues --    2.34952   2.35281   2.35624   2.35883   2.36068
 Alpha virt. eigenvalues --    2.36343   2.36698   2.37073   2.37293   2.37878
 Alpha virt. eigenvalues --    2.38098   2.38503   2.38831   2.39336   2.39686
 Alpha virt. eigenvalues --    2.39905   2.39956   2.41328   2.41568   2.41631
 Alpha virt. eigenvalues --    2.42600   2.42874   2.44428   2.47061   2.48478
 Alpha virt. eigenvalues --    2.49886   2.50431   2.51185   2.53652   2.54882
 Alpha virt. eigenvalues --    2.55135   2.56081   2.56240   2.56386   2.57195
 Alpha virt. eigenvalues --    2.57611   2.58291   2.60227   2.60517   2.61459
 Alpha virt. eigenvalues --    2.62929   2.63189   2.64077   2.65044   2.66381
 Alpha virt. eigenvalues --    2.67253   2.68147   2.69041   2.69098   2.69268
 Alpha virt. eigenvalues --    2.69495   2.70067   2.70284   2.70581   2.70816
 Alpha virt. eigenvalues --    2.71650   2.71880   2.73625   2.77619   2.78330
 Alpha virt. eigenvalues --    2.78852   2.79465   2.80682   2.81929   2.82782
 Alpha virt. eigenvalues --    2.83657   2.85009   2.86816   2.87405   2.88523
 Alpha virt. eigenvalues --    2.88815   2.89802   2.90815   2.92968   3.00026
 Alpha virt. eigenvalues --    3.01694   3.01856   3.02949   3.03660   3.05578
 Alpha virt. eigenvalues --    3.06121   3.06661   3.07336   3.07627   3.08411
 Alpha virt. eigenvalues --    3.09391   3.11348   3.13840   3.14159   3.14299
 Alpha virt. eigenvalues --    3.16019   3.16579   3.16860   3.18560   3.18986
 Alpha virt. eigenvalues --    3.19844   3.21178   3.21471   3.21905   3.23599
 Alpha virt. eigenvalues --    3.24058   3.24296   3.25196   3.25278   3.27414
 Alpha virt. eigenvalues --    3.30118   3.32562   3.37172   3.37507   3.38062
 Alpha virt. eigenvalues --    3.40267   3.43436   3.44481   3.45257   3.50561
 Alpha virt. eigenvalues --    3.56495   3.58682   3.59388   3.59546   3.61882
 Alpha virt. eigenvalues --    3.66185   3.74952   3.84380   3.95202   3.97275
 Alpha virt. eigenvalues --   18.78447  19.03627  21.07454  21.22472  21.24831
 Alpha virt. eigenvalues --   21.36314  21.64172  21.71425  21.72391  21.74512
 Alpha virt. eigenvalues --   21.75758  21.76603  21.83464  21.88967  21.93119
 Alpha virt. eigenvalues --   21.94374  21.94942  21.98410  22.00490  22.01089
 Alpha virt. eigenvalues --   22.06118  22.06229  22.10213  22.13483  22.18839
 Alpha virt. eigenvalues --   22.19533  32.06764
          Condensed to atoms (all electrons):
               1          2          3          4          5          6
     1  C    5.804842   0.101397  -0.153479  -0.069094   0.004422  -0.037991
     2  C    0.101397   5.853846   0.437355  -0.030476  -0.012675  -0.012349
     3  S   -0.153479   0.437355  15.540604  -0.101305  -0.132791   0.410963
     4  C   -0.069094  -0.030476  -0.101305   5.943928  -0.003646   0.034406
     5  C    0.004422  -0.012675  -0.132791  -0.003646   5.602312   0.037828
     6  C   -0.037991  -0.012349   0.410963   0.034406   0.037828   5.884212
     7  C    0.093753   0.117116   0.028868  -0.170024  -0.004267  -0.010034
     8  C   -0.397730   0.103530   0.025584  -0.019854  -0.000199  -0.003651
     9  H    0.000947   0.019890   0.000106  -0.033463   0.000007  -0.000004
    10  C   -0.002940   0.001264   0.040565   0.001071   0.011259   0.186286
    11  C    0.004943  -0.009706  -0.145661  -0.007280   0.225742  -0.112101
    12  C    0.000009  -0.000531   0.046490   0.000510  -0.299765   0.255750
    13  C    0.000070  -0.002593  -0.013980  -0.000539   0.205986  -0.299862
    14  H    0.000002  -0.000014  -0.000132   0.000003  -0.044371   0.015917
    15  H    0.002758  -0.001288  -0.008542  -0.001803   0.029393  -0.094772
    16  H    0.000042   0.000038  -0.000107   0.000006  -0.003318   0.016300
    17  C    0.215350  -0.199873  -0.006391   0.203703   0.000253   0.002173
    18  H    0.423358  -0.090811  -0.018592   0.007433  -0.002153   0.020241
    19  H    0.001059  -0.000482  -0.002425  -0.000839   0.450386  -0.091145
    20  H   -0.064912   0.023259  -0.000057  -0.002250  -0.000008   0.000031
    21  H   -0.003324   0.030590  -0.000122  -0.117456  -0.000003   0.000016
    22  H    0.023785  -0.004756  -0.000002   0.026773   0.000003   0.000008
    23  S    0.033958  -0.150876   0.020035   0.473192   0.000158   0.000056
    24  N   -0.000031  -0.000011  -0.000032  -0.000000   0.016126   0.002402
    25  C    0.000015  -0.000013   0.000017  -0.000001  -0.005645   0.002787
    26  C   -0.000001   0.000001  -0.000000   0.000000  -0.000380   0.000209
    27  C    0.000004  -0.000004   0.000006  -0.000000   0.003012  -0.001192
    28  C   -0.000000   0.000000  -0.000000   0.000000  -0.000050   0.000015
    29  C    0.000000  -0.000000   0.000000  -0.000000   0.000088  -0.000108
    30  C   -0.000000   0.000000   0.000000   0.000000   0.000015  -0.000006
    31  H    0.000000  -0.000000   0.000000  -0.000000   0.000008  -0.000002
    32  H    0.000000  -0.000001   0.000008  -0.000000  -0.000217   0.000941
    33  H    0.000000  -0.000000   0.000000  -0.000000   0.000000  -0.000000
    34  H    0.000000  -0.000000  -0.000000   0.000000  -0.000001  -0.000002
    35  H   -0.000000   0.000000  -0.000000   0.000000  -0.000000  -0.000000
    36  C    0.000005  -0.000005  -0.000028  -0.000000  -0.002890   0.001124
    37  C    0.000003  -0.000000   0.000002  -0.000000   0.000781   0.000304
    38  C   -0.000170   0.000015  -0.000019   0.000002  -0.006435  -0.001817
    39  C   -0.000000  -0.000000  -0.000000   0.000000   0.000037   0.000023
    40  C   -0.000014   0.000001  -0.000001   0.000000  -0.000517  -0.000137
    41  C    0.000000  -0.000000   0.000000  -0.000000  -0.000057  -0.000002
    42  H   -0.000000   0.000000  -0.000000   0.000000   0.000010  -0.000008
    43  H    0.000090   0.000012   0.000000  -0.000001  -0.002615   0.000556
    44  H   -0.000000   0.000000  -0.000000   0.000000  -0.000002  -0.000000
    45  H   -0.000000  -0.000000  -0.000000   0.000000   0.000023  -0.000003
    46  H    0.000000  -0.000000   0.000000  -0.000000  -0.000001  -0.000000
               7          8          9         10         11         12
     1  C    0.093753  -0.397730   0.000947  -0.002940   0.004943   0.000009
     2  C    0.117116   0.103530   0.019890   0.001264  -0.009706  -0.000531
     3  S    0.028868   0.025584   0.000106   0.040565  -0.145661   0.046490
     4  C   -0.170024  -0.019854  -0.033463   0.001071  -0.007280   0.000510
     5  C   -0.004267  -0.000199   0.000007   0.011259   0.225742  -0.299765
     6  C   -0.010034  -0.003651  -0.000004   0.186286  -0.112101   0.255750
     7  C    5.289969   0.240448  -0.001061   0.000708  -0.004466   0.001078
     8  C    0.240448   5.928891  -0.036696  -0.000025   0.000816   0.000027
     9  H   -0.001061  -0.036696   0.620764  -0.000000  -0.000000  -0.000000
    10  C    0.000708  -0.000025  -0.000000   5.656815  -0.289509   0.076352
    11  C   -0.004466   0.000816  -0.000000  -0.289509   5.755831  -0.073223
    12  C    0.001078   0.000027  -0.000000   0.076352  -0.073223   5.740464
    13  C   -0.000249   0.000026   0.000000   0.134882   0.246337   0.090199
    14  H    0.000002  -0.000000  -0.000000   0.411331  -0.003061   0.013535
    15  H   -0.000926  -0.000014   0.000001  -0.009053   0.466074  -0.082929
    16  H    0.000012  -0.000000  -0.000000   0.013842  -0.042907   0.410581
    17  C    0.243465  -0.049211   0.005948  -0.000014  -0.000230  -0.000027
    18  H   -0.036352   0.001853   0.000004   0.001233  -0.000648  -0.000171
    19  H   -0.000426   0.000017   0.000000  -0.078050   0.036078  -0.012064
    20  H    0.425276   0.021077  -0.000003  -0.000004  -0.000024  -0.000009
    21  H    0.016672   0.446504  -0.001333   0.000000   0.000007   0.000000
    22  H   -0.070174  -0.078549   0.000045  -0.000000   0.000000  -0.000000
    23  S   -0.010315  -0.146960   0.329431   0.000007   0.000088   0.000002
    24  N    0.000002  -0.000000   0.000000  -0.015880   0.015197  -0.019164
    25  C    0.000002   0.000000  -0.000000  -0.003778  -0.005819   0.034013
    26  C   -0.000000  -0.000000   0.000000  -0.011067   0.000937   0.021175
    27  C   -0.000000   0.000000  -0.000000   0.019736  -0.007080  -0.070020
    28  C    0.000000  -0.000000  -0.000000  -0.000260   0.000029   0.002989
    29  C    0.000000   0.000000  -0.000000   0.001143  -0.000818  -0.010535
    30  C   -0.000000  -0.000000   0.000000   0.000031  -0.000015  -0.000421
    31  H    0.000000   0.000000  -0.000000  -0.000278  -0.000017   0.000435
    32  H    0.000000   0.000000   0.000000   0.000095  -0.002568   0.004143
    33  H    0.000000   0.000000  -0.000000   0.000002  -0.000002  -0.000035
    34  H    0.000000   0.000000  -0.000000  -0.000024   0.000018   0.000041
    35  H   -0.000000  -0.000000   0.000000   0.000000  -0.000001  -0.000013
    36  C   -0.000001   0.000000   0.000000   0.020918  -0.002629  -0.009902
    37  C    0.000000   0.000000  -0.000000   0.022205  -0.000595  -0.010294
    38  C    0.000013  -0.000000   0.000000  -0.068415   0.003323   0.016660
    39  C   -0.000000  -0.000000  -0.000000   0.002933  -0.000060  -0.000177
    40  C    0.000000  -0.000000   0.000000  -0.010704   0.000107   0.001010
    41  C    0.000000   0.000000  -0.000000  -0.000167   0.000010   0.000033
    42  H   -0.000000  -0.000000   0.000000   0.000425   0.000023  -0.000358
    43  H    0.000004   0.000000   0.000000   0.005008   0.000177  -0.000639
    44  H   -0.000000  -0.000000   0.000000  -0.000037   0.000000   0.000002
    45  H    0.000000   0.000000  -0.000000   0.000005   0.000000  -0.000026
    46  H    0.000000   0.000000  -0.000000  -0.000013  -0.000000   0.000000
              13         14         15         16         17         18
     1  C    0.000070   0.000002   0.002758   0.000042   0.215350   0.423358
     2  C   -0.002593  -0.000014  -0.001288   0.000038  -0.199873  -0.090811
     3  S   -0.013980  -0.000132  -0.008542  -0.000107  -0.006391  -0.018592
     4  C   -0.000539   0.000003  -0.001803   0.000006   0.203703   0.007433
     5  C    0.205986  -0.044371   0.029393  -0.003318   0.000253  -0.002153
     6  C   -0.299862   0.015917  -0.094772   0.016300   0.002173   0.020241
     7  C   -0.000249   0.000002  -0.000926   0.000012   0.243465  -0.036352
     8  C    0.000026  -0.000000  -0.000014  -0.000000  -0.049211   0.001853
     9  H    0.000000  -0.000000   0.000001  -0.000000   0.005948   0.000004
    10  C    0.134882   0.411331  -0.009053   0.013842  -0.000014   0.001233
    11  C    0.246337  -0.003061   0.466074  -0.042907  -0.000230  -0.000648
    12  C    0.090199   0.013535  -0.082929   0.410581  -0.000027  -0.000171
    13  C    5.617140  -0.048540   0.027066  -0.049781  -0.000011  -0.001382
    14  H   -0.048540   0.507961  -0.000027  -0.000200   0.000000   0.000098
    15  H    0.027066  -0.000027   0.555495  -0.008064   0.000098   0.000618
    16  H   -0.049781  -0.000200  -0.008064   0.505354  -0.000000   0.000029
    17  C   -0.000011   0.000000   0.000098  -0.000000   5.342778   0.009642
    18  H   -0.001382   0.000098   0.000618   0.000029   0.009642   0.528439
    19  H    0.026979  -0.008207   0.000206  -0.000039   0.000015   0.000633
    20  H   -0.000012  -0.000000  -0.000008   0.000000  -0.068701  -0.008287
    21  H    0.000000   0.000000  -0.000000   0.000000  -0.052227   0.000023
    22  H    0.000000  -0.000000   0.000000  -0.000000   0.434720  -0.000305
    23  S   -0.000000   0.000000   0.000169  -0.000000   0.040666  -0.000052
    24  N    0.197766  -0.007924  -0.000312  -0.008121   0.000000   0.000034
    25  C   -0.081778  -0.000895  -0.000239   0.004885  -0.000000  -0.000002
    26  C   -0.013256  -0.000260  -0.000028  -0.000299   0.000000   0.000003
    27  C    0.023971   0.000178  -0.000051  -0.001311  -0.000000  -0.000008
    28  C   -0.004341   0.000008  -0.000002   0.000462  -0.000000   0.000000
    29  C    0.003406  -0.000008   0.000010  -0.001450  -0.000000  -0.000000
    30  C    0.001606  -0.000003   0.000001   0.000306   0.000000   0.000000
    31  H   -0.001375  -0.000006  -0.000001   0.000053  -0.000000  -0.000000
    32  H   -0.002428   0.000021  -0.000063   0.001175   0.000000   0.000001
    33  H    0.000010  -0.000000  -0.000000   0.000009  -0.000000  -0.000000
    34  H   -0.000154  -0.000000  -0.000000  -0.000023  -0.000000   0.000000
    35  H    0.000014   0.000000   0.000000   0.000005   0.000000   0.000000
    36  C   -0.064734   0.004102   0.000064  -0.001331  -0.000000  -0.000074
    37  C   -0.016615  -0.000395  -0.000001  -0.000218  -0.000000  -0.000005
    38  C    0.026377  -0.001340  -0.000006   0.000159   0.000000   0.000232
    39  C   -0.004261   0.000482   0.000000   0.000009   0.000000   0.000000
    40  C    0.004416  -0.001386  -0.000000  -0.000005   0.000000   0.000030
    41  C    0.001248   0.000384  -0.000000  -0.000002  -0.000000  -0.000000
    42  H   -0.001380   0.000020   0.000000  -0.000011   0.000000  -0.000000
    43  H   -0.002171   0.001017  -0.000000  -0.000016  -0.000000   0.000097
    44  H    0.000016   0.000008  -0.000000  -0.000000   0.000000   0.000000
    45  H   -0.000133  -0.000027   0.000000  -0.000000  -0.000000  -0.000000
    46  H    0.000014   0.000005  -0.000000   0.000000  -0.000000  -0.000000
              19         20         21         22         23         24
     1  C    0.001059  -0.064912  -0.003324   0.023785   0.033958  -0.000031
     2  C   -0.000482   0.023259   0.030590  -0.004756  -0.150876  -0.000011
     3  S   -0.002425  -0.000057  -0.000122  -0.000002   0.020035  -0.000032
     4  C   -0.000839  -0.002250  -0.117456   0.026773   0.473192  -0.000000
     5  C    0.450386  -0.000008  -0.000003   0.000003   0.000158   0.016126
     6  C   -0.091145   0.000031   0.000016   0.000008   0.000056   0.002402
     7  C   -0.000426   0.425276   0.016672  -0.070174  -0.010315   0.000002
     8  C    0.000017   0.021077   0.446504  -0.078549  -0.146960  -0.000000
     9  H    0.000000  -0.000003  -0.001333   0.000045   0.329431   0.000000
    10  C   -0.078050  -0.000004   0.000000  -0.000000   0.000007  -0.015880
    11  C    0.036078  -0.000024   0.000007   0.000000   0.000088   0.015197
    12  C   -0.012064  -0.000009   0.000000  -0.000000   0.000002  -0.019164
    13  C    0.026979  -0.000012   0.000000   0.000000  -0.000000   0.197766
    14  H   -0.008207  -0.000000   0.000000  -0.000000   0.000000  -0.007924
    15  H    0.000206  -0.000008  -0.000000   0.000000   0.000169  -0.000312
    16  H   -0.000039   0.000000   0.000000  -0.000000  -0.000000  -0.008121
    17  C    0.000015  -0.068701  -0.052227   0.434720   0.040666   0.000000
    18  H    0.000633  -0.008287   0.000023  -0.000305  -0.000052   0.000034
    19  H    0.558900  -0.000000   0.000000  -0.000000  -0.000008  -0.000344
    20  H   -0.000000   0.578833  -0.000312  -0.008868  -0.000028   0.000000
    21  H    0.000000  -0.000312   0.598431  -0.009883  -0.017440   0.000000
    22  H   -0.000000  -0.008868  -0.009883   0.581428  -0.000028   0.000000
    23  S   -0.000008  -0.000028  -0.017440  -0.000028  15.476122   0.000000
    24  N   -0.000344   0.000000   0.000000   0.000000   0.000000   6.528775
    25  C    0.000019  -0.000000   0.000000  -0.000000  -0.000000   0.143618
    26  C    0.000001   0.000000  -0.000000   0.000000   0.000000  -0.004924
    27  C   -0.000020   0.000000   0.000000  -0.000000  -0.000000  -0.006562
    28  C    0.000000   0.000000  -0.000000   0.000000  -0.000000   0.014000
    29  C   -0.000001   0.000000   0.000000  -0.000000  -0.000000   0.014858
    30  C    0.000000   0.000000  -0.000000   0.000000   0.000000   0.005701
    31  H   -0.000000   0.000000   0.000000  -0.000000  -0.000000  -0.007337
    32  H   -0.000008  -0.000000   0.000000  -0.000000   0.000000  -0.005956
    33  H   -0.000000  -0.000000   0.000000  -0.000000  -0.000000  -0.000595
    34  H    0.000000  -0.000000   0.000000  -0.000000   0.000000  -0.000622
    35  H    0.000000   0.000000  -0.000000   0.000000   0.000000  -0.000048
    36  C   -0.000039   0.000000   0.000000  -0.000000  -0.000000   0.145352
    37  C   -0.000040   0.000000   0.000000  -0.000000  -0.000000  -0.005916
    38  C    0.000075  -0.000001  -0.000000   0.000000   0.000000  -0.003655
    39  C   -0.000002  -0.000000  -0.000000   0.000000   0.000000   0.013423
    40  C    0.000030  -0.000000  -0.000000   0.000000   0.000000   0.014376
    41  C   -0.000004   0.000000   0.000000  -0.000000  -0.000000   0.005814
    42  H    0.000000   0.000000   0.000000   0.000000  -0.000000  -0.007190
    43  H   -0.000068   0.000007   0.000000  -0.000000  -0.000000  -0.007044
    44  H    0.000000  -0.000000  -0.000000   0.000000   0.000000  -0.000597
    45  H    0.000000   0.000000  -0.000000   0.000000   0.000000  -0.000605
    46  H   -0.000000   0.000000   0.000000  -0.000000  -0.000000  -0.000048
              25         26         27         28         29         30
     1  C    0.000015  -0.000001   0.000004  -0.000000   0.000000  -0.000000
     2  C   -0.000013   0.000001  -0.000004   0.000000  -0.000000   0.000000
     3  S    0.000017  -0.000000   0.000006  -0.000000   0.000000   0.000000
     4  C   -0.000001   0.000000  -0.000000   0.000000  -0.000000   0.000000
     5  C   -0.005645  -0.000380   0.003012  -0.000050   0.000088   0.000015
     6  C    0.002787   0.000209  -0.001192   0.000015  -0.000108  -0.000006
     7  C    0.000002  -0.000000  -0.000000   0.000000   0.000000  -0.000000
     8  C    0.000000  -0.000000   0.000000  -0.000000   0.000000  -0.000000
     9  H   -0.000000   0.000000  -0.000000  -0.000000  -0.000000   0.000000
    10  C   -0.003778  -0.011067   0.019736  -0.000260   0.001143   0.000031
    11  C   -0.005819   0.000937  -0.007080   0.000029  -0.000818  -0.000015
    12  C    0.034013   0.021175  -0.070020   0.002989  -0.010535  -0.000421
    13  C   -0.081778  -0.013256   0.023971  -0.004341   0.003406   0.001606
    14  H   -0.000895  -0.000260   0.000178   0.000008  -0.000008  -0.000003
    15  H   -0.000239  -0.000028  -0.000051  -0.000002   0.000010   0.000001
    16  H    0.004885  -0.000299  -0.001311   0.000462  -0.001450   0.000306
    17  C   -0.000000   0.000000  -0.000000  -0.000000  -0.000000   0.000000
    18  H   -0.000002   0.000003  -0.000008   0.000000  -0.000000   0.000000
    19  H    0.000019   0.000001  -0.000020   0.000000  -0.000001   0.000000
    20  H   -0.000000   0.000000   0.000000   0.000000   0.000000   0.000000
    21  H    0.000000  -0.000000   0.000000  -0.000000   0.000000  -0.000000
    22  H   -0.000000   0.000000  -0.000000   0.000000  -0.000000   0.000000
    23  S   -0.000000   0.000000  -0.000000  -0.000000  -0.000000   0.000000
    24  N    0.143618  -0.004924  -0.006562   0.014000   0.014858   0.005701
    25  C    5.470349   0.364257   0.358386   0.011515   0.008951  -0.095547
    26  C    0.364257   5.193107  -0.044179   0.378250  -0.134754  -0.026197
    27  C    0.358386  -0.044179   5.237988  -0.131106   0.371559  -0.028026
    28  C    0.011515   0.378250  -0.131106   5.069534   0.025313   0.439211
    29  C    0.008951  -0.134754   0.371559   0.025313   5.070880   0.443004
    30  C   -0.095547  -0.026197  -0.028026   0.439211   0.443004   5.038208
    31  H   -0.033695   0.402479   0.013037  -0.045745  -0.001775   0.010177
    32  H   -0.035108   0.012565   0.399422  -0.001530  -0.038492   0.009609
    33  H    0.018028  -0.050267  -0.002434   0.417538   0.016056  -0.065445
    34  H    0.017477  -0.002261  -0.049114   0.015730   0.416289  -0.064421
    35  H   -0.008034   0.023499   0.024073  -0.068346  -0.067982   0.431501
    36  C   -0.088958   0.032371  -0.007889  -0.003033  -0.006468   0.002919
    37  C    0.030272  -0.059519   0.010724  -0.004983   0.004801  -0.001585
    38  C   -0.005362   0.008930  -0.009216   0.000758  -0.000237   0.000046
    39  C   -0.003811  -0.004245   0.000786  -0.000160   0.000108  -0.000060
    40  C   -0.006681   0.005183  -0.000326   0.000144  -0.000074   0.000033
    41  C    0.003182  -0.001894   0.000083  -0.000077   0.000035  -0.000021
    42  H    0.004305   0.000890  -0.001731  -0.001565   0.000545   0.000421
    43  H   -0.001087   0.000359  -0.000248  -0.000015   0.000018  -0.000007
    44  H   -0.000237   0.000145  -0.000040   0.000023  -0.000005   0.000001
    45  H   -0.000008  -0.000017   0.000001  -0.000001   0.000000   0.000000
    46  H    0.000023  -0.000024   0.000001  -0.000001   0.000000  -0.000000
              31         32         33         34         35         36
     1  C    0.000000   0.000000   0.000000   0.000000  -0.000000   0.000005
     2  C   -0.000000  -0.000001  -0.000000  -0.000000   0.000000  -0.000005
     3  S    0.000000   0.000008   0.000000  -0.000000  -0.000000  -0.000028
     4  C   -0.000000  -0.000000  -0.000000   0.000000   0.000000  -0.000000
     5  C    0.000008  -0.000217   0.000000  -0.000001  -0.000000  -0.002890
     6  C   -0.000002   0.000941  -0.000000  -0.000002  -0.000000   0.001124
     7  C    0.000000   0.000000   0.000000   0.000000  -0.000000  -0.000001
     8  C    0.000000   0.000000   0.000000   0.000000  -0.000000   0.000000
     9  H   -0.000000   0.000000  -0.000000  -0.000000   0.000000   0.000000
    10  C   -0.000278   0.000095   0.000002  -0.000024   0.000000   0.020918
    11  C   -0.000017  -0.002568  -0.000002   0.000018  -0.000001  -0.002629
    12  C    0.000435   0.004143  -0.000035   0.000041  -0.000013  -0.009902
    13  C   -0.001375  -0.002428   0.000010  -0.000154   0.000014  -0.064734
    14  H   -0.000006   0.000021  -0.000000  -0.000000   0.000000   0.004102
    15  H   -0.000001  -0.000063  -0.000000  -0.000000   0.000000   0.000064
    16  H    0.000053   0.001175   0.000009  -0.000023   0.000005  -0.001331
    17  C   -0.000000   0.000000  -0.000000  -0.000000   0.000000  -0.000000
    18  H   -0.000000   0.000001  -0.000000   0.000000   0.000000  -0.000074
    19  H   -0.000000  -0.000008  -0.000000   0.000000   0.000000  -0.000039
    20  H    0.000000  -0.000000  -0.000000  -0.000000   0.000000   0.000000
    21  H    0.000000   0.000000   0.000000   0.000000  -0.000000   0.000000
    22  H   -0.000000  -0.000000  -0.000000  -0.000000   0.000000  -0.000000
    23  S   -0.000000   0.000000  -0.000000   0.000000   0.000000  -0.000000
    24  N   -0.007337  -0.005956  -0.000595  -0.000622  -0.000048   0.145352
    25  C   -0.033695  -0.035108   0.018028   0.017477  -0.008034  -0.088958
    26  C    0.402479   0.012565  -0.050267  -0.002261   0.023499   0.032371
    27  C    0.013037   0.399422  -0.002434  -0.049114   0.024073  -0.007889
    28  C   -0.045745  -0.001530   0.417538   0.015730  -0.068346  -0.003033
    29  C   -0.001775  -0.038492   0.016056   0.416289  -0.067982  -0.006468
    30  C    0.010177   0.009609  -0.065445  -0.064421   0.431501   0.002919
    31  H    0.520579  -0.000224  -0.007047   0.000010  -0.000073   0.003752
    32  H   -0.000224   0.510808   0.000008  -0.006839  -0.000072  -0.001439
    33  H   -0.007047   0.000008   0.572546  -0.000197  -0.008410  -0.000236
    34  H    0.000010  -0.006839  -0.000197   0.571063  -0.008314  -0.000004
    35  H   -0.000073  -0.000072  -0.008410  -0.008314   0.571898   0.000023
    36  C    0.003752  -0.001439  -0.000236  -0.000004   0.000023   5.479574
    37  C    0.001306   0.000628   0.000136  -0.000025  -0.000024   0.355574
    38  C   -0.001569  -0.000334  -0.000038   0.000002   0.000001   0.349254
    39  C   -0.001635   0.000002   0.000022  -0.000002  -0.000001   0.016482
    40  C    0.000410   0.000015  -0.000005   0.000000   0.000000   0.020748
    41  C    0.000462  -0.000006   0.000001   0.000000  -0.000000  -0.100044
    42  H    0.000861   0.000075  -0.000035   0.000004   0.000002  -0.033640
    43  H    0.000112  -0.000009   0.000000  -0.000000  -0.000000  -0.033793
    44  H   -0.000037   0.000000  -0.000000  -0.000000   0.000000   0.018402
    45  H    0.000001  -0.000000  -0.000000  -0.000000  -0.000000   0.017801
    46  H    0.000002  -0.000000   0.000000  -0.000000  -0.000000  -0.008344
              37         38         39         40         41         42
     1  C    0.000003  -0.000170  -0.000000  -0.000014   0.000000  -0.000000
     2  C   -0.000000   0.000015  -0.000000   0.000001  -0.000000   0.000000
     3  S    0.000002  -0.000019  -0.000000  -0.000001   0.000000  -0.000000
     4  C   -0.000000   0.000002   0.000000   0.000000  -0.000000   0.000000
     5  C    0.000781  -0.006435   0.000037  -0.000517  -0.000057   0.000010
     6  C    0.000304  -0.001817   0.000023  -0.000137  -0.000002  -0.000008
     7  C    0.000000   0.000013  -0.000000   0.000000   0.000000  -0.000000
     8  C    0.000000  -0.000000  -0.000000  -0.000000   0.000000  -0.000000
     9  H   -0.000000   0.000000  -0.000000   0.000000  -0.000000   0.000000
    10  C    0.022205  -0.068415   0.002933  -0.010704  -0.000167   0.000425
    11  C   -0.000595   0.003323  -0.000060   0.000107   0.000010   0.000023
    12  C   -0.010294   0.016660  -0.000177   0.001010   0.000033  -0.000358
    13  C   -0.016615   0.026377  -0.004261   0.004416   0.001248  -0.001380
    14  H   -0.000395  -0.001340   0.000482  -0.001386   0.000384   0.000020
    15  H   -0.000001  -0.000006   0.000000  -0.000000  -0.000000   0.000000
    16  H   -0.000218   0.000159   0.000009  -0.000005  -0.000002  -0.000011
    17  C   -0.000000   0.000000   0.000000   0.000000  -0.000000   0.000000
    18  H   -0.000005   0.000232   0.000000   0.000030  -0.000000  -0.000000
    19  H   -0.000040   0.000075  -0.000002   0.000030  -0.000004   0.000000
    20  H    0.000000  -0.000001  -0.000000  -0.000000   0.000000   0.000000
    21  H    0.000000  -0.000000  -0.000000  -0.000000   0.000000   0.000000
    22  H   -0.000000   0.000000   0.000000   0.000000  -0.000000   0.000000
    23  S   -0.000000   0.000000   0.000000   0.000000  -0.000000  -0.000000
    24  N   -0.005916  -0.003655   0.013423   0.014376   0.005814  -0.007190
    25  C    0.030272  -0.005362  -0.003811  -0.006681   0.003182   0.004305
    26  C   -0.059519   0.008930  -0.004245   0.005183  -0.001894   0.000890
    27  C    0.010724  -0.009216   0.000786  -0.000326   0.000083  -0.001731
    28  C   -0.004983   0.000758  -0.000160   0.000144  -0.000077  -0.001565
    29  C    0.004801  -0.000237   0.000108  -0.000074   0.000035   0.000545
    30  C   -0.001585   0.000046  -0.000060   0.000033  -0.000021   0.000421
    31  H    0.001306  -0.001569  -0.001635   0.000410   0.000462   0.000861
    32  H    0.000628  -0.000334   0.000002   0.000015  -0.000006   0.000075
    33  H    0.000136  -0.000038   0.000022  -0.000005   0.000001  -0.000035
    34  H   -0.000025   0.000002  -0.000002   0.000000   0.000000   0.000004
    35  H   -0.000024   0.000001  -0.000001   0.000000  -0.000000   0.000002
    36  C    0.355574   0.349254   0.016482   0.020748  -0.100044  -0.033640
    37  C    5.197615  -0.036659   0.375157  -0.140925  -0.022934   0.402339
    38  C   -0.036659   5.245430  -0.136349   0.358882  -0.021239   0.013139
    39  C    0.375157  -0.136349   5.072136   0.030847   0.436048  -0.045665
    40  C   -0.140925   0.358882   0.030847   5.086105   0.436326  -0.001823
    41  C   -0.022934  -0.021239   0.436048   0.436326   5.039256   0.010193
    42  H    0.402339   0.013139  -0.045665  -0.001823   0.010193   0.519257
    43  H    0.013173   0.396415  -0.001535  -0.041034   0.009513  -0.000230
    44  H   -0.050637  -0.002747   0.418181   0.016482  -0.066149  -0.007037
    45  H   -0.002382  -0.050616   0.015896   0.417146  -0.064021   0.000009
    46  H    0.023848   0.024716  -0.068997  -0.069463   0.432831  -0.000068
              43         44         45         46
     1  C    0.000090  -0.000000  -0.000000   0.000000
     2  C    0.000012   0.000000  -0.000000  -0.000000
     3  S    0.000000  -0.000000  -0.000000   0.000000
     4  C   -0.000001   0.000000   0.000000  -0.000000
     5  C   -0.002615  -0.000002   0.000023  -0.000001
     6  C    0.000556  -0.000000  -0.000003  -0.000000
     7  C    0.000004  -0.000000   0.000000   0.000000
     8  C    0.000000  -0.000000   0.000000   0.000000
     9  H    0.000000   0.000000  -0.000000  -0.000000
    10  C    0.005008  -0.000037   0.000005  -0.000013
    11  C    0.000177   0.000000   0.000000  -0.000000
    12  C   -0.000639   0.000002  -0.000026   0.000000
    13  C   -0.002171   0.000016  -0.000133   0.000014
    14  H    0.001017   0.000008  -0.000027   0.000005
    15  H   -0.000000  -0.000000   0.000000  -0.000000
    16  H   -0.000016  -0.000000  -0.000000   0.000000
    17  C   -0.000000   0.000000  -0.000000  -0.000000
    18  H    0.000097   0.000000  -0.000000  -0.000000
    19  H   -0.000068   0.000000   0.000000  -0.000000
    20  H    0.000007  -0.000000   0.000000   0.000000
    21  H    0.000000  -0.000000  -0.000000   0.000000
    22  H   -0.000000   0.000000   0.000000  -0.000000
    23  S   -0.000000   0.000000   0.000000  -0.000000
    24  N   -0.007044  -0.000597  -0.000605  -0.000048
    25  C   -0.001087  -0.000237  -0.000008   0.000023
    26  C    0.000359   0.000145  -0.000017  -0.000024
    27  C   -0.000248  -0.000040   0.000001   0.000001
    28  C   -0.000015   0.000023  -0.000001  -0.000001
    29  C    0.000018  -0.000005   0.000000   0.000000
    30  C   -0.000007   0.000001   0.000000  -0.000000
    31  H    0.000112  -0.000037   0.000001   0.000002
    32  H   -0.000009   0.000000  -0.000000  -0.000000
    33  H    0.000000  -0.000000  -0.000000   0.000000
    34  H   -0.000000  -0.000000  -0.000000  -0.000000
    35  H   -0.000000   0.000000  -0.000000  -0.000000
    36  C   -0.033793   0.018402   0.017801  -0.008344
    37  C    0.013173  -0.050637  -0.002382   0.023848
    38  C    0.396415  -0.002747  -0.050616   0.024716
    39  C   -0.001535   0.418181   0.015896  -0.068997
    40  C   -0.041034   0.016482   0.417146  -0.069463
    41  C    0.009513  -0.066149  -0.064021   0.432831
    42  H   -0.000230  -0.007037   0.000009  -0.000068
    43  H    0.514618   0.000002  -0.006907  -0.000061
    44  H    0.000002   0.572362  -0.000193  -0.008463
    45  H   -0.006907  -0.000193   0.572730  -0.008447
    46  H   -0.000061  -0.008463  -0.008447   0.572368
 Mulliken charges:
               1
     1  C    0.018873
     2  C   -0.171852
     3  S    0.033065
     4  C   -0.132996
     5  C   -0.065842
     6  C   -0.207366
     7  C   -0.149092
     8  C   -0.035886
     9  H    0.095418
    10  C   -0.117899
    11  C   -0.047319
    12  C   -0.125194
    13  C    0.002046
    14  H    0.161723
    15  H    0.126176
    16  H    0.163937
    17  C   -0.122126
    18  H    0.164842
    19  H    0.119808
    20  H    0.105001
    21  H    0.109855
    22  H    0.105803
    23  S   -0.048179
    24  N   -0.014525
    25  C   -0.095402
    26  C   -0.090789
    27  C   -0.102409
    28  C   -0.114305
    29  C   -0.114357
    30  C   -0.101038
    31  H    0.147129
    32  H    0.155779
    33  H    0.110389
    34  H    0.111369
    35  H    0.110302
    36  C   -0.102982
    37  C   -0.085116
    38  C   -0.098202
    39  C   -0.115613
    40  C   -0.119196
    41  C   -0.098803
    42  H    0.148222
    43  H    0.156299
    44  H    0.110557
    45  H    0.109775
    46  H    0.110120
 Sum of Mulliken charges =  -0.00000
 Mulliken charges with hydrogens summed into heavy atoms:
               1
     1  C    0.183714
     2  C   -0.171852
     3  S    0.033065
     4  C   -0.132996
     5  C    0.053966
     6  C   -0.207366
     7  C   -0.044091
     8  C    0.073970
    10  C    0.043824
    11  C    0.078857
    12  C    0.038743
    13  C    0.002046
    17  C   -0.016323
    23  S    0.047239
    24  N   -0.014525
    25  C   -0.095402
    26  C    0.056340
    27  C    0.053370
    28  C   -0.003916
    29  C   -0.002988
    30  C    0.009264
    36  C   -0.102982
    37  C    0.063106
    38  C    0.058097
    39  C   -0.005056
    40  C   -0.009420
    41  C    0.011317
 Electronic spatial extent (au):  <R**2>=          15343.6308
 Charge=             -0.0000 electrons
 Dipole moment (field-independent basis, Debye):
    X=              2.2202    Y=              1.2896    Z=              1.5108  Tot=              2.9790
 Quadrupole moment (field-independent basis, Debye-Ang):
   XX=           -153.8506   YY=           -162.8113   ZZ=           -171.4991
   XY=             -5.7201   XZ=             -6.9964   YZ=              1.2212
 Traceless Quadrupole moment (field-independent basis, Debye-Ang):
   XX=              8.8697   YY=             -0.0910   ZZ=             -8.7788
   XY=             -5.7201   XZ=             -6.9964   YZ=              1.2212
 Octapole moment (field-independent basis, Debye-Ang**2):
  XXX=           -100.7967  YYY=              5.1708  ZZZ=              3.2541  XYY=             51.3231
  XXY=             14.3621  XXZ=             45.7797  XZZ=              9.2303  YZZ=              6.8730
  YYZ=              6.4256  XYZ=            -20.5467
 Hexadecapole moment (field-independent basis, Debye-Ang**3):
 XXXX=         -14757.9979 YYYY=          -3403.6176 ZZZZ=          -1256.2033 XXXY=            -37.0437
 XXXZ=           -177.7365 YYYX=             -7.9633 YYYZ=             43.9396 ZZZX=              8.5600
 ZZZY=             24.2359 XXYY=          -3248.7531 XXZZ=          -2961.7837 YYZZ=           -806.6993
 XXYZ=            -29.9271 YYXZ=            -34.7315 ZZXY=            -61.2681
 N-N= 2.474684767360D+03 E-N=-9.117255673423D+03  KE= 1.769686236276D+03
 No NMR shielding tensors so no spin-rotation constants.
 Leave Link  601 at Mon Jan 18 12:41:15 2021, MaxMem=  4026531840 cpu:               3.1 elap:               0.5
 (Enter /opt/ohpc/pub/libs/gaussian/g16-A.03/sandybridge/g16/l9999.exe)

 Test job not archived.
 1\1\GINC-CASCADEB058\SP\RLC-wHPBE\TZVP\C24H19N1S2\RDU230\18-Jan-2021\0
 \\#P LC-wHPBE/TZVP iop(3/107=0221900000, 3/108=0221900000) scf=(conver
 =6,fermi,ndamp=35,noincfock,novaracc,vshift=500,xqc)\\H19 C24 S2 N1\\0
 ,1\C,0,-3.352046,1.022081,0.90149\C,0,-4.015603,0.124147,0.077833\S,0,
 -3.193622,-0.833868,-1.176213\C,0,-5.398593,-0.028228,0.207342\C,0,-0.
 749106,0.373785,-1.531691\C,0,-1.475477,-0.56699,-0.815552\C,0,-4.0415
 16,1.761821,1.844012\C,0,-6.080951,0.720801,1.156415\H,0,-7.475944,-0.
 835079,-0.458792\C,0,0.601771,0.54717,-1.299188\C,0,-0.823428,-1.33634
 6,0.139234\C,0,0.521569,-1.15492,0.389409\C,0,1.255724,-0.212476,-0.33
 1046\H,0,1.160253,1.275483,-1.876291\H,0,-1.383265,-2.076857,0.700814\
 H,0,1.015474,-1.752114,1.147605\C,0,-5.411167,1.613701,1.970885\H,0,-2
 .279577,1.141824,0.800598\H,0,-1.248138,0.967582,-2.290346\H,0,-3.5032
 27,2.458074,2.478369\H,0,-7.154267,0.598627,1.263844\H,0,-5.962434,2.1
 89124,2.706912\S,0,-6.238224,-1.192989,-0.835805\N,0,2.627173,-0.03758
 6,-0.087724\C,0,3.438312,-1.140752,0.276409\C,0,4.374889,-1.012928,1.2
 95896\C,0,3.317625,-2.35655,-0.387733\C,0,5.1794,-2.084309,1.64001\C,0
 ,4.112866,-3.428755,-0.025756\C,0,5.049979,-3.298472,0.986151\H,0,4.47
 0709,-0.064848,1.814448\H,0,2.593785,-2.456724,-1.189607\H,0,5.90745,-
 1.970366,2.436839\H,0,4.006805,-4.37257,-0.551042\H,0,5.67733,-4.13910
 6,1.26285\C,0,3.224517,1.239724,-0.221989\C,0,4.446224,1.376745,-0.871
 25\C,0,2.604731,2.367846,0.304633\C,0,5.03746,2.622109,-0.986244\C,0,3
 .193018,3.612223,0.169883\C,0,4.413292,3.746533,-0.472133\H,0,4.931907
 ,0.498005,-1.282066\H,0,1.656156,2.262505,0.820378\H,0,5.992055,2.7142
 7,-1.494403\H,0,2.697309,4.484427,0.584059\H,0,4.876004,4.72281,-0.569
 917\\Version=EM64L-G16RevA.03\State=1-A\HF=-1776.2715257\RMSD=6.460e-0
 7\Dipole=0.8734779,0.5073725,0.5943884\Quadrupole=6.5944317,-0.067633,
 -6.5267987,-4.252767,-5.2016728,0.9079286\PG=C01 [X(C24H19N1S2)]\\@


 ONE OF THE BENEFITS OF A COLLEGE EDUCATION
 IS TO SHOW THE BOY ITS LITTLE AVAIL 
                                    EMERSON IN 'CULTURE'
 Job cpu time:       0 days  1 hours 22 minutes  7.7 seconds.
 Elapsed time:       0 days  0 hours 10 minutes 17.9 seconds.
 File lengths (MBytes):  RWF=    172 Int=      0 D2E=      0 Chk=     28 Scr=      8
 Normal termination of Gaussian 16 at Mon Jan 18 12:41:15 2021.
