 Entering Gaussian System, Link 0=g16
 Input=mol_ta_pa_half_tune_n3.gjf
 Output=mol_ta_pa_half_tune_n3.log
 Initial command:
 /opt/ohpc/pub/libs/gaussian/g16-A.03/sandybridge/g16/l1.exe "/mnt/gpfs2_4m/scratch/rdu230/ondemand/projects/init_structures/wtuning/mol_ta_pa_half/tuning_mol_ta_pa_half_ocycle0/Gau-267501.inp" -scrdir="/mnt/gpfs2_4m/scratch/rdu230/ondemand/projects/init_structures/wtuning/mol_ta_pa_half/tuning_mol_ta_pa_half_ocycle0/"
 Entering Link 1 = /opt/ohpc/pub/libs/gaussian/g16-A.03/sandybridge/g16/l1.exe PID=    267502.
  
 Copyright (c) 1988,1990,1992,1993,1995,1998,2003,2009,2016,
            Gaussian, Inc.  All Rights Reserved.
  
 This is part of the Gaussian(R) 16 program.  It is based on
 the Gaussian(R) 09 system (copyright 2009, Gaussian, Inc.),
 the Gaussian(R) 03 system (copyright 2003, Gaussian, Inc.),
 the Gaussian(R) 98 system (copyright 1998, Gaussian, Inc.),
 the Gaussian(R) 94 system (copyright 1995, Gaussian, Inc.),
 the Gaussian 92(TM) system (copyright 1992, Gaussian, Inc.),
 the Gaussian 90(TM) system (copyright 1990, Gaussian, Inc.),
 the Gaussian 88(TM) system (copyright 1988, Gaussian, Inc.),
 the Gaussian 86(TM) system (copyright 1986, Carnegie Mellon
 University), and the Gaussian 82(TM) system (copyright 1983,
 Carnegie Mellon University). Gaussian is a federally registered
 trademark of Gaussian, Inc.
  
 This software contains proprietary and confidential information,
 including trade secrets, belonging to Gaussian, Inc.
  
 This software is provided under written license and may be
 used, copied, transmitted, or stored only in accord with that
 written license.
  
 The following legend is applicable only to US Government
 contracts under FAR:
  
                    RESTRICTED RIGHTS LEGEND
  
 Use, reproduction and disclosure by the US Government is
 subject to restrictions as set forth in subparagraphs (a)
 and (c) of the Commercial Computer Software - Restricted
 Rights clause in FAR 52.227-19.
  
 Gaussian, Inc.
 340 Quinnipiac St., Bldg. 40, Wallingford CT 06492
  
  
 ---------------------------------------------------------------
 Warning -- This program may not be used in any manner that
 competes with the business of Gaussian, Inc. or will provide
 assistance to any competitor of Gaussian, Inc.  The licensee
 of this program is prohibited from giving any competitor of
 Gaussian, Inc. access to this program.  By using this program,
 the user acknowledges that Gaussian, Inc. is engaged in the
 business of creating and licensing software in the field of
 computational chemistry and represents and warrants to the
 licensee that it is not a competitor of Gaussian, Inc. and that
 it will not use this program in any manner prohibited above.
 ---------------------------------------------------------------
  

 Cite this work as:
 Gaussian 16, Revision A.03,
 M. J. Frisch, G. W. Trucks, H. B. Schlegel, G. E. Scuseria, 
 M. A. Robb, J. R. Cheeseman, G. Scalmani, V. Barone, 
 G. A. Petersson, H. Nakatsuji, X. Li, M. Caricato, A. V. Marenich, 
 J. Bloino, B. G. Janesko, R. Gomperts, B. Mennucci, H. P. Hratchian, 
 J. V. Ortiz, A. F. Izmaylov, J. L. Sonnenberg, D. Williams-Young, 
 F. Ding, F. Lipparini, F. Egidi, J. Goings, B. Peng, A. Petrone, 
 T. Henderson, D. Ranasinghe, V. G. Zakrzewski, J. Gao, N. Rega, 
 G. Zheng, W. Liang, M. Hada, M. Ehara, K. Toyota, R. Fukuda, 
 J. Hasegawa, M. Ishida, T. Nakajima, Y. Honda, O. Kitao, H. Nakai, 
 T. Vreven, K. Throssell, J. A. Montgomery, Jr., J. E. Peralta, 
 F. Ogliaro, M. J. Bearpark, J. J. Heyd, E. N. Brothers, K. N. Kudin, 
 V. N. Staroverov, T. A. Keith, R. Kobayashi, J. Normand, 
 K. Raghavachari, A. P. Rendell, J. C. Burant, S. S. Iyengar, 
 J. Tomasi, M. Cossi, J. M. Millam, M. Klene, C. Adamo, R. Cammi, 
 J. W. Ochterski, R. L. Martin, K. Morokuma, O. Farkas, 
 J. B. Foresman, and D. J. Fox, Gaussian, Inc., Wallingford CT, 2016.
 
 ******************************************
 Gaussian 16:  EM64L-G16RevA.03 25-Dec-2016
                18-Jan-2021 
 ******************************************
 %mem=30GB
 %nproc=8
 Will use up to    8 processors via shared memory.
 ----------------------------------------------------------------------
 #P LC-wHPBE/TZVP iop(3/107=0155800000, 3/108=0155800000) scf=(conver=6
 ,fermi,ndamp=35,noincfock,novaracc,vshift=500,xqc)
 ----------------------------------------------------------------------
 1/38=1,172=1/1;
 2/12=2,17=6,18=5,40=1/2;
 3/5=19,7=101,11=2,25=1,30=1,74=-71,107=155800000,108=155800000/1,2,3;
 4//1;
 5/5=100002,6=6,8=3,10=500,13=1,18=-1,22=13,38=1,93=35/2,8;
 6/7=2,8=2,9=2,10=2,28=1/1;
 99/5=1,9=1/99;
 Leave Link    1 at Mon Jan 18 18:18:32 2021, MaxMem=  4026531840 cpu:               1.4 elap:               0.2
 (Enter /opt/ohpc/pub/libs/gaussian/g16-A.03/sandybridge/g16/l101.exe)
 -------------
 H19 C24 S2 N1
 -------------
 Symbolic Z-matrix:
 Charge =  0 Multiplicity = 1
 C                    -3.35205   1.02208   0.90149 
 C                    -4.0156    0.12415   0.07783 
 S                    -3.19362  -0.83387  -1.17621 
 C                    -5.39859  -0.02823   0.20734 
 C                    -0.74911   0.37379  -1.53169 
 C                    -1.47548  -0.56699  -0.81555 
 C                    -4.04152   1.76182   1.84401 
 C                    -6.08095   0.7208    1.15641 
 H                    -7.47594  -0.83508  -0.45879 
 C                     0.60177   0.54717  -1.29919 
 C                    -0.82343  -1.33635   0.13923 
 C                     0.52157  -1.15492   0.38941 
 C                     1.25572  -0.21248  -0.33105 
 H                     1.16025   1.27548  -1.87629 
 H                    -1.38327  -2.07686   0.70081 
 H                     1.01547  -1.75211   1.1476 
 C                    -5.41117   1.6137    1.97089 
 H                    -2.27958   1.14182   0.8006 
 H                    -1.24814   0.96758  -2.29035 
 H                    -3.50323   2.45807   2.47837 
 H                    -7.15427   0.59863   1.26384 
 H                    -5.96243   2.18912   2.70691 
 S                    -6.23822  -1.19299  -0.83581 
 N                     2.62717  -0.03759  -0.08772 
 C                     3.43831  -1.14075   0.27641 
 C                     4.37489  -1.01293   1.2959 
 C                     3.31763  -2.35655  -0.38773 
 C                     5.1794   -2.08431   1.64001 
 C                     4.11287  -3.42876  -0.02576 
 C                     5.04998  -3.29847   0.98615 
 H                     4.47071  -0.06485   1.81445 
 H                     2.59379  -2.45672  -1.18961 
 H                     5.90745  -1.97037   2.43684 
 H                     4.0068   -4.37257  -0.55104 
 H                     5.67733  -4.13911   1.26285 
 C                     3.22452   1.23972  -0.22199 
 C                     4.44622   1.37675  -0.87125 
 C                     2.60473   2.36785   0.30463 
 C                     5.03746   2.62211  -0.98624 
 C                     3.19302   3.61222   0.16988 
 C                     4.41329   3.74653  -0.47213 
 H                     4.93191   0.49801  -1.28207 
 H                     1.65616   2.2625    0.82038 
 H                     5.99206   2.71427  -1.4944 
 H                     2.69731   4.48443   0.58406 
 H                     4.876     4.72281  -0.56992 
 
 ITRead=  0  0  0  0  0  0  0  0  0  0  0  0  0  0  0  0  0  0  0  0
 ITRead=  0  0  0  0  0  0  0  0  0  0  0  0  0  0  0  0  0  0  0  0
 ITRead=  0  0  0  0  0  0
 MicOpt= -1 -1 -1 -1 -1 -1 -1 -1 -1 -1 -1 -1 -1 -1 -1 -1 -1 -1 -1 -1
 MicOpt= -1 -1 -1 -1 -1 -1 -1 -1 -1 -1 -1 -1 -1 -1 -1 -1 -1 -1 -1 -1
 MicOpt= -1 -1 -1 -1 -1 -1
 NAtoms=     46 NQM=       46 NQMF=       0 NMMI=      0 NMMIF=      0
                NMic=       0 NMicF=      0.
                    Isotopes and Nuclear Properties:
 (Nuclear quadrupole moments (NQMom) in fm**2, nuclear magnetic moments (NMagM)
  in nuclear magnetons)

  Atom         1           2           3           4           5           6           7           8           9          10
 IAtWgt=          12          12          32          12          12          12          12          12           1          12
 AtmWgt=  12.0000000  12.0000000  31.9720718  12.0000000  12.0000000  12.0000000  12.0000000  12.0000000   1.0078250  12.0000000
 NucSpn=           0           0           0           0           0           0           0           0           1           0
 AtZEff=  -0.0000000  -0.0000000  -0.0000000  -0.0000000  -0.0000000  -0.0000000  -0.0000000  -0.0000000  -0.0000000  -0.0000000
 NQMom=    0.0000000   0.0000000   0.0000000   0.0000000   0.0000000   0.0000000   0.0000000   0.0000000   0.0000000   0.0000000
 NMagM=    0.0000000   0.0000000   0.0000000   0.0000000   0.0000000   0.0000000   0.0000000   0.0000000   2.7928460   0.0000000
 AtZNuc=   6.0000000   6.0000000  16.0000000   6.0000000   6.0000000   6.0000000   6.0000000   6.0000000   1.0000000   6.0000000

  Atom        11          12          13          14          15          16          17          18          19          20
 IAtWgt=          12          12          12           1           1           1          12           1           1           1
 AtmWgt=  12.0000000  12.0000000  12.0000000   1.0078250   1.0078250   1.0078250  12.0000000   1.0078250   1.0078250   1.0078250
 NucSpn=           0           0           0           1           1           1           0           1           1           1
 AtZEff=  -0.0000000  -0.0000000  -0.0000000  -0.0000000  -0.0000000  -0.0000000  -0.0000000  -0.0000000  -0.0000000  -0.0000000
 NQMom=    0.0000000   0.0000000   0.0000000   0.0000000   0.0000000   0.0000000   0.0000000   0.0000000   0.0000000   0.0000000
 NMagM=    0.0000000   0.0000000   0.0000000   2.7928460   2.7928460   2.7928460   0.0000000   2.7928460   2.7928460   2.7928460
 AtZNuc=   6.0000000   6.0000000   6.0000000   1.0000000   1.0000000   1.0000000   6.0000000   1.0000000   1.0000000   1.0000000

  Atom        21          22          23          24          25          26          27          28          29          30
 IAtWgt=           1           1          32          14          12          12          12          12          12          12
 AtmWgt=   1.0078250   1.0078250  31.9720718  14.0030740  12.0000000  12.0000000  12.0000000  12.0000000  12.0000000  12.0000000
 NucSpn=           1           1           0           2           0           0           0           0           0           0
 AtZEff=  -0.0000000  -0.0000000  -0.0000000  -0.0000000  -0.0000000  -0.0000000  -0.0000000  -0.0000000  -0.0000000  -0.0000000
 NQMom=    0.0000000   0.0000000   0.0000000   2.0440000   0.0000000   0.0000000   0.0000000   0.0000000   0.0000000   0.0000000
 NMagM=    2.7928460   2.7928460   0.0000000   0.4037610   0.0000000   0.0000000   0.0000000   0.0000000   0.0000000   0.0000000
 AtZNuc=   1.0000000   1.0000000  16.0000000   7.0000000   6.0000000   6.0000000   6.0000000   6.0000000   6.0000000   6.0000000

  Atom        31          32          33          34          35          36          37          38          39          40
 IAtWgt=           1           1           1           1           1          12          12          12          12          12
 AtmWgt=   1.0078250   1.0078250   1.0078250   1.0078250   1.0078250  12.0000000  12.0000000  12.0000000  12.0000000  12.0000000
 NucSpn=           1           1           1           1           1           0           0           0           0           0
 AtZEff=  -0.0000000  -0.0000000  -0.0000000  -0.0000000  -0.0000000  -0.0000000  -0.0000000  -0.0000000  -0.0000000  -0.0000000
 NQMom=    0.0000000   0.0000000   0.0000000   0.0000000   0.0000000   0.0000000   0.0000000   0.0000000   0.0000000   0.0000000
 NMagM=    2.7928460   2.7928460   2.7928460   2.7928460   2.7928460   0.0000000   0.0000000   0.0000000   0.0000000   0.0000000
 AtZNuc=   1.0000000   1.0000000   1.0000000   1.0000000   1.0000000   6.0000000   6.0000000   6.0000000   6.0000000   6.0000000

  Atom        41          42          43          44          45          46
 IAtWgt=          12           1           1           1           1           1
 AtmWgt=  12.0000000   1.0078250   1.0078250   1.0078250   1.0078250   1.0078250
 NucSpn=           0           1           1           1           1           1
 AtZEff=  -0.0000000  -0.0000000  -0.0000000  -0.0000000  -0.0000000  -0.0000000
 NQMom=    0.0000000   0.0000000   0.0000000   0.0000000   0.0000000   0.0000000
 NMagM=    0.0000000   2.7928460   2.7928460   2.7928460   2.7928460   2.7928460
 AtZNuc=   6.0000000   1.0000000   1.0000000   1.0000000   1.0000000   1.0000000
 Leave Link  101 at Mon Jan 18 18:18:33 2021, MaxMem=  4026531840 cpu:               0.7 elap:               0.1
 (Enter /opt/ohpc/pub/libs/gaussian/g16-A.03/sandybridge/g16/l202.exe)
                          Input orientation:                          
 ---------------------------------------------------------------------
 Center     Atomic      Atomic             Coordinates (Angstroms)
 Number     Number       Type             X           Y           Z
 ---------------------------------------------------------------------
      1          6           0       -3.352046    1.022081    0.901490
      2          6           0       -4.015603    0.124147    0.077833
      3         16           0       -3.193622   -0.833868   -1.176213
      4          6           0       -5.398593   -0.028228    0.207342
      5          6           0       -0.749106    0.373785   -1.531691
      6          6           0       -1.475477   -0.566990   -0.815552
      7          6           0       -4.041516    1.761821    1.844012
      8          6           0       -6.080951    0.720801    1.156415
      9          1           0       -7.475944   -0.835079   -0.458792
     10          6           0        0.601771    0.547170   -1.299188
     11          6           0       -0.823428   -1.336346    0.139234
     12          6           0        0.521569   -1.154920    0.389409
     13          6           0        1.255724   -0.212476   -0.331046
     14          1           0        1.160253    1.275483   -1.876291
     15          1           0       -1.383265   -2.076857    0.700814
     16          1           0        1.015474   -1.752114    1.147605
     17          6           0       -5.411167    1.613701    1.970885
     18          1           0       -2.279577    1.141824    0.800598
     19          1           0       -1.248138    0.967582   -2.290346
     20          1           0       -3.503227    2.458074    2.478369
     21          1           0       -7.154267    0.598627    1.263844
     22          1           0       -5.962434    2.189124    2.706912
     23         16           0       -6.238224   -1.192989   -0.835805
     24          7           0        2.627173   -0.037586   -0.087724
     25          6           0        3.438312   -1.140752    0.276409
     26          6           0        4.374889   -1.012928    1.295896
     27          6           0        3.317625   -2.356550   -0.387733
     28          6           0        5.179400   -2.084309    1.640010
     29          6           0        4.112866   -3.428755   -0.025756
     30          6           0        5.049979   -3.298472    0.986151
     31          1           0        4.470709   -0.064848    1.814448
     32          1           0        2.593785   -2.456724   -1.189607
     33          1           0        5.907450   -1.970366    2.436839
     34          1           0        4.006805   -4.372570   -0.551042
     35          1           0        5.677330   -4.139106    1.262850
     36          6           0        3.224517    1.239724   -0.221989
     37          6           0        4.446224    1.376745   -0.871250
     38          6           0        2.604731    2.367846    0.304633
     39          6           0        5.037460    2.622109   -0.986244
     40          6           0        3.193018    3.612223    0.169883
     41          6           0        4.413292    3.746533   -0.472133
     42          1           0        4.931907    0.498005   -1.282066
     43          1           0        1.656156    2.262505    0.820378
     44          1           0        5.992055    2.714270   -1.494403
     45          1           0        2.697309    4.484427    0.584059
     46          1           0        4.876004    4.722810   -0.569917
 ---------------------------------------------------------------------
                    Distance matrix (angstroms):
                    1          2          3          4          5
     1  C    0.000000
     2  C    1.387445   0.000000
     3  S    2.790429   1.779347   0.000000
     4  C    2.402779   1.397373   2.724918   0.000000
     5  C    3.621596   3.650053   2.749627   4.980319   0.000000
     6  C    2.999148   2.779937   1.775760   4.089916   1.387634
     7  C    1.382365   2.408742   4.071644   2.779320   4.915484
     8  C    2.757296   2.405202   4.024279   1.388307   5.981213
     9  H    4.722917   3.630708   4.342001   2.325969   6.918296
    10  C    4.549856   4.836867   4.040717   6.213299   1.381662
    11  C    3.540780   3.510953   2.756938   4.758986   2.392083
    12  C    4.472857   4.724301   4.044365   6.029171   2.764449
    13  C    4.926948   5.297866   4.571336   6.678603   2.409272
    14  H    5.304821   5.650988   4.888323   7.004259   2.139500
    15  H    3.676926   3.487367   2.888883   4.534672   3.375186
    16  H    5.179958   5.475080   4.894874   6.707916   3.848612
    17  C    2.394494   2.783885   4.562053   2.409600   5.961564
    18  H    1.083839   2.138187   2.940513   3.383672   2.893406
    19  H    3.823247   3.738785   2.876008   4.945337   1.084982
    20  H    2.138102   3.387081   4.928357   3.864152   5.292450
    21  H    3.842850   3.388652   4.867507   2.142787   6.992257
    22  H    3.381666   3.868635   5.646544   3.388571   6.959885
    23  S    4.031718   2.740370   3.084550   1.774769   5.750605
    24  N    6.152438   6.646807   5.974992   8.031194   3.695068
    25  C    7.153848   7.563085   6.796090   8.906928   4.805988
    26  C    8.000146   8.554354   7.964028   9.883093   6.014445
    27  C    7.586946   7.755440   6.733246   9.041441   5.030077
    28  C    9.109371   9.584662   8.922007  10.870784   7.158847
    29  C    8.740403   8.871632   7.838479  10.103750   6.353418
    30  C    9.448194   9.732633   8.871699  10.976051   7.311251
    31  H    7.950497   8.664239   8.263015   9.999363   6.215747
    32  H    7.199144   7.207726   6.010651   8.469189   4.393600
    33  H    9.851411  10.412438   9.857752  11.686281   8.096543
    34  H    9.239307   9.218187   8.047323  10.387972   6.790305
    35  H   10.406636  10.655165   9.775859  11.861260   8.335150
    36  C    6.675384   7.331694   6.811963   8.726400   4.272569
    37  C    8.005086   8.606525   7.959087  10.002886   5.332313
    38  C    6.136001   6.993886   6.787104   8.354869   4.312376
    39  C    8.746853   9.451456   8.929198  10.833288   6.231919
    40  C    7.076860   8.008706   7.897396   9.331134   5.378027
    41  C    8.343258   9.190779   8.907353  10.534875   6.256872
    42  H    8.582916   9.057982   8.234641  10.450574   5.687851
    43  H    5.160166   6.106783   6.090505   7.442631   3.858079
    44  H    9.793673  10.456284   9.852268  11.839092   7.136001
    45  H    6.977342   8.020692   8.129323   9.276292   5.766416
    46  H    9.141184  10.031349   9.816472  11.346534   7.175018
                    6          7          8          9         10
     6  C    0.000000
     7  C    4.368203   0.000000
     8  C    5.172760   2.390775   0.000000
     9  H    6.017039   4.882836   2.641148   0.000000
    10  C    2.406287   5.737177   7.121721   8.238104   0.000000
    11  C    1.388774   4.781318   5.736555   6.698125   2.765481
    12  C    2.405366   5.607583   6.906511   8.048724   2.398938
    13  C    2.796406   6.057184   7.543895   8.754769   1.393562
    14  H    3.386288   6.413703   7.870198   9.002648   1.084154
    15  H    2.141861   4.807146   5.486594   6.325143   3.850441
    16  H    3.385756   6.197247   7.514961   8.690549   3.382995
    17  C    5.292381   1.383467   1.381753   4.020343   6.927214
    18  H    2.485672   2.139518   3.841134   5.700565   3.614537
    19  H    2.140470   5.052395   5.941140   6.737191   2.140398
    20  H    4.910468   1.084865   3.377920   5.937529   5.896821
    21  H    6.158832   3.373253   1.085576   2.264170   8.168715
    22  H    6.335353   2.148746   2.138705   4.632299   7.863437
    23  S    4.803753   4.553883   2.766996   1.342456   7.073076
    24  N    4.200207   7.172230   8.829182  10.141334   2.431427
    25  C    5.066251   8.174970   9.739413  10.943260   3.657534
    26  C    6.235692   8.878938  10.599522  11.981352   4.837849
    27  C    5.134139   8.723452  10.009381  10.900507   4.078995
    28  C    7.253925   9.992979  11.614560  12.888882   6.043033
    29  C    6.327958   9.845408  11.069338  11.883400   5.455034
    30  C    7.299911  10.440200  11.835588  12.847370   6.308589
    31  H    6.521210   8.706065  10.601310  12.185376   5.003796
    32  H    4.502211   8.427703   9.531607  10.225618   3.606038
    33  H    8.188719  10.642490  12.353284  13.740043   6.960324
    34  H    6.678909  10.399159  11.428940  12.015651   6.029745
    35  H    8.260897  11.384843  12.723490  13.670745   7.367939
    36  C    5.070155   7.572066   9.421306  10.902328   2.918696
    37  C    6.232796   8.919790  10.740722  12.132616   3.956153
    38  C    5.149386   6.849055   8.881405  10.604789   3.146260
    39  C    7.253815   9.548730  11.481508  12.992907   4.906999
    40  C    6.342850   7.652789   9.764224  11.575858   4.274024
    41  C    7.307668   8.988180  11.042480  12.741479   5.044565
    42  H    6.512021   9.586027  11.281794  12.506385   4.330449
    43  H    4.526526   5.810506   7.896366   9.727618   2.923467
    44  H    8.184836  10.617190  12.520313  13.966294   5.812882
    45  H    6.699841   7.376437   9.568193  11.527348   4.841476
    46  H    8.269440   9.701375  11.791996  13.545224   6.019707
                   11         12         13         14         15
    11  C    0.000000
    12  C    1.380043   0.000000
    13  C    2.409797   1.395077   0.000000
    14  H    3.849543   3.383515   2.147305   0.000000
    15  H    1.084964   2.139003   3.391890   4.934485   0.000000
    16  H    2.138045   1.084179   2.148165   4.281501   2.461509
    17  C    5.753701   6.735257   7.285688   7.622251   5.608680
    18  H    2.949423   3.645618   3.951342   4.360737   3.342640
    19  H    3.375103   3.849411   3.391271   2.463045   4.270118
    20  H    5.201009   5.797971   6.137774   6.489193   5.312207
    21  H    6.714789   7.921996   8.598227   8.913463   6.385897
    22  H    6.740274   7.654786   8.191378   8.518988   6.572048
    23  S    5.503750   6.870036   7.574658   7.868509   5.168467
    24  N    3.693905   2.430979   1.403804   2.659883   4.567716
    25  C    4.268431   2.918965   2.448344   3.957507   4.929910
    26  C    5.335257   3.961055   3.607888   5.062952   5.885780
    27  C    4.297305   3.140986   2.975181   4.479031   4.833377
    28  C    6.232634   4.911533   4.773264   6.309209   6.629534
    29  C    5.363991   4.270843   4.312878   5.854251   5.706399
    30  C    6.250129   5.045534   5.065052   6.651662   6.554418
    31  H    5.696572   4.337591   3.867954   5.135870   6.289465
    32  H    3.833851   2.912398   2.750306   4.056589   4.419832
    33  H    7.140426   5.819333   5.691214   7.188498   7.495308
    34  H    5.746850   4.835762   4.992317   6.462170   5.990851
    35  H    7.167833   6.020809   6.124502   7.718547   7.377043
    36  C    4.811702   3.662520   2.448862   2.645596   5.751776
    37  C    6.012585   4.837510   3.605098   3.437727   6.955695
    38  C    5.049819   4.093486   2.980263   2.834820   5.984685
    39  C    7.161430   6.045795   4.771340   4.199800   8.133398
    40  C    6.373469   5.469048   4.316522   3.712050   7.320511
    41  C    7.323433   6.317595   5.065954   4.319723   8.299864
    42  H    6.205547   4.997707   3.863100   3.896530   7.102332
    43  H    4.423124   3.626543   2.758923   2.914130   5.299287
    44  H    8.094879   6.960287   5.687888   5.055913   9.064724
    45  H    6.817247   6.047642   4.997648   4.325874   7.727559
    46  H    8.348640   7.377609   6.125401   5.234260   9.328916
                   16         17         18         19         20
    16  H    0.000000
    17  C    7.301248   0.000000
    18  H    4.399165   3.376255   0.000000
    19  H    4.933578   5.992192   3.263152   0.000000
    20  H    6.317854   2.147264   2.458607   5.481572   0.000000
    21  H    8.502009   2.137447   4.926689   6.902953   4.273489
    22  H    8.164312   1.084778   4.277184   6.977775   2.484404
    23  S    7.540734   4.054509   4.878530   5.628918   5.638636
    24  N    2.657671   8.460469   5.124092   4.569457   7.098941
    25  C    2.646297   9.421865   6.178930   5.744225   8.123124
    26  C    3.442972  10.154885   7.012146   6.957153   8.689696
    27  C    2.832403   9.875109   6.706670   5.959529   8.827183
    28  C    4.206078  11.222516   8.169999   8.128652   9.834841
    29  C    3.712376  10.959934   7.901669   7.293594   9.946370
    30  C    4.323716  11.598910   8.571642   8.282568  10.417383
    31  H    3.902588  10.024643   6.931833   7.114805   8.389850
    32  H    2.906906   9.520311   6.376529   5.262877   8.647707
    33  H    5.063713  11.881656   8.910130   9.065333  10.400656
    34  H    4.324379  11.440881   8.470777   7.691348  10.594131
    35  H    5.238694  12.512029   9.561081   9.309435  11.370264
    36  C    3.963175   8.917600   5.599136   4.935261   7.351112
    37  C    5.063159  10.261678   6.934455   5.882772   8.693848
    38  C    4.495599   8.221907   5.060195   4.851727   6.483858
    39  C    6.313756  10.905746   7.676137   6.629245   9.218123
    40  C    5.871435   9.014971   6.037381   5.724572   7.176410
    41  C    6.663620  10.345883   7.293754   6.563555   8.546161
    42  H    5.128819  10.899800   7.533757   6.279338   9.441092
    43  H    4.078568   7.189692   4.092226   4.448410   5.422768
    44  H    7.189934  11.968832   8.726942   7.490316  10.296064
    45  H    6.483872   8.712734   5.999106   6.016391   6.792729
    46  H    7.731637  11.043012   8.118135   7.386930   9.199597
                   21         22         23         24         25
    21  H    0.000000
    22  H    2.456134   0.000000
    23  S    2.908186   4.905669   0.000000
    24  N    9.894851   9.303202   8.971613   0.000000
    25  C   10.779759  10.264962   9.740385   1.416868   0.000000
    26  C   11.641288  10.913494  10.826576   2.433148   1.390277
    27  C   11.005512  10.787005   9.636851   2.438098   1.390617
    28  C   12.627707  11.980859  11.716921   3.699730   2.404391
    29  C   12.034582  11.854944  10.620729   3.702857   2.404430
    30  C   12.814371  12.423686  11.626526   4.201973   2.785132
    31  H   11.656905  10.711086  11.089535   2.649080   2.142190
    32  H   10.506146  10.486927   8.928974   2.658475   2.143411
    33  H   13.363536  12.580479  12.602853   4.568290   3.384134
    34  H   12.352171  12.371573  10.730864   4.572760   3.384155
    35  H   13.678304  13.327262  12.452485   5.286774   3.869935
    36  C   10.504183   9.689164   9.789705   1.416463   2.441470
    37  C   11.820977  11.036456  10.989186   2.433761   2.944622
    38  C    9.964350   8.899393   9.600937   2.437325   3.606371
    39  C   12.561671  11.611397  11.904564   3.700108   4.279099
    40  C   10.832581   9.606458  10.632488   3.702384   4.760492
    41  C   12.113272  10.963008  11.746741   4.202089   5.039490
    42  H   12.351817  11.724269  11.306212   2.650492   2.710202
    43  H    8.977121   7.849032   8.775227   2.656679   3.879967
    44  H   13.598149  12.682138  12.856133   4.568795   4.951623
    45  H   10.612026   9.206849  10.681424   4.572178   5.682110
    46  H   12.849085  11.602970  12.593389   5.286882   6.096276
                   26         27         28         29         30
    26  C    0.000000
    27  C    2.399528   0.000000
    28  C    1.383297   2.766236   0.000000
    29  C    2.766160   1.383134   2.391612   0.000000
    30  C    2.403206   2.403295   1.385090   1.385320   0.000000
    31  H    1.084866   3.380991   2.147299   3.851009   3.387913
    32  H    3.381509   1.084888   3.851082   2.146392   3.387529
    33  H    2.137097   3.851563   1.085346   3.378136   2.145604
    34  H    3.851475   2.136814   3.378139   1.085339   2.145894
    35  H    3.386803   3.386759   2.147644   2.147708   1.084803
    36  C    2.949877   3.601295   4.282266   4.756298   5.038565
    37  C    3.226786   3.930015   4.338533   4.890687   5.066765
    38  C    3.942803   4.827785   5.313552   5.998684   6.208934
    39  C    4.342886   5.301235   5.391449   6.195996   6.240495
    40  C    4.904768   5.996058   6.209466   7.103504   7.202243
    41  C    5.077388   6.201228   6.248743   7.195434   7.222469
    42  H    3.039585   3.399150   3.907445   4.203402   4.424024
    43  H    4.283233   5.055263   5.655072   6.256341   6.516900
    44  H    4.928793   5.838708   5.788896   6.589767   6.572193
    45  H    5.791537   6.937445   7.100993   8.061893   8.140654
    46  H    6.052360   7.251143   7.163288   8.205273   8.172673
                   31         32         33         34         35
    31  H    0.000000
    32  H    4.274139   0.000000
    33  H    2.466292   4.936399   0.000000
    34  H    4.936316   2.464722   4.279073   0.000000
    35  H    4.284831   4.284064   2.476820   2.476967   0.000000
    36  C    2.720658   3.872704   4.957033   5.676099   6.095314
    37  C    3.048239   4.269469   4.927655   5.774967   6.041077
    38  C    3.417516   5.050678   5.854429   6.937665   7.259440
    39  C    3.922349   5.639809   5.793549   7.083586   7.154152
    40  C    4.225866   6.248153   6.608520   8.058468   8.212763
    41  C    4.445039   6.504289   6.586164   8.129655   8.172592
    42  H    3.180866   3.769056   4.568894   5.011258   5.341821
    43  H    3.785030   5.214433   6.213183   7.171511   7.572730
    44  H    4.581101   6.195185   6.116178   7.419869   7.393934
    45  H    5.035346   7.164927   7.443262   9.024945   9.149131
    46  H    5.363873   7.558985   7.409660   9.136838   9.084862
                   36         37         38         39         40
    36  C    0.000000
    37  C    1.390281   0.000000
    38  C    1.390728   2.399183   0.000000
    39  C    2.404545   1.383371   2.765716   0.000000
    40  C    2.404851   2.766197   1.383009   2.391427   0.000000
    41  C    2.785651   2.403388   2.403130   1.385000   1.385385
    42  H    2.142216   1.084823   3.380779   2.147200   3.851006
    43  H    2.142981   3.380925   1.084843   3.850508   2.146352
    44  H    3.384168   2.137027   3.851039   1.085344   3.377984
    45  H    3.384636   3.851534   2.136952   3.377926   1.085361
    46  H    3.870446   3.386984   3.386646   2.147636   2.147824
                   41         42         43         44         45
    41  C    0.000000
    42  H    3.387903   0.000000
    43  H    3.387436   4.273672   0.000000
    44  H    2.145483   2.465934   4.935820   0.000000
    45  H    2.145839   4.936336   2.465113   4.278880   0.000000
    46  H    1.084795   4.284771   4.284092   2.476788   2.476933
                   46
    46  H    0.000000
 Stoichiometry    C24H19NS2
 Framework group  C1[X(C24H19NS2)]
 Deg. of freedom   132
 Full point group                 C1      NOp   1
 Largest Abelian subgroup         C1      NOp   1
 Largest concise Abelian subgroup C1      NOp   1
                         Standard orientation:                         
 ---------------------------------------------------------------------
 Center     Atomic      Atomic             Coordinates (Angstroms)
 Number     Number       Type             X           Y           Z
 ---------------------------------------------------------------------
      1          6           0       -3.352046    1.022081    0.901490
      2          6           0       -4.015603    0.124147    0.077833
      3         16           0       -3.193622   -0.833868   -1.176213
      4          6           0       -5.398593   -0.028228    0.207342
      5          6           0       -0.749106    0.373785   -1.531691
      6          6           0       -1.475477   -0.566990   -0.815552
      7          6           0       -4.041516    1.761821    1.844012
      8          6           0       -6.080951    0.720801    1.156415
      9          1           0       -7.475944   -0.835079   -0.458792
     10          6           0        0.601771    0.547170   -1.299188
     11          6           0       -0.823428   -1.336346    0.139234
     12          6           0        0.521569   -1.154920    0.389409
     13          6           0        1.255724   -0.212476   -0.331046
     14          1           0        1.160253    1.275483   -1.876291
     15          1           0       -1.383265   -2.076857    0.700814
     16          1           0        1.015474   -1.752114    1.147605
     17          6           0       -5.411167    1.613701    1.970885
     18          1           0       -2.279577    1.141824    0.800598
     19          1           0       -1.248138    0.967582   -2.290346
     20          1           0       -3.503227    2.458074    2.478369
     21          1           0       -7.154267    0.598627    1.263844
     22          1           0       -5.962434    2.189124    2.706912
     23         16           0       -6.238224   -1.192989   -0.835805
     24          7           0        2.627173   -0.037586   -0.087724
     25          6           0        3.438312   -1.140752    0.276409
     26          6           0        4.374889   -1.012928    1.295896
     27          6           0        3.317625   -2.356550   -0.387733
     28          6           0        5.179400   -2.084309    1.640010
     29          6           0        4.112866   -3.428755   -0.025756
     30          6           0        5.049979   -3.298472    0.986151
     31          1           0        4.470709   -0.064848    1.814448
     32          1           0        2.593785   -2.456724   -1.189607
     33          1           0        5.907450   -1.970366    2.436839
     34          1           0        4.006805   -4.372570   -0.551042
     35          1           0        5.677330   -4.139106    1.262850
     36          6           0        3.224517    1.239724   -0.221989
     37          6           0        4.446224    1.376745   -0.871250
     38          6           0        2.604731    2.367846    0.304633
     39          6           0        5.037460    2.622109   -0.986244
     40          6           0        3.193018    3.612223    0.169883
     41          6           0        4.413292    3.746533   -0.472133
     42          1           0        4.931907    0.498005   -1.282066
     43          1           0        1.656156    2.262505    0.820378
     44          1           0        5.992055    2.714270   -1.494403
     45          1           0        2.697309    4.484427    0.584059
     46          1           0        4.876004    4.722810   -0.569917
 ---------------------------------------------------------------------
 Rotational constants (GHZ):           0.3083654           0.0766714           0.0675965
 Leave Link  202 at Mon Jan 18 18:18:33 2021, MaxMem=  4026531840 cpu:               0.2 elap:               0.1
 (Enter /opt/ohpc/pub/libs/gaussian/g16-A.03/sandybridge/g16/l301.exe)
 Standard basis: TZVP (5D, 7F)
 Ernie: Thresh=  0.10000D-02 Tol=  0.10000D-05 Strict=F.
 There are   660 symmetry adapted cartesian basis functions of A   symmetry.
 There are   633 symmetry adapted basis functions of A   symmetry.
   633 basis functions,  1121 primitive gaussians,   660 cartesian basis functions
   101 alpha electrons      101 beta electrons
       nuclear repulsion energy      2474.6847673599 Hartrees.
 IExCor=33909 DFT=T Ex+Corr=LC-wHPBE ExCW=0 ScaHFX=  1.000000
 ScaDFX=  1.000000  1.000000  1.000000  1.000000 ScalE2=  1.000000  1.000000
 IRadAn=      5 IRanWt=     -1 IRanGd=            0 ICorTp=0 IEmpDi=  4
 HFx  wShort=  0.000000 wLong=  0.155800 cFull=  0.000000 cShort=  0.000000 cLong=  1.000000
 DFx  wShort=  0.000000 wLong=  0.155800 cFull=  0.000000 cShort=  1.000000 cLong=  0.000000
 NAtoms=   46 NActive=   46 NUniq=   46 SFac= 1.00D+00 NAtFMM=   60 NAOKFM=F Big=F
 Integral buffers will be    131072 words long.
 Raffenetti 2 integral format.
 Two-electron integral symmetry is turned on.
 Leave Link  301 at Mon Jan 18 18:18:33 2021, MaxMem=  4026531840 cpu:               0.4 elap:               0.1
 (Enter /opt/ohpc/pub/libs/gaussian/g16-A.03/sandybridge/g16/l302.exe)
 NPDir=0 NMtPBC=     1 NCelOv=     1 NCel=       1 NClECP=     1 NCelD=      1
         NCelK=      1 NCelE2=     1 NClLst=     1 CellRange=     0.0.
 One-electron integrals computed using PRISM.
 One-electron integral symmetry used in STVInt
 NBasis=   633 RedAO= T EigKep=  6.67D-06  NBF=   633
 NBsUse=   633 1.00D-06 EigRej= -1.00D+00 NBFU=   633
 Precomputing XC quadrature grid using
 IXCGrd= 4 IRadAn=           5 IRanWt=          -1 IRanGd=           0 AccXCQ= 0.00D+00.
 Generated NRdTot=       0 NPtTot=           0 NUsed=           0 NTot=          32
 NSgBfM=   625   625   625   625   625 MxSgAt=    46 MxSgA2=    46.
 Leave Link  302 at Mon Jan 18 18:18:34 2021, MaxMem=  4026531840 cpu:               8.2 elap:               1.1
 (Enter /opt/ohpc/pub/libs/gaussian/g16-A.03/sandybridge/g16/l303.exe)
 DipDrv:  MaxL=1.
 Leave Link  303 at Mon Jan 18 18:18:34 2021, MaxMem=  4026531840 cpu:               0.8 elap:               0.2
 (Enter /opt/ohpc/pub/libs/gaussian/g16-A.03/sandybridge/g16/l401.exe)
 ExpMin= 9.52D-02 ExpMax= 6.07D+04 ExpMxC= 2.07D+03 IAcc=3 IRadAn=         5 AccDes= 0.00D+00
 Harris functional with IExCor=33909 and IRadAn=       5 diagonalized for initial guess.
 HarFok:  IExCor=33909 AccDes= 0.00D+00 IRadAn=         5 IDoV= 1 UseB2=F ITyADJ=14
 ICtDFT=  3500011 ScaDFX=  1.000000  1.000000  1.000000  1.000000
 FoFCou: FMM=F IPFlag=           0 FMFlag=      100000 FMFlg1=           0
         NFxFlg=           0 DoJE=T BraDBF=F KetDBF=T FulRan=T
         wScrn=  0.000000 ICntrl=       500 IOpCl=  0 I1Cent=   200000004 NGrid=           0
         NMat0=    1 NMatS0=      1 NMatT0=    0 NMatD0=    1 NMtDS0=    0 NMtDT0=    0
 Petite list used in FoFCou.
 Harris En= -1759.19266729242    
 JPrj=0 DoOrth=F DoCkMO=F.
 Leave Link  401 at Mon Jan 18 18:18:40 2021, MaxMem=  4026531840 cpu:              46.5 elap:               5.9
 (Enter /opt/ohpc/pub/libs/gaussian/g16-A.03/sandybridge/g16/l502.exe)
 Integral symmetry usage will be decided dynamically.
 Closed shell SCF:
 Using DIIS extrapolation, IDIIS=    10.
 NGot=  4026531840 LenX=  4025648940 LenY=  4025212680
 Requested convergence on RMS density matrix=1.00D-06 within  32 cycles.
 Requested convergence on MAX density matrix=1.00D-04.
 Requested convergence on             energy=1.00D-04.
 Virtual orbitals will be shifted by   0.500 hartree.
 No special actions if energy rises.
 Dynamic level shift is on during FON iterations.

 Cycle   1  Pass 1  IDiag  1:
 FoFJK:  IHMeth= 1 ICntrl=       0 DoSepK=T KAlg= 0 I1Cent=           0 FoldK=F
 IRaf=         1 NMat=       1 IRICut=       1 DoRegI=T DoRafI=F ISym2E= 0 IDoP0=0 IntGTp=1.
 FoFCou: FMM=F IPFlag=           0 FMFlag=      100000 FMFlg1=           0
         NFxFlg=           0 DoJE=T BraDBF=F KetDBF=F FulRan=T
         wScrn=  0.000000 ICntrl=       500 IOpCl=  0 I1Cent=           0 NGrid=           0
         NMat0=    1 NMatS0=      1 NMatT0=    0 NMatD0=    1 NMtDS0=    0 NMtDT0=    0
 Symmetry not used in FoFCou.
 E= -1775.60794166704    
 DIIS: error= 2.74D-02 at cycle   1 NSaved=   1.
 NSaved= 1 IEnMin= 1 EnMin= -1775.60794166704     IErMin= 1 ErrMin= 2.74D-02
 ErrMax= 2.74D-02  0.00D+00 EMaxC= 1.00D+00 BMatC= 5.55D-01 BMatP= 5.55D-01
 IDIUse=1 WtCom= 1.00D+00 WtEn= 0.00D+00
 Coeff-Com:  0.100D+01
 Coeff:      0.100D+01
 Gap=     0.386 Goal=   None    Shift=    0.500
 T= 1442. Gap= 0.647 NK=0 IS=  102 IE=  633 IFin=  101
          NO(<0.9)=   0  NV(>0.1)=   0    101.00e < EF      0.00e >EF  Err=0.0D+00
 GapD=    0.386 DampG=1.000 DampE=0.500 DampFc=0.5000 IDamp=-1.
 Damping current iteration by 5.00D-01
 RMSDP=2.85D-03 MaxDP=1.91D-01              OVMax= 9.89D-02

 Cycle   2  Pass 1  IDiag  1:
 E= -1775.96667510460     Delta-E=       -0.358733437563 Rises=F Damp=T
 DIIS: error= 1.17D-02 at cycle   2 NSaved=   2.
 NSaved= 2 IEnMin= 2 EnMin= -1775.96667510460     IErMin= 2 ErrMin= 1.17D-02
 ErrMax= 1.17D-02  0.00D+00 EMaxC= 1.00D+00 BMatC= 7.92D-02 BMatP= 5.55D-01
 IDIUse=1 WtCom= 1.00D+00 WtEn= 0.00D+00
 Coeff-Com: -0.486D+00 0.149D+01
 Coeff:     -0.486D+00 0.149D+01
 Gap=     0.335 Goal=   None    Shift=    0.500
 T= 1315. Gap= 0.737 NK=0 IS=  102 IE=  633 IFin=  101
          NO(<0.9)=   0  NV(>0.1)=   0    101.00e < EF      0.00e >EF  Err=0.0D+00
 GapD=    0.335 DampG=1.000 DampE=0.500 DampFc=0.5000 IDamp=-1.
 Damping current iteration by 5.00D-01
 RMSDP=1.52D-03 MaxDP=1.00D-01 DE=-3.59D-01 OVMax= 1.97D-02

 Cycle   3  Pass 1  IDiag  1:
 E= -1776.07922605856     Delta-E=       -0.112550953957 Rises=F Damp=T
 DIIS: error= 5.56D-03 at cycle   3 NSaved=   3.
 NSaved= 3 IEnMin= 3 EnMin= -1776.07922605856     IErMin= 3 ErrMin= 5.56D-03
 ErrMax= 5.56D-03  0.00D+00 EMaxC= 1.00D+00 BMatC= 1.33D-02 BMatP= 7.92D-02
 IDIUse=1 WtCom= 1.00D+00 WtEn= 0.00D+00
 Coeff-Com:  0.109D+00-0.977D+00 0.187D+01
 Coeff:      0.109D+00-0.977D+00 0.187D+01
 Gap=     0.255 Goal=   None    Shift=    0.500
 T= 1076. Gap= 0.752 NK=0 IS=  102 IE=  633 IFin=  101
          NO(<0.9)=   0  NV(>0.1)=   0    101.00e < EF      0.00e >EF  Err=0.0D+00
 GapD=    0.255 DampG=1.000 DampE=1.000 DampFc=1.0000 IDamp=-1.
 RMSDP=8.05D-04 MaxDP=4.41D-02 DE=-1.13D-01 OVMax= 9.66D-03

 Cycle   4  Pass 1  IDiag  1:
 E= -1776.17093566736     Delta-E=       -0.091709608801 Rises=F Damp=F
 DIIS: error= 1.41D-03 at cycle   4 NSaved=   4.
 NSaved= 4 IEnMin= 4 EnMin= -1776.17093566736     IErMin= 4 ErrMin= 1.41D-03
 ErrMax= 1.41D-03  0.00D+00 EMaxC= 1.00D+00 BMatC= 1.13D-03 BMatP= 1.33D-02
 IDIUse=1 WtCom= 1.00D+00 WtEn= 0.00D+00
 Coeff-Com:  0.830D-01-0.220D+00 0.199D+00 0.937D+00
 Coeff:      0.830D-01-0.220D+00 0.199D+00 0.937D+00
 Gap=     0.249 Goal=   None    Shift=    0.500
 T=  554. Gap= 0.748 NK=0 IS=  102 IE=  633 IFin=  101
          NO(<0.9)=   0  NV(>0.1)=   0    101.00e < EF      0.00e >EF  Err=0.0D+00
 GapD=    0.249 DampG=1.000 DampE=1.000 DampFc=1.0000 IDamp=-1.
 RMSDP=2.53D-04 MaxDP=1.69D-02 DE=-9.17D-02 OVMax= 6.87D-03

 Cycle   5  Pass 1  IDiag  1:
 E= -1776.17229621675     Delta-E=       -0.001360549394 Rises=F Damp=F
 DIIS: error= 1.13D-03 at cycle   5 NSaved=   5.
 NSaved= 5 IEnMin= 5 EnMin= -1776.17229621675     IErMin= 5 ErrMin= 1.13D-03
 ErrMax= 1.13D-03  0.00D+00 EMaxC= 1.00D+00 BMatC= 1.48D-04 BMatP= 1.13D-03
 IDIUse=1 WtCom= 1.00D+00 WtEn= 0.00D+00
 Coeff-Com: -0.154D-02 0.100D+00-0.207D+00-0.109D+00 0.122D+01
 Coeff:     -0.154D-02 0.100D+00-0.207D+00-0.109D+00 0.122D+01
 Gap=     0.250 Goal=   None    Shift=    0.500
 T=   52. Gap= 0.750 NK=0 IS=  102 IE=  633 IFin=  101
          NO(<0.9)=   0  NV(>0.1)=   0    101.00e < EF      0.00e >EF  Err=0.0D+00
 GapD=    0.250 DampG=1.000 DampE=1.000 DampFc=1.0000 IDamp=-1.
 RMSDP=1.70D-04 MaxDP=1.14D-02 DE=-1.36D-03 OVMax= 5.60D-03

 Cycle   6  Pass 1  IDiag  1:
 E= -1776.17264615643     Delta-E=       -0.000349939678 Rises=F Damp=F
 DIIS: error= 9.48D-04 at cycle   6 NSaved=   6.
 NSaved= 6 IEnMin= 6 EnMin= -1776.17264615643     IErMin= 6 ErrMin= 9.48D-04
 ErrMax= 9.48D-04  0.00D+00 EMaxC= 1.00D+00 BMatC= 4.01D-05 BMatP= 1.48D-04
 IDIUse=1 WtCom= 1.00D+00 WtEn= 0.00D+00
 Coeff-Com: -0.172D-01 0.571D-01-0.680D-01-0.219D+00-0.177D+00 0.142D+01
 Coeff:     -0.172D-01 0.571D-01-0.680D-01-0.219D+00-0.177D+00 0.142D+01
 Gap=     0.250 Goal=   None    Shift=    0.500
 RMSDP=1.00D-04 MaxDP=6.56D-03 DE=-3.50D-04 OVMax= 4.73D-03

 Cycle   7  Pass 1  IDiag  1:
 E= -1776.17279691763     Delta-E=       -0.000150761200 Rises=F Damp=F
 DIIS: error= 7.07D-04 at cycle   7 NSaved=   7.
 NSaved= 7 IEnMin= 7 EnMin= -1776.17279691763     IErMin= 7 ErrMin= 7.07D-04
 ErrMax= 7.07D-04  0.00D+00 EMaxC= 1.00D+00 BMatC= 1.58D-05 BMatP= 4.01D-05
 IDIUse=1 WtCom= 1.00D+00 WtEn= 0.00D+00
 Coeff-Com: -0.463D-02-0.191D-01 0.475D-01-0.553D-01-0.441D+00-0.443D-01
 Coeff-Com:  0.152D+01
 Coeff:     -0.463D-02-0.191D-01 0.475D-01-0.553D-01-0.441D+00-0.443D-01
 Coeff:      0.152D+01
 Gap=     0.250 Goal=   None    Shift=    0.500
 RMSDP=5.40D-05 MaxDP=3.33D-03 DE=-1.51D-04 OVMax= 3.75D-03

 Cycle   8  Pass 1  IDiag  1:
 E= -1776.17286933596     Delta-E=       -0.000072418334 Rises=F Damp=F
 DIIS: error= 5.02D-04 at cycle   8 NSaved=   8.
 NSaved= 8 IEnMin= 8 EnMin= -1776.17286933596     IErMin= 8 ErrMin= 5.02D-04
 ErrMax= 5.02D-04  0.00D+00 EMaxC= 1.00D+00 BMatC= 6.38D-06 BMatP= 1.58D-05
 IDIUse=1 WtCom= 1.00D+00 WtEn= 0.00D+00
 Coeff-Com:  0.406D-02-0.274D-01 0.412D-01 0.776D-01-0.120D+00-0.658D+00
 Coeff-Com: -0.111D+00 0.179D+01
 Coeff:      0.406D-02-0.274D-01 0.412D-01 0.776D-01-0.120D+00-0.658D+00
 Coeff:     -0.111D+00 0.179D+01
 Gap=     0.250 Goal=   None    Shift=    0.500
 RMSDP=2.73D-05 MaxDP=1.31D-03 DE=-7.24D-05 OVMax= 2.84D-03

 Cycle   9  Pass 1  IDiag  1:
 E= -1776.17290332210     Delta-E=       -0.000033986140 Rises=F Damp=F
 DIIS: error= 3.61D-04 at cycle   9 NSaved=   9.
 NSaved= 9 IEnMin= 9 EnMin= -1776.17290332210     IErMin= 9 ErrMin= 3.61D-04
 ErrMax= 3.61D-04  0.00D+00 EMaxC= 1.00D+00 BMatC= 2.76D-06 BMatP= 6.38D-06
 IDIUse=1 WtCom= 1.00D+00 WtEn= 0.00D+00
 Coeff-Com:  0.239D-02-0.310D-02-0.252D-03 0.681D-01 0.781D-01-0.411D+00
 Coeff-Com: -0.536D+00 0.376D+00 0.143D+01
 Coeff:      0.239D-02-0.310D-02-0.252D-03 0.681D-01 0.781D-01-0.411D+00
 Coeff:     -0.536D+00 0.376D+00 0.143D+01
 Gap=     0.250 Goal=   None    Shift=    0.500
 RMSDP=1.37D-05 MaxDP=5.80D-04 DE=-3.40D-05 OVMax= 2.05D-03

 Cycle  10  Pass 1  IDiag  1:
 E= -1776.17291816771     Delta-E=       -0.000014845609 Rises=F Damp=F
 DIIS: error= 2.39D-04 at cycle  10 NSaved=  10.
 NSaved=10 IEnMin=10 EnMin= -1776.17291816771     IErMin=10 ErrMin= 2.39D-04
 ErrMax= 2.39D-04  0.00D+00 EMaxC= 1.00D+00 BMatC= 1.12D-06 BMatP= 2.76D-06
 IDIUse=1 WtCom= 1.00D+00 WtEn= 0.00D+00
 Coeff-Com: -0.943D-03 0.755D-02-0.115D-01 0.657D-03 0.357D-01 0.848D-01
 Coeff-Com: -0.815D-01-0.523D+00-0.812D+00 0.230D+01
 Coeff:     -0.943D-03 0.755D-02-0.115D-01 0.657D-03 0.357D-01 0.848D-01
 Coeff:     -0.815D-01-0.523D+00-0.812D+00 0.230D+01
 Gap=     0.250 Goal=   None    Shift=    0.500
 RMSDP=8.70D-06 MaxDP=4.04D-04 DE=-1.48D-05 OVMax= 1.41D-03

 Cycle  11  Pass 1  IDiag  1:
 E= -1776.17292440830     Delta-E=       -0.000006240585 Rises=F Damp=F
 DIIS: error= 1.65D-04 at cycle  11 NSaved=  11.
 NSaved=11 IEnMin=11 EnMin= -1776.17292440830     IErMin=11 ErrMin= 1.65D-04
 ErrMax= 1.65D-04  0.00D+00 EMaxC= 1.00D+00 BMatC= 5.06D-07 BMatP= 1.12D-06
 IDIUse=1 WtCom= 1.00D+00 WtEn= 0.00D+00
 Coeff-Com: -0.954D-03 0.265D-02-0.214D-02-0.138D-01-0.955D-02 0.131D+00
 Coeff-Com:  0.102D+00-0.297D+00-0.108D+01 0.732D+00 0.143D+01
 Coeff:     -0.954D-03 0.265D-02-0.214D-02-0.138D-01-0.955D-02 0.131D+00
 Coeff:      0.102D+00-0.297D+00-0.108D+01 0.732D+00 0.143D+01
 Gap=     0.250 Goal=   None    Shift=    0.500
 RMSDP=5.22D-06 MaxDP=2.38D-04 DE=-6.24D-06 OVMax= 9.45D-04

 Cycle  12  Pass 1  IDiag  1:
 E= -1776.17292698920     Delta-E=       -0.000002580902 Rises=F Damp=F
 DIIS: error= 1.07D-04 at cycle  12 NSaved=  12.
 NSaved=12 IEnMin=12 EnMin= -1776.17292698920     IErMin=12 ErrMin= 1.07D-04
 ErrMax= 1.07D-04  0.00D+00 EMaxC= 1.00D+00 BMatC= 2.13D-07 BMatP= 5.06D-07
 IDIUse=1 WtCom= 1.00D+00 WtEn= 0.00D+00
 Coeff-Com: -0.116D-03-0.187D-02 0.402D-02-0.474D-02-0.138D-01 0.138D-01
 Coeff-Com:  0.632D-01 0.144D+00-0.389D+00-0.534D+00-0.165D+00 0.188D+01
 Coeff:     -0.116D-03-0.187D-02 0.402D-02-0.474D-02-0.138D-01 0.138D-01
 Coeff:      0.632D-01 0.144D+00-0.389D+00-0.534D+00-0.165D+00 0.188D+01
 Gap=     0.250 Goal=   None    Shift=    0.500
 RMSDP=3.16D-06 MaxDP=1.49D-04 DE=-2.58D-06 OVMax= 6.25D-04

 Cycle  13  Pass 1  IDiag  1:
 E= -1776.17292804879     Delta-E=       -0.000001059590 Rises=F Damp=F
 DIIS: error= 7.30D-05 at cycle  13 NSaved=  13.
 NSaved=13 IEnMin=13 EnMin= -1776.17292804879     IErMin=13 ErrMin= 7.30D-05
 ErrMax= 7.30D-05  0.00D+00 EMaxC= 1.00D+00 BMatC= 1.02D-07 BMatP= 2.13D-07
 IDIUse=1 WtCom= 1.00D+00 WtEn= 0.00D+00
 Coeff-Com:  0.137D-03-0.151D-02 0.256D-02 0.307D-02-0.434D-02-0.379D-01
 Coeff-Com:  0.347D-02 0.215D+00 0.753D-01-0.529D+00-0.838D+00 0.481D+00
 Coeff-Com:  0.163D+01
 Coeff:      0.137D-03-0.151D-02 0.256D-02 0.307D-02-0.434D-02-0.379D-01
 Coeff:      0.347D-02 0.215D+00 0.753D-01-0.529D+00-0.838D+00 0.481D+00
 Coeff:      0.163D+01
 Gap=     0.250 Goal=   None    Shift=    0.500
 RMSDP=1.95D-06 MaxDP=9.86D-05 DE=-1.06D-06 OVMax= 4.23D-04

 Cycle  14  Pass 1  IDiag  1:
 E= -1776.17292850072     Delta-E=       -0.000000451926 Rises=F Damp=F
 DIIS: error= 4.71D-05 at cycle  14 NSaved=  14.
 NSaved=14 IEnMin=14 EnMin= -1776.17292850072     IErMin=14 ErrMin= 4.71D-05
 ErrMax= 4.71D-05  0.00D+00 EMaxC= 1.00D+00 BMatC= 4.44D-08 BMatP= 1.02D-07
 IDIUse=1 WtCom= 1.00D+00 WtEn= 0.00D+00
 Coeff-Com:  0.629D-04-0.755D-04-0.173D-04 0.333D-02 0.599D-03-0.208D-01
 Coeff-Com: -0.122D-01 0.749D-01 0.102D+00-0.423D-01-0.495D+00-0.219D+00
 Coeff-Com: -0.377D+00 0.199D+01
 Coeff:      0.629D-04-0.755D-04-0.173D-04 0.333D-02 0.599D-03-0.208D-01
 Coeff:     -0.122D-01 0.749D-01 0.102D+00-0.423D-01-0.495D+00-0.219D+00
 Coeff:     -0.377D+00 0.199D+01
 Gap=     0.250 Goal=   None    Shift=    0.500
 RMSDP=1.28D-06 MaxDP=6.20D-05 DE=-4.52D-07 OVMax= 2.76D-04

 Cycle  15  Pass 1  IDiag  1:
 E= -1776.17292868800     Delta-E=       -0.000000187285 Rises=F Damp=F
 DIIS: error= 3.14D-05 at cycle  15 NSaved=  15.
 NSaved=15 IEnMin=15 EnMin= -1776.17292868800     IErMin=15 ErrMin= 3.14D-05
 ErrMax= 3.14D-05  0.00D+00 EMaxC= 1.00D+00 BMatC= 1.98D-08 BMatP= 4.44D-08
 IDIUse=1 WtCom= 1.00D+00 WtEn= 0.00D+00
 Coeff-Com: -0.564D-05 0.429D-03-0.833D-03 0.751D-03 0.205D-02 0.154D-02
 Coeff-Com: -0.718D-02-0.198D-01 0.251D-01 0.172D+00-0.791D-01-0.261D+00
 Coeff-Com: -0.115D+01 0.858D+00 0.146D+01
 Coeff:     -0.564D-05 0.429D-03-0.833D-03 0.751D-03 0.205D-02 0.154D-02
 Coeff:     -0.718D-02-0.198D-01 0.251D-01 0.172D+00-0.791D-01-0.261D+00
 Coeff:     -0.115D+01 0.858D+00 0.146D+01
 Gap=     0.250 Goal=   None    Shift=    0.500
 RMSDP=7.84D-07 MaxDP=3.83D-05 DE=-1.87D-07 OVMax= 1.82D-04

 SCF Done:  E(RLC-wHPBE) =  -1776.17292869     A.U. after   15 cycles
            NFock= 15  Conv=0.78D-06     -V/T= 2.0035
 KE= 1.769917231682D+03 PE=-9.117415271335D+03 EE= 3.096640343605D+03
 Leave Link  502 at Mon Jan 18 18:28:54 2021, MaxMem=  4026531840 cpu:            4899.0 elap:             614.0
 (Enter /opt/ohpc/pub/libs/gaussian/g16-A.03/sandybridge/g16/l508.exe)
 QCSCF skips out because SCF is already converged.
 Leave Link  508 at Mon Jan 18 18:29:30 2021, MaxMem=  4026531840 cpu:               0.1 elap:               0.0
 (Enter /opt/ohpc/pub/libs/gaussian/g16-A.03/sandybridge/g16/l601.exe)
 Copying SCF densities to generalized density rwf, IOpCl= 0 IROHF=0.

 **********************************************************************

            Population analysis using the SCF density.

 **********************************************************************

 Orbital symmetries:
       Occupied  (A) (A) (A) (A) (A) (A) (A) (A) (A) (A) (A) (A)
                 (A) (A) (A) (A) (A) (A) (A) (A) (A) (A) (A) (A)
                 (A) (A) (A) (A) (A) (A) (A) (A) (A) (A) (A) (A)
                 (A) (A) (A) (A) (A) (A) (A) (A) (A) (A) (A) (A)
                 (A) (A) (A) (A) (A) (A) (A) (A) (A) (A) (A) (A)
                 (A) (A) (A) (A) (A) (A) (A) (A) (A) (A) (A) (A)
                 (A) (A) (A) (A) (A) (A) (A) (A) (A) (A) (A) (A)
                 (A) (A) (A) (A) (A) (A) (A) (A) (A) (A) (A) (A)
                 (A) (A) (A) (A) (A)
       Virtual   (A) (A) (A) (A) (A) (A) (A) (A) (A) (A) (A) (A)
                 (A) (A) (A) (A) (A) (A) (A) (A) (A) (A) (A) (A)
                 (A) (A) (A) (A) (A) (A) (A) (A) (A) (A) (A) (A)
                 (A) (A) (A) (A) (A) (A) (A) (A) (A) (A) (A) (A)
                 (A) (A) (A) (A) (A) (A) (A) (A) (A) (A) (A) (A)
                 (A) (A) (A) (A) (A) (A) (A) (A) (A) (A) (A) (A)
                 (A) (A) (A) (A) (A) (A) (A) (A) (A) (A) (A) (A)
                 (A) (A) (A) (A) (A) (A) (A) (A) (A) (A) (A) (A)
                 (A) (A) (A) (A) (A) (A) (A) (A) (A) (A) (A) (A)
                 (A) (A) (A) (A) (A) (A) (A) (A) (A) (A) (A) (A)
                 (A) (A) (A) (A) (A) (A) (A) (A) (A) (A) (A) (A)
                 (A) (A) (A) (A) (A) (A) (A) (A) (A) (A) (A) (A)
                 (A) (A) (A) (A) (A) (A) (A) (A) (A) (A) (A) (A)
                 (A) (A) (A) (A) (A) (A) (A) (A) (A) (A) (A) (A)
                 (A) (A) (A) (A) (A) (A) (A) (A) (A) (A) (A) (A)
                 (A) (A) (A) (A) (A) (A) (A) (A) (A) (A) (A) (A)
                 (A) (A) (A) (A) (A) (A) (A) (A) (A) (A) (A) (A)
                 (A) (A) (A) (A) (A) (A) (A) (A) (A) (A) (A) (A)
                 (A) (A) (A) (A) (A) (A) (A) (A) (A) (A) (A) (A)
                 (A) (A) (A) (A) (A) (A) (A) (A) (A) (A) (A) (A)
                 (A) (A) (A) (A) (A) (A) (A) (A) (A) (A) (A) (A)
                 (A) (A) (A) (A) (A) (A) (A) (A) (A) (A) (A) (A)
                 (A) (A) (A) (A) (A) (A) (A) (A) (A) (A) (A) (A)
                 (A) (A) (A) (A) (A) (A) (A) (A) (A) (A) (A) (A)
                 (A) (A) (A) (A) (A) (A) (A) (A) (A) (A) (A) (A)
                 (A) (A) (A) (A) (A) (A) (A) (A) (A) (A) (A) (A)
                 (A) (A) (A) (A) (A) (A) (A) (A) (A) (A) (A) (A)
                 (A) (A) (A) (A) (A) (A) (A) (A) (A) (A) (A) (A)
                 (A) (A) (A) (A) (A) (A) (A) (A) (A) (A) (A) (A)
                 (A) (A) (A) (A) (A) (A) (A) (A) (A) (A) (A) (A)
                 (A) (A) (A) (A) (A) (A) (A) (A) (A) (A) (A) (A)
                 (A) (A) (A) (A) (A) (A) (A) (A) (A) (A) (A) (A)
                 (A) (A) (A) (A) (A) (A) (A) (A) (A) (A) (A) (A)
                 (A) (A) (A) (A) (A) (A) (A) (A) (A) (A) (A) (A)
                 (A) (A) (A) (A) (A) (A) (A) (A) (A) (A) (A) (A)
                 (A) (A) (A) (A) (A) (A) (A) (A) (A) (A) (A) (A)
                 (A) (A) (A) (A) (A) (A) (A) (A) (A) (A) (A) (A)
                 (A) (A) (A) (A) (A) (A) (A) (A) (A) (A) (A) (A)
                 (A) (A) (A) (A) (A) (A) (A) (A) (A) (A) (A) (A)
                 (A) (A) (A) (A) (A) (A) (A) (A) (A) (A) (A) (A)
                 (A) (A) (A) (A) (A) (A) (A) (A) (A) (A) (A) (A)
                 (A) (A) (A) (A) (A) (A) (A) (A) (A) (A) (A) (A)
                 (A) (A) (A) (A) (A) (A) (A) (A) (A) (A) (A) (A)
                 (A) (A) (A) (A) (A) (A) (A) (A) (A) (A) (A) (A)
                 (A) (A) (A) (A)
 The electronic state is 1-A.
 Alpha  occ. eigenvalues --  -88.18063 -88.17978 -14.11650 -10.02699 -10.02165
 Alpha  occ. eigenvalues --  -10.02131 -10.01456 -10.01077 -10.00600  -9.98553
 Alpha  occ. eigenvalues --   -9.98528  -9.98169  -9.98139  -9.98114  -9.98111
 Alpha  occ. eigenvalues --   -9.98082  -9.98079  -9.97996  -9.97937  -9.97935
 Alpha  occ. eigenvalues --   -9.97916  -9.97875  -9.97734  -9.97700  -9.97448
 Alpha  occ. eigenvalues --   -9.97242  -9.97175  -7.77328  -7.77113  -5.79568
 Alpha  occ. eigenvalues --   -5.79380  -5.79090  -5.78878  -5.78340  -5.78125
 Alpha  occ. eigenvalues --   -0.99241  -0.89848  -0.88837  -0.88569  -0.86932
 Alpha  occ. eigenvalues --   -0.82366  -0.81213  -0.79201  -0.78619  -0.77756
 Alpha  occ. eigenvalues --   -0.77545  -0.77485  -0.75149  -0.73409  -0.71312
 Alpha  occ. eigenvalues --   -0.66978  -0.66378  -0.64594  -0.64385  -0.64007
 Alpha  occ. eigenvalues --   -0.63298  -0.61476  -0.60740  -0.58303  -0.58264
 Alpha  occ. eigenvalues --   -0.55539  -0.54041  -0.52750  -0.51696  -0.51506
 Alpha  occ. eigenvalues --   -0.50888  -0.49984  -0.49693  -0.48716  -0.48422
 Alpha  occ. eigenvalues --   -0.47804  -0.47567  -0.47061  -0.46806  -0.46649
 Alpha  occ. eigenvalues --   -0.46152  -0.45211  -0.44007  -0.43359  -0.43067
 Alpha  occ. eigenvalues --   -0.42941  -0.41830  -0.41057  -0.40488  -0.40046
 Alpha  occ. eigenvalues --   -0.39457  -0.38989  -0.38891  -0.38776  -0.37163
 Alpha  occ. eigenvalues --   -0.35717  -0.35072  -0.33873  -0.32579  -0.32550
 Alpha  occ. eigenvalues --   -0.32227  -0.31448  -0.31209  -0.27871  -0.25714
 Alpha  occ. eigenvalues --   -0.24607
 Alpha virt. eigenvalues --    0.00370   0.00800   0.01416   0.02666   0.03183
 Alpha virt. eigenvalues --    0.03310   0.03722   0.04502   0.05851   0.08338
 Alpha virt. eigenvalues --    0.09370   0.09742   0.09939   0.11024   0.12039
 Alpha virt. eigenvalues --    0.12281   0.12545   0.12915   0.13096   0.13777
 Alpha virt. eigenvalues --    0.14228   0.14322   0.15078   0.15481   0.15619
 Alpha virt. eigenvalues --    0.16060   0.16315   0.16571   0.16946   0.17167
 Alpha virt. eigenvalues --    0.17697   0.18075   0.18924   0.19096   0.20157
 Alpha virt. eigenvalues --    0.20832   0.22141   0.22777   0.23153   0.23583
 Alpha virt. eigenvalues --    0.23697   0.24095   0.24590   0.24669   0.25028
 Alpha virt. eigenvalues --    0.25496   0.25717   0.26290   0.26456   0.26688
 Alpha virt. eigenvalues --    0.26778   0.27087   0.27269   0.27393   0.27942
 Alpha virt. eigenvalues --    0.28184   0.28422   0.28856   0.28929   0.29495
 Alpha virt. eigenvalues --    0.29701   0.29784   0.30372   0.30433   0.31047
 Alpha virt. eigenvalues --    0.31470   0.31721   0.31881   0.32151   0.32504
 Alpha virt. eigenvalues --    0.33259   0.33540   0.34178   0.34350   0.34753
 Alpha virt. eigenvalues --    0.34996   0.35516   0.35714   0.36226   0.36792
 Alpha virt. eigenvalues --    0.36926   0.37486   0.37711   0.38496   0.38761
 Alpha virt. eigenvalues --    0.39439   0.39574   0.40257   0.40596   0.40792
 Alpha virt. eigenvalues --    0.41094   0.41595   0.41933   0.42021   0.42340
 Alpha virt. eigenvalues --    0.42778   0.42874   0.43191   0.43223   0.44040
 Alpha virt. eigenvalues --    0.44200   0.44291   0.44854   0.45325   0.45787
 Alpha virt. eigenvalues --    0.45812   0.46277   0.46513   0.46898   0.46983
 Alpha virt. eigenvalues --    0.47296   0.47743   0.48012   0.48410   0.49049
 Alpha virt. eigenvalues --    0.49195   0.49401   0.49754   0.50507   0.50873
 Alpha virt. eigenvalues --    0.51215   0.51472   0.51802   0.52429   0.52795
 Alpha virt. eigenvalues --    0.53398   0.53606   0.54141   0.54225   0.54503
 Alpha virt. eigenvalues --    0.54683   0.54923   0.55254   0.55652   0.56095
 Alpha virt. eigenvalues --    0.56974   0.57320   0.58285   0.58723   0.59252
 Alpha virt. eigenvalues --    0.59630   0.60729   0.60809   0.61543   0.61920
 Alpha virt. eigenvalues --    0.62857   0.63818   0.64417   0.64796   0.65477
 Alpha virt. eigenvalues --    0.66422   0.67020   0.68955   0.69696   0.70009
 Alpha virt. eigenvalues --    0.70470   0.70817   0.71087   0.71186   0.71803
 Alpha virt. eigenvalues --    0.72209   0.72327   0.73088   0.73328   0.73579
 Alpha virt. eigenvalues --    0.74014   0.74195   0.74777   0.75405   0.76175
 Alpha virt. eigenvalues --    0.76407   0.76655   0.77868   0.79228   0.79775
 Alpha virt. eigenvalues --    0.80088   0.80985   0.81611   0.82165   0.83785
 Alpha virt. eigenvalues --    0.84523   0.86700   0.88093   0.88465   0.88965
 Alpha virt. eigenvalues --    0.89560   0.91160   0.91418   0.93917   0.94786
 Alpha virt. eigenvalues --    0.95289   0.95846   0.97440   0.98532   0.99264
 Alpha virt. eigenvalues --    0.99992   1.06285   1.12303   1.16920   1.17794
 Alpha virt. eigenvalues --    1.18157   1.21289   1.21454   1.22532   1.23508
 Alpha virt. eigenvalues --    1.24603   1.24909   1.25168   1.25792   1.26189
 Alpha virt. eigenvalues --    1.27322   1.27583   1.27973   1.28067   1.28244
 Alpha virt. eigenvalues --    1.28815   1.29224   1.29465   1.29753   1.30404
 Alpha virt. eigenvalues --    1.30463   1.31141   1.31536   1.31875   1.32243
 Alpha virt. eigenvalues --    1.32540   1.32715   1.33567   1.34342   1.34814
 Alpha virt. eigenvalues --    1.35541   1.36074   1.36255   1.37057   1.37952
 Alpha virt. eigenvalues --    1.39522   1.41326   1.42171   1.42513   1.42969
 Alpha virt. eigenvalues --    1.43711   1.44247   1.44981   1.45282   1.45461
 Alpha virt. eigenvalues --    1.45577   1.45612   1.45840   1.46189   1.46304
 Alpha virt. eigenvalues --    1.46517   1.46810   1.47215   1.47431   1.47798
 Alpha virt. eigenvalues --    1.47932   1.49012   1.49374   1.49640   1.50005
 Alpha virt. eigenvalues --    1.50654   1.51399   1.52028   1.52125   1.52546
 Alpha virt. eigenvalues --    1.52902   1.53164   1.53212   1.54205   1.54234
 Alpha virt. eigenvalues --    1.54811   1.55507   1.56118   1.56595   1.56948
 Alpha virt. eigenvalues --    1.57322   1.57419   1.57837   1.57909   1.58142
 Alpha virt. eigenvalues --    1.58532   1.58988   1.59553   1.59782   1.60055
 Alpha virt. eigenvalues --    1.60235   1.61314   1.61491   1.62134   1.62733
 Alpha virt. eigenvalues --    1.63333   1.63395   1.67058   1.67430   1.68148
 Alpha virt. eigenvalues --    1.68355   1.69118   1.70880   1.71959   1.72784
 Alpha virt. eigenvalues --    1.73516   1.73978   1.76680   1.77300   1.77681
 Alpha virt. eigenvalues --    1.77992   1.78334   1.78406   1.79149   1.79420
 Alpha virt. eigenvalues --    1.80037   1.80357   1.80685   1.81080   1.81643
 Alpha virt. eigenvalues --    1.82252   1.82803   1.83231   1.83674   1.83763
 Alpha virt. eigenvalues --    1.84885   1.85477   1.86209   1.88410   1.88826
 Alpha virt. eigenvalues --    1.89432   1.89843   1.90145   1.90410   1.90665
 Alpha virt. eigenvalues --    1.91131   1.92048   1.92137   1.92404   1.92947
 Alpha virt. eigenvalues --    1.93220   1.93631   1.93856   1.94293   1.94376
 Alpha virt. eigenvalues --    1.94860   1.95001   1.95145   1.96200   1.97177
 Alpha virt. eigenvalues --    1.98487   1.98568   1.98745   1.98945   1.99690
 Alpha virt. eigenvalues --    2.00543   2.00889   2.01619   2.02494   2.02761
 Alpha virt. eigenvalues --    2.03628   2.04353   2.04949   2.05223   2.07261
 Alpha virt. eigenvalues --    2.09074   2.10034   2.10710   2.11781   2.12839
 Alpha virt. eigenvalues --    2.13979   2.15749   2.16663   2.20051   2.20441
 Alpha virt. eigenvalues --    2.21411   2.23361   2.24093   2.24931   2.25352
 Alpha virt. eigenvalues --    2.27678   2.28024   2.29644   2.30709   2.30777
 Alpha virt. eigenvalues --    2.31743   2.32063   2.32320   2.32596   2.32783
 Alpha virt. eigenvalues --    2.33090   2.33481   2.33770   2.34098   2.34596
 Alpha virt. eigenvalues --    2.34855   2.35223   2.35550   2.36034   2.36414
 Alpha virt. eigenvalues --    2.36651   2.36704   2.38037   2.38261   2.38325
 Alpha virt. eigenvalues --    2.39324   2.39562   2.41140   2.43834   2.45250
 Alpha virt. eigenvalues --    2.46612   2.47177   2.47893   2.50337   2.51594
 Alpha virt. eigenvalues --    2.51856   2.52836   2.52958   2.53108   2.53960
 Alpha virt. eigenvalues --    2.54402   2.55059   2.56949   2.57214   2.58224
 Alpha virt. eigenvalues --    2.59716   2.59982   2.60828   2.61844   2.63148
 Alpha virt. eigenvalues --    2.64023   2.64849   2.65723   2.65852   2.65943
 Alpha virt. eigenvalues --    2.66193   2.66802   2.67079   2.67320   2.67540
 Alpha virt. eigenvalues --    2.68407   2.68651   2.70487   2.74384   2.75016
 Alpha virt. eigenvalues --    2.75541   2.76147   2.77318   2.78534   2.79484
 Alpha virt. eigenvalues --    2.80383   2.81798   2.83532   2.84110   2.85235
 Alpha virt. eigenvalues --    2.85620   2.86550   2.87517   2.89677   2.96709
 Alpha virt. eigenvalues --    2.98389   2.98676   2.99862   3.00509   3.02354
 Alpha virt. eigenvalues --    3.02987   3.03430   3.04152   3.04386   3.05168
 Alpha virt. eigenvalues --    3.06149   3.08151   3.10616   3.10916   3.11137
 Alpha virt. eigenvalues --    3.12736   3.13344   3.13674   3.15354   3.15719
 Alpha virt. eigenvalues --    3.16590   3.17893   3.18136   3.18648   3.20284
 Alpha virt. eigenvalues --    3.20722   3.21027   3.21896   3.21963   3.24164
 Alpha virt. eigenvalues --    3.26902   3.29311   3.33783   3.34118   3.34683
 Alpha virt. eigenvalues --    3.37031   3.40272   3.41327   3.42048   3.47218
 Alpha virt. eigenvalues --    3.53162   3.55399   3.56030   3.56223   3.58460
 Alpha virt. eigenvalues --    3.62720   3.71605   3.80929   3.91735   3.93799
 Alpha virt. eigenvalues --   18.74726  18.99914  21.03874  21.18753  21.21111
 Alpha virt. eigenvalues --   21.32619  21.60596  21.67703  21.68792  21.70792
 Alpha virt. eigenvalues --   21.72048  21.72896  21.79744  21.85278  21.89518
 Alpha virt. eigenvalues --   21.90734  21.91292  21.94684  21.96783  21.97375
 Alpha virt. eigenvalues --   22.02396  22.02520  22.06602  22.09779  22.15141
 Alpha virt. eigenvalues --   22.15827  32.02772
          Condensed to atoms (all electrons):
               1          2          3          4          5          6
     1  C    5.833087   0.086280  -0.158341  -0.062672   0.002402  -0.037340
     2  C    0.086280   5.941789   0.427311  -0.118093  -0.011536  -0.009048
     3  S   -0.158341   0.427311  15.573881  -0.099470  -0.138719   0.406066
     4  C   -0.062672  -0.118093  -0.099470   6.076723  -0.003303   0.034604
     5  C    0.002402  -0.011536  -0.138719  -0.003303   5.696148  -0.033697
     6  C   -0.037340  -0.009048   0.406066   0.034604  -0.033697   5.958048
     7  C    0.069362   0.133731   0.030097  -0.190422  -0.004316  -0.010319
     8  C   -0.404727   0.134331   0.027128  -0.071322  -0.000224  -0.003476
     9  H    0.001066   0.019193  -0.000001  -0.034878   0.000008  -0.000015
    10  C   -0.003157   0.001347   0.044508   0.001176  -0.069429   0.233581
    11  C    0.003609  -0.009994  -0.151496  -0.006657   0.277664  -0.180760
    12  C    0.000535  -0.000818   0.050454   0.000436  -0.337442   0.304738
    13  C   -0.000278  -0.002469  -0.014764  -0.000537   0.249343  -0.334455
    14  H    0.000008  -0.000030  -0.000193   0.000002  -0.051334   0.018573
    15  H    0.002778  -0.001423  -0.008591  -0.001876   0.032783  -0.105378
    16  H    0.000075   0.000021  -0.000177   0.000004  -0.003525   0.018729
    17  C    0.224230  -0.218089  -0.006225   0.227033   0.000228   0.002111
    18  H    0.425894  -0.100080  -0.019848   0.010445  -0.003369   0.022994
    19  H    0.000911  -0.000413  -0.002518  -0.000846   0.457123  -0.102665
    20  H   -0.072027   0.025411  -0.000120  -0.002088   0.000017   0.000019
    21  H   -0.003245   0.033952  -0.000185  -0.126336  -0.000003   0.000018
    22  H    0.026309  -0.005112   0.000008   0.029717   0.000004   0.000007
    23  S    0.035550  -0.153887   0.023135   0.464454   0.000154   0.000210
    24  N   -0.000027  -0.000011  -0.000035  -0.000000   0.017327   0.002488
    25  C    0.000019  -0.000016   0.000023  -0.000001  -0.005405   0.003171
    26  C   -0.000001   0.000001  -0.000000   0.000000  -0.000272   0.000158
    27  C    0.000003  -0.000004   0.000006  -0.000000   0.002805  -0.001168
    28  C   -0.000000   0.000000  -0.000000   0.000000  -0.000059   0.000017
    29  C    0.000000  -0.000000   0.000001  -0.000000   0.000067  -0.000099
    30  C   -0.000000   0.000000  -0.000000   0.000000   0.000017  -0.000008
    31  H    0.000000  -0.000000   0.000000  -0.000000   0.000014  -0.000003
    32  H    0.000000  -0.000001   0.000008  -0.000000  -0.000113   0.000923
    33  H    0.000000  -0.000000   0.000000  -0.000000   0.000000   0.000000
    34  H    0.000000  -0.000000  -0.000000   0.000000  -0.000001  -0.000002
    35  H   -0.000000   0.000000  -0.000000   0.000000  -0.000000  -0.000000
    36  C   -0.000011   0.000001  -0.000034   0.000000  -0.003573   0.001131
    37  C    0.000003  -0.000000   0.000002  -0.000000   0.000787   0.000289
    38  C   -0.000158   0.000015  -0.000019   0.000002  -0.006219  -0.001908
    39  C   -0.000000  -0.000000  -0.000000   0.000000   0.000024   0.000025
    40  C   -0.000014   0.000001  -0.000001   0.000000  -0.000635  -0.000158
    41  C    0.000000  -0.000000   0.000000  -0.000000  -0.000057  -0.000001
    42  H   -0.000000   0.000000  -0.000000   0.000000   0.000016  -0.000010
    43  H    0.000088   0.000011  -0.000001  -0.000001  -0.002729   0.000591
    44  H   -0.000000   0.000000  -0.000000   0.000000  -0.000002  -0.000000
    45  H   -0.000000  -0.000000  -0.000000   0.000000   0.000027  -0.000003
    46  H    0.000000  -0.000000   0.000000  -0.000000  -0.000001  -0.000000
               7          8          9         10         11         12
     1  C    0.069362  -0.404727   0.001066  -0.003157   0.003609   0.000535
     2  C    0.133731   0.134331   0.019193   0.001347  -0.009994  -0.000818
     3  S    0.030097   0.027128  -0.000001   0.044508  -0.151496   0.050454
     4  C   -0.190422  -0.071322  -0.034878   0.001176  -0.006657   0.000436
     5  C   -0.004316  -0.000224   0.000008  -0.069429   0.277664  -0.337442
     6  C   -0.010319  -0.003476  -0.000015   0.233581  -0.180760   0.304738
     7  C    5.331314   0.250173  -0.001111   0.000797  -0.005045   0.001208
     8  C    0.250173   5.966414  -0.035208  -0.000027   0.000813   0.000030
     9  H   -0.001111  -0.035208   0.625474  -0.000000  -0.000000  -0.000000
    10  C    0.000797  -0.000027  -0.000000   5.744821  -0.324541   0.102016
    11  C   -0.005045   0.000813  -0.000000  -0.324541   5.844720  -0.151074
    12  C    0.001208   0.000030  -0.000000   0.102016  -0.151074   5.824542
    13  C   -0.000267   0.000028   0.000000   0.082283   0.286681   0.038926
    14  H    0.000002  -0.000000  -0.000000   0.415906  -0.003278   0.015215
    15  H   -0.001013  -0.000020   0.000002  -0.009965   0.473282  -0.092578
    16  H    0.000013   0.000000  -0.000000   0.015560  -0.049717   0.414857
    17  C    0.223464  -0.072075   0.006134  -0.000013  -0.000205  -0.000026
    18  H   -0.042868   0.001809   0.000008   0.002001  -0.000482   0.000346
    19  H   -0.000448   0.000020   0.000000  -0.086951   0.039639  -0.013081
    20  H    0.427019   0.023021  -0.000003  -0.000009  -0.000018  -0.000018
    21  H    0.018719   0.447756  -0.000133   0.000000   0.000007   0.000000
    22  H   -0.076782  -0.085818   0.000028  -0.000000   0.000001  -0.000000
    23  S   -0.010098  -0.150868   0.322934   0.000006   0.000128  -0.000001
    24  N    0.000002  -0.000000   0.000000  -0.020215   0.016012  -0.022952
    25  C    0.000002   0.000000  -0.000000  -0.001040  -0.007228   0.034426
    26  C   -0.000000  -0.000000   0.000000  -0.011365   0.001009   0.020577
    27  C   -0.000000   0.000000  -0.000000   0.019136  -0.007203  -0.063753
    28  C    0.000000  -0.000000  -0.000000  -0.000186   0.000019   0.002676
    29  C    0.000000   0.000000  -0.000000   0.001254  -0.000980  -0.011073
    30  C   -0.000000  -0.000000   0.000000  -0.000000  -0.000011  -0.000274
    31  H    0.000000   0.000000  -0.000000  -0.000282  -0.000016   0.000427
    32  H    0.000000   0.000000   0.000000   0.000267  -0.002534   0.005067
    33  H    0.000000   0.000000  -0.000000   0.000002  -0.000002  -0.000038
    34  H    0.000000   0.000000  -0.000000  -0.000025   0.000021   0.000025
    35  H   -0.000000  -0.000000   0.000000   0.000000  -0.000001  -0.000014
    36  C   -0.000001   0.000000   0.000000   0.019355  -0.001783  -0.008974
    37  C    0.000000   0.000000  -0.000000   0.021784  -0.000518  -0.010463
    38  C    0.000014  -0.000000   0.000000  -0.062599   0.002978   0.016492
    39  C   -0.000000  -0.000000  -0.000000   0.002635  -0.000068  -0.000104
    40  C    0.000000  -0.000000   0.000000  -0.011259   0.000106   0.001058
    41  C    0.000000   0.000000  -0.000000  -0.000024   0.000011   0.000014
    42  H   -0.000000  -0.000000   0.000000   0.000402   0.000031  -0.000371
    43  H    0.000003   0.000000   0.000000   0.006058   0.000258  -0.000452
    44  H   -0.000000  -0.000000   0.000000  -0.000041   0.000000   0.000002
    45  H    0.000000  -0.000000  -0.000000  -0.000008   0.000000  -0.000027
    46  H    0.000000   0.000000  -0.000000  -0.000014  -0.000000   0.000000
              13         14         15         16         17         18
     1  C   -0.000278   0.000008   0.002778   0.000075   0.224230   0.425894
     2  C   -0.002469  -0.000030  -0.001423   0.000021  -0.218089  -0.100080
     3  S   -0.014764  -0.000193  -0.008591  -0.000177  -0.006225  -0.019848
     4  C   -0.000537   0.000002  -0.001876   0.000004   0.227033   0.010445
     5  C    0.249343  -0.051334   0.032783  -0.003525   0.000228  -0.003369
     6  C   -0.334455   0.018573  -0.105378   0.018729   0.002111   0.022994
     7  C   -0.000267   0.000002  -0.001013   0.000013   0.223464  -0.042868
     8  C    0.000028  -0.000000  -0.000020   0.000000  -0.072075   0.001809
     9  H    0.000000  -0.000000   0.000002  -0.000000   0.006134   0.000008
    10  C    0.082283   0.415906  -0.009965   0.015560  -0.000013   0.002001
    11  C    0.286681  -0.003278   0.473282  -0.049717  -0.000205  -0.000482
    12  C    0.038926   0.015215  -0.092578   0.414857  -0.000026   0.000346
    13  C    5.702782  -0.056531   0.030192  -0.057535  -0.000013  -0.001953
    14  H   -0.056531   0.523558  -0.000017  -0.000260   0.000000   0.000117
    15  H    0.030192  -0.000017   0.572160  -0.009278   0.000111   0.000591
    16  H   -0.057535  -0.000260  -0.009278   0.520787  -0.000000   0.000027
    17  C   -0.000013   0.000000   0.000111  -0.000000   5.372169   0.011546
    18  H   -0.001953   0.000117   0.000591   0.000027   0.011546   0.544724
    19  H    0.030230  -0.009479   0.000176  -0.000028   0.000014   0.000549
    20  H   -0.000010  -0.000000  -0.000008   0.000000  -0.074652  -0.009296
    21  H    0.000000   0.000000  -0.000000   0.000000  -0.058208   0.000034
    22  H    0.000000  -0.000000   0.000000  -0.000000   0.436598  -0.000372
    23  S    0.000000   0.000000   0.000194  -0.000000   0.041749  -0.000095
    24  N    0.205962  -0.008924  -0.000342  -0.009273   0.000000   0.000017
    25  C   -0.099058  -0.001124  -0.000299   0.006209  -0.000000  -0.000006
    26  C   -0.012161  -0.000273  -0.000029  -0.000085   0.000000   0.000003
    27  C    0.023666   0.000183  -0.000061  -0.000542  -0.000000  -0.000007
    28  C   -0.003980   0.000012  -0.000001   0.000637  -0.000000   0.000000
    29  C    0.003860  -0.000008   0.000013  -0.001435  -0.000000  -0.000000
    30  C    0.001619  -0.000003   0.000001   0.000269   0.000000   0.000000
    31  H   -0.001551  -0.000007  -0.000001   0.000058  -0.000000  -0.000000
    32  H   -0.002371   0.000029  -0.000069   0.001181   0.000000   0.000001
    33  H    0.000012  -0.000000  -0.000000   0.000011  -0.000000  -0.000000
    34  H   -0.000175  -0.000000  -0.000000  -0.000029  -0.000000   0.000000
    35  H    0.000014   0.000000   0.000000   0.000004   0.000000   0.000000
    36  C   -0.078542   0.005113   0.000076  -0.001648  -0.000000  -0.000064
    37  C   -0.015537  -0.000167  -0.000001  -0.000221  -0.000000  -0.000004
    38  C    0.025512  -0.000621  -0.000009   0.000180   0.000000   0.000214
    39  C   -0.003855   0.000657   0.000000   0.000013   0.000000   0.000000
    40  C    0.004948  -0.001397  -0.000000  -0.000006   0.000000   0.000029
    41  C    0.001221   0.000370  -0.000000  -0.000003  -0.000000  -0.000000
    42  H   -0.001545   0.000019   0.000000  -0.000012   0.000000  -0.000000
    43  H   -0.002468   0.001034  -0.000000  -0.000004  -0.000000   0.000123
    44  H    0.000019   0.000009  -0.000000  -0.000000   0.000000   0.000000
    45  H   -0.000153  -0.000034   0.000000  -0.000000  -0.000000  -0.000001
    46  H    0.000015   0.000004  -0.000000   0.000000  -0.000000  -0.000000
              19         20         21         22         23         24
     1  C    0.000911  -0.072027  -0.003245   0.026309   0.035550  -0.000027
     2  C   -0.000413   0.025411   0.033952  -0.005112  -0.153887  -0.000011
     3  S   -0.002518  -0.000120  -0.000185   0.000008   0.023135  -0.000035
     4  C   -0.000846  -0.002088  -0.126336   0.029717   0.464454  -0.000000
     5  C    0.457123   0.000017  -0.000003   0.000004   0.000154   0.017327
     6  C   -0.102665   0.000019   0.000018   0.000007   0.000210   0.002488
     7  C   -0.000448   0.427019   0.018719  -0.076782  -0.010098   0.000002
     8  C    0.000020   0.023021   0.447756  -0.085818  -0.150868  -0.000000
     9  H    0.000000  -0.000003  -0.000133   0.000028   0.322934   0.000000
    10  C   -0.086951  -0.000009   0.000000  -0.000000   0.000006  -0.020215
    11  C    0.039639  -0.000018   0.000007   0.000001   0.000128   0.016012
    12  C   -0.013081  -0.000018   0.000000  -0.000000  -0.000001  -0.022952
    13  C    0.030230  -0.000010   0.000000   0.000000   0.000000   0.205962
    14  H   -0.009479  -0.000000   0.000000  -0.000000   0.000000  -0.008924
    15  H    0.000176  -0.000008  -0.000000   0.000000   0.000194  -0.000342
    16  H   -0.000028   0.000000   0.000000  -0.000000  -0.000000  -0.009273
    17  C    0.000014  -0.074652  -0.058208   0.436598   0.041749   0.000000
    18  H    0.000549  -0.009296   0.000034  -0.000372  -0.000095   0.000017
    19  H    0.576032   0.000001   0.000000  -0.000000  -0.000007  -0.000386
    20  H    0.000001   0.594943  -0.000392  -0.009919  -0.000016   0.000000
    21  H    0.000000  -0.000392   0.615126  -0.011136  -0.018257   0.000000
    22  H   -0.000000  -0.009919  -0.011136   0.597754  -0.000100   0.000000
    23  S   -0.000007  -0.000016  -0.018257  -0.000100  15.499983   0.000000
    24  N   -0.000386   0.000000   0.000000   0.000000   0.000000   6.512702
    25  C    0.000021  -0.000000   0.000000  -0.000000  -0.000000   0.150888
    26  C    0.000002   0.000000  -0.000000   0.000000   0.000000  -0.010119
    27  C   -0.000021   0.000000   0.000000  -0.000000  -0.000000  -0.010923
    28  C    0.000000   0.000000  -0.000000   0.000000  -0.000000   0.014672
    29  C   -0.000001  -0.000000   0.000000  -0.000000  -0.000000   0.015377
    30  C    0.000000   0.000000  -0.000000   0.000000   0.000000   0.006064
    31  H   -0.000000   0.000000   0.000000  -0.000000  -0.000000  -0.008173
    32  H   -0.000008  -0.000000   0.000000  -0.000000   0.000000  -0.006829
    33  H   -0.000000  -0.000000   0.000000  -0.000000  -0.000000  -0.000648
    34  H    0.000000  -0.000000   0.000000  -0.000000   0.000000  -0.000678
    35  H    0.000000   0.000000  -0.000000   0.000000   0.000000  -0.000047
    36  C   -0.000062   0.000000   0.000000   0.000000   0.000000   0.151935
    37  C   -0.000041   0.000000   0.000000  -0.000000  -0.000000  -0.010985
    38  C    0.000070  -0.000001  -0.000000   0.000000   0.000000  -0.007240
    39  C   -0.000002  -0.000000  -0.000000   0.000000   0.000000   0.014037
    40  C    0.000034  -0.000000  -0.000000   0.000000   0.000000   0.014724
    41  C   -0.000005   0.000000   0.000000  -0.000000  -0.000000   0.006238
    42  H    0.000000   0.000000   0.000000   0.000000  -0.000000  -0.008080
    43  H   -0.000075   0.000008   0.000000  -0.000000  -0.000000  -0.007707
    44  H    0.000000  -0.000000  -0.000000   0.000000   0.000000  -0.000650
    45  H    0.000000   0.000000  -0.000000   0.000000   0.000000  -0.000665
    46  H   -0.000000   0.000000   0.000000  -0.000000  -0.000000  -0.000046
              25         26         27         28         29         30
     1  C    0.000019  -0.000001   0.000003  -0.000000   0.000000  -0.000000
     2  C   -0.000016   0.000001  -0.000004   0.000000  -0.000000   0.000000
     3  S    0.000023  -0.000000   0.000006  -0.000000   0.000001  -0.000000
     4  C   -0.000001   0.000000  -0.000000   0.000000  -0.000000   0.000000
     5  C   -0.005405  -0.000272   0.002805  -0.000059   0.000067   0.000017
     6  C    0.003171   0.000158  -0.001168   0.000017  -0.000099  -0.000008
     7  C    0.000002  -0.000000  -0.000000   0.000000   0.000000  -0.000000
     8  C    0.000000  -0.000000   0.000000  -0.000000   0.000000  -0.000000
     9  H   -0.000000   0.000000  -0.000000  -0.000000  -0.000000   0.000000
    10  C   -0.001040  -0.011365   0.019136  -0.000186   0.001254  -0.000000
    11  C   -0.007228   0.001009  -0.007203   0.000019  -0.000980  -0.000011
    12  C    0.034426   0.020577  -0.063753   0.002676  -0.011073  -0.000274
    13  C   -0.099058  -0.012161   0.023666  -0.003980   0.003860   0.001619
    14  H   -0.001124  -0.000273   0.000183   0.000012  -0.000008  -0.000003
    15  H   -0.000299  -0.000029  -0.000061  -0.000001   0.000013   0.000001
    16  H    0.006209  -0.000085  -0.000542   0.000637  -0.001435   0.000269
    17  C   -0.000000   0.000000  -0.000000  -0.000000  -0.000000   0.000000
    18  H   -0.000006   0.000003  -0.000007   0.000000  -0.000000   0.000000
    19  H    0.000021   0.000002  -0.000021   0.000000  -0.000001   0.000000
    20  H   -0.000000   0.000000   0.000000   0.000000  -0.000000   0.000000
    21  H    0.000000  -0.000000   0.000000  -0.000000   0.000000  -0.000000
    22  H   -0.000000   0.000000  -0.000000   0.000000  -0.000000   0.000000
    23  S   -0.000000   0.000000  -0.000000  -0.000000  -0.000000   0.000000
    24  N    0.150888  -0.010119  -0.010923   0.014672   0.015377   0.006064
    25  C    5.534249   0.338156   0.329858   0.033281   0.031282  -0.113193
    26  C    0.338156   5.235640  -0.035236   0.342272  -0.149569  -0.008969
    27  C    0.329858  -0.035236   5.283208  -0.145765   0.334692  -0.010701
    28  C    0.033281   0.342272  -0.145765   5.113524   0.044499   0.406967
    29  C    0.031282  -0.149569   0.334692   0.044499   5.115270   0.410855
    30  C   -0.113193  -0.008969  -0.010701   0.406967   0.410855   5.083594
    31  H   -0.040296   0.405495   0.014766  -0.051754  -0.002043   0.012238
    32  H   -0.042150   0.014365   0.403068  -0.001790  -0.044789   0.011697
    33  H    0.020070  -0.055992  -0.002656   0.419369   0.018285  -0.072011
    34  H    0.019493  -0.002434  -0.054702   0.017893   0.417936  -0.070865
    35  H   -0.008539   0.026085   0.026701  -0.074852  -0.074494   0.433667
    36  C   -0.108872   0.034102  -0.005591  -0.003512  -0.006281   0.003158
    37  C    0.031828  -0.054835   0.009729  -0.005297   0.004559  -0.001533
    38  C   -0.003006   0.008145  -0.009537   0.000836  -0.000128  -0.000000
    39  C   -0.004269  -0.004625   0.000873  -0.000251   0.000105  -0.000063
    40  C   -0.006452   0.004901  -0.000204   0.000139  -0.000084   0.000036
    41  C    0.003413  -0.001826   0.000030  -0.000078   0.000038  -0.000022
    42  H    0.004865   0.001637  -0.001608  -0.001556   0.000711   0.000414
    43  H   -0.001246   0.000409  -0.000275  -0.000015   0.000022  -0.000008
    44  H   -0.000275   0.000139  -0.000039   0.000026  -0.000005   0.000001
    45  H   -0.000008  -0.000020   0.000001  -0.000002   0.000000   0.000000
    46  H    0.000024  -0.000025   0.000001  -0.000001   0.000000  -0.000000
              31         32         33         34         35         36
     1  C    0.000000   0.000000   0.000000   0.000000  -0.000000  -0.000011
     2  C   -0.000000  -0.000001  -0.000000  -0.000000   0.000000   0.000001
     3  S    0.000000   0.000008   0.000000  -0.000000  -0.000000  -0.000034
     4  C   -0.000000  -0.000000  -0.000000   0.000000   0.000000   0.000000
     5  C    0.000014  -0.000113   0.000000  -0.000001  -0.000000  -0.003573
     6  C   -0.000003   0.000923   0.000000  -0.000002  -0.000000   0.001131
     7  C    0.000000   0.000000   0.000000   0.000000  -0.000000  -0.000001
     8  C    0.000000   0.000000   0.000000   0.000000  -0.000000   0.000000
     9  H   -0.000000   0.000000  -0.000000  -0.000000   0.000000   0.000000
    10  C   -0.000282   0.000267   0.000002  -0.000025   0.000000   0.019355
    11  C   -0.000016  -0.002534  -0.000002   0.000021  -0.000001  -0.001783
    12  C    0.000427   0.005067  -0.000038   0.000025  -0.000014  -0.008974
    13  C   -0.001551  -0.002371   0.000012  -0.000175   0.000014  -0.078542
    14  H   -0.000007   0.000029  -0.000000  -0.000000   0.000000   0.005113
    15  H   -0.000001  -0.000069  -0.000000  -0.000000   0.000000   0.000076
    16  H    0.000058   0.001181   0.000011  -0.000029   0.000004  -0.001648
    17  C   -0.000000   0.000000  -0.000000  -0.000000   0.000000  -0.000000
    18  H   -0.000000   0.000001  -0.000000   0.000000   0.000000  -0.000064
    19  H   -0.000000  -0.000008  -0.000000   0.000000   0.000000  -0.000062
    20  H    0.000000  -0.000000  -0.000000  -0.000000   0.000000   0.000000
    21  H    0.000000   0.000000   0.000000   0.000000  -0.000000   0.000000
    22  H   -0.000000  -0.000000  -0.000000  -0.000000   0.000000   0.000000
    23  S   -0.000000   0.000000  -0.000000   0.000000   0.000000   0.000000
    24  N   -0.008173  -0.006829  -0.000648  -0.000678  -0.000047   0.151935
    25  C   -0.040296  -0.042150   0.020070   0.019493  -0.008539  -0.108872
    26  C    0.405495   0.014365  -0.055992  -0.002434   0.026085   0.034102
    27  C    0.014766   0.403068  -0.002656  -0.054702   0.026701  -0.005591
    28  C   -0.051754  -0.001790   0.419369   0.017893  -0.074852  -0.003512
    29  C   -0.002043  -0.044789   0.018285   0.417936  -0.074494  -0.006281
    30  C    0.012238   0.011697  -0.072011  -0.070865   0.433667   0.003158
    31  H    0.535124  -0.000273  -0.008067   0.000020  -0.000114   0.004209
    32  H   -0.000273   0.525660   0.000017  -0.007869  -0.000112  -0.001561
    33  H   -0.008067   0.000017   0.587064  -0.000260  -0.009421  -0.000274
    34  H    0.000020  -0.007869  -0.000260   0.585558  -0.009315  -0.000005
    35  H   -0.000114  -0.000112  -0.009421  -0.009315   0.586216   0.000025
    36  C    0.004209  -0.001561  -0.000274  -0.000005   0.000025   5.545516
    37  C    0.002044   0.000642   0.000130  -0.000027  -0.000025   0.330947
    38  C   -0.001405  -0.000347  -0.000037   0.000002   0.000001   0.319225
    39  C   -0.001644   0.000000   0.000025  -0.000002  -0.000001   0.037811
    40  C    0.000562   0.000019  -0.000005   0.000000   0.000000   0.042422
    41  C    0.000464  -0.000007   0.000001   0.000000  -0.000000  -0.117374
    42  H    0.000865   0.000086  -0.000040   0.000005   0.000001  -0.040194
    43  H    0.000126  -0.000009   0.000000  -0.000000  -0.000000  -0.041079
    44  H   -0.000042   0.000000  -0.000000  -0.000000   0.000000   0.020445
    45  H    0.000002  -0.000000  -0.000000  -0.000000  -0.000000   0.019842
    46  H    0.000001  -0.000000   0.000000  -0.000000   0.000000  -0.008851
              37         38         39         40         41         42
     1  C    0.000003  -0.000158  -0.000000  -0.000014   0.000000  -0.000000
     2  C   -0.000000   0.000015  -0.000000   0.000001  -0.000000   0.000000
     3  S    0.000002  -0.000019  -0.000000  -0.000001   0.000000  -0.000000
     4  C   -0.000000   0.000002   0.000000   0.000000  -0.000000   0.000000
     5  C    0.000787  -0.006219   0.000024  -0.000635  -0.000057   0.000016
     6  C    0.000289  -0.001908   0.000025  -0.000158  -0.000001  -0.000010
     7  C    0.000000   0.000014  -0.000000   0.000000   0.000000  -0.000000
     8  C    0.000000  -0.000000  -0.000000  -0.000000   0.000000  -0.000000
     9  H   -0.000000   0.000000  -0.000000   0.000000  -0.000000   0.000000
    10  C    0.021784  -0.062599   0.002635  -0.011259  -0.000024   0.000402
    11  C   -0.000518   0.002978  -0.000068   0.000106   0.000011   0.000031
    12  C   -0.010463   0.016492  -0.000104   0.001058   0.000014  -0.000371
    13  C   -0.015537   0.025512  -0.003855   0.004948   0.001221  -0.001545
    14  H   -0.000167  -0.000621   0.000657  -0.001397   0.000370   0.000019
    15  H   -0.000001  -0.000009   0.000000  -0.000000  -0.000000   0.000000
    16  H   -0.000221   0.000180   0.000013  -0.000006  -0.000003  -0.000012
    17  C   -0.000000   0.000000   0.000000   0.000000  -0.000000   0.000000
    18  H   -0.000004   0.000214   0.000000   0.000029  -0.000000  -0.000000
    19  H   -0.000041   0.000070  -0.000002   0.000034  -0.000005   0.000000
    20  H    0.000000  -0.000001  -0.000000  -0.000000   0.000000   0.000000
    21  H    0.000000  -0.000000  -0.000000  -0.000000   0.000000   0.000000
    22  H   -0.000000   0.000000   0.000000   0.000000  -0.000000   0.000000
    23  S   -0.000000   0.000000   0.000000   0.000000  -0.000000  -0.000000
    24  N   -0.010985  -0.007240   0.014037   0.014724   0.006238  -0.008080
    25  C    0.031828  -0.003006  -0.004269  -0.006452   0.003413   0.004865
    26  C   -0.054835   0.008145  -0.004625   0.004901  -0.001826   0.001637
    27  C    0.009729  -0.009537   0.000873  -0.000204   0.000030  -0.001608
    28  C   -0.005297   0.000836  -0.000251   0.000139  -0.000078  -0.001556
    29  C    0.004559  -0.000128   0.000105  -0.000084   0.000038   0.000711
    30  C   -0.001533  -0.000000  -0.000063   0.000036  -0.000022   0.000414
    31  H    0.002044  -0.001405  -0.001644   0.000562   0.000464   0.000865
    32  H    0.000642  -0.000347   0.000000   0.000019  -0.000007   0.000086
    33  H    0.000130  -0.000037   0.000025  -0.000005   0.000001  -0.000040
    34  H   -0.000027   0.000002  -0.000002   0.000000   0.000000   0.000005
    35  H   -0.000025   0.000001  -0.000001   0.000000  -0.000000   0.000001
    36  C    0.330947   0.319225   0.037811   0.042422  -0.117374  -0.040194
    37  C    5.238670  -0.028689   0.339855  -0.154747  -0.006532   0.405350
    38  C   -0.028689   5.291420  -0.150859   0.323230  -0.004220   0.014914
    39  C    0.339855  -0.150859   5.115915   0.049388   0.404441  -0.051767
    40  C   -0.154747   0.323230   0.049388   5.129080   0.404969  -0.002089
    41  C   -0.006532  -0.004220   0.404441   0.404969   5.083836   0.012249
    42  H    0.405350   0.014914  -0.051767  -0.002089   0.012249   0.533895
    43  H    0.014855   0.399893  -0.001764  -0.047055   0.011569  -0.000279
    44  H   -0.056397  -0.002983   0.420046   0.018726  -0.072724  -0.008057
    45  H   -0.002532  -0.056124   0.018040   0.418716  -0.070458   0.000019
    46  H    0.026433   0.027339  -0.075523  -0.075979   0.435025  -0.000109
              43         44         45         46
     1  C    0.000088  -0.000000  -0.000000   0.000000
     2  C    0.000011   0.000000  -0.000000  -0.000000
     3  S   -0.000001  -0.000000  -0.000000   0.000000
     4  C   -0.000001   0.000000   0.000000  -0.000000
     5  C   -0.002729  -0.000002   0.000027  -0.000001
     6  C    0.000591  -0.000000  -0.000003  -0.000000
     7  C    0.000003  -0.000000   0.000000   0.000000
     8  C    0.000000  -0.000000  -0.000000   0.000000
     9  H    0.000000   0.000000  -0.000000  -0.000000
    10  C    0.006058  -0.000041  -0.000008  -0.000014
    11  C    0.000258   0.000000   0.000000  -0.000000
    12  C   -0.000452   0.000002  -0.000027   0.000000
    13  C   -0.002468   0.000019  -0.000153   0.000015
    14  H    0.001034   0.000009  -0.000034   0.000004
    15  H   -0.000000  -0.000000   0.000000  -0.000000
    16  H   -0.000004  -0.000000  -0.000000   0.000000
    17  C   -0.000000   0.000000  -0.000000  -0.000000
    18  H    0.000123   0.000000  -0.000001  -0.000000
    19  H   -0.000075   0.000000   0.000000  -0.000000
    20  H    0.000008  -0.000000   0.000000   0.000000
    21  H    0.000000  -0.000000  -0.000000   0.000000
    22  H   -0.000000   0.000000   0.000000  -0.000000
    23  S   -0.000000   0.000000   0.000000  -0.000000
    24  N   -0.007707  -0.000650  -0.000665  -0.000046
    25  C   -0.001246  -0.000275  -0.000008   0.000024
    26  C    0.000409   0.000139  -0.000020  -0.000025
    27  C   -0.000275  -0.000039   0.000001   0.000001
    28  C   -0.000015   0.000026  -0.000002  -0.000001
    29  C    0.000022  -0.000005   0.000000   0.000000
    30  C   -0.000008   0.000001   0.000000  -0.000000
    31  H    0.000126  -0.000042   0.000002   0.000001
    32  H   -0.000009   0.000000  -0.000000  -0.000000
    33  H    0.000000  -0.000000  -0.000000   0.000000
    34  H   -0.000000  -0.000000  -0.000000  -0.000000
    35  H   -0.000000   0.000000  -0.000000   0.000000
    36  C   -0.041079   0.020445   0.019842  -0.008851
    37  C    0.014855  -0.056397  -0.002532   0.026433
    38  C    0.399893  -0.002983  -0.056124   0.027339
    39  C   -0.001764   0.420046   0.018040  -0.075523
    40  C   -0.047055   0.018726   0.418716  -0.075979
    41  C    0.011569  -0.072724  -0.070458   0.435025
    42  H   -0.000279  -0.008057   0.000019  -0.000109
    43  H    0.529077   0.000011  -0.007926  -0.000101
    44  H    0.000011   0.586929  -0.000256  -0.009478
    45  H   -0.007926  -0.000256   0.587122  -0.009450
    46  H   -0.000101  -0.009478  -0.009450   0.586701
 Mulliken charges:
               1
     1  C    0.029787
     2  C   -0.172370
     3  S    0.018111
     4  C   -0.126093
     5  C   -0.060996
     6  C   -0.187976
     7  C   -0.143233
     8  C   -0.027758
     9  H    0.096502
    10  C   -0.113744
    11  C   -0.043380
    12  C   -0.120534
    13  C    0.002894
    14  H    0.152867
    15  H    0.118602
    16  H    0.155141
    17  C   -0.115880
    18  H    0.156972
    19  H    0.112215
    20  H    0.098139
    21  H    0.102282
    22  H    0.098813
    23  S   -0.055168
    24  N    0.006509
    25  C   -0.098796
    26  C   -0.085260
    27  C   -0.098729
    28  C   -0.107739
    29  C   -0.107838
    30  C   -0.092936
    31  H    0.139255
    32  H    0.147801
    33  H    0.104466
    34  H    0.105439
    35  H    0.104220
    36  C   -0.107027
    37  C   -0.079355
    38  C   -0.094373
    39  C   -0.109092
    40  C   -0.113004
    41  C   -0.090556
    42  H    0.140240
    43  H    0.149055
    44  H    0.104596
    45  H    0.103898
    46  H    0.104034
 Sum of Mulliken charges =  -0.00000
 Mulliken charges with hydrogens summed into heavy atoms:
               1
     1  C    0.186759
     2  C   -0.172370
     3  S    0.018111
     4  C   -0.126093
     5  C    0.051219
     6  C   -0.187976
     7  C   -0.045094
     8  C    0.074524
    10  C    0.039122
    11  C    0.075222
    12  C    0.034607
    13  C    0.002894
    17  C   -0.017067
    23  S    0.041335
    24  N    0.006509
    25  C   -0.098796
    26  C    0.053995
    27  C    0.049071
    28  C   -0.003273
    29  C   -0.002399
    30  C    0.011284
    36  C   -0.107027
    37  C    0.060885
    38  C    0.054682
    39  C   -0.004497
    40  C   -0.009106
    41  C    0.013478
 Electronic spatial extent (au):  <R**2>=          15344.7505
 Charge=              0.0000 electrons
 Dipole moment (field-independent basis, Debye):
    X=              2.3005    Y=              1.2040    Z=              1.4207  Tot=              2.9598
 Quadrupole moment (field-independent basis, Debye-Ang):
   XX=           -154.5546   YY=           -163.2473   ZZ=           -171.8652
   XY=             -5.3020   XZ=             -6.5449   YZ=              1.1895
 Traceless Quadrupole moment (field-independent basis, Debye-Ang):
   XX=              8.6677   YY=             -0.0249   ZZ=             -8.6429
   XY=             -5.3020   XZ=             -6.5449   YZ=              1.1895
 Octapole moment (field-independent basis, Debye-Ang**2):
  XXX=            -98.3181  YYY=              4.6448  ZZZ=              2.6875  XYY=             50.7124
  XXY=             12.2570  XXZ=             43.2789  XZZ=              9.2501  YZZ=              6.4954
  YYZ=              6.0775  XYZ=            -20.2339
 Hexadecapole moment (field-independent basis, Debye-Ang**3):
 XXXX=         -14822.4002 YYYY=          -3416.4950 ZZZZ=          -1260.5773 XXXY=            -25.3760
 XXXZ=           -163.8019 YYYX=             -5.3455 YYYZ=             43.2150 ZZZX=             10.9721
 ZZZY=             23.8332 XXYY=          -3257.9652 XXZZ=          -2969.9902 YYZZ=           -809.2642
 XXYZ=            -29.8456 YYXZ=            -32.9433 ZZXY=            -59.1858
 N-N= 2.474684767360D+03 E-N=-9.117415765663D+03  KE= 1.769917231682D+03
 No NMR shielding tensors so no spin-rotation constants.
 Leave Link  601 at Mon Jan 18 18:29:31 2021, MaxMem=  4026531840 cpu:               2.8 elap:               0.4
 (Enter /opt/ohpc/pub/libs/gaussian/g16-A.03/sandybridge/g16/l9999.exe)

 Test job not archived.
 1\1\GINC-CASCADEB058\SP\RLC-wHPBE\TZVP\C24H19N1S2\RDU230\18-Jan-2021\0
 \\#P LC-wHPBE/TZVP iop(3/107=0155800000, 3/108=0155800000) scf=(conver
 =6,fermi,ndamp=35,noincfock,novaracc,vshift=500,xqc)\\H19 C24 S2 N1\\0
 ,1\C,0,-3.352046,1.022081,0.90149\C,0,-4.015603,0.124147,0.077833\S,0,
 -3.193622,-0.833868,-1.176213\C,0,-5.398593,-0.028228,0.207342\C,0,-0.
 749106,0.373785,-1.531691\C,0,-1.475477,-0.56699,-0.815552\C,0,-4.0415
 16,1.761821,1.844012\C,0,-6.080951,0.720801,1.156415\H,0,-7.475944,-0.
 835079,-0.458792\C,0,0.601771,0.54717,-1.299188\C,0,-0.823428,-1.33634
 6,0.139234\C,0,0.521569,-1.15492,0.389409\C,0,1.255724,-0.212476,-0.33
 1046\H,0,1.160253,1.275483,-1.876291\H,0,-1.383265,-2.076857,0.700814\
 H,0,1.015474,-1.752114,1.147605\C,0,-5.411167,1.613701,1.970885\H,0,-2
 .279577,1.141824,0.800598\H,0,-1.248138,0.967582,-2.290346\H,0,-3.5032
 27,2.458074,2.478369\H,0,-7.154267,0.598627,1.263844\H,0,-5.962434,2.1
 89124,2.706912\S,0,-6.238224,-1.192989,-0.835805\N,0,2.627173,-0.03758
 6,-0.087724\C,0,3.438312,-1.140752,0.276409\C,0,4.374889,-1.012928,1.2
 95896\C,0,3.317625,-2.35655,-0.387733\C,0,5.1794,-2.084309,1.64001\C,0
 ,4.112866,-3.428755,-0.025756\C,0,5.049979,-3.298472,0.986151\H,0,4.47
 0709,-0.064848,1.814448\H,0,2.593785,-2.456724,-1.189607\H,0,5.90745,-
 1.970366,2.436839\H,0,4.006805,-4.37257,-0.551042\H,0,5.67733,-4.13910
 6,1.26285\C,0,3.224517,1.239724,-0.221989\C,0,4.446224,1.376745,-0.871
 25\C,0,2.604731,2.367846,0.304633\C,0,5.03746,2.622109,-0.986244\C,0,3
 .193018,3.612223,0.169883\C,0,4.413292,3.746533,-0.472133\H,0,4.931907
 ,0.498005,-1.282066\H,0,1.656156,2.262505,0.820378\H,0,5.992055,2.7142
 7,-1.494403\H,0,2.697309,4.484427,0.584059\H,0,4.876004,4.72281,-0.569
 917\\Version=EM64L-G16RevA.03\State=1-A\HF=-1776.1729287\RMSD=7.841e-0
 7\Dipole=0.9050933,0.4736945,0.5589632\Quadrupole=6.4442514,-0.0185034
 ,-6.425748,-3.9418826,-4.8659533,0.8843693\PG=C01 [X(C24H19N1S2)]\\@


 THE RED LIGHT IS ALWAYS LONGER THAN THE GREEN LIGHT.

                     -- PETER'S THEORY OF RELATIVITY
 Job cpu time:       0 days  1 hours 22 minutes 40.5 seconds.
 Elapsed time:       0 days  0 hours 10 minutes 22.0 seconds.
 File lengths (MBytes):  RWF=    172 Int=      0 D2E=      0 Chk=     28 Scr=      8
 Normal termination of Gaussian 16 at Mon Jan 18 18:29:31 2021.
