 Entering Gaussian System, Link 0=g16
 Input=mol_ta_pa_half_tune_n1.gjf
 Output=mol_ta_pa_half_tune_n1.log
 Initial command:
 /opt/ohpc/pub/libs/gaussian/g16-A.03/sandybridge/g16/l1.exe "/mnt/gpfs2_4m/scratch/rdu230/ondemand/projects/init_structures/wtuning/mol_ta_pa_half/tuning_mol_ta_pa_half_ocycle0/Gau-214262.inp" -scrdir="/mnt/gpfs2_4m/scratch/rdu230/ondemand/projects/init_structures/wtuning/mol_ta_pa_half/tuning_mol_ta_pa_half_ocycle0/"
 Entering Link 1 = /opt/ohpc/pub/libs/gaussian/g16-A.03/sandybridge/g16/l1.exe PID=    214263.
  
 Copyright (c) 1988,1990,1992,1993,1995,1998,2003,2009,2016,
            Gaussian, Inc.  All Rights Reserved.
  
 This is part of the Gaussian(R) 16 program.  It is based on
 the Gaussian(R) 09 system (copyright 2009, Gaussian, Inc.),
 the Gaussian(R) 03 system (copyright 2003, Gaussian, Inc.),
 the Gaussian(R) 98 system (copyright 1998, Gaussian, Inc.),
 the Gaussian(R) 94 system (copyright 1995, Gaussian, Inc.),
 the Gaussian 92(TM) system (copyright 1992, Gaussian, Inc.),
 the Gaussian 90(TM) system (copyright 1990, Gaussian, Inc.),
 the Gaussian 88(TM) system (copyright 1988, Gaussian, Inc.),
 the Gaussian 86(TM) system (copyright 1986, Carnegie Mellon
 University), and the Gaussian 82(TM) system (copyright 1983,
 Carnegie Mellon University). Gaussian is a federally registered
 trademark of Gaussian, Inc.
  
 This software contains proprietary and confidential information,
 including trade secrets, belonging to Gaussian, Inc.
  
 This software is provided under written license and may be
 used, copied, transmitted, or stored only in accord with that
 written license.
  
 The following legend is applicable only to US Government
 contracts under FAR:
  
                    RESTRICTED RIGHTS LEGEND
  
 Use, reproduction and disclosure by the US Government is
 subject to restrictions as set forth in subparagraphs (a)
 and (c) of the Commercial Computer Software - Restricted
 Rights clause in FAR 52.227-19.
  
 Gaussian, Inc.
 340 Quinnipiac St., Bldg. 40, Wallingford CT 06492
  
  
 ---------------------------------------------------------------
 Warning -- This program may not be used in any manner that
 competes with the business of Gaussian, Inc. or will provide
 assistance to any competitor of Gaussian, Inc.  The licensee
 of this program is prohibited from giving any competitor of
 Gaussian, Inc. access to this program.  By using this program,
 the user acknowledges that Gaussian, Inc. is engaged in the
 business of creating and licensing software in the field of
 computational chemistry and represents and warrants to the
 licensee that it is not a competitor of Gaussian, Inc. and that
 it will not use this program in any manner prohibited above.
 ---------------------------------------------------------------
  

 Cite this work as:
 Gaussian 16, Revision A.03,
 M. J. Frisch, G. W. Trucks, H. B. Schlegel, G. E. Scuseria, 
 M. A. Robb, J. R. Cheeseman, G. Scalmani, V. Barone, 
 G. A. Petersson, H. Nakatsuji, X. Li, M. Caricato, A. V. Marenich, 
 J. Bloino, B. G. Janesko, R. Gomperts, B. Mennucci, H. P. Hratchian, 
 J. V. Ortiz, A. F. Izmaylov, J. L. Sonnenberg, D. Williams-Young, 
 F. Ding, F. Lipparini, F. Egidi, J. Goings, B. Peng, A. Petrone, 
 T. Henderson, D. Ranasinghe, V. G. Zakrzewski, J. Gao, N. Rega, 
 G. Zheng, W. Liang, M. Hada, M. Ehara, K. Toyota, R. Fukuda, 
 J. Hasegawa, M. Ishida, T. Nakajima, Y. Honda, O. Kitao, H. Nakai, 
 T. Vreven, K. Throssell, J. A. Montgomery, Jr., J. E. Peralta, 
 F. Ogliaro, M. J. Bearpark, J. J. Heyd, E. N. Brothers, K. N. Kudin, 
 V. N. Staroverov, T. A. Keith, R. Kobayashi, J. Normand, 
 K. Raghavachari, A. P. Rendell, J. C. Burant, S. S. Iyengar, 
 J. Tomasi, M. Cossi, J. M. Millam, M. Klene, C. Adamo, R. Cammi, 
 J. W. Ochterski, R. L. Martin, K. Morokuma, O. Farkas, 
 J. B. Foresman, and D. J. Fox, Gaussian, Inc., Wallingford CT, 2016.
 
 ******************************************
 Gaussian 16:  EM64L-G16RevA.03 25-Dec-2016
                18-Jan-2021 
 ******************************************
 %mem=30GB
 %nproc=8
 Will use up to    8 processors via shared memory.
 ----------------------------------------------------------------------
 #P LC-wHPBE/TZVP iop(3/107=0328100000, 3/108=0328100000) scf=(conver=6
 ,fermi,ndamp=35,noincfock,novaracc,vshift=500,xqc)
 ----------------------------------------------------------------------
 1/38=1,172=1/1;
 2/12=2,17=6,18=5,40=1/2;
 3/5=19,7=101,11=2,25=1,30=1,74=-71,107=328100000,108=328100000/1,2,3;
 4//1;
 5/5=100002,6=6,8=3,10=500,13=1,18=-1,22=13,38=1,93=35/2,8;
 6/7=2,8=2,9=2,10=2,28=1/1;
 99/5=1,9=1/99;
 Leave Link    1 at Mon Jan 18 13:57:47 2021, MaxMem=  4026531840 cpu:               1.3 elap:               0.2
 (Enter /opt/ohpc/pub/libs/gaussian/g16-A.03/sandybridge/g16/l101.exe)
 -------------
 H19 C24 S2 N1
 -------------
 Symbolic Z-matrix:
 Charge =  0 Multiplicity = 1
 C                    -3.35205   1.02208   0.90149 
 C                    -4.0156    0.12415   0.07783 
 S                    -3.19362  -0.83387  -1.17621 
 C                    -5.39859  -0.02823   0.20734 
 C                    -0.74911   0.37379  -1.53169 
 C                    -1.47548  -0.56699  -0.81555 
 C                    -4.04152   1.76182   1.84401 
 C                    -6.08095   0.7208    1.15641 
 H                    -7.47594  -0.83508  -0.45879 
 C                     0.60177   0.54717  -1.29919 
 C                    -0.82343  -1.33635   0.13923 
 C                     0.52157  -1.15492   0.38941 
 C                     1.25572  -0.21248  -0.33105 
 H                     1.16025   1.27548  -1.87629 
 H                    -1.38327  -2.07686   0.70081 
 H                     1.01547  -1.75211   1.1476 
 C                    -5.41117   1.6137    1.97089 
 H                    -2.27958   1.14182   0.8006 
 H                    -1.24814   0.96758  -2.29035 
 H                    -3.50323   2.45807   2.47837 
 H                    -7.15427   0.59863   1.26384 
 H                    -5.96243   2.18912   2.70691 
 S                    -6.23822  -1.19299  -0.83581 
 N                     2.62717  -0.03759  -0.08772 
 C                     3.43831  -1.14075   0.27641 
 C                     4.37489  -1.01293   1.2959 
 C                     3.31763  -2.35655  -0.38773 
 C                     5.1794   -2.08431   1.64001 
 C                     4.11287  -3.42876  -0.02576 
 C                     5.04998  -3.29847   0.98615 
 H                     4.47071  -0.06485   1.81445 
 H                     2.59379  -2.45672  -1.18961 
 H                     5.90745  -1.97037   2.43684 
 H                     4.0068   -4.37257  -0.55104 
 H                     5.67733  -4.13911   1.26285 
 C                     3.22452   1.23972  -0.22199 
 C                     4.44622   1.37675  -0.87125 
 C                     2.60473   2.36785   0.30463 
 C                     5.03746   2.62211  -0.98624 
 C                     3.19302   3.61222   0.16988 
 C                     4.41329   3.74653  -0.47213 
 H                     4.93191   0.49801  -1.28207 
 H                     1.65616   2.2625    0.82038 
 H                     5.99206   2.71427  -1.4944 
 H                     2.69731   4.48443   0.58406 
 H                     4.876     4.72281  -0.56992 
 
 ITRead=  0  0  0  0  0  0  0  0  0  0  0  0  0  0  0  0  0  0  0  0
 ITRead=  0  0  0  0  0  0  0  0  0  0  0  0  0  0  0  0  0  0  0  0
 ITRead=  0  0  0  0  0  0
 MicOpt= -1 -1 -1 -1 -1 -1 -1 -1 -1 -1 -1 -1 -1 -1 -1 -1 -1 -1 -1 -1
 MicOpt= -1 -1 -1 -1 -1 -1 -1 -1 -1 -1 -1 -1 -1 -1 -1 -1 -1 -1 -1 -1
 MicOpt= -1 -1 -1 -1 -1 -1
 NAtoms=     46 NQM=       46 NQMF=       0 NMMI=      0 NMMIF=      0
                NMic=       0 NMicF=      0.
                    Isotopes and Nuclear Properties:
 (Nuclear quadrupole moments (NQMom) in fm**2, nuclear magnetic moments (NMagM)
  in nuclear magnetons)

  Atom         1           2           3           4           5           6           7           8           9          10
 IAtWgt=          12          12          32          12          12          12          12          12           1          12
 AtmWgt=  12.0000000  12.0000000  31.9720718  12.0000000  12.0000000  12.0000000  12.0000000  12.0000000   1.0078250  12.0000000
 NucSpn=           0           0           0           0           0           0           0           0           1           0
 AtZEff=  -0.0000000  -0.0000000  -0.0000000  -0.0000000  -0.0000000  -0.0000000  -0.0000000  -0.0000000  -0.0000000  -0.0000000
 NQMom=    0.0000000   0.0000000   0.0000000   0.0000000   0.0000000   0.0000000   0.0000000   0.0000000   0.0000000   0.0000000
 NMagM=    0.0000000   0.0000000   0.0000000   0.0000000   0.0000000   0.0000000   0.0000000   0.0000000   2.7928460   0.0000000
 AtZNuc=   6.0000000   6.0000000  16.0000000   6.0000000   6.0000000   6.0000000   6.0000000   6.0000000   1.0000000   6.0000000

  Atom        11          12          13          14          15          16          17          18          19          20
 IAtWgt=          12          12          12           1           1           1          12           1           1           1
 AtmWgt=  12.0000000  12.0000000  12.0000000   1.0078250   1.0078250   1.0078250  12.0000000   1.0078250   1.0078250   1.0078250
 NucSpn=           0           0           0           1           1           1           0           1           1           1
 AtZEff=  -0.0000000  -0.0000000  -0.0000000  -0.0000000  -0.0000000  -0.0000000  -0.0000000  -0.0000000  -0.0000000  -0.0000000
 NQMom=    0.0000000   0.0000000   0.0000000   0.0000000   0.0000000   0.0000000   0.0000000   0.0000000   0.0000000   0.0000000
 NMagM=    0.0000000   0.0000000   0.0000000   2.7928460   2.7928460   2.7928460   0.0000000   2.7928460   2.7928460   2.7928460
 AtZNuc=   6.0000000   6.0000000   6.0000000   1.0000000   1.0000000   1.0000000   6.0000000   1.0000000   1.0000000   1.0000000

  Atom        21          22          23          24          25          26          27          28          29          30
 IAtWgt=           1           1          32          14          12          12          12          12          12          12
 AtmWgt=   1.0078250   1.0078250  31.9720718  14.0030740  12.0000000  12.0000000  12.0000000  12.0000000  12.0000000  12.0000000
 NucSpn=           1           1           0           2           0           0           0           0           0           0
 AtZEff=  -0.0000000  -0.0000000  -0.0000000  -0.0000000  -0.0000000  -0.0000000  -0.0000000  -0.0000000  -0.0000000  -0.0000000
 NQMom=    0.0000000   0.0000000   0.0000000   2.0440000   0.0000000   0.0000000   0.0000000   0.0000000   0.0000000   0.0000000
 NMagM=    2.7928460   2.7928460   0.0000000   0.4037610   0.0000000   0.0000000   0.0000000   0.0000000   0.0000000   0.0000000
 AtZNuc=   1.0000000   1.0000000  16.0000000   7.0000000   6.0000000   6.0000000   6.0000000   6.0000000   6.0000000   6.0000000

  Atom        31          32          33          34          35          36          37          38          39          40
 IAtWgt=           1           1           1           1           1          12          12          12          12          12
 AtmWgt=   1.0078250   1.0078250   1.0078250   1.0078250   1.0078250  12.0000000  12.0000000  12.0000000  12.0000000  12.0000000
 NucSpn=           1           1           1           1           1           0           0           0           0           0
 AtZEff=  -0.0000000  -0.0000000  -0.0000000  -0.0000000  -0.0000000  -0.0000000  -0.0000000  -0.0000000  -0.0000000  -0.0000000
 NQMom=    0.0000000   0.0000000   0.0000000   0.0000000   0.0000000   0.0000000   0.0000000   0.0000000   0.0000000   0.0000000
 NMagM=    2.7928460   2.7928460   2.7928460   2.7928460   2.7928460   0.0000000   0.0000000   0.0000000   0.0000000   0.0000000
 AtZNuc=   1.0000000   1.0000000   1.0000000   1.0000000   1.0000000   6.0000000   6.0000000   6.0000000   6.0000000   6.0000000

  Atom        41          42          43          44          45          46
 IAtWgt=          12           1           1           1           1           1
 AtmWgt=  12.0000000   1.0078250   1.0078250   1.0078250   1.0078250   1.0078250
 NucSpn=           0           1           1           1           1           1
 AtZEff=  -0.0000000  -0.0000000  -0.0000000  -0.0000000  -0.0000000  -0.0000000
 NQMom=    0.0000000   0.0000000   0.0000000   0.0000000   0.0000000   0.0000000
 NMagM=    0.0000000   2.7928460   2.7928460   2.7928460   2.7928460   2.7928460
 AtZNuc=   6.0000000   1.0000000   1.0000000   1.0000000   1.0000000   1.0000000
 Leave Link  101 at Mon Jan 18 13:57:47 2021, MaxMem=  4026531840 cpu:               0.7 elap:               0.1
 (Enter /opt/ohpc/pub/libs/gaussian/g16-A.03/sandybridge/g16/l202.exe)
                          Input orientation:                          
 ---------------------------------------------------------------------
 Center     Atomic      Atomic             Coordinates (Angstroms)
 Number     Number       Type             X           Y           Z
 ---------------------------------------------------------------------
      1          6           0       -3.352046    1.022081    0.901490
      2          6           0       -4.015603    0.124147    0.077833
      3         16           0       -3.193622   -0.833868   -1.176213
      4          6           0       -5.398593   -0.028228    0.207342
      5          6           0       -0.749106    0.373785   -1.531691
      6          6           0       -1.475477   -0.566990   -0.815552
      7          6           0       -4.041516    1.761821    1.844012
      8          6           0       -6.080951    0.720801    1.156415
      9          1           0       -7.475944   -0.835079   -0.458792
     10          6           0        0.601771    0.547170   -1.299188
     11          6           0       -0.823428   -1.336346    0.139234
     12          6           0        0.521569   -1.154920    0.389409
     13          6           0        1.255724   -0.212476   -0.331046
     14          1           0        1.160253    1.275483   -1.876291
     15          1           0       -1.383265   -2.076857    0.700814
     16          1           0        1.015474   -1.752114    1.147605
     17          6           0       -5.411167    1.613701    1.970885
     18          1           0       -2.279577    1.141824    0.800598
     19          1           0       -1.248138    0.967582   -2.290346
     20          1           0       -3.503227    2.458074    2.478369
     21          1           0       -7.154267    0.598627    1.263844
     22          1           0       -5.962434    2.189124    2.706912
     23         16           0       -6.238224   -1.192989   -0.835805
     24          7           0        2.627173   -0.037586   -0.087724
     25          6           0        3.438312   -1.140752    0.276409
     26          6           0        4.374889   -1.012928    1.295896
     27          6           0        3.317625   -2.356550   -0.387733
     28          6           0        5.179400   -2.084309    1.640010
     29          6           0        4.112866   -3.428755   -0.025756
     30          6           0        5.049979   -3.298472    0.986151
     31          1           0        4.470709   -0.064848    1.814448
     32          1           0        2.593785   -2.456724   -1.189607
     33          1           0        5.907450   -1.970366    2.436839
     34          1           0        4.006805   -4.372570   -0.551042
     35          1           0        5.677330   -4.139106    1.262850
     36          6           0        3.224517    1.239724   -0.221989
     37          6           0        4.446224    1.376745   -0.871250
     38          6           0        2.604731    2.367846    0.304633
     39          6           0        5.037460    2.622109   -0.986244
     40          6           0        3.193018    3.612223    0.169883
     41          6           0        4.413292    3.746533   -0.472133
     42          1           0        4.931907    0.498005   -1.282066
     43          1           0        1.656156    2.262505    0.820378
     44          1           0        5.992055    2.714270   -1.494403
     45          1           0        2.697309    4.484427    0.584059
     46          1           0        4.876004    4.722810   -0.569917
 ---------------------------------------------------------------------
                    Distance matrix (angstroms):
                    1          2          3          4          5
     1  C    0.000000
     2  C    1.387445   0.000000
     3  S    2.790429   1.779347   0.000000
     4  C    2.402779   1.397373   2.724918   0.000000
     5  C    3.621596   3.650053   2.749627   4.980319   0.000000
     6  C    2.999148   2.779937   1.775760   4.089916   1.387634
     7  C    1.382365   2.408742   4.071644   2.779320   4.915484
     8  C    2.757296   2.405202   4.024279   1.388307   5.981213
     9  H    4.722917   3.630708   4.342001   2.325969   6.918296
    10  C    4.549856   4.836867   4.040717   6.213299   1.381662
    11  C    3.540780   3.510953   2.756938   4.758986   2.392083
    12  C    4.472857   4.724301   4.044365   6.029171   2.764449
    13  C    4.926948   5.297866   4.571336   6.678603   2.409272
    14  H    5.304821   5.650988   4.888323   7.004259   2.139500
    15  H    3.676926   3.487367   2.888883   4.534672   3.375186
    16  H    5.179958   5.475080   4.894874   6.707916   3.848612
    17  C    2.394494   2.783885   4.562053   2.409600   5.961564
    18  H    1.083839   2.138187   2.940513   3.383672   2.893406
    19  H    3.823247   3.738785   2.876008   4.945337   1.084982
    20  H    2.138102   3.387081   4.928357   3.864152   5.292450
    21  H    3.842850   3.388652   4.867507   2.142787   6.992257
    22  H    3.381666   3.868635   5.646544   3.388571   6.959885
    23  S    4.031718   2.740370   3.084550   1.774769   5.750605
    24  N    6.152438   6.646807   5.974992   8.031194   3.695068
    25  C    7.153848   7.563085   6.796090   8.906928   4.805988
    26  C    8.000146   8.554354   7.964028   9.883093   6.014445
    27  C    7.586946   7.755440   6.733246   9.041441   5.030077
    28  C    9.109371   9.584662   8.922007  10.870784   7.158847
    29  C    8.740403   8.871632   7.838479  10.103750   6.353418
    30  C    9.448194   9.732633   8.871699  10.976051   7.311251
    31  H    7.950497   8.664239   8.263015   9.999363   6.215747
    32  H    7.199144   7.207726   6.010651   8.469189   4.393600
    33  H    9.851411  10.412438   9.857752  11.686281   8.096543
    34  H    9.239307   9.218187   8.047323  10.387972   6.790305
    35  H   10.406636  10.655165   9.775859  11.861260   8.335150
    36  C    6.675384   7.331694   6.811963   8.726400   4.272569
    37  C    8.005086   8.606525   7.959087  10.002886   5.332313
    38  C    6.136001   6.993886   6.787104   8.354869   4.312376
    39  C    8.746853   9.451456   8.929198  10.833288   6.231919
    40  C    7.076860   8.008706   7.897396   9.331134   5.378027
    41  C    8.343258   9.190779   8.907353  10.534875   6.256872
    42  H    8.582916   9.057982   8.234641  10.450574   5.687851
    43  H    5.160166   6.106783   6.090505   7.442631   3.858079
    44  H    9.793673  10.456284   9.852268  11.839092   7.136001
    45  H    6.977342   8.020692   8.129323   9.276292   5.766416
    46  H    9.141184  10.031349   9.816472  11.346534   7.175018
                    6          7          8          9         10
     6  C    0.000000
     7  C    4.368203   0.000000
     8  C    5.172760   2.390775   0.000000
     9  H    6.017039   4.882836   2.641148   0.000000
    10  C    2.406287   5.737177   7.121721   8.238104   0.000000
    11  C    1.388774   4.781318   5.736555   6.698125   2.765481
    12  C    2.405366   5.607583   6.906511   8.048724   2.398938
    13  C    2.796406   6.057184   7.543895   8.754769   1.393562
    14  H    3.386288   6.413703   7.870198   9.002648   1.084154
    15  H    2.141861   4.807146   5.486594   6.325143   3.850441
    16  H    3.385756   6.197247   7.514961   8.690549   3.382995
    17  C    5.292381   1.383467   1.381753   4.020343   6.927214
    18  H    2.485672   2.139518   3.841134   5.700565   3.614537
    19  H    2.140470   5.052395   5.941140   6.737191   2.140398
    20  H    4.910468   1.084865   3.377920   5.937529   5.896821
    21  H    6.158832   3.373253   1.085576   2.264170   8.168715
    22  H    6.335353   2.148746   2.138705   4.632299   7.863437
    23  S    4.803753   4.553883   2.766996   1.342456   7.073076
    24  N    4.200207   7.172230   8.829182  10.141334   2.431427
    25  C    5.066251   8.174970   9.739413  10.943260   3.657534
    26  C    6.235692   8.878938  10.599522  11.981352   4.837849
    27  C    5.134139   8.723452  10.009381  10.900507   4.078995
    28  C    7.253925   9.992979  11.614560  12.888882   6.043033
    29  C    6.327958   9.845408  11.069338  11.883400   5.455034
    30  C    7.299911  10.440200  11.835588  12.847370   6.308589
    31  H    6.521210   8.706065  10.601310  12.185376   5.003796
    32  H    4.502211   8.427703   9.531607  10.225618   3.606038
    33  H    8.188719  10.642490  12.353284  13.740043   6.960324
    34  H    6.678909  10.399159  11.428940  12.015651   6.029745
    35  H    8.260897  11.384843  12.723490  13.670745   7.367939
    36  C    5.070155   7.572066   9.421306  10.902328   2.918696
    37  C    6.232796   8.919790  10.740722  12.132616   3.956153
    38  C    5.149386   6.849055   8.881405  10.604789   3.146260
    39  C    7.253815   9.548730  11.481508  12.992907   4.906999
    40  C    6.342850   7.652789   9.764224  11.575858   4.274024
    41  C    7.307668   8.988180  11.042480  12.741479   5.044565
    42  H    6.512021   9.586027  11.281794  12.506385   4.330449
    43  H    4.526526   5.810506   7.896366   9.727618   2.923467
    44  H    8.184836  10.617190  12.520313  13.966294   5.812882
    45  H    6.699841   7.376437   9.568193  11.527348   4.841476
    46  H    8.269440   9.701375  11.791996  13.545224   6.019707
                   11         12         13         14         15
    11  C    0.000000
    12  C    1.380043   0.000000
    13  C    2.409797   1.395077   0.000000
    14  H    3.849543   3.383515   2.147305   0.000000
    15  H    1.084964   2.139003   3.391890   4.934485   0.000000
    16  H    2.138045   1.084179   2.148165   4.281501   2.461509
    17  C    5.753701   6.735257   7.285688   7.622251   5.608680
    18  H    2.949423   3.645618   3.951342   4.360737   3.342640
    19  H    3.375103   3.849411   3.391271   2.463045   4.270118
    20  H    5.201009   5.797971   6.137774   6.489193   5.312207
    21  H    6.714789   7.921996   8.598227   8.913463   6.385897
    22  H    6.740274   7.654786   8.191378   8.518988   6.572048
    23  S    5.503750   6.870036   7.574658   7.868509   5.168467
    24  N    3.693905   2.430979   1.403804   2.659883   4.567716
    25  C    4.268431   2.918965   2.448344   3.957507   4.929910
    26  C    5.335257   3.961055   3.607888   5.062952   5.885780
    27  C    4.297305   3.140986   2.975181   4.479031   4.833377
    28  C    6.232634   4.911533   4.773264   6.309209   6.629534
    29  C    5.363991   4.270843   4.312878   5.854251   5.706399
    30  C    6.250129   5.045534   5.065052   6.651662   6.554418
    31  H    5.696572   4.337591   3.867954   5.135870   6.289465
    32  H    3.833851   2.912398   2.750306   4.056589   4.419832
    33  H    7.140426   5.819333   5.691214   7.188498   7.495308
    34  H    5.746850   4.835762   4.992317   6.462170   5.990851
    35  H    7.167833   6.020809   6.124502   7.718547   7.377043
    36  C    4.811702   3.662520   2.448862   2.645596   5.751776
    37  C    6.012585   4.837510   3.605098   3.437727   6.955695
    38  C    5.049819   4.093486   2.980263   2.834820   5.984685
    39  C    7.161430   6.045795   4.771340   4.199800   8.133398
    40  C    6.373469   5.469048   4.316522   3.712050   7.320511
    41  C    7.323433   6.317595   5.065954   4.319723   8.299864
    42  H    6.205547   4.997707   3.863100   3.896530   7.102332
    43  H    4.423124   3.626543   2.758923   2.914130   5.299287
    44  H    8.094879   6.960287   5.687888   5.055913   9.064724
    45  H    6.817247   6.047642   4.997648   4.325874   7.727559
    46  H    8.348640   7.377609   6.125401   5.234260   9.328916
                   16         17         18         19         20
    16  H    0.000000
    17  C    7.301248   0.000000
    18  H    4.399165   3.376255   0.000000
    19  H    4.933578   5.992192   3.263152   0.000000
    20  H    6.317854   2.147264   2.458607   5.481572   0.000000
    21  H    8.502009   2.137447   4.926689   6.902953   4.273489
    22  H    8.164312   1.084778   4.277184   6.977775   2.484404
    23  S    7.540734   4.054509   4.878530   5.628918   5.638636
    24  N    2.657671   8.460469   5.124092   4.569457   7.098941
    25  C    2.646297   9.421865   6.178930   5.744225   8.123124
    26  C    3.442972  10.154885   7.012146   6.957153   8.689696
    27  C    2.832403   9.875109   6.706670   5.959529   8.827183
    28  C    4.206078  11.222516   8.169999   8.128652   9.834841
    29  C    3.712376  10.959934   7.901669   7.293594   9.946370
    30  C    4.323716  11.598910   8.571642   8.282568  10.417383
    31  H    3.902588  10.024643   6.931833   7.114805   8.389850
    32  H    2.906906   9.520311   6.376529   5.262877   8.647707
    33  H    5.063713  11.881656   8.910130   9.065333  10.400656
    34  H    4.324379  11.440881   8.470777   7.691348  10.594131
    35  H    5.238694  12.512029   9.561081   9.309435  11.370264
    36  C    3.963175   8.917600   5.599136   4.935261   7.351112
    37  C    5.063159  10.261678   6.934455   5.882772   8.693848
    38  C    4.495599   8.221907   5.060195   4.851727   6.483858
    39  C    6.313756  10.905746   7.676137   6.629245   9.218123
    40  C    5.871435   9.014971   6.037381   5.724572   7.176410
    41  C    6.663620  10.345883   7.293754   6.563555   8.546161
    42  H    5.128819  10.899800   7.533757   6.279338   9.441092
    43  H    4.078568   7.189692   4.092226   4.448410   5.422768
    44  H    7.189934  11.968832   8.726942   7.490316  10.296064
    45  H    6.483872   8.712734   5.999106   6.016391   6.792729
    46  H    7.731637  11.043012   8.118135   7.386930   9.199597
                   21         22         23         24         25
    21  H    0.000000
    22  H    2.456134   0.000000
    23  S    2.908186   4.905669   0.000000
    24  N    9.894851   9.303202   8.971613   0.000000
    25  C   10.779759  10.264962   9.740385   1.416868   0.000000
    26  C   11.641288  10.913494  10.826576   2.433148   1.390277
    27  C   11.005512  10.787005   9.636851   2.438098   1.390617
    28  C   12.627707  11.980859  11.716921   3.699730   2.404391
    29  C   12.034582  11.854944  10.620729   3.702857   2.404430
    30  C   12.814371  12.423686  11.626526   4.201973   2.785132
    31  H   11.656905  10.711086  11.089535   2.649080   2.142190
    32  H   10.506146  10.486927   8.928974   2.658475   2.143411
    33  H   13.363536  12.580479  12.602853   4.568290   3.384134
    34  H   12.352171  12.371573  10.730864   4.572760   3.384155
    35  H   13.678304  13.327262  12.452485   5.286774   3.869935
    36  C   10.504183   9.689164   9.789705   1.416463   2.441470
    37  C   11.820977  11.036456  10.989186   2.433761   2.944622
    38  C    9.964350   8.899393   9.600937   2.437325   3.606371
    39  C   12.561671  11.611397  11.904564   3.700108   4.279099
    40  C   10.832581   9.606458  10.632488   3.702384   4.760492
    41  C   12.113272  10.963008  11.746741   4.202089   5.039490
    42  H   12.351817  11.724269  11.306212   2.650492   2.710202
    43  H    8.977121   7.849032   8.775227   2.656679   3.879967
    44  H   13.598149  12.682138  12.856133   4.568795   4.951623
    45  H   10.612026   9.206849  10.681424   4.572178   5.682110
    46  H   12.849085  11.602970  12.593389   5.286882   6.096276
                   26         27         28         29         30
    26  C    0.000000
    27  C    2.399528   0.000000
    28  C    1.383297   2.766236   0.000000
    29  C    2.766160   1.383134   2.391612   0.000000
    30  C    2.403206   2.403295   1.385090   1.385320   0.000000
    31  H    1.084866   3.380991   2.147299   3.851009   3.387913
    32  H    3.381509   1.084888   3.851082   2.146392   3.387529
    33  H    2.137097   3.851563   1.085346   3.378136   2.145604
    34  H    3.851475   2.136814   3.378139   1.085339   2.145894
    35  H    3.386803   3.386759   2.147644   2.147708   1.084803
    36  C    2.949877   3.601295   4.282266   4.756298   5.038565
    37  C    3.226786   3.930015   4.338533   4.890687   5.066765
    38  C    3.942803   4.827785   5.313552   5.998684   6.208934
    39  C    4.342886   5.301235   5.391449   6.195996   6.240495
    40  C    4.904768   5.996058   6.209466   7.103504   7.202243
    41  C    5.077388   6.201228   6.248743   7.195434   7.222469
    42  H    3.039585   3.399150   3.907445   4.203402   4.424024
    43  H    4.283233   5.055263   5.655072   6.256341   6.516900
    44  H    4.928793   5.838708   5.788896   6.589767   6.572193
    45  H    5.791537   6.937445   7.100993   8.061893   8.140654
    46  H    6.052360   7.251143   7.163288   8.205273   8.172673
                   31         32         33         34         35
    31  H    0.000000
    32  H    4.274139   0.000000
    33  H    2.466292   4.936399   0.000000
    34  H    4.936316   2.464722   4.279073   0.000000
    35  H    4.284831   4.284064   2.476820   2.476967   0.000000
    36  C    2.720658   3.872704   4.957033   5.676099   6.095314
    37  C    3.048239   4.269469   4.927655   5.774967   6.041077
    38  C    3.417516   5.050678   5.854429   6.937665   7.259440
    39  C    3.922349   5.639809   5.793549   7.083586   7.154152
    40  C    4.225866   6.248153   6.608520   8.058468   8.212763
    41  C    4.445039   6.504289   6.586164   8.129655   8.172592
    42  H    3.180866   3.769056   4.568894   5.011258   5.341821
    43  H    3.785030   5.214433   6.213183   7.171511   7.572730
    44  H    4.581101   6.195185   6.116178   7.419869   7.393934
    45  H    5.035346   7.164927   7.443262   9.024945   9.149131
    46  H    5.363873   7.558985   7.409660   9.136838   9.084862
                   36         37         38         39         40
    36  C    0.000000
    37  C    1.390281   0.000000
    38  C    1.390728   2.399183   0.000000
    39  C    2.404545   1.383371   2.765716   0.000000
    40  C    2.404851   2.766197   1.383009   2.391427   0.000000
    41  C    2.785651   2.403388   2.403130   1.385000   1.385385
    42  H    2.142216   1.084823   3.380779   2.147200   3.851006
    43  H    2.142981   3.380925   1.084843   3.850508   2.146352
    44  H    3.384168   2.137027   3.851039   1.085344   3.377984
    45  H    3.384636   3.851534   2.136952   3.377926   1.085361
    46  H    3.870446   3.386984   3.386646   2.147636   2.147824
                   41         42         43         44         45
    41  C    0.000000
    42  H    3.387903   0.000000
    43  H    3.387436   4.273672   0.000000
    44  H    2.145483   2.465934   4.935820   0.000000
    45  H    2.145839   4.936336   2.465113   4.278880   0.000000
    46  H    1.084795   4.284771   4.284092   2.476788   2.476933
                   46
    46  H    0.000000
 Stoichiometry    C24H19NS2
 Framework group  C1[X(C24H19NS2)]
 Deg. of freedom   132
 Full point group                 C1      NOp   1
 Largest Abelian subgroup         C1      NOp   1
 Largest concise Abelian subgroup C1      NOp   1
                         Standard orientation:                         
 ---------------------------------------------------------------------
 Center     Atomic      Atomic             Coordinates (Angstroms)
 Number     Number       Type             X           Y           Z
 ---------------------------------------------------------------------
      1          6           0       -3.352046    1.022081    0.901490
      2          6           0       -4.015603    0.124147    0.077833
      3         16           0       -3.193622   -0.833868   -1.176213
      4          6           0       -5.398593   -0.028228    0.207342
      5          6           0       -0.749106    0.373785   -1.531691
      6          6           0       -1.475477   -0.566990   -0.815552
      7          6           0       -4.041516    1.761821    1.844012
      8          6           0       -6.080951    0.720801    1.156415
      9          1           0       -7.475944   -0.835079   -0.458792
     10          6           0        0.601771    0.547170   -1.299188
     11          6           0       -0.823428   -1.336346    0.139234
     12          6           0        0.521569   -1.154920    0.389409
     13          6           0        1.255724   -0.212476   -0.331046
     14          1           0        1.160253    1.275483   -1.876291
     15          1           0       -1.383265   -2.076857    0.700814
     16          1           0        1.015474   -1.752114    1.147605
     17          6           0       -5.411167    1.613701    1.970885
     18          1           0       -2.279577    1.141824    0.800598
     19          1           0       -1.248138    0.967582   -2.290346
     20          1           0       -3.503227    2.458074    2.478369
     21          1           0       -7.154267    0.598627    1.263844
     22          1           0       -5.962434    2.189124    2.706912
     23         16           0       -6.238224   -1.192989   -0.835805
     24          7           0        2.627173   -0.037586   -0.087724
     25          6           0        3.438312   -1.140752    0.276409
     26          6           0        4.374889   -1.012928    1.295896
     27          6           0        3.317625   -2.356550   -0.387733
     28          6           0        5.179400   -2.084309    1.640010
     29          6           0        4.112866   -3.428755   -0.025756
     30          6           0        5.049979   -3.298472    0.986151
     31          1           0        4.470709   -0.064848    1.814448
     32          1           0        2.593785   -2.456724   -1.189607
     33          1           0        5.907450   -1.970366    2.436839
     34          1           0        4.006805   -4.372570   -0.551042
     35          1           0        5.677330   -4.139106    1.262850
     36          6           0        3.224517    1.239724   -0.221989
     37          6           0        4.446224    1.376745   -0.871250
     38          6           0        2.604731    2.367846    0.304633
     39          6           0        5.037460    2.622109   -0.986244
     40          6           0        3.193018    3.612223    0.169883
     41          6           0        4.413292    3.746533   -0.472133
     42          1           0        4.931907    0.498005   -1.282066
     43          1           0        1.656156    2.262505    0.820378
     44          1           0        5.992055    2.714270   -1.494403
     45          1           0        2.697309    4.484427    0.584059
     46          1           0        4.876004    4.722810   -0.569917
 ---------------------------------------------------------------------
 Rotational constants (GHZ):           0.3083654           0.0766714           0.0675965
 Leave Link  202 at Mon Jan 18 13:57:47 2021, MaxMem=  4026531840 cpu:               0.1 elap:               0.0
 (Enter /opt/ohpc/pub/libs/gaussian/g16-A.03/sandybridge/g16/l301.exe)
 Standard basis: TZVP (5D, 7F)
 Ernie: Thresh=  0.10000D-02 Tol=  0.10000D-05 Strict=F.
 There are   660 symmetry adapted cartesian basis functions of A   symmetry.
 There are   633 symmetry adapted basis functions of A   symmetry.
   633 basis functions,  1121 primitive gaussians,   660 cartesian basis functions
   101 alpha electrons      101 beta electrons
       nuclear repulsion energy      2474.6847673599 Hartrees.
 IExCor=33909 DFT=T Ex+Corr=LC-wHPBE ExCW=0 ScaHFX=  1.000000
 ScaDFX=  1.000000  1.000000  1.000000  1.000000 ScalE2=  1.000000  1.000000
 IRadAn=      5 IRanWt=     -1 IRanGd=            0 ICorTp=0 IEmpDi=  4
 HFx  wShort=  0.000000 wLong=  0.328100 cFull=  0.000000 cShort=  0.000000 cLong=  1.000000
 DFx  wShort=  0.000000 wLong=  0.328100 cFull=  0.000000 cShort=  1.000000 cLong=  0.000000
 NAtoms=   46 NActive=   46 NUniq=   46 SFac= 1.00D+00 NAtFMM=   60 NAOKFM=F Big=F
 Integral buffers will be    131072 words long.
 Raffenetti 2 integral format.
 Two-electron integral symmetry is turned on.
 Leave Link  301 at Mon Jan 18 13:57:47 2021, MaxMem=  4026531840 cpu:               0.4 elap:               0.1
 (Enter /opt/ohpc/pub/libs/gaussian/g16-A.03/sandybridge/g16/l302.exe)
 NPDir=0 NMtPBC=     1 NCelOv=     1 NCel=       1 NClECP=     1 NCelD=      1
         NCelK=      1 NCelE2=     1 NClLst=     1 CellRange=     0.0.
 One-electron integrals computed using PRISM.
 One-electron integral symmetry used in STVInt
 NBasis=   633 RedAO= T EigKep=  6.67D-06  NBF=   633
 NBsUse=   633 1.00D-06 EigRej= -1.00D+00 NBFU=   633
 Precomputing XC quadrature grid using
 IXCGrd= 4 IRadAn=           5 IRanWt=          -1 IRanGd=           0 AccXCQ= 0.00D+00.
 Generated NRdTot=       0 NPtTot=           0 NUsed=           0 NTot=          32
 NSgBfM=   625   625   625   625   625 MxSgAt=    46 MxSgA2=    46.
 Leave Link  302 at Mon Jan 18 13:57:48 2021, MaxMem=  4026531840 cpu:               9.4 elap:               1.3
 (Enter /opt/ohpc/pub/libs/gaussian/g16-A.03/sandybridge/g16/l303.exe)
 DipDrv:  MaxL=1.
 Leave Link  303 at Mon Jan 18 13:57:49 2021, MaxMem=  4026531840 cpu:               0.9 elap:               0.2
 (Enter /opt/ohpc/pub/libs/gaussian/g16-A.03/sandybridge/g16/l401.exe)
 ExpMin= 9.52D-02 ExpMax= 6.07D+04 ExpMxC= 2.07D+03 IAcc=3 IRadAn=         5 AccDes= 0.00D+00
 Harris functional with IExCor=33909 and IRadAn=       5 diagonalized for initial guess.
 HarFok:  IExCor=33909 AccDes= 0.00D+00 IRadAn=         5 IDoV= 1 UseB2=F ITyADJ=14
 ICtDFT=  3500011 ScaDFX=  1.000000  1.000000  1.000000  1.000000
 FoFCou: FMM=F IPFlag=           0 FMFlag=      100000 FMFlg1=           0
         NFxFlg=           0 DoJE=T BraDBF=F KetDBF=T FulRan=T
         wScrn=  0.000000 ICntrl=       500 IOpCl=  0 I1Cent=   200000004 NGrid=           0
         NMat0=    1 NMatS0=      1 NMatT0=    0 NMatD0=    1 NMtDS0=    0 NMtDT0=    0
 Petite list used in FoFCou.
 Harris En= -1742.54069955667    
 JPrj=0 DoOrth=F DoCkMO=F.
 Leave Link  401 at Mon Jan 18 13:57:54 2021, MaxMem=  4026531840 cpu:              45.7 elap:               5.8
 (Enter /opt/ohpc/pub/libs/gaussian/g16-A.03/sandybridge/g16/l502.exe)
 Integral symmetry usage will be decided dynamically.
 Closed shell SCF:
 Using DIIS extrapolation, IDIIS=    10.
 NGot=  4026531840 LenX=  4025648940 LenY=  4025212680
 Requested convergence on RMS density matrix=1.00D-06 within  32 cycles.
 Requested convergence on MAX density matrix=1.00D-04.
 Requested convergence on             energy=1.00D-04.
 Virtual orbitals will be shifted by   0.500 hartree.
 No special actions if energy rises.
 Dynamic level shift is on during FON iterations.

 Cycle   1  Pass 1  IDiag  1:
 FoFJK:  IHMeth= 1 ICntrl=       0 DoSepK=T KAlg= 0 I1Cent=           0 FoldK=F
 IRaf=         1 NMat=       1 IRICut=       1 DoRegI=T DoRafI=F ISym2E= 0 IDoP0=0 IntGTp=1.
 FoFCou: FMM=F IPFlag=           0 FMFlag=      100000 FMFlg1=           0
         NFxFlg=           0 DoJE=T BraDBF=F KetDBF=F FulRan=T
         wScrn=  0.000000 ICntrl=       500 IOpCl=  0 I1Cent=           0 NGrid=           0
         NMat0=    1 NMatS0=      1 NMatT0=    0 NMatD0=    1 NMtDS0=    0 NMtDT0=    0
 Symmetry not used in FoFCou.
 E= -1775.95016878937    
 DIIS: error= 2.98D-02 at cycle   1 NSaved=   1.
 NSaved= 1 IEnMin= 1 EnMin= -1775.95016878937     IErMin= 1 ErrMin= 2.98D-02
 ErrMax= 2.98D-02  0.00D+00 EMaxC= 1.00D+00 BMatC= 4.62D-01 BMatP= 4.62D-01
 IDIUse=1 WtCom= 1.00D+00 WtEn= 0.00D+00
 Coeff-Com:  0.100D+01
 Coeff:      0.100D+01
 Gap=     0.445 Goal=   None    Shift=    0.500
 T= 1491. Gap= 0.741 NK=0 IS=  102 IE=  633 IFin=  101
          NO(<0.9)=   0  NV(>0.1)=   0    101.00e < EF      0.00e >EF  Err=0.0D+00
 GapD=    0.445 DampG=2.000 DampE=0.500 DampFc=1.0000 IDamp=-1.
 RMSDP=3.48D-03 MaxDP=2.77D-01              OVMax= 8.63D-02

 Cycle   2  Pass 1  IDiag  1:
 E= -1776.35483064610     Delta-E=       -0.404661856732 Rises=F Damp=F
 DIIS: error= 7.47D-03 at cycle   2 NSaved=   2.
 NSaved= 2 IEnMin= 2 EnMin= -1776.35483064610     IErMin= 2 ErrMin= 7.47D-03
 ErrMax= 7.47D-03  0.00D+00 EMaxC= 1.00D+00 BMatC= 4.83D-02 BMatP= 4.62D-01
 IDIUse=1 WtCom= 1.00D+00 WtEn= 0.00D+00
 Coeff-Com:  0.206D+00 0.794D+00
 Coeff:      0.206D+00 0.794D+00
 Gap=     0.406 Goal=   None    Shift=    0.500
 T= 1319. Gap= 0.802 NK=0 IS=  102 IE=  633 IFin=  101
          NO(<0.9)=   0  NV(>0.1)=   0    101.00e < EF      0.00e >EF  Err=0.0D+00
 GapD=    0.406 DampG=2.000 DampE=1.000 DampFc=2.0000 IDamp=-1.
 RMSDP=1.14D-03 MaxDP=7.85D-02 DE=-4.05D-01 OVMax= 1.77D-02

 Cycle   3  Pass 1  IDiag  1:
 E= -1776.38931999367     Delta-E=       -0.034489347569 Rises=F Damp=F
 DIIS: error= 2.27D-03 at cycle   3 NSaved=   3.
 NSaved= 3 IEnMin= 3 EnMin= -1776.38931999367     IErMin= 3 ErrMin= 2.27D-03
 ErrMax= 2.27D-03  0.00D+00 EMaxC= 1.00D+00 BMatC= 3.75D-03 BMatP= 4.83D-02
 IDIUse=1 WtCom= 1.00D+00 WtEn= 0.00D+00
 Coeff-Com:  0.514D-01-0.455D-01 0.994D+00
 Coeff:      0.514D-01-0.455D-01 0.994D+00
 Gap=     0.317 Goal=   None    Shift=    0.500
 T= 1002. Gap= 0.815 NK=0 IS=  102 IE=  633 IFin=  101
          NO(<0.9)=   0  NV(>0.1)=   0    101.00e < EF      0.00e >EF  Err=0.0D+00
 GapD=    0.317 DampG=1.000 DampE=1.000 DampFc=1.0000 IDamp=-1.
 RMSDP=5.17D-04 MaxDP=3.90D-02 DE=-3.45D-02 OVMax= 1.35D-02

 Cycle   4  Pass 1  IDiag  1:
 E= -1776.39421663798     Delta-E=       -0.004896644305 Rises=F Damp=F
 DIIS: error= 2.23D-03 at cycle   4 NSaved=   4.
 NSaved= 4 IEnMin= 4 EnMin= -1776.39421663798     IErMin= 4 ErrMin= 2.23D-03
 ErrMax= 2.23D-03  0.00D+00 EMaxC= 1.00D+00 BMatC= 7.22D-04 BMatP= 3.75D-03
 IDIUse=1 WtCom= 1.00D+00 WtEn= 0.00D+00
 Coeff-Com: -0.594D-03-0.808D-01-0.294D-01 0.111D+01
 Coeff:     -0.594D-03-0.808D-01-0.294D-01 0.111D+01
 Gap=     0.314 Goal=   None    Shift=    0.500
 T=  286. Gap= 0.814 NK=0 IS=  102 IE=  633 IFin=  101
          NO(<0.9)=   0  NV(>0.1)=   0    101.00e < EF      0.00e >EF  Err=0.0D+00
 GapD=    0.314 DampG=1.000 DampE=1.000 DampFc=1.0000 IDamp=-1.
 RMSDP=2.60D-04 MaxDP=1.49D-02 DE=-4.90D-03 OVMax= 9.48D-03

 Cycle   5  Pass 1  IDiag  1:
 E= -1776.39574291417     Delta-E=       -0.001526276193 Rises=F Damp=F
 DIIS: error= 1.65D-03 at cycle   5 NSaved=   5.
 NSaved= 5 IEnMin= 5 EnMin= -1776.39574291417     IErMin= 5 ErrMin= 1.65D-03
 ErrMax= 1.65D-03  0.00D+00 EMaxC= 1.00D+00 BMatC= 1.81D-04 BMatP= 7.22D-04
 IDIUse=1 WtCom= 1.00D+00 WtEn= 0.00D+00
 Coeff-Com: -0.111D-01 0.912D-03-0.200D+00-0.189D+00 0.140D+01
 Coeff:     -0.111D-01 0.912D-03-0.200D+00-0.189D+00 0.140D+01
 Gap=     0.316 Goal=   None    Shift=    0.500
 GapD=    0.316 DampG=1.000 DampE=1.000 DampFc=1.0000 IDamp=-1.
 RMSDP=1.48D-04 MaxDP=8.07D-03 DE=-1.53D-03 OVMax= 7.76D-03

 Cycle   6  Pass 1  IDiag  1:
 E= -1776.39640086448     Delta-E=       -0.000657950313 Rises=F Damp=F
 DIIS: error= 1.21D-03 at cycle   6 NSaved=   6.
 NSaved= 6 IEnMin= 6 EnMin= -1776.39640086448     IErMin= 6 ErrMin= 1.21D-03
 ErrMax= 1.21D-03  0.00D+00 EMaxC= 1.00D+00 BMatC= 6.59D-05 BMatP= 1.81D-04
 IDIUse=1 WtCom= 1.00D+00 WtEn= 0.00D+00
 Coeff-Com: -0.354D-02 0.146D-01-0.750D-02-0.270D+00-0.510D+00 0.178D+01
 Coeff:     -0.354D-02 0.146D-01-0.750D-02-0.270D+00-0.510D+00 0.178D+01
 Gap=     0.316 Goal=   None    Shift=    0.500
 GapD=    0.316 DampG=1.000 DampE=1.000 DampFc=1.0000 IDamp=-1.
 RMSDP=9.04D-05 MaxDP=4.41D-03 DE=-6.58D-04 OVMax= 6.28D-03

 Cycle   7  Pass 1  IDiag  1:
 E= -1776.39670277045     Delta-E=       -0.000301905970 Rises=F Damp=F
 DIIS: error= 8.22D-04 at cycle   7 NSaved=   7.
 NSaved= 7 IEnMin= 7 EnMin= -1776.39670277045     IErMin= 7 ErrMin= 8.22D-04
 ErrMax= 8.22D-04  0.00D+00 EMaxC= 1.00D+00 BMatC= 2.49D-05 BMatP= 6.59D-05
 IDIUse=1 WtCom= 1.00D+00 WtEn= 0.00D+00
 Coeff-Com:  0.556D-03 0.343D-02 0.417D-01-0.637D-02-0.529D+00-0.206D+00
 Coeff-Com:  0.169D+01
 Coeff:      0.556D-03 0.343D-02 0.417D-01-0.637D-02-0.529D+00-0.206D+00
 Coeff:      0.169D+01
 Gap=     0.316 Goal=   None    Shift=    0.500
 RMSDP=5.42D-05 MaxDP=3.27D-03 DE=-3.02D-04 OVMax= 4.51D-03

 Cycle   8  Pass 1  IDiag  1:
 E= -1776.39682607049     Delta-E=       -0.000123300038 Rises=F Damp=F
 DIIS: error= 5.36D-04 at cycle   8 NSaved=   8.
 NSaved= 8 IEnMin= 8 EnMin= -1776.39682607049     IErMin= 8 ErrMin= 5.36D-04
 ErrMax= 5.36D-04  0.00D+00 EMaxC= 1.00D+00 BMatC= 9.49D-06 BMatP= 2.49D-05
 IDIUse=1 WtCom= 1.00D+00 WtEn= 0.00D+00
 Coeff-Com:  0.703D-03-0.149D-02 0.194D-02 0.120D+00 0.675D-02-0.825D+00
 Coeff-Com: -0.825D-01 0.178D+01
 Coeff:      0.703D-03-0.149D-02 0.194D-02 0.120D+00 0.675D-02-0.825D+00
 Coeff:     -0.825D-01 0.178D+01
 Gap=     0.317 Goal=   None    Shift=    0.500
 RMSDP=3.11D-05 MaxDP=2.04D-03 DE=-1.23D-04 OVMax= 3.09D-03

 Cycle   9  Pass 1  IDiag  1:
 E= -1776.39687442494     Delta-E=       -0.000048354444 Rises=F Damp=F
 DIIS: error= 3.49D-04 at cycle   9 NSaved=   9.
 NSaved= 9 IEnMin= 9 EnMin= -1776.39687442494     IErMin= 9 ErrMin= 3.49D-04
 ErrMax= 3.49D-04  0.00D+00 EMaxC= 1.00D+00 BMatC= 3.53D-06 BMatP= 9.49D-06
 IDIUse=1 WtCom= 1.00D+00 WtEn= 0.00D+00
 Coeff-Com: -0.265D-03-0.469D-03-0.175D-01 0.573D-01 0.140D+00-0.287D+00
 Coeff-Com: -0.468D+00-0.966D-01 0.167D+01
 Coeff:     -0.265D-03-0.469D-03-0.175D-01 0.573D-01 0.140D+00-0.287D+00
 Coeff:     -0.468D+00-0.966D-01 0.167D+01
 Gap=     0.317 Goal=   None    Shift=    0.500
 RMSDP=1.65D-05 MaxDP=8.84D-04 DE=-4.84D-05 OVMax= 2.04D-03

 Cycle  10  Pass 1  IDiag  1:
 E= -1776.39689202181     Delta-E=       -0.000017596878 Rises=F Damp=F
 DIIS: error= 2.15D-04 at cycle  10 NSaved=  10.
 NSaved=10 IEnMin=10 EnMin= -1776.39689202181     IErMin=10 ErrMin= 2.15D-04
 ErrMax= 2.15D-04  0.00D+00 EMaxC= 1.00D+00 BMatC= 1.24D-06 BMatP= 3.53D-06
 IDIUse=1 WtCom= 1.00D+00 WtEn= 0.00D+00
 Coeff-Com: -0.406D-03 0.324D-03-0.151D-02-0.179D-01-0.162D-01 0.197D+00
 Coeff-Com: -0.227D-01-0.624D+00-0.642D+00 0.213D+01
 Coeff:     -0.406D-03 0.324D-03-0.151D-02-0.179D-01-0.162D-01 0.197D+00
 Coeff:     -0.227D-01-0.624D+00-0.642D+00 0.213D+01
 Gap=     0.317 Goal=   None    Shift=    0.500
 RMSDP=9.10D-06 MaxDP=3.73D-04 DE=-1.76D-05 OVMax= 1.29D-03

 Cycle  11  Pass 1  IDiag  1:
 E= -1776.39689821539     Delta-E=       -0.000006193574 Rises=F Damp=F
 DIIS: error= 1.39D-04 at cycle  11 NSaved=  11.
 NSaved=11 IEnMin=11 EnMin= -1776.39689821539     IErMin=11 ErrMin= 1.39D-04
 ErrMax= 1.39D-04  0.00D+00 EMaxC= 1.00D+00 BMatC= 4.92D-07 BMatP= 1.24D-06
 IDIUse=1 WtCom= 1.00D+00 WtEn= 0.00D+00
 Coeff-Com: -0.155D-03 0.387D-03 0.435D-02-0.132D-01-0.412D-01 0.104D+00
 Coeff-Com:  0.110D+00-0.134D+00-0.840D+00 0.223D+00 0.159D+01
 Coeff:     -0.155D-03 0.387D-03 0.435D-02-0.132D-01-0.412D-01 0.104D+00
 Coeff:      0.110D+00-0.134D+00-0.840D+00 0.223D+00 0.159D+01
 Gap=     0.317 Goal=   None    Shift=    0.500
 RMSDP=4.92D-06 MaxDP=2.12D-04 DE=-6.19D-06 OVMax= 8.17D-04

 Cycle  12  Pass 1  IDiag  1:
 E= -1776.39690040403     Delta-E=       -0.000002188640 Rises=F Damp=F
 DIIS: error= 8.43D-05 at cycle  12 NSaved=  12.
 NSaved=12 IEnMin=12 EnMin= -1776.39690040403     IErMin=12 ErrMin= 8.43D-05
 ErrMax= 8.43D-05  0.00D+00 EMaxC= 1.00D+00 BMatC= 1.82D-07 BMatP= 4.92D-07
 IDIUse=1 WtCom= 1.00D+00 WtEn= 0.00D+00
 Coeff-Com:  0.257D-04 0.209D-03 0.163D-02 0.381D-02-0.669D-02-0.446D-01
 Coeff-Com:  0.492D-01 0.216D+00-0.201D+00-0.642D+00-0.373D+00 0.200D+01
 Coeff:      0.257D-04 0.209D-03 0.163D-02 0.381D-02-0.669D-02-0.446D-01
 Coeff:      0.492D-01 0.216D+00-0.201D+00-0.642D+00-0.373D+00 0.200D+01
 Gap=     0.317 Goal=   None    Shift=    0.500
 RMSDP=2.84D-06 MaxDP=1.39D-04 DE=-2.19D-06 OVMax= 5.14D-04

 Cycle  13  Pass 1  IDiag  1:
 E= -1776.39690118588     Delta-E=       -0.000000781854 Rises=F Damp=F
 DIIS: error= 5.30D-05 at cycle  13 NSaved=  13.
 NSaved=13 IEnMin=13 EnMin= -1776.39690118588     IErMin=13 ErrMin= 5.30D-05
 ErrMax= 5.30D-05  0.00D+00 EMaxC= 1.00D+00 BMatC= 6.84D-08 BMatP= 1.82D-07
 IDIUse=1 WtCom= 1.00D+00 WtEn= 0.00D+00
 Coeff-Com:  0.226D-04 0.842D-05-0.888D-03 0.423D-02 0.583D-02-0.281D-01
 Coeff-Com: -0.104D-01 0.832D-01 0.106D+00-0.133D+00-0.887D+00 0.117D+00
 Coeff-Com:  0.174D+01
 Coeff:      0.226D-04 0.842D-05-0.888D-03 0.423D-02 0.583D-02-0.281D-01
 Coeff:     -0.104D-01 0.832D-01 0.106D+00-0.133D+00-0.887D+00 0.117D+00
 Coeff:      0.174D+01
 Gap=     0.317 Goal=   None    Shift=    0.500
 RMSDP=1.62D-06 MaxDP=7.92D-05 DE=-7.82D-07 OVMax= 3.26D-04

 Cycle  14  Pass 1  IDiag  1:
 E= -1776.39690146720     Delta-E=       -0.000000281314 Rises=F Damp=F
 DIIS: error= 3.16D-05 at cycle  14 NSaved=  14.
 NSaved=14 IEnMin=14 EnMin= -1776.39690146720     IErMin=14 ErrMin= 3.16D-05
 ErrMax= 3.16D-05  0.00D+00 EMaxC= 1.00D+00 BMatC= 2.36D-08 BMatP= 6.84D-08
 IDIUse=1 WtCom= 1.00D+00 WtEn= 0.00D+00
 Coeff-Com: -0.540D-05-0.493D-04-0.507D-03-0.235D-03 0.148D-02 0.912D-02
 Coeff-Com: -0.135D-01-0.368D-01 0.388D-01 0.215D+00-0.256D+00-0.498D+00
 Coeff-Com: -0.409D+00 0.195D+01
 Coeff:     -0.540D-05-0.493D-04-0.507D-03-0.235D-03 0.148D-02 0.912D-02
 Coeff:     -0.135D-01-0.368D-01 0.388D-01 0.215D+00-0.256D+00-0.498D+00
 Coeff:     -0.409D+00 0.195D+01
 Gap=     0.317 Goal=   None    Shift=    0.500
 RMSDP=9.38D-07 MaxDP=4.45D-05 DE=-2.81D-07 OVMax= 1.96D-04

 SCF Done:  E(RLC-wHPBE) =  -1776.39690147     A.U. after   14 cycles
            NFock= 14  Conv=0.94D-06     -V/T= 2.0040
 KE= 1.769305071964D+03 PE=-9.116913593328D+03 EE= 3.096526852537D+03
 Leave Link  502 at Mon Jan 18 14:07:23 2021, MaxMem=  4026531840 cpu:            4533.7 elap:             568.2
 (Enter /opt/ohpc/pub/libs/gaussian/g16-A.03/sandybridge/g16/l508.exe)
 QCSCF skips out because SCF is already converged.
 Leave Link  508 at Mon Jan 18 14:07:23 2021, MaxMem=  4026531840 cpu:               0.1 elap:               0.0
 (Enter /opt/ohpc/pub/libs/gaussian/g16-A.03/sandybridge/g16/l601.exe)
 Copying SCF densities to generalized density rwf, IOpCl= 0 IROHF=0.

 **********************************************************************

            Population analysis using the SCF density.

 **********************************************************************

 Orbital symmetries:
       Occupied  (A) (A) (A) (A) (A) (A) (A) (A) (A) (A) (A) (A)
                 (A) (A) (A) (A) (A) (A) (A) (A) (A) (A) (A) (A)
                 (A) (A) (A) (A) (A) (A) (A) (A) (A) (A) (A) (A)
                 (A) (A) (A) (A) (A) (A) (A) (A) (A) (A) (A) (A)
                 (A) (A) (A) (A) (A) (A) (A) (A) (A) (A) (A) (A)
                 (A) (A) (A) (A) (A) (A) (A) (A) (A) (A) (A) (A)
                 (A) (A) (A) (A) (A) (A) (A) (A) (A) (A) (A) (A)
                 (A) (A) (A) (A) (A) (A) (A) (A) (A) (A) (A) (A)
                 (A) (A) (A) (A) (A)
       Virtual   (A) (A) (A) (A) (A) (A) (A) (A) (A) (A) (A) (A)
                 (A) (A) (A) (A) (A) (A) (A) (A) (A) (A) (A) (A)
                 (A) (A) (A) (A) (A) (A) (A) (A) (A) (A) (A) (A)
                 (A) (A) (A) (A) (A) (A) (A) (A) (A) (A) (A) (A)
                 (A) (A) (A) (A) (A) (A) (A) (A) (A) (A) (A) (A)
                 (A) (A) (A) (A) (A) (A) (A) (A) (A) (A) (A) (A)
                 (A) (A) (A) (A) (A) (A) (A) (A) (A) (A) (A) (A)
                 (A) (A) (A) (A) (A) (A) (A) (A) (A) (A) (A) (A)
                 (A) (A) (A) (A) (A) (A) (A) (A) (A) (A) (A) (A)
                 (A) (A) (A) (A) (A) (A) (A) (A) (A) (A) (A) (A)
                 (A) (A) (A) (A) (A) (A) (A) (A) (A) (A) (A) (A)
                 (A) (A) (A) (A) (A) (A) (A) (A) (A) (A) (A) (A)
                 (A) (A) (A) (A) (A) (A) (A) (A) (A) (A) (A) (A)
                 (A) (A) (A) (A) (A) (A) (A) (A) (A) (A) (A) (A)
                 (A) (A) (A) (A) (A) (A) (A) (A) (A) (A) (A) (A)
                 (A) (A) (A) (A) (A) (A) (A) (A) (A) (A) (A) (A)
                 (A) (A) (A) (A) (A) (A) (A) (A) (A) (A) (A) (A)
                 (A) (A) (A) (A) (A) (A) (A) (A) (A) (A) (A) (A)
                 (A) (A) (A) (A) (A) (A) (A) (A) (A) (A) (A) (A)
                 (A) (A) (A) (A) (A) (A) (A) (A) (A) (A) (A) (A)
                 (A) (A) (A) (A) (A) (A) (A) (A) (A) (A) (A) (A)
                 (A) (A) (A) (A) (A) (A) (A) (A) (A) (A) (A) (A)
                 (A) (A) (A) (A) (A) (A) (A) (A) (A) (A) (A) (A)
                 (A) (A) (A) (A) (A) (A) (A) (A) (A) (A) (A) (A)
                 (A) (A) (A) (A) (A) (A) (A) (A) (A) (A) (A) (A)
                 (A) (A) (A) (A) (A) (A) (A) (A) (A) (A) (A) (A)
                 (A) (A) (A) (A) (A) (A) (A) (A) (A) (A) (A) (A)
                 (A) (A) (A) (A) (A) (A) (A) (A) (A) (A) (A) (A)
                 (A) (A) (A) (A) (A) (A) (A) (A) (A) (A) (A) (A)
                 (A) (A) (A) (A) (A) (A) (A) (A) (A) (A) (A) (A)
                 (A) (A) (A) (A) (A) (A) (A) (A) (A) (A) (A) (A)
                 (A) (A) (A) (A) (A) (A) (A) (A) (A) (A) (A) (A)
                 (A) (A) (A) (A) (A) (A) (A) (A) (A) (A) (A) (A)
                 (A) (A) (A) (A) (A) (A) (A) (A) (A) (A) (A) (A)
                 (A) (A) (A) (A) (A) (A) (A) (A) (A) (A) (A) (A)
                 (A) (A) (A) (A) (A) (A) (A) (A) (A) (A) (A) (A)
                 (A) (A) (A) (A) (A) (A) (A) (A) (A) (A) (A) (A)
                 (A) (A) (A) (A) (A) (A) (A) (A) (A) (A) (A) (A)
                 (A) (A) (A) (A) (A) (A) (A) (A) (A) (A) (A) (A)
                 (A) (A) (A) (A) (A) (A) (A) (A) (A) (A) (A) (A)
                 (A) (A) (A) (A) (A) (A) (A) (A) (A) (A) (A) (A)
                 (A) (A) (A) (A) (A) (A) (A) (A) (A) (A) (A) (A)
                 (A) (A) (A) (A) (A) (A) (A) (A) (A) (A) (A) (A)
                 (A) (A) (A) (A) (A) (A) (A) (A) (A) (A) (A) (A)
                 (A) (A) (A) (A)
 The electronic state is 1-A.
 Alpha  occ. eigenvalues --  -88.27456 -88.27388 -14.20605 -10.12605 -10.11946
 Alpha  occ. eigenvalues --  -10.11901 -10.11481 -10.11122 -10.10331 -10.08319
 Alpha  occ. eigenvalues --  -10.08290 -10.07850 -10.07816 -10.07814 -10.07780
 Alpha  occ. eigenvalues --  -10.07776 -10.07684 -10.07682 -10.07614 -10.07545
 Alpha  occ. eigenvalues --  -10.07539 -10.07518 -10.07377 -10.07374 -10.07332
 Alpha  occ. eigenvalues --  -10.07214 -10.07130  -7.86945  -7.86753  -5.88901
 Alpha  occ. eigenvalues --   -5.88740  -5.88380  -5.88190  -5.87594  -5.87395
 Alpha  occ. eigenvalues --   -1.09110  -1.00168  -0.98987  -0.98600  -0.96824
 Alpha  occ. eigenvalues --   -0.92136  -0.90943  -0.88588  -0.88041  -0.87106
 Alpha  occ. eigenvalues --   -0.86866  -0.86822  -0.84277  -0.82444  -0.80121
 Alpha  occ. eigenvalues --   -0.75274  -0.74675  -0.72854  -0.72686  -0.72154
 Alpha  occ. eigenvalues --   -0.71436  -0.69478  -0.68702  -0.65838  -0.65808
 Alpha  occ. eigenvalues --   -0.63003  -0.61331  -0.59858  -0.58879  -0.58709
 Alpha  occ. eigenvalues --   -0.57786  -0.56902  -0.56600  -0.55598  -0.55251
 Alpha  occ. eigenvalues --   -0.54499  -0.54210  -0.53791  -0.53473  -0.53286
 Alpha  occ. eigenvalues --   -0.52705  -0.51777  -0.51250  -0.50071  -0.49850
 Alpha  occ. eigenvalues --   -0.49593  -0.47902  -0.47089  -0.46482  -0.46089
 Alpha  occ. eigenvalues --   -0.45228  -0.44832  -0.44780  -0.44608  -0.42815
 Alpha  occ. eigenvalues --   -0.41253  -0.40570  -0.39259  -0.36998  -0.36968
 Alpha  occ. eigenvalues --   -0.36597  -0.35770  -0.35473  -0.32466  -0.30006
 Alpha  occ. eigenvalues --   -0.28241
 Alpha virt. eigenvalues --    0.03423   0.03908   0.04602   0.05780   0.06196
 Alpha virt. eigenvalues --    0.06810   0.07137   0.08162   0.09496   0.11523
 Alpha virt. eigenvalues --    0.12924   0.13155   0.13300   0.14257   0.15205
 Alpha virt. eigenvalues --    0.15417   0.15714   0.16055   0.16749   0.16902
 Alpha virt. eigenvalues --    0.17403   0.18052   0.18232   0.18759   0.18834
 Alpha virt. eigenvalues --    0.19096   0.19424   0.20149   0.21359   0.21683
 Alpha virt. eigenvalues --    0.22114   0.22510   0.22866   0.23416   0.24165
 Alpha virt. eigenvalues --    0.24678   0.25869   0.26800   0.26844   0.27135
 Alpha virt. eigenvalues --    0.27377   0.28043   0.28350   0.28568   0.28772
 Alpha virt. eigenvalues --    0.29268   0.29321   0.29936   0.30164   0.30543
 Alpha virt. eigenvalues --    0.30777   0.30852   0.31008   0.31410   0.31759
 Alpha virt. eigenvalues --    0.32063   0.32258   0.32797   0.32922   0.33623
 Alpha virt. eigenvalues --    0.33701   0.34034   0.34516   0.34956   0.35162
 Alpha virt. eigenvalues --    0.35559   0.35815   0.35951   0.36311   0.36920
 Alpha virt. eigenvalues --    0.37335   0.38055   0.38428   0.38712   0.39017
 Alpha virt. eigenvalues --    0.39357   0.39927   0.40121   0.40735   0.41266
 Alpha virt. eigenvalues --    0.41586   0.41931   0.42297   0.42877   0.43219
 Alpha virt. eigenvalues --    0.44024   0.44079   0.44848   0.45237   0.45537
 Alpha virt. eigenvalues --    0.45899   0.46311   0.46601   0.46604   0.47033
 Alpha virt. eigenvalues --    0.47520   0.47659   0.47775   0.47909   0.48581
 Alpha virt. eigenvalues --    0.48922   0.48981   0.49504   0.49873   0.50252
 Alpha virt. eigenvalues --    0.50323   0.50713   0.50940   0.51241   0.51372
 Alpha virt. eigenvalues --    0.51525   0.52125   0.52731   0.52949   0.53563
 Alpha virt. eigenvalues --    0.53659   0.54022   0.54408   0.55115   0.55414
 Alpha virt. eigenvalues --    0.56056   0.56146   0.56768   0.57439   0.57810
 Alpha virt. eigenvalues --    0.58055   0.58536   0.59004   0.59215   0.59431
 Alpha virt. eigenvalues --    0.59680   0.59770   0.60510   0.60877   0.61252
 Alpha virt. eigenvalues --    0.62222   0.62507   0.63263   0.63793   0.64267
 Alpha virt. eigenvalues --    0.64713   0.65836   0.66037   0.66725   0.67528
 Alpha virt. eigenvalues --    0.68142   0.68995   0.69670   0.70393   0.71200
 Alpha virt. eigenvalues --    0.72047   0.72701   0.74102   0.74931   0.75434
 Alpha virt. eigenvalues --    0.76079   0.76304   0.76550   0.76841   0.77344
 Alpha virt. eigenvalues --    0.78153   0.78385   0.78853   0.79056   0.79305
 Alpha virt. eigenvalues --    0.79625   0.80439   0.80705   0.80935   0.81778
 Alpha virt. eigenvalues --    0.82111   0.82293   0.83371   0.84658   0.85374
 Alpha virt. eigenvalues --    0.85505   0.86235   0.87234   0.87367   0.88971
 Alpha virt. eigenvalues --    0.89692   0.92366   0.93299   0.93859   0.94417
 Alpha virt. eigenvalues --    0.94921   0.96594   0.98035   1.00455   1.00774
 Alpha virt. eigenvalues --    1.01010   1.02243   1.02705   1.04897   1.05726
 Alpha virt. eigenvalues --    1.06259   1.13004   1.19005   1.23372   1.24298
 Alpha virt. eigenvalues --    1.24419   1.28191   1.28303   1.29409   1.30325
 Alpha virt. eigenvalues --    1.31537   1.31757   1.32287   1.32764   1.33061
 Alpha virt. eigenvalues --    1.34198   1.34531   1.34926   1.35166   1.35284
 Alpha virt. eigenvalues --    1.35787   1.36344   1.36583   1.36634   1.37198
 Alpha virt. eigenvalues --    1.37415   1.38015   1.38299   1.38841   1.39117
 Alpha virt. eigenvalues --    1.39573   1.39696   1.40310   1.41232   1.41557
 Alpha virt. eigenvalues --    1.42333   1.43130   1.43281   1.44209   1.44579
 Alpha virt. eigenvalues --    1.46361   1.48378   1.49322   1.49585   1.49982
 Alpha virt. eigenvalues --    1.51023   1.51487   1.52200   1.52596   1.52734
 Alpha virt. eigenvalues --    1.52884   1.52953   1.53122   1.53394   1.53540
 Alpha virt. eigenvalues --    1.53636   1.53933   1.54355   1.54578   1.55112
 Alpha virt. eigenvalues --    1.55239   1.56061   1.56654   1.56940   1.57263
 Alpha virt. eigenvalues --    1.57874   1.58528   1.58974   1.59303   1.59695
 Alpha virt. eigenvalues --    1.59974   1.60262   1.60371   1.61288   1.61397
 Alpha virt. eigenvalues --    1.62042   1.62558   1.63449   1.64000   1.64298
 Alpha virt. eigenvalues --    1.64651   1.64786   1.65205   1.65226   1.65535
 Alpha virt. eigenvalues --    1.65842   1.66210   1.66712   1.67005   1.67351
 Alpha virt. eigenvalues --    1.67425   1.68458   1.68634   1.69285   1.69796
 Alpha virt. eigenvalues --    1.70460   1.70521   1.74382   1.74677   1.75192
 Alpha virt. eigenvalues --    1.75367   1.76282   1.78109   1.79312   1.79993
 Alpha virt. eigenvalues --    1.80810   1.81103   1.84149   1.84744   1.85190
 Alpha virt. eigenvalues --    1.85521   1.85713   1.85888   1.86631   1.86815
 Alpha virt. eigenvalues --    1.87504   1.87859   1.88196   1.88607   1.89196
 Alpha virt. eigenvalues --    1.89767   1.90334   1.90764   1.91145   1.91269
 Alpha virt. eigenvalues --    1.92378   1.93040   1.93701   1.95941   1.96243
 Alpha virt. eigenvalues --    1.96955   1.97434   1.97705   1.97777   1.98145
 Alpha virt. eigenvalues --    1.98702   1.99639   1.99688   1.99998   2.00568
 Alpha virt. eigenvalues --    2.00841   2.01242   2.01354   2.01818   2.02016
 Alpha virt. eigenvalues --    2.02521   2.02636   2.02756   2.03814   2.04783
 Alpha virt. eigenvalues --    2.06263   2.06297   2.06357   2.06545   2.07473
 Alpha virt. eigenvalues --    2.08268   2.08623   2.09335   2.10147   2.10363
 Alpha virt. eigenvalues --    2.11361   2.12123   2.12705   2.12958   2.14900
 Alpha virt. eigenvalues --    2.16736   2.17724   2.18589   2.19511   2.20650
 Alpha virt. eigenvalues --    2.21662   2.23471   2.24608   2.28027   2.28423
 Alpha virt. eigenvalues --    2.29359   2.31254   2.32117   2.32980   2.33409
 Alpha virt. eigenvalues --    2.35750   2.35984   2.37595   2.38634   2.38954
 Alpha virt. eigenvalues --    2.39626   2.39958   2.40440   2.40663   2.40852
 Alpha virt. eigenvalues --    2.41083   2.41394   2.41878   2.41963   2.42660
 Alpha virt. eigenvalues --    2.42836   2.43305   2.43623   2.44149   2.44457
 Alpha virt. eigenvalues --    2.44647   2.44725   2.46115   2.46387   2.46447
 Alpha virt. eigenvalues --    2.47372   2.47706   2.49195   2.51759   2.53136
 Alpha virt. eigenvalues --    2.54622   2.55116   2.55951   2.58484   2.59659
 Alpha virt. eigenvalues --    2.59918   2.60796   2.60991   2.61155   2.61852
 Alpha virt. eigenvalues --    2.62258   2.62987   2.64983   2.65346   2.66155
 Alpha virt. eigenvalues --    2.67553   2.67921   2.68773   2.69629   2.71038
 Alpha virt. eigenvalues --    2.71932   2.72969   2.73889   2.73945   2.74129
 Alpha virt. eigenvalues --    2.74324   2.74812   2.74945   2.75311   2.75581
 Alpha virt. eigenvalues --    2.76333   2.76558   2.78155   2.82354   2.83162
 Alpha virt. eigenvalues --    2.83679   2.84301   2.85606   2.86908   2.87575
 Alpha virt. eigenvalues --    2.88381   2.89698   2.91592   2.92184   2.93281
 Alpha virt. eigenvalues --    2.93464   2.94502   2.95600   2.97733   3.04836
 Alpha virt. eigenvalues --    3.06326   3.06544   3.07351   3.08155   3.10200
 Alpha virt. eigenvalues --    3.10637   3.11295   3.11881   3.12269   3.13060
 Alpha virt. eigenvalues --    3.14036   3.15945   3.18474   3.18804   3.18913
 Alpha virt. eigenvalues --    3.20778   3.21260   3.21490   3.23218   3.23714
 Alpha virt. eigenvalues --    3.24550   3.25979   3.26340   3.26686   3.28444
 Alpha virt. eigenvalues --    3.28939   3.29022   3.29976   3.30099   3.32149
 Alpha virt. eigenvalues --    3.34730   3.37332   3.42132   3.42468   3.43008
 Alpha virt. eigenvalues --    3.44925   3.48003   3.49038   3.49879   3.55450
 Alpha virt. eigenvalues --    3.61356   3.63493   3.64290   3.64442   3.66936
 Alpha virt. eigenvalues --    3.71313   3.79959   3.89490   4.00335   4.02425
 Alpha virt. eigenvalues --   18.84207  19.09369  21.13163  21.28352  21.30715
 Alpha virt. eigenvalues --   21.42151  21.69875  21.77308  21.78122  21.80394
 Alpha virt. eigenvalues --   21.81622  21.82464  21.89348  21.94804  21.98853
 Alpha virt. eigenvalues --   22.00150  22.00746  22.04307  22.06355  22.06964
 Alpha virt. eigenvalues --   22.12002  22.12093  22.15967  22.19349  22.24684
 Alpha virt. eigenvalues --   22.25391  32.13081
          Condensed to atoms (all electrons):
               1          2          3          4          5          6
     1  C    5.782617   0.123211  -0.147735  -0.077627   0.005715  -0.036521
     2  C    0.123211   5.764620   0.446248   0.066549  -0.013016  -0.020363
     3  S   -0.147735   0.446248  15.511293  -0.103874  -0.126039   0.412933
     4  C   -0.077627   0.066549  -0.103874   5.791726  -0.003825   0.033754
     5  C    0.005715  -0.013016  -0.126039  -0.003825   5.497943   0.135945
     6  C   -0.036521  -0.020363   0.412933   0.033754   0.135945   5.799549
     7  C    0.118828   0.094448   0.028018  -0.144282  -0.004331  -0.010450
     8  C   -0.394316   0.064329   0.023424   0.052285  -0.000176  -0.004122
     9  H    0.000779   0.020933   0.000297  -0.032373   0.000006   0.000014
    10  C   -0.002112   0.000670   0.035822   0.000938   0.112415   0.119499
    11  C    0.004640  -0.008291  -0.138604  -0.007988   0.150911  -0.018275
    12  C   -0.000027  -0.000549   0.041357   0.000554  -0.252487   0.186697
    13  C    0.000227  -0.002534  -0.013072  -0.000537   0.140523  -0.251865
    14  H    0.000003   0.000002  -0.000062   0.000004  -0.031023   0.011258
    15  H    0.002429  -0.000864  -0.008514  -0.001678   0.023515  -0.075669
    16  H    0.000015   0.000053  -0.000029   0.000008  -0.002375   0.012029
    17  C    0.206340  -0.178592  -0.006678   0.170088   0.000281   0.002410
    18  H    0.415825  -0.075467  -0.016876   0.003617  -0.001085   0.016992
    19  H    0.001095  -0.000336  -0.002728  -0.000795   0.435085  -0.070605
    20  H   -0.049806   0.018803   0.000017  -0.001565  -0.000032   0.000027
    21  H   -0.002702   0.024808  -0.000055  -0.098677  -0.000002   0.000012
    22  H    0.018834  -0.003303  -0.000012   0.021065   0.000003   0.000009
    23  S    0.032095  -0.149431   0.015618   0.481434   0.000179  -0.000282
    24  N   -0.000037  -0.000011  -0.000030  -0.000000   0.015223   0.002128
    25  C    0.000012  -0.000010   0.000010  -0.000000  -0.006009   0.002304
    26  C   -0.000002   0.000001  -0.000000   0.000000  -0.000550   0.000286
    27  C    0.000005  -0.000004   0.000007  -0.000000   0.003327  -0.001281
    28  C   -0.000000   0.000000  -0.000000   0.000000  -0.000039   0.000011
    29  C    0.000000  -0.000000   0.000000  -0.000000   0.000116  -0.000119
    30  C   -0.000000   0.000000   0.000000   0.000000   0.000011  -0.000004
    31  H    0.000000  -0.000000   0.000000  -0.000000  -0.000001   0.000000
    32  H    0.000000  -0.000001   0.000009  -0.000000  -0.000334   0.000943
    33  H    0.000000  -0.000000   0.000000  -0.000000   0.000000  -0.000000
    34  H    0.000000  -0.000000  -0.000000   0.000000  -0.000001  -0.000001
    35  H   -0.000000   0.000000  -0.000000   0.000000  -0.000000  -0.000000
    36  C    0.000022  -0.000012  -0.000021  -0.000001  -0.002178   0.001098
    37  C    0.000004  -0.000000   0.000002  -0.000000   0.000814   0.000342
    38  C   -0.000186   0.000016  -0.000021   0.000002  -0.006896  -0.001847
    39  C   -0.000000  -0.000000  -0.000000   0.000000   0.000053   0.000020
    40  C   -0.000016   0.000001  -0.000001   0.000000  -0.000365  -0.000121
    41  C    0.000000   0.000000   0.000000  -0.000000  -0.000052  -0.000003
    42  H   -0.000000   0.000000  -0.000000   0.000000   0.000004  -0.000005
    43  H    0.000088   0.000012   0.000001  -0.000000  -0.002253   0.000501
    44  H   -0.000000   0.000000  -0.000000   0.000000  -0.000001  -0.000000
    45  H   -0.000000  -0.000000  -0.000000   0.000000   0.000021  -0.000002
    46  H    0.000000  -0.000000   0.000000  -0.000000  -0.000001  -0.000000
               7          8          9         10         11         12
     1  C    0.118828  -0.394316   0.000779  -0.002112   0.004640  -0.000027
     2  C    0.094448   0.064329   0.020933   0.000670  -0.008291  -0.000549
     3  S    0.028018   0.023424   0.000297   0.035822  -0.138604   0.041357
     4  C   -0.144282   0.052285  -0.032373   0.000938  -0.007988   0.000554
     5  C   -0.004331  -0.000176   0.000006   0.112415   0.150911  -0.252487
     6  C   -0.010450  -0.004122   0.000014   0.119499  -0.018275   0.186697
     7  C    5.252094   0.227957  -0.000993   0.000606  -0.003923   0.000992
     8  C    0.227957   5.887630  -0.038019  -0.000024   0.000783   0.000031
     9  H   -0.000993  -0.038019   0.612921  -0.000000  -0.000000  -0.000000
    10  C    0.000606  -0.000024  -0.000000   5.567385  -0.246263   0.038616
    11  C   -0.003923   0.000783  -0.000000  -0.246263   5.655134   0.027144
    12  C    0.000992   0.000031  -0.000000   0.038616   0.027144   5.653368
    13  C   -0.000234   0.000024   0.000000   0.204078   0.186418   0.156979
    14  H    0.000003  -0.000000  -0.000000   0.399013  -0.002125   0.010275
    15  H   -0.000793  -0.000006   0.000001  -0.007234   0.450021  -0.065311
    16  H    0.000010  -0.000000  -0.000000   0.010540  -0.030072   0.398888
    17  C    0.267687  -0.022573   0.005662  -0.000010  -0.000253  -0.000033
    18  H   -0.026159   0.002078   0.000000   0.000448  -0.001042  -0.000717
    19  H   -0.000408   0.000009   0.000000  -0.061570   0.029894  -0.010037
    20  H    0.415291   0.017091  -0.000003  -0.000001  -0.000025  -0.000002
    21  H    0.012635   0.437406  -0.002755   0.000000   0.000007   0.000000
    22  H   -0.055237  -0.063302   0.000061  -0.000000   0.000000  -0.000000
    23  S   -0.010644  -0.142512   0.338420   0.000008   0.000039   0.000006
    24  N    0.000002  -0.000000   0.000000  -0.008105   0.014841  -0.012453
    25  C    0.000001   0.000000  -0.000000  -0.007421  -0.004182   0.034480
    26  C   -0.000000  -0.000000   0.000000  -0.011522   0.000890   0.023232
    27  C   -0.000000   0.000000  -0.000000   0.021708  -0.007205  -0.082613
    28  C    0.000000  -0.000000  -0.000000  -0.000380   0.000041   0.003366
    29  C    0.000000   0.000000  -0.000000   0.001086  -0.000641  -0.010194
    30  C   -0.000000  -0.000000   0.000000   0.000069  -0.000014  -0.000633
    31  H    0.000000   0.000000  -0.000000  -0.000277  -0.000018   0.000471
    32  H    0.000000   0.000000   0.000000  -0.000145  -0.002462   0.002433
    33  H    0.000000   0.000000  -0.000000   0.000002  -0.000002  -0.000032
    34  H    0.000000   0.000000  -0.000000  -0.000025   0.000017   0.000089
    35  H   -0.000000  -0.000000   0.000000   0.000000  -0.000001  -0.000012
    36  C   -0.000000   0.000000   0.000000   0.023112  -0.003607  -0.011586
    37  C    0.000000   0.000000  -0.000000   0.024205  -0.000740  -0.010861
    38  C    0.000012  -0.000000   0.000000  -0.080450   0.003824   0.017935
    39  C   -0.000000  -0.000000  -0.000000   0.003282  -0.000049  -0.000291
    40  C   -0.000000  -0.000000   0.000000  -0.010470   0.000118   0.001006
    41  C    0.000000   0.000000   0.000000  -0.000341   0.000009   0.000055
    42  H   -0.000000  -0.000000   0.000000   0.000480   0.000012  -0.000351
    43  H    0.000003   0.000000   0.000000   0.003224   0.000081  -0.000897
    44  H   -0.000000  -0.000000   0.000000  -0.000034   0.000000   0.000002
    45  H    0.000000   0.000000  -0.000000   0.000047  -0.000000  -0.000026
    46  H    0.000000   0.000000  -0.000000  -0.000012  -0.000000   0.000000
              13         14         15         16         17         18
     1  C    0.000227   0.000003   0.002429   0.000015   0.206340   0.415825
     2  C   -0.002534   0.000002  -0.000864   0.000053  -0.178592  -0.075467
     3  S   -0.013072  -0.000062  -0.008514  -0.000029  -0.006678  -0.016876
     4  C   -0.000537   0.000004  -0.001678   0.000008   0.170088   0.003617
     5  C    0.140523  -0.031023   0.023515  -0.002375   0.000281  -0.001085
     6  C   -0.251865   0.011258  -0.075669   0.012029   0.002410   0.016992
     7  C   -0.000234   0.000003  -0.000793   0.000010   0.267687  -0.026159
     8  C    0.000024  -0.000000  -0.000006  -0.000000  -0.022573   0.002078
     9  H    0.000000  -0.000000   0.000001  -0.000000   0.005662   0.000000
    10  C    0.204078   0.399013  -0.007234   0.010540  -0.000010   0.000448
    11  C    0.186418  -0.002125   0.450021  -0.030072  -0.000253  -0.001042
    12  C    0.156979   0.010275  -0.065311   0.398888  -0.000033  -0.000717
    13  C    5.528189  -0.033962   0.021727  -0.035676  -0.000009  -0.000779
    14  H   -0.033962   0.477794  -0.000028  -0.000148   0.000000   0.000065
    15  H    0.021727  -0.000028   0.522481  -0.005715   0.000077   0.000624
    16  H   -0.035676  -0.000148  -0.005715   0.475569  -0.000000   0.000026
    17  C   -0.000009   0.000000   0.000077  -0.000000   5.319030   0.006661
    18  H   -0.000779   0.000065   0.000624   0.000026   0.006661   0.499433
    19  H    0.021470  -0.005770   0.000202  -0.000041   0.000017   0.000706
    20  H   -0.000013  -0.000000  -0.000007   0.000000  -0.055201  -0.006038
    21  H    0.000000  -0.000000   0.000000  -0.000000  -0.040084   0.000020
    22  H    0.000000  -0.000000   0.000000  -0.000000   0.424693  -0.000250
    23  S   -0.000001   0.000000   0.000137  -0.000000   0.039653   0.000006
    24  N    0.176583  -0.005942  -0.000260  -0.006031   0.000000   0.000053
    25  C   -0.060328  -0.000648  -0.000170   0.002874  -0.000000   0.000001
    26  C   -0.014689  -0.000247  -0.000028  -0.000547   0.000000   0.000003
    27  C    0.025584   0.000197  -0.000016  -0.002805  -0.000000  -0.000010
    28  C   -0.004802   0.000003  -0.000002   0.000221  -0.000000   0.000000
    29  C    0.003083  -0.000006   0.000009  -0.001367  -0.000000  -0.000000
    30  C    0.001556  -0.000002   0.000001   0.000319   0.000000   0.000000
    31  H   -0.001140  -0.000006  -0.000001   0.000037  -0.000000  -0.000000
    32  H   -0.002738   0.000002  -0.000056   0.001145   0.000000   0.000001
    33  H    0.000009  -0.000000  -0.000000   0.000006  -0.000000  -0.000000
    34  H   -0.000131  -0.000000  -0.000000  -0.000015  -0.000000   0.000000
    35  H    0.000014   0.000000   0.000000   0.000005   0.000000   0.000000
    36  C   -0.046831   0.002337   0.000050  -0.001004  -0.000000  -0.000085
    37  C   -0.018277  -0.000640  -0.000001  -0.000211  -0.000000  -0.000006
    38  C    0.028639  -0.002737  -0.000002   0.000155   0.000000   0.000265
    39  C   -0.004735   0.000231   0.000000   0.000004   0.000000   0.000000
    40  C    0.004123  -0.001326  -0.000000  -0.000003   0.000000   0.000033
    41  C    0.001210   0.000387  -0.000000  -0.000001  -0.000000  -0.000000
    42  H   -0.001160   0.000012   0.000000  -0.000009   0.000000  -0.000000
    43  H   -0.001988   0.000998  -0.000000  -0.000034  -0.000000   0.000050
    44  H    0.000015   0.000006   0.000000  -0.000000   0.000000   0.000000
    45  H   -0.000113  -0.000020   0.000000  -0.000000  -0.000000  -0.000000
    46  H    0.000013   0.000006  -0.000000   0.000000  -0.000000  -0.000000
              19         20         21         22         23         24
     1  C    0.001095  -0.049806  -0.002702   0.018834   0.032095  -0.000037
     2  C   -0.000336   0.018803   0.024808  -0.003303  -0.149431  -0.000011
     3  S   -0.002728   0.000017  -0.000055  -0.000012   0.015618  -0.000030
     4  C   -0.000795  -0.001565  -0.098677   0.021065   0.481434  -0.000000
     5  C    0.435085  -0.000032  -0.000002   0.000003   0.000179   0.015223
     6  C   -0.070605   0.000027   0.000012   0.000009  -0.000282   0.002128
     7  C   -0.000408   0.415291   0.012635  -0.055237  -0.010644   0.000002
     8  C    0.000009   0.017091   0.437406  -0.063302  -0.142512  -0.000000
     9  H    0.000000  -0.000003  -0.002755   0.000061   0.338420   0.000000
    10  C   -0.061570  -0.000001   0.000000  -0.000000   0.000008  -0.008105
    11  C    0.029894  -0.000025   0.000007   0.000000   0.000039   0.014841
    12  C   -0.010037  -0.000002   0.000000  -0.000000   0.000006  -0.012453
    13  C    0.021470  -0.000013   0.000000   0.000000  -0.000001   0.176583
    14  H   -0.005770  -0.000000  -0.000000  -0.000000   0.000000  -0.005942
    15  H    0.000202  -0.000007   0.000000   0.000000   0.000137  -0.000260
    16  H   -0.000041   0.000000  -0.000000  -0.000000  -0.000000  -0.006031
    17  C    0.000017  -0.055201  -0.040084   0.424693   0.039653   0.000000
    18  H    0.000706  -0.006038   0.000020  -0.000250   0.000006   0.000053
    19  H    0.525384  -0.000001   0.000000  -0.000000  -0.000010  -0.000281
    20  H   -0.000001   0.545337  -0.000244  -0.006384  -0.000040  -0.000000
    21  H    0.000000  -0.000244   0.565411  -0.007158  -0.016276   0.000000
    22  H   -0.000000  -0.006384  -0.007158   0.547574   0.000054   0.000000
    23  S   -0.000010  -0.000040  -0.016276   0.000054  15.454601   0.000000
    24  N   -0.000281  -0.000000   0.000000   0.000000   0.000000   6.573773
    25  C    0.000018  -0.000000   0.000000  -0.000000   0.000000   0.122341
    26  C    0.000001   0.000000  -0.000000   0.000000   0.000000   0.003807
    27  C   -0.000020   0.000000   0.000000  -0.000000  -0.000000   0.001502
    28  C    0.000000   0.000000  -0.000000   0.000000  -0.000000   0.013352
    29  C   -0.000001   0.000000   0.000000  -0.000000  -0.000000   0.014368
    30  C   -0.000000   0.000000  -0.000000   0.000000   0.000000   0.005244
    31  H   -0.000000   0.000000   0.000000  -0.000000  -0.000000  -0.005592
    32  H   -0.000009  -0.000000   0.000000  -0.000000   0.000000  -0.004291
    33  H   -0.000000  -0.000000   0.000000  -0.000000  -0.000000  -0.000518
    34  H    0.000000  -0.000000   0.000000  -0.000000   0.000000  -0.000539
    35  H    0.000000   0.000000  -0.000000   0.000000   0.000000  -0.000043
    36  C   -0.000020   0.000000   0.000000  -0.000000  -0.000000   0.125420
    37  C   -0.000041   0.000000   0.000000  -0.000000  -0.000000   0.002518
    38  C    0.000112  -0.000000  -0.000000   0.000000   0.000000   0.003389
    39  C   -0.000002  -0.000000  -0.000000   0.000000   0.000000   0.012898
    40  C    0.000030  -0.000000  -0.000000   0.000000   0.000000   0.014158
    41  C   -0.000003   0.000000   0.000000  -0.000000  -0.000000   0.005241
    42  H    0.000000   0.000000   0.000000   0.000000  -0.000000  -0.005356
    43  H   -0.000055   0.000005   0.000000  -0.000000  -0.000000  -0.005674
    44  H    0.000000  -0.000000  -0.000000   0.000000   0.000000  -0.000520
    45  H    0.000000   0.000000  -0.000000   0.000000   0.000000  -0.000517
    46  H   -0.000000   0.000000   0.000000  -0.000000  -0.000000  -0.000043
              25         26         27         28         29         30
     1  C    0.000012  -0.000002   0.000005  -0.000000   0.000000  -0.000000
     2  C   -0.000010   0.000001  -0.000004   0.000000  -0.000000   0.000000
     3  S    0.000010  -0.000000   0.000007  -0.000000   0.000000   0.000000
     4  C   -0.000000   0.000000  -0.000000   0.000000  -0.000000   0.000000
     5  C   -0.006009  -0.000550   0.003327  -0.000039   0.000116   0.000011
     6  C    0.002304   0.000286  -0.001281   0.000011  -0.000119  -0.000004
     7  C    0.000001  -0.000000  -0.000000   0.000000   0.000000  -0.000000
     8  C    0.000000  -0.000000   0.000000  -0.000000   0.000000  -0.000000
     9  H   -0.000000   0.000000  -0.000000  -0.000000  -0.000000   0.000000
    10  C   -0.007421  -0.011522   0.021708  -0.000380   0.001086   0.000069
    11  C   -0.004182   0.000890  -0.007205   0.000041  -0.000641  -0.000014
    12  C    0.034480   0.023232  -0.082613   0.003366  -0.010194  -0.000633
    13  C   -0.060328  -0.014689   0.025584  -0.004802   0.003083   0.001556
    14  H   -0.000648  -0.000247   0.000197   0.000003  -0.000006  -0.000002
    15  H   -0.000170  -0.000028  -0.000016  -0.000002   0.000009   0.000001
    16  H    0.002874  -0.000547  -0.002805   0.000221  -0.001367   0.000319
    17  C   -0.000000   0.000000  -0.000000  -0.000000  -0.000000   0.000000
    18  H    0.000001   0.000003  -0.000010   0.000000  -0.000000   0.000000
    19  H    0.000018   0.000001  -0.000020   0.000000  -0.000001  -0.000000
    20  H   -0.000000   0.000000   0.000000   0.000000   0.000000   0.000000
    21  H    0.000000  -0.000000   0.000000  -0.000000   0.000000  -0.000000
    22  H   -0.000000   0.000000  -0.000000   0.000000  -0.000000   0.000000
    23  S    0.000000   0.000000  -0.000000  -0.000000  -0.000000   0.000000
    24  N    0.122341   0.003807   0.001502   0.013352   0.014368   0.005244
    25  C    5.400483   0.409361   0.402179  -0.028753  -0.030757  -0.068023
    26  C    0.409361   5.142505  -0.065809   0.436267  -0.110827  -0.057411
    27  C    0.402179  -0.065809   5.188307  -0.107413   0.428371  -0.058460
    28  C   -0.028753   0.436267  -0.107413   5.008150  -0.009817   0.491811
    29  C   -0.030757  -0.110827   0.428371  -0.009817   5.010781   0.494720
    30  C   -0.068023  -0.057411  -0.058460   0.491811   0.494720   4.979204
    31  H   -0.020861   0.392546   0.009800  -0.033855  -0.000909   0.006515
    32  H   -0.021929   0.009273   0.389137  -0.000672  -0.026781   0.005964
    33  H    0.013694  -0.036567  -0.001296   0.407405   0.011509  -0.050859
    34  H    0.013295  -0.001198  -0.035891   0.011295   0.406668  -0.050113
    35  H   -0.006186   0.018120   0.018668  -0.053393  -0.053074   0.420821
    36  C   -0.064283   0.030640  -0.010243  -0.002430  -0.006717   0.002615
    37  C    0.028559  -0.069994   0.013083  -0.004879   0.005139  -0.001688
    38  C   -0.007538   0.010820  -0.009369   0.000679  -0.000410   0.000109
    39  C   -0.003334  -0.004007   0.000691  -0.000041   0.000117  -0.000055
    40  C   -0.007017   0.005597  -0.000522   0.000157  -0.000060   0.000029
    41  C    0.002917  -0.002041   0.000158  -0.000075   0.000031  -0.000020
    42  H    0.003403  -0.000654  -0.001871  -0.001402   0.000320   0.000389
    43  H   -0.000888   0.000277  -0.000192  -0.000017   0.000011  -0.000005
    44  H   -0.000191   0.000170  -0.000043   0.000022  -0.000005   0.000002
    45  H   -0.000008  -0.000014   0.000001  -0.000001   0.000000   0.000000
    46  H    0.000022  -0.000022   0.000001  -0.000001   0.000000  -0.000000
              31         32         33         34         35         36
     1  C    0.000000   0.000000   0.000000   0.000000  -0.000000   0.000022
     2  C   -0.000000  -0.000001  -0.000000  -0.000000   0.000000  -0.000012
     3  S    0.000000   0.000009   0.000000  -0.000000  -0.000000  -0.000021
     4  C   -0.000000  -0.000000  -0.000000   0.000000   0.000000  -0.000001
     5  C   -0.000001  -0.000334   0.000000  -0.000001  -0.000000  -0.002178
     6  C    0.000000   0.000943  -0.000000  -0.000001  -0.000000   0.001098
     7  C    0.000000   0.000000   0.000000   0.000000  -0.000000  -0.000000
     8  C    0.000000   0.000000   0.000000   0.000000  -0.000000   0.000000
     9  H   -0.000000   0.000000  -0.000000  -0.000000   0.000000   0.000000
    10  C   -0.000277  -0.000145   0.000002  -0.000025   0.000000   0.023112
    11  C   -0.000018  -0.002462  -0.000002   0.000017  -0.000001  -0.003607
    12  C    0.000471   0.002433  -0.000032   0.000089  -0.000012  -0.011586
    13  C   -0.001140  -0.002738   0.000009  -0.000131   0.000014  -0.046831
    14  H   -0.000006   0.000002  -0.000000  -0.000000   0.000000   0.002337
    15  H   -0.000001  -0.000056  -0.000000  -0.000000   0.000000   0.000050
    16  H    0.000037   0.001145   0.000006  -0.000015   0.000005  -0.001004
    17  C   -0.000000   0.000000  -0.000000  -0.000000   0.000000  -0.000000
    18  H   -0.000000   0.000001  -0.000000   0.000000   0.000000  -0.000085
    19  H   -0.000000  -0.000009  -0.000000   0.000000   0.000000  -0.000020
    20  H    0.000000  -0.000000  -0.000000  -0.000000   0.000000   0.000000
    21  H    0.000000   0.000000   0.000000   0.000000  -0.000000   0.000000
    22  H   -0.000000  -0.000000  -0.000000  -0.000000   0.000000  -0.000000
    23  S   -0.000000   0.000000  -0.000000   0.000000   0.000000  -0.000000
    24  N   -0.005592  -0.004291  -0.000518  -0.000539  -0.000043   0.125420
    25  C   -0.020861  -0.021929   0.013694   0.013295  -0.006186  -0.064283
    26  C    0.392546   0.009273  -0.036567  -0.001198   0.018120   0.030640
    27  C    0.009800   0.389137  -0.001296  -0.035891   0.018668  -0.010243
    28  C   -0.033855  -0.000672   0.407405   0.011295  -0.053393  -0.002430
    29  C   -0.000909  -0.026781   0.011509   0.406668  -0.053074  -0.006717
    30  C    0.006515   0.005964  -0.050859  -0.050113   0.420821   0.002615
    31  H    0.490922  -0.000180  -0.004834   0.000008  -0.000057   0.003003
    32  H   -0.000180   0.481446   0.000007  -0.004651  -0.000057  -0.001308
    33  H   -0.004834   0.000007   0.540962  -0.000155  -0.005999  -0.000189
    34  H    0.000008  -0.004651  -0.000155   0.539643  -0.005928  -0.000003
    35  H   -0.000057  -0.000057  -0.005999  -0.005928   0.540416   0.000022
    36  C    0.003003  -0.001308  -0.000189  -0.000003   0.000022   5.406264
    37  C   -0.000222   0.000612   0.000160  -0.000023  -0.000022   0.398740
    38  C   -0.001777  -0.000303  -0.000039   0.000001   0.000001   0.396025
    39  C   -0.001449   0.000003   0.000020  -0.000001  -0.000001  -0.023534
    40  C    0.000207   0.000008  -0.000005   0.000000   0.000000  -0.018475
    41  C    0.000421  -0.000004   0.000002   0.000000  -0.000000  -0.072668
    42  H    0.000796   0.000036  -0.000026   0.000001   0.000003  -0.020895
    43  H    0.000068  -0.000009   0.000000  -0.000000   0.000000  -0.020033
    44  H   -0.000027   0.000000  -0.000000  -0.000000   0.000000   0.014049
    45  H   -0.000001  -0.000000  -0.000000  -0.000000  -0.000000   0.013493
    46  H    0.000003   0.000000   0.000000  -0.000000  -0.000000  -0.006474
              37         38         39         40         41         42
     1  C    0.000004  -0.000186  -0.000000  -0.000016   0.000000  -0.000000
     2  C   -0.000000   0.000016  -0.000000   0.000001   0.000000   0.000000
     3  S    0.000002  -0.000021  -0.000000  -0.000001   0.000000  -0.000000
     4  C   -0.000000   0.000002   0.000000   0.000000  -0.000000   0.000000
     5  C    0.000814  -0.006896   0.000053  -0.000365  -0.000052   0.000004
     6  C    0.000342  -0.001847   0.000020  -0.000121  -0.000003  -0.000005
     7  C    0.000000   0.000012  -0.000000  -0.000000   0.000000  -0.000000
     8  C    0.000000  -0.000000  -0.000000  -0.000000   0.000000  -0.000000
     9  H   -0.000000   0.000000  -0.000000   0.000000   0.000000   0.000000
    10  C    0.024205  -0.080450   0.003282  -0.010470  -0.000341   0.000480
    11  C   -0.000740   0.003824  -0.000049   0.000118   0.000009   0.000012
    12  C   -0.010861   0.017935  -0.000291   0.001006   0.000055  -0.000351
    13  C   -0.018277   0.028639  -0.004735   0.004123   0.001210  -0.001160
    14  H   -0.000640  -0.002737   0.000231  -0.001326   0.000387   0.000012
    15  H   -0.000001  -0.000002   0.000000  -0.000000  -0.000000   0.000000
    16  H   -0.000211   0.000155   0.000004  -0.000003  -0.000001  -0.000009
    17  C   -0.000000   0.000000   0.000000   0.000000  -0.000000   0.000000
    18  H   -0.000006   0.000265   0.000000   0.000033  -0.000000  -0.000000
    19  H   -0.000041   0.000112  -0.000002   0.000030  -0.000003   0.000000
    20  H    0.000000  -0.000000  -0.000000  -0.000000   0.000000   0.000000
    21  H    0.000000  -0.000000  -0.000000  -0.000000   0.000000   0.000000
    22  H   -0.000000   0.000000   0.000000   0.000000  -0.000000   0.000000
    23  S   -0.000000   0.000000   0.000000   0.000000  -0.000000  -0.000000
    24  N    0.002518   0.003389   0.012898   0.014158   0.005241  -0.005356
    25  C    0.028559  -0.007538  -0.003334  -0.007017   0.002917   0.003403
    26  C   -0.069994   0.010820  -0.004007   0.005597  -0.002041  -0.000654
    27  C    0.013083  -0.009369   0.000691  -0.000522   0.000158  -0.001871
    28  C   -0.004879   0.000679  -0.000041   0.000157  -0.000075  -0.001402
    29  C    0.005139  -0.000410   0.000117  -0.000060   0.000031   0.000320
    30  C   -0.001688   0.000109  -0.000055   0.000029  -0.000020   0.000389
    31  H   -0.000222  -0.001777  -0.001449   0.000207   0.000421   0.000796
    32  H    0.000612  -0.000303   0.000003   0.000008  -0.000004   0.000036
    33  H    0.000160  -0.000039   0.000020  -0.000005   0.000002  -0.000026
    34  H   -0.000023   0.000001  -0.000001   0.000000   0.000000   0.000001
    35  H   -0.000022   0.000001  -0.000001   0.000000  -0.000000   0.000003
    36  C    0.398740   0.396025  -0.023534  -0.018475  -0.072668  -0.020895
    37  C    5.149230  -0.057335   0.432431  -0.118229  -0.053197   0.392424
    38  C   -0.057335   5.193512  -0.112491   0.415049  -0.051739   0.009833
    39  C    0.432431  -0.112491   5.010786  -0.003792   0.488221  -0.033673
    40  C   -0.118229   0.415049  -0.003792   5.026952   0.487633  -0.000957
    41  C   -0.053197  -0.051739   0.488221   0.487633   4.980657   0.006540
    42  H    0.392424   0.009833  -0.033673  -0.000957   0.006540   0.489566
    43  H    0.010033   0.386054  -0.000689  -0.029539   0.005853  -0.000187
    44  H   -0.036842  -0.001570   0.407923   0.011885  -0.051504  -0.004825
    45  H   -0.001321  -0.037322   0.011434   0.407438  -0.049553   0.000007
    46  H    0.018446   0.019270  -0.053956  -0.054450   0.422009  -0.000052
              43         44         45         46
     1  C    0.000088  -0.000000  -0.000000   0.000000
     2  C    0.000012   0.000000  -0.000000  -0.000000
     3  S    0.000001  -0.000000  -0.000000   0.000000
     4  C   -0.000000   0.000000   0.000000  -0.000000
     5  C   -0.002253  -0.000001   0.000021  -0.000001
     6  C    0.000501  -0.000000  -0.000002  -0.000000
     7  C    0.000003  -0.000000   0.000000   0.000000
     8  C    0.000000  -0.000000   0.000000   0.000000
     9  H    0.000000   0.000000  -0.000000  -0.000000
    10  C    0.003224  -0.000034   0.000047  -0.000012
    11  C    0.000081   0.000000  -0.000000  -0.000000
    12  C   -0.000897   0.000002  -0.000026   0.000000
    13  C   -0.001988   0.000015  -0.000113   0.000013
    14  H    0.000998   0.000006  -0.000020   0.000006
    15  H   -0.000000   0.000000   0.000000  -0.000000
    16  H   -0.000034  -0.000000  -0.000000   0.000000
    17  C   -0.000000   0.000000  -0.000000  -0.000000
    18  H    0.000050   0.000000  -0.000000  -0.000000
    19  H   -0.000055   0.000000   0.000000  -0.000000
    20  H    0.000005  -0.000000   0.000000   0.000000
    21  H    0.000000  -0.000000  -0.000000   0.000000
    22  H   -0.000000   0.000000   0.000000  -0.000000
    23  S   -0.000000   0.000000   0.000000  -0.000000
    24  N   -0.005674  -0.000520  -0.000517  -0.000043
    25  C   -0.000888  -0.000191  -0.000008   0.000022
    26  C    0.000277   0.000170  -0.000014  -0.000022
    27  C   -0.000192  -0.000043   0.000001   0.000001
    28  C   -0.000017   0.000022  -0.000001  -0.000001
    29  C    0.000011  -0.000005   0.000000   0.000000
    30  C   -0.000005   0.000002   0.000000  -0.000000
    31  H    0.000068  -0.000027  -0.000001   0.000003
    32  H   -0.000009   0.000000  -0.000000   0.000000
    33  H    0.000000  -0.000000  -0.000000   0.000000
    34  H   -0.000000  -0.000000  -0.000000  -0.000000
    35  H    0.000000   0.000000  -0.000000  -0.000000
    36  C   -0.020033   0.014049   0.013493  -0.006474
    37  C    0.010033  -0.036842  -0.001321   0.018446
    38  C    0.386054  -0.001570  -0.037322   0.019270
    39  C   -0.000689   0.407923   0.011434  -0.053956
    40  C   -0.029539   0.011885   0.407438  -0.054450
    41  C    0.005853  -0.051504  -0.049553   0.422009
    42  H   -0.000187  -0.004825   0.000007  -0.000052
    43  H    0.485425   0.000001  -0.004685  -0.000046
    44  H    0.000001   0.540720  -0.000152  -0.006043
    45  H   -0.004685  -0.000152   0.541242  -0.006039
    46  H   -0.000046  -0.006043  -0.006039   0.540834
 Mulliken charges:
               1
     1  C   -0.001698
     2  C   -0.171918
     3  S    0.049295
     4  C   -0.148803
     5  C   -0.069021
     6  C   -0.247230
     7  C   -0.161135
     8  C   -0.047995
     9  H    0.095050
    10  C   -0.130857
    11  C   -0.049042
    12  C   -0.138866
    13  C   -0.004849
    14  H    0.182097
    15  H    0.145079
    16  H    0.184178
    17  C   -0.139167
    18  H    0.181610
    19  H    0.138709
    20  H    0.122792
    21  H    0.127655
    22  H    0.123351
    23  S   -0.043053
    24  N   -0.050598
    25  C   -0.097417
    26  C   -0.107666
    27  C   -0.117660
    28  C   -0.124806
    29  C   -0.124645
    30  C   -0.122093
    31  H    0.166409
    32  H    0.174912
    33  H    0.126745
    34  H    0.127660
    35  H    0.126702
    36  C   -0.104295
    37  C   -0.102213
    38  C   -0.113671
    39  C   -0.126017
    40  C   -0.129075
    41  C   -0.120145
    42  H    0.167597
    43  H    0.174504
    44  H    0.126963
    45  H    0.126091
    46  H    0.126535
 Sum of Mulliken charges =  -0.00000
 Mulliken charges with hydrogens summed into heavy atoms:
               1
     1  C    0.179912
     2  C   -0.171918
     3  S    0.049295
     4  C   -0.148803
     5  C    0.069688
     6  C   -0.247230
     7  C   -0.038344
     8  C    0.079659
    10  C    0.051241
    11  C    0.096038
    12  C    0.045312
    13  C   -0.004849
    17  C   -0.015816
    23  S    0.051997
    24  N   -0.050598
    25  C   -0.097417
    26  C    0.058744
    27  C    0.057252
    28  C    0.001938
    29  C    0.003015
    30  C    0.004609
    36  C   -0.104295
    37  C    0.065384
    38  C    0.060833
    39  C    0.000946
    40  C   -0.002984
    41  C    0.006391
 Electronic spatial extent (au):  <R**2>=          15341.8237
 Charge=             -0.0000 electrons
 Dipole moment (field-independent basis, Debye):
    X=              2.1331    Y=              1.4022    Z=              1.6303  Tot=              3.0288
 Quadrupole moment (field-independent basis, Debye-Ang):
   XX=           -152.6862   YY=           -162.0628   ZZ=           -170.9814
   XY=             -6.2556   XZ=             -7.5790   YZ=              1.2762
 Traceless Quadrupole moment (field-independent basis, Debye-Ang):
   XX=              9.2240   YY=             -0.1526   ZZ=             -9.0713
   XY=             -6.2556   XZ=             -7.5790   YZ=              1.2762
 Octapole moment (field-independent basis, Debye-Ang**2):
  XXX=           -104.1679  YYY=              5.9808  ZZZ=              4.0965  XYY=             52.9266
  XXY=             16.9469  XXZ=             49.2760  XZZ=              9.3897  YZZ=              7.5170
  YYZ=              7.0272  XYZ=            -21.2430
 Hexadecapole moment (field-independent basis, Debye-Ang**3):
 XXXX=         -14648.5098 YYYY=          -3379.2409 ZZZZ=          -1249.5690 XXXY=            -51.5651
 XXXZ=           -196.5961 YYYX=            -11.5758 YYYZ=             45.5286 ZZZX=              5.5901
 ZZZY=             24.9595 XXYY=          -3232.1364 XXZZ=          -2948.6181 YYZZ=           -802.5435
 XXYZ=            -30.8071 YYXZ=            -37.7982 ZZXY=            -65.1009
 N-N= 2.474684767360D+03 E-N=-9.116914216795D+03  KE= 1.769305071964D+03
 No NMR shielding tensors so no spin-rotation constants.
 Leave Link  601 at Mon Jan 18 14:07:23 2021, MaxMem=  4026531840 cpu:               4.0 elap:               0.7
 (Enter /opt/ohpc/pub/libs/gaussian/g16-A.03/sandybridge/g16/l9999.exe)

 Test job not archived.
 1\1\GINC-CASCADEB058\SP\RLC-wHPBE\TZVP\C24H19N1S2\RDU230\18-Jan-2021\0
 \\#P LC-wHPBE/TZVP iop(3/107=0328100000, 3/108=0328100000) scf=(conver
 =6,fermi,ndamp=35,noincfock,novaracc,vshift=500,xqc)\\H19 C24 S2 N1\\0
 ,1\C,0,-3.352046,1.022081,0.90149\C,0,-4.015603,0.124147,0.077833\S,0,
 -3.193622,-0.833868,-1.176213\C,0,-5.398593,-0.028228,0.207342\C,0,-0.
 749106,0.373785,-1.531691\C,0,-1.475477,-0.56699,-0.815552\C,0,-4.0415
 16,1.761821,1.844012\C,0,-6.080951,0.720801,1.156415\H,0,-7.475944,-0.
 835079,-0.458792\C,0,0.601771,0.54717,-1.299188\C,0,-0.823428,-1.33634
 6,0.139234\C,0,0.521569,-1.15492,0.389409\C,0,1.255724,-0.212476,-0.33
 1046\H,0,1.160253,1.275483,-1.876291\H,0,-1.383265,-2.076857,0.700814\
 H,0,1.015474,-1.752114,1.147605\C,0,-5.411167,1.613701,1.970885\H,0,-2
 .279577,1.141824,0.800598\H,0,-1.248138,0.967582,-2.290346\H,0,-3.5032
 27,2.458074,2.478369\H,0,-7.154267,0.598627,1.263844\H,0,-5.962434,2.1
 89124,2.706912\S,0,-6.238224,-1.192989,-0.835805\N,0,2.627173,-0.03758
 6,-0.087724\C,0,3.438312,-1.140752,0.276409\C,0,4.374889,-1.012928,1.2
 95896\C,0,3.317625,-2.35655,-0.387733\C,0,5.1794,-2.084309,1.64001\C,0
 ,4.112866,-3.428755,-0.025756\C,0,5.049979,-3.298472,0.986151\H,0,4.47
 0709,-0.064848,1.814448\H,0,2.593785,-2.456724,-1.189607\H,0,5.90745,-
 1.970366,2.436839\H,0,4.006805,-4.37257,-0.551042\H,0,5.67733,-4.13910
 6,1.26285\C,0,3.224517,1.239724,-0.221989\C,0,4.446224,1.376745,-0.871
 25\C,0,2.604731,2.367846,0.304633\C,0,5.03746,2.622109,-0.986244\C,0,3
 .193018,3.612223,0.169883\C,0,4.413292,3.746533,-0.472133\H,0,4.931907
 ,0.498005,-1.282066\H,0,1.656156,2.262505,0.820378\H,0,5.992055,2.7142
 7,-1.494403\H,0,2.697309,4.484427,0.584059\H,0,4.876004,4.72281,-0.569
 917\\Version=EM64L-G16RevA.03\State=1-A\HF=-1776.3969015\RMSD=9.382e-0
 7\Dipole=0.8392116,0.5516635,0.6413963\Quadrupole=6.8577865,-0.1134909
 ,-6.7442955,-4.6509212,-5.6348339,0.9487994\PG=C01 [X(C24H19N1S2)]\\@


 IF AT FIRST YOU DON'T SUCCEED, TRY, TRY AGAIN.
 THEN GIVE UP;
 THERE'S NO USE BEING A DAMN FOOL ABOUT IT.

                                 -- W. C. FIELDS
 Job cpu time:       0 days  1 hours 16 minutes 37.1 seconds.
 Elapsed time:       0 days  0 hours  9 minutes 36.8 seconds.
 File lengths (MBytes):  RWF=    172 Int=      0 D2E=      0 Chk=     28 Scr=      8
 Normal termination of Gaussian 16 at Mon Jan 18 14:07:24 2021.
