 Entering Gaussian System, Link 0=g16
 Input=mol_ta_pa_half_tune_n12.gjf
 Output=mol_ta_pa_half_tune_n12.log
 Initial command:
 /opt/ohpc/pub/libs/gaussian/g16-A.03/sandybridge/g16/l1.exe "/mnt/gpfs2_4m/scratch/rdu230/ondemand/projects/init_structures/wtuning/mol_ta_pa_half/tuning_mol_ta_pa_half_ocycle0/Gau-96707.inp" -scrdir="/mnt/gpfs2_4m/scratch/rdu230/ondemand/projects/init_structures/wtuning/mol_ta_pa_half/tuning_mol_ta_pa_half_ocycle0/"
 Entering Link 1 = /opt/ohpc/pub/libs/gaussian/g16-A.03/sandybridge/g16/l1.exe PID=     96708.
  
 Copyright (c) 1988,1990,1992,1993,1995,1998,2003,2009,2016,
            Gaussian, Inc.  All Rights Reserved.
  
 This is part of the Gaussian(R) 16 program.  It is based on
 the Gaussian(R) 09 system (copyright 2009, Gaussian, Inc.),
 the Gaussian(R) 03 system (copyright 2003, Gaussian, Inc.),
 the Gaussian(R) 98 system (copyright 1998, Gaussian, Inc.),
 the Gaussian(R) 94 system (copyright 1995, Gaussian, Inc.),
 the Gaussian 92(TM) system (copyright 1992, Gaussian, Inc.),
 the Gaussian 90(TM) system (copyright 1990, Gaussian, Inc.),
 the Gaussian 88(TM) system (copyright 1988, Gaussian, Inc.),
 the Gaussian 86(TM) system (copyright 1986, Carnegie Mellon
 University), and the Gaussian 82(TM) system (copyright 1983,
 Carnegie Mellon University). Gaussian is a federally registered
 trademark of Gaussian, Inc.
  
 This software contains proprietary and confidential information,
 including trade secrets, belonging to Gaussian, Inc.
  
 This software is provided under written license and may be
 used, copied, transmitted, or stored only in accord with that
 written license.
  
 The following legend is applicable only to US Government
 contracts under FAR:
  
                    RESTRICTED RIGHTS LEGEND
  
 Use, reproduction and disclosure by the US Government is
 subject to restrictions as set forth in subparagraphs (a)
 and (c) of the Commercial Computer Software - Restricted
 Rights clause in FAR 52.227-19.
  
 Gaussian, Inc.
 340 Quinnipiac St., Bldg. 40, Wallingford CT 06492
  
  
 ---------------------------------------------------------------
 Warning -- This program may not be used in any manner that
 competes with the business of Gaussian, Inc. or will provide
 assistance to any competitor of Gaussian, Inc.  The licensee
 of this program is prohibited from giving any competitor of
 Gaussian, Inc. access to this program.  By using this program,
 the user acknowledges that Gaussian, Inc. is engaged in the
 business of creating and licensing software in the field of
 computational chemistry and represents and warrants to the
 licensee that it is not a competitor of Gaussian, Inc. and that
 it will not use this program in any manner prohibited above.
 ---------------------------------------------------------------
  

 Cite this work as:
 Gaussian 16, Revision A.03,
 M. J. Frisch, G. W. Trucks, H. B. Schlegel, G. E. Scuseria, 
 M. A. Robb, J. R. Cheeseman, G. Scalmani, V. Barone, 
 G. A. Petersson, H. Nakatsuji, X. Li, M. Caricato, A. V. Marenich, 
 J. Bloino, B. G. Janesko, R. Gomperts, B. Mennucci, H. P. Hratchian, 
 J. V. Ortiz, A. F. Izmaylov, J. L. Sonnenberg, D. Williams-Young, 
 F. Ding, F. Lipparini, F. Egidi, J. Goings, B. Peng, A. Petrone, 
 T. Henderson, D. Ranasinghe, V. G. Zakrzewski, J. Gao, N. Rega, 
 G. Zheng, W. Liang, M. Hada, M. Ehara, K. Toyota, R. Fukuda, 
 J. Hasegawa, M. Ishida, T. Nakajima, Y. Honda, O. Kitao, H. Nakai, 
 T. Vreven, K. Throssell, J. A. Montgomery, Jr., J. E. Peralta, 
 F. Ogliaro, M. J. Bearpark, J. J. Heyd, E. N. Brothers, K. N. Kudin, 
 V. N. Staroverov, T. A. Keith, R. Kobayashi, J. Normand, 
 K. Raghavachari, A. P. Rendell, J. C. Burant, S. S. Iyengar, 
 J. Tomasi, M. Cossi, J. M. Millam, M. Klene, C. Adamo, R. Cammi, 
 J. W. Ochterski, R. L. Martin, K. Morokuma, O. Farkas, 
 J. B. Foresman, and D. J. Fox, Gaussian, Inc., Wallingford CT, 2016.
 
 ******************************************
 Gaussian 16:  EM64L-G16RevA.03 25-Dec-2016
                19-Jan-2021 
 ******************************************
 %mem=30GB
 %nproc=8
 Will use up to    8 processors via shared memory.
 ----------------------------------------------------------------------
 #P LC-wHPBE/TZVP iop(3/107=0180600000, 3/108=0180600000) scf=(conver=6
 ,fermi,ndamp=35,noincfock,novaracc,vshift=500,xqc)
 ----------------------------------------------------------------------
 1/38=1,172=1/1;
 2/12=2,17=6,18=5,40=1/2;
 3/5=19,7=101,11=2,25=1,30=1,74=-71,107=180600000,108=180600000/1,2,3;
 4//1;
 5/5=100002,6=6,8=3,10=500,13=1,18=-1,22=13,38=1,93=35/2,8;
 6/7=2,8=2,9=2,10=2,28=1/1;
 99/5=1,9=1/99;
 Leave Link    1 at Tue Jan 19 15:19:08 2021, MaxMem=  4026531840 cpu:               1.2 elap:               0.2
 (Enter /opt/ohpc/pub/libs/gaussian/g16-A.03/sandybridge/g16/l101.exe)
 -------------
 H19 C24 S2 N1
 -------------
 Symbolic Z-matrix:
 Charge =  0 Multiplicity = 1
 C                    -3.35205   1.02208   0.90149 
 C                    -4.0156    0.12415   0.07783 
 S                    -3.19362  -0.83387  -1.17621 
 C                    -5.39859  -0.02823   0.20734 
 C                    -0.74911   0.37379  -1.53169 
 C                    -1.47548  -0.56699  -0.81555 
 C                    -4.04152   1.76182   1.84401 
 C                    -6.08095   0.7208    1.15641 
 H                    -7.47594  -0.83508  -0.45879 
 C                     0.60177   0.54717  -1.29919 
 C                    -0.82343  -1.33635   0.13923 
 C                     0.52157  -1.15492   0.38941 
 C                     1.25572  -0.21248  -0.33105 
 H                     1.16025   1.27548  -1.87629 
 H                    -1.38327  -2.07686   0.70081 
 H                     1.01547  -1.75211   1.1476 
 C                    -5.41117   1.6137    1.97089 
 H                    -2.27958   1.14182   0.8006 
 H                    -1.24814   0.96758  -2.29035 
 H                    -3.50323   2.45807   2.47837 
 H                    -7.15427   0.59863   1.26384 
 H                    -5.96243   2.18912   2.70691 
 S                    -6.23822  -1.19299  -0.83581 
 N                     2.62717  -0.03759  -0.08772 
 C                     3.43831  -1.14075   0.27641 
 C                     4.37489  -1.01293   1.2959 
 C                     3.31763  -2.35655  -0.38773 
 C                     5.1794   -2.08431   1.64001 
 C                     4.11287  -3.42876  -0.02576 
 C                     5.04998  -3.29847   0.98615 
 H                     4.47071  -0.06485   1.81445 
 H                     2.59379  -2.45672  -1.18961 
 H                     5.90745  -1.97037   2.43684 
 H                     4.0068   -4.37257  -0.55104 
 H                     5.67733  -4.13911   1.26285 
 C                     3.22452   1.23972  -0.22199 
 C                     4.44622   1.37675  -0.87125 
 C                     2.60473   2.36785   0.30463 
 C                     5.03746   2.62211  -0.98624 
 C                     3.19302   3.61222   0.16988 
 C                     4.41329   3.74653  -0.47213 
 H                     4.93191   0.49801  -1.28207 
 H                     1.65616   2.2625    0.82038 
 H                     5.99206   2.71427  -1.4944 
 H                     2.69731   4.48443   0.58406 
 H                     4.876     4.72281  -0.56992 
 
 ITRead=  0  0  0  0  0  0  0  0  0  0  0  0  0  0  0  0  0  0  0  0
 ITRead=  0  0  0  0  0  0  0  0  0  0  0  0  0  0  0  0  0  0  0  0
 ITRead=  0  0  0  0  0  0
 MicOpt= -1 -1 -1 -1 -1 -1 -1 -1 -1 -1 -1 -1 -1 -1 -1 -1 -1 -1 -1 -1
 MicOpt= -1 -1 -1 -1 -1 -1 -1 -1 -1 -1 -1 -1 -1 -1 -1 -1 -1 -1 -1 -1
 MicOpt= -1 -1 -1 -1 -1 -1
 NAtoms=     46 NQM=       46 NQMF=       0 NMMI=      0 NMMIF=      0
                NMic=       0 NMicF=      0.
                    Isotopes and Nuclear Properties:
 (Nuclear quadrupole moments (NQMom) in fm**2, nuclear magnetic moments (NMagM)
  in nuclear magnetons)

  Atom         1           2           3           4           5           6           7           8           9          10
 IAtWgt=          12          12          32          12          12          12          12          12           1          12
 AtmWgt=  12.0000000  12.0000000  31.9720718  12.0000000  12.0000000  12.0000000  12.0000000  12.0000000   1.0078250  12.0000000
 NucSpn=           0           0           0           0           0           0           0           0           1           0
 AtZEff=  -0.0000000  -0.0000000  -0.0000000  -0.0000000  -0.0000000  -0.0000000  -0.0000000  -0.0000000  -0.0000000  -0.0000000
 NQMom=    0.0000000   0.0000000   0.0000000   0.0000000   0.0000000   0.0000000   0.0000000   0.0000000   0.0000000   0.0000000
 NMagM=    0.0000000   0.0000000   0.0000000   0.0000000   0.0000000   0.0000000   0.0000000   0.0000000   2.7928460   0.0000000
 AtZNuc=   6.0000000   6.0000000  16.0000000   6.0000000   6.0000000   6.0000000   6.0000000   6.0000000   1.0000000   6.0000000

  Atom        11          12          13          14          15          16          17          18          19          20
 IAtWgt=          12          12          12           1           1           1          12           1           1           1
 AtmWgt=  12.0000000  12.0000000  12.0000000   1.0078250   1.0078250   1.0078250  12.0000000   1.0078250   1.0078250   1.0078250
 NucSpn=           0           0           0           1           1           1           0           1           1           1
 AtZEff=  -0.0000000  -0.0000000  -0.0000000  -0.0000000  -0.0000000  -0.0000000  -0.0000000  -0.0000000  -0.0000000  -0.0000000
 NQMom=    0.0000000   0.0000000   0.0000000   0.0000000   0.0000000   0.0000000   0.0000000   0.0000000   0.0000000   0.0000000
 NMagM=    0.0000000   0.0000000   0.0000000   2.7928460   2.7928460   2.7928460   0.0000000   2.7928460   2.7928460   2.7928460
 AtZNuc=   6.0000000   6.0000000   6.0000000   1.0000000   1.0000000   1.0000000   6.0000000   1.0000000   1.0000000   1.0000000

  Atom        21          22          23          24          25          26          27          28          29          30
 IAtWgt=           1           1          32          14          12          12          12          12          12          12
 AtmWgt=   1.0078250   1.0078250  31.9720718  14.0030740  12.0000000  12.0000000  12.0000000  12.0000000  12.0000000  12.0000000
 NucSpn=           1           1           0           2           0           0           0           0           0           0
 AtZEff=  -0.0000000  -0.0000000  -0.0000000  -0.0000000  -0.0000000  -0.0000000  -0.0000000  -0.0000000  -0.0000000  -0.0000000
 NQMom=    0.0000000   0.0000000   0.0000000   2.0440000   0.0000000   0.0000000   0.0000000   0.0000000   0.0000000   0.0000000
 NMagM=    2.7928460   2.7928460   0.0000000   0.4037610   0.0000000   0.0000000   0.0000000   0.0000000   0.0000000   0.0000000
 AtZNuc=   1.0000000   1.0000000  16.0000000   7.0000000   6.0000000   6.0000000   6.0000000   6.0000000   6.0000000   6.0000000

  Atom        31          32          33          34          35          36          37          38          39          40
 IAtWgt=           1           1           1           1           1          12          12          12          12          12
 AtmWgt=   1.0078250   1.0078250   1.0078250   1.0078250   1.0078250  12.0000000  12.0000000  12.0000000  12.0000000  12.0000000
 NucSpn=           1           1           1           1           1           0           0           0           0           0
 AtZEff=  -0.0000000  -0.0000000  -0.0000000  -0.0000000  -0.0000000  -0.0000000  -0.0000000  -0.0000000  -0.0000000  -0.0000000
 NQMom=    0.0000000   0.0000000   0.0000000   0.0000000   0.0000000   0.0000000   0.0000000   0.0000000   0.0000000   0.0000000
 NMagM=    2.7928460   2.7928460   2.7928460   2.7928460   2.7928460   0.0000000   0.0000000   0.0000000   0.0000000   0.0000000
 AtZNuc=   1.0000000   1.0000000   1.0000000   1.0000000   1.0000000   6.0000000   6.0000000   6.0000000   6.0000000   6.0000000

  Atom        41          42          43          44          45          46
 IAtWgt=          12           1           1           1           1           1
 AtmWgt=  12.0000000   1.0078250   1.0078250   1.0078250   1.0078250   1.0078250
 NucSpn=           0           1           1           1           1           1
 AtZEff=  -0.0000000  -0.0000000  -0.0000000  -0.0000000  -0.0000000  -0.0000000
 NQMom=    0.0000000   0.0000000   0.0000000   0.0000000   0.0000000   0.0000000
 NMagM=    0.0000000   2.7928460   2.7928460   2.7928460   2.7928460   2.7928460
 AtZNuc=   6.0000000   1.0000000   1.0000000   1.0000000   1.0000000   1.0000000
 Leave Link  101 at Tue Jan 19 15:19:08 2021, MaxMem=  4026531840 cpu:               0.6 elap:               0.1
 (Enter /opt/ohpc/pub/libs/gaussian/g16-A.03/sandybridge/g16/l202.exe)
                          Input orientation:                          
 ---------------------------------------------------------------------
 Center     Atomic      Atomic             Coordinates (Angstroms)
 Number     Number       Type             X           Y           Z
 ---------------------------------------------------------------------
      1          6           0       -3.352046    1.022081    0.901490
      2          6           0       -4.015603    0.124147    0.077833
      3         16           0       -3.193622   -0.833868   -1.176213
      4          6           0       -5.398593   -0.028228    0.207342
      5          6           0       -0.749106    0.373785   -1.531691
      6          6           0       -1.475477   -0.566990   -0.815552
      7          6           0       -4.041516    1.761821    1.844012
      8          6           0       -6.080951    0.720801    1.156415
      9          1           0       -7.475944   -0.835079   -0.458792
     10          6           0        0.601771    0.547170   -1.299188
     11          6           0       -0.823428   -1.336346    0.139234
     12          6           0        0.521569   -1.154920    0.389409
     13          6           0        1.255724   -0.212476   -0.331046
     14          1           0        1.160253    1.275483   -1.876291
     15          1           0       -1.383265   -2.076857    0.700814
     16          1           0        1.015474   -1.752114    1.147605
     17          6           0       -5.411167    1.613701    1.970885
     18          1           0       -2.279577    1.141824    0.800598
     19          1           0       -1.248138    0.967582   -2.290346
     20          1           0       -3.503227    2.458074    2.478369
     21          1           0       -7.154267    0.598627    1.263844
     22          1           0       -5.962434    2.189124    2.706912
     23         16           0       -6.238224   -1.192989   -0.835805
     24          7           0        2.627173   -0.037586   -0.087724
     25          6           0        3.438312   -1.140752    0.276409
     26          6           0        4.374889   -1.012928    1.295896
     27          6           0        3.317625   -2.356550   -0.387733
     28          6           0        5.179400   -2.084309    1.640010
     29          6           0        4.112866   -3.428755   -0.025756
     30          6           0        5.049979   -3.298472    0.986151
     31          1           0        4.470709   -0.064848    1.814448
     32          1           0        2.593785   -2.456724   -1.189607
     33          1           0        5.907450   -1.970366    2.436839
     34          1           0        4.006805   -4.372570   -0.551042
     35          1           0        5.677330   -4.139106    1.262850
     36          6           0        3.224517    1.239724   -0.221989
     37          6           0        4.446224    1.376745   -0.871250
     38          6           0        2.604731    2.367846    0.304633
     39          6           0        5.037460    2.622109   -0.986244
     40          6           0        3.193018    3.612223    0.169883
     41          6           0        4.413292    3.746533   -0.472133
     42          1           0        4.931907    0.498005   -1.282066
     43          1           0        1.656156    2.262505    0.820378
     44          1           0        5.992055    2.714270   -1.494403
     45          1           0        2.697309    4.484427    0.584059
     46          1           0        4.876004    4.722810   -0.569917
 ---------------------------------------------------------------------
                    Distance matrix (angstroms):
                    1          2          3          4          5
     1  C    0.000000
     2  C    1.387445   0.000000
     3  S    2.790429   1.779347   0.000000
     4  C    2.402779   1.397373   2.724918   0.000000
     5  C    3.621596   3.650053   2.749627   4.980319   0.000000
     6  C    2.999148   2.779937   1.775760   4.089916   1.387634
     7  C    1.382365   2.408742   4.071644   2.779320   4.915484
     8  C    2.757296   2.405202   4.024279   1.388307   5.981213
     9  H    4.722917   3.630708   4.342001   2.325969   6.918296
    10  C    4.549856   4.836867   4.040717   6.213299   1.381662
    11  C    3.540780   3.510953   2.756938   4.758986   2.392083
    12  C    4.472857   4.724301   4.044365   6.029171   2.764449
    13  C    4.926948   5.297866   4.571336   6.678603   2.409272
    14  H    5.304821   5.650988   4.888323   7.004259   2.139500
    15  H    3.676926   3.487367   2.888883   4.534672   3.375186
    16  H    5.179958   5.475080   4.894874   6.707916   3.848612
    17  C    2.394494   2.783885   4.562053   2.409600   5.961564
    18  H    1.083839   2.138187   2.940513   3.383672   2.893406
    19  H    3.823247   3.738785   2.876008   4.945337   1.084982
    20  H    2.138102   3.387081   4.928357   3.864152   5.292450
    21  H    3.842850   3.388652   4.867507   2.142787   6.992257
    22  H    3.381666   3.868635   5.646544   3.388571   6.959885
    23  S    4.031718   2.740370   3.084550   1.774769   5.750605
    24  N    6.152438   6.646807   5.974992   8.031194   3.695068
    25  C    7.153848   7.563085   6.796090   8.906928   4.805988
    26  C    8.000146   8.554354   7.964028   9.883093   6.014445
    27  C    7.586946   7.755440   6.733246   9.041441   5.030077
    28  C    9.109371   9.584662   8.922007  10.870784   7.158847
    29  C    8.740403   8.871632   7.838479  10.103750   6.353418
    30  C    9.448194   9.732633   8.871699  10.976051   7.311251
    31  H    7.950497   8.664239   8.263015   9.999363   6.215747
    32  H    7.199144   7.207726   6.010651   8.469189   4.393600
    33  H    9.851411  10.412438   9.857752  11.686281   8.096543
    34  H    9.239307   9.218187   8.047323  10.387972   6.790305
    35  H   10.406636  10.655165   9.775859  11.861260   8.335150
    36  C    6.675384   7.331694   6.811963   8.726400   4.272569
    37  C    8.005086   8.606525   7.959087  10.002886   5.332313
    38  C    6.136001   6.993886   6.787104   8.354869   4.312376
    39  C    8.746853   9.451456   8.929198  10.833288   6.231919
    40  C    7.076860   8.008706   7.897396   9.331134   5.378027
    41  C    8.343258   9.190779   8.907353  10.534875   6.256872
    42  H    8.582916   9.057982   8.234641  10.450574   5.687851
    43  H    5.160166   6.106783   6.090505   7.442631   3.858079
    44  H    9.793673  10.456284   9.852268  11.839092   7.136001
    45  H    6.977342   8.020692   8.129323   9.276292   5.766416
    46  H    9.141184  10.031349   9.816472  11.346534   7.175018
                    6          7          8          9         10
     6  C    0.000000
     7  C    4.368203   0.000000
     8  C    5.172760   2.390775   0.000000
     9  H    6.017039   4.882836   2.641148   0.000000
    10  C    2.406287   5.737177   7.121721   8.238104   0.000000
    11  C    1.388774   4.781318   5.736555   6.698125   2.765481
    12  C    2.405366   5.607583   6.906511   8.048724   2.398938
    13  C    2.796406   6.057184   7.543895   8.754769   1.393562
    14  H    3.386288   6.413703   7.870198   9.002648   1.084154
    15  H    2.141861   4.807146   5.486594   6.325143   3.850441
    16  H    3.385756   6.197247   7.514961   8.690549   3.382995
    17  C    5.292381   1.383467   1.381753   4.020343   6.927214
    18  H    2.485672   2.139518   3.841134   5.700565   3.614537
    19  H    2.140470   5.052395   5.941140   6.737191   2.140398
    20  H    4.910468   1.084865   3.377920   5.937529   5.896821
    21  H    6.158832   3.373253   1.085576   2.264170   8.168715
    22  H    6.335353   2.148746   2.138705   4.632299   7.863437
    23  S    4.803753   4.553883   2.766996   1.342456   7.073076
    24  N    4.200207   7.172230   8.829182  10.141334   2.431427
    25  C    5.066251   8.174970   9.739413  10.943260   3.657534
    26  C    6.235692   8.878938  10.599522  11.981352   4.837849
    27  C    5.134139   8.723452  10.009381  10.900507   4.078995
    28  C    7.253925   9.992979  11.614560  12.888882   6.043033
    29  C    6.327958   9.845408  11.069338  11.883400   5.455034
    30  C    7.299911  10.440200  11.835588  12.847370   6.308589
    31  H    6.521210   8.706065  10.601310  12.185376   5.003796
    32  H    4.502211   8.427703   9.531607  10.225618   3.606038
    33  H    8.188719  10.642490  12.353284  13.740043   6.960324
    34  H    6.678909  10.399159  11.428940  12.015651   6.029745
    35  H    8.260897  11.384843  12.723490  13.670745   7.367939
    36  C    5.070155   7.572066   9.421306  10.902328   2.918696
    37  C    6.232796   8.919790  10.740722  12.132616   3.956153
    38  C    5.149386   6.849055   8.881405  10.604789   3.146260
    39  C    7.253815   9.548730  11.481508  12.992907   4.906999
    40  C    6.342850   7.652789   9.764224  11.575858   4.274024
    41  C    7.307668   8.988180  11.042480  12.741479   5.044565
    42  H    6.512021   9.586027  11.281794  12.506385   4.330449
    43  H    4.526526   5.810506   7.896366   9.727618   2.923467
    44  H    8.184836  10.617190  12.520313  13.966294   5.812882
    45  H    6.699841   7.376437   9.568193  11.527348   4.841476
    46  H    8.269440   9.701375  11.791996  13.545224   6.019707
                   11         12         13         14         15
    11  C    0.000000
    12  C    1.380043   0.000000
    13  C    2.409797   1.395077   0.000000
    14  H    3.849543   3.383515   2.147305   0.000000
    15  H    1.084964   2.139003   3.391890   4.934485   0.000000
    16  H    2.138045   1.084179   2.148165   4.281501   2.461509
    17  C    5.753701   6.735257   7.285688   7.622251   5.608680
    18  H    2.949423   3.645618   3.951342   4.360737   3.342640
    19  H    3.375103   3.849411   3.391271   2.463045   4.270118
    20  H    5.201009   5.797971   6.137774   6.489193   5.312207
    21  H    6.714789   7.921996   8.598227   8.913463   6.385897
    22  H    6.740274   7.654786   8.191378   8.518988   6.572048
    23  S    5.503750   6.870036   7.574658   7.868509   5.168467
    24  N    3.693905   2.430979   1.403804   2.659883   4.567716
    25  C    4.268431   2.918965   2.448344   3.957507   4.929910
    26  C    5.335257   3.961055   3.607888   5.062952   5.885780
    27  C    4.297305   3.140986   2.975181   4.479031   4.833377
    28  C    6.232634   4.911533   4.773264   6.309209   6.629534
    29  C    5.363991   4.270843   4.312878   5.854251   5.706399
    30  C    6.250129   5.045534   5.065052   6.651662   6.554418
    31  H    5.696572   4.337591   3.867954   5.135870   6.289465
    32  H    3.833851   2.912398   2.750306   4.056589   4.419832
    33  H    7.140426   5.819333   5.691214   7.188498   7.495308
    34  H    5.746850   4.835762   4.992317   6.462170   5.990851
    35  H    7.167833   6.020809   6.124502   7.718547   7.377043
    36  C    4.811702   3.662520   2.448862   2.645596   5.751776
    37  C    6.012585   4.837510   3.605098   3.437727   6.955695
    38  C    5.049819   4.093486   2.980263   2.834820   5.984685
    39  C    7.161430   6.045795   4.771340   4.199800   8.133398
    40  C    6.373469   5.469048   4.316522   3.712050   7.320511
    41  C    7.323433   6.317595   5.065954   4.319723   8.299864
    42  H    6.205547   4.997707   3.863100   3.896530   7.102332
    43  H    4.423124   3.626543   2.758923   2.914130   5.299287
    44  H    8.094879   6.960287   5.687888   5.055913   9.064724
    45  H    6.817247   6.047642   4.997648   4.325874   7.727559
    46  H    8.348640   7.377609   6.125401   5.234260   9.328916
                   16         17         18         19         20
    16  H    0.000000
    17  C    7.301248   0.000000
    18  H    4.399165   3.376255   0.000000
    19  H    4.933578   5.992192   3.263152   0.000000
    20  H    6.317854   2.147264   2.458607   5.481572   0.000000
    21  H    8.502009   2.137447   4.926689   6.902953   4.273489
    22  H    8.164312   1.084778   4.277184   6.977775   2.484404
    23  S    7.540734   4.054509   4.878530   5.628918   5.638636
    24  N    2.657671   8.460469   5.124092   4.569457   7.098941
    25  C    2.646297   9.421865   6.178930   5.744225   8.123124
    26  C    3.442972  10.154885   7.012146   6.957153   8.689696
    27  C    2.832403   9.875109   6.706670   5.959529   8.827183
    28  C    4.206078  11.222516   8.169999   8.128652   9.834841
    29  C    3.712376  10.959934   7.901669   7.293594   9.946370
    30  C    4.323716  11.598910   8.571642   8.282568  10.417383
    31  H    3.902588  10.024643   6.931833   7.114805   8.389850
    32  H    2.906906   9.520311   6.376529   5.262877   8.647707
    33  H    5.063713  11.881656   8.910130   9.065333  10.400656
    34  H    4.324379  11.440881   8.470777   7.691348  10.594131
    35  H    5.238694  12.512029   9.561081   9.309435  11.370264
    36  C    3.963175   8.917600   5.599136   4.935261   7.351112
    37  C    5.063159  10.261678   6.934455   5.882772   8.693848
    38  C    4.495599   8.221907   5.060195   4.851727   6.483858
    39  C    6.313756  10.905746   7.676137   6.629245   9.218123
    40  C    5.871435   9.014971   6.037381   5.724572   7.176410
    41  C    6.663620  10.345883   7.293754   6.563555   8.546161
    42  H    5.128819  10.899800   7.533757   6.279338   9.441092
    43  H    4.078568   7.189692   4.092226   4.448410   5.422768
    44  H    7.189934  11.968832   8.726942   7.490316  10.296064
    45  H    6.483872   8.712734   5.999106   6.016391   6.792729
    46  H    7.731637  11.043012   8.118135   7.386930   9.199597
                   21         22         23         24         25
    21  H    0.000000
    22  H    2.456134   0.000000
    23  S    2.908186   4.905669   0.000000
    24  N    9.894851   9.303202   8.971613   0.000000
    25  C   10.779759  10.264962   9.740385   1.416868   0.000000
    26  C   11.641288  10.913494  10.826576   2.433148   1.390277
    27  C   11.005512  10.787005   9.636851   2.438098   1.390617
    28  C   12.627707  11.980859  11.716921   3.699730   2.404391
    29  C   12.034582  11.854944  10.620729   3.702857   2.404430
    30  C   12.814371  12.423686  11.626526   4.201973   2.785132
    31  H   11.656905  10.711086  11.089535   2.649080   2.142190
    32  H   10.506146  10.486927   8.928974   2.658475   2.143411
    33  H   13.363536  12.580479  12.602853   4.568290   3.384134
    34  H   12.352171  12.371573  10.730864   4.572760   3.384155
    35  H   13.678304  13.327262  12.452485   5.286774   3.869935
    36  C   10.504183   9.689164   9.789705   1.416463   2.441470
    37  C   11.820977  11.036456  10.989186   2.433761   2.944622
    38  C    9.964350   8.899393   9.600937   2.437325   3.606371
    39  C   12.561671  11.611397  11.904564   3.700108   4.279099
    40  C   10.832581   9.606458  10.632488   3.702384   4.760492
    41  C   12.113272  10.963008  11.746741   4.202089   5.039490
    42  H   12.351817  11.724269  11.306212   2.650492   2.710202
    43  H    8.977121   7.849032   8.775227   2.656679   3.879967
    44  H   13.598149  12.682138  12.856133   4.568795   4.951623
    45  H   10.612026   9.206849  10.681424   4.572178   5.682110
    46  H   12.849085  11.602970  12.593389   5.286882   6.096276
                   26         27         28         29         30
    26  C    0.000000
    27  C    2.399528   0.000000
    28  C    1.383297   2.766236   0.000000
    29  C    2.766160   1.383134   2.391612   0.000000
    30  C    2.403206   2.403295   1.385090   1.385320   0.000000
    31  H    1.084866   3.380991   2.147299   3.851009   3.387913
    32  H    3.381509   1.084888   3.851082   2.146392   3.387529
    33  H    2.137097   3.851563   1.085346   3.378136   2.145604
    34  H    3.851475   2.136814   3.378139   1.085339   2.145894
    35  H    3.386803   3.386759   2.147644   2.147708   1.084803
    36  C    2.949877   3.601295   4.282266   4.756298   5.038565
    37  C    3.226786   3.930015   4.338533   4.890687   5.066765
    38  C    3.942803   4.827785   5.313552   5.998684   6.208934
    39  C    4.342886   5.301235   5.391449   6.195996   6.240495
    40  C    4.904768   5.996058   6.209466   7.103504   7.202243
    41  C    5.077388   6.201228   6.248743   7.195434   7.222469
    42  H    3.039585   3.399150   3.907445   4.203402   4.424024
    43  H    4.283233   5.055263   5.655072   6.256341   6.516900
    44  H    4.928793   5.838708   5.788896   6.589767   6.572193
    45  H    5.791537   6.937445   7.100993   8.061893   8.140654
    46  H    6.052360   7.251143   7.163288   8.205273   8.172673
                   31         32         33         34         35
    31  H    0.000000
    32  H    4.274139   0.000000
    33  H    2.466292   4.936399   0.000000
    34  H    4.936316   2.464722   4.279073   0.000000
    35  H    4.284831   4.284064   2.476820   2.476967   0.000000
    36  C    2.720658   3.872704   4.957033   5.676099   6.095314
    37  C    3.048239   4.269469   4.927655   5.774967   6.041077
    38  C    3.417516   5.050678   5.854429   6.937665   7.259440
    39  C    3.922349   5.639809   5.793549   7.083586   7.154152
    40  C    4.225866   6.248153   6.608520   8.058468   8.212763
    41  C    4.445039   6.504289   6.586164   8.129655   8.172592
    42  H    3.180866   3.769056   4.568894   5.011258   5.341821
    43  H    3.785030   5.214433   6.213183   7.171511   7.572730
    44  H    4.581101   6.195185   6.116178   7.419869   7.393934
    45  H    5.035346   7.164927   7.443262   9.024945   9.149131
    46  H    5.363873   7.558985   7.409660   9.136838   9.084862
                   36         37         38         39         40
    36  C    0.000000
    37  C    1.390281   0.000000
    38  C    1.390728   2.399183   0.000000
    39  C    2.404545   1.383371   2.765716   0.000000
    40  C    2.404851   2.766197   1.383009   2.391427   0.000000
    41  C    2.785651   2.403388   2.403130   1.385000   1.385385
    42  H    2.142216   1.084823   3.380779   2.147200   3.851006
    43  H    2.142981   3.380925   1.084843   3.850508   2.146352
    44  H    3.384168   2.137027   3.851039   1.085344   3.377984
    45  H    3.384636   3.851534   2.136952   3.377926   1.085361
    46  H    3.870446   3.386984   3.386646   2.147636   2.147824
                   41         42         43         44         45
    41  C    0.000000
    42  H    3.387903   0.000000
    43  H    3.387436   4.273672   0.000000
    44  H    2.145483   2.465934   4.935820   0.000000
    45  H    2.145839   4.936336   2.465113   4.278880   0.000000
    46  H    1.084795   4.284771   4.284092   2.476788   2.476933
                   46
    46  H    0.000000
 Stoichiometry    C24H19NS2
 Framework group  C1[X(C24H19NS2)]
 Deg. of freedom   132
 Full point group                 C1      NOp   1
 Largest Abelian subgroup         C1      NOp   1
 Largest concise Abelian subgroup C1      NOp   1
                         Standard orientation:                         
 ---------------------------------------------------------------------
 Center     Atomic      Atomic             Coordinates (Angstroms)
 Number     Number       Type             X           Y           Z
 ---------------------------------------------------------------------
      1          6           0       -3.352046    1.022081    0.901490
      2          6           0       -4.015603    0.124147    0.077833
      3         16           0       -3.193622   -0.833868   -1.176213
      4          6           0       -5.398593   -0.028228    0.207342
      5          6           0       -0.749106    0.373785   -1.531691
      6          6           0       -1.475477   -0.566990   -0.815552
      7          6           0       -4.041516    1.761821    1.844012
      8          6           0       -6.080951    0.720801    1.156415
      9          1           0       -7.475944   -0.835079   -0.458792
     10          6           0        0.601771    0.547170   -1.299188
     11          6           0       -0.823428   -1.336346    0.139234
     12          6           0        0.521569   -1.154920    0.389409
     13          6           0        1.255724   -0.212476   -0.331046
     14          1           0        1.160253    1.275483   -1.876291
     15          1           0       -1.383265   -2.076857    0.700814
     16          1           0        1.015474   -1.752114    1.147605
     17          6           0       -5.411167    1.613701    1.970885
     18          1           0       -2.279577    1.141824    0.800598
     19          1           0       -1.248138    0.967582   -2.290346
     20          1           0       -3.503227    2.458074    2.478369
     21          1           0       -7.154267    0.598627    1.263844
     22          1           0       -5.962434    2.189124    2.706912
     23         16           0       -6.238224   -1.192989   -0.835805
     24          7           0        2.627173   -0.037586   -0.087724
     25          6           0        3.438312   -1.140752    0.276409
     26          6           0        4.374889   -1.012928    1.295896
     27          6           0        3.317625   -2.356550   -0.387733
     28          6           0        5.179400   -2.084309    1.640010
     29          6           0        4.112866   -3.428755   -0.025756
     30          6           0        5.049979   -3.298472    0.986151
     31          1           0        4.470709   -0.064848    1.814448
     32          1           0        2.593785   -2.456724   -1.189607
     33          1           0        5.907450   -1.970366    2.436839
     34          1           0        4.006805   -4.372570   -0.551042
     35          1           0        5.677330   -4.139106    1.262850
     36          6           0        3.224517    1.239724   -0.221989
     37          6           0        4.446224    1.376745   -0.871250
     38          6           0        2.604731    2.367846    0.304633
     39          6           0        5.037460    2.622109   -0.986244
     40          6           0        3.193018    3.612223    0.169883
     41          6           0        4.413292    3.746533   -0.472133
     42          1           0        4.931907    0.498005   -1.282066
     43          1           0        1.656156    2.262505    0.820378
     44          1           0        5.992055    2.714270   -1.494403
     45          1           0        2.697309    4.484427    0.584059
     46          1           0        4.876004    4.722810   -0.569917
 ---------------------------------------------------------------------
 Rotational constants (GHZ):           0.3083654           0.0766714           0.0675965
 Leave Link  202 at Tue Jan 19 15:19:08 2021, MaxMem=  4026531840 cpu:               0.1 elap:               0.0
 (Enter /opt/ohpc/pub/libs/gaussian/g16-A.03/sandybridge/g16/l301.exe)
 Standard basis: TZVP (5D, 7F)
 Ernie: Thresh=  0.10000D-02 Tol=  0.10000D-05 Strict=F.
 There are   660 symmetry adapted cartesian basis functions of A   symmetry.
 There are   633 symmetry adapted basis functions of A   symmetry.
   633 basis functions,  1121 primitive gaussians,   660 cartesian basis functions
   101 alpha electrons      101 beta electrons
       nuclear repulsion energy      2474.6847673599 Hartrees.
 IExCor=33909 DFT=T Ex+Corr=LC-wHPBE ExCW=0 ScaHFX=  1.000000
 ScaDFX=  1.000000  1.000000  1.000000  1.000000 ScalE2=  1.000000  1.000000
 IRadAn=      5 IRanWt=     -1 IRanGd=            0 ICorTp=0 IEmpDi=  4
 HFx  wShort=  0.000000 wLong=  0.180600 cFull=  0.000000 cShort=  0.000000 cLong=  1.000000
 DFx  wShort=  0.000000 wLong=  0.180600 cFull=  0.000000 cShort=  1.000000 cLong=  0.000000
 NAtoms=   46 NActive=   46 NUniq=   46 SFac= 1.00D+00 NAtFMM=   60 NAOKFM=F Big=F
 Integral buffers will be    131072 words long.
 Raffenetti 2 integral format.
 Two-electron integral symmetry is turned on.
 Leave Link  301 at Tue Jan 19 15:19:08 2021, MaxMem=  4026531840 cpu:               0.5 elap:               0.1
 (Enter /opt/ohpc/pub/libs/gaussian/g16-A.03/sandybridge/g16/l302.exe)
 NPDir=0 NMtPBC=     1 NCelOv=     1 NCel=       1 NClECP=     1 NCelD=      1
         NCelK=      1 NCelE2=     1 NClLst=     1 CellRange=     0.0.
 One-electron integrals computed using PRISM.
 One-electron integral symmetry used in STVInt
 NBasis=   633 RedAO= T EigKep=  6.67D-06  NBF=   633
 NBsUse=   633 1.00D-06 EigRej= -1.00D+00 NBFU=   633
 Precomputing XC quadrature grid using
 IXCGrd= 4 IRadAn=           5 IRanWt=          -1 IRanGd=           0 AccXCQ= 0.00D+00.
 Generated NRdTot=       0 NPtTot=           0 NUsed=           0 NTot=          32
 NSgBfM=   625   625   625   625   625 MxSgAt=    46 MxSgA2=    46.
 Leave Link  302 at Tue Jan 19 15:19:09 2021, MaxMem=  4026531840 cpu:               8.1 elap:               1.1
 (Enter /opt/ohpc/pub/libs/gaussian/g16-A.03/sandybridge/g16/l303.exe)
 DipDrv:  MaxL=1.
 Leave Link  303 at Tue Jan 19 15:19:09 2021, MaxMem=  4026531840 cpu:               0.9 elap:               0.2
 (Enter /opt/ohpc/pub/libs/gaussian/g16-A.03/sandybridge/g16/l401.exe)
 ExpMin= 9.52D-02 ExpMax= 6.07D+04 ExpMxC= 2.07D+03 IAcc=3 IRadAn=         5 AccDes= 0.00D+00
 Harris functional with IExCor=33909 and IRadAn=       5 diagonalized for initial guess.
 HarFok:  IExCor=33909 AccDes= 0.00D+00 IRadAn=         5 IDoV= 1 UseB2=F ITyADJ=14
 ICtDFT=  3500011 ScaDFX=  1.000000  1.000000  1.000000  1.000000
 FoFCou: FMM=F IPFlag=           0 FMFlag=      100000 FMFlg1=           0
         NFxFlg=           0 DoJE=T BraDBF=F KetDBF=T FulRan=T
         wScrn=  0.000000 ICntrl=       500 IOpCl=  0 I1Cent=   200000004 NGrid=           0
         NMat0=    1 NMatS0=      1 NMatT0=    0 NMatD0=    1 NMtDS0=    0 NMtDT0=    0
 Petite list used in FoFCou.
 Harris En= -1756.62762038412    
 JPrj=0 DoOrth=F DoCkMO=F.
 Leave Link  401 at Tue Jan 19 15:19:15 2021, MaxMem=  4026531840 cpu:              45.7 elap:               5.8
 (Enter /opt/ohpc/pub/libs/gaussian/g16-A.03/sandybridge/g16/l502.exe)
 Integral symmetry usage will be decided dynamically.
 Closed shell SCF:
 Using DIIS extrapolation, IDIIS=    10.
 NGot=  4026531840 LenX=  4025648940 LenY=  4025212680
 Requested convergence on RMS density matrix=1.00D-06 within  32 cycles.
 Requested convergence on MAX density matrix=1.00D-04.
 Requested convergence on             energy=1.00D-04.
 Virtual orbitals will be shifted by   0.500 hartree.
 No special actions if energy rises.
 Dynamic level shift is on during FON iterations.

 Cycle   1  Pass 1  IDiag  1:
 FoFJK:  IHMeth= 1 ICntrl=       0 DoSepK=T KAlg= 0 I1Cent=           0 FoldK=F
 IRaf=         1 NMat=       1 IRICut=       1 DoRegI=T DoRafI=F ISym2E= 0 IDoP0=0 IntGTp=1.
 FoFCou: FMM=F IPFlag=           0 FMFlag=      100000 FMFlg1=           0
         NFxFlg=           0 DoJE=T BraDBF=F KetDBF=F FulRan=T
         wScrn=  0.000000 ICntrl=       500 IOpCl=  0 I1Cent=           0 NGrid=           0
         NMat0=    1 NMatS0=      1 NMatT0=    0 NMatD0=    1 NMtDS0=    0 NMtDT0=    0
 Symmetry not used in FoFCou.
 E= -1775.66068631799    
 DIIS: error= 2.79D-02 at cycle   1 NSaved=   1.
 NSaved= 1 IEnMin= 1 EnMin= -1775.66068631799     IErMin= 1 ErrMin= 2.79D-02
 ErrMax= 2.79D-02  0.00D+00 EMaxC= 1.00D+00 BMatC= 5.44D-01 BMatP= 5.44D-01
 IDIUse=1 WtCom= 1.00D+00 WtEn= 0.00D+00
 Coeff-Com:  0.100D+01
 Coeff:      0.100D+01
 Gap=     0.400 Goal=   None    Shift=    0.500
 T= 1452. Gap= 0.665 NK=0 IS=  102 IE=  633 IFin=  101
          NO(<0.9)=   0  NV(>0.1)=   0    101.00e < EF      0.00e >EF  Err=0.0D+00
 GapD=    0.400 DampG=1.000 DampE=0.500 DampFc=0.5000 IDamp=-1.
 Damping current iteration by 5.00D-01
 RMSDP=2.89D-03 MaxDP=1.99D-01              OVMax= 9.63D-02

 Cycle   2  Pass 1  IDiag  1:
 E= -1776.00722949934     Delta-E=       -0.346543181342 Rises=F Damp=T
 DIIS: error= 1.24D-02 at cycle   2 NSaved=   2.
 NSaved= 2 IEnMin= 2 EnMin= -1776.00722949934     IErMin= 2 ErrMin= 1.24D-02
 ErrMax= 1.24D-02  0.00D+00 EMaxC= 1.00D+00 BMatC= 8.03D-02 BMatP= 5.44D-01
 IDIUse=1 WtCom= 1.00D+00 WtEn= 0.00D+00
 Coeff-Com: -0.505D+00 0.150D+01
 Coeff:     -0.505D+00 0.150D+01
 Gap=     0.350 Goal=   None    Shift=    0.500
 T= 1329. Gap= 0.751 NK=0 IS=  102 IE=  633 IFin=  101
          NO(<0.9)=   0  NV(>0.1)=   0    101.00e < EF      0.00e >EF  Err=0.0D+00
 GapD=    0.350 DampG=1.000 DampE=0.500 DampFc=0.5000 IDamp=-1.
 Damping current iteration by 5.00D-01
 RMSDP=1.61D-03 MaxDP=1.09D-01 DE=-3.47D-01 OVMax= 1.85D-02

 Cycle   3  Pass 1  IDiag  1:
 E= -1776.11795759760     Delta-E=       -0.110728098261 Rises=F Damp=T
 DIIS: error= 6.10D-03 at cycle   3 NSaved=   3.
 NSaved= 3 IEnMin= 3 EnMin= -1776.11795759760     IErMin= 3 ErrMin= 6.10D-03
 ErrMax= 6.10D-03  0.00D+00 EMaxC= 1.00D+00 BMatC= 1.40D-02 BMatP= 8.03D-02
 IDIUse=1 WtCom= 1.00D+00 WtEn= 0.00D+00
 Coeff-Com:  0.104D+00-0.988D+00 0.188D+01
 Coeff:      0.104D+00-0.988D+00 0.188D+01
 Gap=     0.268 Goal=   None    Shift=    0.500
 T= 1098. Gap= 0.765 NK=0 IS=  102 IE=  633 IFin=  101
          NO(<0.9)=   0  NV(>0.1)=   0    101.00e < EF      0.00e >EF  Err=0.0D+00
 GapD=    0.268 DampG=1.000 DampE=1.000 DampFc=1.0000 IDamp=-1.
 RMSDP=8.79D-04 MaxDP=5.13D-02 DE=-1.11D-01 OVMax= 1.03D-02

 Cycle   4  Pass 1  IDiag  1:
 E= -1776.20870424531     Delta-E=       -0.090746647717 Rises=F Damp=F
 DIIS: error= 1.48D-03 at cycle   4 NSaved=   4.
 NSaved= 4 IEnMin= 4 EnMin= -1776.20870424531     IErMin= 4 ErrMin= 1.48D-03
 ErrMax= 1.48D-03  0.00D+00 EMaxC= 1.00D+00 BMatC= 1.00D-03 BMatP= 1.40D-02
 IDIUse=1 WtCom= 1.00D+00 WtEn= 0.00D+00
 Coeff-Com:  0.802D-01-0.209D+00 0.175D+00 0.954D+00
 Coeff:      0.802D-01-0.209D+00 0.175D+00 0.954D+00
 Gap=     0.263 Goal=   None    Shift=    0.500
 T=  593. Gap= 0.762 NK=0 IS=  102 IE=  633 IFin=  101
          NO(<0.9)=   0  NV(>0.1)=   0    101.00e < EF      0.00e >EF  Err=0.0D+00
 GapD=    0.263 DampG=1.000 DampE=1.000 DampFc=1.0000 IDamp=-1.
 RMSDP=2.31D-04 MaxDP=1.46D-02 DE=-9.07D-02 OVMax= 7.32D-03

 Cycle   5  Pass 1  IDiag  1:
 E= -1776.21001699320     Delta-E=       -0.001312747891 Rises=F Damp=F
 DIIS: error= 1.25D-03 at cycle   5 NSaved=   5.
 NSaved= 5 IEnMin= 5 EnMin= -1776.21001699320     IErMin= 5 ErrMin= 1.25D-03
 ErrMax= 1.25D-03  0.00D+00 EMaxC= 1.00D+00 BMatC= 1.46D-04 BMatP= 1.00D-03
 IDIUse=1 WtCom= 1.00D+00 WtEn= 0.00D+00
 Coeff-Com: -0.429D-02 0.113D+00-0.227D+00-0.139D+00 0.126D+01
 Coeff:     -0.429D-02 0.113D+00-0.227D+00-0.139D+00 0.126D+01
 Gap=     0.263 Goal=   None    Shift=    0.500
 T=  103. Gap= 0.763 NK=0 IS=  102 IE=  633 IFin=  101
          NO(<0.9)=   0  NV(>0.1)=   0    101.00e < EF      0.00e >EF  Err=0.0D+00
 GapD=    0.263 DampG=1.000 DampE=1.000 DampFc=1.0000 IDamp=-1.
 RMSDP=1.58D-04 MaxDP=1.06D-02 DE=-1.31D-03 OVMax= 6.04D-03

 Cycle   6  Pass 1  IDiag  1:
 E= -1776.21040428397     Delta-E=       -0.000387290769 Rises=F Damp=F
 DIIS: error= 1.02D-03 at cycle   6 NSaved=   6.
 NSaved= 6 IEnMin= 6 EnMin= -1776.21040428397     IErMin= 6 ErrMin= 1.02D-03
 ErrMax= 1.02D-03  0.00D+00 EMaxC= 1.00D+00 BMatC= 4.42D-05 BMatP= 1.46D-04
 IDIUse=1 WtCom= 1.00D+00 WtEn= 0.00D+00
 Coeff-Com: -0.182D-01 0.544D-01-0.593D-01-0.244D+00-0.230D+00 0.150D+01
 Coeff:     -0.182D-01 0.544D-01-0.593D-01-0.244D+00-0.230D+00 0.150D+01
 Gap=     0.263 Goal=   None    Shift=    0.500
 GapD=    0.263 DampG=1.000 DampE=1.000 DampFc=1.0000 IDamp=-1.
 RMSDP=9.74D-05 MaxDP=6.56D-03 DE=-3.87D-04 OVMax= 5.11D-03

 Cycle   7  Pass 1  IDiag  1:
 E= -1776.21058028952     Delta-E=       -0.000176005542 Rises=F Damp=F
 DIIS: error= 7.48D-04 at cycle   7 NSaved=   7.
 NSaved= 7 IEnMin= 7 EnMin= -1776.21058028952     IErMin= 7 ErrMin= 7.48D-04
 ErrMax= 7.48D-04  0.00D+00 EMaxC= 1.00D+00 BMatC= 1.76D-05 BMatP= 4.42D-05
 IDIUse=1 WtCom= 1.00D+00 WtEn= 0.00D+00
 Coeff-Com: -0.422D-02-0.239D-01 0.566D-01-0.508D-01-0.480D+00-0.446D-01
 Coeff-Com:  0.155D+01
 Coeff:     -0.422D-02-0.239D-01 0.566D-01-0.508D-01-0.480D+00-0.446D-01
 Coeff:      0.155D+01
 Gap=     0.263 Goal=   None    Shift=    0.500
 RMSDP=5.42D-05 MaxDP=3.46D-03 DE=-1.76D-04 OVMax= 4.00D-03

 Cycle   8  Pass 1  IDiag  1:
 E= -1776.21066371706     Delta-E=       -0.000083427540 Rises=F Damp=F
 DIIS: error= 5.23D-04 at cycle   8 NSaved=   8.
 NSaved= 8 IEnMin= 8 EnMin= -1776.21066371706     IErMin= 8 ErrMin= 5.23D-04
 ErrMax= 5.23D-04  0.00D+00 EMaxC= 1.00D+00 BMatC= 7.10D-06 BMatP= 1.76D-05
 IDIUse=1 WtCom= 1.00D+00 WtEn= 0.00D+00
 Coeff-Com:  0.410D-02-0.254D-01 0.375D-01 0.929D-01-0.116D+00-0.689D+00
 Coeff-Com: -0.102D+00 0.180D+01
 Coeff:      0.410D-02-0.254D-01 0.375D-01 0.929D-01-0.116D+00-0.689D+00
 Coeff:     -0.102D+00 0.180D+01
 Gap=     0.264 Goal=   None    Shift=    0.500
 RMSDP=2.79D-05 MaxDP=1.45D-03 DE=-8.34D-05 OVMax= 2.99D-03

 Cycle   9  Pass 1  IDiag  1:
 E= -1776.21070178909     Delta-E=       -0.000038072037 Rises=F Damp=F
 DIIS: error= 3.68D-04 at cycle   9 NSaved=   9.
 NSaved= 9 IEnMin= 9 EnMin= -1776.21070178909     IErMin= 9 ErrMin= 3.68D-04
 ErrMax= 3.68D-04  0.00D+00 EMaxC= 1.00D+00 BMatC= 3.00D-06 BMatP= 7.10D-06
 IDIUse=1 WtCom= 1.00D+00 WtEn= 0.00D+00
 Coeff-Com:  0.202D-02 0.357D-03-0.598D-02 0.735D-01 0.823D-01-0.413D+00
 Coeff-Com: -0.500D+00 0.325D+00 0.144D+01
 Coeff:      0.202D-02 0.357D-03-0.598D-02 0.735D-01 0.823D-01-0.413D+00
 Coeff:     -0.500D+00 0.325D+00 0.144D+01
 Gap=     0.264 Goal=   None    Shift=    0.500
 RMSDP=1.40D-05 MaxDP=5.68D-04 DE=-3.81D-05 OVMax= 2.11D-03

 Cycle  10  Pass 1  IDiag  1:
 E= -1776.21071779058     Delta-E=       -0.000016001485 Rises=F Damp=F
 DIIS: error= 2.39D-04 at cycle  10 NSaved=  10.
 NSaved=10 IEnMin=10 EnMin= -1776.21071779058     IErMin=10 ErrMin= 2.39D-04
 ErrMax= 2.39D-04  0.00D+00 EMaxC= 1.00D+00 BMatC= 1.18D-06 BMatP= 3.00D-06
 IDIUse=1 WtCom= 1.00D+00 WtEn= 0.00D+00
 Coeff-Com: -0.111D-02 0.764D-02-0.114D-01-0.546D-02 0.280D-01 0.113D+00
 Coeff-Com: -0.507D-01-0.558D+00-0.847D+00 0.232D+01
 Coeff:     -0.111D-02 0.764D-02-0.114D-01-0.546D-02 0.280D-01 0.113D+00
 Coeff:     -0.507D-01-0.558D+00-0.847D+00 0.232D+01
 Gap=     0.264 Goal=   None    Shift=    0.500
 RMSDP=8.83D-06 MaxDP=3.83D-04 DE=-1.60D-05 OVMax= 1.42D-03

 Cycle  11  Pass 1  IDiag  1:
 E= -1776.21072426179     Delta-E=       -0.000006471209 Rises=F Damp=F
 DIIS: error= 1.63D-04 at cycle  11 NSaved=  11.
 NSaved=11 IEnMin=11 EnMin= -1776.21072426179     IErMin=11 ErrMin= 1.63D-04
 ErrMax= 1.63D-04  0.00D+00 EMaxC= 1.00D+00 BMatC= 5.20D-07 BMatP= 1.18D-06
 IDIUse=1 WtCom= 1.00D+00 WtEn= 0.00D+00
 Coeff-Com: -0.922D-03 0.190D-02-0.826D-03-0.161D-01-0.136D-01 0.135D+00
 Coeff-Com:  0.989D-01-0.285D+00-0.106D+01 0.762D+00 0.138D+01
 Coeff:     -0.922D-03 0.190D-02-0.826D-03-0.161D-01-0.136D-01 0.135D+00
 Coeff:      0.989D-01-0.285D+00-0.106D+01 0.762D+00 0.138D+01
 Gap=     0.264 Goal=   None    Shift=    0.500
 RMSDP=5.16D-06 MaxDP=2.30D-04 DE=-6.47D-06 OVMax= 9.41D-04

 Cycle  12  Pass 1  IDiag  1:
 E= -1776.21072684051     Delta-E=       -0.000002578722 Rises=F Damp=F
 DIIS: error= 1.04D-04 at cycle  12 NSaved=  12.
 NSaved=12 IEnMin=12 EnMin= -1776.21072684051     IErMin=12 ErrMin= 1.04D-04
 ErrMax= 1.04D-04  0.00D+00 EMaxC= 1.00D+00 BMatC= 2.13D-07 BMatP= 5.20D-07
 IDIUse=1 WtCom= 1.00D+00 WtEn= 0.00D+00
 Coeff-Com: -0.428D-04-0.221D-02 0.449D-02-0.279D-02-0.135D-01 0.904D-03
 Coeff-Com:  0.505D-01 0.173D+00-0.336D+00-0.534D+00-0.287D+00 0.195D+01
 Coeff:     -0.428D-04-0.221D-02 0.449D-02-0.279D-02-0.135D-01 0.904D-03
 Coeff:      0.505D-01 0.173D+00-0.336D+00-0.534D+00-0.287D+00 0.195D+01
 Gap=     0.264 Goal=   None    Shift=    0.500
 RMSDP=3.10D-06 MaxDP=1.48D-04 DE=-2.58D-06 OVMax= 6.14D-04

 Cycle  13  Pass 1  IDiag  1:
 E= -1776.21072786612     Delta-E=       -0.000001025613 Rises=F Damp=F
 DIIS: error= 7.00D-05 at cycle  13 NSaved=  13.
 NSaved=13 IEnMin=13 EnMin= -1776.21072786612     IErMin=13 ErrMin= 7.00D-05
 ErrMax= 7.00D-05  0.00D+00 EMaxC= 1.00D+00 BMatC= 9.79D-08 BMatP= 2.13D-07
 IDIUse=1 WtCom= 1.00D+00 WtEn= 0.00D+00
 Coeff-Com:  0.141D-03-0.125D-02 0.205D-02 0.445D-02-0.279D-02-0.414D-01
 Coeff-Com: -0.235D-02 0.205D+00 0.911D-01-0.490D+00-0.873D+00 0.531D+00
 Coeff-Com:  0.158D+01
 Coeff:      0.141D-03-0.125D-02 0.205D-02 0.445D-02-0.279D-02-0.414D-01
 Coeff:     -0.235D-02 0.205D+00 0.911D-01-0.490D+00-0.873D+00 0.531D+00
 Coeff:      0.158D+01
 Gap=     0.264 Goal=   None    Shift=    0.500
 RMSDP=1.89D-06 MaxDP=9.67D-05 DE=-1.03D-06 OVMax= 4.11D-04

 Cycle  14  Pass 1  IDiag  1:
 E= -1776.21072829023     Delta-E=       -0.000000424108 Rises=F Damp=F
 DIIS: error= 4.44D-05 at cycle  14 NSaved=  14.
 NSaved=14 IEnMin=14 EnMin= -1776.21072829023     IErMin=14 ErrMin= 4.44D-05
 ErrMax= 4.44D-05  0.00D+00 EMaxC= 1.00D+00 BMatC= 4.08D-08 BMatP= 9.79D-08
 IDIUse=1 WtCom= 1.00D+00 WtEn= 0.00D+00
 Coeff-Com:  0.416D-04 0.223D-03-0.554D-03 0.321D-02 0.165D-02-0.167D-01
 Coeff-Com: -0.130D-01 0.488D-01 0.982D-01 0.883D-02-0.467D+00-0.242D+00
 Coeff-Com: -0.401D+00 0.198D+01
 Coeff:      0.416D-04 0.223D-03-0.554D-03 0.321D-02 0.165D-02-0.167D-01
 Coeff:     -0.130D-01 0.488D-01 0.982D-01 0.883D-02-0.467D+00-0.242D+00
 Coeff:     -0.401D+00 0.198D+01
 Gap=     0.264 Goal=   None    Shift=    0.500
 RMSDP=1.22D-06 MaxDP=5.99D-05 DE=-4.24D-07 OVMax= 2.64D-04

 Cycle  15  Pass 1  IDiag  1:
 E= -1776.21072845941     Delta-E=       -0.000000169176 Rises=F Damp=F
 DIIS: error= 2.90D-05 at cycle  15 NSaved=  15.
 NSaved=15 IEnMin=15 EnMin= -1776.21072845941     IErMin=15 ErrMin= 2.90D-05
 ErrMax= 2.90D-05  0.00D+00 EMaxC= 1.00D+00 BMatC= 1.75D-08 BMatP= 4.08D-08
 IDIUse=1 WtCom= 1.00D+00 WtEn= 0.00D+00
 Coeff-Com: -0.138D-04 0.444D-03-0.848D-03 0.168D-03 0.198D-02 0.456D-02
 Coeff-Com: -0.533D-02-0.291D-01 0.146D-01 0.173D+00-0.479D-01-0.263D+00
 Coeff-Com: -0.107D+01 0.783D+00 0.143D+01
 Coeff:     -0.138D-04 0.444D-03-0.848D-03 0.168D-03 0.198D-02 0.456D-02
 Coeff:     -0.533D-02-0.291D-01 0.146D-01 0.173D+00-0.479D-01-0.263D+00
 Coeff:     -0.107D+01 0.783D+00 0.143D+01
 Gap=     0.264 Goal=   None    Shift=    0.500
 RMSDP=7.30D-07 MaxDP=3.61D-05 DE=-1.69D-07 OVMax= 1.71D-04

 SCF Done:  E(RLC-wHPBE) =  -1776.21072846     A.U. after   15 cycles
            NFock= 15  Conv=0.73D-06     -V/T= 2.0036
 KE= 1.769833623182D+03 PE=-9.117360929871D+03 EE= 3.096631810869D+03
 Leave Link  502 at Tue Jan 19 15:29:21 2021, MaxMem=  4026531840 cpu:            4833.9 elap:             605.8
 (Enter /opt/ohpc/pub/libs/gaussian/g16-A.03/sandybridge/g16/l508.exe)
 QCSCF skips out because SCF is already converged.
 Leave Link  508 at Tue Jan 19 15:29:21 2021, MaxMem=  4026531840 cpu:               0.1 elap:               0.0
 (Enter /opt/ohpc/pub/libs/gaussian/g16-A.03/sandybridge/g16/l601.exe)
 Copying SCF densities to generalized density rwf, IOpCl= 0 IROHF=0.

 **********************************************************************

            Population analysis using the SCF density.

 **********************************************************************

 Orbital symmetries:
       Occupied  (A) (A) (A) (A) (A) (A) (A) (A) (A) (A) (A) (A)
                 (A) (A) (A) (A) (A) (A) (A) (A) (A) (A) (A) (A)
                 (A) (A) (A) (A) (A) (A) (A) (A) (A) (A) (A) (A)
                 (A) (A) (A) (A) (A) (A) (A) (A) (A) (A) (A) (A)
                 (A) (A) (A) (A) (A) (A) (A) (A) (A) (A) (A) (A)
                 (A) (A) (A) (A) (A) (A) (A) (A) (A) (A) (A) (A)
                 (A) (A) (A) (A) (A) (A) (A) (A) (A) (A) (A) (A)
                 (A) (A) (A) (A) (A) (A) (A) (A) (A) (A) (A) (A)
                 (A) (A) (A) (A) (A)
       Virtual   (A) (A) (A) (A) (A) (A) (A) (A) (A) (A) (A) (A)
                 (A) (A) (A) (A) (A) (A) (A) (A) (A) (A) (A) (A)
                 (A) (A) (A) (A) (A) (A) (A) (A) (A) (A) (A) (A)
                 (A) (A) (A) (A) (A) (A) (A) (A) (A) (A) (A) (A)
                 (A) (A) (A) (A) (A) (A) (A) (A) (A) (A) (A) (A)
                 (A) (A) (A) (A) (A) (A) (A) (A) (A) (A) (A) (A)
                 (A) (A) (A) (A) (A) (A) (A) (A) (A) (A) (A) (A)
                 (A) (A) (A) (A) (A) (A) (A) (A) (A) (A) (A) (A)
                 (A) (A) (A) (A) (A) (A) (A) (A) (A) (A) (A) (A)
                 (A) (A) (A) (A) (A) (A) (A) (A) (A) (A) (A) (A)
                 (A) (A) (A) (A) (A) (A) (A) (A) (A) (A) (A) (A)
                 (A) (A) (A) (A) (A) (A) (A) (A) (A) (A) (A) (A)
                 (A) (A) (A) (A) (A) (A) (A) (A) (A) (A) (A) (A)
                 (A) (A) (A) (A) (A) (A) (A) (A) (A) (A) (A) (A)
                 (A) (A) (A) (A) (A) (A) (A) (A) (A) (A) (A) (A)
                 (A) (A) (A) (A) (A) (A) (A) (A) (A) (A) (A) (A)
                 (A) (A) (A) (A) (A) (A) (A) (A) (A) (A) (A) (A)
                 (A) (A) (A) (A) (A) (A) (A) (A) (A) (A) (A) (A)
                 (A) (A) (A) (A) (A) (A) (A) (A) (A) (A) (A) (A)
                 (A) (A) (A) (A) (A) (A) (A) (A) (A) (A) (A) (A)
                 (A) (A) (A) (A) (A) (A) (A) (A) (A) (A) (A) (A)
                 (A) (A) (A) (A) (A) (A) (A) (A) (A) (A) (A) (A)
                 (A) (A) (A) (A) (A) (A) (A) (A) (A) (A) (A) (A)
                 (A) (A) (A) (A) (A) (A) (A) (A) (A) (A) (A) (A)
                 (A) (A) (A) (A) (A) (A) (A) (A) (A) (A) (A) (A)
                 (A) (A) (A) (A) (A) (A) (A) (A) (A) (A) (A) (A)
                 (A) (A) (A) (A) (A) (A) (A) (A) (A) (A) (A) (A)
                 (A) (A) (A) (A) (A) (A) (A) (A) (A) (A) (A) (A)
                 (A) (A) (A) (A) (A) (A) (A) (A) (A) (A) (A) (A)
                 (A) (A) (A) (A) (A) (A) (A) (A) (A) (A) (A) (A)
                 (A) (A) (A) (A) (A) (A) (A) (A) (A) (A) (A) (A)
                 (A) (A) (A) (A) (A) (A) (A) (A) (A) (A) (A) (A)
                 (A) (A) (A) (A) (A) (A) (A) (A) (A) (A) (A) (A)
                 (A) (A) (A) (A) (A) (A) (A) (A) (A) (A) (A) (A)
                 (A) (A) (A) (A) (A) (A) (A) (A) (A) (A) (A) (A)
                 (A) (A) (A) (A) (A) (A) (A) (A) (A) (A) (A) (A)
                 (A) (A) (A) (A) (A) (A) (A) (A) (A) (A) (A) (A)
                 (A) (A) (A) (A) (A) (A) (A) (A) (A) (A) (A) (A)
                 (A) (A) (A) (A) (A) (A) (A) (A) (A) (A) (A) (A)
                 (A) (A) (A) (A) (A) (A) (A) (A) (A) (A) (A) (A)
                 (A) (A) (A) (A) (A) (A) (A) (A) (A) (A) (A) (A)
                 (A) (A) (A) (A) (A) (A) (A) (A) (A) (A) (A) (A)
                 (A) (A) (A) (A) (A) (A) (A) (A) (A) (A) (A) (A)
                 (A) (A) (A) (A) (A) (A) (A) (A) (A) (A) (A) (A)
                 (A) (A) (A) (A)
 The electronic state is 1-A.
 Alpha  occ. eigenvalues --  -88.19410 -88.19325 -14.12932 -10.04118 -10.03566
 Alpha  occ. eigenvalues --  -10.03530 -10.02905 -10.02529 -10.02001  -9.99954
 Alpha  occ. eigenvalues --   -9.99929  -9.99560  -9.99529  -9.99503  -9.99499
 Alpha  occ. eigenvalues --   -9.99462  -9.99460  -9.99378  -9.99316  -9.99315
 Alpha  occ. eigenvalues --   -9.99311  -9.99295  -9.99123  -9.99087  -9.98882
 Alpha  occ. eigenvalues --   -9.98687  -9.98618  -7.78696  -7.78483  -5.80916
 Alpha  occ. eigenvalues --   -5.80730  -5.80432  -5.80222  -5.79677  -5.79462
 Alpha  occ. eigenvalues --   -1.00667  -0.91352  -0.90326  -0.90036  -0.88391
 Alpha  occ. eigenvalues --   -0.83831  -0.82682  -0.80621  -0.80050  -0.79174
 Alpha  occ. eigenvalues --   -0.78959  -0.78903  -0.76555  -0.74813  -0.72695
 Alpha  occ. eigenvalues --   -0.68299  -0.67705  -0.65908  -0.65717  -0.65312
 Alpha  occ. eigenvalues --   -0.64611  -0.62776  -0.62042  -0.59557  -0.59522
 Alpha  occ. eigenvalues --   -0.56802  -0.55269  -0.53946  -0.52897  -0.52728
 Alpha  occ. eigenvalues --   -0.52069  -0.51156  -0.50863  -0.49891  -0.49584
 Alpha  occ. eigenvalues --   -0.48947  -0.48707  -0.48209  -0.47942  -0.47779
 Alpha  occ. eigenvalues --   -0.47287  -0.46348  -0.45284  -0.44525  -0.44276
 Alpha  occ. eigenvalues --   -0.44126  -0.42904  -0.42111  -0.41533  -0.41105
 Alpha  occ. eigenvalues --   -0.40483  -0.40013  -0.39921  -0.39811  -0.38186
 Alpha  occ. eigenvalues --   -0.36732  -0.36112  -0.34893  -0.33466  -0.33440
 Alpha  occ. eigenvalues --   -0.33095  -0.32318  -0.32067  -0.28757  -0.26545
 Alpha  occ. eigenvalues --   -0.25318
 Alpha virt. eigenvalues --    0.01047   0.01512   0.02126   0.03379   0.03872
 Alpha virt. eigenvalues --    0.04086   0.04469   0.05276   0.06646   0.09057
 Alpha virt. eigenvalues --    0.10143   0.10485   0.10673   0.11735   0.12754
 Alpha virt. eigenvalues --    0.12998   0.13270   0.13630   0.13892   0.14474
 Alpha virt. eigenvalues --    0.14982   0.15065   0.15782   0.16213   0.16335
 Alpha virt. eigenvalues --    0.16762   0.17026   0.17486   0.17873   0.17986
 Alpha virt. eigenvalues --    0.18563   0.18913   0.19774   0.19947   0.20968
 Alpha virt. eigenvalues --    0.21645   0.22944   0.23609   0.23954   0.24356
 Alpha virt. eigenvalues --    0.24488   0.24916   0.25389   0.25497   0.25842
 Alpha virt. eigenvalues --    0.26308   0.26500   0.27103   0.27247   0.27517
 Alpha virt. eigenvalues --    0.27602   0.27890   0.28070   0.28232   0.28739
 Alpha virt. eigenvalues --    0.29005   0.29234   0.29685   0.29770   0.30348
 Alpha virt. eigenvalues --    0.30554   0.30633   0.31271   0.31274   0.31898
 Alpha virt. eigenvalues --    0.32317   0.32567   0.32711   0.33001   0.33386
 Alpha virt. eigenvalues --    0.34104   0.34433   0.35034   0.35218   0.35618
 Alpha virt. eigenvalues --    0.35867   0.36396   0.36601   0.37120   0.37688
 Alpha virt. eigenvalues --    0.37841   0.38386   0.38616   0.39378   0.39647
 Alpha virt. eigenvalues --    0.40341   0.40469   0.41177   0.41513   0.41716
 Alpha virt. eigenvalues --    0.42025   0.42527   0.42824   0.42909   0.43245
 Alpha virt. eigenvalues --    0.43680   0.43754   0.44064   0.44098   0.44918
 Alpha virt. eigenvalues --    0.45101   0.45181   0.45734   0.46198   0.46645
 Alpha virt. eigenvalues --    0.46668   0.47151   0.47354   0.47747   0.47826
 Alpha virt. eigenvalues --    0.48133   0.48571   0.48924   0.49276   0.49923
 Alpha virt. eigenvalues --    0.50063   0.50289   0.50616   0.51402   0.51777
 Alpha virt. eigenvalues --    0.52110   0.52376   0.52732   0.53371   0.53704
 Alpha virt. eigenvalues --    0.54290   0.54537   0.55075   0.55166   0.55443
 Alpha virt. eigenvalues --    0.55628   0.55828   0.56231   0.56609   0.57055
 Alpha virt. eigenvalues --    0.57947   0.58283   0.59228   0.59682   0.60202
 Alpha virt. eigenvalues --    0.60591   0.61698   0.61773   0.62516   0.62948
 Alpha virt. eigenvalues --    0.63850   0.64780   0.65402   0.65817   0.66509
 Alpha virt. eigenvalues --    0.67441   0.68044   0.69908   0.70701   0.71004
 Alpha virt. eigenvalues --    0.71490   0.71825   0.72086   0.72214   0.72819
 Alpha virt. eigenvalues --    0.73278   0.73374   0.74120   0.74352   0.74576
 Alpha virt. eigenvalues --    0.75052   0.75253   0.75767   0.76394   0.77180
 Alpha virt. eigenvalues --    0.77420   0.77655   0.78854   0.80218   0.80835
 Alpha virt. eigenvalues --    0.81061   0.81952   0.82596   0.83110   0.84758
 Alpha virt. eigenvalues --    0.85479   0.87717   0.89054   0.89440   0.89951
 Alpha virt. eigenvalues --    0.90518   0.92138   0.92538   0.95079   0.95817
 Alpha virt. eigenvalues --    0.96265   0.96913   0.98397   0.99628   1.00346
 Alpha virt. eigenvalues --    1.01031   1.07414   1.13427   1.18023   1.18908
 Alpha virt. eigenvalues --    1.19219   1.22446   1.22572   1.23681   1.24648
 Alpha virt. eigenvalues --    1.25759   1.26049   1.26345   1.26949   1.27330
 Alpha virt. eigenvalues --    1.28483   1.28720   1.29123   1.29249   1.29405
 Alpha virt. eigenvalues --    1.29969   1.30412   1.30647   1.30877   1.31555
 Alpha virt. eigenvalues --    1.31581   1.32285   1.32660   1.33018   1.33380
 Alpha virt. eigenvalues --    1.33714   1.33854   1.34692   1.35481   1.35936
 Alpha virt. eigenvalues --    1.36670   1.37240   1.37407   1.38237   1.39055
 Alpha virt. eigenvalues --    1.40649   1.42477   1.43324   1.43667   1.44108
 Alpha virt. eigenvalues --    1.44895   1.45421   1.46150   1.46464   1.46639
 Alpha virt. eigenvalues --    1.46755   1.46796   1.47009   1.47351   1.47467
 Alpha virt. eigenvalues --    1.47663   1.47966   1.48360   1.48590   1.48984
 Alpha virt. eigenvalues --    1.49113   1.50167   1.50554   1.50822   1.51182
 Alpha virt. eigenvalues --    1.51826   1.52560   1.53160   1.53289   1.53700
 Alpha virt. eigenvalues --    1.54058   1.54326   1.54361   1.55370   1.55396
 Alpha virt. eigenvalues --    1.55986   1.56654   1.57304   1.57782   1.58140
 Alpha virt. eigenvalues --    1.58506   1.58608   1.59025   1.59091   1.59333
 Alpha virt. eigenvalues --    1.59712   1.60158   1.60724   1.60956   1.61235
 Alpha virt. eigenvalues --    1.61399   1.62481   1.62652   1.63293   1.63886
 Alpha virt. eigenvalues --    1.64497   1.64548   1.68239   1.68602   1.69303
 Alpha virt. eigenvalues --    1.69495   1.70281   1.72052   1.73143   1.73950
 Alpha virt. eigenvalues --    1.74697   1.75135   1.77883   1.78499   1.78886
 Alpha virt. eigenvalues --    1.79201   1.79529   1.79591   1.80349   1.80608
 Alpha virt. eigenvalues --    1.81233   1.81563   1.81889   1.82285   1.82857
 Alpha virt. eigenvalues --    1.83459   1.84014   1.84442   1.84871   1.84964
 Alpha virt. eigenvalues --    1.86087   1.86690   1.87411   1.89623   1.90014
 Alpha virt. eigenvalues --    1.90645   1.91061   1.91360   1.91595   1.91863
 Alpha virt. eigenvalues --    1.92342   1.93266   1.93343   1.93621   1.94167
 Alpha virt. eigenvalues --    1.94443   1.94850   1.95054   1.95498   1.95597
 Alpha virt. eigenvalues --    1.96081   1.96222   1.96360   1.97419   1.98389
 Alpha virt. eigenvalues --    1.99724   1.99804   1.99948   2.00151   2.00923
 Alpha virt. eigenvalues --    2.01774   2.02117   2.02846   2.03712   2.03969
 Alpha virt. eigenvalues --    2.04856   2.05589   2.06181   2.06453   2.08475
 Alpha virt. eigenvalues --    2.10292   2.11256   2.11948   2.13006   2.14074
 Alpha virt. eigenvalues --    2.15195   2.16967   2.17911   2.21304   2.21695
 Alpha virt. eigenvalues --    2.22659   2.24603   2.25351   2.26190   2.26615
 Alpha virt. eigenvalues --    2.28943   2.29258   2.30879   2.31953   2.32047
 Alpha virt. eigenvalues --    2.32973   2.33297   2.33584   2.33855   2.34041
 Alpha virt. eigenvalues --    2.34336   2.34713   2.35034   2.35323   2.35853
 Alpha virt. eigenvalues --    2.36096   2.36477   2.36805   2.37298   2.37667
 Alpha virt. eigenvalues --    2.37899   2.37945   2.39297   2.39526   2.39591
 Alpha virt. eigenvalues --    2.40578   2.40829   2.42401   2.45071   2.46490
 Alpha virt. eigenvalues --    2.47869   2.48428   2.49157   2.51607   2.52854
 Alpha virt. eigenvalues --    2.53112   2.54081   2.54217   2.54364   2.55203
 Alpha virt. eigenvalues --    2.55634   2.56298   2.58206   2.58478   2.59465
 Alpha virt. eigenvalues --    2.60951   2.61207   2.62076   2.63074   2.64390
 Alpha virt. eigenvalues --    2.65263   2.66110   2.66994   2.67087   2.67214
 Alpha virt. eigenvalues --    2.67457   2.68054   2.68309   2.68570   2.68796
 Alpha virt. eigenvalues --    2.69652   2.69891   2.71693   2.75624   2.76286
 Alpha virt. eigenvalues --    2.76810   2.77418   2.78605   2.79832   2.80749
 Alpha virt. eigenvalues --    2.81640   2.83029   2.84791   2.85375   2.86497
 Alpha virt. eigenvalues --    2.86845   2.87799   2.88782   2.90941   2.97981
 Alpha virt. eigenvalues --    2.99658   2.99900   3.01052   3.01723   3.03594
 Alpha virt. eigenvalues --    3.04192   3.04672   3.05378   3.05632   3.06415
 Alpha virt. eigenvalues --    3.07395   3.09380   3.11855   3.12163   3.12350
 Alpha virt. eigenvalues --    3.13996   3.14586   3.14896   3.16584   3.16973
 Alpha virt. eigenvalues --    3.17840   3.19152   3.19414   3.19894   3.21554
 Alpha virt. eigenvalues --    3.21999   3.22282   3.23163   3.23233   3.25410
 Alpha virt. eigenvalues --    3.28139   3.30555   3.35079   3.35415   3.35976
 Alpha virt. eigenvalues --    3.38274   3.41488   3.42538   3.43281   3.48498
 Alpha virt. eigenvalues --    3.54439   3.56656   3.57316   3.57493   3.59767
 Alpha virt. eigenvalues --    3.64042   3.72880   3.82245   3.93059   3.95125
 Alpha virt. eigenvalues --   18.76131  19.01316  21.05220  21.20152  21.22510
 Alpha virt. eigenvalues --   21.34009  21.61940  21.69104  21.70145  21.72191
 Alpha virt. eigenvalues --   21.73444  21.74291  21.81143  21.86666  21.90872
 Alpha virt. eigenvalues --   21.92103  21.92663  21.96085  21.98178  21.98772
 Alpha virt. eigenvalues --   22.03796  22.03916  22.07959  22.11172  22.16532
 Alpha virt. eigenvalues --   22.17221  32.04273
          Condensed to atoms (all electrons):
               1          2          3          4          5          6
     1  C    5.821565   0.091460  -0.156381  -0.064626   0.003273  -0.037746
     2  C    0.091460   5.906983   0.431315  -0.084027  -0.012074  -0.009967
     3  S   -0.156381   0.431315  15.561021  -0.100225  -0.136403   0.408083
     4  C   -0.064626  -0.084027  -0.100225   6.025300  -0.003457   0.034553
     5  C    0.003273  -0.012074  -0.136403  -0.003457   5.660160  -0.007895
     6  C   -0.037746  -0.009967   0.408083   0.034553  -0.007895   5.930383
     7  C    0.078563   0.127840   0.029561  -0.182985  -0.004283  -0.010169
     8  C   -0.401861   0.122824   0.026545  -0.052484  -0.000213  -0.003529
     9  H    0.001019   0.019453   0.000034  -0.034274   0.000007  -0.000011
    10  C   -0.003118   0.001361   0.042982   0.001135  -0.039330   0.216719
    11  C    0.004280  -0.010005  -0.149251  -0.006898   0.258983  -0.155869
    12  C    0.000276  -0.000666   0.048939   0.000469  -0.323468   0.287165
    13  C   -0.000119  -0.002538  -0.014459  -0.000539   0.234254  -0.322156
    14  H    0.000005  -0.000024  -0.000169   0.000003  -0.049118   0.017698
    15  H    0.002797  -0.001395  -0.008571  -0.001851   0.031635  -0.101868
    16  H    0.000061   0.000028  -0.000149   0.000005  -0.003523   0.017935
    17  C    0.221145  -0.211271  -0.006279   0.218797   0.000237   0.002127
    18  H    0.425226  -0.096824  -0.019372   0.009304  -0.002878   0.021957
    19  H    0.000982  -0.000460  -0.002455  -0.000847   0.455170  -0.098823
    20  H   -0.069891   0.024768  -0.000095  -0.002244   0.000007   0.000025
    21  H   -0.003354   0.032820  -0.000160  -0.123605  -0.000003   0.000018
    22  H    0.025531  -0.005078   0.000004   0.028794   0.000004   0.000007
    23  S    0.034922  -0.152596   0.021953   0.467763   0.000154   0.000159
    24  N   -0.000028  -0.000011  -0.000034  -0.000000   0.016828   0.002465
    25  C    0.000018  -0.000015   0.000020  -0.000001  -0.005493   0.003025
    26  C   -0.000001   0.000001  -0.000000   0.000000  -0.000311   0.000176
    27  C    0.000003  -0.000004   0.000006  -0.000000   0.002881  -0.001174
    28  C   -0.000000   0.000000  -0.000000   0.000000  -0.000056   0.000017
    29  C    0.000000  -0.000000   0.000000  -0.000000   0.000075  -0.000103
    30  C   -0.000000   0.000000   0.000000   0.000000   0.000016  -0.000007
    31  H    0.000000  -0.000000   0.000000  -0.000000   0.000012  -0.000003
    32  H    0.000000  -0.000001   0.000008  -0.000000  -0.000154   0.000932
    33  H    0.000000  -0.000000   0.000000  -0.000000   0.000000  -0.000000
    34  H    0.000000  -0.000000  -0.000000   0.000000  -0.000001  -0.000002
    35  H   -0.000000   0.000000  -0.000000   0.000000  -0.000000  -0.000000
    36  C   -0.000005  -0.000001  -0.000032   0.000000  -0.003298   0.001132
    37  C    0.000003  -0.000000   0.000002  -0.000000   0.000782   0.000293
    38  C   -0.000163   0.000015  -0.000019   0.000002  -0.006295  -0.001861
    39  C   -0.000000  -0.000000  -0.000000   0.000000   0.000029   0.000025
    40  C   -0.000014   0.000001  -0.000001   0.000000  -0.000589  -0.000149
    41  C    0.000000  -0.000000   0.000000  -0.000000  -0.000058  -0.000002
    42  H   -0.000000   0.000000  -0.000000   0.000000   0.000014  -0.000010
    43  H    0.000089   0.000012  -0.000001  -0.000001  -0.002704   0.000580
    44  H   -0.000000   0.000000  -0.000000   0.000000  -0.000002  -0.000000
    45  H   -0.000000  -0.000000  -0.000000   0.000000   0.000026  -0.000003
    46  H    0.000000  -0.000000   0.000000  -0.000000  -0.000001  -0.000000
               7          8          9         10         11         12
     1  C    0.078563  -0.401861   0.001019  -0.003118   0.004280   0.000276
     2  C    0.127840   0.122824   0.019453   0.001361  -0.010005  -0.000666
     3  S    0.029561   0.026545   0.000034   0.042982  -0.149251   0.048939
     4  C   -0.182985  -0.052484  -0.034274   0.001135  -0.006898   0.000469
     5  C   -0.004283  -0.000213   0.000007  -0.039330   0.258983  -0.323468
     6  C   -0.010169  -0.003529  -0.000011   0.216719  -0.155869   0.287165
     7  C    5.315359   0.246936  -0.001090   0.000761  -0.004806   0.001151
     8  C    0.246936   5.951772  -0.035811  -0.000026   0.000817   0.000028
     9  H   -0.001090  -0.035811   0.623759  -0.000000  -0.000000  -0.000000
    10  C    0.000761  -0.000026  -0.000000   5.710878  -0.311501   0.093037
    11  C   -0.004806   0.000817  -0.000000  -0.311501   5.810674  -0.122191
    12  C    0.001151   0.000028  -0.000000   0.093037  -0.122191   5.792286
    13  C   -0.000259   0.000027   0.000000   0.101113   0.272551   0.057307
    14  H    0.000002  -0.000000  -0.000000   0.414760  -0.003268   0.014702
    15  H   -0.000981  -0.000018   0.000002  -0.009684   0.471149  -0.089390
    16  H    0.000013   0.000000  -0.000000   0.015032  -0.047526   0.413803
    17  C    0.230355  -0.063637   0.006061  -0.000014  -0.000214  -0.000026
    18  H   -0.040532   0.001801   0.000007   0.001692  -0.000542   0.000143
    19  H   -0.000438   0.000020   0.000000  -0.084044   0.038431  -0.012765
    20  H    0.427077   0.022443  -0.000003  -0.000007  -0.000021  -0.000014
    21  H    0.018089   0.447920  -0.000592   0.000000   0.000007   0.000000
    22  H   -0.074888  -0.083614   0.000035  -0.000000   0.000001  -0.000000
    23  S   -0.010173  -0.149282   0.325327   0.000006   0.000112   0.000000
    24  N    0.000002  -0.000000   0.000000  -0.018760   0.015655  -0.021659
    25  C    0.000002   0.000000  -0.000000  -0.002100  -0.006681   0.034246
    26  C   -0.000000  -0.000000   0.000000  -0.011204   0.000979   0.020738
    27  C   -0.000000   0.000000  -0.000000   0.019303  -0.007136  -0.065892
    28  C    0.000000  -0.000000  -0.000000  -0.000212   0.000023   0.002798
    29  C    0.000000   0.000000  -0.000000   0.001205  -0.000915  -0.010842
    30  C   -0.000000  -0.000000   0.000000   0.000012  -0.000013  -0.000330
    31  H    0.000000   0.000000  -0.000000  -0.000280  -0.000016   0.000428
    32  H    0.000000   0.000000   0.000000   0.000202  -0.002557   0.004753
    33  H    0.000000   0.000000  -0.000000   0.000002  -0.000002  -0.000037
    34  H    0.000000   0.000000  -0.000000  -0.000024   0.000019   0.000029
    35  H   -0.000000  -0.000000   0.000000   0.000000  -0.000001  -0.000013
    36  C   -0.000001   0.000000   0.000000   0.019990  -0.002116  -0.009312
    37  C    0.000000   0.000000  -0.000000   0.021865  -0.000544  -0.010355
    38  C    0.000013  -0.000000   0.000000  -0.064557   0.003105   0.016507
    39  C   -0.000000  -0.000000  -0.000000   0.002752  -0.000065  -0.000130
    40  C    0.000000  -0.000000   0.000000  -0.011013   0.000105   0.001036
    41  C    0.000000   0.000000  -0.000000  -0.000080   0.000011   0.000022
    42  H   -0.000000  -0.000000   0.000000   0.000409   0.000028  -0.000366
    43  H    0.000004   0.000000   0.000000   0.005696   0.000226  -0.000521
    44  H   -0.000000  -0.000000   0.000000  -0.000039   0.000000   0.000002
    45  H    0.000000   0.000000  -0.000000  -0.000005   0.000000  -0.000027
    46  H    0.000000   0.000000  -0.000000  -0.000013  -0.000000   0.000000
              13         14         15         16         17         18
     1  C   -0.000119   0.000005   0.002797   0.000061   0.221145   0.425226
     2  C   -0.002538  -0.000024  -0.001395   0.000028  -0.211271  -0.096824
     3  S   -0.014459  -0.000169  -0.008571  -0.000149  -0.006279  -0.019372
     4  C   -0.000539   0.000003  -0.001851   0.000005   0.218797   0.009304
     5  C    0.234254  -0.049118   0.031635  -0.003523   0.000237  -0.002878
     6  C   -0.322156   0.017698  -0.101868   0.017935   0.002127   0.021957
     7  C   -0.000259   0.000002  -0.000981   0.000013   0.230355  -0.040532
     8  C    0.000027  -0.000000  -0.000018   0.000000  -0.063637   0.001801
     9  H    0.000000  -0.000000   0.000002  -0.000000   0.006061   0.000007
    10  C    0.101113   0.414760  -0.009684   0.015032  -0.000014   0.001692
    11  C    0.272551  -0.003268   0.471149  -0.047526  -0.000214  -0.000542
    12  C    0.057307   0.014702  -0.089390   0.413803  -0.000026   0.000143
    13  C    5.670166  -0.053925   0.029150  -0.055008  -0.000012  -0.001728
    14  H   -0.053925   0.518388  -0.000022  -0.000234   0.000000   0.000110
    15  H    0.029150  -0.000022   0.566733  -0.008886   0.000106   0.000603
    16  H   -0.055008  -0.000234  -0.008886   0.515663  -0.000000   0.000028
    17  C   -0.000012   0.000000   0.000106  -0.000000   5.360763   0.010881
    18  H   -0.001728   0.000110   0.000603   0.000028   0.010881   0.539029
    19  H    0.029137  -0.009065   0.000191  -0.000033   0.000014   0.000582
    20  H   -0.000011  -0.000000  -0.000008   0.000000  -0.072950  -0.008992
    21  H    0.000000   0.000000  -0.000000   0.000000  -0.056349   0.000029
    22  H    0.000000  -0.000000   0.000000  -0.000000   0.436591  -0.000343
    23  S    0.000000   0.000000   0.000184  -0.000000   0.041296  -0.000078
    24  N    0.203523  -0.008598  -0.000332  -0.008880   0.000000   0.000023
    25  C   -0.092414  -0.001032  -0.000276   0.005722  -0.000000  -0.000004
    26  C   -0.012617  -0.000268  -0.000029  -0.000169   0.000000   0.000003
    27  C    0.023756   0.000178  -0.000059  -0.000797  -0.000000  -0.000007
    28  C   -0.004118   0.000010  -0.000001   0.000572  -0.000000   0.000000
    29  C    0.003670  -0.000008   0.000012  -0.001450  -0.000000  -0.000000
    30  C    0.001617  -0.000003   0.000001   0.000287   0.000000   0.000000
    31  H   -0.001485  -0.000007  -0.000001   0.000057  -0.000000  -0.000000
    32  H   -0.002381   0.000027  -0.000067   0.001180   0.000000   0.000001
    33  H    0.000011  -0.000000  -0.000000   0.000010  -0.000000  -0.000000
    34  H   -0.000167  -0.000000  -0.000000  -0.000026  -0.000000   0.000000
    35  H    0.000014   0.000000   0.000000   0.000004   0.000000   0.000000
    36  C   -0.073285   0.004758   0.000071  -0.001520  -0.000000  -0.000068
    37  C   -0.015961  -0.000257  -0.000001  -0.000220  -0.000000  -0.000004
    38  C    0.025812  -0.000858  -0.000008   0.000170   0.000000   0.000220
    39  C   -0.004014   0.000593   0.000000   0.000012   0.000000   0.000000
    40  C    0.004716  -0.001397  -0.000000  -0.000006   0.000000   0.000030
    41  C    0.001238   0.000377  -0.000000  -0.000003  -0.000000  -0.000000
    42  H   -0.001483   0.000020   0.000000  -0.000011   0.000000  -0.000000
    43  H   -0.002347   0.001027  -0.000000  -0.000008  -0.000000   0.000115
    44  H    0.000018   0.000009  -0.000000  -0.000000   0.000000   0.000000
    45  H   -0.000145  -0.000031   0.000000  -0.000000  -0.000000  -0.000001
    46  H    0.000014   0.000005  -0.000000   0.000000  -0.000000  -0.000000
              19         20         21         22         23         24
     1  C    0.000982  -0.069891  -0.003354   0.025531   0.034922  -0.000028
     2  C   -0.000460   0.024768   0.032820  -0.005078  -0.152596  -0.000011
     3  S   -0.002455  -0.000095  -0.000160   0.000004   0.021953  -0.000034
     4  C   -0.000847  -0.002244  -0.123605   0.028794   0.467763  -0.000000
     5  C    0.455170   0.000007  -0.000003   0.000004   0.000154   0.016828
     6  C   -0.098823   0.000025   0.000018   0.000007   0.000159   0.002465
     7  C   -0.000438   0.427077   0.018089  -0.074888  -0.010173   0.000002
     8  C    0.000020   0.022443   0.447920  -0.083614  -0.149282  -0.000000
     9  H    0.000000  -0.000003  -0.000592   0.000035   0.325327   0.000000
    10  C   -0.084044  -0.000007   0.000000  -0.000000   0.000006  -0.018760
    11  C    0.038431  -0.000021   0.000007   0.000001   0.000112   0.015655
    12  C   -0.012765  -0.000014   0.000000  -0.000000   0.000000  -0.021659
    13  C    0.029137  -0.000011   0.000000   0.000000   0.000000   0.203523
    14  H   -0.009065  -0.000000   0.000000  -0.000000   0.000000  -0.008598
    15  H    0.000191  -0.000008  -0.000000   0.000000   0.000184  -0.000332
    16  H   -0.000033   0.000000   0.000000  -0.000000  -0.000000  -0.008880
    17  C    0.000014  -0.072950  -0.056349   0.436591   0.041296   0.000000
    18  H    0.000582  -0.008992   0.000029  -0.000343  -0.000078   0.000023
    19  H    0.570421   0.000000   0.000000  -0.000000  -0.000007  -0.000371
    20  H    0.000000   0.589827  -0.000358  -0.009621  -0.000021   0.000000
    21  H    0.000000  -0.000358   0.609655  -0.010757  -0.017952   0.000000
    22  H   -0.000000  -0.009621  -0.010757   0.592571  -0.000071   0.000000
    23  S   -0.000007  -0.000021  -0.017952  -0.000071  15.490883   0.000000
    24  N   -0.000371   0.000000   0.000000   0.000000   0.000000   6.517529
    25  C    0.000020  -0.000000   0.000000  -0.000000  -0.000000   0.148857
    26  C    0.000002   0.000000  -0.000000   0.000000   0.000000  -0.008303
    27  C   -0.000021   0.000000   0.000000  -0.000000  -0.000000  -0.009478
    28  C    0.000000   0.000000  -0.000000   0.000000  -0.000000   0.014411
    29  C   -0.000001  -0.000000   0.000000  -0.000000  -0.000000   0.015174
    30  C    0.000000   0.000000  -0.000000   0.000000   0.000000   0.005919
    31  H   -0.000000   0.000000   0.000000  -0.000000  -0.000000  -0.007903
    32  H   -0.000008  -0.000000   0.000000  -0.000000   0.000000  -0.006536
    33  H   -0.000000  -0.000000   0.000000  -0.000000  -0.000000  -0.000628
    34  H    0.000000  -0.000000   0.000000  -0.000000   0.000000  -0.000657
    35  H    0.000000   0.000000  -0.000000   0.000000   0.000000  -0.000048
    36  C   -0.000052   0.000000   0.000000  -0.000000   0.000000   0.150134
    37  C   -0.000040   0.000000   0.000000  -0.000000  -0.000000  -0.009219
    38  C    0.000070  -0.000001  -0.000000   0.000000   0.000000  -0.006079
    39  C   -0.000002  -0.000000  -0.000000   0.000000   0.000000   0.013793
    40  C    0.000032  -0.000000  -0.000000   0.000000   0.000000   0.014584
    41  C   -0.000004   0.000000   0.000000  -0.000000  -0.000000   0.006072
    42  H    0.000000   0.000000   0.000000   0.000000  -0.000000  -0.007791
    43  H   -0.000073   0.000008   0.000000  -0.000000  -0.000000  -0.007492
    44  H    0.000000  -0.000000  -0.000000   0.000000   0.000000  -0.000631
    45  H    0.000000   0.000000  -0.000000   0.000000   0.000000  -0.000643
    46  H   -0.000000   0.000000   0.000000  -0.000000  -0.000000  -0.000047
[...]
     5  C   -0.005493  -0.000311   0.002881  -0.000056   0.000075   0.000016
     6  C    0.003025   0.000176  -0.001174   0.000017  -0.000103  -0.000007
     7  C    0.000002  -0.000000  -0.000000   0.000000   0.000000  -0.000000
     8  C    0.000000  -0.000000   0.000000  -0.000000   0.000000  -0.000000
     9  H   -0.000000   0.000000  -0.000000  -0.000000  -0.000000   0.000000
    10  C   -0.002100  -0.011204   0.019303  -0.000212   0.001205   0.000012
    11  C   -0.006681   0.000979  -0.007136   0.000023  -0.000915  -0.000013
    12  C    0.034246   0.020738  -0.065892   0.002798  -0.010842  -0.000330
    13  C   -0.092414  -0.012617   0.023756  -0.004118   0.003670   0.001617
    14  H   -0.001032  -0.000268   0.000178   0.000010  -0.000008  -0.000003
    15  H   -0.000276  -0.000029  -0.000059  -0.000001   0.000012   0.000001
    16  H    0.005722  -0.000169  -0.000797   0.000572  -0.001450   0.000287
    17  C   -0.000000   0.000000  -0.000000  -0.000000  -0.000000   0.000000
    18  H   -0.000004   0.000003  -0.000007   0.000000  -0.000000   0.000000
    19  H    0.000020   0.000002  -0.000021   0.000000  -0.000001   0.000000
    20  H   -0.000000   0.000000   0.000000   0.000000  -0.000000   0.000000
    21  H    0.000000  -0.000000   0.000000  -0.000000   0.000000  -0.000000
    22  H   -0.000000   0.000000  -0.000000   0.000000  -0.000000   0.000000
    23  S   -0.000000   0.000000  -0.000000  -0.000000  -0.000000   0.000000
    24  N    0.148857  -0.008303  -0.009478   0.014411   0.015174   0.005919
    25  C    5.510627   0.346051   0.339068   0.026731   0.024435  -0.107546
    26  C    0.346051   5.220623  -0.037170   0.353960  -0.144968  -0.014010
    27  C    0.339068  -0.037170   5.266825  -0.141215   0.346889  -0.015859
    28  C    0.026731   0.353960  -0.141215   5.098522   0.038807   0.417208
    29  C    0.024435  -0.144968   0.346889   0.038807   5.099982   0.421117
    30  C   -0.107546  -0.014010  -0.015859   0.417208   0.421117   5.067831
    31  H   -0.038215   0.404896   0.014222  -0.049866  -0.002002   0.011569
    32  H   -0.039893   0.013793   0.402199  -0.001753  -0.042750   0.011015
    33  H    0.019475  -0.054408  -0.002661   0.419380   0.017613  -0.070099
    34  H    0.018899  -0.002457  -0.053146   0.017243   0.417995  -0.068989
    35  H   -0.008466   0.025310   0.025908  -0.073001  -0.072638   0.433574
    36  C   -0.101196   0.033465  -0.006538  -0.003331  -0.006354   0.003069
    37  C    0.031275  -0.056385   0.010046  -0.005153   0.004652  -0.001553
    38  C   -0.003994   0.008397  -0.009385   0.000806  -0.000167   0.000017
    39  C   -0.004088  -0.004460   0.000840  -0.000216   0.000106  -0.000062
    40  C   -0.006539   0.005008  -0.000248   0.000140  -0.000080   0.000035
    41  C    0.003325  -0.001850   0.000049  -0.000078   0.000037  -0.000021
    42  H    0.004663   0.001395  -0.001657  -0.001572   0.000649   0.000420
    43  H   -0.001184   0.000391  -0.000267  -0.000015   0.000020  -0.000007
    44  H   -0.000260   0.000140  -0.000039   0.000025  -0.000005   0.000001
    45  H   -0.000008  -0.000018   0.000001  -0.000002   0.000000   0.000000
    46  H    0.000024  -0.000024   0.000001  -0.000001   0.000000  -0.000000
              31         32         33         34         35         36
     1  C    0.000000   0.000000   0.000000   0.000000  -0.000000  -0.000005
     2  C   -0.000000  -0.000001  -0.000000  -0.000000   0.000000  -0.000001
     3  S    0.000000   0.000008   0.000000  -0.000000  -0.000000  -0.000032
     4  C   -0.000000  -0.000000  -0.000000   0.000000   0.000000   0.000000
     5  C    0.000012  -0.000154   0.000000  -0.000001  -0.000000  -0.003298
     6  C   -0.000003   0.000932  -0.000000  -0.000002  -0.000000   0.001132
     7  C    0.000000   0.000000   0.000000   0.000000  -0.000000  -0.000001
     8  C    0.000000   0.000000   0.000000   0.000000  -0.000000   0.000000
     9  H   -0.000000   0.000000  -0.000000  -0.000000   0.000000   0.000000
    10  C   -0.000280   0.000202   0.000002  -0.000024   0.000000   0.019990
    11  C   -0.000016  -0.002557  -0.000002   0.000019  -0.000001  -0.002116
    12  C    0.000428   0.004753  -0.000037   0.000029  -0.000013  -0.009312
    13  C   -0.001485  -0.002381   0.000011  -0.000167   0.000014  -0.073285
    14  H   -0.000007   0.000027  -0.000000  -0.000000   0.000000   0.004758
    15  H   -0.000001  -0.000067  -0.000000  -0.000000   0.000000   0.000071
    16  H    0.000057   0.001180   0.000010  -0.000026   0.000004  -0.001520
    17  C   -0.000000   0.000000  -0.000000  -0.000000   0.000000  -0.000000
    18  H   -0.000000   0.000001  -0.000000   0.000000   0.000000  -0.000068
    19  H   -0.000000  -0.000008  -0.000000   0.000000   0.000000  -0.000052
    20  H    0.000000  -0.000000  -0.000000  -0.000000   0.000000   0.000000
    21  H    0.000000   0.000000   0.000000   0.000000  -0.000000   0.000000
    22  H   -0.000000  -0.000000  -0.000000  -0.000000   0.000000  -0.000000
    23  S   -0.000000   0.000000  -0.000000   0.000000   0.000000   0.000000
    24  N   -0.007903  -0.006536  -0.000628  -0.000657  -0.000048   0.150134
    25  C   -0.038215  -0.039893   0.019475   0.018899  -0.008466  -0.101196
    26  C    0.404896   0.013793  -0.054408  -0.002457   0.025310   0.033465
    27  C    0.014222   0.402199  -0.002661  -0.053146   0.025908  -0.006538
    28  C   -0.049866  -0.001753   0.419380   0.017243  -0.073001  -0.003331
    29  C   -0.002002  -0.042750   0.017613   0.417995  -0.072638  -0.006354
    30  C    0.011569   0.011015  -0.070099  -0.068989   0.433574   0.003069
    31  H    0.530419  -0.000251  -0.007758   0.000015  -0.000095   0.004045
    32  H   -0.000251   0.520793   0.000012  -0.007553  -0.000093  -0.001512
    33  H   -0.007758   0.000012   0.582566  -0.000232  -0.009135  -0.000260
    34  H    0.000015  -0.007553  -0.000232   0.581059  -0.009032  -0.000005
    35  H   -0.000095  -0.000093  -0.009135  -0.009032   0.581812   0.000024
    36  C    0.004045  -0.001512  -0.000260  -0.000005   0.000024   5.521135
    37  C    0.001805   0.000637   0.000131  -0.000026  -0.000024   0.338293
    38  C   -0.001469  -0.000343  -0.000037   0.000002   0.000001   0.328950
    39  C   -0.001653   0.000001   0.000024  -0.000002  -0.000001   0.031454
    40  C    0.000506   0.000017  -0.000005   0.000000   0.000000   0.035843
    41  C    0.000466  -0.000007   0.000001   0.000000  -0.000000  -0.111864
    42  H    0.000868   0.000084  -0.000039   0.000004   0.000002  -0.038130
    43  H    0.000123  -0.000009   0.000000  -0.000000  -0.000000  -0.038740
    44  H   -0.000040   0.000000  -0.000000  -0.000000   0.000000   0.019851
    45  H    0.000002  -0.000000  -0.000000  -0.000000  -0.000000   0.019246
    46  H    0.000002  -0.000000   0.000000  -0.000000  -0.000000  -0.008778
              37         38         39         40         41         42
     1  C    0.000003  -0.000163  -0.000000  -0.000014   0.000000  -0.000000
     2  C   -0.000000   0.000015  -0.000000   0.000001  -0.000000   0.000000
     3  S    0.000002  -0.000019  -0.000000  -0.000001   0.000000  -0.000000
     4  C   -0.000000   0.000002   0.000000   0.000000  -0.000000   0.000000
     5  C    0.000782  -0.006295   0.000029  -0.000589  -0.000058   0.000014
     6  C    0.000293  -0.001861   0.000025  -0.000149  -0.000002  -0.000010
     7  C    0.000000   0.000013  -0.000000   0.000000   0.000000  -0.000000
     8  C    0.000000  -0.000000  -0.000000  -0.000000   0.000000  -0.000000
     9  H   -0.000000   0.000000  -0.000000   0.000000  -0.000000   0.000000
    10  C    0.021865  -0.064557   0.002752  -0.011013  -0.000080   0.000409
    11  C   -0.000544   0.003105  -0.000065   0.000105   0.000011   0.000028
    12  C   -0.010355   0.016507  -0.000130   0.001036   0.000022  -0.000366
    13  C   -0.015961   0.025812  -0.004014   0.004716   0.001238  -0.001483
    14  H   -0.000257  -0.000858   0.000593  -0.001397   0.000377   0.000020
    15  H   -0.000001  -0.000008   0.000000  -0.000000  -0.000000   0.000000
    16  H   -0.000220   0.000170   0.000012  -0.000006  -0.000003  -0.000011
    17  C   -0.000000   0.000000   0.000000   0.000000  -0.000000   0.000000
    18  H   -0.000004   0.000220   0.000000   0.000030  -0.000000  -0.000000
    19  H   -0.000040   0.000070  -0.000002   0.000032  -0.000004   0.000000
    20  H    0.000000  -0.000001  -0.000000  -0.000000   0.000000   0.000000
    21  H    0.000000  -0.000000  -0.000000  -0.000000   0.000000   0.000000
    22  H   -0.000000   0.000000   0.000000   0.000000  -0.000000   0.000000
    23  S   -0.000000   0.000000   0.000000   0.000000  -0.000000  -0.000000
    24  N   -0.009219  -0.006079   0.013793   0.014584   0.006072  -0.007791
    25  C    0.031275  -0.003994  -0.004088  -0.006539   0.003325   0.004663
    26  C   -0.056385   0.008397  -0.004460   0.005008  -0.001850   0.001395
    27  C    0.010046  -0.009385   0.000840  -0.000248   0.000049  -0.001657
    28  C   -0.005153   0.000806  -0.000216   0.000140  -0.000078  -0.001572
    29  C    0.004652  -0.000167   0.000106  -0.000080   0.000037   0.000649
    30  C   -0.001553   0.000017  -0.000062   0.000035  -0.000021   0.000420
    31  H    0.001805  -0.001469  -0.001653   0.000506   0.000466   0.000868
    32  H    0.000637  -0.000343   0.000001   0.000017  -0.000007   0.000084
    33  H    0.000131  -0.000037   0.000024  -0.000005   0.000001  -0.000039
    34  H   -0.000026   0.000002  -0.000002   0.000000   0.000000   0.000004
    35  H   -0.000024   0.000001  -0.000001   0.000000  -0.000000   0.000002
    36  C    0.338293   0.328950   0.031454   0.035843  -0.111864  -0.038130
    37  C    5.224190  -0.030232   0.351270  -0.150527  -0.011249   0.404752
    38  C   -0.030232   5.274824  -0.146397   0.334905  -0.009228   0.014353
    39  C    0.351270  -0.146397   5.101019   0.043968   0.414405  -0.049843
    40  C   -0.150527   0.334905   0.043968   5.114389   0.414887  -0.002049
    41  C   -0.011249  -0.009228   0.414405   0.414887   5.068427   0.011582
    42  H    0.404752   0.014353  -0.049843  -0.002049   0.011582   0.529147
    43  H    0.014327   0.399095  -0.001741  -0.045127   0.010902  -0.000258
    44  H   -0.054803  -0.002984   0.420051   0.018050  -0.070811  -0.007747
    45  H   -0.002566  -0.054611   0.017401   0.418819  -0.068599   0.000014
    46  H    0.025660   0.026551  -0.073670  -0.074128   0.434929  -0.000090
              43         44         45         46
     1  C    0.000089  -0.000000  -0.000000   0.000000
     2  C    0.000012   0.000000  -0.000000  -0.000000
     3  S   -0.000001  -0.000000  -0.000000   0.000000
     4  C   -0.000001   0.000000   0.000000  -0.000000
     5  C   -0.002704  -0.000002   0.000026  -0.000001
     6  C    0.000580  -0.000000  -0.000003  -0.000000
     7  C    0.000004  -0.000000   0.000000   0.000000
     8  C    0.000000  -0.000000   0.000000   0.000000
     9  H    0.000000   0.000000  -0.000000  -0.000000
    10  C    0.005696  -0.000039  -0.000005  -0.000013
    11  C    0.000226   0.000000   0.000000  -0.000000
    12  C   -0.000521   0.000002  -0.000027   0.000000
    13  C   -0.002347   0.000018  -0.000145   0.000014
    14  H    0.001027   0.000009  -0.000031   0.000005
    15  H   -0.000000  -0.000000   0.000000  -0.000000
    16  H   -0.000008  -0.000000  -0.000000   0.000000
    17  C   -0.000000   0.000000  -0.000000  -0.000000
    18  H    0.000115   0.000000  -0.000001  -0.000000
    19  H   -0.000073   0.000000   0.000000  -0.000000
    20  H    0.000008  -0.000000   0.000000   0.000000
    21  H    0.000000  -0.000000  -0.000000   0.000000
    22  H   -0.000000   0.000000   0.000000  -0.000000
    23  S   -0.000000   0.000000   0.000000  -0.000000
    24  N   -0.007492  -0.000631  -0.000643  -0.000047
    25  C   -0.001184  -0.000260  -0.000008   0.000024
    26  C    0.000391   0.000140  -0.000018  -0.000024
    27  C   -0.000267  -0.000039   0.000001   0.000001
    28  C   -0.000015   0.000025  -0.000002  -0.000001
    29  C    0.000020  -0.000005   0.000000   0.000000
    30  C   -0.000007   0.000001   0.000000  -0.000000
    31  H    0.000123  -0.000040   0.000002   0.000002
    32  H   -0.000009   0.000000  -0.000000  -0.000000
    33  H    0.000000  -0.000000  -0.000000   0.000000
    34  H   -0.000000  -0.000000  -0.000000  -0.000000
    35  H   -0.000000   0.000000  -0.000000  -0.000000
    36  C   -0.038740   0.019851   0.019246  -0.008778
    37  C    0.014327  -0.054803  -0.002566   0.025660
    38  C    0.399095  -0.002984  -0.054611   0.026551
    39  C   -0.001741   0.420051   0.017401  -0.073670
    40  C   -0.045127   0.018050   0.418819  -0.074128
    41  C    0.010902  -0.070811  -0.068599   0.434929
    42  H   -0.000258  -0.007747   0.000014  -0.000090
    43  H    0.524368   0.000007  -0.007618  -0.000082
    44  H    0.000007   0.582412  -0.000228  -0.009191
    45  H   -0.007618  -0.000228   0.582677  -0.009167
    46  H   -0.000082  -0.009191  -0.009167   0.582294
 Mulliken charges:
               1
     1  C    0.026089
     2  C   -0.171924
     3  S    0.023581
     4  C   -0.128062
     5  C   -0.062941
     6  C   -0.194127
     7  C   -0.145122
     8  C   -0.030658
     9  H    0.096078
    10  C   -0.114901
    11  C   -0.045017
    12  C   -0.121859
    13  C    0.003075
    14  H    0.155611
    15  H    0.120813
    16  H    0.157869
    17  C   -0.117619
    18  H    0.159591
    19  H    0.114437
    20  H    0.100083
    21  H    0.104592
    22  H    0.100835
    23  S   -0.052581
    24  N   -0.000841
    25  C   -0.097079
    26  C   -0.086673
    27  C   -0.099423
    28  C   -0.110062
    29  C   -0.110156
    30  C   -0.095207
    31  H    0.141612
    32  H    0.150214
    33  H    0.106074
    34  H    0.107055
    35  H    0.105898
    36  C   -0.105063
    37  C   -0.080860
    38  C   -0.095126
    39  C   -0.111399
    40  C   -0.115200
    41  C   -0.092876
    42  H    0.142641
    43  H    0.151204
    44  H    0.106218
    45  H    0.105487
    46  H    0.105713
 Sum of Mulliken charges =  -0.00000
 Mulliken charges with hydrogens summed into heavy atoms:
               1
     1  C    0.185680
     2  C   -0.171924
     3  S    0.023581
     4  C   -0.128062
     5  C    0.051496
     6  C   -0.194127
     7  C   -0.045039
     8  C    0.073934
    10  C    0.040710
    11  C    0.075796
    12  C    0.036010
    13  C    0.003075
    17  C   -0.016783
    23  S    0.043498
    24  N   -0.000841
    25  C   -0.097079
    26  C    0.054939
    27  C    0.050792
    28  C   -0.003988
    29  C   -0.003100
    30  C    0.010691
    36  C   -0.105063
    37  C    0.061782
    38  C    0.056078
    39  C   -0.005180
    40  C   -0.009713
    41  C    0.012837
 Electronic spatial extent (au):  <R**2>=          15344.3412
 Charge=             -0.0000 electrons
 Dipole moment (field-independent basis, Debye):
    X=              2.2685    Y=              1.2365    Z=              1.4548  Tot=              2.9650
 Quadrupole moment (field-independent basis, Debye-Ang):
   XX=           -154.2999   YY=           -163.0899   ZZ=           -171.7267
   XY=             -5.4612   XZ=             -6.7167   YZ=              1.2018
 Traceless Quadrupole moment (field-independent basis, Debye-Ang):
   XX=              8.7389   YY=             -0.0511   ZZ=             -8.6878
   XY=             -5.4612   XZ=             -6.7167   YZ=              1.2018
 Octapole moment (field-independent basis, Debye-Ang**2):
  XXX=            -99.2562  YYY=              4.8383  ZZZ=              2.8970  XYY=             50.8974
  XXY=             13.0649  XXZ=             44.2165  XZZ=              9.2279  YZZ=              6.6300
  YYZ=              6.2011  XYZ=            -20.3424
 Hexadecapole moment (field-independent basis, Debye-Ang**3):
 XXXX=         -14799.2720 YYYY=          -3411.9941 ZZZZ=          -1258.9477 XXXY=            -29.8446
 XXXZ=           -169.0597 YYYX=             -6.3278 YYYZ=             43.4578 ZZZX=             10.0424
 ZZZY=             23.9815 XXYY=          -3254.6786 XXZZ=          -2966.9780 YYZZ=           -808.3266
 XXYZ=            -29.8075 YYXZ=            -33.5789 ZZXY=            -59.9140
 N-N= 2.474684767360D+03 E-N=-9.117361402079D+03  KE= 1.769833623182D+03
 No NMR shielding tensors so no spin-rotation constants.
 Leave Link  601 at Tue Jan 19 15:29:21 2021, MaxMem=  4026531840 cpu:               3.4 elap:               0.5
 (Enter /opt/ohpc/pub/libs/gaussian/g16-A.03/sandybridge/g16/l9999.exe)

 Test job not archived.
 1\1\GINC-CASCADEB058\SP\RLC-wHPBE\TZVP\C24H19N1S2\RDU230\19-Jan-2021\0
 \\#P LC-wHPBE/TZVP iop(3/107=0180600000, 3/108=0180600000) scf=(conver
 =6,fermi,ndamp=35,noincfock,novaracc,vshift=500,xqc)\\H19 C24 S2 N1\\0
 ,1\C,0,-3.352046,1.022081,0.90149\C,0,-4.015603,0.124147,0.077833\S,0,
 -3.193622,-0.833868,-1.176213\C,0,-5.398593,-0.028228,0.207342\C,0,-0.
 749106,0.373785,-1.531691\C,0,-1.475477,-0.56699,-0.815552\C,0,-4.0415
 16,1.761821,1.844012\C,0,-6.080951,0.720801,1.156415\H,0,-7.475944,-0.
 835079,-0.458792\C,0,0.601771,0.54717,-1.299188\C,0,-0.823428,-1.33634
 6,0.139234\C,0,0.521569,-1.15492,0.389409\C,0,1.255724,-0.212476,-0.33
 1046\H,0,1.160253,1.275483,-1.876291\H,0,-1.383265,-2.076857,0.700814\
 H,0,1.015474,-1.752114,1.147605\C,0,-5.411167,1.613701,1.970885\H,0,-2
 .279577,1.141824,0.800598\H,0,-1.248138,0.967582,-2.290346\H,0,-3.5032
 27,2.458074,2.478369\H,0,-7.154267,0.598627,1.263844\H,0,-5.962434,2.1
 89124,2.706912\S,0,-6.238224,-1.192989,-0.835805\N,0,2.627173,-0.03758
 6,-0.087724\C,0,3.438312,-1.140752,0.276409\C,0,4.374889,-1.012928,1.2
 95896\C,0,3.317625,-2.35655,-0.387733\C,0,5.1794,-2.084309,1.64001\C,0
 ,4.112866,-3.428755,-0.025756\C,0,5.049979,-3.298472,0.986151\H,0,4.47
 0709,-0.064848,1.814448\H,0,2.593785,-2.456724,-1.189607\H,0,5.90745,-
 1.970366,2.436839\H,0,4.006805,-4.37257,-0.551042\H,0,5.67733,-4.13910
 6,1.26285\C,0,3.224517,1.239724,-0.221989\C,0,4.446224,1.376745,-0.871
 25\C,0,2.604731,2.367846,0.304633\C,0,5.03746,2.622109,-0.986244\C,0,3
 .193018,3.612223,0.169883\C,0,4.413292,3.746533,-0.472133\H,0,4.931907
 ,0.498005,-1.282066\H,0,1.656156,2.262505,0.820378\H,0,5.992055,2.7142
 7,-1.494403\H,0,2.697309,4.484427,0.584059\H,0,4.876004,4.72281,-0.569
 917\\Version=EM64L-G16RevA.03\State=1-A\HF=-1776.2107285\RMSD=7.296e-0
 7\Dipole=0.8924979,0.4864658,0.5723623\Quadrupole=6.4971616,-0.037987,
 -6.4591746,-4.0602926,-4.9937173,0.8935077\PG=C01 [X(C24H19N1S2)]\\@


 A ROPE OVER THE TOP OF A FENCE HAS THE SAME LENGTH ON EACH SIDE.
 WEIGHS 1/3 POUND PER FOOT.  ON ONE END HANGS A MONKEY HOLDING A
 BANANA, AND ON THE OTHER END A WEIGHT EQUAL TO THE WEIGHT
 OF THE MONKEY.  THE BANANA WEIGHS TWO OUNCES PER INCH.
 THE ROPE IS AS LONG AS THE AGE OF THE MONKEY, 
 AND THE WEIGHT OF THE MONKEY (IN OUNCES) IS AS MUCH
 AS THE AGE OF THE MONKEY'S MOTHER.  THE COMBINED AGES OF MONKEY
 AND MOTHER ARE THIRTY YEARS.  HALF THE WEIGHT OF THE MONKEY,
  PLUS THE WEIGHT OF THE BANANA, IS ONE FOURTH AS MUCH AS THE WEIGHT
 OF THE WEIGHT AND THE ROPE.
 THE MONKEY'S MOTHER IS HALF AS OLD AS THE MONKEY WILL BE
 WHEN IT IS 3 TIMES AS OLD AS ITS MOTHER WAS WHEN
 SHE WAS HALF AS OLD AS THE MONKEY WILL BE WHEN IT IS
 AS OLD AS ITS MOTHER WILL BE WHEN SHE IS 4 TIMES AS
 OLD AS THE MONKEY WAS WHEN IT WAS TWICE AS OLD AS 
 ITS MOTHER WAS WHEN SHE WAS ONE THIRD AS OLD AS THE
 MONKEY WAS WHEN IT WAS AS OLD AS ITS MOTHER WAS WHEN 
 SHE WAS 3 TIMES AS OLD AS THE MONKEY WAS WHEN IT WAS AS OLD AS ITS
 MOTHER WAS WHEN SHE WAS 3 TIMES AS OLD AS THE MONKEY 
 WAS WHEN IT WAS ONE FOURTH WAS OLD AS IT IS NOW.

 HOW LONG IS THE BANANA?
 Job cpu time:       0 days  1 hours 21 minutes 35.1 seconds.
 Elapsed time:       0 days  0 hours 10 minutes 13.9 seconds.
 File lengths (MBytes):  RWF=    172 Int=      0 D2E=      0 Chk=     28 Scr=      8
 Normal termination of Gaussian 16 at Tue Jan 19 15:29:21 2021.
