 Entering Gaussian System, Link 0=g16
 Input=mol_ta_pa_half_tune_c0.gjf
 Output=mol_ta_pa_half_tune_c0.log
 Initial command:
 /opt/ohpc/pub/libs/gaussian/g16-A.03/sandybridge/g16/l1.exe "/mnt/gpfs2_4m/scratch/rdu230/ondemand/projects/init_structures/wtuning/mol_ta_pa_half/tuning_mol_ta_pa_half_ocycle0/Gau-201786.inp" -scrdir="/mnt/gpfs2_4m/scratch/rdu230/ondemand/projects/init_structures/wtuning/mol_ta_pa_half/tuning_mol_ta_pa_half_ocycle0/"
 Entering Link 1 = /opt/ohpc/pub/libs/gaussian/g16-A.03/sandybridge/g16/l1.exe PID=    201787.
  
 Copyright (c) 1988,1990,1992,1993,1995,1998,2003,2009,2016,
            Gaussian, Inc.  All Rights Reserved.
  
 This is part of the Gaussian(R) 16 program.  It is based on
 the Gaussian(R) 09 system (copyright 2009, Gaussian, Inc.),
 the Gaussian(R) 03 system (copyright 2003, Gaussian, Inc.),
 the Gaussian(R) 98 system (copyright 1998, Gaussian, Inc.),
 the Gaussian(R) 94 system (copyright 1995, Gaussian, Inc.),
 the Gaussian 92(TM) system (copyright 1992, Gaussian, Inc.),
 the Gaussian 90(TM) system (copyright 1990, Gaussian, Inc.),
 the Gaussian 88(TM) system (copyright 1988, Gaussian, Inc.),
 the Gaussian 86(TM) system (copyright 1986, Carnegie Mellon
 University), and the Gaussian 82(TM) system (copyright 1983,
 Carnegie Mellon University). Gaussian is a federally registered
 trademark of Gaussian, Inc.
  
 This software contains proprietary and confidential information,
 including trade secrets, belonging to Gaussian, Inc.
  
 This software is provided under written license and may be
 used, copied, transmitted, or stored only in accord with that
 written license.
  
 The following legend is applicable only to US Government
 contracts under FAR:
  
                    RESTRICTED RIGHTS LEGEND
  
 Use, reproduction and disclosure by the US Government is
 subject to restrictions as set forth in subparagraphs (a)
 and (c) of the Commercial Computer Software - Restricted
 Rights clause in FAR 52.227-19.
  
 Gaussian, Inc.
 340 Quinnipiac St., Bldg. 40, Wallingford CT 06492
  
  
 ---------------------------------------------------------------
 Warning -- This program may not be used in any manner that
 competes with the business of Gaussian, Inc. or will provide
 assistance to any competitor of Gaussian, Inc.  The licensee
 of this program is prohibited from giving any competitor of
 Gaussian, Inc. access to this program.  By using this program,
 the user acknowledges that Gaussian, Inc. is engaged in the
 business of creating and licensing software in the field of
 computational chemistry and represents and warrants to the
 licensee that it is not a competitor of Gaussian, Inc. and that
 it will not use this program in any manner prohibited above.
 ---------------------------------------------------------------
  

 Cite this work as:
 Gaussian 16, Revision A.03,
 M. J. Frisch, G. W. Trucks, H. B. Schlegel, G. E. Scuseria, 
 M. A. Robb, J. R. Cheeseman, G. Scalmani, V. Barone, 
 G. A. Petersson, H. Nakatsuji, X. Li, M. Caricato, A. V. Marenich, 
 J. Bloino, B. G. Janesko, R. Gomperts, B. Mennucci, H. P. Hratchian, 
 J. V. Ortiz, A. F. Izmaylov, J. L. Sonnenberg, D. Williams-Young, 
 F. Ding, F. Lipparini, F. Egidi, J. Goings, B. Peng, A. Petrone, 
 T. Henderson, D. Ranasinghe, V. G. Zakrzewski, J. Gao, N. Rega, 
 G. Zheng, W. Liang, M. Hada, M. Ehara, K. Toyota, R. Fukuda, 
 J. Hasegawa, M. Ishida, T. Nakajima, Y. Honda, O. Kitao, H. Nakai, 
 T. Vreven, K. Throssell, J. A. Montgomery, Jr., J. E. Peralta, 
 F. Ogliaro, M. J. Bearpark, J. J. Heyd, E. N. Brothers, K. N. Kudin, 
 V. N. Staroverov, T. A. Keith, R. Kobayashi, J. Normand, 
 K. Raghavachari, A. P. Rendell, J. C. Burant, S. S. Iyengar, 
 J. Tomasi, M. Cossi, J. M. Millam, M. Klene, C. Adamo, R. Cammi, 
 J. W. Ochterski, R. L. Martin, K. Morokuma, O. Farkas, 
 J. B. Foresman, and D. J. Fox, Gaussian, Inc., Wallingford CT, 2016.
 
 ******************************************
 Gaussian 16:  EM64L-G16RevA.03 25-Dec-2016
                18-Jan-2021 
 ******************************************
 %mem=30GB
 %nproc=8
 Will use up to    8 processors via shared memory.
 ----------------------------------------------------------------------
 #P LC-wHPBE/TZVP iop(3/107=0221900000, 3/108=0221900000) scf=(conver=6
 ,fermi,ndamp=35,noincfock,novaracc,vshift=500,xqc)
 ----------------------------------------------------------------------
 1/38=1,172=1/1;
 2/12=2,17=6,18=5,40=1/2;
 3/5=19,7=101,11=2,25=1,30=1,74=-71,107=221900000,108=221900000/1,2,3;
 4//1;
 5/5=100002,6=6,8=3,10=500,13=1,18=-1,22=13,38=1,93=35/2,8;
 6/7=2,8=2,9=2,10=2,28=1/1;
 99/5=1,9=1/99;
 Leave Link    1 at Mon Jan 18 12:41:16 2021, MaxMem=  4026531840 cpu:               1.6 elap:               0.3
 (Enter /opt/ohpc/pub/libs/gaussian/g16-A.03/sandybridge/g16/l101.exe)
 -------------
 H19 C24 S2 N1
 -------------
 Symbolic Z-matrix:
 Charge =  1 Multiplicity = 2
 C                    -3.35205   1.02208   0.90149 
 C                    -4.0156    0.12415   0.07783 
 S                    -3.19362  -0.83387  -1.17621 
 C                    -5.39859  -0.02823   0.20734 
 C                    -0.74911   0.37379  -1.53169 
 C                    -1.47548  -0.56699  -0.81555 
 C                    -4.04152   1.76182   1.84401 
 C                    -6.08095   0.7208    1.15641 
 H                    -7.47594  -0.83508  -0.45879 
 C                     0.60177   0.54717  -1.29919 
 C                    -0.82343  -1.33635   0.13923 
 C                     0.52157  -1.15492   0.38941 
 C                     1.25572  -0.21248  -0.33105 
 H                     1.16025   1.27548  -1.87629 
 H                    -1.38327  -2.07686   0.70081 
 H                     1.01547  -1.75211   1.1476 
 C                    -5.41117   1.6137    1.97089 
 H                    -2.27958   1.14182   0.8006 
 H                    -1.24814   0.96758  -2.29035 
 H                    -3.50323   2.45807   2.47837 
 H                    -7.15427   0.59863   1.26384 
 H                    -5.96243   2.18912   2.70691 
 S                    -6.23822  -1.19299  -0.83581 
 N                     2.62717  -0.03759  -0.08772 
 C                     3.43831  -1.14075   0.27641 
 C                     4.37489  -1.01293   1.2959 
 C                     3.31763  -2.35655  -0.38773 
 C                     5.1794   -2.08431   1.64001 
 C                     4.11287  -3.42876  -0.02576 
 C                     5.04998  -3.29847   0.98615 
 H                     4.47071  -0.06485   1.81445 
 H                     2.59379  -2.45672  -1.18961 
 H                     5.90745  -1.97037   2.43684 
 H                     4.0068   -4.37257  -0.55104 
 H                     5.67733  -4.13911   1.26285 
 C                     3.22452   1.23972  -0.22199 
 C                     4.44622   1.37675  -0.87125 
 C                     2.60473   2.36785   0.30463 
 C                     5.03746   2.62211  -0.98624 
 C                     3.19302   3.61222   0.16988 
 C                     4.41329   3.74653  -0.47213 
 H                     4.93191   0.49801  -1.28207 
 H                     1.65616   2.2625    0.82038 
 H                     5.99206   2.71427  -1.4944 
 H                     2.69731   4.48443   0.58406 
 H                     4.876     4.72281  -0.56992 
 
 ITRead=  0  0  0  0  0  0  0  0  0  0  0  0  0  0  0  0  0  0  0  0
 ITRead=  0  0  0  0  0  0  0  0  0  0  0  0  0  0  0  0  0  0  0  0
 ITRead=  0  0  0  0  0  0
 MicOpt= -1 -1 -1 -1 -1 -1 -1 -1 -1 -1 -1 -1 -1 -1 -1 -1 -1 -1 -1 -1
 MicOpt= -1 -1 -1 -1 -1 -1 -1 -1 -1 -1 -1 -1 -1 -1 -1 -1 -1 -1 -1 -1
 MicOpt= -1 -1 -1 -1 -1 -1
 NAtoms=     46 NQM=       46 NQMF=       0 NMMI=      0 NMMIF=      0
                NMic=       0 NMicF=      0.
                    Isotopes and Nuclear Properties:
 (Nuclear quadrupole moments (NQMom) in fm**2, nuclear magnetic moments (NMagM)
  in nuclear magnetons)

  Atom         1           2           3           4           5           6           7           8           9          10
 IAtWgt=          12          12          32          12          12          12          12          12           1          12
 AtmWgt=  12.0000000  12.0000000  31.9720718  12.0000000  12.0000000  12.0000000  12.0000000  12.0000000   1.0078250  12.0000000
 NucSpn=           0           0           0           0           0           0           0           0           1           0
 AtZEff=  -0.0000000  -0.0000000  -0.0000000  -0.0000000  -0.0000000  -0.0000000  -0.0000000  -0.0000000  -0.0000000  -0.0000000
 NQMom=    0.0000000   0.0000000   0.0000000   0.0000000   0.0000000   0.0000000   0.0000000   0.0000000   0.0000000   0.0000000
 NMagM=    0.0000000   0.0000000   0.0000000   0.0000000   0.0000000   0.0000000   0.0000000   0.0000000   2.7928460   0.0000000
 AtZNuc=   6.0000000   6.0000000  16.0000000   6.0000000   6.0000000   6.0000000   6.0000000   6.0000000   1.0000000   6.0000000

  Atom        11          12          13          14          15          16          17          18          19          20
 IAtWgt=          12          12          12           1           1           1          12           1           1           1
 AtmWgt=  12.0000000  12.0000000  12.0000000   1.0078250   1.0078250   1.0078250  12.0000000   1.0078250   1.0078250   1.0078250
 NucSpn=           0           0           0           1           1           1           0           1           1           1
 AtZEff=  -0.0000000  -0.0000000  -0.0000000  -0.0000000  -0.0000000  -0.0000000  -0.0000000  -0.0000000  -0.0000000  -0.0000000
 NQMom=    0.0000000   0.0000000   0.0000000   0.0000000   0.0000000   0.0000000   0.0000000   0.0000000   0.0000000   0.0000000
 NMagM=    0.0000000   0.0000000   0.0000000   2.7928460   2.7928460   2.7928460   0.0000000   2.7928460   2.7928460   2.7928460
 AtZNuc=   6.0000000   6.0000000   6.0000000   1.0000000   1.0000000   1.0000000   6.0000000   1.0000000   1.0000000   1.0000000

  Atom        21          22          23          24          25          26          27          28          29          30
 IAtWgt=           1           1          32          14          12          12          12          12          12          12
 AtmWgt=   1.0078250   1.0078250  31.9720718  14.0030740  12.0000000  12.0000000  12.0000000  12.0000000  12.0000000  12.0000000
 NucSpn=           1           1           0           2           0           0           0           0           0           0
 AtZEff=  -0.0000000  -0.0000000  -0.0000000  -0.0000000  -0.0000000  -0.0000000  -0.0000000  -0.0000000  -0.0000000  -0.0000000
 NQMom=    0.0000000   0.0000000   0.0000000   2.0440000   0.0000000   0.0000000   0.0000000   0.0000000   0.0000000   0.0000000
 NMagM=    2.7928460   2.7928460   0.0000000   0.4037610   0.0000000   0.0000000   0.0000000   0.0000000   0.0000000   0.0000000
 AtZNuc=   1.0000000   1.0000000  16.0000000   7.0000000   6.0000000   6.0000000   6.0000000   6.0000000   6.0000000   6.0000000

  Atom        31          32          33          34          35          36          37          38          39          40
 IAtWgt=           1           1           1           1           1          12          12          12          12          12
 AtmWgt=   1.0078250   1.0078250   1.0078250   1.0078250   1.0078250  12.0000000  12.0000000  12.0000000  12.0000000  12.0000000
 NucSpn=           1           1           1           1           1           0           0           0           0           0
 AtZEff=  -0.0000000  -0.0000000  -0.0000000  -0.0000000  -0.0000000  -0.0000000  -0.0000000  -0.0000000  -0.0000000  -0.0000000
 NQMom=    0.0000000   0.0000000   0.0000000   0.0000000   0.0000000   0.0000000   0.0000000   0.0000000   0.0000000   0.0000000
 NMagM=    2.7928460   2.7928460   2.7928460   2.7928460   2.7928460   0.0000000   0.0000000   0.0000000   0.0000000   0.0000000
 AtZNuc=   1.0000000   1.0000000   1.0000000   1.0000000   1.0000000   6.0000000   6.0000000   6.0000000   6.0000000   6.0000000

  Atom        41          42          43          44          45          46
 IAtWgt=          12           1           1           1           1           1
 AtmWgt=  12.0000000   1.0078250   1.0078250   1.0078250   1.0078250   1.0078250
 NucSpn=           0           1           1           1           1           1
 AtZEff=  -0.0000000  -0.0000000  -0.0000000  -0.0000000  -0.0000000  -0.0000000
 NQMom=    0.0000000   0.0000000   0.0000000   0.0000000   0.0000000   0.0000000
 NMagM=    0.0000000   2.7928460   2.7928460   2.7928460   2.7928460   2.7928460
 AtZNuc=   6.0000000   1.0000000   1.0000000   1.0000000   1.0000000   1.0000000
 Leave Link  101 at Mon Jan 18 12:41:16 2021, MaxMem=  4026531840 cpu:               0.7 elap:               0.1
 (Enter /opt/ohpc/pub/libs/gaussian/g16-A.03/sandybridge/g16/l202.exe)
                          Input orientation:                          
 ---------------------------------------------------------------------
 Center     Atomic      Atomic             Coordinates (Angstroms)
 Number     Number       Type             X           Y           Z
 ---------------------------------------------------------------------
      1          6           0       -3.352046    1.022081    0.901490
      2          6           0       -4.015603    0.124147    0.077833
      3         16           0       -3.193622   -0.833868   -1.176213
      4          6           0       -5.398593   -0.028228    0.207342
      5          6           0       -0.749106    0.373785   -1.531691
      6          6           0       -1.475477   -0.566990   -0.815552
      7          6           0       -4.041516    1.761821    1.844012
      8          6           0       -6.080951    0.720801    1.156415
      9          1           0       -7.475944   -0.835079   -0.458792
     10          6           0        0.601771    0.547170   -1.299188
     11          6           0       -0.823428   -1.336346    0.139234
     12          6           0        0.521569   -1.154920    0.389409
     13          6           0        1.255724   -0.212476   -0.331046
     14          1           0        1.160253    1.275483   -1.876291
     15          1           0       -1.383265   -2.076857    0.700814
     16          1           0        1.015474   -1.752114    1.147605
     17          6           0       -5.411167    1.613701    1.970885
     18          1           0       -2.279577    1.141824    0.800598
     19          1           0       -1.248138    0.967582   -2.290346
     20          1           0       -3.503227    2.458074    2.478369
     21          1           0       -7.154267    0.598627    1.263844
     22          1           0       -5.962434    2.189124    2.706912
     23         16           0       -6.238224   -1.192989   -0.835805
     24          7           0        2.627173   -0.037586   -0.087724
     25          6           0        3.438312   -1.140752    0.276409
     26          6           0        4.374889   -1.012928    1.295896
     27          6           0        3.317625   -2.356550   -0.387733
     28          6           0        5.179400   -2.084309    1.640010
     29          6           0        4.112866   -3.428755   -0.025756
     30          6           0        5.049979   -3.298472    0.986151
     31          1           0        4.470709   -0.064848    1.814448
     32          1           0        2.593785   -2.456724   -1.189607
     33          1           0        5.907450   -1.970366    2.436839
     34          1           0        4.006805   -4.372570   -0.551042
     35          1           0        5.677330   -4.139106    1.262850
     36          6           0        3.224517    1.239724   -0.221989
     37          6           0        4.446224    1.376745   -0.871250
     38          6           0        2.604731    2.367846    0.304633
     39          6           0        5.037460    2.622109   -0.986244
     40          6           0        3.193018    3.612223    0.169883
     41          6           0        4.413292    3.746533   -0.472133
     42          1           0        4.931907    0.498005   -1.282066
     43          1           0        1.656156    2.262505    0.820378
     44          1           0        5.992055    2.714270   -1.494403
     45          1           0        2.697309    4.484427    0.584059
     46          1           0        4.876004    4.722810   -0.569917
 ---------------------------------------------------------------------
                    Distance matrix (angstroms):
                    1          2          3          4          5
     1  C    0.000000
     2  C    1.387445   0.000000
     3  S    2.790429   1.779347   0.000000
     4  C    2.402779   1.397373   2.724918   0.000000
     5  C    3.621596   3.650053   2.749627   4.980319   0.000000
     6  C    2.999148   2.779937   1.775760   4.089916   1.387634
     7  C    1.382365   2.408742   4.071644   2.779320   4.915484
     8  C    2.757296   2.405202   4.024279   1.388307   5.981213
     9  H    4.722917   3.630708   4.342001   2.325969   6.918296
    10  C    4.549856   4.836867   4.040717   6.213299   1.381662
    11  C    3.540780   3.510953   2.756938   4.758986   2.392083
    12  C    4.472857   4.724301   4.044365   6.029171   2.764449
    13  C    4.926948   5.297866   4.571336   6.678603   2.409272
    14  H    5.304821   5.650988   4.888323   7.004259   2.139500
    15  H    3.676926   3.487367   2.888883   4.534672   3.375186
    16  H    5.179958   5.475080   4.894874   6.707916   3.848612
    17  C    2.394494   2.783885   4.562053   2.409600   5.961564
    18  H    1.083839   2.138187   2.940513   3.383672   2.893406
    19  H    3.823247   3.738785   2.876008   4.945337   1.084982
    20  H    2.138102   3.387081   4.928357   3.864152   5.292450
    21  H    3.842850   3.388652   4.867507   2.142787   6.992257
    22  H    3.381666   3.868635   5.646544   3.388571   6.959885
    23  S    4.031718   2.740370   3.084550   1.774769   5.750605
    24  N    6.152438   6.646807   5.974992   8.031194   3.695068
    25  C    7.153848   7.563085   6.796090   8.906928   4.805988
    26  C    8.000146   8.554354   7.964028   9.883093   6.014445
    27  C    7.586946   7.755440   6.733246   9.041441   5.030077
    28  C    9.109371   9.584662   8.922007  10.870784   7.158847
    29  C    8.740403   8.871632   7.838479  10.103750   6.353418
    30  C    9.448194   9.732633   8.871699  10.976051   7.311251
    31  H    7.950497   8.664239   8.263015   9.999363   6.215747
    32  H    7.199144   7.207726   6.010651   8.469189   4.393600
    33  H    9.851411  10.412438   9.857752  11.686281   8.096543
    34  H    9.239307   9.218187   8.047323  10.387972   6.790305
    35  H   10.406636  10.655165   9.775859  11.861260   8.335150
    36  C    6.675384   7.331694   6.811963   8.726400   4.272569
    37  C    8.005086   8.606525   7.959087  10.002886   5.332313
    38  C    6.136001   6.993886   6.787104   8.354869   4.312376
    39  C    8.746853   9.451456   8.929198  10.833288   6.231919
    40  C    7.076860   8.008706   7.897396   9.331134   5.378027
    41  C    8.343258   9.190779   8.907353  10.534875   6.256872
    42  H    8.582916   9.057982   8.234641  10.450574   5.687851
    43  H    5.160166   6.106783   6.090505   7.442631   3.858079
    44  H    9.793673  10.456284   9.852268  11.839092   7.136001
    45  H    6.977342   8.020692   8.129323   9.276292   5.766416
    46  H    9.141184  10.031349   9.816472  11.346534   7.175018
                    6          7          8          9         10
     6  C    0.000000
     7  C    4.368203   0.000000
     8  C    5.172760   2.390775   0.000000
     9  H    6.017039   4.882836   2.641148   0.000000
    10  C    2.406287   5.737177   7.121721   8.238104   0.000000
    11  C    1.388774   4.781318   5.736555   6.698125   2.765481
    12  C    2.405366   5.607583   6.906511   8.048724   2.398938
    13  C    2.796406   6.057184   7.543895   8.754769   1.393562
    14  H    3.386288   6.413703   7.870198   9.002648   1.084154
    15  H    2.141861   4.807146   5.486594   6.325143   3.850441
    16  H    3.385756   6.197247   7.514961   8.690549   3.382995
    17  C    5.292381   1.383467   1.381753   4.020343   6.927214
    18  H    2.485672   2.139518   3.841134   5.700565   3.614537
    19  H    2.140470   5.052395   5.941140   6.737191   2.140398
    20  H    4.910468   1.084865   3.377920   5.937529   5.896821
    21  H    6.158832   3.373253   1.085576   2.264170   8.168715
    22  H    6.335353   2.148746   2.138705   4.632299   7.863437
    23  S    4.803753   4.553883   2.766996   1.342456   7.073076
    24  N    4.200207   7.172230   8.829182  10.141334   2.431427
    25  C    5.066251   8.174970   9.739413  10.943260   3.657534
    26  C    6.235692   8.878938  10.599522  11.981352   4.837849
    27  C    5.134139   8.723452  10.009381  10.900507   4.078995
    28  C    7.253925   9.992979  11.614560  12.888882   6.043033
    29  C    6.327958   9.845408  11.069338  11.883400   5.455034
    30  C    7.299911  10.440200  11.835588  12.847370   6.308589
    31  H    6.521210   8.706065  10.601310  12.185376   5.003796
    32  H    4.502211   8.427703   9.531607  10.225618   3.606038
    33  H    8.188719  10.642490  12.353284  13.740043   6.960324
    34  H    6.678909  10.399159  11.428940  12.015651   6.029745
    35  H    8.260897  11.384843  12.723490  13.670745   7.367939
    36  C    5.070155   7.572066   9.421306  10.902328   2.918696
    37  C    6.232796   8.919790  10.740722  12.132616   3.956153
    38  C    5.149386   6.849055   8.881405  10.604789   3.146260
    39  C    7.253815   9.548730  11.481508  12.992907   4.906999
    40  C    6.342850   7.652789   9.764224  11.575858   4.274024
    41  C    7.307668   8.988180  11.042480  12.741479   5.044565
    42  H    6.512021   9.586027  11.281794  12.506385   4.330449
    43  H    4.526526   5.810506   7.896366   9.727618   2.923467
    44  H    8.184836  10.617190  12.520313  13.966294   5.812882
    45  H    6.699841   7.376437   9.568193  11.527348   4.841476
    46  H    8.269440   9.701375  11.791996  13.545224   6.019707
                   11         12         13         14         15
    11  C    0.000000
    12  C    1.380043   0.000000
    13  C    2.409797   1.395077   0.000000
    14  H    3.849543   3.383515   2.147305   0.000000
    15  H    1.084964   2.139003   3.391890   4.934485   0.000000
    16  H    2.138045   1.084179   2.148165   4.281501   2.461509
    17  C    5.753701   6.735257   7.285688   7.622251   5.608680
    18  H    2.949423   3.645618   3.951342   4.360737   3.342640
    19  H    3.375103   3.849411   3.391271   2.463045   4.270118
    20  H    5.201009   5.797971   6.137774   6.489193   5.312207
    21  H    6.714789   7.921996   8.598227   8.913463   6.385897
    22  H    6.740274   7.654786   8.191378   8.518988   6.572048
    23  S    5.503750   6.870036   7.574658   7.868509   5.168467
    24  N    3.693905   2.430979   1.403804   2.659883   4.567716
    25  C    4.268431   2.918965   2.448344   3.957507   4.929910
    26  C    5.335257   3.961055   3.607888   5.062952   5.885780
    27  C    4.297305   3.140986   2.975181   4.479031   4.833377
    28  C    6.232634   4.911533   4.773264   6.309209   6.629534
    29  C    5.363991   4.270843   4.312878   5.854251   5.706399
    30  C    6.250129   5.045534   5.065052   6.651662   6.554418
    31  H    5.696572   4.337591   3.867954   5.135870   6.289465
    32  H    3.833851   2.912398   2.750306   4.056589   4.419832
    33  H    7.140426   5.819333   5.691214   7.188498   7.495308
    34  H    5.746850   4.835762   4.992317   6.462170   5.990851
    35  H    7.167833   6.020809   6.124502   7.718547   7.377043
    36  C    4.811702   3.662520   2.448862   2.645596   5.751776
    37  C    6.012585   4.837510   3.605098   3.437727   6.955695
    38  C    5.049819   4.093486   2.980263   2.834820   5.984685
    39  C    7.161430   6.045795   4.771340   4.199800   8.133398
    40  C    6.373469   5.469048   4.316522   3.712050   7.320511
    41  C    7.323433   6.317595   5.065954   4.319723   8.299864
    42  H    6.205547   4.997707   3.863100   3.896530   7.102332
    43  H    4.423124   3.626543   2.758923   2.914130   5.299287
    44  H    8.094879   6.960287   5.687888   5.055913   9.064724
    45  H    6.817247   6.047642   4.997648   4.325874   7.727559
    46  H    8.348640   7.377609   6.125401   5.234260   9.328916
                   16         17         18         19         20
    16  H    0.000000
    17  C    7.301248   0.000000
    18  H    4.399165   3.376255   0.000000
    19  H    4.933578   5.992192   3.263152   0.000000
    20  H    6.317854   2.147264   2.458607   5.481572   0.000000
    21  H    8.502009   2.137447   4.926689   6.902953   4.273489
    22  H    8.164312   1.084778   4.277184   6.977775   2.484404
    23  S    7.540734   4.054509   4.878530   5.628918   5.638636
    24  N    2.657671   8.460469   5.124092   4.569457   7.098941
    25  C    2.646297   9.421865   6.178930   5.744225   8.123124
    26  C    3.442972  10.154885   7.012146   6.957153   8.689696
    27  C    2.832403   9.875109   6.706670   5.959529   8.827183
    28  C    4.206078  11.222516   8.169999   8.128652   9.834841
    29  C    3.712376  10.959934   7.901669   7.293594   9.946370
    30  C    4.323716  11.598910   8.571642   8.282568  10.417383
    31  H    3.902588  10.024643   6.931833   7.114805   8.389850
    32  H    2.906906   9.520311   6.376529   5.262877   8.647707
    33  H    5.063713  11.881656   8.910130   9.065333  10.400656
    34  H    4.324379  11.440881   8.470777   7.691348  10.594131
    35  H    5.238694  12.512029   9.561081   9.309435  11.370264
    36  C    3.963175   8.917600   5.599136   4.935261   7.351112
    37  C    5.063159  10.261678   6.934455   5.882772   8.693848
    38  C    4.495599   8.221907   5.060195   4.851727   6.483858
    39  C    6.313756  10.905746   7.676137   6.629245   9.218123
    40  C    5.871435   9.014971   6.037381   5.724572   7.176410
    41  C    6.663620  10.345883   7.293754   6.563555   8.546161
    42  H    5.128819  10.899800   7.533757   6.279338   9.441092
    43  H    4.078568   7.189692   4.092226   4.448410   5.422768
    44  H    7.189934  11.968832   8.726942   7.490316  10.296064
    45  H    6.483872   8.712734   5.999106   6.016391   6.792729
    46  H    7.731637  11.043012   8.118135   7.386930   9.199597
                   21         22         23         24         25
    21  H    0.000000
    22  H    2.456134   0.000000
    23  S    2.908186   4.905669   0.000000
    24  N    9.894851   9.303202   8.971613   0.000000
    25  C   10.779759  10.264962   9.740385   1.416868   0.000000
    26  C   11.641288  10.913494  10.826576   2.433148   1.390277
    27  C   11.005512  10.787005   9.636851   2.438098   1.390617
    28  C   12.627707  11.980859  11.716921   3.699730   2.404391
    29  C   12.034582  11.854944  10.620729   3.702857   2.404430
    30  C   12.814371  12.423686  11.626526   4.201973   2.785132
    31  H   11.656905  10.711086  11.089535   2.649080   2.142190
    32  H   10.506146  10.486927   8.928974   2.658475   2.143411
    33  H   13.363536  12.580479  12.602853   4.568290   3.384134
    34  H   12.352171  12.371573  10.730864   4.572760   3.384155
    35  H   13.678304  13.327262  12.452485   5.286774   3.869935
    36  C   10.504183   9.689164   9.789705   1.416463   2.441470
    37  C   11.820977  11.036456  10.989186   2.433761   2.944622
    38  C    9.964350   8.899393   9.600937   2.437325   3.606371
    39  C   12.561671  11.611397  11.904564   3.700108   4.279099
    40  C   10.832581   9.606458  10.632488   3.702384   4.760492
    41  C   12.113272  10.963008  11.746741   4.202089   5.039490
    42  H   12.351817  11.724269  11.306212   2.650492   2.710202
    43  H    8.977121   7.849032   8.775227   2.656679   3.879967
    44  H   13.598149  12.682138  12.856133   4.568795   4.951623
    45  H   10.612026   9.206849  10.681424   4.572178   5.682110
    46  H   12.849085  11.602970  12.593389   5.286882   6.096276
                   26         27         28         29         30
    26  C    0.000000
    27  C    2.399528   0.000000
    28  C    1.383297   2.766236   0.000000
    29  C    2.766160   1.383134   2.391612   0.000000
    30  C    2.403206   2.403295   1.385090   1.385320   0.000000
    31  H    1.084866   3.380991   2.147299   3.851009   3.387913
    32  H    3.381509   1.084888   3.851082   2.146392   3.387529
    33  H    2.137097   3.851563   1.085346   3.378136   2.145604
    34  H    3.851475   2.136814   3.378139   1.085339   2.145894
    35  H    3.386803   3.386759   2.147644   2.147708   1.084803
    36  C    2.949877   3.601295   4.282266   4.756298   5.038565
    37  C    3.226786   3.930015   4.338533   4.890687   5.066765
    38  C    3.942803   4.827785   5.313552   5.998684   6.208934
    39  C    4.342886   5.301235   5.391449   6.195996   6.240495
    40  C    4.904768   5.996058   6.209466   7.103504   7.202243
    41  C    5.077388   6.201228   6.248743   7.195434   7.222469
    42  H    3.039585   3.399150   3.907445   4.203402   4.424024
    43  H    4.283233   5.055263   5.655072   6.256341   6.516900
    44  H    4.928793   5.838708   5.788896   6.589767   6.572193
    45  H    5.791537   6.937445   7.100993   8.061893   8.140654
    46  H    6.052360   7.251143   7.163288   8.205273   8.172673
                   31         32         33         34         35
    31  H    0.000000
    32  H    4.274139   0.000000
    33  H    2.466292   4.936399   0.000000
    34  H    4.936316   2.464722   4.279073   0.000000
    35  H    4.284831   4.284064   2.476820   2.476967   0.000000
    36  C    2.720658   3.872704   4.957033   5.676099   6.095314
    37  C    3.048239   4.269469   4.927655   5.774967   6.041077
    38  C    3.417516   5.050678   5.854429   6.937665   7.259440
    39  C    3.922349   5.639809   5.793549   7.083586   7.154152
    40  C    4.225866   6.248153   6.608520   8.058468   8.212763
    41  C    4.445039   6.504289   6.586164   8.129655   8.172592
    42  H    3.180866   3.769056   4.568894   5.011258   5.341821
    43  H    3.785030   5.214433   6.213183   7.171511   7.572730
    44  H    4.581101   6.195185   6.116178   7.419869   7.393934
    45  H    5.035346   7.164927   7.443262   9.024945   9.149131
    46  H    5.363873   7.558985   7.409660   9.136838   9.084862
                   36         37         38         39         40
    36  C    0.000000
    37  C    1.390281   0.000000
    38  C    1.390728   2.399183   0.000000
    39  C    2.404545   1.383371   2.765716   0.000000
    40  C    2.404851   2.766197   1.383009   2.391427   0.000000
    41  C    2.785651   2.403388   2.403130   1.385000   1.385385
    42  H    2.142216   1.084823   3.380779   2.147200   3.851006
    43  H    2.142981   3.380925   1.084843   3.850508   2.146352
    44  H    3.384168   2.137027   3.851039   1.085344   3.377984
    45  H    3.384636   3.851534   2.136952   3.377926   1.085361
    46  H    3.870446   3.386984   3.386646   2.147636   2.147824
                   41         42         43         44         45
    41  C    0.000000
    42  H    3.387903   0.000000
    43  H    3.387436   4.273672   0.000000
    44  H    2.145483   2.465934   4.935820   0.000000
    45  H    2.145839   4.936336   2.465113   4.278880   0.000000
    46  H    1.084795   4.284771   4.284092   2.476788   2.476933
                   46
    46  H    0.000000
 Stoichiometry    C24H19NS2(1+,2)
 Framework group  C1[X(C24H19NS2)]
 Deg. of freedom   132
 Full point group                 C1      NOp   1
 Largest Abelian subgroup         C1      NOp   1
 Largest concise Abelian subgroup C1      NOp   1
                         Standard orientation:                         
 ---------------------------------------------------------------------
 Center     Atomic      Atomic             Coordinates (Angstroms)
 Number     Number       Type             X           Y           Z
 ---------------------------------------------------------------------
      1          6           0       -3.352046    1.022081    0.901490
      2          6           0       -4.015603    0.124147    0.077833
      3         16           0       -3.193622   -0.833868   -1.176213
      4          6           0       -5.398593   -0.028228    0.207342
      5          6           0       -0.749106    0.373785   -1.531691
      6          6           0       -1.475477   -0.566990   -0.815552
      7          6           0       -4.041516    1.761821    1.844012
      8          6           0       -6.080951    0.720801    1.156415
      9          1           0       -7.475944   -0.835079   -0.458792
     10          6           0        0.601771    0.547170   -1.299188
     11          6           0       -0.823428   -1.336346    0.139234
     12          6           0        0.521569   -1.154920    0.389409
     13          6           0        1.255724   -0.212476   -0.331046
     14          1           0        1.160253    1.275483   -1.876291
     15          1           0       -1.383265   -2.076857    0.700814
     16          1           0        1.015474   -1.752114    1.147605
     17          6           0       -5.411167    1.613701    1.970885
     18          1           0       -2.279577    1.141824    0.800598
     19          1           0       -1.248138    0.967582   -2.290346
     20          1           0       -3.503227    2.458074    2.478369
     21          1           0       -7.154267    0.598627    1.263844
     22          1           0       -5.962434    2.189124    2.706912
     23         16           0       -6.238224   -1.192989   -0.835805
     24          7           0        2.627173   -0.037586   -0.087724
     25          6           0        3.438312   -1.140752    0.276409
     26          6           0        4.374889   -1.012928    1.295896
     27          6           0        3.317625   -2.356550   -0.387733
     28          6           0        5.179400   -2.084309    1.640010
     29          6           0        4.112866   -3.428755   -0.025756
     30          6           0        5.049979   -3.298472    0.986151
     31          1           0        4.470709   -0.064848    1.814448
     32          1           0        2.593785   -2.456724   -1.189607
     33          1           0        5.907450   -1.970366    2.436839
     34          1           0        4.006805   -4.372570   -0.551042
     35          1           0        5.677330   -4.139106    1.262850
     36          6           0        3.224517    1.239724   -0.221989
     37          6           0        4.446224    1.376745   -0.871250
     38          6           0        2.604731    2.367846    0.304633
     39          6           0        5.037460    2.622109   -0.986244
     40          6           0        3.193018    3.612223    0.169883
     41          6           0        4.413292    3.746533   -0.472133
     42          1           0        4.931907    0.498005   -1.282066
     43          1           0        1.656156    2.262505    0.820378
     44          1           0        5.992055    2.714270   -1.494403
     45          1           0        2.697309    4.484427    0.584059
     46          1           0        4.876004    4.722810   -0.569917
 ---------------------------------------------------------------------
 Rotational constants (GHZ):           0.3083654           0.0766714           0.0675965
 Leave Link  202 at Mon Jan 18 12:41:16 2021, MaxMem=  4026531840 cpu:               0.2 elap:               0.0
 (Enter /opt/ohpc/pub/libs/gaussian/g16-A.03/sandybridge/g16/l301.exe)
 Standard basis: TZVP (5D, 7F)
 Ernie: Thresh=  0.10000D-02 Tol=  0.10000D-05 Strict=F.
 There are   660 symmetry adapted cartesian basis functions of A   symmetry.
 There are   633 symmetry adapted basis functions of A   symmetry.
   633 basis functions,  1121 primitive gaussians,   660 cartesian basis functions
   101 alpha electrons      100 beta electrons
       nuclear repulsion energy      2474.6847673599 Hartrees.
 IExCor=33909 DFT=T Ex+Corr=LC-wHPBE ExCW=0 ScaHFX=  1.000000
 ScaDFX=  1.000000  1.000000  1.000000  1.000000 ScalE2=  1.000000  1.000000
 IRadAn=      5 IRanWt=     -1 IRanGd=            0 ICorTp=0 IEmpDi=  4
 HFx  wShort=  0.000000 wLong=  0.221900 cFull=  0.000000 cShort=  0.000000 cLong=  1.000000
 DFx  wShort=  0.000000 wLong=  0.221900 cFull=  0.000000 cShort=  1.000000 cLong=  0.000000
 NAtoms=   46 NActive=   46 NUniq=   46 SFac= 1.00D+00 NAtFMM=   60 NAOKFM=F Big=F
 Integral buffers will be    131072 words long.
 Raffenetti 2 integral format.
 Two-electron integral symmetry is turned on.
 Leave Link  301 at Mon Jan 18 12:41:16 2021, MaxMem=  4026531840 cpu:               0.4 elap:               0.1
 (Enter /opt/ohpc/pub/libs/gaussian/g16-A.03/sandybridge/g16/l302.exe)
 NPDir=0 NMtPBC=     1 NCelOv=     1 NCel=       1 NClECP=     1 NCelD=      1
         NCelK=      1 NCelE2=     1 NClLst=     1 CellRange=     0.0.
 One-electron integrals computed using PRISM.
 One-electron integral symmetry used in STVInt
 NBasis=   633 RedAO= T EigKep=  6.67D-06  NBF=   633
 NBsUse=   633 1.00D-06 EigRej= -1.00D+00 NBFU=   633
 Precomputing XC quadrature grid using
 IXCGrd= 4 IRadAn=           5 IRanWt=          -1 IRanGd=           0 AccXCQ= 0.00D+00.
 Generated NRdTot=       0 NPtTot=           0 NUsed=           0 NTot=          32
 NSgBfM=   625   625   625   625   625 MxSgAt=    46 MxSgA2=    46.
 Leave Link  302 at Mon Jan 18 12:41:17 2021, MaxMem=  4026531840 cpu:               7.9 elap:               1.0
 (Enter /opt/ohpc/pub/libs/gaussian/g16-A.03/sandybridge/g16/l303.exe)
 DipDrv:  MaxL=1.
 Leave Link  303 at Mon Jan 18 12:41:17 2021, MaxMem=  4026531840 cpu:               0.7 elap:               0.1
 (Enter /opt/ohpc/pub/libs/gaussian/g16-A.03/sandybridge/g16/l401.exe)
 ExpMin= 9.52D-02 ExpMax= 6.07D+04 ExpMxC= 2.07D+03 IAcc=3 IRadAn=         5 AccDes= 0.00D+00
 Harris functional with IExCor=33909 and IRadAn=       5 diagonalized for initial guess.
 HarFok:  IExCor=33909 AccDes= 0.00D+00 IRadAn=         5 IDoV= 1 UseB2=F ITyADJ=14
 ICtDFT=  3500011 ScaDFX=  1.000000  1.000000  1.000000  1.000000
 FoFCou: FMM=F IPFlag=           0 FMFlag=      100000 FMFlg1=           0
         NFxFlg=           0 DoJE=T BraDBF=F KetDBF=T FulRan=T
         wScrn=  0.000000 ICntrl=       500 IOpCl=  0 I1Cent=   200000004 NGrid=           0
         NMat0=    1 NMatS0=      1 NMatT0=    0 NMatD0=    1 NMtDS0=    0 NMtDT0=    0
 Petite list used in FoFCou.
 Harris En= -1752.34091066211    
 JPrj=0 DoOrth=F DoCkMO=F.
 Initial guess <Sx>= 0.0000 <Sy>= 0.0000 <Sz>= 0.5000 <S**2>= 0.7500 S= 0.5000
 Leave Link  401 at Mon Jan 18 12:41:23 2021, MaxMem=  4026531840 cpu:              46.6 elap:               5.9
 (Enter /opt/ohpc/pub/libs/gaussian/g16-A.03/sandybridge/g16/l502.exe)
 Integral symmetry usage will be decided dynamically.
 UHF open shell SCF:
 Using DIIS extrapolation, IDIIS=    10.
 NGot=  4026531840 LenX=  4025648940 LenY=  4025212680
 Requested convergence on RMS density matrix=1.00D-06 within  32 cycles.
 Requested convergence on MAX density matrix=1.00D-04.
 Requested convergence on             energy=1.00D-04.
 Virtual orbitals will be shifted by   0.500 hartree.
 No special actions if energy rises.
 Dynamic level shift is on during FON iterations.

 Cycle   1  Pass 1  IDiag  1:
 FoFJK:  IHMeth= 1 ICntrl=       0 DoSepK=T KAlg= 0 I1Cent=           0 FoldK=F
 IRaf=         1 NMat=       1 IRICut=       1 DoRegI=T DoRafI=F ISym2E= 0 IDoP0=0 IntGTp=1.
 FoFCou: FMM=F IPFlag=           0 FMFlag=      100000 FMFlg1=           0
         NFxFlg=           0 DoJE=T BraDBF=F KetDBF=F FulRan=T
         wScrn=  0.000000 ICntrl=       500 IOpCl=  0 I1Cent=           0 NGrid=           0
         NMat0=    1 NMatS0=      1 NMatT0=    0 NMatD0=    1 NMtDS0=    0 NMtDT0=    0
 Symmetry not used in FoFCou.
 E= -1775.42129456931    
 DIIS: error= 3.69D-02 at cycle   1 NSaved=   1.
 NSaved= 1 IEnMin= 1 EnMin= -1775.42129456931     IErMin= 1 ErrMin= 3.69D-02
 ErrMax= 3.69D-02  0.00D+00 EMaxC= 1.00D+00 BMatC= 2.24D+00 BMatP= 2.24D+00
 IDIUse=1 WtCom= 1.00D+00 WtEn= 0.00D+00
 Coeff-Com:  0.100D+01
 Coeff:      0.100D+01
 Gap=     0.582 Goal=   None    Shift=    0.500
 T= 1620. Gap= 0.561 NK=0 IS=  102 IE=  633 IFin=  101
          NO(<0.9)=   0  NV(>0.1)=   0    101.00e < EF      0.00e >EF  Err=0.0D+00
 Gap=     0.176 Goal=   None    Shift=    0.500
 T= 1620. Gap= 0.388 NK=0 IS=  101 IE=  633 IFin=  100
          NO(<0.9)=   0  NV(>0.1)=   0    100.00e < EF      0.00e >EF  Err=0.0D+00
 GapD=    0.176 DampG=1.000 DampE=0.500 DampFc=0.5000 IDamp=-1.
 Damping current iteration by 5.00D-01
 RMSDP=3.53D-03 MaxDP=2.89D-01              OVMax= 1.34D-01

 Cycle   2  Pass 1  IDiag  1:
 E= -1775.78133119159     Delta-E=       -0.360036622271 Rises=F Damp=T
 DIIS: error= 1.74D-02 at cycle   2 NSaved=   2.
 NSaved= 2 IEnMin= 2 EnMin= -1775.78133119159     IErMin= 2 ErrMin= 1.74D-02
 ErrMax= 1.74D-02  0.00D+00 EMaxC= 1.00D+00 BMatC= 3.33D-01 BMatP= 2.24D+00
 IDIUse=1 WtCom= 1.00D+00 WtEn= 0.00D+00
 Coeff-Com: -0.513D+00 0.151D+01
 Coeff:     -0.513D+00 0.151D+01
 Gap=     0.225 Goal=   None    Shift=    0.500
 T= 1504. Gap= 0.696 NK=0 IS=  102 IE=  633 IFin=  101
          NO(<0.9)=   0  NV(>0.1)=   0    101.00e < EF      0.00e >EF  Err=0.0D+00
 Gap=     0.054 Goal=   None    Shift=    0.500
 T= 1504. Gap= 0.531 NK=0 IS=  101 IE=  633 IFin=  100
          NO(<0.9)=   0  NV(>0.1)=   0    100.00e < EF      0.00e >EF  Err=0.0D+00
 GapD=    0.054 DampG=0.500 DampE=0.500 DampFc=0.2500 IDamp=-1.
 Damping current iteration by 2.50D-01
 RMSDP=2.13D-03 MaxDP=1.48D-01 DE=-3.60D-01 OVMax= 2.48D-02

 Cycle   3  Pass 1  IDiag  1:
 E= -1775.84306835924     Delta-E=       -0.061737167652 Rises=F Damp=T
 DIIS: error= 1.30D-02 at cycle   3 NSaved=   3.
 NSaved= 3 IEnMin= 3 EnMin= -1775.84306835924     IErMin= 3 ErrMin= 1.30D-02
 ErrMax= 1.30D-02  0.00D+00 EMaxC= 1.00D+00 BMatC= 1.65D-01 BMatP= 3.33D-01
 IDIUse=1 WtCom= 1.00D+00 WtEn= 0.00D+00
 Coeff-Com:  0.114D+00-0.293D+01 0.382D+01
 Coeff:      0.114D+00-0.293D+01 0.382D+01
 Gap=     0.234 Goal=   None    Shift=    0.500
 T= 1322. Gap= 0.730 NK=0 IS=  102 IE=  633 IFin=  101
          NO(<0.9)=   0  NV(>0.1)=   0    101.00e < EF      0.00e >EF  Err=0.0D+00
 Gap=     0.073 Goal=   None    Shift=    0.500
 T= 1322. Gap= 0.572 NK=0 IS=  101 IE=  633 IFin=  100
          NO(<0.9)=   0  NV(>0.1)=   0    100.00e < EF      0.00e >EF  Err=0.0D+00
 GapD=    0.073 DampG=0.500 DampE=0.500 DampFc=0.2500 IDamp=-1.
 Damping current iteration by 2.50D-01
 RMSDP=1.80D-03 MaxDP=1.28D-01 DE=-6.17D-02 OVMax= 1.45D-02

 Cycle   4  Pass 1  IDiag  1:
 E= -1775.88450070668     Delta-E=       -0.041432347442 Rises=F Damp=T
 DIIS: error= 1.00D-02 at cycle   4 NSaved=   4.
 NSaved= 4 IEnMin= 4 EnMin= -1775.88450070668     IErMin= 4 ErrMin= 1.00D-02
 ErrMax= 1.00D-02  0.00D+00 EMaxC= 1.00D+00 BMatC= 8.89D-02 BMatP= 1.65D-01
 IDIUse=1 WtCom= 1.00D+00 WtEn= 0.00D+00
 Coeff-Com:  0.762D-01-0.111D+00-0.317D+01 0.421D+01
 Coeff:      0.762D-01-0.111D+00-0.317D+01 0.421D+01
 Gap=     0.229 Goal=   None    Shift=    0.500
 T= 1017. Gap= 0.729 NK=0 IS=  102 IE=  633 IFin=  101
          NO(<0.9)=   0  NV(>0.1)=   0    101.00e < EF      0.00e >EF  Err=0.0D+00
 Gap=     0.072 Goal=   None    Shift=    0.500
 T= 1017. Gap= 0.572 NK=0 IS=  101 IE=  633 IFin=  100
          NO(<0.9)=   0  NV(>0.1)=   0    100.00e < EF      0.00e >EF  Err=0.0D+00
 GapD=    0.072 DampG=0.500 DampE=0.500 DampFc=0.2500 IDamp=-1.
 Damping current iteration by 2.50D-01
 RMSDP=1.42D-03 MaxDP=1.01D-01 DE=-4.14D-02 OVMax= 1.11D-02

 Cycle   5  Pass 1  IDiag  1:
 E= -1775.91386646291     Delta-E=       -0.029365756232 Rises=F Damp=T
 DIIS: error= 7.76D-03 at cycle   5 NSaved=   5.
 NSaved= 5 IEnMin= 5 EnMin= -1775.91386646291     IErMin= 5 ErrMin= 7.76D-03
 ErrMax= 7.76D-03  0.00D+00 EMaxC= 1.00D+00 BMatC= 4.96D-02 BMatP= 8.89D-02
 IDIUse=1 WtCom= 1.00D+00 WtEn= 0.00D+00
 Coeff-Com: -0.837D-02 0.557D+00-0.641D+00-0.381D+01 0.490D+01
 Coeff:     -0.837D-02 0.557D+00-0.641D+00-0.381D+01 0.490D+01
 Gap=     0.232 Goal=   None    Shift=    0.500
 T=  853. Gap= 0.732 NK=0 IS=  102 IE=  633 IFin=  101
          NO(<0.9)=   0  NV(>0.1)=   0    101.00e < EF      0.00e >EF  Err=0.0D+00
 Gap=     0.076 Goal=   None    Shift=    0.500
 T=  853. Gap= 0.577 NK=0 IS=  101 IE=  633 IFin=  100
          NO(<0.9)=   0  NV(>0.1)=   0    100.00e < EF      0.00e >EF  Err=0.0D+00
 GapD=    0.076 DampG=0.500 DampE=1.000 DampFc=0.5000 IDamp=-1.
 Damping current iteration by 5.00D-01
 RMSDP=1.08D-03 MaxDP=7.69D-02 DE=-2.94D-02 OVMax= 9.96D-03

 Cycle   6  Pass 1  IDiag  1:
 E= -1775.95619543249     Delta-E=       -0.042328969581 Rises=F Damp=T
 DIIS: error= 4.35D-03 at cycle   6 NSaved=   6.
 NSaved= 6 IEnMin= 6 EnMin= -1775.95619543249     IErMin= 6 ErrMin= 4.35D-03
 ErrMax= 4.35D-03  0.00D+00 EMaxC= 1.00D+00 BMatC= 1.27D-02 BMatP= 4.96D-02
 IDIUse=1 WtCom= 1.00D+00 WtEn= 0.00D+00
 Coeff-Com: -0.179D-01 0.187D-01 0.872D+00 0.759D+00-0.447D+01 0.384D+01
 Coeff:     -0.179D-01 0.187D-01 0.872D+00 0.759D+00-0.447D+01 0.384D+01
 Gap=     0.234 Goal=   None    Shift=    0.500
 T=  655. Gap= 0.734 NK=0 IS=  102 IE=  633 IFin=  101
          NO(<0.9)=   0  NV(>0.1)=   0    101.00e < EF      0.00e >EF  Err=0.0D+00
 Gap=     0.079 Goal=   None    Shift=    0.500
 T=  655. Gap= 0.579 NK=0 IS=  101 IE=  633 IFin=  100
          NO(<0.9)=   0  NV(>0.1)=   0    100.00e < EF      0.00e >EF  Err=0.0D+00
 GapD=    0.079 DampG=0.500 DampE=1.000 DampFc=0.5000 IDamp=-1.
 Damping current iteration by 5.00D-01
 RMSDP=5.53D-04 MaxDP=3.86D-02 DE=-4.23D-02 OVMax= 9.62D-03

 Cycle   7  Pass 1  IDiag  1:
 E= -1775.97688481780     Delta-E=       -0.020689385305 Rises=F Damp=T
 DIIS: error= 2.87D-03 at cycle   7 NSaved=   7.
 NSaved= 7 IEnMin= 7 EnMin= -1775.97688481780     IErMin= 7 ErrMin= 2.87D-03
 ErrMax= 2.87D-03  0.00D+00 EMaxC= 1.00D+00 BMatC= 3.46D-03 BMatP= 1.27D-02
 IDIUse=1 WtCom= 1.00D+00 WtEn= 0.00D+00
 Coeff-Com: -0.274D-02-0.181D+00 0.538D+00 0.153D+01-0.262D+01-0.149D+01
 Coeff-Com:  0.323D+01
 Coeff:     -0.274D-02-0.181D+00 0.538D+00 0.153D+01-0.262D+01-0.149D+01
 Coeff:      0.323D+01
 Gap=     0.234 Goal=   None    Shift=    0.500
 T=  420. Gap= 0.734 NK=0 IS=  102 IE=  633 IFin=  101
          NO(<0.9)=   0  NV(>0.1)=   0    101.00e < EF      0.00e >EF  Err=0.0D+00
 Gap=     0.079 Goal=   None    Shift=    0.500
 T=  420. Gap= 0.580 NK=0 IS=  101 IE=  633 IFin=  100
          NO(<0.9)=   0  NV(>0.1)=   0    100.00e < EF      0.00e >EF  Err=0.0D+00
 GapD=    0.079 DampG=0.500 DampE=1.000 DampFc=0.5000 IDamp=-1.
 Damping current iteration by 5.00D-01
 RMSDP=2.91D-04 MaxDP=1.93D-02 DE=-2.07D-02 OVMax= 8.79D-03

 Cycle   8  Pass 1  IDiag  1:
 E= -1775.98728045199     Delta-E=       -0.010395634197 Rises=F Damp=T
 DIIS: error= 2.01D-03 at cycle   8 NSaved=   8.
 NSaved= 8 IEnMin= 8 EnMin= -1775.98728045199     IErMin= 8 ErrMin= 2.01D-03
 ErrMax= 2.01D-03  0.00D+00 EMaxC= 1.00D+00 BMatC= 1.04D-03 BMatP= 3.46D-03
 IDIUse=1 WtCom= 1.00D+00 WtEn= 0.00D+00
 Coeff-Com:  0.474D-02-0.459D-01-0.345D+00 0.295D+00 0.141D+01-0.204D+01
 Coeff-Com: -0.238D+01 0.410D+01
 Coeff:      0.474D-02-0.459D-01-0.345D+00 0.295D+00 0.141D+01-0.204D+01
 Coeff:     -0.238D+01 0.410D+01
 Gap=     0.234 Goal=   None    Shift=    0.500
 T=  130. Gap= 0.734 NK=0 IS=  102 IE=  633 IFin=  101
          NO(<0.9)=   0  NV(>0.1)=   0    101.00e < EF      0.00e >EF  Err=0.0D+00
 Gap=     0.080 Goal=   None    Shift=    0.500
 T=  130. Gap= 0.581 NK=0 IS=  101 IE=  633 IFin=  100
          NO(<0.9)=   0  NV(>0.1)=   0    100.00e < EF      0.00e >EF  Err=0.0D+00
 GapD=    0.080 DampG=0.500 DampE=1.000 DampFc=0.5000 IDamp=-1.
 Damping current iteration by 5.00D-01
 RMSDP=1.62D-04 MaxDP=9.47D-03 DE=-1.04D-02 OVMax= 8.59D-03

 Cycle   9  Pass 1  IDiag  1:
 E= -1775.99259176155     Delta-E=       -0.005311309553 Rises=F Damp=T
 DIIS: error= 1.45D-03 at cycle   9 NSaved=   9.
 NSaved= 9 IEnMin= 9 EnMin= -1775.99259176155     IErMin= 9 ErrMin= 1.45D-03
 ErrMax= 1.45D-03  0.00D+00 EMaxC= 1.00D+00 BMatC= 3.61D-04 BMatP= 1.04D-03
 IDIUse=1 WtCom= 1.00D+00 WtEn= 0.00D+00
 Coeff-Com:  0.177D-02 0.266D-01-0.329D+00-0.223D+00 0.143D+01-0.701D+00
 Coeff-Com: -0.150D+01-0.571D+00 0.287D+01
 Coeff:      0.177D-02 0.266D-01-0.329D+00-0.223D+00 0.143D+01-0.701D+00
 Coeff:     -0.150D+01-0.571D+00 0.287D+01
 Gap=     0.234 Goal=   None    Shift=    0.500
 Gap=     0.081 Goal=   None    Shift=    0.500
 GapD=    0.081 DampG=0.500 DampE=1.000 DampFc=0.5000 IDamp=-1.
 Damping current iteration by 5.00D-01
 RMSDP=9.85D-05 MaxDP=5.05D-03 DE=-5.31D-03 OVMax= 7.86D-03

 Cycle  10  Pass 1  IDiag  1:
 E= -1775.99534511273     Delta-E=       -0.002753351188 Rises=F Damp=T
 DIIS: error= 1.38D-03 at cycle  10 NSaved=  10.
 NSaved=10 IEnMin=10 EnMin= -1775.99534511273     IErMin=10 ErrMin= 1.38D-03
 ErrMax= 1.38D-03  0.00D+00 EMaxC= 1.00D+00 BMatC= 1.54D-04 BMatP= 3.61D-04
 IDIUse=1 WtCom= 1.00D+00 WtEn= 0.00D+00
 Coeff-Com: -0.152D-02-0.174D-01 0.216D+00 0.120D+00-0.103D+01 0.961D+00
 Coeff-Com:  0.127D+01-0.882D+00-0.552D+01 0.587D+01
 Coeff:     -0.152D-02-0.174D-01 0.216D+00 0.120D+00-0.103D+01 0.961D+00
 Coeff:      0.127D+01-0.882D+00-0.552D+01 0.587D+01
 Gap=     0.235 Goal=   None    Shift=    0.500
 Gap=     0.082 Goal=   None    Shift=    0.500
 GapD=    0.082 DampG=0.500 DampE=1.000 DampFc=0.5000 IDamp=-1.
 Damping current iteration by 5.00D-01
 RMSDP=7.07D-05 MaxDP=4.09D-03 DE=-2.75D-03 OVMax= 8.55D-03

 Cycle  11  Pass 1  IDiag  1:
 E= -1775.99679883903     Delta-E=       -0.001453726293 Rises=F Damp=T
 DIIS: error= 1.37D-03 at cycle  11 NSaved=  11.
 NSaved=11 IEnMin=11 EnMin= -1775.99679883903     IErMin=11 ErrMin= 1.37D-03
 ErrMax= 1.37D-03  0.00D+00 EMaxC= 1.00D+00 BMatC= 8.75D-05 BMatP= 1.54D-04
 IDIUse=1 WtCom= 1.00D+00 WtEn= 0.00D+00
 Coeff-Com: -0.142D-02-0.403D-01 0.298D+00 0.107D+00-0.111D+01 0.831D+00
 Coeff-Com:  0.130D+01-0.508D-01-0.522D+01 0.296D+01 0.192D+01
 Coeff:     -0.142D-02-0.403D-01 0.298D+00 0.107D+00-0.111D+01 0.831D+00
 Coeff:      0.130D+01-0.508D-01-0.522D+01 0.296D+01 0.192D+01
 Gap=     0.236 Goal=   None    Shift=    0.500
 Gap=     0.082 Goal=   None    Shift=    0.500
 GapD=    0.082 DampG=0.500 DampE=1.000 DampFc=0.5000 IDamp=-1.
 Damping current iteration by 5.00D-01
 RMSDP=5.30D-05 MaxDP=3.15D-03 DE=-1.45D-03 OVMax= 7.97D-03

 Cycle  12  Pass 1  IDiag  1:
 E= -1775.99758937540     Delta-E=       -0.000790536369 Rises=F Damp=T
 DIIS: error= 1.37D-03 at cycle  12 NSaved=  12.
 NSaved=12 IEnMin=12 EnMin= -1775.99758937540     IErMin=12 ErrMin= 1.37D-03
 ErrMax= 1.37D-03  0.00D+00 EMaxC= 1.00D+00 BMatC= 6.13D-05 BMatP= 8.75D-05
 IDIUse=1 WtCom= 1.00D+00 WtEn= 0.00D+00
 Coeff-Com:  0.250D-03-0.411D-01 0.780D-01 0.138D+00-0.124D+00-0.465D+00
 Coeff-Com: -0.290D-01 0.185D+01-0.100D+01 0.903D+00-0.720D+01 0.690D+01
 Coeff:      0.250D-03-0.411D-01 0.780D-01 0.138D+00-0.124D+00-0.465D+00
 Coeff:     -0.290D-01 0.185D+01-0.100D+01 0.903D+00-0.720D+01 0.690D+01
 Gap=     0.237 Goal=   None    Shift=    0.500
 Gap=     0.082 Goal=   None    Shift=    0.500
 GapD=    0.082 DampG=0.500 DampE=1.000 DampFc=0.5000 IDamp=-1.
 Damping current iteration by 5.00D-01
 RMSDP=4.97D-05 MaxDP=3.75D-03 DE=-7.91D-04 OVMax= 9.32D-03

 Cycle  13  Pass 1  IDiag  1:
 E= -1775.99804296765     Delta-E=       -0.000453592256 Rises=F Damp=T
 DIIS: error= 1.38D-03 at cycle  13 NSaved=  13.
 NSaved=13 IEnMin=13 EnMin= -1775.99804296765     IErMin=12 ErrMin= 1.37D-03
 ErrMax= 1.38D-03  0.00D+00 EMaxC= 1.00D+00 BMatC= 5.05D-05 BMatP= 6.13D-05
 IDIUse=1 WtCom= 1.00D+00 WtEn= 0.00D+00
 Coeff-Com:  0.384D-03-0.298D-01 0.325D-01 0.953D-01 0.352D-01-0.472D+00
 Coeff-Com: -0.228D+00 0.147D+01-0.203D+00 0.142D+01-0.764D+01 0.525D+01
 Coeff-Com:  0.127D+01
 Coeff:      0.384D-03-0.298D-01 0.325D-01 0.953D-01 0.352D-01-0.472D+00
 Coeff:     -0.228D+00 0.147D+01-0.203D+00 0.142D+01-0.764D+01 0.525D+01
 Coeff:      0.127D+01
 Gap=     0.237 Goal=   None    Shift=    0.500
 Gap=     0.082 Goal=   None    Shift=    0.500
 GapD=    0.082 DampG=0.500 DampE=1.000 DampFc=0.5000 IDamp=-1.
 Damping current iteration by 5.00D-01
 RMSDP=4.29D-05 MaxDP=3.14D-03 DE=-4.54D-04 OVMax= 8.45D-03

 Cycle  14  Pass 1  IDiag  1:
 E= -1775.99832137966     Delta-E=       -0.000278412008 Rises=F Damp=T
 DIIS: error= 1.39D-03 at cycle  14 NSaved=  14.
 NSaved=14 IEnMin=14 EnMin= -1775.99832137966     IErMin=12 ErrMin= 1.37D-03
 ErrMax= 1.39D-03  0.00D+00 EMaxC= 1.00D+00 BMatC= 4.46D-05 BMatP= 5.05D-05
 IDIUse=1 WtCom= 1.00D+00 WtEn= 0.00D+00
 Coeff-Com:  0.377D-03-0.367D-02-0.433D-01 0.151D+00-0.277D-01-0.244D+00
 Coeff-Com: -0.503D-01 0.212D+00 0.270D+00 0.139D+01-0.355D+01 0.312D+01
 Coeff-Com: -0.524D+01 0.502D+01
 Coeff:      0.377D-03-0.367D-02-0.433D-01 0.151D+00-0.277D-01-0.244D+00
 Coeff:     -0.503D-01 0.212D+00 0.270D+00 0.139D+01-0.355D+01 0.312D+01
 Coeff:     -0.524D+01 0.502D+01
 Gap=     0.238 Goal=   None    Shift=    0.500
 Gap=     0.083 Goal=   None    Shift=    0.500
 GapD=    0.083 DampG=0.500 DampE=1.000 DampFc=0.5000 IDamp=-1.
 Damping current iteration by 5.00D-01
 RMSDP=4.26D-05 MaxDP=3.69D-03 DE=-2.78D-04 OVMax= 9.00D-03

 Cycle  15  Pass 1  IDiag  1:
 E= -1775.99850949043     Delta-E=       -0.000188110768 Rises=F Damp=T
 DIIS: error= 1.41D-03 at cycle  15 NSaved=  15.
 NSaved=15 IEnMin=15 EnMin= -1775.99850949043     IErMin=12 ErrMin= 1.37D-03
 ErrMax= 1.41D-03  0.00D+00 EMaxC= 1.00D+00 BMatC= 4.17D-05 BMatP= 4.46D-05
 IDIUse=1 WtCom= 1.00D+00 WtEn= 0.00D+00
 Coeff-Com:  0.317D-03-0.588D-02-0.211D-01 0.144D+00-0.970D-01-0.154D+00
 Coeff-Com:  0.481D-01 0.113D+00-0.488D-01 0.113D+01-0.227D+01 0.303D+01
 Coeff-Com: -0.556D+01 0.336D+01 0.134D+01
 Coeff:      0.317D-03-0.588D-02-0.211D-01 0.144D+00-0.970D-01-0.154D+00
 Coeff:      0.481D-01 0.113D+00-0.488D-01 0.113D+01-0.227D+01 0.303D+01
 Coeff:     -0.556D+01 0.336D+01 0.134D+01
 Gap=     0.238 Goal=   None    Shift=    0.500
 Gap=     0.083 Goal=   None    Shift=    0.500
 GapD=    0.083 DampG=0.500 DampE=1.000 DampFc=0.5000 IDamp=-1.
 Damping current iteration by 5.00D-01
 RMSDP=3.77D-05 MaxDP=3.12D-03 DE=-1.88D-04 OVMax= 8.19D-03

 Cycle  16  Pass 1  IDiag  1:
 E= -1775.99864797207     Delta-E=       -0.000138481638 Rises=F Damp=T
 DIIS: error= 1.42D-03 at cycle  16 NSaved=  16.
 NSaved=16 IEnMin=16 EnMin= -1775.99864797207     IErMin=12 ErrMin= 1.37D-03
 ErrMax= 1.42D-03  0.00D+00 EMaxC= 1.00D+00 BMatC= 3.96D-05 BMatP= 4.17D-05
 IDIUse=1 WtCom= 1.00D+00 WtEn= 0.00D+00
 Coeff-Com:  0.242D-03-0.779D-02-0.175D-01 0.144D+00-0.870D-01-0.202D+00
 Coeff-Com:  0.547D-01 0.299D+00-0.145D+00 0.730D+00-0.192D+01 0.255D+01
 Coeff-Com: -0.387D+01 0.274D+01-0.895D+00 0.162D+01
 Coeff:      0.242D-03-0.779D-02-0.175D-01 0.144D+00-0.870D-01-0.202D+00
 Coeff:      0.547D-01 0.299D+00-0.145D+00 0.730D+00-0.192D+01 0.255D+01
 Coeff:     -0.387D+01 0.274D+01-0.895D+00 0.162D+01
 Gap=     0.239 Goal=   None    Shift=    0.500
 Gap=     0.083 Goal=   None    Shift=    0.500
 GapD=    0.083 DampG=0.500 DampE=1.000 DampFc=0.5000 IDamp=-1.
 Damping current iteration by 5.00D-01
 RMSDP=3.26D-05 MaxDP=2.50D-03 DE=-1.38D-04 OVMax= 7.46D-03

 Cycle  17  Pass 1  IDiag  1:
 E= -1775.99875649291     Delta-E=       -0.000108520844 Rises=F Damp=T
 DIIS: error= 1.42D-03 at cycle  17 NSaved=  17.
 NSaved=17 IEnMin=17 EnMin= -1775.99875649291     IErMin=12 ErrMin= 1.37D-03
 ErrMax= 1.42D-03  0.00D+00 EMaxC= 1.00D+00 BMatC= 3.80D-05 BMatP= 3.96D-05
 IDIUse=1 WtCom= 1.00D+00 WtEn= 0.00D+00
 Coeff-Com:  0.264D-03-0.385D-02-0.421D-01 0.153D+00-0.282D-01-0.276D+00
 Coeff-Com:  0.202D-01 0.294D+00 0.102D+00 0.775D+00-0.229D+01 0.200D+01
 Coeff-Com: -0.249D+01 0.350D+00 0.542D+01-0.632D+01 0.333D+01
 Coeff:      0.264D-03-0.385D-02-0.421D-01 0.153D+00-0.282D-01-0.276D+00
 Coeff:      0.202D-01 0.294D+00 0.102D+00 0.775D+00-0.229D+01 0.200D+01
 Coeff:     -0.249D+01 0.350D+00 0.542D+01-0.632D+01 0.333D+01
 Gap=     0.239 Goal=   None    Shift=    0.500
 Gap=     0.083 Goal=   None    Shift=    0.500
 GapD=    0.083 DampG=0.500 DampE=1.000 DampFc=0.5000 IDamp=-1.
 Damping current iteration by 5.00D-01
 RMSDP=2.75D-05 MaxDP=1.94D-03 DE=-1.09D-04 OVMax= 6.61D-03

 Cycle  18  Pass 1  IDiag  1:
 E= -1775.99884438231     Delta-E=       -0.000087889396 Rises=F Damp=T
 DIIS: error= 1.42D-03 at cycle  18 NSaved=  18.
 NSaved=18 IEnMin=18 EnMin= -1775.99884438231     IErMin=12 ErrMin= 1.37D-03
 ErrMax= 1.42D-03  0.00D+00 EMaxC= 1.00D+00 BMatC= 3.74D-05 BMatP= 3.80D-05
 IDIUse=1 WtCom= 1.00D+00 WtEn= 0.00D+00
 Coeff-Com:  0.263D-03-0.338D-02-0.426D-01 0.151D+00-0.284D-01-0.270D+00
 Coeff-Com:  0.261D-01 0.260D+00 0.109D+00 0.789D+00-0.222D+01 0.205D+01
 Coeff-Com: -0.276D+01 0.248D+00 0.551D+01-0.499D+01 0.143D+01 0.744D+00
 Coeff:      0.263D-03-0.338D-02-0.426D-01 0.151D+00-0.284D-01-0.270D+00
 Coeff:      0.261D-01 0.260D+00 0.109D+00 0.789D+00-0.222D+01 0.205D+01
 Coeff:     -0.276D+01 0.248D+00 0.551D+01-0.499D+01 0.143D+01 0.744D+00
 Gap=     0.239 Goal=   None    Shift=    0.500
 Gap=     0.083 Goal=   None    Shift=    0.500
 GapD=    0.083 DampG=0.500 DampE=1.000 DampFc=0.5000 IDamp=-1.
 Damping current iteration by 5.00D-01
 RMSDP=2.25D-05 MaxDP=1.59D-03 DE=-8.79D-05 OVMax= 5.65D-03

 Cycle  19  Pass 1  IDiag  1:
 E= -1775.99891595909     Delta-E=       -0.000071576777 Rises=F Damp=T
 DIIS: error= 1.41D-03 at cycle  19 NSaved=  19.
 NSaved=19 IEnMin=19 EnMin= -1775.99891595909     IErMin=12 ErrMin= 1.37D-03
 ErrMax= 1.41D-03  0.00D+00 EMaxC= 1.00D+00 BMatC= 3.84D-05 BMatP= 3.74D-05
 IDIUse=1 WtCom= 1.00D+00 WtEn= 0.00D+00
 Coeff-Com:  0.210D-03-0.575D-02-0.306D-01 0.175D+00-0.103D+00-0.241D+00
 Coeff-Com:  0.126D+00 0.277D+00-0.233D+00 0.869D+00-0.197D+01 0.268D+01
 Coeff-Com: -0.395D+01 0.113D+01 0.242D+01-0.224D+01 0.752D+01-0.942D+01
 Coeff-Com:  0.398D+01
 Coeff:      0.210D-03-0.575D-02-0.306D-01 0.175D+00-0.103D+00-0.241D+00
 Coeff:      0.126D+00 0.277D+00-0.233D+00 0.869D+00-0.197D+01 0.268D+01
 Coeff:     -0.395D+01 0.113D+01 0.242D+01-0.224D+01 0.752D+01-0.942D+01
 Coeff:      0.398D+01
 Gap=     0.239 Goal=   None    Shift=    0.500
 Gap=     0.083 Goal=   None    Shift=    0.500
 GapD=    0.083 DampG=0.500 DampE=1.000 DampFc=0.5000 IDamp=-1.
 Damping current iteration by 5.00D-01
 RMSDP=1.75D-05 MaxDP=1.20D-03 DE=-7.16D-05 OVMax= 4.49D-03

 Cycle  20  Pass 1  IDiag  1:
 E= -1775.99897245413     Delta-E=       -0.000056495047 Rises=F Damp=T
 DIIS: error= 1.39D-03 at cycle  20 NSaved=  20.
 NSaved=20 IEnMin=20 EnMin= -1775.99897245413     IErMin=12 ErrMin= 1.37D-03
 ErrMax= 1.39D-03  0.00D+00 EMaxC= 1.00D+00 BMatC= 4.16D-05 BMatP= 3.74D-05
 IDIUse=1 WtCom= 1.00D+00 WtEn= 0.00D+00
 Large coefficients: NSaved= 20 BigCof=   43.71 CofMax=   10.00 Det=-1.57D-10
 Inversion failed.  Reducing to 19 matrices.
 Large coefficients: NSaved= 19 BigCof=   43.59 CofMax=   10.00 Det=-1.58D-10
 Inversion failed.  Reducing to 18 matrices.
 Large coefficients: NSaved= 18 BigCof=   43.77 CofMax=   10.00 Det=-1.59D-10
 Inversion failed.  Reducing to 17 matrices.
 Large coefficients: NSaved= 17 BigCof=   31.46 CofMax=   10.00 Det=-1.80D-10
 Inversion failed.  Reducing to 16 matrices.
 Large coefficients: NSaved= 16 BigCof=   32.73 CofMax=   10.00 Det=-1.80D-10
 Inversion failed.  Reducing to 15 matrices.
 Large coefficients: NSaved= 15 BigCof=   31.40 CofMax=   10.00 Det=-1.82D-10
 Inversion failed.  Reducing to 14 matrices.
 Large coefficients: NSaved= 14 BigCof=   22.55 CofMax=   10.00 Det=-2.16D-10
 Inversion failed.  Reducing to 13 matrices.
 Large coefficients: NSaved= 13 BigCof=   22.66 CofMax=   10.00 Det=-2.21D-10
 Inversion failed.  Reducing to 12 matrices.
 Large coefficients: NSaved= 12 BigCof=   20.72 CofMax=   10.00 Det=-2.24D-10
 Inversion failed.  Reducing to 11 matrices.
 Large coefficients: NSaved= 11 BigCof=   20.86 CofMax=   10.00 Det=-2.27D-10
 Inversion failed.  Reducing to 10 matrices.
 Large coefficients: NSaved= 10 BigCof=   20.05 CofMax=   10.00 Det=-2.28D-10
 Inversion failed.  Reducing to  9 matrices.
 Large coefficients: NSaved=  9 BigCof=   20.78 CofMax=   10.00 Det=-2.29D-10
 Inversion failed.  Reducing to  8 matrices.
 Large coefficients: NSaved=  8 BigCof=   24.34 CofMax=   10.00 Det=-2.37D-10
 Inversion failed.  Reducing to  7 matrices.
 Large coefficients: NSaved=  7 BigCof=   22.56 CofMax=   10.00 Det=-2.58D-10
 Inversion failed.  Reducing to  6 matrices.
 Large coefficients: NSaved=  6 BigCof=   22.58 CofMax=   10.00 Det=-2.70D-10
 Inversion failed.  Reducing to  5 matrices.
 Large coefficients: NSaved=  5 BigCof=   20.17 CofMax=   10.00 Det=-2.71D-10
 Inversion failed.  Reducing to  4 matrices.
 Large coefficients: NSaved=  4 BigCof=   22.55 CofMax=   10.00 Det=-2.75D-10
 Inversion failed.  Reducing to  3 matrices.
 Coeff-Com: -0.258D+01 0.675D+01-0.317D+01
 Coeff:     -0.258D+01 0.675D+01-0.317D+01
 Gap=     0.239 Goal=   None    Shift=    0.500
 Gap=     0.083 Goal=   None    Shift=    0.500
 GapD=    0.083 DampG=0.500 DampE=1.000 DampFc=0.5000 IDamp=-1.
 Damping current iteration by 5.00D-01
 RMSDP=1.80D-05 MaxDP=1.26D-03 DE=-5.65D-05 OVMax= 4.98D-03

 Cycle  21  Pass 1  IDiag  1:
 E= -1775.99902356054     Delta-E=       -0.000051106404 Rises=F Damp=T
 DIIS: error= 1.38D-03 at cycle  21 NSaved=   4.
 NSaved= 4 IEnMin= 4 EnMin= -1775.99902356054     IErMin= 4 ErrMin= 1.38D-03
 ErrMax= 1.38D-03  0.00D+00 EMaxC= 1.00D+00 BMatC= 4.44D-05 BMatP= 3.74D-05
 IDIUse=1 WtCom= 1.00D+00 WtEn= 0.00D+00
 Coeff-Com: -0.203D+01 0.606D+01-0.363D+01 0.594D+00
 Coeff:     -0.203D+01 0.606D+01-0.363D+01 0.594D+00
 Gap=     0.239 Goal=   None    Shift=    0.500
 Gap=     0.083 Goal=   None    Shift=    0.500
 GapD=    0.083 DampG=0.500 DampE=1.000 DampFc=0.5000 IDamp=-1.
 Damping current iteration by 5.00D-01
 RMSDP=1.62D-05 MaxDP=1.12D-03 DE=-5.11D-05 OVMax= 4.30D-03

 Cycle  22  Pass 1  IDiag  1:
 E= -1775.99906838414     Delta-E=       -0.000044823603 Rises=F Damp=T
 DIIS: error= 1.37D-03 at cycle  22 NSaved=   5.
 NSaved= 5 IEnMin= 5 EnMin= -1775.99906838414     IErMin= 5 ErrMin= 1.37D-03
 ErrMax= 1.37D-03  0.00D+00 EMaxC= 1.00D+00 BMatC= 4.78D-05 BMatP= 3.74D-05
 IDIUse=1 WtCom= 1.00D+00 WtEn= 0.00D+00
 Large coefficients: NSaved=  5 BigCof=   25.59 CofMax=   10.00 Det=-5.50D-10
 Inversion failed.  Reducing to  4 matrices.
 Large coefficients: NSaved=  4 BigCof=   23.37 CofMax=   10.00 Det=-7.42D-10
 Inversion failed.  Reducing to  3 matrices.
 Large coefficients: NSaved=  3 BigCof=   22.77 CofMax=   10.00 Det=-1.59D-09
 Inversion failed.  Reducing to  2 matrices.
 Coeff-Com:  0.551D+01-0.451D+01
 Coeff:      0.551D+01-0.451D+01
 Gap=     0.238 Goal=   None    Shift=    0.500
 Gap=     0.083 Goal=   None    Shift=    0.500
 GapD=    0.083 DampG=0.500 DampE=1.000 DampFc=0.5000 IDamp=-1.
 Damping current iteration by 5.00D-01
 RMSDP=1.07D-05 MaxDP=6.70D-04 DE=-4.48D-05 OVMax= 2.12D-03

 Cycle  23  Pass 1  IDiag  1:
 E= -1775.99909760699     Delta-E=       -0.000029222850 Rises=F Damp=T
 DIIS: error= 1.35D-03 at cycle  23 NSaved=   3.
 NSaved= 3 IEnMin= 3 EnMin= -1775.99909760699     IErMin= 3 ErrMin= 1.35D-03
 ErrMax= 1.35D-03  0.00D+00 EMaxC= 1.00D+00 BMatC= 5.60D-05 BMatP= 4.44D-05
 IDIUse=1 WtCom= 1.00D+00 WtEn= 0.00D+00
 Coeff-Com:  0.681D+01-0.650D+01 0.696D+00
 Coeff:      0.681D+01-0.650D+01 0.696D+00
 Gap=     0.238 Goal=   None    Shift=    0.500
 Gap=     0.083 Goal=   None    Shift=    0.500
 GapD=    0.083 DampG=0.500 DampE=1.000 DampFc=0.5000 IDamp=-1.
 Damping current iteration by 5.00D-01
 RMSDP=9.96D-06 MaxDP=1.33D-03 DE=-2.92D-05 OVMax= 1.26D-03

 Cycle  24  Pass 1  IDiag  1:
 E= -1775.99911388962     Delta-E=       -0.000016282634 Rises=F Damp=T
 DIIS: error= 1.32D-03 at cycle  24 NSaved=   4.
 NSaved= 4 IEnMin= 4 EnMin= -1775.99911388962     IErMin= 4 ErrMin= 1.32D-03
 ErrMax= 1.32D-03  0.00D+00 EMaxC= 1.00D+00 BMatC= 6.72D-05 BMatP= 4.44D-05
 IDIUse=1 WtCom= 1.00D+00 WtEn= 0.00D+00
 Coeff-Com:  0.671D+01-0.860D+01 0.507D+01-0.218D+01
 Coeff:      0.671D+01-0.860D+01 0.507D+01-0.218D+01
 Gap=     0.238 Goal=   None    Shift=    0.500
 Gap=     0.083 Goal=   None    Shift=    0.500
 GapD=    0.083 DampG=0.500 DampE=1.000 DampFc=0.5000 IDamp=-1.
 Damping current iteration by 5.00D-01
 RMSDP=6.71D-06 MaxDP=7.16D-04 DE=-1.63D-05 OVMax= 1.53D-03

 Cycle  25  Pass 1  IDiag  1:
 E= -1775.99912711364     Delta-E=       -0.000013224013 Rises=F Damp=T
 DIIS: error= 1.30D-03 at cycle  25 NSaved=   5.
 NSaved= 5 IEnMin= 5 EnMin= -1775.99912711364     IErMin= 5 ErrMin= 1.30D-03
 ErrMax= 1.30D-03  0.00D+00 EMaxC= 1.00D+00 BMatC= 7.58D-05 BMatP= 4.44D-05
 IDIUse=1 WtCom= 1.00D+00 WtEn= 0.00D+00
 Coeff-Com:  0.658D+01-0.425D+01-0.548D+01 0.782D+01-0.366D+01
 Coeff:      0.658D+01-0.425D+01-0.548D+01 0.782D+01-0.366D+01
 Gap=     0.238 Goal=   None    Shift=    0.500
 Gap=     0.083 Goal=   None    Shift=    0.500
 GapD=    0.083 DampG=0.500 DampE=1.000 DampFc=0.5000 IDamp=-1.
 Damping current iteration by 5.00D-01
 RMSDP=7.60D-06 MaxDP=1.23D-03 DE=-1.32D-05 OVMax= 4.73D-04

 Cycle  26  Pass 1  IDiag  1:
 E= -1775.99913150093     Delta-E=       -0.000004387295 Rises=F Damp=T
 DIIS: error= 1.27D-03 at cycle  26 NSaved=   6.
 NSaved= 6 IEnMin= 6 EnMin= -1775.99913150093     IErMin= 6 ErrMin= 1.27D-03
 ErrMax= 1.27D-03  0.00D+00 EMaxC= 1.00D+00 BMatC= 8.68D-05 BMatP= 4.44D-05
 IDIUse=1 WtCom= 1.00D+00 WtEn= 0.00D+00
 Coeff-Com:  0.878D+01-0.900D+01-0.312D+00-0.939D+00 0.616D+01-0.368D+01
 Coeff:      0.878D+01-0.900D+01-0.312D+00-0.939D+00 0.616D+01-0.368D+01
 Gap=     0.238 Goal=   None    Shift=    0.500
 Gap=     0.083 Goal=   None    Shift=    0.500
 GapD=    0.083 DampG=0.500 DampE=1.000 DampFc=0.5000 IDamp=-1.
 Damping current iteration by 5.00D-01
 RMSDP=6.23D-06 MaxDP=1.04D-03 DE=-4.39D-06 OVMax= 4.24D-04

 Cycle  27  Pass 1  IDiag  1:
 E= -1775.99913224213     Delta-E=       -0.000000741198 Rises=F Damp=T
 DIIS: error= 1.25D-03 at cycle  27 NSaved=   7.
 NSaved= 7 IEnMin= 7 EnMin= -1775.99913224213     IErMin= 7 ErrMin= 1.25D-03
 ErrMax= 1.25D-03  0.00D+00 EMaxC= 1.00D+00 BMatC= 9.61D-05 BMatP= 4.44D-05
 IDIUse=1 WtCom= 1.00D+00 WtEn= 0.00D+00
 Large coefficients: NSaved=  7 BigCof=   10.12 CofMax=   10.00 Det=-3.72D-10
 Inversion failed.  Reducing to  6 matrices.
 Large coefficients: NSaved=  6 BigCof=   19.54 CofMax=   10.00 Det=-5.17D-10
 Inversion failed.  Reducing to  5 matrices.
 Coeff-Com:  0.425D+01 0.144D+01-0.995D+01 0.753D+01-0.228D+01
 Coeff:      0.425D+01 0.144D+01-0.995D+01 0.753D+01-0.228D+01
 Gap=     0.240 Goal=   None    Shift=    0.500
 Gap=     0.083 Goal=   None    Shift=    0.500
 GapD=    0.083 DampG=0.500 DampE=1.000 DampFc=0.5000 IDamp=-1.
 Damping current iteration by 5.00D-01
 RMSDP=1.76D-05 MaxDP=2.53D-03 DE=-7.41D-07 OVMax= 4.05D-03

 Cycle  28  Pass 1  IDiag  1:
 E= -1775.99915867106     Delta-E=       -0.000026428928 Rises=F Damp=T
 DIIS: error= 1.28D-03 at cycle  28 NSaved=   6.
 NSaved= 6 IEnMin= 6 EnMin= -1775.99915867106     IErMin= 5 ErrMin= 1.25D-03
 ErrMax= 1.28D-03  0.00D+00 EMaxC= 1.00D+00 BMatC= 8.46D-05 BMatP= 5.60D-05
 IDIUse=1 WtCom= 1.00D+00 WtEn= 0.00D+00
 Large coefficients: NSaved=  6 BigCof=   10.06 CofMax=   10.00 Det=-7.32D-10
 Inversion failed.  Reducing to  5 matrices.
 Large coefficients: NSaved=  5 BigCof=   12.23 CofMax=   10.00 Det=-1.04D-09
 Inversion failed.  Reducing to  4 matrices.
 Large coefficients: NSaved=  4 BigCof=   13.90 CofMax=   10.00 Det=-1.51D-09
 Inversion failed.  Reducing to  3 matrices.
 Coeff-Com:  0.749D+01-0.983D+01 0.334D+01
 Coeff:      0.749D+01-0.983D+01 0.334D+01
 Gap=     0.242 Goal=   None    Shift=    0.500
 Gap=     0.084 Goal=   None    Shift=    0.500
 GapD=    0.084 DampG=0.500 DampE=1.000 DampFc=0.5000 IDamp=-1.
 Damping current iteration by 5.00D-01
 RMSDP=3.64D-05 MaxDP=5.41D-03 DE=-2.64D-05 OVMax= 6.57D-03

 Cycle  29  Pass 1  IDiag  1:
 E= -1775.99920774333     Delta-E=       -0.000049072270 Rises=F Damp=T
 DIIS: error= 1.33D-03 at cycle  29 NSaved=   4.
 NSaved= 4 IEnMin= 4 EnMin= -1775.99920774333     IErMin= 2 ErrMin= 1.25D-03
 ErrMax= 1.33D-03  0.00D+00 EMaxC= 1.00D+00 BMatC= 6.53D-05 BMatP= 8.46D-05
 IDIUse=1 WtCom= 1.00D+00 WtEn= 0.00D+00
 Coeff-Com:  0.647D+01-0.667D+01-0.264D+00 0.146D+01
 Coeff:      0.647D+01-0.667D+01-0.264D+00 0.146D+01
 Gap=     0.242 Goal=   None    Shift=    0.500
 Gap=     0.084 Goal=   None    Shift=    0.500
 GapD=    0.084 DampG=0.500 DampE=1.000 DampFc=0.5000 IDamp=-1.
 Damping current iteration by 5.00D-01
 RMSDP=3.43D-05 MaxDP=4.77D-03 DE=-4.91D-05 OVMax= 5.96D-03

 Cycle  30  Pass 1  IDiag  1:
 E= -1775.99926197917     Delta-E=       -0.000054235848 Rises=F Damp=T
 DIIS: error= 1.37D-03 at cycle  30 NSaved=   5.
 NSaved= 5 IEnMin= 5 EnMin= -1775.99926197917     IErMin= 2 ErrMin= 1.25D-03
 ErrMax= 1.37D-03  0.00D+00 EMaxC= 1.00D+00 BMatC= 5.61D-05 BMatP= 6.53D-05
 IDIUse=1 WtCom= 1.00D+00 WtEn= 0.00D+00
 Large coefficients: NSaved=  5 BigCof=   10.73 CofMax=   10.00 Det=-8.98D-09
 Inversion failed.  Reducing to  4 matrices.
 Coeff-Com:  0.158D+01-0.185D+01-0.391D+01 0.518D+01
 Coeff:      0.158D+01-0.185D+01-0.391D+01 0.518D+01
 Gap=     0.245 Goal=   None    Shift=    0.500
 Gap=     0.084 Goal=   None    Shift=    0.500
 GapD=    0.084 DampG=0.500 DampE=1.000 DampFc=0.5000 IDamp=-1.
 Damping current iteration by 5.00D-01
 RMSDP=4.84D-05 MaxDP=6.94D-03 DE=-5.42D-05 OVMax= 9.10D-03

 Cycle  31  Pass 1  IDiag  1:
 E= -1775.99933345030     Delta-E=       -0.000071471122 Rises=F Damp=T
 DIIS: error= 1.44D-03 at cycle  31 NSaved=   5.
 NSaved= 5 IEnMin= 5 EnMin= -1775.99933345030     IErMin= 1 ErrMin= 1.25D-03
 ErrMax= 1.44D-03  0.00D+00 EMaxC= 1.00D+00 BMatC= 4.49D-05 BMatP= 5.61D-05
 IDIUse=1 WtCom= 1.00D+00 WtEn= 0.00D+00
 Coeff-Com:  0.141D+01-0.328D+01 0.287D+01-0.158D+01 0.157D+01
 Coeff:      0.141D+01-0.328D+01 0.287D+01-0.158D+01 0.157D+01
 Gap=     0.244 Goal=   None    Shift=    0.500
 Gap=     0.084 Goal=   None    Shift=    0.500
 GapD=    0.084 DampG=0.500 DampE=1.000 DampFc=0.5000 IDamp=-1.
 Damping current iteration by 5.00D-01
 RMSDP=3.49D-05 MaxDP=4.33D-03 DE=-7.15D-05 OVMax= 6.48D-03

 Cycle  32  Pass 1  IDiag  1:
 E= -1775.99940211564     Delta-E=       -0.000068665340 Rises=F Damp=T
 DIIS: error= 1.46D-03 at cycle  32 NSaved=   6.
 NSaved= 6 IEnMin= 6 EnMin= -1775.99940211564     IErMin= 1 ErrMin= 1.25D-03
 ErrMax= 1.46D-03  0.00D+00 EMaxC= 1.00D+00 BMatC= 4.39D-05 BMatP= 4.49D-05
 IDIUse=1 WtCom= 1.00D+00 WtEn= 0.00D+00
 Coeff-Com:  0.280D+01-0.297D+01-0.320D+01 0.259D+01 0.455D+01-0.277D+01
 Coeff:      0.280D+01-0.297D+01-0.320D+01 0.259D+01 0.455D+01-0.277D+01
 Gap=     0.243 Goal=   None    Shift=    0.500
 Gap=     0.084 Goal=   None    Shift=    0.500
 GapD=    0.084 DampG=0.500 DampE=1.000 DampFc=0.5000 IDamp=-1.
 Damping current iteration by 5.00D-01
 RMSDP=2.21D-05 MaxDP=1.86D-03 DE=-6.87D-05 OVMax= 4.73D-03

 >>>>>>>>>> Convergence criterion not met.
 SCF Done:  E(ULC-wHPBE) =  -1775.99940212     A.U. after   33 cycles
            NFock= 32  Conv=0.22D-04     -V/T= 2.0037
 <Sx>= 0.0000 <Sy>= 0.0000 <Sz>= 0.5000 <S**2>= 0.7612 S= 0.5056
 <L.S>= 0.000000000000E+00
 KE= 1.769372812430D+03 PE=-9.093137721214D+03 EE= 3.073080739309D+03
 Annihilation of the first spin contaminant:
 S**2 before annihilation     0.7612,   after     0.7499
 Leave Link  502 at Mon Jan 18 13:07:30 2021, MaxMem=  4026531840 cpu:           12501.1 elap:            1566.6
 (Enter /opt/ohpc/pub/libs/gaussian/g16-A.03/sandybridge/g16/l508.exe)
 Integral symmetry usage will be decided dynamically.
 Tight linear equation convergence will be used.
 ULC-wHPBE wavefunction.
 Quadratic Convergence SCF Method.
 Line search only if initial step raises energy.
 FoFJK:  IHMeth= 1 ICntrl=       0 DoSepK=T KAlg= 0 I1Cent=           0 FoldK=F
 IRaf=         1 NMat=       1 IRICut=       1 DoRegI=T DoRafI=F ISym2E= 1 IDoP0=0 IntGTp=1.
 FoFCou: FMM=F IPFlag=           0 FMFlag=      100000 FMFlg1=           0
         NFxFlg=           0 DoJE=T BraDBF=F KetDBF=F FulRan=T
         wScrn=  0.000000 ICntrl=       500 IOpCl=  0 I1Cent=           0 NGrid=           0
         NMat0=    1 NMatS0=      1 NMatT0=    0 NMatD0=    1 NMtDS0=    0 NMtDT0=    0
 Petite list used in FoFCou.
 Iteration   1 EE= -1775.99952519391                                    Grad=5.114D-03 Max rot=    0.2237 deg.
 QCNR:  CnvC1=5.11D-08 CnvC2=5.11D-07
 LinEq1:  Iter=  0 NonCon=     1 RMS=1.44D-04 Max=4.61D-02 NDo=     1
 AX will form     1 AO Fock derivatives at one time.
 LinEq1:  Iter=  1 NonCon=     1 RMS=1.88D-05 Max=1.63D-03 NDo=     1
 LinEq1:  Iter=  2 NonCon=     1 RMS=1.64D-05 Max=3.00D-03 NDo=     1
 LinEq1:  Iter=  3 NonCon=     1 RMS=8.96D-06 Max=8.81D-04 NDo=     1
 LinEq1:  Iter=  4 NonCon=     1 RMS=5.46D-06 Max=5.95D-04 NDo=     1
 LinEq1:  Iter=  5 NonCon=     1 RMS=3.72D-06 Max=5.01D-04 NDo=     1
 LinEq1:  Iter=  6 NonCon=     1 RMS=2.60D-06 Max=4.07D-04 NDo=     1
 LinEq1:  Iter=  7 NonCon=     1 RMS=1.34D-06 Max=1.08D-04 NDo=     1
 LinEq1:  Iter=  8 NonCon=     1 RMS=8.31D-07 Max=5.50D-05 NDo=     1
 LinEq1:  Iter=  9 NonCon=     1 RMS=4.47D-07 Max=2.61D-05 NDo=     1
 LinEq1:  Iter= 10 NonCon=     1 RMS=2.06D-07 Max=1.63D-05 NDo=     1
 LinEq1:  Iter= 11 NonCon=     1 RMS=1.29D-07 Max=7.16D-06 NDo=     1
 LinEq1:  Iter= 12 NonCon=     1 RMS=6.92D-08 Max=3.78D-06 NDo=     1
 LinEq1:  Iter= 13 NonCon=     1 RMS=3.97D-08 Max=2.67D-06 NDo=     1
 LinEq1:  Iter= 14 NonCon=     1 RMS=2.58D-08 Max=1.88D-06 NDo=     1
 LinEq1:  Iter= 15 NonCon=     1 RMS=1.42D-08 Max=8.66D-07 NDo=     1
 LinEq1:  Iter= 16 NonCon=     0 RMS=7.61D-09 Max=4.22D-07 NDo=     1
 Linear equations converged to 5.114D-08 5.114D-07 after    16 iterations.
 Angle between quadratic step and gradient= 151.05 degrees.
 Incorrect curvature in search direction -- initial direction reversed.
     ILin= 1 X=0.000D+00 Y=-1.775999525194D+03 DE= 0.00D+00 F= -7.02D-03
     ILin= 2 X=1.000D+00 Y=-1.776007043689D+03 DE=-7.52D-03 F= -6.16D-03
     ILin= 3 X=1.400D+00 Y=-1.776009766775D+03 DE=-1.02D-02 F= -6.95D-03
     ILin= 4 X=2.000D+00 Y=-1.776006794721D+03 DE=-7.27D-03 F=  3.01D-02
     An  expanding polynomial of degree  4 produced  1.5455
     Minimum is close to point  3 DX=  1.46D-01 DF= -2.60D-04 DXR=  9.42D-02 DFR=  2.54D-02 which will be used.
 Iteration   2 EE= -1776.00976677541     Delta-E=       -0.010241581497 Grad=7.784D-02 Max rot=    0.3893 deg.
 Gradient too large for Newton-Raphson -- use scaled steepest descent instead.
     ILin= 1 X=0.000D+00 Y=-1.776009766775D+03 DE= 0.00D+00 F= -8.98D-03
     ILin= 2 X=3.000D-01 Y=-1.776012005462D+03 DE=-2.24D-03 F= -5.95D-03
     ILin= 3 X=6.000D-01 Y=-1.776013335096D+03 DE=-3.57D-03 F= -2.92D-03
     ILin= 4 X=1.200D+00 Y=-1.776013264515D+03 DE=-3.50D-03 F=  3.15D-03
     An  expanding polynomial of degree  4 produced  0.8884
 Iteration   3 EE= -1776.01375566065     Delta-E=       -0.003988885240 Grad=2.904D-02 Max rot=    0.2429 deg.
 Gradient too large for Newton-Raphson -- use scaled steepest descent instead.
     ILin= 1 X=0.000D+00 Y=-1.776013755661D+03 DE= 0.00D+00 F= -1.11D-03
     ILin= 2 X=5.000D-01 Y=-1.776014206106D+03 DE=-4.50D-04 F= -6.88D-04
     ILin= 3 X=1.000D+00 Y=-1.776014443878D+03 DE=-6.88D-04 F= -2.63D-04
     ILin= 4 X=2.100D+00 Y=-1.776014219735D+03 DE=-4.64D-04 F=  6.70D-04
     An  expanding polynomial of degree  4 produced  1.3098
 Iteration   4 EE= -1776.01448461269     Delta-E=       -0.000728952044 Grad=2.231D-02 Max rot=    0.1447 deg.
 Gradient too large for Newton-Raphson -- use scaled steepest descent instead.
     ILin= 1 X=0.000D+00 Y=-1.776014484613D+03 DE= 0.00D+00 F= -6.55D-04
     ILin= 2 X=1.100D+00 Y=-1.776014806168D+03 DE=-3.22D-04 F=  7.06D-05
     Accept linear search using points  1 and  2.
     An  expanding polynomial of degree  2 produced  1.0131
     Minimum is close to point  2 DX= -8.69D-02 DF= -2.77D-06 DXR=  8.58D-02 DFR=  8.62D-03 which will be used.
 Iteration   5 EE= -1776.01480616779     Delta-E=       -0.000321555100 Grad=1.554D-02 Max rot=    0.1978 deg.
 Gradient too large for Newton-Raphson -- use scaled steepest descent instead.
     ILin= 1 X=0.000D+00 Y=-1.776014806168D+03 DE= 0.00D+00 F= -3.59D-04
     ILin= 2 X=1.200D+00 Y=-1.776014997469D+03 DE=-1.91D-04 F=  4.03D-05
     Accept linear search using points  1 and  2.
     An  expanding polynomial of degree  2 produced  1.1180
     Minimum is close to point  2 DX= -8.20D-02 DF= -1.36D-06 DXR=  7.34D-02 DFR=  7.13D-03 which will be used.
 Iteration   6 EE= -1776.01499746856     Delta-E=       -0.000191300769 Grad=1.374D-02 Max rot=    0.1196 deg.
 Gradient too large for Newton-Raphson -- use scaled steepest descent instead.
     ILin= 1 X=0.000D+00 Y=-1.776014997469D+03 DE= 0.00D+00 F= -2.60D-04
     ILin= 2 X=1.100D+00 Y=-1.776015129868D+03 DE=-1.32D-04 F=  1.92D-05
     Accept linear search using points  1 and  2.
     An  expanding polynomial of degree  2 produced  1.0397
     Minimum is close to point  2 DX= -6.03D-02 DF= -5.24D-07 DXR=  5.80D-02 DFR=  3.95D-03 which will be used.
 Iteration   7 EE= -1776.01512986771     Delta-E=       -0.000132399151 Grad=1.009D-02 Max rot=    0.1513 deg.
 Gradient too large for Newton-Raphson -- use scaled steepest descent instead.
     ILin= 1 X=0.000D+00 Y=-1.776015129868D+03 DE= 0.00D+00 F= -1.60D-04
     ILin= 2 X=1.100D+00 Y=-1.776015222454D+03 DE=-9.26D-05 F= -8.66D-06
     Reject lnstep minimum 1.146D+00 FVal=-1.776015222637D+03 Lims=  0.00D+00  1.10D+00
     ILin= 3 X=2.200D+00 Y=-1.776015149107D+03 DE=-1.92D-05 F=  1.42D-04
     An  expanding polynomial of degree  3 produced  1.1638
     Minimum is close to point  2 DX=  6.38D-02 DF= -2.79D-07 DXR=  5.48D-02 DFR=  3.01D-03 which will be used.
 Iteration   8 EE= -1776.01522245422     Delta-E=       -0.000092586511 Grad=8.185D-03 Max rot=    0.1251 deg.
 QCNR:  CnvC1=8.18D-08 CnvC2=8.18D-07
 LinEq1:  Iter=  0 NonCon=     1 RMS=6.77D-05 Max=1.39D-02 NDo=     1
 LinEq1:  Iter=  1 NonCon=     1 RMS=4.73D-05 Max=4.99D-03 NDo=     1
 LinEq1:  Iter=  2 NonCon=     1 RMS=2.31D-05 Max=3.63D-03 NDo=     1
 LinEq1:  Iter=  3 NonCon=     1 RMS=1.57D-05 Max=1.74D-03 NDo=     1
 LinEq1:  Iter=  4 NonCon=     1 RMS=6.29D-06 Max=6.14D-04 NDo=     1
 LinEq1:  Iter=  5 NonCon=     1 RMS=3.96D-06 Max=2.77D-04 NDo=     1
 LinEq1:  Iter=  6 NonCon=     1 RMS=1.75D-06 Max=1.11D-04 NDo=     1
 LinEq1:  Iter=  7 NonCon=     1 RMS=1.09D-06 Max=5.90D-05 NDo=     1
 LinEq1:  Iter=  8 NonCon=     1 RMS=5.74D-07 Max=3.36D-05 NDo=     1
 LinEq1:  Iter=  9 NonCon=     1 RMS=2.63D-07 Max=1.54D-05 NDo=     1
 LinEq1:  Iter= 10 NonCon=     1 RMS=1.64D-07 Max=1.12D-05 NDo=     1
 LinEq1:  Iter= 11 NonCon=     1 RMS=8.61D-08 Max=5.54D-06 NDo=     1
 LinEq1:  Iter= 12 NonCon=     1 RMS=5.39D-08 Max=2.84D-06 NDo=     1
 LinEq1:  Iter= 13 NonCon=     1 RMS=3.12D-08 Max=1.83D-06 NDo=     1
 LinEq1:  Iter= 14 NonCon=     1 RMS=1.59D-08 Max=8.37D-07 NDo=     1
 LinEq1:  Iter= 15 NonCon=     0 RMS=8.00D-09 Max=4.67D-07 NDo=     1
 Linear equations converged to 8.185D-08 8.185D-07 after    15 iterations.
 Angle between quadratic step and gradient=  61.04 degrees.
     ILin= 1 X=0.000D+00 Y=-1.776015222454D+03 DE= 0.00D+00 F= -8.31D-04
     ILin= 2 X=1.000D+00 Y=-1.776015602581D+03 DE=-3.80D-04
 Iteration   9 EE= -1776.01560258138     Delta-E=       -0.000380127151 Grad=2.324D-03 Max rot=    0.0164 deg.
 QCNR:  CnvC1=2.32D-08 CnvC2=2.32D-07
 LinEq1:  Iter=  0 NonCon=     1 RMS=1.25D-05 Max=2.00D-03 NDo=     1
 LinEq1:  Iter=  1 NonCon=     1 RMS=1.49D-05 Max=3.19D-03 NDo=     1
 LinEq1:  Iter=  2 NonCon=     1 RMS=6.88D-06 Max=4.82D-04 NDo=     1
 LinEq1:  Iter=  3 NonCon=     1 RMS=3.40D-06 Max=2.99D-04 NDo=     1
 LinEq1:  Iter=  4 NonCon=     1 RMS=2.21D-06 Max=1.86D-04 NDo=     1
[...]
     5   Atom        0.032865     -0.015354     -0.017510
     6   Atom       -0.077694      0.027944      0.049751
     7   Atom        0.000690     -0.000626     -0.000064
     8   Atom        0.000723     -0.000640     -0.000083
     9   Atom        0.000527     -0.000291     -0.000236
    10   Atom       -0.055357      0.071139     -0.015782
    11   Atom        0.028420     -0.012287     -0.016133
    12   Atom       -0.066716      0.076103     -0.009387
    13   Atom        0.018675     -0.025963      0.007288
    14   Atom       -0.003278      0.002336      0.000943
    15   Atom        0.001996     -0.001715     -0.000281
    16   Atom       -0.004339      0.001243      0.003096
    17   Atom       -0.000409      0.000183      0.000226
    18   Atom        0.001113     -0.000423     -0.000691
    19   Atom        0.002173     -0.001154     -0.001019
    20   Atom        0.000309     -0.000153     -0.000155
    21   Atom        0.000436     -0.000246     -0.000189
    22   Atom        0.000207     -0.000160     -0.000047
    23   Atom       -0.002992     -0.004875      0.007868
    24   Atom       -0.490803     -0.495066      0.985870
    25   Atom       -0.014516      0.004055      0.010462
    26   Atom        0.065577     -0.042042     -0.023535
    27   Atom        0.024172     -0.004805     -0.019366
    28   Atom       -0.004629      0.017127     -0.012498
    29   Atom       -0.011322      0.020989     -0.009668
    30   Atom        0.018332     -0.051060      0.032728
    31   Atom       -0.001458      0.001412      0.000046
    32   Atom       -0.000872     -0.000999      0.001871
    33   Atom       -0.000870      0.001691     -0.000821
    34   Atom       -0.000103      0.000358     -0.000255
    35   Atom        0.000953      0.002849     -0.003802
    36   Atom       -0.011811      0.012625     -0.000813
    37   Atom        0.032071     -0.055875      0.023804
    38   Atom        0.004066     -0.031281      0.027215
    39   Atom        0.009732      0.023142     -0.032874
    40   Atom        0.006618      0.025475     -0.032093
    41   Atom       -0.031480     -0.059859      0.091339
    42   Atom        0.002308     -0.000002     -0.002305
    43   Atom        0.003658     -0.002160     -0.001498
    44   Atom       -0.000684      0.002216     -0.001531
    45   Atom        0.000302      0.001115     -0.001417
    46   Atom       -0.003743      0.006187     -0.002444
 --------------------------------------------------------
                        XY            XZ            YZ
 --------------------------------------------------------
     1   Atom       -0.001359      0.001872      0.000934
     2   Atom       -0.011189     -0.007281      0.009289
     3   Atom        0.028976     -0.002576     -0.009817
     4   Atom        0.001342     -0.002088     -0.001288
     5   Atom        0.012398      0.011140     -0.045351
     6   Atom       -0.033315     -0.035954      0.134381
     7   Atom       -0.000320     -0.000501      0.000895
     8   Atom       -0.000278     -0.000845      0.000989
     9   Atom        0.000013      0.000001      0.000015
    10   Atom       -0.055260     -0.030928      0.089129
    11   Atom        0.016148      0.018613     -0.043456
    12   Atom       -0.017695     -0.015253      0.091544
    13   Atom        0.008992      0.005240     -0.015649
    14   Atom        0.002354     -0.003610     -0.006416
    15   Atom       -0.000452      0.001876     -0.001720
    16   Atom       -0.001352      0.002680     -0.006081
    17   Atom        0.000030     -0.000672     -0.001001
    18   Atom       -0.001300     -0.001656      0.002235
    19   Atom        0.001936     -0.000352     -0.001584
    20   Atom       -0.000348     -0.000443      0.000392
    21   Atom       -0.000072     -0.000165      0.000084
    22   Atom       -0.000214     -0.000318      0.000146
    23   Atom       -0.000644      0.002626      0.000642
    24   Atom       -0.056536     -0.300694      0.287883
    25   Atom       -0.019944      0.010933      0.006856
    26   Atom        0.044212     -0.056077     -0.023496
    27   Atom        0.062591     -0.057812     -0.040117
    28   Atom       -0.016436      0.031381      0.014379
    29   Atom       -0.013979      0.033938      0.009933
    30   Atom        0.029779     -0.090779     -0.037302
    31   Atom        0.002155      0.002948      0.004972
    32   Atom        0.002235      0.004702      0.002970
    33   Atom       -0.001479      0.000990      0.000565
    34   Atom       -0.001569      0.001844     -0.000209
    35   Atom       -0.006730     -0.000927     -0.005046
    36   Atom        0.011237     -0.020716      0.006837
    37   Atom       -0.011689      0.079042     -0.014999
    38   Atom       -0.039003      0.073137     -0.040283
    39   Atom        0.007445     -0.026018      0.010550
    40   Atom        0.004802     -0.029565      0.004502
    41   Atom       -0.006665      0.074524     -0.020445
    42   Atom       -0.003646     -0.003413      0.003111
    43   Atom       -0.002201     -0.004706      0.000983
    44   Atom        0.000565     -0.001031      0.000629
    45   Atom        0.001471     -0.001474     -0.000134
    46   Atom        0.006538      0.002423     -0.002299
 --------------------------------------------------------


 ---------------------------------------------------------------------------------
              Anisotropic Spin Dipole Couplings in Principal Axis System
 ---------------------------------------------------------------------------------

       Atom             a.u.   MegaHertz   Gauss  10(-4) cm-1        Axes

              Baa    -0.0035    -0.474    -0.169    -0.158  0.2967  0.8256 -0.4799
     1 C(13)  Bbb    -0.0006    -0.082    -0.029    -0.027 -0.2014  0.5453  0.8137
              Bcc     0.0041     0.556     0.198     0.185  0.9335 -0.1448  0.3281
 
              Baa    -0.0107    -1.431    -0.510    -0.477  0.0146 -0.5347  0.8449
     2 C(13)  Bbb    -0.0087    -1.170    -0.418    -0.390  0.8098  0.5019  0.3037
              Bcc     0.0194     2.601     0.928     0.868 -0.5865  0.6798  0.4403
 
              Baa    -0.0453    -1.859    -0.663    -0.620  0.9600 -0.2797 -0.0098
     3 S(33)  Bbb    -0.0188    -0.771    -0.275    -0.257  0.0438  0.1156  0.9923
              Bcc     0.0641     2.630     0.938     0.877  0.2764  0.9531 -0.1232
 
              Baa    -0.0019    -0.253    -0.090    -0.084  0.2070  0.6678  0.7150
     4 C(13)  Bbb    -0.0015    -0.205    -0.073    -0.068  0.6652 -0.6320  0.3977
              Bcc     0.0034     0.457     0.163     0.153  0.7174  0.3933 -0.5750
 
              Baa    -0.0646    -8.673    -3.095    -2.893 -0.1682  0.6901  0.7039
     5 C(13)  Bbb     0.0288     3.860     1.377     1.288  0.1502 -0.6878  0.7102
              Bcc     0.0359     4.813     1.717     1.605  0.9742  0.2252  0.0120
 
              Baa    -0.0960   -12.879    -4.596    -4.296  0.0125  0.7366 -0.6762
     6 C(13)  Bbb    -0.0869   -11.663    -4.162    -3.890  0.9827  0.1159  0.1445
              Bcc     0.1829    24.542     8.757     8.186 -0.1849  0.6663  0.7224
 
              Baa    -0.0013    -0.172    -0.061    -0.057 -0.0217  0.8018 -0.5972
     7 C(13)  Bbb     0.0000     0.006     0.002     0.002  0.6773  0.4512  0.5812
              Bcc     0.0012     0.166     0.059     0.055  0.7354 -0.3919 -0.5528
 
              Baa    -0.0014    -0.193    -0.069    -0.064 -0.1565  0.7479 -0.6451
     8 C(13)  Bbb    -0.0001    -0.016    -0.006    -0.005  0.6728  0.5589  0.4848
              Bcc     0.0016     0.208     0.074     0.069  0.7231 -0.3582 -0.5906
 
              Baa    -0.0003    -0.158    -0.056    -0.053 -0.0151  0.9688 -0.2475
     9 H(1)   Bbb    -0.0002    -0.124    -0.044    -0.041 -0.0062  0.2475  0.9689
              Bcc     0.0005     0.281     0.100     0.094  0.9999  0.0162  0.0022
 
              Baa    -0.0768   -10.302    -3.676    -3.436  0.8361  0.4763 -0.2721
    10 C(13)  Bbb    -0.0699    -9.377    -3.346    -3.128  0.4600 -0.3386  0.8208
              Bcc     0.1466    19.679     7.022     6.564 -0.2989  0.8115  0.5022
 
              Baa    -0.0642    -8.621    -3.076    -2.876 -0.2567  0.6657  0.7006
    11 C(13)  Bbb     0.0291     3.900     1.392     1.301  0.1856  0.7454 -0.6403
              Bcc     0.0352     4.721     1.685     1.575  0.9485  0.0343  0.3149
 
              Baa    -0.0720    -9.655    -3.445    -3.221  0.7831 -0.2567  0.5665
    12 C(13)  Bbb    -0.0651    -8.731    -3.115    -2.912 -0.6116 -0.4830  0.6266
              Bcc     0.1370    18.386     6.561     6.133 -0.1128  0.8372  0.5352
 
              Baa    -0.0342    -4.586    -1.636    -1.530 -0.1913  0.9101  0.3677
    13 C(13)  Bbb     0.0132     1.769     0.631     0.590 -0.1948 -0.4023  0.8945
              Bcc     0.0210     2.817     1.005     0.940  0.9620  0.0995  0.2542
 
              Baa    -0.0058    -3.092    -1.103    -1.031  0.6477  0.3475  0.6780
    14 H(1)   Bbb    -0.0037    -1.957    -0.698    -0.653  0.6948 -0.6344 -0.3387
              Bcc     0.0095     5.049     1.802     1.684  0.3125  0.6905 -0.6524
 
              Baa    -0.0030    -1.584    -0.565    -0.528 -0.1593  0.7773  0.6086
    15 H(1)   Bbb    -0.0004    -0.216    -0.077    -0.072 -0.5676 -0.5765  0.5878
              Bcc     0.0034     1.801     0.643     0.601  0.8078 -0.2518  0.5330
 
              Baa    -0.0053    -2.851    -1.017    -0.951  0.8684 -0.2283 -0.4403
    16 H(1)   Bbb    -0.0036    -1.931    -0.689    -0.644  0.4471  0.7445  0.4958
              Bcc     0.0090     4.781     1.706     1.595  0.2146 -0.6274  0.7486
 
              Baa    -0.0011    -0.151    -0.054    -0.050  0.5879  0.4826  0.6493
    17 C(13)  Bbb    -0.0002    -0.031    -0.011    -0.010  0.7564 -0.6125 -0.2297
              Bcc     0.0014     0.182     0.065     0.061 -0.2868 -0.6261  0.7251
 
              Baa    -0.0028    -1.510    -0.539    -0.504  0.1049 -0.6458  0.7563
    18 H(1)   Bbb    -0.0007    -0.361    -0.129    -0.120  0.7452  0.5546  0.3703
              Bcc     0.0035     1.871     0.667     0.624  0.6585 -0.5248 -0.5394
 
              Baa    -0.0030    -1.587    -0.566    -0.529 -0.2512  0.7737  0.5816
    19 H(1)   Bbb    -0.0003    -0.175    -0.062    -0.058  0.4493 -0.4390  0.7781
              Bcc     0.0033     1.762     0.629     0.588  0.8573  0.4568 -0.2374
 
              Baa    -0.0006    -0.297    -0.106    -0.099  0.1410 -0.6252  0.7676
    20 H(1)   Bbb    -0.0003    -0.149    -0.053    -0.050  0.6689  0.6318  0.3917
              Bcc     0.0008     0.446     0.159     0.149  0.7298 -0.4582 -0.5073
 
              Baa    -0.0003    -0.165    -0.059    -0.055 -0.0653  0.7725 -0.6317
    21 H(1)   Bbb    -0.0002    -0.095    -0.034    -0.032  0.2696  0.6232  0.7342
              Bcc     0.0005     0.260     0.093     0.087  0.9608 -0.1224 -0.2489
 
              Baa    -0.0003    -0.140    -0.050    -0.047  0.4509 -0.2726  0.8500
    22 H(1)   Bbb    -0.0003    -0.138    -0.049    -0.046  0.4450  0.8941  0.0507
              Bcc     0.0005     0.278     0.099     0.093  0.7738 -0.3553 -0.5244
 
              Baa    -0.0053    -0.215    -0.077    -0.072  0.4038  0.9062 -0.1252
    23 S(33)  Bbb    -0.0032    -0.133    -0.047    -0.044  0.8878 -0.4212 -0.1856
              Bcc     0.0085     0.348     0.124     0.116  0.2209  0.0362  0.9746
 
              Baa    -0.5497   -21.202    -7.565    -7.072  0.9623  0.2299  0.1453
    24 N(14)  Bbb    -0.5490   -21.175    -7.556    -7.063 -0.1956  0.9562 -0.2177
              Bcc     1.0988    42.377    15.121    14.135 -0.1890  0.1810  0.9651
 
              Baa    -0.0312    -4.190    -1.495    -1.398  0.8058  0.5130 -0.2957
    25 C(13)  Bbb     0.0145     1.939     0.692     0.647  0.2280  0.1921  0.9545
              Bcc     0.0168     2.251     0.803     0.751 -0.5465  0.8366 -0.0378
 
              Baa    -0.0590    -7.917    -2.825    -2.641 -0.1824  0.9276  0.3262
    26 C(13)  Bbb    -0.0502    -6.736    -2.404    -2.247  0.4884 -0.2024  0.8488
              Bcc     0.1092    14.653     5.229     4.888  0.8533  0.3141 -0.4161
 
              Baa    -0.0600    -8.053    -2.874    -2.686  0.6629 -0.2349  0.7109
    27 C(13)  Bbb    -0.0516    -6.924    -2.471    -2.310 -0.2715  0.8095  0.5206
              Bcc     0.1116    14.977     5.344     4.996  0.6978  0.5381 -0.4728
 
              Baa    -0.0475    -6.369    -2.273    -2.125 -0.6367 -0.3184  0.7023
    28 C(13)  Bbb     0.0210     2.816     1.005     0.939  0.4541  0.5813  0.6752
              Bcc     0.0265     3.553     1.268     1.185 -0.6232  0.7488 -0.2256
 
              Baa    -0.0486    -6.518    -2.326    -2.174  0.7014  0.2369 -0.6723
    29 C(13)  Bbb     0.0216     2.896     1.033     0.966  0.4595  0.5707  0.6805
              Bcc     0.0270     3.623     1.293     1.208 -0.5449  0.7862 -0.2914
 
              Baa    -0.0680    -9.131    -3.258    -3.046  0.4845  0.5830  0.6522
    30 C(13)  Bbb    -0.0611    -8.203    -2.927    -2.736 -0.5824  0.7712 -0.2568
              Bcc     0.1292    17.334     6.185     5.782 -0.6527 -0.2555  0.7132
 
              Baa    -0.0046    -2.467    -0.880    -0.823 -0.3796 -0.5037  0.7760
    31 H(1)   Bbb    -0.0026    -1.385    -0.494    -0.462  0.8427 -0.5343  0.0653
              Bcc     0.0072     3.852     1.374     1.285  0.3817  0.6788  0.6273
 
              Baa    -0.0044    -2.347    -0.837    -0.783  0.8006 -0.0027 -0.5992
    32 H(1)   Bbb    -0.0027    -1.443    -0.515    -0.481 -0.2479  0.9089 -0.3353
              Bcc     0.0071     3.790     1.352     1.264  0.5455  0.4170  0.7270
 
              Baa    -0.0024    -1.268    -0.452    -0.423  0.7289  0.3471 -0.5901
    33 H(1)   Bbb     0.0000     0.003     0.001     0.001  0.5514  0.2133  0.8065
              Bcc     0.0024     1.265     0.451     0.422 -0.4058  0.9133  0.0359
 
              Baa    -0.0024    -1.279    -0.456    -0.427  0.7223  0.3670 -0.5862
    34 H(1)   Bbb    -0.0001    -0.056    -0.020    -0.019  0.1374  0.7545  0.6417
              Bcc     0.0025     1.335     0.476     0.445  0.6778 -0.5440  0.4946
 
              Baa    -0.0087    -4.621    -1.649    -1.541  0.4637  0.5689  0.6792
    35 H(1)   Bbb    -0.0009    -0.466    -0.166    -0.156 -0.6698 -0.2767  0.6891
              Bcc     0.0095     5.088     1.815     1.697 -0.5800  0.7744 -0.2527
 
              Baa    -0.0316    -4.242    -1.514    -1.415  0.7653 -0.2837  0.5777
    36 C(13)  Bbb     0.0143     1.915     0.683     0.639 -0.3942  0.5030  0.7692
              Bcc     0.0173     2.327     0.830     0.776  0.5088  0.8164 -0.2731
 
              Baa    -0.0590    -7.921    -2.827    -2.642 -0.1565  0.9349  0.3186
    37 C(13)  Bbb    -0.0502    -6.736    -2.404    -2.247  0.6769  0.3364 -0.6548
              Bcc     0.1092    14.658     5.230     4.889  0.7193 -0.1132  0.6854
 
              Baa    -0.0600    -8.048    -2.872    -2.685  0.7839  0.4052 -0.4704
    38 C(13)  Bbb    -0.0516    -6.929    -2.473    -2.311 -0.1133  0.8383  0.5333
              Bcc     0.1116    14.978     5.344     4.996  0.6104 -0.3648  0.7031
 
              Baa    -0.0475    -6.373    -2.274    -2.126  0.4264 -0.1774  0.8870
    39 C(13)  Bbb     0.0210     2.817     1.005     0.940  0.7760 -0.4322 -0.4595
              Bcc     0.0265     3.556     1.269     1.186  0.4649  0.8841 -0.0466
 
              Baa    -0.0486    -6.522    -2.327    -2.175  0.4760 -0.0841  0.8754
    40 C(13)  Bbb     0.0216     2.901     1.035     0.968  0.7769 -0.4263 -0.4634
              Bcc     0.0270     3.621     1.292     1.208  0.4121  0.9007 -0.1376
 
              Baa    -0.0679    -9.113    -3.252    -3.040  0.7970 -0.4264 -0.4277
    41 C(13)  Bbb    -0.0610    -8.185    -2.921    -2.730  0.4316  0.8975 -0.0907
              Bcc     0.1289    17.298     6.172     5.770  0.4226 -0.1123  0.8994
 
              Baa    -0.0046    -2.468    -0.881    -0.823  0.2080 -0.4278  0.8796
    42 H(1)   Bbb    -0.0026    -1.374    -0.490    -0.458  0.6695  0.7179  0.1909
              Bcc     0.0072     3.842     1.371     1.282  0.7131 -0.5492 -0.4357
 
              Baa    -0.0043    -2.311    -0.825    -0.771  0.5339  0.1658  0.8291
    43 H(1)   Bbb    -0.0027    -1.460    -0.521    -0.487  0.1275  0.9536 -0.2728
              Bcc     0.0071     3.771     1.346     1.258  0.8359 -0.2513 -0.4880
 
              Baa    -0.0024    -1.267    -0.452    -0.423  0.5551 -0.1796  0.8122
    44 H(1)   Bbb     0.0000     0.001     0.000     0.000  0.8198 -0.0470 -0.5707
              Bcc     0.0024     1.267     0.452     0.423  0.1407  0.9826  0.1211
 
              Baa    -0.0024    -1.276    -0.455    -0.426  0.5527 -0.2009  0.8088
    45 H(1)   Bbb    -0.0001    -0.066    -0.024    -0.022 -0.5204  0.6748  0.5232
              Bcc     0.0025     1.342     0.479     0.448  0.6509  0.7101 -0.2684
 
              Baa    -0.0086    -4.613    -1.646    -1.539  0.7836 -0.4168 -0.4607
    46 H(1)   Bbb    -0.0009    -0.465    -0.166    -0.155  0.4505 -0.1295  0.8833
              Bcc     0.0095     5.078     1.812     1.694  0.4279  0.8997 -0.0863
 

 ---------------------------------------------------------------------------------

 No NMR shielding tensors so no spin-rotation constants.
 Leave Link  601 at Mon Jan 18 13:57:47 2021, MaxMem=  4026531840 cpu:               7.6 elap:               1.1
 (Enter /opt/ohpc/pub/libs/gaussian/g16-A.03/sandybridge/g16/l9999.exe)

 Test job not archived.
 1\1\GINC-CASCADEB058\SP\ULC-wHPBE\TZVP\C24H19N1S2(1+,2)\RDU230\18-Jan-
 2021\0\\#P LC-wHPBE/TZVP iop(3/107=0221900000, 3/108=0221900000) scf=(
 conver=6,fermi,ndamp=35,noincfock,novaracc,vshift=500,xqc)\\H19 C24 S2
  N1\\1,2\C,0,-3.352046,1.022081,0.90149\C,0,-4.015603,0.124147,0.07783
 3\S,0,-3.193622,-0.833868,-1.176213\C,0,-5.398593,-0.028228,0.207342\C
 ,0,-0.749106,0.373785,-1.531691\C,0,-1.475477,-0.56699,-0.815552\C,0,-
 4.041516,1.761821,1.844012\C,0,-6.080951,0.720801,1.156415\H,0,-7.4759
 44,-0.835079,-0.458792\C,0,0.601771,0.54717,-1.299188\C,0,-0.823428,-1
 .336346,0.139234\C,0,0.521569,-1.15492,0.389409\C,0,1.255724,-0.212476
 ,-0.331046\H,0,1.160253,1.275483,-1.876291\H,0,-1.383265,-2.076857,0.7
 00814\H,0,1.015474,-1.752114,1.147605\C,0,-5.411167,1.613701,1.970885\
 H,0,-2.279577,1.141824,0.800598\H,0,-1.248138,0.967582,-2.290346\H,0,-
 3.503227,2.458074,2.478369\H,0,-7.154267,0.598627,1.263844\H,0,-5.9624
 34,2.189124,2.706912\S,0,-6.238224,-1.192989,-0.835805\N,0,2.627173,-0
 .037586,-0.087724\C,0,3.438312,-1.140752,0.276409\C,0,4.374889,-1.0129
 28,1.295896\C,0,3.317625,-2.35655,-0.387733\C,0,5.1794,-2.084309,1.640
 01\C,0,4.112866,-3.428755,-0.025756\C,0,5.049979,-3.298472,0.986151\H,
 0,4.470709,-0.064848,1.814448\H,0,2.593785,-2.456724,-1.189607\H,0,5.9
 0745,-1.970366,2.436839\H,0,4.006805,-4.37257,-0.551042\H,0,5.67733,-4
 .139106,1.26285\C,0,3.224517,1.239724,-0.221989\C,0,4.446224,1.376745,
 -0.87125\C,0,2.604731,2.367846,0.304633\C,0,5.03746,2.622109,-0.986244
 \C,0,3.193018,3.612223,0.169883\C,0,4.413292,3.746533,-0.472133\H,0,4.
 931907,0.498005,-1.282066\H,0,1.656156,2.262505,0.820378\H,0,5.992055,
 2.71427,-1.494403\H,0,2.697309,4.484427,0.584059\H,0,4.876004,4.72281,
 -0.569917\\Version=EM64L-G16RevA.03\State=2-A\HF=-1776.0156109\S2=0.77
 5447\S2-1=0.\S2A=0.750598\RMSD=1.162e-07\Dipole=4.2814922,0.4866859,0.
 5376533\Quadrupole=36.96527,-7.1825784,-29.7826916,-4.3596869,-3.94008
 68,-1.2545499\PG=C01 [X(C24H19N1S2)]\\@


    THE DOUGHNUT CREED
 AS YOU RAMBLE ON THROUGH LIFE, BROTHER
 WHATEVER BE YOUR GOAL
 KEEP YOUR EYE UPON THE DOUGHNUT
 AND NOT UPON THE HOLE.
 Job cpu time:       0 days 10 hours 10 minutes  5.2 seconds.
 Elapsed time:       0 days  1 hours 16 minutes 31.1 seconds.
 File lengths (MBytes):  RWF=    244 Int=      0 D2E=      0 Chk=     36 Scr=      8
 Normal termination of Gaussian 16 at Mon Jan 18 13:57:47 2021.
