 Entering Gaussian System, Link 0=g16
 Input=mol_ta_pa_half_tune_c7.gjf
 Output=mol_ta_pa_half_tune_c7.log
 Initial command:
 /opt/ohpc/pub/libs/gaussian/g16-A.03/sandybridge/g16/l1.exe "/mnt/gpfs2_4m/scratch/rdu230/ondemand/projects/init_structures/wtuning/mol_ta_pa_half/tuning_mol_ta_pa_half_ocycle0/Gau-426239.inp" -scrdir="/mnt/gpfs2_4m/scratch/rdu230/ondemand/projects/init_structures/wtuning/mol_ta_pa_half/tuning_mol_ta_pa_half_ocycle0/"
 Entering Link 1 = /opt/ohpc/pub/libs/gaussian/g16-A.03/sandybridge/g16/l1.exe PID=    426240.
  
 Copyright (c) 1988,1990,1992,1993,1995,1998,2003,2009,2016,
            Gaussian, Inc.  All Rights Reserved.
  
 This is part of the Gaussian(R) 16 program.  It is based on
 the Gaussian(R) 09 system (copyright 2009, Gaussian, Inc.),
 the Gaussian(R) 03 system (copyright 2003, Gaussian, Inc.),
 the Gaussian(R) 98 system (copyright 1998, Gaussian, Inc.),
 the Gaussian(R) 94 system (copyright 1995, Gaussian, Inc.),
 the Gaussian 92(TM) system (copyright 1992, Gaussian, Inc.),
 the Gaussian 90(TM) system (copyright 1990, Gaussian, Inc.),
 the Gaussian 88(TM) system (copyright 1988, Gaussian, Inc.),
 the Gaussian 86(TM) system (copyright 1986, Carnegie Mellon
 University), and the Gaussian 82(TM) system (copyright 1983,
 Carnegie Mellon University). Gaussian is a federally registered
 trademark of Gaussian, Inc.
  
 This software contains proprietary and confidential information,
 including trade secrets, belonging to Gaussian, Inc.
  
 This software is provided under written license and may be
 used, copied, transmitted, or stored only in accord with that
 written license.
  
 The following legend is applicable only to US Government
 contracts under FAR:
  
                    RESTRICTED RIGHTS LEGEND
  
 Use, reproduction and disclosure by the US Government is
 subject to restrictions as set forth in subparagraphs (a)
 and (c) of the Commercial Computer Software - Restricted
 Rights clause in FAR 52.227-19.
  
 Gaussian, Inc.
 340 Quinnipiac St., Bldg. 40, Wallingford CT 06492
  
  
 ---------------------------------------------------------------
 Warning -- This program may not be used in any manner that
 competes with the business of Gaussian, Inc. or will provide
 assistance to any competitor of Gaussian, Inc.  The licensee
 of this program is prohibited from giving any competitor of
 Gaussian, Inc. access to this program.  By using this program,
 the user acknowledges that Gaussian, Inc. is engaged in the
 business of creating and licensing software in the field of
 computational chemistry and represents and warrants to the
 licensee that it is not a competitor of Gaussian, Inc. and that
 it will not use this program in any manner prohibited above.
 ---------------------------------------------------------------
  

 Cite this work as:
 Gaussian 16, Revision A.03,
 M. J. Frisch, G. W. Trucks, H. B. Schlegel, G. E. Scuseria, 
 M. A. Robb, J. R. Cheeseman, G. Scalmani, V. Barone, 
 G. A. Petersson, H. Nakatsuji, X. Li, M. Caricato, A. V. Marenich, 
 J. Bloino, B. G. Janesko, R. Gomperts, B. Mennucci, H. P. Hratchian, 
 J. V. Ortiz, A. F. Izmaylov, J. L. Sonnenberg, D. Williams-Young, 
 F. Ding, F. Lipparini, F. Egidi, J. Goings, B. Peng, A. Petrone, 
 T. Henderson, D. Ranasinghe, V. G. Zakrzewski, J. Gao, N. Rega, 
 G. Zheng, W. Liang, M. Hada, M. Ehara, K. Toyota, R. Fukuda, 
 J. Hasegawa, M. Ishida, T. Nakajima, Y. Honda, O. Kitao, H. Nakai, 
 T. Vreven, K. Throssell, J. A. Montgomery, Jr., J. E. Peralta, 
 F. Ogliaro, M. J. Bearpark, J. J. Heyd, E. N. Brothers, K. N. Kudin, 
 V. N. Staroverov, T. A. Keith, R. Kobayashi, J. Normand, 
 K. Raghavachari, A. P. Rendell, J. C. Burant, S. S. Iyengar, 
 J. Tomasi, M. Cossi, J. M. Millam, M. Klene, C. Adamo, R. Cammi, 
 J. W. Ochterski, R. L. Martin, K. Morokuma, O. Farkas, 
 J. B. Foresman, and D. J. Fox, Gaussian, Inc., Wallingford CT, 2016.
 
 ******************************************
 Gaussian 16:  EM64L-G16RevA.03 25-Dec-2016
                19-Jan-2021 
 ******************************************
 %mem=30GB
 %nproc=8
 Will use up to    8 processors via shared memory.
 ----------------------------------------------------------------------
 #P LC-wHPBE/TZVP iop(3/107=0170800000, 3/108=0170800000) scf=(conver=6
 ,fermi,ndamp=35,noincfock,novaracc,vshift=500,xqc)
 ----------------------------------------------------------------------
 1/38=1,172=1/1;
 2/12=2,17=6,18=5,40=1/2;
 3/5=19,7=101,11=2,25=1,30=1,74=-71,107=170800000,108=170800000/1,2,3;
 4//1;
 5/5=100002,6=6,8=3,10=500,13=1,18=-1,22=13,38=1,93=35/2,8;
 6/7=2,8=2,9=2,10=2,28=1/1;
 99/5=1,9=1/99;
 Leave Link    1 at Tue Jan 19 04:28:14 2021, MaxMem=  4026531840 cpu:               1.7 elap:               0.3
 (Enter /opt/ohpc/pub/libs/gaussian/g16-A.03/sandybridge/g16/l101.exe)
 -------------
 H19 C24 S2 N1
 -------------
 Symbolic Z-matrix:
 Charge =  1 Multiplicity = 2
 C                    -3.35205   1.02208   0.90149 
 C                    -4.0156    0.12415   0.07783 
 S                    -3.19362  -0.83387  -1.17621 
 C                    -5.39859  -0.02823   0.20734 
 C                    -0.74911   0.37379  -1.53169 
 C                    -1.47548  -0.56699  -0.81555 
 C                    -4.04152   1.76182   1.84401 
 C                    -6.08095   0.7208    1.15641 
 H                    -7.47594  -0.83508  -0.45879 
 C                     0.60177   0.54717  -1.29919 
 C                    -0.82343  -1.33635   0.13923 
 C                     0.52157  -1.15492   0.38941 
 C                     1.25572  -0.21248  -0.33105 
 H                     1.16025   1.27548  -1.87629 
 H                    -1.38327  -2.07686   0.70081 
 H                     1.01547  -1.75211   1.1476 
 C                    -5.41117   1.6137    1.97089 
 H                    -2.27958   1.14182   0.8006 
 H                    -1.24814   0.96758  -2.29035 
 H                    -3.50323   2.45807   2.47837 
 H                    -7.15427   0.59863   1.26384 
 H                    -5.96243   2.18912   2.70691 
 S                    -6.23822  -1.19299  -0.83581 
 N                     2.62717  -0.03759  -0.08772 
 C                     3.43831  -1.14075   0.27641 
 C                     4.37489  -1.01293   1.2959 
 C                     3.31763  -2.35655  -0.38773 
 C                     5.1794   -2.08431   1.64001 
 C                     4.11287  -3.42876  -0.02576 
 C                     5.04998  -3.29847   0.98615 
 H                     4.47071  -0.06485   1.81445 
 H                     2.59379  -2.45672  -1.18961 
 H                     5.90745  -1.97037   2.43684 
 H                     4.0068   -4.37257  -0.55104 
 H                     5.67733  -4.13911   1.26285 
 C                     3.22452   1.23972  -0.22199 
 C                     4.44622   1.37675  -0.87125 
 C                     2.60473   2.36785   0.30463 
 C                     5.03746   2.62211  -0.98624 
 C                     3.19302   3.61222   0.16988 
 C                     4.41329   3.74653  -0.47213 
 H                     4.93191   0.49801  -1.28207 
 H                     1.65616   2.2625    0.82038 
 H                     5.99206   2.71427  -1.4944 
 H                     2.69731   4.48443   0.58406 
 H                     4.876     4.72281  -0.56992 
 
 ITRead=  0  0  0  0  0  0  0  0  0  0  0  0  0  0  0  0  0  0  0  0
 ITRead=  0  0  0  0  0  0  0  0  0  0  0  0  0  0  0  0  0  0  0  0
 ITRead=  0  0  0  0  0  0
 MicOpt= -1 -1 -1 -1 -1 -1 -1 -1 -1 -1 -1 -1 -1 -1 -1 -1 -1 -1 -1 -1
 MicOpt= -1 -1 -1 -1 -1 -1 -1 -1 -1 -1 -1 -1 -1 -1 -1 -1 -1 -1 -1 -1
 MicOpt= -1 -1 -1 -1 -1 -1
 NAtoms=     46 NQM=       46 NQMF=       0 NMMI=      0 NMMIF=      0
                NMic=       0 NMicF=      0.
                    Isotopes and Nuclear Properties:
 (Nuclear quadrupole moments (NQMom) in fm**2, nuclear magnetic moments (NMagM)
  in nuclear magnetons)

  Atom         1           2           3           4           5           6           7           8           9          10
 IAtWgt=          12          12          32          12          12          12          12          12           1          12
 AtmWgt=  12.0000000  12.0000000  31.9720718  12.0000000  12.0000000  12.0000000  12.0000000  12.0000000   1.0078250  12.0000000
 NucSpn=           0           0           0           0           0           0           0           0           1           0
 AtZEff=  -0.0000000  -0.0000000  -0.0000000  -0.0000000  -0.0000000  -0.0000000  -0.0000000  -0.0000000  -0.0000000  -0.0000000
 NQMom=    0.0000000   0.0000000   0.0000000   0.0000000   0.0000000   0.0000000   0.0000000   0.0000000   0.0000000   0.0000000
 NMagM=    0.0000000   0.0000000   0.0000000   0.0000000   0.0000000   0.0000000   0.0000000   0.0000000   2.7928460   0.0000000
 AtZNuc=   6.0000000   6.0000000  16.0000000   6.0000000   6.0000000   6.0000000   6.0000000   6.0000000   1.0000000   6.0000000

  Atom        11          12          13          14          15          16          17          18          19          20
 IAtWgt=          12          12          12           1           1           1          12           1           1           1
 AtmWgt=  12.0000000  12.0000000  12.0000000   1.0078250   1.0078250   1.0078250  12.0000000   1.0078250   1.0078250   1.0078250
 NucSpn=           0           0           0           1           1           1           0           1           1           1
 AtZEff=  -0.0000000  -0.0000000  -0.0000000  -0.0000000  -0.0000000  -0.0000000  -0.0000000  -0.0000000  -0.0000000  -0.0000000
 NQMom=    0.0000000   0.0000000   0.0000000   0.0000000   0.0000000   0.0000000   0.0000000   0.0000000   0.0000000   0.0000000
 NMagM=    0.0000000   0.0000000   0.0000000   2.7928460   2.7928460   2.7928460   0.0000000   2.7928460   2.7928460   2.7928460
 AtZNuc=   6.0000000   6.0000000   6.0000000   1.0000000   1.0000000   1.0000000   6.0000000   1.0000000   1.0000000   1.0000000

  Atom        21          22          23          24          25          26          27          28          29          30
 IAtWgt=           1           1          32          14          12          12          12          12          12          12
 AtmWgt=   1.0078250   1.0078250  31.9720718  14.0030740  12.0000000  12.0000000  12.0000000  12.0000000  12.0000000  12.0000000
 NucSpn=           1           1           0           2           0           0           0           0           0           0
 AtZEff=  -0.0000000  -0.0000000  -0.0000000  -0.0000000  -0.0000000  -0.0000000  -0.0000000  -0.0000000  -0.0000000  -0.0000000
 NQMom=    0.0000000   0.0000000   0.0000000   2.0440000   0.0000000   0.0000000   0.0000000   0.0000000   0.0000000   0.0000000
 NMagM=    2.7928460   2.7928460   0.0000000   0.4037610   0.0000000   0.0000000   0.0000000   0.0000000   0.0000000   0.0000000
 AtZNuc=   1.0000000   1.0000000  16.0000000   7.0000000   6.0000000   6.0000000   6.0000000   6.0000000   6.0000000   6.0000000

  Atom        31          32          33          34          35          36          37          38          39          40
 IAtWgt=           1           1           1           1           1          12          12          12          12          12
 AtmWgt=   1.0078250   1.0078250   1.0078250   1.0078250   1.0078250  12.0000000  12.0000000  12.0000000  12.0000000  12.0000000
 NucSpn=           1           1           1           1           1           0           0           0           0           0
 AtZEff=  -0.0000000  -0.0000000  -0.0000000  -0.0000000  -0.0000000  -0.0000000  -0.0000000  -0.0000000  -0.0000000  -0.0000000
 NQMom=    0.0000000   0.0000000   0.0000000   0.0000000   0.0000000   0.0000000   0.0000000   0.0000000   0.0000000   0.0000000
 NMagM=    2.7928460   2.7928460   2.7928460   2.7928460   2.7928460   0.0000000   0.0000000   0.0000000   0.0000000   0.0000000
 AtZNuc=   1.0000000   1.0000000   1.0000000   1.0000000   1.0000000   6.0000000   6.0000000   6.0000000   6.0000000   6.0000000

  Atom        41          42          43          44          45          46
 IAtWgt=          12           1           1           1           1           1
 AtmWgt=  12.0000000   1.0078250   1.0078250   1.0078250   1.0078250   1.0078250
 NucSpn=           0           1           1           1           1           1
 AtZEff=  -0.0000000  -0.0000000  -0.0000000  -0.0000000  -0.0000000  -0.0000000
 NQMom=    0.0000000   0.0000000   0.0000000   0.0000000   0.0000000   0.0000000
 NMagM=    0.0000000   2.7928460   2.7928460   2.7928460   2.7928460   2.7928460
 AtZNuc=   6.0000000   1.0000000   1.0000000   1.0000000   1.0000000   1.0000000
 Leave Link  101 at Tue Jan 19 04:28:14 2021, MaxMem=  4026531840 cpu:               0.7 elap:               0.1
 (Enter /opt/ohpc/pub/libs/gaussian/g16-A.03/sandybridge/g16/l202.exe)
                          Input orientation:                          
 ---------------------------------------------------------------------
 Center     Atomic      Atomic             Coordinates (Angstroms)
 Number     Number       Type             X           Y           Z
 ---------------------------------------------------------------------
      1          6           0       -3.352046    1.022081    0.901490
      2          6           0       -4.015603    0.124147    0.077833
      3         16           0       -3.193622   -0.833868   -1.176213
      4          6           0       -5.398593   -0.028228    0.207342
      5          6           0       -0.749106    0.373785   -1.531691
      6          6           0       -1.475477   -0.566990   -0.815552
      7          6           0       -4.041516    1.761821    1.844012
      8          6           0       -6.080951    0.720801    1.156415
      9          1           0       -7.475944   -0.835079   -0.458792
     10          6           0        0.601771    0.547170   -1.299188
     11          6           0       -0.823428   -1.336346    0.139234
     12          6           0        0.521569   -1.154920    0.389409
     13          6           0        1.255724   -0.212476   -0.331046
     14          1           0        1.160253    1.275483   -1.876291
     15          1           0       -1.383265   -2.076857    0.700814
     16          1           0        1.015474   -1.752114    1.147605
     17          6           0       -5.411167    1.613701    1.970885
     18          1           0       -2.279577    1.141824    0.800598
     19          1           0       -1.248138    0.967582   -2.290346
     20          1           0       -3.503227    2.458074    2.478369
     21          1           0       -7.154267    0.598627    1.263844
     22          1           0       -5.962434    2.189124    2.706912
     23         16           0       -6.238224   -1.192989   -0.835805
     24          7           0        2.627173   -0.037586   -0.087724
     25          6           0        3.438312   -1.140752    0.276409
     26          6           0        4.374889   -1.012928    1.295896
     27          6           0        3.317625   -2.356550   -0.387733
     28          6           0        5.179400   -2.084309    1.640010
     29          6           0        4.112866   -3.428755   -0.025756
     30          6           0        5.049979   -3.298472    0.986151
     31          1           0        4.470709   -0.064848    1.814448
     32          1           0        2.593785   -2.456724   -1.189607
     33          1           0        5.907450   -1.970366    2.436839
     34          1           0        4.006805   -4.372570   -0.551042
     35          1           0        5.677330   -4.139106    1.262850
     36          6           0        3.224517    1.239724   -0.221989
     37          6           0        4.446224    1.376745   -0.871250
     38          6           0        2.604731    2.367846    0.304633
     39          6           0        5.037460    2.622109   -0.986244
     40          6           0        3.193018    3.612223    0.169883
     41          6           0        4.413292    3.746533   -0.472133
     42          1           0        4.931907    0.498005   -1.282066
     43          1           0        1.656156    2.262505    0.820378
     44          1           0        5.992055    2.714270   -1.494403
     45          1           0        2.697309    4.484427    0.584059
     46          1           0        4.876004    4.722810   -0.569917
 ---------------------------------------------------------------------
                    Distance matrix (angstroms):
                    1          2          3          4          5
     1  C    0.000000
     2  C    1.387445   0.000000
     3  S    2.790429   1.779347   0.000000
     4  C    2.402779   1.397373   2.724918   0.000000
     5  C    3.621596   3.650053   2.749627   4.980319   0.000000
     6  C    2.999148   2.779937   1.775760   4.089916   1.387634
     7  C    1.382365   2.408742   4.071644   2.779320   4.915484
     8  C    2.757296   2.405202   4.024279   1.388307   5.981213
     9  H    4.722917   3.630708   4.342001   2.325969   6.918296
    10  C    4.549856   4.836867   4.040717   6.213299   1.381662
    11  C    3.540780   3.510953   2.756938   4.758986   2.392083
    12  C    4.472857   4.724301   4.044365   6.029171   2.764449
    13  C    4.926948   5.297866   4.571336   6.678603   2.409272
    14  H    5.304821   5.650988   4.888323   7.004259   2.139500
    15  H    3.676926   3.487367   2.888883   4.534672   3.375186
    16  H    5.179958   5.475080   4.894874   6.707916   3.848612
    17  C    2.394494   2.783885   4.562053   2.409600   5.961564
    18  H    1.083839   2.138187   2.940513   3.383672   2.893406
    19  H    3.823247   3.738785   2.876008   4.945337   1.084982
    20  H    2.138102   3.387081   4.928357   3.864152   5.292450
    21  H    3.842850   3.388652   4.867507   2.142787   6.992257
    22  H    3.381666   3.868635   5.646544   3.388571   6.959885
    23  S    4.031718   2.740370   3.084550   1.774769   5.750605
    24  N    6.152438   6.646807   5.974992   8.031194   3.695068
    25  C    7.153848   7.563085   6.796090   8.906928   4.805988
    26  C    8.000146   8.554354   7.964028   9.883093   6.014445
    27  C    7.586946   7.755440   6.733246   9.041441   5.030077
    28  C    9.109371   9.584662   8.922007  10.870784   7.158847
    29  C    8.740403   8.871632   7.838479  10.103750   6.353418
    30  C    9.448194   9.732633   8.871699  10.976051   7.311251
    31  H    7.950497   8.664239   8.263015   9.999363   6.215747
    32  H    7.199144   7.207726   6.010651   8.469189   4.393600
    33  H    9.851411  10.412438   9.857752  11.686281   8.096543
    34  H    9.239307   9.218187   8.047323  10.387972   6.790305
    35  H   10.406636  10.655165   9.775859  11.861260   8.335150
    36  C    6.675384   7.331694   6.811963   8.726400   4.272569
    37  C    8.005086   8.606525   7.959087  10.002886   5.332313
    38  C    6.136001   6.993886   6.787104   8.354869   4.312376
    39  C    8.746853   9.451456   8.929198  10.833288   6.231919
    40  C    7.076860   8.008706   7.897396   9.331134   5.378027
    41  C    8.343258   9.190779   8.907353  10.534875   6.256872
    42  H    8.582916   9.057982   8.234641  10.450574   5.687851
    43  H    5.160166   6.106783   6.090505   7.442631   3.858079
    44  H    9.793673  10.456284   9.852268  11.839092   7.136001
    45  H    6.977342   8.020692   8.129323   9.276292   5.766416
    46  H    9.141184  10.031349   9.816472  11.346534   7.175018
                    6          7          8          9         10
     6  C    0.000000
     7  C    4.368203   0.000000
     8  C    5.172760   2.390775   0.000000
     9  H    6.017039   4.882836   2.641148   0.000000
    10  C    2.406287   5.737177   7.121721   8.238104   0.000000
    11  C    1.388774   4.781318   5.736555   6.698125   2.765481
    12  C    2.405366   5.607583   6.906511   8.048724   2.398938
    13  C    2.796406   6.057184   7.543895   8.754769   1.393562
    14  H    3.386288   6.413703   7.870198   9.002648   1.084154
    15  H    2.141861   4.807146   5.486594   6.325143   3.850441
    16  H    3.385756   6.197247   7.514961   8.690549   3.382995
    17  C    5.292381   1.383467   1.381753   4.020343   6.927214
    18  H    2.485672   2.139518   3.841134   5.700565   3.614537
    19  H    2.140470   5.052395   5.941140   6.737191   2.140398
    20  H    4.910468   1.084865   3.377920   5.937529   5.896821
    21  H    6.158832   3.373253   1.085576   2.264170   8.168715
    22  H    6.335353   2.148746   2.138705   4.632299   7.863437
    23  S    4.803753   4.553883   2.766996   1.342456   7.073076
    24  N    4.200207   7.172230   8.829182  10.141334   2.431427
    25  C    5.066251   8.174970   9.739413  10.943260   3.657534
    26  C    6.235692   8.878938  10.599522  11.981352   4.837849
    27  C    5.134139   8.723452  10.009381  10.900507   4.078995
    28  C    7.253925   9.992979  11.614560  12.888882   6.043033
    29  C    6.327958   9.845408  11.069338  11.883400   5.455034
    30  C    7.299911  10.440200  11.835588  12.847370   6.308589
    31  H    6.521210   8.706065  10.601310  12.185376   5.003796
    32  H    4.502211   8.427703   9.531607  10.225618   3.606038
    33  H    8.188719  10.642490  12.353284  13.740043   6.960324
    34  H    6.678909  10.399159  11.428940  12.015651   6.029745
    35  H    8.260897  11.384843  12.723490  13.670745   7.367939
    36  C    5.070155   7.572066   9.421306  10.902328   2.918696
    37  C    6.232796   8.919790  10.740722  12.132616   3.956153
    38  C    5.149386   6.849055   8.881405  10.604789   3.146260
    39  C    7.253815   9.548730  11.481508  12.992907   4.906999
    40  C    6.342850   7.652789   9.764224  11.575858   4.274024
    41  C    7.307668   8.988180  11.042480  12.741479   5.044565
    42  H    6.512021   9.586027  11.281794  12.506385   4.330449
    43  H    4.526526   5.810506   7.896366   9.727618   2.923467
    44  H    8.184836  10.617190  12.520313  13.966294   5.812882
    45  H    6.699841   7.376437   9.568193  11.527348   4.841476
    46  H    8.269440   9.701375  11.791996  13.545224   6.019707
                   11         12         13         14         15
    11  C    0.000000
    12  C    1.380043   0.000000
    13  C    2.409797   1.395077   0.000000
    14  H    3.849543   3.383515   2.147305   0.000000
    15  H    1.084964   2.139003   3.391890   4.934485   0.000000
    16  H    2.138045   1.084179   2.148165   4.281501   2.461509
    17  C    5.753701   6.735257   7.285688   7.622251   5.608680
    18  H    2.949423   3.645618   3.951342   4.360737   3.342640
    19  H    3.375103   3.849411   3.391271   2.463045   4.270118
    20  H    5.201009   5.797971   6.137774   6.489193   5.312207
    21  H    6.714789   7.921996   8.598227   8.913463   6.385897
    22  H    6.740274   7.654786   8.191378   8.518988   6.572048
    23  S    5.503750   6.870036   7.574658   7.868509   5.168467
    24  N    3.693905   2.430979   1.403804   2.659883   4.567716
    25  C    4.268431   2.918965   2.448344   3.957507   4.929910
    26  C    5.335257   3.961055   3.607888   5.062952   5.885780
    27  C    4.297305   3.140986   2.975181   4.479031   4.833377
    28  C    6.232634   4.911533   4.773264   6.309209   6.629534
    29  C    5.363991   4.270843   4.312878   5.854251   5.706399
    30  C    6.250129   5.045534   5.065052   6.651662   6.554418
    31  H    5.696572   4.337591   3.867954   5.135870   6.289465
    32  H    3.833851   2.912398   2.750306   4.056589   4.419832
    33  H    7.140426   5.819333   5.691214   7.188498   7.495308
    34  H    5.746850   4.835762   4.992317   6.462170   5.990851
    35  H    7.167833   6.020809   6.124502   7.718547   7.377043
    36  C    4.811702   3.662520   2.448862   2.645596   5.751776
    37  C    6.012585   4.837510   3.605098   3.437727   6.955695
    38  C    5.049819   4.093486   2.980263   2.834820   5.984685
    39  C    7.161430   6.045795   4.771340   4.199800   8.133398
    40  C    6.373469   5.469048   4.316522   3.712050   7.320511
    41  C    7.323433   6.317595   5.065954   4.319723   8.299864
    42  H    6.205547   4.997707   3.863100   3.896530   7.102332
    43  H    4.423124   3.626543   2.758923   2.914130   5.299287
    44  H    8.094879   6.960287   5.687888   5.055913   9.064724
    45  H    6.817247   6.047642   4.997648   4.325874   7.727559
    46  H    8.348640   7.377609   6.125401   5.234260   9.328916
                   16         17         18         19         20
    16  H    0.000000
    17  C    7.301248   0.000000
    18  H    4.399165   3.376255   0.000000
    19  H    4.933578   5.992192   3.263152   0.000000
    20  H    6.317854   2.147264   2.458607   5.481572   0.000000
    21  H    8.502009   2.137447   4.926689   6.902953   4.273489
    22  H    8.164312   1.084778   4.277184   6.977775   2.484404
    23  S    7.540734   4.054509   4.878530   5.628918   5.638636
    24  N    2.657671   8.460469   5.124092   4.569457   7.098941
    25  C    2.646297   9.421865   6.178930   5.744225   8.123124
    26  C    3.442972  10.154885   7.012146   6.957153   8.689696
    27  C    2.832403   9.875109   6.706670   5.959529   8.827183
    28  C    4.206078  11.222516   8.169999   8.128652   9.834841
    29  C    3.712376  10.959934   7.901669   7.293594   9.946370
    30  C    4.323716  11.598910   8.571642   8.282568  10.417383
    31  H    3.902588  10.024643   6.931833   7.114805   8.389850
    32  H    2.906906   9.520311   6.376529   5.262877   8.647707
    33  H    5.063713  11.881656   8.910130   9.065333  10.400656
    34  H    4.324379  11.440881   8.470777   7.691348  10.594131
    35  H    5.238694  12.512029   9.561081   9.309435  11.370264
    36  C    3.963175   8.917600   5.599136   4.935261   7.351112
    37  C    5.063159  10.261678   6.934455   5.882772   8.693848
    38  C    4.495599   8.221907   5.060195   4.851727   6.483858
    39  C    6.313756  10.905746   7.676137   6.629245   9.218123
    40  C    5.871435   9.014971   6.037381   5.724572   7.176410
    41  C    6.663620  10.345883   7.293754   6.563555   8.546161
    42  H    5.128819  10.899800   7.533757   6.279338   9.441092
    43  H    4.078568   7.189692   4.092226   4.448410   5.422768
    44  H    7.189934  11.968832   8.726942   7.490316  10.296064
    45  H    6.483872   8.712734   5.999106   6.016391   6.792729
    46  H    7.731637  11.043012   8.118135   7.386930   9.199597
                   21         22         23         24         25
    21  H    0.000000
    22  H    2.456134   0.000000
    23  S    2.908186   4.905669   0.000000
    24  N    9.894851   9.303202   8.971613   0.000000
    25  C   10.779759  10.264962   9.740385   1.416868   0.000000
    26  C   11.641288  10.913494  10.826576   2.433148   1.390277
    27  C   11.005512  10.787005   9.636851   2.438098   1.390617
    28  C   12.627707  11.980859  11.716921   3.699730   2.404391
    29  C   12.034582  11.854944  10.620729   3.702857   2.404430
    30  C   12.814371  12.423686  11.626526   4.201973   2.785132
    31  H   11.656905  10.711086  11.089535   2.649080   2.142190
    32  H   10.506146  10.486927   8.928974   2.658475   2.143411
    33  H   13.363536  12.580479  12.602853   4.568290   3.384134
    34  H   12.352171  12.371573  10.730864   4.572760   3.384155
    35  H   13.678304  13.327262  12.452485   5.286774   3.869935
    36  C   10.504183   9.689164   9.789705   1.416463   2.441470
    37  C   11.820977  11.036456  10.989186   2.433761   2.944622
    38  C    9.964350   8.899393   9.600937   2.437325   3.606371
    39  C   12.561671  11.611397  11.904564   3.700108   4.279099
    40  C   10.832581   9.606458  10.632488   3.702384   4.760492
    41  C   12.113272  10.963008  11.746741   4.202089   5.039490
    42  H   12.351817  11.724269  11.306212   2.650492   2.710202
    43  H    8.977121   7.849032   8.775227   2.656679   3.879967
    44  H   13.598149  12.682138  12.856133   4.568795   4.951623
    45  H   10.612026   9.206849  10.681424   4.572178   5.682110
    46  H   12.849085  11.602970  12.593389   5.286882   6.096276
                   26         27         28         29         30
    26  C    0.000000
    27  C    2.399528   0.000000
    28  C    1.383297   2.766236   0.000000
    29  C    2.766160   1.383134   2.391612   0.000000
    30  C    2.403206   2.403295   1.385090   1.385320   0.000000
    31  H    1.084866   3.380991   2.147299   3.851009   3.387913
    32  H    3.381509   1.084888   3.851082   2.146392   3.387529
    33  H    2.137097   3.851563   1.085346   3.378136   2.145604
    34  H    3.851475   2.136814   3.378139   1.085339   2.145894
    35  H    3.386803   3.386759   2.147644   2.147708   1.084803
    36  C    2.949877   3.601295   4.282266   4.756298   5.038565
    37  C    3.226786   3.930015   4.338533   4.890687   5.066765
    38  C    3.942803   4.827785   5.313552   5.998684   6.208934
    39  C    4.342886   5.301235   5.391449   6.195996   6.240495
    40  C    4.904768   5.996058   6.209466   7.103504   7.202243
    41  C    5.077388   6.201228   6.248743   7.195434   7.222469
    42  H    3.039585   3.399150   3.907445   4.203402   4.424024
    43  H    4.283233   5.055263   5.655072   6.256341   6.516900
    44  H    4.928793   5.838708   5.788896   6.589767   6.572193
    45  H    5.791537   6.937445   7.100993   8.061893   8.140654
    46  H    6.052360   7.251143   7.163288   8.205273   8.172673
                   31         32         33         34         35
    31  H    0.000000
    32  H    4.274139   0.000000
    33  H    2.466292   4.936399   0.000000
    34  H    4.936316   2.464722   4.279073   0.000000
    35  H    4.284831   4.284064   2.476820   2.476967   0.000000
    36  C    2.720658   3.872704   4.957033   5.676099   6.095314
    37  C    3.048239   4.269469   4.927655   5.774967   6.041077
    38  C    3.417516   5.050678   5.854429   6.937665   7.259440
    39  C    3.922349   5.639809   5.793549   7.083586   7.154152
    40  C    4.225866   6.248153   6.608520   8.058468   8.212763
    41  C    4.445039   6.504289   6.586164   8.129655   8.172592
    42  H    3.180866   3.769056   4.568894   5.011258   5.341821
    43  H    3.785030   5.214433   6.213183   7.171511   7.572730
    44  H    4.581101   6.195185   6.116178   7.419869   7.393934
    45  H    5.035346   7.164927   7.443262   9.024945   9.149131
    46  H    5.363873   7.558985   7.409660   9.136838   9.084862
                   36         37         38         39         40
    36  C    0.000000
    37  C    1.390281   0.000000
    38  C    1.390728   2.399183   0.000000
    39  C    2.404545   1.383371   2.765716   0.000000
    40  C    2.404851   2.766197   1.383009   2.391427   0.000000
    41  C    2.785651   2.403388   2.403130   1.385000   1.385385
    42  H    2.142216   1.084823   3.380779   2.147200   3.851006
    43  H    2.142981   3.380925   1.084843   3.850508   2.146352
    44  H    3.384168   2.137027   3.851039   1.085344   3.377984
    45  H    3.384636   3.851534   2.136952   3.377926   1.085361
    46  H    3.870446   3.386984   3.386646   2.147636   2.147824
                   41         42         43         44         45
    41  C    0.000000
    42  H    3.387903   0.000000
    43  H    3.387436   4.273672   0.000000
    44  H    2.145483   2.465934   4.935820   0.000000
    45  H    2.145839   4.936336   2.465113   4.278880   0.000000
    46  H    1.084795   4.284771   4.284092   2.476788   2.476933
                   46
    46  H    0.000000
 Stoichiometry    C24H19NS2(1+,2)
 Framework group  C1[X(C24H19NS2)]
 Deg. of freedom   132
 Full point group                 C1      NOp   1
 Largest Abelian subgroup         C1      NOp   1
 Largest concise Abelian subgroup C1      NOp   1
                         Standard orientation:                         
 ---------------------------------------------------------------------
 Center     Atomic      Atomic             Coordinates (Angstroms)
 Number     Number       Type             X           Y           Z
 ---------------------------------------------------------------------
      1          6           0       -3.352046    1.022081    0.901490
      2          6           0       -4.015603    0.124147    0.077833
      3         16           0       -3.193622   -0.833868   -1.176213
      4          6           0       -5.398593   -0.028228    0.207342
      5          6           0       -0.749106    0.373785   -1.531691
      6          6           0       -1.475477   -0.566990   -0.815552
      7          6           0       -4.041516    1.761821    1.844012
      8          6           0       -6.080951    0.720801    1.156415
      9          1           0       -7.475944   -0.835079   -0.458792
     10          6           0        0.601771    0.547170   -1.299188
     11          6           0       -0.823428   -1.336346    0.139234
     12          6           0        0.521569   -1.154920    0.389409
     13          6           0        1.255724   -0.212476   -0.331046
     14          1           0        1.160253    1.275483   -1.876291
     15          1           0       -1.383265   -2.076857    0.700814
     16          1           0        1.015474   -1.752114    1.147605
     17          6           0       -5.411167    1.613701    1.970885
     18          1           0       -2.279577    1.141824    0.800598
     19          1           0       -1.248138    0.967582   -2.290346
     20          1           0       -3.503227    2.458074    2.478369
     21          1           0       -7.154267    0.598627    1.263844
     22          1           0       -5.962434    2.189124    2.706912
     23         16           0       -6.238224   -1.192989   -0.835805
     24          7           0        2.627173   -0.037586   -0.087724
     25          6           0        3.438312   -1.140752    0.276409
     26          6           0        4.374889   -1.012928    1.295896
     27          6           0        3.317625   -2.356550   -0.387733
     28          6           0        5.179400   -2.084309    1.640010
     29          6           0        4.112866   -3.428755   -0.025756
     30          6           0        5.049979   -3.298472    0.986151
     31          1           0        4.470709   -0.064848    1.814448
     32          1           0        2.593785   -2.456724   -1.189607
     33          1           0        5.907450   -1.970366    2.436839
     34          1           0        4.006805   -4.372570   -0.551042
     35          1           0        5.677330   -4.139106    1.262850
     36          6           0        3.224517    1.239724   -0.221989
     37          6           0        4.446224    1.376745   -0.871250
     38          6           0        2.604731    2.367846    0.304633
     39          6           0        5.037460    2.622109   -0.986244
     40          6           0        3.193018    3.612223    0.169883
     41          6           0        4.413292    3.746533   -0.472133
     42          1           0        4.931907    0.498005   -1.282066
     43          1           0        1.656156    2.262505    0.820378
     44          1           0        5.992055    2.714270   -1.494403
     45          1           0        2.697309    4.484427    0.584059
     46          1           0        4.876004    4.722810   -0.569917
 ---------------------------------------------------------------------
 Rotational constants (GHZ):           0.3083654           0.0766714           0.0675965
 Leave Link  202 at Tue Jan 19 04:28:14 2021, MaxMem=  4026531840 cpu:               0.3 elap:               0.1
 (Enter /opt/ohpc/pub/libs/gaussian/g16-A.03/sandybridge/g16/l301.exe)
 Standard basis: TZVP (5D, 7F)
 Ernie: Thresh=  0.10000D-02 Tol=  0.10000D-05 Strict=F.
 There are   660 symmetry adapted cartesian basis functions of A   symmetry.
 There are   633 symmetry adapted basis functions of A   symmetry.
   633 basis functions,  1121 primitive gaussians,   660 cartesian basis functions
   101 alpha electrons      100 beta electrons
       nuclear repulsion energy      2474.6847673599 Hartrees.
 IExCor=33909 DFT=T Ex+Corr=LC-wHPBE ExCW=0 ScaHFX=  1.000000
 ScaDFX=  1.000000  1.000000  1.000000  1.000000 ScalE2=  1.000000  1.000000
 IRadAn=      5 IRanWt=     -1 IRanGd=            0 ICorTp=0 IEmpDi=  4
 HFx  wShort=  0.000000 wLong=  0.170800 cFull=  0.000000 cShort=  0.000000 cLong=  1.000000
 DFx  wShort=  0.000000 wLong=  0.170800 cFull=  0.000000 cShort=  1.000000 cLong=  0.000000
 NAtoms=   46 NActive=   46 NUniq=   46 SFac= 1.00D+00 NAtFMM=   60 NAOKFM=F Big=F
 Integral buffers will be    131072 words long.
 Raffenetti 2 integral format.
 Two-electron integral symmetry is turned on.
 Leave Link  301 at Tue Jan 19 04:28:15 2021, MaxMem=  4026531840 cpu:               0.4 elap:               0.1
 (Enter /opt/ohpc/pub/libs/gaussian/g16-A.03/sandybridge/g16/l302.exe)
 NPDir=0 NMtPBC=     1 NCelOv=     1 NCel=       1 NClECP=     1 NCelD=      1
         NCelK=      1 NCelE2=     1 NClLst=     1 CellRange=     0.0.
 One-electron integrals computed using PRISM.
 One-electron integral symmetry used in STVInt
 NBasis=   633 RedAO= T EigKep=  6.67D-06  NBF=   633
 NBsUse=   633 1.00D-06 EigRej= -1.00D+00 NBFU=   633
 Precomputing XC quadrature grid using
 IXCGrd= 4 IRadAn=           5 IRanWt=          -1 IRanGd=           0 AccXCQ= 0.00D+00.
 Generated NRdTot=       0 NPtTot=           0 NUsed=           0 NTot=          32
 NSgBfM=   625   625   625   625   625 MxSgAt=    46 MxSgA2=    46.
 Leave Link  302 at Tue Jan 19 04:28:16 2021, MaxMem=  4026531840 cpu:               9.8 elap:               1.3
 (Enter /opt/ohpc/pub/libs/gaussian/g16-A.03/sandybridge/g16/l303.exe)
 DipDrv:  MaxL=1.
 Leave Link  303 at Tue Jan 19 04:28:16 2021, MaxMem=  4026531840 cpu:               0.8 elap:               0.1
 (Enter /opt/ohpc/pub/libs/gaussian/g16-A.03/sandybridge/g16/l401.exe)
 ExpMin= 9.52D-02 ExpMax= 6.07D+04 ExpMxC= 2.07D+03 IAcc=3 IRadAn=         5 AccDes= 0.00D+00
 Harris functional with IExCor=33909 and IRadAn=       5 diagonalized for initial guess.
 HarFok:  IExCor=33909 AccDes= 0.00D+00 IRadAn=         5 IDoV= 1 UseB2=F ITyADJ=14
 ICtDFT=  3500011 ScaDFX=  1.000000  1.000000  1.000000  1.000000
 FoFCou: FMM=F IPFlag=           0 FMFlag=      100000 FMFlg1=           0
         NFxFlg=           0 DoJE=T BraDBF=F KetDBF=T FulRan=T
         wScrn=  0.000000 ICntrl=       500 IOpCl=  0 I1Cent=   200000004 NGrid=           0
         NMat0=    1 NMatS0=      1 NMatT0=    0 NMatD0=    1 NMtDS0=    0 NMtDT0=    0
 Petite list used in FoFCou.
 Harris En= -1757.47193875625    
 JPrj=0 DoOrth=F DoCkMO=F.
 Initial guess <Sx>= 0.0000 <Sy>= 0.0000 <Sz>= 0.5000 <S**2>= 0.7500 S= 0.5000
 Leave Link  401 at Tue Jan 19 04:28:23 2021, MaxMem=  4026531840 cpu:              57.2 elap:               7.2
 (Enter /opt/ohpc/pub/libs/gaussian/g16-A.03/sandybridge/g16/l502.exe)
 Integral symmetry usage will be decided dynamically.
 UHF open shell SCF:
 Using DIIS extrapolation, IDIIS=    10.
 NGot=  4026531840 LenX=  4025648940 LenY=  4025212680
 Requested convergence on RMS density matrix=1.00D-06 within  32 cycles.
 Requested convergence on MAX density matrix=1.00D-04.
 Requested convergence on             energy=1.00D-04.
 Virtual orbitals will be shifted by   0.500 hartree.
 No special actions if energy rises.
 Dynamic level shift is on during FON iterations.

 Cycle   1  Pass 1  IDiag  1:
 FoFJK:  IHMeth= 1 ICntrl=       0 DoSepK=T KAlg= 0 I1Cent=           0 FoldK=F
 IRaf=         1 NMat=       1 IRICut=       1 DoRegI=T DoRafI=F ISym2E= 0 IDoP0=0 IntGTp=1.
 FoFCou: FMM=F IPFlag=           0 FMFlag=      100000 FMFlg1=           0
         NFxFlg=           0 DoJE=T BraDBF=F KetDBF=F FulRan=T
         wScrn=  0.000000 ICntrl=       500 IOpCl=  0 I1Cent=           0 NGrid=           0
         NMat0=    1 NMatS0=      1 NMatT0=    0 NMatD0=    1 NMtDS0=    0 NMtDT0=    0
 Symmetry not used in FoFCou.
 E= -1775.32017859599    
 DIIS: error= 3.61D-02 at cycle   1 NSaved=   1.
 NSaved= 1 IEnMin= 1 EnMin= -1775.32017859599     IErMin= 1 ErrMin= 3.61D-02
 ErrMax= 3.61D-02  0.00D+00 EMaxC= 1.00D+00 BMatC= 2.33D+00 BMatP= 2.33D+00
 IDIUse=1 WtCom= 1.00D+00 WtEn= 0.00D+00
 Coeff-Com:  0.100D+01
 Coeff:      0.100D+01
 Gap=     0.560 Goal=   None    Shift=    0.500
 T= 1607. Gap= 0.531 NK=0 IS=  102 IE=  633 IFin=  101
          NO(<0.9)=   0  NV(>0.1)=   0    101.00e < EF      0.00e >EF  Err=0.0D+00
 Gap=     0.163 Goal=   None    Shift=    0.500
 T= 1607. Gap= 0.365 NK=0 IS=  101 IE=  633 IFin=  100
          NO(<0.9)=   0  NV(>0.1)=   0    100.00e < EF      0.00e >EF  Err=0.0D+00
 GapD=    0.163 DampG=1.000 DampE=0.500 DampFc=0.5000 IDamp=-1.
 Damping current iteration by 5.00D-01
 RMSDP=3.47D-03 MaxDP=3.27D-01              OVMax= 1.41D-01

 Cycle   2  Pass 1  IDiag  1:
 E= -1775.70538446015     Delta-E=       -0.385205864159 Rises=F Damp=T
 DIIS: error= 1.61D-02 at cycle   2 NSaved=   2.
 NSaved= 2 IEnMin= 2 EnMin= -1775.70538446015     IErMin= 2 ErrMin= 1.61D-02
 ErrMax= 1.61D-02  0.00D+00 EMaxC= 1.00D+00 BMatC= 3.23D-01 BMatP= 2.33D+00
 IDIUse=1 WtCom= 1.00D+00 WtEn= 0.00D+00
 Coeff-Com: -0.476D+00 0.148D+01
 Coeff:     -0.476D+00 0.148D+01
 Gap=     0.200 Goal=   None    Shift=    0.500
 T= 1485. Gap= 0.671 NK=0 IS=  102 IE=  633 IFin=  101
          NO(<0.9)=   0  NV(>0.1)=   0    101.00e < EF      0.00e >EF  Err=0.0D+00
 Gap=     0.038 Goal=   None    Shift=    0.500
 T= 1485. Gap= 0.514 NK=0 IS=  101 IE=  633 IFin=  100
          NO(<0.9)=   0  NV(>0.1)=   0    100.00e < EF      0.00e >EF  Err=0.0D+00
 GapD=    0.038 DampG=0.250 DampE=0.500 DampFc=0.1250 IDamp=-1.
 Damping current iteration by 1.25D-01
 RMSDP=1.93D-03 MaxDP=1.21D-01 DE=-3.85D-01 OVMax= 2.79D-02

 Cycle   3  Pass 1  IDiag  1:
 E= -1775.73835530660     Delta-E=       -0.032970846451 Rises=F Damp=T
 DIIS: error= 1.39D-02 at cycle   3 NSaved=   3.
 NSaved= 3 IEnMin= 3 EnMin= -1775.73835530660     IErMin= 3 ErrMin= 1.39D-02
 ErrMax= 1.39D-02  0.00D+00 EMaxC= 1.00D+00 BMatC= 2.32D-01 BMatP= 3.23D-01
 IDIUse=1 WtCom= 1.00D+00 WtEn= 0.00D+00
 Coeff-Com:  0.124D+00-0.664D+01 0.752D+01
 Coeff:      0.124D+00-0.664D+01 0.752D+01
 Gap=     0.211 Goal=   None    Shift=    0.500
 T= 1311. Gap= 0.707 NK=0 IS=  102 IE=  633 IFin=  101
          NO(<0.9)=   0  NV(>0.1)=   0    101.00e < EF      0.00e >EF  Err=0.0D+00
 Gap=     0.057 Goal=   None    Shift=    0.500
 T= 1311. Gap= 0.556 NK=0 IS=  101 IE=  633 IFin=  100
          NO(<0.9)=   0  NV(>0.1)=   0    100.00e < EF      0.00e >EF  Err=0.0D+00
 GapD=    0.057 DampG=0.500 DampE=0.500 DampFc=0.2500 IDamp=-1.
 Damping current iteration by 2.50D-01
 RMSDP=1.77D-03 MaxDP=1.15D-01 DE=-3.30D-02 OVMax= 1.53D-02

 Cycle   4  Pass 1  IDiag  1:
 E= -1775.79054686697     Delta-E=       -0.052191560371 Rises=F Damp=T
 DIIS: error= 1.05D-02 at cycle   4 NSaved=   4.
 NSaved= 4 IEnMin= 4 EnMin= -1775.79054686697     IErMin= 4 ErrMin= 1.05D-02
 ErrMax= 1.05D-02  0.00D+00 EMaxC= 1.00D+00 BMatC= 1.24D-01 BMatP= 2.32D-01
 IDIUse=1 WtCom= 1.00D+00 WtEn= 0.00D+00
 Coeff-Com:  0.834D-01-0.324D+00-0.281D+01 0.406D+01
 Coeff:      0.834D-01-0.324D+00-0.281D+01 0.406D+01
 Gap=     0.206 Goal=   None    Shift=    0.500
 T= 1016. Gap= 0.706 NK=0 IS=  102 IE=  633 IFin=  101
          NO(<0.9)=   0  NV(>0.1)=   0    101.00e < EF      0.00e >EF  Err=0.0D+00
 Gap=     0.055 Goal=   None    Shift=    0.500
 T= 1016. Gap= 0.555 NK=0 IS=  101 IE=  633 IFin=  100
          NO(<0.9)=   0  NV(>0.1)=   0    100.00e < EF      0.00e >EF  Err=0.0D+00
 GapD=    0.055 DampG=0.500 DampE=0.500 DampFc=0.2500 IDamp=-1.
 Damping current iteration by 2.50D-01
 RMSDP=1.33D-03 MaxDP=8.63D-02 DE=-5.22D-02 OVMax= 1.33D-02

 Cycle   5  Pass 1  IDiag  1:
 E= -1775.82686137586     Delta-E=       -0.036314508882 Rises=F Damp=T
 DIIS: error= 7.98D-03 at cycle   5 NSaved=   5.
 NSaved= 5 IEnMin= 5 EnMin= -1775.82686137586     IErMin= 5 ErrMin= 7.98D-03
 ErrMax= 7.98D-03  0.00D+00 EMaxC= 1.00D+00 BMatC= 6.86D-02 BMatP= 1.24D-01
 IDIUse=1 WtCom= 1.00D+00 WtEn= 0.00D+00
 Coeff-Com: -0.257D-02 0.113D+01-0.133D+01-0.341D+01 0.463D+01
 Coeff:     -0.257D-02 0.113D+01-0.133D+01-0.341D+01 0.463D+01
 Gap=     0.209 Goal=   None    Shift=    0.500
 T=  882. Gap= 0.709 NK=0 IS=  102 IE=  633 IFin=  101
          NO(<0.9)=   0  NV(>0.1)=   0    101.00e < EF      0.00e >EF  Err=0.0D+00
 Gap=     0.059 Goal=   None    Shift=    0.500
 T=  882. Gap= 0.559 NK=0 IS=  101 IE=  633 IFin=  100
          NO(<0.9)=   0  NV(>0.1)=   0    100.00e < EF      0.00e >EF  Err=0.0D+00
 GapD=    0.059 DampG=0.500 DampE=1.000 DampFc=0.5000 IDamp=-1.
 Damping current iteration by 5.00D-01
 RMSDP=9.90D-04 MaxDP=6.45D-02 DE=-3.63D-02 OVMax= 1.23D-02

 Cycle   6  Pass 1  IDiag  1:
 E= -1775.87821723372     Delta-E=       -0.051355857861 Rises=F Damp=T
 DIIS: error= 4.40D-03 at cycle   6 NSaved=   6.
 NSaved= 6 IEnMin= 6 EnMin= -1775.87821723372     IErMin= 6 ErrMin= 4.40D-03
 ErrMax= 4.40D-03  0.00D+00 EMaxC= 1.00D+00 BMatC= 1.72D-02 BMatP= 6.86D-02
 IDIUse=1 WtCom= 1.00D+00 WtEn= 0.00D+00
 Coeff-Com: -0.184D-01 0.164D+00 0.523D+00 0.633D+00-0.382D+01 0.352D+01
 Coeff:     -0.184D-01 0.164D+00 0.523D+00 0.633D+00-0.382D+01 0.352D+01
 Gap=     0.211 Goal=   None    Shift=    0.500
 T=  674. Gap= 0.711 NK=0 IS=  102 IE=  633 IFin=  101
          NO(<0.9)=   0  NV(>0.1)=   0    101.00e < EF      0.00e >EF  Err=0.0D+00
 Gap=     0.062 Goal=   None    Shift=    0.500
 T=  674. Gap= 0.562 NK=0 IS=  101 IE=  633 IFin=  100
          NO(<0.9)=   0  NV(>0.1)=   0    100.00e < EF      0.00e >EF  Err=0.0D+00
 GapD=    0.062 DampG=0.500 DampE=1.000 DampFc=0.5000 IDamp=-1.
 Damping current iteration by 5.00D-01
 RMSDP=4.95D-04 MaxDP=3.15D-02 DE=-5.14D-02 OVMax= 1.26D-02

 Cycle   7  Pass 1  IDiag  1:
 E= -1775.90283663233     Delta-E=       -0.024619398617 Rises=F Damp=T
 DIIS: error= 2.83D-03 at cycle   7 NSaved=   7.
 NSaved= 7 IEnMin= 7 EnMin= -1775.90283663233     IErMin= 7 ErrMin= 2.83D-03
 ErrMax= 2.83D-03  0.00D+00 EMaxC= 1.00D+00 BMatC= 4.53D-03 BMatP= 1.72D-02
 IDIUse=1 WtCom= 1.00D+00 WtEn= 0.00D+00
 Coeff-Com: -0.488D-02-0.340D+00 0.708D+00 0.141D+01-0.252D+01-0.141D+01
 Coeff-Com:  0.316D+01
 Coeff:     -0.488D-02-0.340D+00 0.708D+00 0.141D+01-0.252D+01-0.141D+01
 Coeff:      0.316D+01
 Gap=     0.211 Goal=   None    Shift=    0.500
 T=  429. Gap= 0.711 NK=0 IS=  102 IE=  633 IFin=  101
          NO(<0.9)=   0  NV(>0.1)=   0    101.00e < EF      0.00e >EF  Err=0.0D+00
 Gap=     0.063 Goal=   None    Shift=    0.500
 T=  429. Gap= 0.563 NK=0 IS=  101 IE=  633 IFin=  100
          NO(<0.9)=   0  NV(>0.1)=   0    100.00e < EF      0.00e >EF  Err=0.0D+00
 GapD=    0.063 DampG=0.500 DampE=1.000 DampFc=0.5000 IDamp=-1.
 Damping current iteration by 5.00D-01
 RMSDP=2.62D-04 MaxDP=1.56D-02 DE=-2.46D-02 OVMax= 1.27D-02

 Cycle   8  Pass 1  IDiag  1:
 E= -1775.91506390031     Delta-E=       -0.012227267975 Rises=F Damp=T
 DIIS: error= 2.30D-03 at cycle   8 NSaved=   8.
 NSaved= 8 IEnMin= 8 EnMin= -1775.91506390031     IErMin= 8 ErrMin= 2.30D-03
 ErrMax= 2.30D-03  0.00D+00 EMaxC= 1.00D+00 BMatC= 1.31D-03 BMatP= 4.53D-03
 IDIUse=1 WtCom= 1.00D+00 WtEn= 0.00D+00
 Coeff-Com:  0.412D-02-0.183D+00-0.256D-01 0.347D+00 0.907D+00-0.191D+01
 Coeff-Com: -0.194D+01 0.381D+01
 Coeff:      0.412D-02-0.183D+00-0.256D-01 0.347D+00 0.907D+00-0.191D+01
 Coeff:     -0.194D+01 0.381D+01
 Gap=     0.212 Goal=   None    Shift=    0.500
 T=  149. Gap= 0.712 NK=0 IS=  102 IE=  633 IFin=  101
          NO(<0.9)=   0  NV(>0.1)=   0    101.00e < EF      0.00e >EF  Err=0.0D+00
 Gap=     0.064 Goal=   None    Shift=    0.500
 T=  149. Gap= 0.564 NK=0 IS=  101 IE=  633 IFin=  100
          NO(<0.9)=   0  NV(>0.1)=   0    100.00e < EF      0.00e >EF  Err=0.0D+00
 GapD=    0.064 DampG=0.500 DampE=1.000 DampFc=0.5000 IDamp=-1.
 Damping current iteration by 5.00D-01
 RMSDP=1.52D-04 MaxDP=8.09D-03 DE=-1.22D-02 OVMax= 1.33D-02

 Cycle   9  Pass 1  IDiag  1:
 E= -1775.92128131005     Delta-E=       -0.006217409739 Rises=F Damp=T
 DIIS: error= 2.27D-03 at cycle   9 NSaved=   9.
 NSaved= 9 IEnMin= 9 EnMin= -1775.92128131005     IErMin= 9 ErrMin= 2.27D-03
 ErrMax= 2.27D-03  0.00D+00 EMaxC= 1.00D+00 BMatC= 4.55D-04 BMatP= 1.31D-03
 IDIUse=1 WtCom= 1.00D+00 WtEn= 0.00D+00
 Coeff-Com:  0.238D-02-0.788D-01-0.110D+00 0.585D-01 0.943D+00-0.113D+01
 Coeff-Com: -0.114D+01 0.395D+00 0.206D+01
 Coeff:      0.238D-02-0.788D-01-0.110D+00 0.585D-01 0.943D+00-0.113D+01
 Coeff:     -0.114D+01 0.395D+00 0.206D+01
 Gap=     0.213 Goal=   None    Shift=    0.500
 Gap=     0.064 Goal=   None    Shift=    0.500
 GapD=    0.064 DampG=0.500 DampE=1.000 DampFc=0.5000 IDamp=-1.
 Damping current iteration by 5.00D-01
 RMSDP=9.68D-05 MaxDP=5.66D-03 DE=-6.22D-03 OVMax= 1.25D-02

 Cycle  10  Pass 1  IDiag  1:
 E= -1775.92451232765     Delta-E=       -0.003231017602 Rises=F Damp=T
 DIIS: error= 2.27D-03 at cycle  10 NSaved=  10.
 NSaved=10 IEnMin=10 EnMin= -1775.92451232765     IErMin= 9 ErrMin= 2.27D-03
 ErrMax= 2.27D-03  0.00D+00 EMaxC= 1.00D+00 BMatC= 2.10D-04 BMatP= 4.55D-04
 IDIUse=1 WtCom= 1.00D+00 WtEn= 0.00D+00
 Coeff-Com: -0.167D-03-0.628D-01 0.452D-01 0.405D+00-0.450D+00-0.309D+00
 Coeff-Com:  0.554D+00 0.989D+00-0.461D+01 0.444D+01
 Coeff:     -0.167D-03-0.628D-01 0.452D-01 0.405D+00-0.450D+00-0.309D+00
 Coeff:      0.554D+00 0.989D+00-0.461D+01 0.444D+01
 Gap=     0.214 Goal=   None    Shift=    0.500
 Gap=     0.065 Goal=   None    Shift=    0.500
 GapD=    0.065 DampG=0.500 DampE=1.000 DampFc=0.5000 IDamp=-1.
 Damping current iteration by 5.00D-01
 RMSDP=7.31D-05 MaxDP=5.66D-03 DE=-3.23D-03 OVMax= 1.31D-02

 Cycle  11  Pass 1  IDiag  1:
 E= -1775.92624470706     Delta-E=       -0.001732379411 Rises=F Damp=T
 DIIS: error= 2.30D-03 at cycle  11 NSaved=  11.
 NSaved=11 IEnMin=11 EnMin= -1775.92624470706     IErMin= 9 ErrMin= 2.27D-03
 ErrMax= 2.30D-03  0.00D+00 EMaxC= 1.00D+00 BMatC= 1.37D-04 BMatP= 2.10D-04
 IDIUse=1 WtCom= 1.00D+00 WtEn= 0.00D+00
 Coeff-Com: -0.261D-03-0.699D-01 0.734D-01 0.393D+00-0.494D+00-0.293D+00
 Coeff-Com:  0.583D+00 0.110D+01-0.425D+01 0.319D+01 0.776D+00
 Coeff:     -0.261D-03-0.699D-01 0.734D-01 0.393D+00-0.494D+00-0.293D+00
 Coeff:      0.583D+00 0.110D+01-0.425D+01 0.319D+01 0.776D+00
 Gap=     0.214 Goal=   None    Shift=    0.500
 Gap=     0.066 Goal=   None    Shift=    0.500
 GapD=    0.066 DampG=0.500 DampE=1.000 DampFc=0.5000 IDamp=-1.
 Damping current iteration by 5.00D-01
 RMSDP=5.70D-05 MaxDP=4.34D-03 DE=-1.73D-03 OVMax= 1.19D-02

 Cycle  12  Pass 1  IDiag  1:
 E= -1775.92721439697     Delta-E=       -0.000969689907 Rises=F Damp=T
 DIIS: error= 2.33D-03 at cycle  12 NSaved=  12.
 NSaved=12 IEnMin=12 EnMin= -1775.92721439697     IErMin= 9 ErrMin= 2.27D-03
 ErrMax= 2.33D-03  0.00D+00 EMaxC= 1.00D+00 BMatC= 1.13D-04 BMatP= 1.37D-04
 IDIUse=1 WtCom= 1.00D+00 WtEn= 0.00D+00
 Coeff-Com: -0.546D-03-0.745D-01 0.109D+00 0.387D+00-0.616D+00-0.150D+00
 Coeff-Com:  0.746D+00 0.106D+01-0.513D+01 0.353D+01 0.211D+01-0.970D+00
 Coeff:     -0.546D-03-0.745D-01 0.109D+00 0.387D+00-0.616D+00-0.150D+00
 Coeff:      0.746D+00 0.106D+01-0.513D+01 0.353D+01 0.211D+01-0.970D+00
 Gap=     0.214 Goal=   None    Shift=    0.500
 Gap=     0.066 Goal=   None    Shift=    0.500
 GapD=    0.066 DampG=0.500 DampE=1.000 DampFc=0.5000 IDamp=-1.
 Damping current iteration by 5.00D-01
 RMSDP=4.34D-05 MaxDP=2.83D-03 DE=-9.70D-04 OVMax= 1.01D-02

 Cycle  13  Pass 1  IDiag  1:
 E= -1775.92778360715     Delta-E=       -0.000569210184 Rises=F Damp=T
 DIIS: error= 2.34D-03 at cycle  13 NSaved=  13.
 NSaved=13 IEnMin=13 EnMin= -1775.92778360715     IErMin= 9 ErrMin= 2.27D-03
 ErrMax= 2.34D-03  0.00D+00 EMaxC= 1.00D+00 BMatC= 1.07D-04 BMatP= 1.13D-04
 IDIUse=1 WtCom= 1.00D+00 WtEn= 0.00D+00
 Coeff-Com: -0.875D-03-0.683D-01 0.111D+00 0.413D+00-0.719D+00-0.822D-01
 Coeff-Com:  0.959D+00 0.105D+01-0.577D+01 0.207D+01 0.769D+01-0.624D+01
 Coeff-Com:  0.159D+01
 Coeff:     -0.875D-03-0.683D-01 0.111D+00 0.413D+00-0.719D+00-0.822D-01
 Coeff:      0.959D+00 0.105D+01-0.577D+01 0.207D+01 0.769D+01-0.624D+01
 Coeff:      0.159D+01
 Gap=     0.214 Goal=   None    Shift=    0.500
 Gap=     0.066 Goal=   None    Shift=    0.500
 GapD=    0.066 DampG=0.500 DampE=1.000 DampFc=0.5000 IDamp=-1.
 Damping current iteration by 5.00D-01
 RMSDP=3.37D-05 MaxDP=2.25D-03 DE=-5.69D-04 OVMax= 8.52D-03

 Cycle  14  Pass 1  IDiag  1:
 E= -1775.92813488164     Delta-E=       -0.000351274489 Rises=F Damp=T
 DIIS: error= 2.34D-03 at cycle  14 NSaved=  14.
 NSaved=14 IEnMin=14 EnMin= -1775.92813488164     IErMin= 9 ErrMin= 2.27D-03
 ErrMax= 2.34D-03  0.00D+00 EMaxC= 1.00D+00 BMatC= 1.12D-04 BMatP= 1.07D-04
 IDIUse=1 WtCom= 1.00D+00 WtEn= 0.00D+00
 Coeff-Com: -0.853D-03-0.640D-01 0.953D-01 0.407D+00-0.661D+00-0.146D+00
 Coeff-Com:  0.935D+00 0.104D+01-0.543D+01 0.176D+01 0.632D+01-0.174D+01
 Coeff-Com: -0.357D+01 0.206D+01
 Coeff:     -0.853D-03-0.640D-01 0.953D-01 0.407D+00-0.661D+00-0.146D+00
 Coeff:      0.935D+00 0.104D+01-0.543D+01 0.176D+01 0.632D+01-0.174D+01
 Coeff:     -0.357D+01 0.206D+01
 Gap=     0.214 Goal=   None    Shift=    0.500
 Gap=     0.067 Goal=   None    Shift=    0.500
 GapD=    0.067 DampG=0.500 DampE=1.000 DampFc=0.5000 IDamp=-1.
 Damping current iteration by 5.00D-01
 RMSDP=2.79D-05 MaxDP=1.87D-03 DE=-3.51D-04 OVMax= 7.63D-03

 Cycle  15  Pass 1  IDiag  1:
 E= -1775.92836669091     Delta-E=       -0.000231809271 Rises=F Damp=T
 DIIS: error= 2.33D-03 at cycle  15 NSaved=  15.
 NSaved=15 IEnMin=15 EnMin= -1775.92836669091     IErMin= 9 ErrMin= 2.27D-03
 ErrMax= 2.33D-03  0.00D+00 EMaxC= 1.00D+00 BMatC= 1.25D-04 BMatP= 1.07D-04
 IDIUse=1 WtCom= 1.00D+00 WtEn= 0.00D+00
 Large coefficients: NSaved= 15 BigCof=   53.54 CofMax=   10.00 Det=-5.55D-10
 Inversion failed.  Reducing to 14 matrices.
 Large coefficients: NSaved= 14 BigCof=   52.56 CofMax=   10.00 Det=-5.58D-10
 Inversion failed.  Reducing to 13 matrices.
 Large coefficients: NSaved= 13 BigCof=   54.20 CofMax=   10.00 Det=-5.60D-10
 Inversion failed.  Reducing to 12 matrices.
 Large coefficients: NSaved= 12 BigCof=   50.59 CofMax=   10.00 Det=-5.72D-10
 Inversion failed.  Reducing to 11 matrices.
 Large coefficients: NSaved= 11 BigCof=   40.99 CofMax=   10.00 Det=-6.02D-10
 Inversion failed.  Reducing to 10 matrices.
 Large coefficients: NSaved= 10 BigCof=   40.26 CofMax=   10.00 Det=-6.07D-10
 Inversion failed.  Reducing to  9 matrices.
 Large coefficients: NSaved=  9 BigCof=   39.50 CofMax=   10.00 Det=-6.09D-10
 Inversion failed.  Reducing to  8 matrices.
 Large coefficients: NSaved=  8 BigCof=   42.05 CofMax=   10.00 Det=-6.57D-10
 Inversion failed.  Reducing to  7 matrices.
 Large coefficients: NSaved=  7 BigCof=   19.73 CofMax=   10.00 Det=-7.39D-10
 Inversion failed.  Reducing to  6 matrices.
 Large coefficients: NSaved=  6 BigCof=   19.12 CofMax=   10.00 Det=-1.06D-09
 Inversion failed.  Reducing to  5 matrices.
 Large coefficients: NSaved=  5 BigCof=   20.94 CofMax=   10.00 Det=-1.27D-09
 Inversion failed.  Reducing to  4 matrices.
 Large coefficients: NSaved=  4 BigCof=   19.30 CofMax=   10.00 Det=-1.31D-09
 Inversion failed.  Reducing to  3 matrices.
 Large coefficients: NSaved=  3 BigCof=   13.64 CofMax=   10.00 Det=-2.20D-08
 Inversion failed.  Reducing to  2 matrices.
 Coeff-Com:  0.240D+01-0.140D+01
 Coeff:      0.240D+01-0.140D+01
 Gap=     0.215 Goal=   None    Shift=    0.500
 Gap=     0.066 Goal=   None    Shift=    0.500
 GapD=    0.066 DampG=0.500 DampE=1.000 DampFc=0.5000 IDamp=-1.
 Damping current iteration by 5.00D-01
 RMSDP=2.60D-05 MaxDP=1.77D-03 DE=-2.32D-04 OVMax= 7.67D-03

 Cycle  16  Pass 1  IDiag  1:
 E= -1775.92853893932     Delta-E=       -0.000172248411 Rises=F Damp=T
 DIIS: error= 2.33D-03 at cycle  16 NSaved=   3.
 NSaved= 3 IEnMin= 3 EnMin= -1775.92853893932     IErMin= 3 ErrMin= 2.33D-03
 ErrMax= 2.33D-03  0.00D+00 EMaxC= 1.00D+00 BMatC= 1.37D-04 BMatP= 1.12D-04
 IDIUse=1 WtCom= 1.00D+00 WtEn= 0.00D+00
 Coeff-Com:  0.306D+01-0.301D+01 0.950D+00
 Coeff:      0.306D+01-0.301D+01 0.950D+00
 Gap=     0.215 Goal=   None    Shift=    0.500
 Gap=     0.067 Goal=   None    Shift=    0.500
 GapD=    0.067 DampG=0.500 DampE=1.000 DampFc=0.5000 IDamp=-1.
 Damping current iteration by 5.00D-01
 RMSDP=2.43D-05 MaxDP=1.62D-03 DE=-1.72D-04 OVMax= 7.05D-03

 Cycle  17  Pass 1  IDiag  1:
 E= -1775.92867563097     Delta-E=       -0.000136691649 Rises=F Damp=T
 DIIS: error= 2.32D-03 at cycle  17 NSaved=   4.
 NSaved= 4 IEnMin= 4 EnMin= -1775.92867563097     IErMin= 4 ErrMin= 2.32D-03
 ErrMax= 2.32D-03  0.00D+00 EMaxC= 1.00D+00 BMatC= 1.52D-04 BMatP= 1.12D-04
 IDIUse=1 WtCom= 1.00D+00 WtEn= 0.00D+00
 Large coefficients: NSaved=  4 BigCof=   15.98 CofMax=   10.00 Det=-1.93D-08
 Inversion failed.  Reducing to  3 matrices.
 Large coefficients: NSaved=  3 BigCof=   16.48 CofMax=   10.00 Det=-4.35D-08
 Inversion failed.  Reducing to  2 matrices.
 Coeff-Com:  0.559D+01-0.459D+01
 Coeff:      0.559D+01-0.459D+01
 Gap=     0.214 Goal=   None    Shift=    0.500
 Gap=     0.067 Goal=   None    Shift=    0.500
 GapD=    0.067 DampG=0.500 DampE=1.000 DampFc=0.5000 IDamp=-1.
 Damping current iteration by 5.00D-01
 RMSDP=1.89D-05 MaxDP=1.23D-03 DE=-1.37D-04 OVMax= 5.06D-03

 Cycle  18  Pass 1  IDiag  1:
 E= -1775.92877787861     Delta-E=       -0.000102247642 Rises=F Damp=T
 DIIS: error= 2.30D-03 at cycle  18 NSaved=   3.
 NSaved= 3 IEnMin= 3 EnMin= -1775.92877787861     IErMin= 3 ErrMin= 2.30D-03
 ErrMax= 2.30D-03  0.00D+00 EMaxC= 1.00D+00 BMatC= 1.73D-04 BMatP= 1.37D-04
 IDIUse=1 WtCom= 1.00D+00 WtEn= 0.00D+00
 Coeff-Com:  0.627D+01-0.584D+01 0.578D+00
 Coeff:      0.627D+01-0.584D+01 0.578D+00
 Gap=     0.214 Goal=   None    Shift=    0.500
 Gap=     0.067 Goal=   None    Shift=    0.500
 GapD=    0.067 DampG=0.500 DampE=1.000 DampFc=0.5000 IDamp=-1.
 Damping current iteration by 5.00D-01
 RMSDP=1.57D-05 MaxDP=9.51D-04 DE=-1.02D-04 OVMax= 4.24D-03

 Cycle  19  Pass 1  IDiag  1:
 E= -1775.92885556476     Delta-E=       -0.000077686151 Rises=F Damp=T
 DIIS: error= 2.28D-03 at cycle  19 NSaved=   4.
 NSaved= 4 IEnMin= 4 EnMin= -1775.92885556476     IErMin= 4 ErrMin= 2.28D-03
 ErrMax= 2.28D-03  0.00D+00 EMaxC= 1.00D+00 BMatC= 1.98D-04 BMatP= 1.37D-04
 IDIUse=1 WtCom= 1.00D+00 WtEn= 0.00D+00
 Large coefficients: NSaved=  4 BigCof=   11.41 CofMax=   10.00 Det=-1.29D-08
 Inversion failed.  Reducing to  3 matrices.
 Large coefficients: NSaved=  3 BigCof=   14.29 CofMax=   10.00 Det=-1.32D-08
 Inversion failed.  Reducing to  2 matrices.
 Coeff-Com:  0.653D+01-0.553D+01
 Coeff:      0.653D+01-0.553D+01
 Gap=     0.216 Goal=   None    Shift=    0.500
 Gap=     0.067 Goal=   None    Shift=    0.500
 GapD=    0.067 DampG=0.500 DampE=1.000 DampFc=0.5000 IDamp=-1.
 Damping current iteration by 5.00D-01
 RMSDP=2.25D-05 MaxDP=1.89D-03 DE=-7.77D-05 OVMax= 6.77D-03

 Cycle  20  Pass 1  IDiag  1:
 E= -1775.92894905934     Delta-E=       -0.000093494577 Rises=F Damp=T
 DIIS: error= 2.28D-03 at cycle  20 NSaved=   3.
 NSaved= 3 IEnMin= 3 EnMin= -1775.92894905934     IErMin= 2 ErrMin= 2.28D-03
 ErrMax= 2.28D-03  0.00D+00 EMaxC= 1.00D+00 BMatC= 2.05D-04 BMatP= 1.73D-04
 IDIUse=1 WtCom= 1.00D+00 WtEn= 0.00D+00
 Coeff-Com:  0.682D+01-0.681D+01 0.989D+00
 Coeff:      0.682D+01-0.681D+01 0.989D+00
 Gap=     0.216 Goal=   None    Shift=    0.500
 Gap=     0.068 Goal=   None    Shift=    0.500
 GapD=    0.068 DampG=0.500 DampE=1.000 DampFc=0.5000 IDamp=-1.
 Damping current iteration by 5.00D-01
 RMSDP=2.54D-05 MaxDP=2.66D-03 DE=-9.35D-05 OVMax= 6.56D-03

 Cycle  21  Pass 1  IDiag  1:
 E= -1775.92904737763     Delta-E=       -0.000098318288 Rises=F Damp=T
 DIIS: error= 2.29D-03 at cycle  21 NSaved=   4.
 NSaved= 4 IEnMin= 4 EnMin= -1775.92904737763     IErMin= 2 ErrMin= 2.28D-03
 ErrMax= 2.29D-03  0.00D+00 EMaxC= 1.00D+00 BMatC= 2.10D-04 BMatP= 1.73D-04
 IDIUse=1 WtCom= 1.00D+00 WtEn= 0.00D+00
 Large coefficients: NSaved=  4 BigCof=   24.82 CofMax=   10.00 Det=-1.17D-08
 Inversion failed.  Reducing to  3 matrices.
 Large coefficients: NSaved=  3 BigCof=   25.08 CofMax=   10.00 Det=-1.17D-08
 Inversion failed.  Reducing to  2 matrices.
 Large coefficients: NSaved=  2 BigCof=   11.63 CofMax=   10.00 Det=-2.33D-07
 Coeff-Com:  0.116D+02-0.106D+02
 Coeff:      0.116D+02-0.106D+02
 Gap=     0.214 Goal=   None    Shift=    0.500
 Gap=     0.069 Goal=   None    Shift=    0.500
 GapD=    0.069 DampG=0.500 DampE=1.000 DampFc=0.5000 IDamp=-1.
 Damping current iteration by 5.00D-01
 RMSDP=1.63D-05 MaxDP=9.18D-04 DE=-9.83D-05 OVMax= 1.29D-03

 Cycle  22  Pass 1  IDiag  1:
 E= -1775.92909313934     Delta-E=       -0.000045761711 Rises=F Damp=T
 DIIS: error= 2.28D-03 at cycle  22 NSaved=   3.
 NSaved= 3 IEnMin= 3 EnMin= -1775.92909313934     IErMin= 3 ErrMin= 2.28D-03
 ErrMax= 2.28D-03  0.00D+00 EMaxC= 1.00D+00 BMatC= 2.11D-04 BMatP= 2.05D-04
 IDIUse=1 WtCom= 1.00D+00 WtEn= 0.00D+00
 Large coefficients: NSaved=  3 BigCof=   16.12 CofMax=   10.00 Det=-1.58D-07
 Inversion failed.  Reducing to  2 matrices.
 Coeff-Com:  0.561D+00 0.439D+00
 Coeff:      0.561D+00 0.439D+00
 Gap=     0.222 Goal=   None    Shift=    0.500
 Gap=     0.071 Goal=   None    Shift=    0.500
 GapD=    0.071 DampG=0.500 DampE=1.000 DampFc=0.5000 IDamp=-1.
 Damping current iteration by 5.00D-01
 RMSDP=5.94D-05 MaxDP=9.94D-03 DE=-4.58D-05 OVMax= 1.02D-02

 Cycle  23  Pass 1  IDiag  1:
 E= -1775.92922000306     Delta-E=       -0.000126863721 Rises=F Damp=T
 DIIS: error= 2.43D-03 at cycle  23 NSaved=   3.
 NSaved= 3 IEnMin= 3 EnMin= -1775.92922000306     IErMin= 2 ErrMin= 2.28D-03
 ErrMax= 2.43D-03  0.00D+00 EMaxC= 1.00D+00 BMatC= 1.45D-04 BMatP= 2.10D-04
 IDIUse=1 WtCom= 1.00D+00 WtEn= 0.00D+00
 Coeff-Com:  0.104D+01-0.172D+01 0.167D+01
 Coeff:      0.104D+01-0.172D+01 0.167D+01
 Gap=     0.221 Goal=   None    Shift=    0.500
 Gap=     0.070 Goal=   None    Shift=    0.500
 GapD=    0.070 DampG=0.500 DampE=1.000 DampFc=0.5000 IDamp=-1.
 Damping current iteration by 5.00D-01
 RMSDP=5.79D-05 MaxDP=8.75D-03 DE=-1.27D-04 OVMax= 1.14D-02

 Cycle  24  Pass 1  IDiag  1:
 E= -1775.92937279883     Delta-E=       -0.000152795766 Rises=F Damp=T
 DIIS: error= 2.50D-03 at cycle  24 NSaved=   4.
 NSaved= 4 IEnMin= 4 EnMin= -1775.92937279883     IErMin= 2 ErrMin= 2.28D-03
 ErrMax= 2.50D-03  0.00D+00 EMaxC= 1.00D+00 BMatC= 1.36D-04 BMatP= 1.45D-04
 IDIUse=1 WtCom= 1.00D+00 WtEn= 0.00D+00
 Coeff-Com:  0.886D+00-0.130D+01-0.656D-01 0.148D+01
 Coeff:      0.886D+00-0.130D+01-0.656D-01 0.148D+01
 Gap=     0.222 Goal=   None    Shift=    0.500
 Gap=     0.070 Goal=   None    Shift=    0.500
 GapD=    0.070 DampG=0.500 DampE=1.000 DampFc=0.5000 IDamp=-1.
 Damping current iteration by 5.00D-01
 RMSDP=5.60D-05 MaxDP=7.56D-03 DE=-1.53D-04 OVMax= 1.18D-02

 Cycle  25  Pass 1  IDiag  1:
 E= -1775.92954584010     Delta-E=       -0.000173041271 Rises=F Damp=T
 DIIS: error= 2.55D-03 at cycle  25 NSaved=   5.
 NSaved= 5 IEnMin= 5 EnMin= -1775.92954584010     IErMin= 2 ErrMin= 2.28D-03
 ErrMax= 2.55D-03  0.00D+00 EMaxC= 1.00D+00 BMatC= 1.36D-04 BMatP= 1.36D-04
 IDIUse=1 WtCom= 1.00D+00 WtEn= 0.00D+00
 Coeff-Com:  0.134D+01-0.127D+01-0.291D+01 0.894D+01-0.509D+01
 Coeff:      0.134D+01-0.127D+01-0.291D+01 0.894D+01-0.509D+01
 Gap=     0.219 Goal=   None    Shift=    0.500
 Gap=     0.070 Goal=   None    Shift=    0.500
 GapD=    0.070 DampG=0.500 DampE=1.000 DampFc=0.5000 IDamp=-1.
 Damping current iteration by 5.00D-01
 RMSDP=2.48D-05 MaxDP=1.46D-03 DE=-1.73D-04 OVMax= 5.19D-03

 Cycle  26  Pass 1  IDiag  1:
 E= -1775.92966564835     Delta-E=       -0.000119808251 Rises=F Damp=T
 DIIS: error= 2.49D-03 at cycle  26 NSaved=   6.
 NSaved= 6 IEnMin= 6 EnMin= -1775.92966564835     IErMin= 2 ErrMin= 2.28D-03
 ErrMax= 2.49D-03  0.00D+00 EMaxC= 1.00D+00 BMatC= 1.64D-04 BMatP= 1.36D-04
 IDIUse=1 WtCom= 1.00D+00 WtEn= 0.00D+00
 Coeff-Com:  0.992D+00 0.216D+00-0.304D+01 0.681D+01-0.154D+01-0.245D+01
 Coeff:      0.992D+00 0.216D+00-0.304D+01 0.681D+01-0.154D+01-0.245D+01
 Gap=     0.216 Goal=   None    Shift=    0.500
 Gap=     0.069 Goal=   None    Shift=    0.500
 GapD=    0.069 DampG=0.500 DampE=1.000 DampFc=0.5000 IDamp=-1.
 Damping current iteration by 5.00D-01
 RMSDP=3.24D-05 MaxDP=5.33D-03 DE=-1.20D-04 OVMax= 1.52D-03

 Cycle  27  Pass 1  IDiag  1:
 E= -1775.92971004942     Delta-E=       -0.000044401068 Rises=F Damp=T
 DIIS: error= 2.36D-03 at cycle  27 NSaved=   7.
 NSaved= 7 IEnMin= 7 EnMin= -1775.92971004942     IErMin= 2 ErrMin= 2.28D-03
 ErrMax= 2.36D-03  0.00D+00 EMaxC= 1.00D+00 BMatC= 2.38D-04 BMatP= 1.36D-04
 IDIUse=1 WtCom= 1.00D+00 WtEn= 0.00D+00
 Coeff-Com:  0.744D+00 0.828D+00-0.243D+01 0.359D+01 0.386D+01-0.710D+01
 Coeff-Com:  0.150D+01
 Coeff:      0.744D+00 0.828D+00-0.243D+01 0.359D+01 0.386D+01-0.710D+01
 Coeff:      0.150D+01
 Gap=     0.216 Goal=   None    Shift=    0.500
 Gap=     0.069 Goal=   None    Shift=    0.500
 GapD=    0.069 DampG=0.500 DampE=1.000 DampFc=0.5000 IDamp=-1.
 Damping current iteration by 5.00D-01
 RMSDP=3.21D-05 MaxDP=5.72D-03 DE=-4.44D-05 OVMax= 9.96D-04

 Cycle  28  Pass 1  IDiag  1:
 E= -1775.92971286603     Delta-E=       -0.000002816615 Rises=F Damp=T
 DIIS: error= 2.25D-03 at cycle  28 NSaved=   8.
 NSaved= 8 IEnMin= 8 EnMin= -1775.92971286603     IErMin= 8 ErrMin= 2.25D-03
 ErrMax= 2.25D-03  0.00D+00 EMaxC= 1.00D+00 BMatC= 3.30D-04 BMatP= 1.36D-04
 IDIUse=1 WtCom= 1.00D+00 WtEn= 0.00D+00
 Large coefficients: NSaved=  8 BigCof=   14.77 CofMax=   10.00 Det=-1.16D-08
 Inversion failed.  Reducing to  7 matrices.
 Large coefficients: NSaved=  7 BigCof=   18.97 CofMax=   10.00 Det=-1.38D-08
 Inversion failed.  Reducing to  6 matrices.
 Coeff-Com:  0.916D+00-0.228D+01 0.490D+01-0.383D+01 0.188D+01-0.589D+00
 Coeff:      0.916D+00-0.228D+01 0.490D+01-0.383D+01 0.188D+01-0.589D+00
 Gap=     0.222 Goal=   None    Shift=    0.500
 Gap=     0.070 Goal=   None    Shift=    0.500
 GapD=    0.070 DampG=0.500 DampE=1.000 DampFc=0.5000 IDamp=-1.
 Damping current iteration by 5.00D-01
 RMSDP=3.40D-05 MaxDP=4.77D-03 DE=-2.82D-06 OVMax= 9.09D-03

 Cycle  29  Pass 1  IDiag  1:
 E= -1775.92981716488     Delta-E=       -0.000104298849 Rises=F Damp=T
 DIIS: error= 2.28D-03 at cycle  29 NSaved=   7.
 NSaved= 7 IEnMin= 7 EnMin= -1775.92981716488     IErMin= 6 ErrMin= 2.25D-03
 ErrMax= 2.28D-03  0.00D+00 EMaxC= 1.00D+00 BMatC= 3.08D-04 BMatP= 1.36D-04
 IDIUse=1 WtCom= 1.00D+00 WtEn= 0.00D+00
 Coeff-Com:  0.833D+00-0.175D+01 0.425D+01-0.418D+01 0.318D+01-0.169D+01
 Coeff-Com:  0.364D+00
 Coeff:      0.833D+00-0.175D+01 0.425D+01-0.418D+01 0.318D+01-0.169D+01
 Coeff:      0.364D+00
 Gap=     0.222 Goal=   None    Shift=    0.500
 Gap=     0.070 Goal=   None    Shift=    0.500
 GapD=    0.070 DampG=0.500 DampE=1.000 DampFc=0.5000 IDamp=-1.
 Damping current iteration by 5.00D-01
 RMSDP=4.10D-05 MaxDP=5.94D-03 DE=-1.04D-04 OVMax= 8.00D-03

 Cycle  30  Pass 1  IDiag  1:
 E= -1775.92994175621     Delta-E=       -0.000124591332 Rises=F Damp=T
 DIIS: error= 2.32D-03 at cycle  30 NSaved=   8.
 NSaved= 8 IEnMin= 8 EnMin= -1775.92994175621     IErMin= 6 ErrMin= 2.25D-03
 ErrMax= 2.32D-03  0.00D+00 EMaxC= 1.00D+00 BMatC= 2.87D-04 BMatP= 1.36D-04
 IDIUse=1 WtCom= 1.00D+00 WtEn= 0.00D+00
 Large coefficients: NSaved=  8 BigCof=   20.05 CofMax=   10.00 Det=-3.87D-09
 Inversion failed.  Reducing to  7 matrices.
 Large coefficients: NSaved=  7 BigCof=   20.09 CofMax=   10.00 Det=-4.03D-09
 Inversion failed.  Reducing to  6 matrices.
 Coeff-Com:  0.198D+01-0.384D+01 0.679D+01-0.795D+01 0.951D+01-0.549D+01
 Coeff:      0.198D+01-0.384D+01 0.679D+01-0.795D+01 0.951D+01-0.549D+01
 Gap=     0.221 Goal=   None    Shift=    0.500
 Gap=     0.071 Goal=   None    Shift=    0.500
 GapD=    0.071 DampG=0.500 DampE=1.000 DampFc=0.5000 IDamp=-1.
 Damping current iteration by 5.00D-01
 RMSDP=2.62D-05 MaxDP=2.92D-03 DE=-1.25D-04 OVMax= 5.62D-03

 Cycle  31  Pass 1  IDiag  1:
 E= -1775.93004405522     Delta-E=       -0.000102299004 Rises=F Damp=T
 DIIS: error= 2.32D-03 at cycle  31 NSaved=   7.
 NSaved= 7 IEnMin= 7 EnMin= -1775.93004405522     IErMin= 4 ErrMin= 2.25D-03
 ErrMax= 2.32D-03  0.00D+00 EMaxC= 1.00D+00 BMatC= 3.02D-04 BMatP= 1.36D-04
 IDIUse=1 WtCom= 1.00D+00 WtEn= 0.00D+00
 Large coefficients: NSaved=  7 BigCof=   33.84 CofMax=   10.00 Det=-3.07D-09
 Inversion failed.  Reducing to  6 matrices.
 Large coefficients: NSaved=  6 BigCof=   37.91 CofMax=   10.00 Det=-3.89D-09
 Inversion failed.  Reducing to  5 matrices.
 Large coefficients: NSaved=  5 BigCof=   26.86 CofMax=   10.00 Det=-6.63D-09
 Inversion failed.  Reducing to  4 matrices.
 Large coefficients: NSaved=  4 BigCof=   23.46 CofMax=   10.00 Det=-4.04D-08
 Inversion failed.  Reducing to  3 matrices.
 Large coefficients: NSaved=  3 BigCof=   16.62 CofMax=   10.00 Det=-5.44D-07
 Inversion failed.  Reducing to  2 matrices.
 Coeff-Com:  0.990D+01-0.890D+01
 Coeff:      0.990D+01-0.890D+01
 Gap=     0.222 Goal=   None    Shift=    0.500
 Gap=     0.072 Goal=   None    Shift=    0.500
 GapD=    0.072 DampG=0.500 DampE=1.000 DampFc=0.5000 IDamp=-1.
 Damping current iteration by 5.00D-01
 RMSDP=2.13D-05 MaxDP=2.28D-03 DE=-1.02D-04 OVMax= 2.43D-03

 Cycle  32  Pass 1  IDiag  1:
 E= -1775.93011883624     Delta-E=       -0.000074781025 Rises=F Damp=T
 DIIS: error= 2.35D-03 at cycle  32 NSaved=   3.
 NSaved= 3 IEnMin= 3 EnMin= -1775.93011883624     IErMin= 2 ErrMin= 2.32D-03
 ErrMax= 2.35D-03  0.00D+00 EMaxC= 1.00D+00 BMatC= 2.82D-04 BMatP= 2.87D-04
 IDIUse=1 WtCom= 1.00D+00 WtEn= 0.00D+00
 Large coefficients: NSaved=  3 BigCof=   14.93 CofMax=   10.00 Det=-5.89D-07
 Inversion failed.  Reducing to  2 matrices.
 Coeff-Com: -0.412D+00 0.141D+01
 Coeff:     -0.412D+00 0.141D+01
 Gap=     0.230 Goal=   None    Shift=    0.500
 Gap=     0.074 Goal=   None    Shift=    0.500
 GapD=    0.074 DampG=0.500 DampE=1.000 DampFc=0.5000 IDamp=-1.
 Damping current iteration by 5.00D-01
 RMSDP=7.44D-05 MaxDP=1.22D-02 DE=-7.48D-05 OVMax= 1.08D-02

 >>>>>>>>>> Convergence criterion not met.
 SCF Done:  E(ULC-wHPBE) =  -1775.93011884     A.U. after   33 cycles
            NFock= 32  Conv=0.74D-04     -V/T= 2.0036
 <Sx>= 0.0000 <Sy>= 0.0000 <Sz>= 0.5000 <S**2>= 0.7568 S= 0.5034
 <L.S>= 0.000000000000E+00
 KE= 1.769565436465D+03 PE=-9.093320484324D+03 EE= 3.073140161663D+03
 Annihilation of the first spin contaminant:
 S**2 before annihilation     0.7568,   after     0.7499
 Leave Link  502 at Tue Jan 19 05:00:06 2021, MaxMem=  4026531840 cpu:           15182.8 elap:            1903.0
 (Enter /opt/ohpc/pub/libs/gaussian/g16-A.03/sandybridge/g16/l508.exe)
 Integral symmetry usage will be decided dynamically.
 Tight linear equation convergence will be used.
 ULC-wHPBE wavefunction.
 Quadratic Convergence SCF Method.
 Line search only if initial step raises energy.
 FoFJK:  IHMeth= 1 ICntrl=       0 DoSepK=T KAlg= 0 I1Cent=           0 FoldK=F
 IRaf=         1 NMat=       1 IRICut=       1 DoRegI=T DoRafI=F ISym2E= 1 IDoP0=0 IntGTp=1.
 FoFCou: FMM=F IPFlag=           0 FMFlag=      100000 FMFlg1=           0
         NFxFlg=           0 DoJE=T BraDBF=F KetDBF=F FulRan=T
         wScrn=  0.000000 ICntrl=       500 IOpCl=  0 I1Cent=           0 NGrid=           0
         NMat0=    1 NMatS0=      1 NMatT0=    0 NMatD0=    1 NMtDS0=    0 NMtDT0=    0
 Petite list used in FoFCou.
 Iteration   1 EE= -1775.93044573349                                    Grad=9.192D-03 Max rot=    0.4299 deg.
 QCNR:  CnvC1=9.19D-08 CnvC2=9.19D-07
 LinEq1:  Iter=  0 NonCon=     1 RMS=3.23D-04 Max=1.04D-01 NDo=     1
 AX will form     1 AO Fock derivatives at one time.
 LinEq1:  Iter=  1 NonCon=     1 RMS=1.17D-04 Max=8.82D-03 NDo=     1
 LinEq1:  Iter=  2 NonCon=     1 RMS=5.52D-05 Max=8.02D-03 NDo=     1
 LinEq1:  Iter=  3 NonCon=     1 RMS=3.97D-05 Max=6.41D-03 NDo=     1
 LinEq1:  Iter=  4 NonCon=     1 RMS=2.29D-05 Max=2.43D-03 NDo=     1
 LinEq1:  Iter=  5 NonCon=     1 RMS=1.67D-05 Max=1.72D-03 NDo=     1
 LinEq1:  Iter=  6 NonCon=     1 RMS=1.10D-05 Max=1.78D-03 NDo=     1
 LinEq1:  Iter=  7 NonCon=     1 RMS=7.10D-06 Max=6.91D-04 NDo=     1
 LinEq1:  Iter=  8 NonCon=     1 RMS=3.79D-06 Max=2.73D-04 NDo=     1
 LinEq1:  Iter=  9 NonCon=     1 RMS=2.18D-06 Max=1.42D-04 NDo=     1
 LinEq1:  Iter= 10 NonCon=     1 RMS=1.45D-06 Max=9.98D-05 NDo=     1
 LinEq1:  Iter= 11 NonCon=     1 RMS=7.66D-07 Max=5.68D-05 NDo=     1
 LinEq1:  Iter= 12 NonCon=     1 RMS=4.91D-07 Max=3.89D-05 NDo=     1
 LinEq1:  Iter= 13 NonCon=     1 RMS=2.81D-07 Max=2.16D-05 NDo=     1
 LinEq1:  Iter= 14 NonCon=     1 RMS=1.56D-07 Max=1.03D-05 NDo=     1
 LinEq1:  Iter= 15 NonCon=     1 RMS=1.06D-07 Max=6.32D-06 NDo=     1
 LinEq1:  Iter= 16 NonCon=     1 RMS=5.00D-08 Max=3.01D-06 NDo=     1
 LinEq1:  Iter= 17 NonCon=     1 RMS=2.80D-08 Max=1.61D-06 NDo=     1
 LinEq1:  Iter= 18 NonCon=     1 RMS=1.59D-08 Max=1.10D-06 NDo=     1
 LinEq1:  Iter= 19 NonCon=     0 RMS=1.02D-08 Max=9.15D-07 NDo=     1
 Linear equations converged to 9.192D-08 9.192D-07 after    19 iterations.
 Angle between quadratic step and gradient= 152.33 degrees.
 Incorrect curvature in search direction -- initial direction reversed.
     ILin= 1 X=0.000D+00 Y=-1.775930445733D+03 DE= 0.00D+00 F= -1.76D-02
     ILin= 2 X=8.000D-01 Y=-1.775940114185D+03 DE=-9.67D-03 F= -4.56D-03
     Reject lnstep minimum 2.495D+00 FVal=-1.775945594971D+03 Lims=  0.00D+00  8.00D-01
     ILin= 3 X=1.100D+00 Y=-1.775941192336D+03 DE=-1.07D-02 F=  6.85D-04
     Accept linear search using points  2 and  3.
     An  expanding polynomial of degree  3 produced  0.9987
 Iteration   2 EE= -1775.94100571800     Delta-E=       -0.010559984510 Grad=4.693D-02 Max rot=    0.2599 deg.
 Gradient too large for Newton-Raphson -- use scaled steepest descent instead.
     ILin= 1 X=0.000D+00 Y=-1.775941005718D+03 DE= 0.00D+00 F= -3.57D-03
     ILin= 2 X=3.000D-01 Y=-1.775941908227D+03 DE=-9.03D-04 F= -2.45D-03
     ILin= 3 X=6.000D-01 Y=-1.775942474958D+03 DE=-1.47D-03 F= -1.33D-03
     ILin= 4 X=1.200D+00 Y=-1.775942600454D+03 DE=-1.59D-03 F=  9.11D-04
     Accept linear search using points  3 and  4.
     An  expanding polynomial of degree  4 produced  0.9227
 Iteration   3 EE= -1775.94270953715     Delta-E=       -0.001703819145 Grad=1.961D-02 Max rot=    0.1107 deg.
 Gradient too large for Newton-Raphson -- use scaled steepest descent instead.
     ILin= 1 X=0.000D+00 Y=-1.775942709537D+03 DE= 0.00D+00 F= -5.22D-04
     ILin= 2 X=5.000D-01 Y=-1.775942919228D+03 DE=-2.10D-04 F= -3.17D-04
     ILin= 3 X=1.100D+00 Y=-1.775943036042D+03 DE=-3.27D-04 F= -7.21D-05
     ILin= 4 X=2.100D+00 Y=-1.775942903905D+03 DE=-1.94D-04 F=  3.36D-04
     An  expanding polynomial of degree  4 produced  1.2766
 Iteration   4 EE= -1775.94304240917     Delta-E=       -0.000332872018 Grad=1.357D-02 Max rot=    0.0896 deg.
 Gradient too large for Newton-Raphson -- use scaled steepest descent instead.
     ILin= 1 X=0.000D+00 Y=-1.775943042409D+03 DE= 0.00D+00 F= -2.63D-04
     ILin= 2 X=1.100D+00 Y=-1.775943160083D+03 DE=-1.18D-04 F=  4.87D-05
     Accept linear search using points  1 and  2.
     An  expanding polynomial of degree  2 produced  0.9546
 Iteration   5 EE= -1775.94316417133     Delta-E=       -0.000121762165 Grad=7.799D-03 Max rot=    0.0709 deg.
 QCNR:  CnvC1=7.80D-08 CnvC2=7.80D-07
 LinEq1:  Iter=  0 NonCon=     1 RMS=5.87D-05 Max=1.17D-02 NDo=     1
 LinEq1:  Iter=  1 NonCon=     1 RMS=5.10D-05 Max=5.90D-03 NDo=     1
 LinEq1:  Iter=  2 NonCon=     1 RMS=2.56D-05 Max=3.57D-03 NDo=     1
 LinEq1:  Iter=  3 NonCon=     1 RMS=1.70D-05 Max=1.52D-03 NDo=     1
 LinEq1:  Iter=  4 NonCon=     1 RMS=1.14D-05 Max=2.24D-03 NDo=     1
 LinEq1:  Iter=  5 NonCon=     1 RMS=6.66D-06 Max=8.13D-04 NDo=     1
 LinEq1:  Iter=  6 NonCon=     1 RMS=4.36D-06 Max=5.21D-04 NDo=     1
 LinEq1:  Iter=  7 NonCon=     1 RMS=2.66D-06 Max=2.30D-04 NDo=     1
 LinEq1:  Iter=  8 NonCon=     1 RMS=1.65D-06 Max=9.41D-05 NDo=     1
 LinEq1:  Iter=  9 NonCon=     1 RMS=8.51D-07 Max=4.43D-05 NDo=     1
 LinEq1:  Iter= 10 NonCon=     1 RMS=5.13D-07 Max=2.56D-05 NDo=     1
 LinEq1:  Iter= 11 NonCon=     1 RMS=2.75D-07 Max=1.65D-05 NDo=     1
 LinEq1:  Iter= 12 NonCon=     1 RMS=1.84D-07 Max=1.04D-05 NDo=     1
 LinEq1:  Iter= 13 NonCon=     1 RMS=1.11D-07 Max=7.77D-06 NDo=     1
 LinEq1:  Iter= 14 NonCon=     1 RMS=6.08D-08 Max=3.39D-06 NDo=     1
 LinEq1:  Iter= 15 NonCon=     1 RMS=3.69D-08 Max=2.17D-06 NDo=     1
 LinEq1:  Iter= 16 NonCon=     1 RMS=1.90D-08 Max=1.29D-06 NDo=     1
 LinEq1:  Iter= 17 NonCon=     0 RMS=1.08D-08 Max=6.45D-07 NDo=     1
 Linear equations converged to 7.799D-08 7.799D-07 after    17 iterations.
 Angle between quadratic step and gradient=  65.38 degrees.
     ILin= 1 X=0.000D+00 Y=-1.775943164171D+03 DE= 0.00D+00 F= -3.68D-04
     ILin= 2 X=1.000D+00 Y=-1.775943346569D+03 DE=-1.82D-04
 Iteration   6 EE= -1775.94334656916     Delta-E=       -0.000182397827 Grad=8.449D-04 Max rot=    0.0062 deg.
 QCNR:  CnvC1=8.45D-09 CnvC2=8.45D-08
 LinEq1:  Iter=  0 NonCon=     1 RMS=5.21D-06 Max=7.30D-04 NDo=     1
 LinEq1:  Iter=  1 NonCon=     1 RMS=3.09D-06 Max=2.77D-04 NDo=     1
 LinEq1:  Iter=  2 NonCon=     1 RMS=2.15D-06 Max=1.72D-04 NDo=     1
 LinEq1:  Iter=  3 NonCon=     1 RMS=1.19D-06 Max=1.34D-04 NDo=     1
 LinEq1:  Iter=  4 NonCon=     1 RMS=9.07D-07 Max=9.05D-05 NDo=     1
 LinEq1:  Iter=  5 NonCon=     1 RMS=5.94D-07 Max=7.28D-05 NDo=     1
 LinEq1:  Iter=  6 NonCon=     1 RMS=3.45D-07 Max=2.80D-05 NDo=     1
 LinEq1:  Iter=  7 NonCon=     1 RMS=2.12D-07 Max=1.35D-05 NDo=     1
 LinEq1:  Iter=  8 NonCon=     1 RMS=1.11D-07 Max=5.58D-06 NDo=     1
 LinEq1:  Iter=  9 NonCon=     1 RMS=6.19D-08 Max=3.53D-06 NDo=     1
 LinEq1:  Iter= 10 NonCon=     1 RMS=4.06D-08 Max=2.80D-06 NDo=     1
 LinEq1:  Iter= 11 NonCon=     1 RMS=2.09D-08 Max=1.10D-06 NDo=     1
 LinEq1:  Iter= 12 NonCon=     1 RMS=1.29D-08 Max=6.66D-07 NDo=     1
 LinEq1:  Iter= 13 NonCon=     1 RMS=7.51D-09 Max=3.99D-07 NDo=     1
 LinEq1:  Iter= 14 NonCon=     1 RMS=4.35D-09 Max=3.69D-07 NDo=     1
 LinEq1:  Iter= 15 NonCon=     1 RMS=2.75D-09 Max=2.59D-07 NDo=     1
 LinEq1:  Iter= 16 NonCon=     1 RMS=1.53D-09 Max=1.23D-07 NDo=     1
 LinEq1:  Iter= 17 NonCon=     0 RMS=7.68D-10 Max=6.26D-08 NDo=     1
 Linear equations converged to 8.449D-09 8.449D-08 after    17 iterations.
 Angle between quadratic step and gradient=  65.17 degrees.
     ILin= 1 X=0.000D+00 Y=-1.775943346569D+03 DE= 0.00D+00 F= -1.12D-06
     ILin= 2 X=1.000D+00 Y=-1.775943347130D+03 DE=-5.61D-07
 Iteration   7 EE= -1775.94334713027     Delta-E=       -0.000000561109 Grad=7.881D-07 Max rot=    0.0000 deg.
 Rotation gradient small -- convergence achieved.
 SCF Done:  E(ULC-wHPBE) =  -1775.94334713     a.u. after    7 cycles
            Convg  =    0.7881D-06                    69 Fock formations.
              S**2 =  0.7662                  -V/T =  2.0036
 <Sx>= 0.0000 <Sy>= 0.0000 <Sz>= 0.5000 <S**2>= 0.7662 S= 0.5081
 <L.S>= 0.000000000000E+00
 Annihilation of the first spin contaminant:
 S**2 before annihilation     0.7662,   after     0.7502
 Leave Link  508 at Tue Jan 19 06:03:03 2021, MaxMem=  4026531840 cpu:           30095.0 elap:            3776.2
 (Enter /opt/ohpc/pub/libs/gaussian/g16-A.03/sandybridge/g16/l601.exe)
 Copying SCF densities to generalized density rwf, IOpCl= 1 IROHF=0.

 **********************************************************************

            Population analysis using the SCF density.

 **********************************************************************

 Orbital symmetries:
 Alpha Orbitals:
       Occupied  (A) (A) (A) (A) (A) (A) (A) (A) (A) (A) (A) (A)
                 (A) (A) (A) (A) (A) (A) (A) (A) (A) (A) (A) (A)
                 (A) (A) (A) (A) (A) (A) (A) (A) (A) (A) (A) (A)
                 (A) (A) (A) (A) (A) (A) (A) (A) (A) (A) (A) (A)
                 (A) (A) (A) (A) (A) (A) (A) (A) (A) (A) (A) (A)
                 (A) (A) (A) (A) (A) (A) (A) (A) (A) (A) (A) (A)
[...]
     5   Atom        0.026737     -0.012469     -0.014268
     6   Atom       -0.071551      0.029405      0.042147
     7   Atom        0.000864     -0.001300      0.000436
     8   Atom        0.001407     -0.000913     -0.000493
     9   Atom        0.000700     -0.000431     -0.000268
    10   Atom       -0.047449      0.064658     -0.017209
    11   Atom        0.021106     -0.009122     -0.011984
    12   Atom       -0.057933      0.068351     -0.010418
    13   Atom        0.010714     -0.022697      0.011983
    14   Atom       -0.002724      0.002021      0.000704
    15   Atom        0.001528     -0.001435     -0.000093
    16   Atom       -0.003522      0.001054      0.002468
    17   Atom       -0.003002      0.001871      0.001131
    18   Atom        0.001203     -0.000510     -0.000693
    19   Atom        0.001568     -0.001089     -0.000479
    20   Atom        0.000331     -0.000105     -0.000226
    21   Atom        0.000427     -0.000249     -0.000178
    22   Atom        0.000071     -0.000163      0.000092
    23   Atom       -0.010706     -0.011222      0.021928
    24   Atom       -0.450785     -0.455015      0.905800
    25   Atom       -0.012206     -0.001201      0.013407
    26   Atom        0.060957     -0.037384     -0.023573
    27   Atom        0.021591     -0.001850     -0.019741
    28   Atom       -0.002499      0.012961     -0.010462
    29   Atom       -0.008587      0.016656     -0.008069
    30   Atom        0.016194     -0.047343      0.031149
    31   Atom       -0.001278      0.001241      0.000037
    32   Atom       -0.000924     -0.000601      0.001525
    33   Atom       -0.000649      0.001107     -0.000457
    34   Atom       -0.000368      0.000636     -0.000268
    35   Atom        0.000864      0.002681     -0.003545
    36   Atom       -0.014478      0.006035      0.008443
    37   Atom        0.031605     -0.049820      0.018215
    38   Atom        0.005172     -0.026522      0.021349
    39   Atom        0.008106      0.017591     -0.025696
    40   Atom        0.005193      0.019984     -0.025177
    41   Atom       -0.029695     -0.055339      0.085034
    42   Atom        0.002266      0.000018     -0.002284
    43   Atom        0.003228     -0.001658     -0.001571
    44   Atom       -0.000219      0.001541     -0.001322
    45   Atom        0.000115      0.001195     -0.001310
    46   Atom       -0.003473      0.005810     -0.002337
 --------------------------------------------------------
                        XY            XZ            YZ
 --------------------------------------------------------
     1   Atom       -0.002497      0.003761     -0.000269
     2   Atom       -0.015781     -0.004488      0.008527
     3   Atom        0.040037     -0.012046     -0.045415
     4   Atom        0.002130     -0.002782     -0.005313
     5   Atom        0.008578      0.007264     -0.034249
     6   Atom       -0.030583     -0.032121      0.123478
     7   Atom       -0.000299     -0.000399      0.001192
     8   Atom       -0.000129     -0.001156      0.002433
     9   Atom       -0.000086     -0.000043     -0.000023
    10   Atom       -0.053378     -0.029194      0.079066
    11   Atom        0.013074      0.015314     -0.031392
    12   Atom       -0.011619     -0.010593      0.078254
    13   Atom        0.004960      0.001136     -0.002526
    14   Atom        0.002119     -0.003174     -0.006100
    15   Atom       -0.000122      0.001288     -0.001987
    16   Atom       -0.000831      0.002312     -0.005647
    17   Atom       -0.000218     -0.000554     -0.004700
    18   Atom       -0.001028     -0.001711      0.002110
    19   Atom        0.001479     -0.000003     -0.001853
    20   Atom       -0.000244     -0.000441      0.000436
    21   Atom       -0.000095     -0.000196      0.000192
    22   Atom       -0.000403     -0.000563      0.000235
    23   Atom       -0.002655      0.005194     -0.010037
    24   Atom       -0.051728     -0.275794      0.263746
    25   Atom       -0.016243      0.001603      0.003037
    26   Atom        0.040039     -0.048564     -0.020494
    27   Atom        0.057346     -0.050131     -0.035993
    28   Atom       -0.012591      0.023847      0.010860
    29   Atom       -0.010344      0.025973      0.006984
    30   Atom        0.027004     -0.083656     -0.034073
    31   Atom        0.001839      0.002983      0.004475
    32   Atom        0.001880      0.004374      0.002823
    33   Atom       -0.001190      0.001237      0.000525
    34   Atom       -0.001274      0.001551      0.000198
    35   Atom       -0.006301     -0.000788     -0.004661
    36   Atom        0.010102     -0.012473      0.004681
    37   Atom       -0.010430      0.070836     -0.013179
    38   Atom       -0.036450      0.065473     -0.036938
    39   Atom        0.005986     -0.019087      0.008103
    40   Atom        0.003510     -0.022326      0.002869
    41   Atom       -0.005955      0.068087     -0.018525
    42   Atom       -0.003148     -0.003321      0.002765
    43   Atom       -0.001991     -0.004383      0.001032
    44   Atom        0.000550     -0.001233      0.000487
    45   Atom        0.000956     -0.001372      0.000177
    46   Atom        0.006106      0.002186     -0.002113
 --------------------------------------------------------


 ---------------------------------------------------------------------------------
              Anisotropic Spin Dipole Couplings in Principal Axis System
 ---------------------------------------------------------------------------------

       Atom             a.u.   MegaHertz   Gauss  10(-4) cm-1        Axes

              Baa    -0.0044    -0.584    -0.208    -0.195  0.4644  0.8236 -0.3256
     1 C(13)  Bbb    -0.0017    -0.222    -0.079    -0.074 -0.3712  0.5148  0.7728
              Bcc     0.0060     0.805     0.287     0.269  0.8041 -0.2380  0.5448
 
              Baa    -0.0151    -2.027    -0.723    -0.676 -0.0741 -0.3400  0.9375
     2 C(13)  Bbb    -0.0103    -1.378    -0.492    -0.460  0.8314  0.4981  0.2464
              Bcc     0.0254     3.405     1.215     1.136 -0.5507  0.7977  0.2457
 
              Baa    -0.0771    -3.159    -1.127    -1.054  0.9777 -0.1826  0.1034
     3 S(33)  Bbb    -0.0556    -2.280    -0.813    -0.760 -0.0506  0.2730  0.9607
              Bcc     0.1327     5.439     1.941     1.814  0.2036  0.9445 -0.2577
 
              Baa    -0.0044    -0.588    -0.210    -0.196  0.1843  0.6991  0.6908
     4 C(13)  Bbb    -0.0033    -0.437    -0.156    -0.146  0.9223 -0.3660  0.1244
              Bcc     0.0076     1.026     0.366     0.342 -0.3398 -0.6142  0.7122
 
              Baa    -0.0493    -6.612    -2.359    -2.206 -0.1457  0.6919  0.7071
     5 C(13)  Bbb     0.0207     2.784     0.993     0.929  0.1362 -0.6939  0.7071
              Bcc     0.0285     3.829     1.366     1.277  0.9799  0.1993  0.0068
 
              Baa    -0.0879   -11.791    -4.207    -3.933  0.0067  0.7259 -0.6878
     6 C(13)  Bbb    -0.0798   -10.705    -3.820    -3.571  0.9832  0.1206  0.1369
              Bcc     0.1676    22.496     8.027     7.504 -0.1823  0.6771  0.7129
 
              Baa    -0.0019    -0.256    -0.091    -0.085  0.0318  0.8931 -0.4486
     7 C(13)  Bbb     0.0005     0.061     0.022     0.020  0.7667  0.2662  0.5843
              Bcc     0.0015     0.195     0.070     0.065 -0.6413  0.3626  0.6763
 
              Baa    -0.0033    -0.436    -0.156    -0.145 -0.1513  0.7089 -0.6889
     8 C(13)  Bbb     0.0007     0.092     0.033     0.031  0.7387  0.5442  0.3977
              Bcc     0.0026     0.344     0.123     0.115  0.6568 -0.4487 -0.6060
 
              Baa    -0.0004    -0.236    -0.084    -0.079  0.0797  0.9851  0.1521
     9 H(1)   Bbb    -0.0003    -0.142    -0.051    -0.047  0.0303 -0.1550  0.9875
              Bcc     0.0007     0.378     0.135     0.126  0.9964 -0.0741 -0.0422
 
              Baa    -0.0696    -9.334    -3.331    -3.113  0.8042  0.5047 -0.3138
    10 C(13)  Bbb    -0.0637    -8.542    -3.048    -2.849  0.5015 -0.2930  0.8140
              Bcc     0.1332    17.875     6.378     5.963 -0.3189  0.8120  0.4887
 
              Baa    -0.0478    -6.420    -2.291    -2.141 -0.2800  0.6599  0.6973
    11 C(13)  Bbb     0.0207     2.776     0.991     0.926  0.1616  0.7484 -0.6433
              Bcc     0.0272     3.644     1.300     1.215  0.9463  0.0675  0.3161
 
              Baa    -0.0619    -8.306    -2.964    -2.770  0.7425 -0.2951  0.6014
    12 C(13)  Bbb    -0.0560    -7.519    -2.683    -2.508  0.6641  0.4416 -0.6033
              Bcc     0.1179    15.825     5.647     5.279 -0.0875  0.8473  0.5238
 
              Baa    -0.0236    -3.169    -1.131    -1.057 -0.1450  0.9866  0.0746
    13 C(13)  Bbb     0.0110     1.471     0.525     0.491  0.8344  0.1625 -0.5266
              Bcc     0.0127     1.698     0.606     0.566  0.5317  0.0141  0.8468
 
              Baa    -0.0053    -2.853    -1.018    -0.952  0.5130  0.4551  0.7278
    14 H(1)   Bbb    -0.0034    -1.789    -0.638    -0.597  0.8007 -0.5593 -0.2147
              Bcc     0.0087     4.643     1.657     1.549  0.3094  0.6929 -0.6513
 
              Baa    -0.0030    -1.581    -0.564    -0.527 -0.1531  0.7789  0.6082
    15 H(1)   Bbb     0.0004     0.196     0.070     0.065  0.6483  0.5437 -0.5330
              Bcc     0.0026     1.385     0.494     0.462  0.7458 -0.3127  0.5882
 
              Baa    -0.0048    -2.585    -0.922    -0.862  0.7041 -0.4367 -0.5599
    16 H(1)   Bbb    -0.0031    -1.636    -0.584    -0.546  0.6822  0.6348  0.3628
              Bcc     0.0079     4.221     1.506     1.408  0.1970 -0.6374  0.7449
 
              Baa    -0.0037    -0.493    -0.176    -0.164  0.6390  0.5118  0.5742
    17 C(13)  Bbb    -0.0025    -0.342    -0.122    -0.114  0.7688 -0.4478 -0.4565
              Bcc     0.0062     0.835     0.298     0.278  0.0235  0.7332 -0.6796
 
              Baa    -0.0028    -1.495    -0.533    -0.499  0.1642 -0.6273  0.7612
    18 H(1)   Bbb    -0.0005    -0.272    -0.097    -0.091  0.7132  0.6086  0.3477
              Bcc     0.0033     1.766     0.630     0.589  0.6815 -0.4858 -0.5474
 
              Baa    -0.0030    -1.578    -0.563    -0.526 -0.2529  0.7749  0.5792
    19 H(1)   Bbb     0.0005     0.255     0.091     0.085  0.5303 -0.3897  0.7529
              Bcc     0.0025     1.323     0.472     0.441  0.8092  0.4976 -0.3124
 
              Baa    -0.0006    -0.345    -0.123    -0.115  0.2273 -0.5470  0.8057
    20 H(1)   Bbb    -0.0001    -0.076    -0.027    -0.025  0.6417  0.7064  0.2986
              Bcc     0.0008     0.421     0.150     0.140  0.7325 -0.4491 -0.5116
 
              Baa    -0.0004    -0.220    -0.079    -0.073 -0.0719  0.7420 -0.6665
    21 H(1)   Bbb    -0.0001    -0.054    -0.019    -0.018  0.3657  0.6413  0.6745
              Bcc     0.0005     0.274     0.098     0.092  0.9279 -0.1952 -0.3175
 
              Baa    -0.0006    -0.294    -0.105    -0.098  0.7389  0.4822  0.4707
    22 H(1)   Bbb    -0.0003    -0.158    -0.056    -0.053 -0.1077  0.7740 -0.6239
              Bcc     0.0008     0.452     0.161     0.151  0.6652 -0.4103 -0.6239
 
              Baa    -0.0145    -0.594    -0.212    -0.198  0.3664  0.9091  0.1983
    23 S(33)  Bbb    -0.0111    -0.457    -0.163    -0.152  0.9174 -0.3173 -0.2403
              Bcc     0.0256     1.051     0.375     0.351  0.1556 -0.2700  0.9502
 
              Baa    -0.5048   -19.468    -6.947    -6.494  0.9320  0.3428  0.1181
    24 N(14)  Bbb    -0.5043   -19.450    -6.940    -6.488 -0.3095  0.9219 -0.2330
              Bcc     1.0091    38.917    13.887    12.981 -0.1888  0.1806  0.9653
 
              Baa    -0.0241    -3.235    -1.154    -1.079  0.8078  0.5837 -0.0818
    25 C(13)  Bbb     0.0098     1.320     0.471     0.440 -0.5685  0.7349 -0.3698
              Bcc     0.0143     1.915     0.683     0.639 -0.1558  0.3452  0.9255
 
              Baa    -0.0528    -7.090    -2.530    -2.365 -0.1663  0.9158  0.3655
    26 C(13)  Bbb    -0.0452    -6.060    -2.162    -2.021  0.4791 -0.2490  0.8417
              Bcc     0.0980    13.149     4.692     4.386  0.8618  0.3151 -0.3974
 
              Baa    -0.0537    -7.207    -2.571    -2.404  0.6432 -0.1979  0.7397
    27 C(13)  Bbb    -0.0464    -6.225    -2.221    -2.076 -0.3186  0.8092  0.4936
              Bcc     0.1001    13.431     4.793     4.480  0.6962  0.5532 -0.4574
 
              Baa    -0.0362    -4.853    -1.732    -1.619 -0.6244 -0.3178  0.7136
    28 C(13)  Bbb     0.0156     2.093     0.747     0.698  0.4375  0.6145  0.6565
              Bcc     0.0206     2.760     0.985     0.921 -0.6471  0.7221 -0.2446
 
              Baa    -0.0371    -4.979    -1.777    -1.661  0.6994  0.2228 -0.6792
    29 C(13)  Bbb     0.0161     2.164     0.772     0.722  0.4883  0.5450  0.6816
              Bcc     0.0210     2.816     1.005     0.939 -0.5220  0.8083 -0.2723
 
              Baa    -0.0626    -8.396    -2.996    -2.801  0.4876  0.5852  0.6479
    30 C(13)  Bbb    -0.0564    -7.569    -2.701    -2.525 -0.5831  0.7706 -0.2572
              Bcc     0.1190    15.965     5.697     5.325 -0.6499 -0.2524  0.7169
 
              Baa    -0.0044    -2.358    -0.841    -0.787 -0.4588 -0.4546  0.7635
    31 H(1)   Bbb    -0.0022    -1.162    -0.414    -0.387  0.7958 -0.5924  0.1254
              Bcc     0.0066     3.520     1.256     1.174  0.3953  0.6651  0.6335
 
              Baa    -0.0043    -2.273    -0.811    -0.758  0.7739  0.0864 -0.6273
    32 H(1)   Bbb    -0.0022    -1.177    -0.420    -0.393 -0.3337  0.8976 -0.2880
              Bcc     0.0065     3.450     1.231     1.151  0.5382  0.4322  0.7235
 
              Baa    -0.0023    -1.202    -0.429    -0.401  0.7209  0.3490 -0.5987
    33 H(1)   Bbb     0.0005     0.288     0.103     0.096  0.5067  0.3240  0.7989
              Bcc     0.0017     0.914     0.326     0.305 -0.4728  0.8793 -0.0568
 
              Baa    -0.0023    -1.213    -0.433    -0.405  0.7216  0.3564 -0.5935
    34 H(1)   Bbb     0.0004     0.230     0.082     0.077  0.2187  0.6960  0.6839
              Bcc     0.0018     0.983     0.351     0.328  0.6569 -0.6233  0.4243
 
              Baa    -0.0080    -4.271    -1.524    -1.425  0.4650  0.5698  0.6776
    35 H(1)   Bbb    -0.0009    -0.492    -0.175    -0.164 -0.6686 -0.2758  0.6906
              Bcc     0.0089     4.762     1.699     1.589 -0.5804  0.7741 -0.2527
 
              Baa    -0.0241    -3.230    -1.153    -1.077  0.8579 -0.3468  0.3790
    36 C(13)  Bbb     0.0101     1.361     0.486     0.454  0.3394  0.9365  0.0887
              Bcc     0.0139     1.870     0.667     0.624 -0.3857  0.0526  0.9211
 
              Baa    -0.0528    -7.086    -2.528    -2.363 -0.1814  0.9185  0.3514
    37 C(13)  Bbb    -0.0451    -6.055    -2.161    -2.020  0.6549  0.3793 -0.6536
              Bcc     0.0979    13.140     4.689     4.383  0.7336 -0.1116  0.6704
 
              Baa    -0.0538    -7.225    -2.578    -2.410  0.7834  0.3660 -0.5024
    38 C(13)  Bbb    -0.0466    -6.247    -2.229    -2.084 -0.0622  0.8503  0.5225
              Bcc     0.1004    13.472     4.807     4.494  0.6184 -0.3781  0.6889
 
              Baa    -0.0361    -4.844    -1.728    -1.616  0.4104 -0.1807  0.8938
    39 C(13)  Bbb     0.0156     2.088     0.745     0.696  0.7622 -0.4702 -0.4450
              Bcc     0.0205     2.756     0.984     0.919  0.5006  0.8639 -0.0553
 
              Baa    -0.0373    -5.005    -1.786    -1.669  0.4686 -0.0728  0.8804
    40 C(13)  Bbb     0.0162     2.180     0.778     0.727  0.7961 -0.3971 -0.4566
              Bcc     0.0211     2.825     1.008     0.942  0.3829  0.9149 -0.1281
 
              Baa    -0.0625    -8.388    -2.993    -2.798  0.7989 -0.4281 -0.4224
    41 C(13)  Bbb    -0.0563    -7.560    -2.697    -2.522  0.4326  0.8970 -0.0908
              Bcc     0.1188    15.947     5.690     5.319  0.4178 -0.1102  0.9018
 
              Baa    -0.0044    -2.359    -0.842    -0.787  0.2722 -0.3623  0.8915
    42 H(1)   Bbb    -0.0022    -1.152    -0.411    -0.384  0.6328  0.7653  0.1178
              Bcc     0.0066     3.511     1.253     1.171  0.7249 -0.5320 -0.4375
 
              Baa    -0.0042    -2.228    -0.795    -0.743  0.5208  0.0629  0.8513
    43 H(1)   Bbb    -0.0023    -1.210    -0.432    -0.404  0.1961  0.9618 -0.1910
              Bcc     0.0064     3.439     1.227     1.147  0.8308 -0.2664 -0.4886
 
              Baa    -0.0023    -1.203    -0.429    -0.401  0.5453 -0.1840  0.8178
    44 H(1)   Bbb     0.0005     0.292     0.104     0.097  0.8033 -0.1642 -0.5725
              Bcc     0.0017     0.911     0.325     0.304  0.2396  0.9691  0.0583
 
              Baa    -0.0023    -1.212    -0.432    -0.404  0.5460 -0.1921  0.8154
    45 H(1)   Bbb     0.0004     0.214     0.076     0.071 -0.5953  0.5960  0.5390
              Bcc     0.0019     0.998     0.356     0.333  0.5895  0.7797 -0.2110
 
              Baa    -0.0080    -4.267    -1.523    -1.423  0.7846 -0.4171 -0.4587
    46 H(1)   Bbb    -0.0009    -0.491    -0.175    -0.164  0.4484 -0.1292  0.8845
              Bcc     0.0089     4.758     1.698     1.587  0.4282  0.8996 -0.0857
 

 ---------------------------------------------------------------------------------

 No NMR shielding tensors so no spin-rotation constants.
 Leave Link  601 at Tue Jan 19 06:03:05 2021, MaxMem=  4026531840 cpu:              12.1 elap:               2.5
 (Enter /opt/ohpc/pub/libs/gaussian/g16-A.03/sandybridge/g16/l9999.exe)

 Test job not archived.
 1\1\GINC-CASCADEB058\SP\ULC-wHPBE\TZVP\C24H19N1S2(1+,2)\RDU230\19-Jan-
 2021\0\\#P LC-wHPBE/TZVP iop(3/107=0170800000, 3/108=0170800000) scf=(
 conver=6,fermi,ndamp=35,noincfock,novaracc,vshift=500,xqc)\\H19 C24 S2
  N1\\1,2\C,0,-3.352046,1.022081,0.90149\C,0,-4.015603,0.124147,0.07783
 3\S,0,-3.193622,-0.833868,-1.176213\C,0,-5.398593,-0.028228,0.207342\C
 ,0,-0.749106,0.373785,-1.531691\C,0,-1.475477,-0.56699,-0.815552\C,0,-
 4.041516,1.761821,1.844012\C,0,-6.080951,0.720801,1.156415\H,0,-7.4759
 44,-0.835079,-0.458792\C,0,0.601771,0.54717,-1.299188\C,0,-0.823428,-1
 .336346,0.139234\C,0,0.521569,-1.15492,0.389409\C,0,1.255724,-0.212476
 ,-0.331046\H,0,1.160253,1.275483,-1.876291\H,0,-1.383265,-2.076857,0.7
 00814\H,0,1.015474,-1.752114,1.147605\C,0,-5.411167,1.613701,1.970885\
 H,0,-2.279577,1.141824,0.800598\H,0,-1.248138,0.967582,-2.290346\H,0,-
 3.503227,2.458074,2.478369\H,0,-7.154267,0.598627,1.263844\H,0,-5.9624
 34,2.189124,2.706912\S,0,-6.238224,-1.192989,-0.835805\N,0,2.627173,-0
 .037586,-0.087724\C,0,3.438312,-1.140752,0.276409\C,0,4.374889,-1.0129
 28,1.295896\C,0,3.317625,-2.35655,-0.387733\C,0,5.1794,-2.084309,1.640
 01\C,0,4.112866,-3.428755,-0.025756\C,0,5.049979,-3.298472,0.986151\H,
 0,4.470709,-0.064848,1.814448\H,0,2.593785,-2.456724,-1.189607\H,0,5.9
 0745,-1.970366,2.436839\H,0,4.006805,-4.37257,-0.551042\H,0,5.67733,-4
 .139106,1.26285\C,0,3.224517,1.239724,-0.221989\C,0,4.446224,1.376745,
 -0.87125\C,0,2.604731,2.367846,0.304633\C,0,5.03746,2.622109,-0.986244
 \C,0,3.193018,3.612223,0.169883\C,0,4.413292,3.746533,-0.472133\H,0,4.
 931907,0.498005,-1.282066\H,0,1.656156,2.262505,0.820378\H,0,5.992055,
 2.71427,-1.494403\H,0,2.697309,4.484427,0.584059\H,0,4.876004,4.72281,
 -0.569917\\Version=EM64L-G16RevA.03\State=2-A\HF=-1775.9433471\S2=0.76
 6177\S2-1=0.\S2A=0.750236\RMSD=2.409e-09\Dipole=4.0098489,0.4618801,0.
 5158254\Quadrupole=37.5403714,-7.6240296,-29.9163417,-4.0863538,-3.783
 5454,-1.1000146\PG=C01 [X(C24H19N1S2)]\\@


 I WISH TO HAVE NO CONNECTION WITH ANY SHIP THAT DOES NOT SAIL FAST,
 FOR I INTEND TO GO IN HARM'S WAY.
     -- JOHN PAUL JONES, USN 1747-1792
 Job cpu time:       0 days 12 hours 36 minutes  2.5 seconds.
 Elapsed time:       0 days  1 hours 34 minutes 51.2 seconds.
 File lengths (MBytes):  RWF=    244 Int=      0 D2E=      0 Chk=     36 Scr=      8
 Normal termination of Gaussian 16 at Tue Jan 19 06:03:05 2021.
