 Entering Gaussian System, Link 0=g16
 Input=mol_ta_pa_half_tune_n5.gjf
 Output=mol_ta_pa_half_tune_n5.log
 Initial command:
 /opt/ohpc/pub/libs/gaussian/g16-A.03/sandybridge/g16/l1.exe "/mnt/gpfs2_4m/scratch/rdu230/ondemand/projects/init_structures/wtuning/mol_ta_pa_half/tuning_mol_ta_pa_half_ocycle0/Gau-351577.inp" -scrdir="/mnt/gpfs2_4m/scratch/rdu230/ondemand/projects/init_structures/wtuning/mol_ta_pa_half/tuning_mol_ta_pa_half_ocycle0/"
 Entering Link 1 = /opt/ohpc/pub/libs/gaussian/g16-A.03/sandybridge/g16/l1.exe PID=    351578.
  
 Copyright (c) 1988,1990,1992,1993,1995,1998,2003,2009,2016,
            Gaussian, Inc.  All Rights Reserved.
  
 This is part of the Gaussian(R) 16 program.  It is based on
 the Gaussian(R) 09 system (copyright 2009, Gaussian, Inc.),
 the Gaussian(R) 03 system (copyright 2003, Gaussian, Inc.),
 the Gaussian(R) 98 system (copyright 1998, Gaussian, Inc.),
 the Gaussian(R) 94 system (copyright 1995, Gaussian, Inc.),
 the Gaussian 92(TM) system (copyright 1992, Gaussian, Inc.),
 the Gaussian 90(TM) system (copyright 1990, Gaussian, Inc.),
 the Gaussian 88(TM) system (copyright 1988, Gaussian, Inc.),
 the Gaussian 86(TM) system (copyright 1986, Carnegie Mellon
 University), and the Gaussian 82(TM) system (copyright 1983,
 Carnegie Mellon University). Gaussian is a federally registered
 trademark of Gaussian, Inc.
  
 This software contains proprietary and confidential information,
 including trade secrets, belonging to Gaussian, Inc.
  
 This software is provided under written license and may be
 used, copied, transmitted, or stored only in accord with that
 written license.
  
 The following legend is applicable only to US Government
 contracts under FAR:
  
                    RESTRICTED RIGHTS LEGEND
  
 Use, reproduction and disclosure by the US Government is
 subject to restrictions as set forth in subparagraphs (a)
 and (c) of the Commercial Computer Software - Restricted
 Rights clause in FAR 52.227-19.
  
 Gaussian, Inc.
 340 Quinnipiac St., Bldg. 40, Wallingford CT 06492
  
  
 ---------------------------------------------------------------
 Warning -- This program may not be used in any manner that
 competes with the business of Gaussian, Inc. or will provide
 assistance to any competitor of Gaussian, Inc.  The licensee
 of this program is prohibited from giving any competitor of
 Gaussian, Inc. access to this program.  By using this program,
 the user acknowledges that Gaussian, Inc. is engaged in the
 business of creating and licensing software in the field of
 computational chemistry and represents and warrants to the
 licensee that it is not a competitor of Gaussian, Inc. and that
 it will not use this program in any manner prohibited above.
 ---------------------------------------------------------------
  

 Cite this work as:
 Gaussian 16, Revision A.03,
 M. J. Frisch, G. W. Trucks, H. B. Schlegel, G. E. Scuseria, 
 M. A. Robb, J. R. Cheeseman, G. Scalmani, V. Barone, 
 G. A. Petersson, H. Nakatsuji, X. Li, M. Caricato, A. V. Marenich, 
 J. Bloino, B. G. Janesko, R. Gomperts, B. Mennucci, H. P. Hratchian, 
 J. V. Ortiz, A. F. Izmaylov, J. L. Sonnenberg, D. Williams-Young, 
 F. Ding, F. Lipparini, F. Egidi, J. Goings, B. Peng, A. Petrone, 
 T. Henderson, D. Ranasinghe, V. G. Zakrzewski, J. Gao, N. Rega, 
 G. Zheng, W. Liang, M. Hada, M. Ehara, K. Toyota, R. Fukuda, 
 J. Hasegawa, M. Ishida, T. Nakajima, Y. Honda, O. Kitao, H. Nakai, 
 T. Vreven, K. Throssell, J. A. Montgomery, Jr., J. E. Peralta, 
 F. Ogliaro, M. J. Bearpark, J. J. Heyd, E. N. Brothers, K. N. Kudin, 
 V. N. Staroverov, T. A. Keith, R. Kobayashi, J. Normand, 
 K. Raghavachari, A. P. Rendell, J. C. Burant, S. S. Iyengar, 
 J. Tomasi, M. Cossi, J. M. Millam, M. Klene, C. Adamo, R. Cammi, 
 J. W. Ochterski, R. L. Martin, K. Morokuma, O. Farkas, 
 J. B. Foresman, and D. J. Fox, Gaussian, Inc., Wallingford CT, 2016.
 
 ******************************************
 Gaussian 16:  EM64L-G16RevA.03 25-Dec-2016
                18-Jan-2021 
 ******************************************
 %mem=30GB
 %nproc=8
 Will use up to    8 processors via shared memory.
 ----------------------------------------------------------------------
 #P LC-wHPBE/TZVP iop(3/107=0198600000, 3/108=0198600000) scf=(conver=6
 ,fermi,ndamp=35,noincfock,novaracc,vshift=500,xqc)
 ----------------------------------------------------------------------
 1/38=1,172=1/1;
 2/12=2,17=6,18=5,40=1/2;
 3/5=19,7=101,11=2,25=1,30=1,74=-71,107=198600000,108=198600000/1,2,3;
 4//1;
 5/5=100002,6=6,8=3,10=500,13=1,18=-1,22=13,38=1,93=35/2,8;
 6/7=2,8=2,9=2,10=2,28=1/1;
 99/5=1,9=1/99;
 Leave Link    1 at Mon Jan 18 23:53:00 2021, MaxMem=  4026531840 cpu:               2.5 elap:               0.4
 (Enter /opt/ohpc/pub/libs/gaussian/g16-A.03/sandybridge/g16/l101.exe)
 -------------
 H19 C24 S2 N1
 -------------
 Symbolic Z-matrix:
 Charge =  0 Multiplicity = 1
 C                    -3.35205   1.02208   0.90149 
 C                    -4.0156    0.12415   0.07783 
 S                    -3.19362  -0.83387  -1.17621 
 C                    -5.39859  -0.02823   0.20734 
 C                    -0.74911   0.37379  -1.53169 
 C                    -1.47548  -0.56699  -0.81555 
 C                    -4.04152   1.76182   1.84401 
 C                    -6.08095   0.7208    1.15641 
 H                    -7.47594  -0.83508  -0.45879 
 C                     0.60177   0.54717  -1.29919 
 C                    -0.82343  -1.33635   0.13923 
 C                     0.52157  -1.15492   0.38941 
 C                     1.25572  -0.21248  -0.33105 
 H                     1.16025   1.27548  -1.87629 
 H                    -1.38327  -2.07686   0.70081 
 H                     1.01547  -1.75211   1.1476 
 C                    -5.41117   1.6137    1.97089 
 H                    -2.27958   1.14182   0.8006 
 H                    -1.24814   0.96758  -2.29035 
 H                    -3.50323   2.45807   2.47837 
 H                    -7.15427   0.59863   1.26384 
 H                    -5.96243   2.18912   2.70691 
 S                    -6.23822  -1.19299  -0.83581 
 N                     2.62717  -0.03759  -0.08772 
 C                     3.43831  -1.14075   0.27641 
 C                     4.37489  -1.01293   1.2959 
 C                     3.31763  -2.35655  -0.38773 
 C                     5.1794   -2.08431   1.64001 
 C                     4.11287  -3.42876  -0.02576 
 C                     5.04998  -3.29847   0.98615 
 H                     4.47071  -0.06485   1.81445 
 H                     2.59379  -2.45672  -1.18961 
 H                     5.90745  -1.97037   2.43684 
 H                     4.0068   -4.37257  -0.55104 
 H                     5.67733  -4.13911   1.26285 
 C                     3.22452   1.23972  -0.22199 
 C                     4.44622   1.37675  -0.87125 
 C                     2.60473   2.36785   0.30463 
 C                     5.03746   2.62211  -0.98624 
 C                     3.19302   3.61222   0.16988 
 C                     4.41329   3.74653  -0.47213 
 H                     4.93191   0.49801  -1.28207 
 H                     1.65616   2.2625    0.82038 
 H                     5.99206   2.71427  -1.4944 
 H                     2.69731   4.48443   0.58406 
 H                     4.876     4.72281  -0.56992 
 
 ITRead=  0  0  0  0  0  0  0  0  0  0  0  0  0  0  0  0  0  0  0  0
 ITRead=  0  0  0  0  0  0  0  0  0  0  0  0  0  0  0  0  0  0  0  0
 ITRead=  0  0  0  0  0  0
 MicOpt= -1 -1 -1 -1 -1 -1 -1 -1 -1 -1 -1 -1 -1 -1 -1 -1 -1 -1 -1 -1
 MicOpt= -1 -1 -1 -1 -1 -1 -1 -1 -1 -1 -1 -1 -1 -1 -1 -1 -1 -1 -1 -1
 MicOpt= -1 -1 -1 -1 -1 -1
 NAtoms=     46 NQM=       46 NQMF=       0 NMMI=      0 NMMIF=      0
                NMic=       0 NMicF=      0.
                    Isotopes and Nuclear Properties:
 (Nuclear quadrupole moments (NQMom) in fm**2, nuclear magnetic moments (NMagM)
  in nuclear magnetons)

  Atom         1           2           3           4           5           6           7           8           9          10
 IAtWgt=          12          12          32          12          12          12          12          12           1          12
 AtmWgt=  12.0000000  12.0000000  31.9720718  12.0000000  12.0000000  12.0000000  12.0000000  12.0000000   1.0078250  12.0000000
 NucSpn=           0           0           0           0           0           0           0           0           1           0
 AtZEff=  -0.0000000  -0.0000000  -0.0000000  -0.0000000  -0.0000000  -0.0000000  -0.0000000  -0.0000000  -0.0000000  -0.0000000
 NQMom=    0.0000000   0.0000000   0.0000000   0.0000000   0.0000000   0.0000000   0.0000000   0.0000000   0.0000000   0.0000000
 NMagM=    0.0000000   0.0000000   0.0000000   0.0000000   0.0000000   0.0000000   0.0000000   0.0000000   2.7928460   0.0000000
 AtZNuc=   6.0000000   6.0000000  16.0000000   6.0000000   6.0000000   6.0000000   6.0000000   6.0000000   1.0000000   6.0000000

  Atom        11          12          13          14          15          16          17          18          19          20
 IAtWgt=          12          12          12           1           1           1          12           1           1           1
 AtmWgt=  12.0000000  12.0000000  12.0000000   1.0078250   1.0078250   1.0078250  12.0000000   1.0078250   1.0078250   1.0078250
 NucSpn=           0           0           0           1           1           1           0           1           1           1
 AtZEff=  -0.0000000  -0.0000000  -0.0000000  -0.0000000  -0.0000000  -0.0000000  -0.0000000  -0.0000000  -0.0000000  -0.0000000
 NQMom=    0.0000000   0.0000000   0.0000000   0.0000000   0.0000000   0.0000000   0.0000000   0.0000000   0.0000000   0.0000000
 NMagM=    0.0000000   0.0000000   0.0000000   2.7928460   2.7928460   2.7928460   0.0000000   2.7928460   2.7928460   2.7928460
 AtZNuc=   6.0000000   6.0000000   6.0000000   1.0000000   1.0000000   1.0000000   6.0000000   1.0000000   1.0000000   1.0000000

  Atom        21          22          23          24          25          26          27          28          29          30
 IAtWgt=           1           1          32          14          12          12          12          12          12          12
 AtmWgt=   1.0078250   1.0078250  31.9720718  14.0030740  12.0000000  12.0000000  12.0000000  12.0000000  12.0000000  12.0000000
 NucSpn=           1           1           0           2           0           0           0           0           0           0
 AtZEff=  -0.0000000  -0.0000000  -0.0000000  -0.0000000  -0.0000000  -0.0000000  -0.0000000  -0.0000000  -0.0000000  -0.0000000
 NQMom=    0.0000000   0.0000000   0.0000000   2.0440000   0.0000000   0.0000000   0.0000000   0.0000000   0.0000000   0.0000000
 NMagM=    2.7928460   2.7928460   0.0000000   0.4037610   0.0000000   0.0000000   0.0000000   0.0000000   0.0000000   0.0000000
 AtZNuc=   1.0000000   1.0000000  16.0000000   7.0000000   6.0000000   6.0000000   6.0000000   6.0000000   6.0000000   6.0000000

  Atom        31          32          33          34          35          36          37          38          39          40
 IAtWgt=           1           1           1           1           1          12          12          12          12          12
 AtmWgt=   1.0078250   1.0078250   1.0078250   1.0078250   1.0078250  12.0000000  12.0000000  12.0000000  12.0000000  12.0000000
 NucSpn=           1           1           1           1           1           0           0           0           0           0
 AtZEff=  -0.0000000  -0.0000000  -0.0000000  -0.0000000  -0.0000000  -0.0000000  -0.0000000  -0.0000000  -0.0000000  -0.0000000
 NQMom=    0.0000000   0.0000000   0.0000000   0.0000000   0.0000000   0.0000000   0.0000000   0.0000000   0.0000000   0.0000000
 NMagM=    2.7928460   2.7928460   2.7928460   2.7928460   2.7928460   0.0000000   0.0000000   0.0000000   0.0000000   0.0000000
 AtZNuc=   1.0000000   1.0000000   1.0000000   1.0000000   1.0000000   6.0000000   6.0000000   6.0000000   6.0000000   6.0000000

  Atom        41          42          43          44          45          46
 IAtWgt=          12           1           1           1           1           1
 AtmWgt=  12.0000000   1.0078250   1.0078250   1.0078250   1.0078250   1.0078250
 NucSpn=           0           1           1           1           1           1
 AtZEff=  -0.0000000  -0.0000000  -0.0000000  -0.0000000  -0.0000000  -0.0000000
 NQMom=    0.0000000   0.0000000   0.0000000   0.0000000   0.0000000   0.0000000
 NMagM=    0.0000000   2.7928460   2.7928460   2.7928460   2.7928460   2.7928460
 AtZNuc=   6.0000000   1.0000000   1.0000000   1.0000000   1.0000000   1.0000000
 Leave Link  101 at Mon Jan 18 23:53:00 2021, MaxMem=  4026531840 cpu:               0.6 elap:               0.1
 (Enter /opt/ohpc/pub/libs/gaussian/g16-A.03/sandybridge/g16/l202.exe)
                          Input orientation:                          
 ---------------------------------------------------------------------
 Center     Atomic      Atomic             Coordinates (Angstroms)
 Number     Number       Type             X           Y           Z
 ---------------------------------------------------------------------
      1          6           0       -3.352046    1.022081    0.901490
      2          6           0       -4.015603    0.124147    0.077833
      3         16           0       -3.193622   -0.833868   -1.176213
      4          6           0       -5.398593   -0.028228    0.207342
      5          6           0       -0.749106    0.373785   -1.531691
      6          6           0       -1.475477   -0.566990   -0.815552
      7          6           0       -4.041516    1.761821    1.844012
      8          6           0       -6.080951    0.720801    1.156415
      9          1           0       -7.475944   -0.835079   -0.458792
     10          6           0        0.601771    0.547170   -1.299188
     11          6           0       -0.823428   -1.336346    0.139234
     12          6           0        0.521569   -1.154920    0.389409
     13          6           0        1.255724   -0.212476   -0.331046
     14          1           0        1.160253    1.275483   -1.876291
     15          1           0       -1.383265   -2.076857    0.700814
     16          1           0        1.015474   -1.752114    1.147605
     17          6           0       -5.411167    1.613701    1.970885
     18          1           0       -2.279577    1.141824    0.800598
     19          1           0       -1.248138    0.967582   -2.290346
     20          1           0       -3.503227    2.458074    2.478369
     21          1           0       -7.154267    0.598627    1.263844
     22          1           0       -5.962434    2.189124    2.706912
     23         16           0       -6.238224   -1.192989   -0.835805
     24          7           0        2.627173   -0.037586   -0.087724
     25          6           0        3.438312   -1.140752    0.276409
     26          6           0        4.374889   -1.012928    1.295896
     27          6           0        3.317625   -2.356550   -0.387733
     28          6           0        5.179400   -2.084309    1.640010
     29          6           0        4.112866   -3.428755   -0.025756
     30          6           0        5.049979   -3.298472    0.986151
     31          1           0        4.470709   -0.064848    1.814448
     32          1           0        2.593785   -2.456724   -1.189607
     33          1           0        5.907450   -1.970366    2.436839
     34          1           0        4.006805   -4.372570   -0.551042
     35          1           0        5.677330   -4.139106    1.262850
     36          6           0        3.224517    1.239724   -0.221989
     37          6           0        4.446224    1.376745   -0.871250
     38          6           0        2.604731    2.367846    0.304633
     39          6           0        5.037460    2.622109   -0.986244
     40          6           0        3.193018    3.612223    0.169883
     41          6           0        4.413292    3.746533   -0.472133
     42          1           0        4.931907    0.498005   -1.282066
     43          1           0        1.656156    2.262505    0.820378
     44          1           0        5.992055    2.714270   -1.494403
     45          1           0        2.697309    4.484427    0.584059
     46          1           0        4.876004    4.722810   -0.569917
 ---------------------------------------------------------------------
                    Distance matrix (angstroms):
                    1          2          3          4          5
     1  C    0.000000
     2  C    1.387445   0.000000
     3  S    2.790429   1.779347   0.000000
     4  C    2.402779   1.397373   2.724918   0.000000
     5  C    3.621596   3.650053   2.749627   4.980319   0.000000
     6  C    2.999148   2.779937   1.775760   4.089916   1.387634
     7  C    1.382365   2.408742   4.071644   2.779320   4.915484
     8  C    2.757296   2.405202   4.024279   1.388307   5.981213
     9  H    4.722917   3.630708   4.342001   2.325969   6.918296
    10  C    4.549856   4.836867   4.040717   6.213299   1.381662
    11  C    3.540780   3.510953   2.756938   4.758986   2.392083
    12  C    4.472857   4.724301   4.044365   6.029171   2.764449
    13  C    4.926948   5.297866   4.571336   6.678603   2.409272
    14  H    5.304821   5.650988   4.888323   7.004259   2.139500
    15  H    3.676926   3.487367   2.888883   4.534672   3.375186
    16  H    5.179958   5.475080   4.894874   6.707916   3.848612
    17  C    2.394494   2.783885   4.562053   2.409600   5.961564
    18  H    1.083839   2.138187   2.940513   3.383672   2.893406
    19  H    3.823247   3.738785   2.876008   4.945337   1.084982
    20  H    2.138102   3.387081   4.928357   3.864152   5.292450
    21  H    3.842850   3.388652   4.867507   2.142787   6.992257
    22  H    3.381666   3.868635   5.646544   3.388571   6.959885
    23  S    4.031718   2.740370   3.084550   1.774769   5.750605
    24  N    6.152438   6.646807   5.974992   8.031194   3.695068
    25  C    7.153848   7.563085   6.796090   8.906928   4.805988
    26  C    8.000146   8.554354   7.964028   9.883093   6.014445
    27  C    7.586946   7.755440   6.733246   9.041441   5.030077
    28  C    9.109371   9.584662   8.922007  10.870784   7.158847
    29  C    8.740403   8.871632   7.838479  10.103750   6.353418
    30  C    9.448194   9.732633   8.871699  10.976051   7.311251
    31  H    7.950497   8.664239   8.263015   9.999363   6.215747
    32  H    7.199144   7.207726   6.010651   8.469189   4.393600
    33  H    9.851411  10.412438   9.857752  11.686281   8.096543
    34  H    9.239307   9.218187   8.047323  10.387972   6.790305
    35  H   10.406636  10.655165   9.775859  11.861260   8.335150
    36  C    6.675384   7.331694   6.811963   8.726400   4.272569
    37  C    8.005086   8.606525   7.959087  10.002886   5.332313
    38  C    6.136001   6.993886   6.787104   8.354869   4.312376
    39  C    8.746853   9.451456   8.929198  10.833288   6.231919
    40  C    7.076860   8.008706   7.897396   9.331134   5.378027
    41  C    8.343258   9.190779   8.907353  10.534875   6.256872
    42  H    8.582916   9.057982   8.234641  10.450574   5.687851
    43  H    5.160166   6.106783   6.090505   7.442631   3.858079
    44  H    9.793673  10.456284   9.852268  11.839092   7.136001
    45  H    6.977342   8.020692   8.129323   9.276292   5.766416
    46  H    9.141184  10.031349   9.816472  11.346534   7.175018
                    6          7          8          9         10
     6  C    0.000000
     7  C    4.368203   0.000000
     8  C    5.172760   2.390775   0.000000
     9  H    6.017039   4.882836   2.641148   0.000000
    10  C    2.406287   5.737177   7.121721   8.238104   0.000000
    11  C    1.388774   4.781318   5.736555   6.698125   2.765481
    12  C    2.405366   5.607583   6.906511   8.048724   2.398938
    13  C    2.796406   6.057184   7.543895   8.754769   1.393562
    14  H    3.386288   6.413703   7.870198   9.002648   1.084154
    15  H    2.141861   4.807146   5.486594   6.325143   3.850441
    16  H    3.385756   6.197247   7.514961   8.690549   3.382995
    17  C    5.292381   1.383467   1.381753   4.020343   6.927214
    18  H    2.485672   2.139518   3.841134   5.700565   3.614537
    19  H    2.140470   5.052395   5.941140   6.737191   2.140398
    20  H    4.910468   1.084865   3.377920   5.937529   5.896821
    21  H    6.158832   3.373253   1.085576   2.264170   8.168715
    22  H    6.335353   2.148746   2.138705   4.632299   7.863437
    23  S    4.803753   4.553883   2.766996   1.342456   7.073076
    24  N    4.200207   7.172230   8.829182  10.141334   2.431427
    25  C    5.066251   8.174970   9.739413  10.943260   3.657534
    26  C    6.235692   8.878938  10.599522  11.981352   4.837849
    27  C    5.134139   8.723452  10.009381  10.900507   4.078995
    28  C    7.253925   9.992979  11.614560  12.888882   6.043033
    29  C    6.327958   9.845408  11.069338  11.883400   5.455034
    30  C    7.299911  10.440200  11.835588  12.847370   6.308589
    31  H    6.521210   8.706065  10.601310  12.185376   5.003796
    32  H    4.502211   8.427703   9.531607  10.225618   3.606038
    33  H    8.188719  10.642490  12.353284  13.740043   6.960324
    34  H    6.678909  10.399159  11.428940  12.015651   6.029745
    35  H    8.260897  11.384843  12.723490  13.670745   7.367939
    36  C    5.070155   7.572066   9.421306  10.902328   2.918696
    37  C    6.232796   8.919790  10.740722  12.132616   3.956153
    38  C    5.149386   6.849055   8.881405  10.604789   3.146260
    39  C    7.253815   9.548730  11.481508  12.992907   4.906999
    40  C    6.342850   7.652789   9.764224  11.575858   4.274024
    41  C    7.307668   8.988180  11.042480  12.741479   5.044565
    42  H    6.512021   9.586027  11.281794  12.506385   4.330449
    43  H    4.526526   5.810506   7.896366   9.727618   2.923467
    44  H    8.184836  10.617190  12.520313  13.966294   5.812882
    45  H    6.699841   7.376437   9.568193  11.527348   4.841476
    46  H    8.269440   9.701375  11.791996  13.545224   6.019707
                   11         12         13         14         15
    11  C    0.000000
    12  C    1.380043   0.000000
    13  C    2.409797   1.395077   0.000000
    14  H    3.849543   3.383515   2.147305   0.000000
    15  H    1.084964   2.139003   3.391890   4.934485   0.000000
    16  H    2.138045   1.084179   2.148165   4.281501   2.461509
    17  C    5.753701   6.735257   7.285688   7.622251   5.608680
    18  H    2.949423   3.645618   3.951342   4.360737   3.342640
    19  H    3.375103   3.849411   3.391271   2.463045   4.270118
    20  H    5.201009   5.797971   6.137774   6.489193   5.312207
    21  H    6.714789   7.921996   8.598227   8.913463   6.385897
    22  H    6.740274   7.654786   8.191378   8.518988   6.572048
    23  S    5.503750   6.870036   7.574658   7.868509   5.168467
    24  N    3.693905   2.430979   1.403804   2.659883   4.567716
    25  C    4.268431   2.918965   2.448344   3.957507   4.929910
    26  C    5.335257   3.961055   3.607888   5.062952   5.885780
    27  C    4.297305   3.140986   2.975181   4.479031   4.833377
    28  C    6.232634   4.911533   4.773264   6.309209   6.629534
    29  C    5.363991   4.270843   4.312878   5.854251   5.706399
    30  C    6.250129   5.045534   5.065052   6.651662   6.554418
    31  H    5.696572   4.337591   3.867954   5.135870   6.289465
    32  H    3.833851   2.912398   2.750306   4.056589   4.419832
    33  H    7.140426   5.819333   5.691214   7.188498   7.495308
    34  H    5.746850   4.835762   4.992317   6.462170   5.990851
    35  H    7.167833   6.020809   6.124502   7.718547   7.377043
    36  C    4.811702   3.662520   2.448862   2.645596   5.751776
    37  C    6.012585   4.837510   3.605098   3.437727   6.955695
    38  C    5.049819   4.093486   2.980263   2.834820   5.984685
    39  C    7.161430   6.045795   4.771340   4.199800   8.133398
    40  C    6.373469   5.469048   4.316522   3.712050   7.320511
    41  C    7.323433   6.317595   5.065954   4.319723   8.299864
    42  H    6.205547   4.997707   3.863100   3.896530   7.102332
    43  H    4.423124   3.626543   2.758923   2.914130   5.299287
    44  H    8.094879   6.960287   5.687888   5.055913   9.064724
    45  H    6.817247   6.047642   4.997648   4.325874   7.727559
    46  H    8.348640   7.377609   6.125401   5.234260   9.328916
                   16         17         18         19         20
    16  H    0.000000
    17  C    7.301248   0.000000
    18  H    4.399165   3.376255   0.000000
    19  H    4.933578   5.992192   3.263152   0.000000
    20  H    6.317854   2.147264   2.458607   5.481572   0.000000
    21  H    8.502009   2.137447   4.926689   6.902953   4.273489
    22  H    8.164312   1.084778   4.277184   6.977775   2.484404
    23  S    7.540734   4.054509   4.878530   5.628918   5.638636
    24  N    2.657671   8.460469   5.124092   4.569457   7.098941
    25  C    2.646297   9.421865   6.178930   5.744225   8.123124
    26  C    3.442972  10.154885   7.012146   6.957153   8.689696
    27  C    2.832403   9.875109   6.706670   5.959529   8.827183
    28  C    4.206078  11.222516   8.169999   8.128652   9.834841
    29  C    3.712376  10.959934   7.901669   7.293594   9.946370
    30  C    4.323716  11.598910   8.571642   8.282568  10.417383
    31  H    3.902588  10.024643   6.931833   7.114805   8.389850
    32  H    2.906906   9.520311   6.376529   5.262877   8.647707
    33  H    5.063713  11.881656   8.910130   9.065333  10.400656
    34  H    4.324379  11.440881   8.470777   7.691348  10.594131
    35  H    5.238694  12.512029   9.561081   9.309435  11.370264
    36  C    3.963175   8.917600   5.599136   4.935261   7.351112
    37  C    5.063159  10.261678   6.934455   5.882772   8.693848
    38  C    4.495599   8.221907   5.060195   4.851727   6.483858
    39  C    6.313756  10.905746   7.676137   6.629245   9.218123
    40  C    5.871435   9.014971   6.037381   5.724572   7.176410
    41  C    6.663620  10.345883   7.293754   6.563555   8.546161
    42  H    5.128819  10.899800   7.533757   6.279338   9.441092
    43  H    4.078568   7.189692   4.092226   4.448410   5.422768
    44  H    7.189934  11.968832   8.726942   7.490316  10.296064
    45  H    6.483872   8.712734   5.999106   6.016391   6.792729
    46  H    7.731637  11.043012   8.118135   7.386930   9.199597
                   21         22         23         24         25
    21  H    0.000000
    22  H    2.456134   0.000000
    23  S    2.908186   4.905669   0.000000
    24  N    9.894851   9.303202   8.971613   0.000000
    25  C   10.779759  10.264962   9.740385   1.416868   0.000000
    26  C   11.641288  10.913494  10.826576   2.433148   1.390277
    27  C   11.005512  10.787005   9.636851   2.438098   1.390617
    28  C   12.627707  11.980859  11.716921   3.699730   2.404391
    29  C   12.034582  11.854944  10.620729   3.702857   2.404430
    30  C   12.814371  12.423686  11.626526   4.201973   2.785132
    31  H   11.656905  10.711086  11.089535   2.649080   2.142190
    32  H   10.506146  10.486927   8.928974   2.658475   2.143411
    33  H   13.363536  12.580479  12.602853   4.568290   3.384134
    34  H   12.352171  12.371573  10.730864   4.572760   3.384155
    35  H   13.678304  13.327262  12.452485   5.286774   3.869935
    36  C   10.504183   9.689164   9.789705   1.416463   2.441470
    37  C   11.820977  11.036456  10.989186   2.433761   2.944622
    38  C    9.964350   8.899393   9.600937   2.437325   3.606371
    39  C   12.561671  11.611397  11.904564   3.700108   4.279099
    40  C   10.832581   9.606458  10.632488   3.702384   4.760492
    41  C   12.113272  10.963008  11.746741   4.202089   5.039490
    42  H   12.351817  11.724269  11.306212   2.650492   2.710202
    43  H    8.977121   7.849032   8.775227   2.656679   3.879967
    44  H   13.598149  12.682138  12.856133   4.568795   4.951623
    45  H   10.612026   9.206849  10.681424   4.572178   5.682110
    46  H   12.849085  11.602970  12.593389   5.286882   6.096276
                   26         27         28         29         30
    26  C    0.000000
    27  C    2.399528   0.000000
    28  C    1.383297   2.766236   0.000000
    29  C    2.766160   1.383134   2.391612   0.000000
    30  C    2.403206   2.403295   1.385090   1.385320   0.000000
    31  H    1.084866   3.380991   2.147299   3.851009   3.387913
    32  H    3.381509   1.084888   3.851082   2.146392   3.387529
    33  H    2.137097   3.851563   1.085346   3.378136   2.145604
    34  H    3.851475   2.136814   3.378139   1.085339   2.145894
    35  H    3.386803   3.386759   2.147644   2.147708   1.084803
    36  C    2.949877   3.601295   4.282266   4.756298   5.038565
    37  C    3.226786   3.930015   4.338533   4.890687   5.066765
    38  C    3.942803   4.827785   5.313552   5.998684   6.208934
    39  C    4.342886   5.301235   5.391449   6.195996   6.240495
    40  C    4.904768   5.996058   6.209466   7.103504   7.202243
    41  C    5.077388   6.201228   6.248743   7.195434   7.222469
    42  H    3.039585   3.399150   3.907445   4.203402   4.424024
    43  H    4.283233   5.055263   5.655072   6.256341   6.516900
    44  H    4.928793   5.838708   5.788896   6.589767   6.572193
    45  H    5.791537   6.937445   7.100993   8.061893   8.140654
    46  H    6.052360   7.251143   7.163288   8.205273   8.172673
                   31         32         33         34         35
    31  H    0.000000
    32  H    4.274139   0.000000
    33  H    2.466292   4.936399   0.000000
    34  H    4.936316   2.464722   4.279073   0.000000
    35  H    4.284831   4.284064   2.476820   2.476967   0.000000
    36  C    2.720658   3.872704   4.957033   5.676099   6.095314
    37  C    3.048239   4.269469   4.927655   5.774967   6.041077
    38  C    3.417516   5.050678   5.854429   6.937665   7.259440
    39  C    3.922349   5.639809   5.793549   7.083586   7.154152
    40  C    4.225866   6.248153   6.608520   8.058468   8.212763
    41  C    4.445039   6.504289   6.586164   8.129655   8.172592
    42  H    3.180866   3.769056   4.568894   5.011258   5.341821
    43  H    3.785030   5.214433   6.213183   7.171511   7.572730
    44  H    4.581101   6.195185   6.116178   7.419869   7.393934
    45  H    5.035346   7.164927   7.443262   9.024945   9.149131
    46  H    5.363873   7.558985   7.409660   9.136838   9.084862
                   36         37         38         39         40
    36  C    0.000000
    37  C    1.390281   0.000000
    38  C    1.390728   2.399183   0.000000
    39  C    2.404545   1.383371   2.765716   0.000000
    40  C    2.404851   2.766197   1.383009   2.391427   0.000000
    41  C    2.785651   2.403388   2.403130   1.385000   1.385385
    42  H    2.142216   1.084823   3.380779   2.147200   3.851006
    43  H    2.142981   3.380925   1.084843   3.850508   2.146352
    44  H    3.384168   2.137027   3.851039   1.085344   3.377984
    45  H    3.384636   3.851534   2.136952   3.377926   1.085361
    46  H    3.870446   3.386984   3.386646   2.147636   2.147824
                   41         42         43         44         45
    41  C    0.000000
    42  H    3.387903   0.000000
    43  H    3.387436   4.273672   0.000000
    44  H    2.145483   2.465934   4.935820   0.000000
    45  H    2.145839   4.936336   2.465113   4.278880   0.000000
    46  H    1.084795   4.284771   4.284092   2.476788   2.476933
                   46
    46  H    0.000000
 Stoichiometry    C24H19NS2
 Framework group  C1[X(C24H19NS2)]
 Deg. of freedom   132
 Full point group                 C1      NOp   1
 Largest Abelian subgroup         C1      NOp   1
 Largest concise Abelian subgroup C1      NOp   1
                         Standard orientation:                         
 ---------------------------------------------------------------------
 Center     Atomic      Atomic             Coordinates (Angstroms)
 Number     Number       Type             X           Y           Z
 ---------------------------------------------------------------------
      1          6           0       -3.352046    1.022081    0.901490
      2          6           0       -4.015603    0.124147    0.077833
      3         16           0       -3.193622   -0.833868   -1.176213
      4          6           0       -5.398593   -0.028228    0.207342
      5          6           0       -0.749106    0.373785   -1.531691
      6          6           0       -1.475477   -0.566990   -0.815552
      7          6           0       -4.041516    1.761821    1.844012
      8          6           0       -6.080951    0.720801    1.156415
      9          1           0       -7.475944   -0.835079   -0.458792
     10          6           0        0.601771    0.547170   -1.299188
     11          6           0       -0.823428   -1.336346    0.139234
     12          6           0        0.521569   -1.154920    0.389409
     13          6           0        1.255724   -0.212476   -0.331046
     14          1           0        1.160253    1.275483   -1.876291
     15          1           0       -1.383265   -2.076857    0.700814
     16          1           0        1.015474   -1.752114    1.147605
     17          6           0       -5.411167    1.613701    1.970885
     18          1           0       -2.279577    1.141824    0.800598
     19          1           0       -1.248138    0.967582   -2.290346
     20          1           0       -3.503227    2.458074    2.478369
     21          1           0       -7.154267    0.598627    1.263844
     22          1           0       -5.962434    2.189124    2.706912
     23         16           0       -6.238224   -1.192989   -0.835805
     24          7           0        2.627173   -0.037586   -0.087724
     25          6           0        3.438312   -1.140752    0.276409
     26          6           0        4.374889   -1.012928    1.295896
     27          6           0        3.317625   -2.356550   -0.387733
     28          6           0        5.179400   -2.084309    1.640010
     29          6           0        4.112866   -3.428755   -0.025756
     30          6           0        5.049979   -3.298472    0.986151
     31          1           0        4.470709   -0.064848    1.814448
     32          1           0        2.593785   -2.456724   -1.189607
     33          1           0        5.907450   -1.970366    2.436839
     34          1           0        4.006805   -4.372570   -0.551042
     35          1           0        5.677330   -4.139106    1.262850
     36          6           0        3.224517    1.239724   -0.221989
     37          6           0        4.446224    1.376745   -0.871250
     38          6           0        2.604731    2.367846    0.304633
     39          6           0        5.037460    2.622109   -0.986244
     40          6           0        3.193018    3.612223    0.169883
     41          6           0        4.413292    3.746533   -0.472133
     42          1           0        4.931907    0.498005   -1.282066
     43          1           0        1.656156    2.262505    0.820378
     44          1           0        5.992055    2.714270   -1.494403
     45          1           0        2.697309    4.484427    0.584059
     46          1           0        4.876004    4.722810   -0.569917
 ---------------------------------------------------------------------
 Rotational constants (GHZ):           0.3083654           0.0766714           0.0675965
 Leave Link  202 at Mon Jan 18 23:53:00 2021, MaxMem=  4026531840 cpu:               0.2 elap:               0.1
 (Enter /opt/ohpc/pub/libs/gaussian/g16-A.03/sandybridge/g16/l301.exe)
 Standard basis: TZVP (5D, 7F)
 Ernie: Thresh=  0.10000D-02 Tol=  0.10000D-05 Strict=F.
 There are   660 symmetry adapted cartesian basis functions of A   symmetry.
 There are   633 symmetry adapted basis functions of A   symmetry.
   633 basis functions,  1121 primitive gaussians,   660 cartesian basis functions
   101 alpha electrons      101 beta electrons
       nuclear repulsion energy      2474.6847673599 Hartrees.
 IExCor=33909 DFT=T Ex+Corr=LC-wHPBE ExCW=0 ScaHFX=  1.000000
 ScaDFX=  1.000000  1.000000  1.000000  1.000000 ScalE2=  1.000000  1.000000
 IRadAn=      5 IRanWt=     -1 IRanGd=            0 ICorTp=0 IEmpDi=  4
 HFx  wShort=  0.000000 wLong=  0.198600 cFull=  0.000000 cShort=  0.000000 cLong=  1.000000
 DFx  wShort=  0.000000 wLong=  0.198600 cFull=  0.000000 cShort=  1.000000 cLong=  0.000000
 NAtoms=   46 NActive=   46 NUniq=   46 SFac= 1.00D+00 NAtFMM=   60 NAOKFM=F Big=F
 Integral buffers will be    131072 words long.
 Raffenetti 2 integral format.
 Two-electron integral symmetry is turned on.
 Leave Link  301 at Mon Jan 18 23:53:00 2021, MaxMem=  4026531840 cpu:               0.5 elap:               0.1
 (Enter /opt/ohpc/pub/libs/gaussian/g16-A.03/sandybridge/g16/l302.exe)
 NPDir=0 NMtPBC=     1 NCelOv=     1 NCel=       1 NClECP=     1 NCelD=      1
         NCelK=      1 NCelE2=     1 NClLst=     1 CellRange=     0.0.
 One-electron integrals computed using PRISM.
 One-electron integral symmetry used in STVInt
 NBasis=   633 RedAO= T EigKep=  6.67D-06  NBF=   633
 NBsUse=   633 1.00D-06 EigRej= -1.00D+00 NBFU=   633
 Precomputing XC quadrature grid using
 IXCGrd= 4 IRadAn=           5 IRanWt=          -1 IRanGd=           0 AccXCQ= 0.00D+00.
 Generated NRdTot=       0 NPtTot=           0 NUsed=           0 NTot=          32
 NSgBfM=   625   625   625   625   625 MxSgAt=    46 MxSgA2=    46.
 Leave Link  302 at Mon Jan 18 23:53:02 2021, MaxMem=  4026531840 cpu:               9.7 elap:               1.3
 (Enter /opt/ohpc/pub/libs/gaussian/g16-A.03/sandybridge/g16/l303.exe)
 DipDrv:  MaxL=1.
 Leave Link  303 at Mon Jan 18 23:53:02 2021, MaxMem=  4026531840 cpu:               0.9 elap:               0.2
 (Enter /opt/ohpc/pub/libs/gaussian/g16-A.03/sandybridge/g16/l401.exe)
 ExpMin= 9.52D-02 ExpMax= 6.07D+04 ExpMxC= 2.07D+03 IAcc=3 IRadAn=         5 AccDes= 0.00D+00
 Harris functional with IExCor=33909 and IRadAn=       5 diagonalized for initial guess.
 HarFok:  IExCor=33909 AccDes= 0.00D+00 IRadAn=         5 IDoV= 1 UseB2=F ITyADJ=14
 ICtDFT=  3500011 ScaDFX=  1.000000  1.000000  1.000000  1.000000
 FoFCou: FMM=F IPFlag=           0 FMFlag=      100000 FMFlg1=           0
         NFxFlg=           0 DoJE=T BraDBF=F KetDBF=T FulRan=T
         wScrn=  0.000000 ICntrl=       500 IOpCl=  0 I1Cent=   200000004 NGrid=           0
         NMat0=    1 NMatS0=      1 NMatT0=    0 NMatD0=    1 NMtDS0=    0 NMtDT0=    0
 Petite list used in FoFCou.
 Harris En= -1754.80057979315    
 JPrj=0 DoOrth=F DoCkMO=F.
 Leave Link  401 at Mon Jan 18 23:53:09 2021, MaxMem=  4026531840 cpu:              56.2 elap:               7.1
 (Enter /opt/ohpc/pub/libs/gaussian/g16-A.03/sandybridge/g16/l502.exe)
 Integral symmetry usage will be decided dynamically.
 Closed shell SCF:
 Using DIIS extrapolation, IDIIS=    10.
 NGot=  4026531840 LenX=  4025648940 LenY=  4025212680
 Requested convergence on RMS density matrix=1.00D-06 within  32 cycles.
 Requested convergence on MAX density matrix=1.00D-04.
 Requested convergence on             energy=1.00D-04.
 Virtual orbitals will be shifted by   0.500 hartree.
 No special actions if energy rises.
 Dynamic level shift is on during FON iterations.

 Cycle   1  Pass 1  IDiag  1:
 FoFJK:  IHMeth= 1 ICntrl=       0 DoSepK=T KAlg= 0 I1Cent=           0 FoldK=F
 IRaf=         1 NMat=       1 IRICut=       1 DoRegI=T DoRafI=F ISym2E= 0 IDoP0=0 IntGTp=1.
 FoFCou: FMM=F IPFlag=           0 FMFlag=      100000 FMFlg1=           0
         NFxFlg=           0 DoJE=T BraDBF=F KetDBF=F FulRan=T
         wScrn=  0.000000 ICntrl=       500 IOpCl=  0 I1Cent=           0 NGrid=           0
         NMat0=    1 NMatS0=      1 NMatT0=    0 NMatD0=    1 NMtDS0=    0 NMtDT0=    0
 Symmetry not used in FoFCou.
 E= -1775.69937505038    
 DIIS: error= 2.82D-02 at cycle   1 NSaved=   1.
 NSaved= 1 IEnMin= 1 EnMin= -1775.69937505038     IErMin= 1 ErrMin= 2.82D-02
 ErrMax= 2.82D-02  0.00D+00 EMaxC= 1.00D+00 BMatC= 5.35D-01 BMatP= 5.35D-01
 IDIUse=1 WtCom= 1.00D+00 WtEn= 0.00D+00
 Coeff-Com:  0.100D+01
 Coeff:      0.100D+01
 Gap=     0.409 Goal=   None    Shift=    0.500
 T= 1459. Gap= 0.677 NK=0 IS=  102 IE=  633 IFin=  101
          NO(<0.9)=   0  NV(>0.1)=   0    101.00e < EF      0.00e >EF  Err=0.0D+00
 GapD=    0.409 DampG=2.000 DampE=0.500 DampFc=1.0000 IDamp=-1.
 RMSDP=2.92D-03 MaxDP=2.07D-01              OVMax= 9.45D-02

 Cycle   2  Pass 1  IDiag  1:
 E= -1776.17872779153     Delta-E=       -0.479352741151 Rises=F Damp=F
 DIIS: error= 8.73D-03 at cycle   2 NSaved=   2.
 NSaved= 2 IEnMin= 2 EnMin= -1776.17872779153     IErMin= 2 ErrMin= 8.73D-03
 ErrMax= 8.73D-03  0.00D+00 EMaxC= 1.00D+00 BMatC= 7.19D-02 BMatP= 5.35D-01
 IDIUse=1 WtCom= 1.00D+00 WtEn= 0.00D+00
 Coeff-Com:  0.239D+00 0.761D+00
 Coeff:      0.239D+00 0.761D+00
 Gap=     0.360 Goal=   None    Shift=    0.500
 T= 1302. Gap= 0.760 NK=0 IS=  102 IE=  633 IFin=  101
          NO(<0.9)=   0  NV(>0.1)=   0    101.00e < EF      0.00e >EF  Err=0.0D+00
 GapD=    0.360 DampG=1.000 DampE=1.000 DampFc=1.0000 IDamp=-1.
 RMSDP=8.70D-04 MaxDP=6.30D-02 DE=-4.79D-01 OVMax= 1.79D-02

 Cycle   3  Pass 1  IDiag  1:
 E= -1776.22962911975     Delta-E=       -0.050901328217 Rises=F Damp=F
 DIIS: error= 2.57D-03 at cycle   3 NSaved=   3.
 NSaved= 3 IEnMin= 3 EnMin= -1776.22962911975     IErMin= 3 ErrMin= 2.57D-03
 ErrMax= 2.57D-03  0.00D+00 EMaxC= 1.00D+00 BMatC= 6.08D-03 BMatP= 7.19D-02
 IDIUse=1 WtCom= 1.00D+00 WtEn= 0.00D+00
 Coeff-Com:  0.759D-01-0.243D-01 0.948D+00
 Coeff:      0.759D-01-0.243D-01 0.948D+00
 Gap=     0.277 Goal=   None    Shift=    0.500
 T= 1002. Gap= 0.774 NK=0 IS=  102 IE=  633 IFin=  101
          NO(<0.9)=   0  NV(>0.1)=   0    101.00e < EF      0.00e >EF  Err=0.0D+00
 GapD=    0.277 DampG=1.000 DampE=1.000 DampFc=1.0000 IDamp=-1.
 RMSDP=3.68D-04 MaxDP=2.63D-02 DE=-5.09D-02 OVMax= 1.07D-02

 Cycle   4  Pass 1  IDiag  1:
 E= -1776.23568318847     Delta-E=       -0.006054068720 Rises=F Damp=F
 DIIS: error= 1.61D-03 at cycle   4 NSaved=   4.
 NSaved= 4 IEnMin= 4 EnMin= -1776.23568318847     IErMin= 4 ErrMin= 1.61D-03
 ErrMax= 1.61D-03  0.00D+00 EMaxC= 1.00D+00 BMatC= 9.26D-04 BMatP= 6.08D-03
 IDIUse=1 WtCom= 1.00D+00 WtEn= 0.00D+00
 Coeff-Com:  0.147D-01-0.689D-01 0.653D-01 0.989D+00
 Coeff:      0.147D-01-0.689D-01 0.653D-01 0.989D+00
 Gap=     0.271 Goal=   None    Shift=    0.500
 T=  331. Gap= 0.771 NK=0 IS=  102 IE=  633 IFin=  101
          NO(<0.9)=   0  NV(>0.1)=   0    101.00e < EF      0.00e >EF  Err=0.0D+00
 GapD=    0.271 DampG=1.000 DampE=1.000 DampFc=1.0000 IDamp=-1.
 RMSDP=2.20D-04 MaxDP=1.32D-02 DE=-6.05D-03 OVMax= 7.73D-03

 Cycle   5  Pass 1  IDiag  1:
 E= -1776.23697585142     Delta-E=       -0.001292662946 Rises=F Damp=F
 DIIS: error= 1.32D-03 at cycle   5 NSaved=   5.
 NSaved= 5 IEnMin= 5 EnMin= -1776.23697585142     IErMin= 5 ErrMin= 1.32D-03
 ErrMax= 1.32D-03  0.00D+00 EMaxC= 1.00D+00 BMatC= 1.48D-04 BMatP= 9.26D-04
 IDIUse=1 WtCom= 1.00D+00 WtEn= 0.00D+00
 Coeff-Com: -0.620D-02-0.728D-02-0.125D+00-0.998D-01 0.124D+01
 Coeff:     -0.620D-02-0.728D-02-0.125D+00-0.998D-01 0.124D+01
 Gap=     0.272 Goal=   None    Shift=    0.500
 GapD=    0.272 DampG=1.000 DampE=1.000 DampFc=1.0000 IDamp=-1.
 RMSDP=1.49D-04 MaxDP=9.90D-03 DE=-1.29D-03 OVMax= 6.30D-03

 Cycle   6  Pass 1  IDiag  1:
 E= -1776.23739151890     Delta-E=       -0.000415667487 Rises=F Damp=F
 DIIS: error= 1.06D-03 at cycle   6 NSaved=   6.
 NSaved= 6 IEnMin= 6 EnMin= -1776.23739151890     IErMin= 6 ErrMin= 1.06D-03
 ErrMax= 1.06D-03  0.00D+00 EMaxC= 1.00D+00 BMatC= 4.62D-05 BMatP= 1.48D-04
 IDIUse=1 WtCom= 1.00D+00 WtEn= 0.00D+00
 Coeff-Com: -0.623D-02 0.114D-01-0.313D-01-0.232D+00-0.312D+00 0.157D+01
 Coeff:     -0.623D-02 0.114D-01-0.313D-01-0.232D+00-0.312D+00 0.157D+01
 Gap=     0.272 Goal=   None    Shift=    0.500
 GapD=    0.272 DampG=1.000 DampE=1.000 DampFc=1.0000 IDamp=-1.
 RMSDP=9.41D-05 MaxDP=6.41D-03 DE=-4.16D-04 OVMax= 5.35D-03

 Cycle   7  Pass 1  IDiag  1:
 E= -1776.23758507352     Delta-E=       -0.000193554621 Rises=F Damp=F
 DIIS: error= 7.69D-04 at cycle   7 NSaved=   7.
 NSaved= 7 IEnMin= 7 EnMin= -1776.23758507352     IErMin= 7 ErrMin= 7.69D-04
 ErrMax= 7.69D-04  0.00D+00 EMaxC= 1.00D+00 BMatC= 1.86D-05 BMatP= 4.62D-05
 IDIUse=1 WtCom= 1.00D+00 WtEn= 0.00D+00
 Coeff-Com: -0.194D-02 0.366D-02 0.272D-01-0.492D-01-0.499D+00-0.486D-01
 Coeff-Com:  0.157D+01
 Coeff:     -0.194D-02 0.366D-02 0.272D-01-0.492D-01-0.499D+00-0.486D-01
 Coeff:      0.157D+01
 Gap=     0.272 Goal=   None    Shift=    0.500
 RMSDP=5.35D-05 MaxDP=3.50D-03 DE=-1.94D-04 OVMax= 4.16D-03

 Cycle   8  Pass 1  IDiag  1:
 E= -1776.23767534241     Delta-E=       -0.000090268885 Rises=F Damp=F
 DIIS: error= 5.28D-04 at cycle   8 NSaved=   8.
 NSaved= 8 IEnMin= 8 EnMin= -1776.23767534241     IErMin= 8 ErrMin= 5.28D-04
 ErrMax= 5.28D-04  0.00D+00 EMaxC= 1.00D+00 BMatC= 7.49D-06 BMatP= 1.86D-05
 IDIUse=1 WtCom= 1.00D+00 WtEn= 0.00D+00
 Coeff-Com:  0.768D-03-0.233D-02 0.145D-01 0.895D-01-0.685D-01-0.721D+00
 Coeff-Com: -0.110D+00 0.180D+01
 Coeff:      0.768D-03-0.233D-02 0.145D-01 0.895D-01-0.685D-01-0.721D+00
 Coeff:     -0.110D+00 0.180D+01
 Gap=     0.273 Goal=   None    Shift=    0.500
 RMSDP=2.76D-05 MaxDP=1.49D-03 DE=-9.03D-05 OVMax= 3.04D-03

 Cycle   9  Pass 1  IDiag  1:
 E= -1776.23771529054     Delta-E=       -0.000039948128 Rises=F Damp=F
 DIIS: error= 3.67D-04 at cycle   9 NSaved=   9.
 NSaved= 9 IEnMin= 9 EnMin= -1776.23771529054     IErMin= 9 ErrMin= 3.67D-04
 ErrMax= 3.67D-04  0.00D+00 EMaxC= 1.00D+00 BMatC= 3.10D-06 BMatP= 7.49D-06
 IDIUse=1 WtCom= 1.00D+00 WtEn= 0.00D+00
 Coeff-Com:  0.588D-03-0.117D-02-0.728D-02 0.675D-01 0.122D+00-0.396D+00
 Coeff-Com: -0.528D+00 0.240D+00 0.150D+01
 Coeff:      0.588D-03-0.117D-02-0.728D-02 0.675D-01 0.122D+00-0.396D+00
 Coeff:     -0.528D+00 0.240D+00 0.150D+01
 Gap=     0.273 Goal=   None    Shift=    0.500
 RMSDP=1.41D-05 MaxDP=5.63D-04 DE=-3.99D-05 OVMax= 2.12D-03

 Cycle  10  Pass 1  IDiag  1:
 E= -1776.23773171378     Delta-E=       -0.000016423244 Rises=F Damp=F
 DIIS: error= 2.36D-04 at cycle  10 NSaved=  10.
 NSaved=10 IEnMin=10 EnMin= -1776.23773171378     IErMin=10 ErrMin= 2.36D-04
 ErrMax= 2.36D-04  0.00D+00 EMaxC= 1.00D+00 BMatC= 1.19D-06 BMatP= 3.10D-06
 IDIUse=1 WtCom= 1.00D+00 WtEn= 0.00D+00
 Coeff-Com: -0.159D-03 0.702D-03-0.521D-02-0.531D-02 0.183D-01 0.124D+00
 Coeff-Com: -0.701D-01-0.547D+00-0.740D+00 0.222D+01
 Coeff:     -0.159D-03 0.702D-03-0.521D-02-0.531D-02 0.183D-01 0.124D+00
 Coeff:     -0.701D-01-0.547D+00-0.740D+00 0.222D+01
 Gap=     0.273 Goal=   None    Shift=    0.500
 RMSDP=8.79D-06 MaxDP=3.60D-04 DE=-1.64D-05 OVMax= 1.42D-03

 Cycle  11  Pass 1  IDiag  1:
 E= -1776.23773822566     Delta-E=       -0.000006511877 Rises=F Damp=F
 DIIS: error= 1.59D-04 at cycle  11 NSaved=  11.
 NSaved=11 IEnMin=11 EnMin= -1776.23773822566     IErMin=11 ErrMin= 1.59D-04
 ErrMax= 1.59D-04  0.00D+00 EMaxC= 1.00D+00 BMatC= 5.16D-07 BMatP= 1.19D-06
 IDIUse=1 WtCom= 1.00D+00 WtEn= 0.00D+00
 Coeff-Com: -0.176D-03 0.648D-03 0.831D-03-0.144D-01-0.258D-01 0.131D+00
 Coeff-Com:  0.933D-01-0.243D+00-0.985D+00 0.612D+00 0.143D+01
 Coeff:     -0.176D-03 0.648D-03 0.831D-03-0.144D-01-0.258D-01 0.131D+00
 Coeff:      0.933D-01-0.243D+00-0.985D+00 0.612D+00 0.143D+01
 Gap=     0.273 Goal=   None    Shift=    0.500
 RMSDP=5.13D-06 MaxDP=2.30D-04 DE=-6.51D-06 OVMax= 9.31D-04

 Cycle  12  Pass 1  IDiag  1:
 E= -1776.23774076967     Delta-E=       -0.000002544017 Rises=F Damp=F
 DIIS: error= 1.01D-04 at cycle  12 NSaved=  12.
 NSaved=12 IEnMin=12 EnMin= -1776.23774076967     IErMin=12 ErrMin= 1.01D-04
 ErrMax= 1.01D-04  0.00D+00 EMaxC= 1.00D+00 BMatC= 2.09D-07 BMatP= 5.16D-07
 IDIUse=1 WtCom= 1.00D+00 WtEn= 0.00D+00
 Coeff-Com: -0.296D-04 0.154D-03 0.242D-02-0.249D-02-0.138D-01-0.522D-02
 Coeff-Com:  0.583D-01 0.181D+00-0.330D+00-0.572D+00-0.280D+00 0.196D+01
 Coeff:     -0.296D-04 0.154D-03 0.242D-02-0.249D-02-0.138D-01-0.522D-02
 Coeff:      0.583D-01 0.181D+00-0.330D+00-0.572D+00-0.280D+00 0.196D+01
 Gap=     0.273 Goal=   None    Shift=    0.500
 RMSDP=3.07D-06 MaxDP=1.49D-04 DE=-2.54D-06 OVMax= 6.05D-04

 Cycle  13  Pass 1  IDiag  1:
 E= -1776.23774176235     Delta-E=       -0.000000992674 Rises=F Damp=F
 DIIS: error= 6.70D-05 at cycle  13 NSaved=  13.
 NSaved=13 IEnMin=13 EnMin= -1776.23774176235     IErMin=13 ErrMin= 6.70D-05
 ErrMax= 6.70D-05  0.00D+00 EMaxC= 1.00D+00 BMatC= 9.27D-08 BMatP= 2.09D-07
 IDIUse=1 WtCom= 1.00D+00 WtEn= 0.00D+00
 Coeff-Com:  0.211D-04-0.595D-05 0.564D-03 0.379D-02 0.112D-02-0.392D-01
 Coeff-Com:  0.175D-02 0.182D+00 0.710D-01-0.416D+00-0.871D+00 0.452D+00
 Coeff-Com:  0.161D+01
 Coeff:      0.211D-04-0.595D-05 0.564D-03 0.379D-02 0.112D-02-0.392D-01
 Coeff:      0.175D-02 0.182D+00 0.710D-01-0.416D+00-0.871D+00 0.452D+00
 Coeff:      0.161D+01
 Gap=     0.273 Goal=   None    Shift=    0.500
 RMSDP=1.83D-06 MaxDP=9.51D-05 DE=-9.93D-07 OVMax= 3.99D-04

 Cycle  14  Pass 1  IDiag  1:
 E= -1776.23774216096     Delta-E=       -0.000000398615 Rises=F Damp=F
 DIIS: error= 4.18D-05 at cycle  14 NSaved=  14.
 NSaved=14 IEnMin=14 EnMin= -1776.23774216096     IErMin=14 ErrMin= 4.18D-05
 ErrMax= 4.18D-05  0.00D+00 EMaxC= 1.00D+00 BMatC= 3.67D-08 BMatP= 9.27D-08
 IDIUse=1 WtCom= 1.00D+00 WtEn= 0.00D+00
 Coeff-Com:  0.974D-05-0.250D-04-0.556D-03 0.248D-02 0.311D-02-0.107D-01
 Coeff-Com: -0.156D-01 0.260D-01 0.854D-01 0.781D-01-0.424D+00-0.340D+00
 Coeff-Com: -0.401D+00 0.200D+01
 Coeff:      0.974D-05-0.250D-04-0.556D-03 0.248D-02 0.311D-02-0.107D-01
 Coeff:     -0.156D-01 0.260D-01 0.854D-01 0.781D-01-0.424D+00-0.340D+00
 Coeff:     -0.401D+00 0.200D+01
 Gap=     0.273 Goal=   None    Shift=    0.500
 RMSDP=1.16D-06 MaxDP=5.72D-05 DE=-3.99D-07 OVMax= 2.52D-04

 Cycle  15  Pass 1  IDiag  1:
 E= -1776.23774231436     Delta-E=       -0.000000153397 Rises=F Damp=F
 DIIS: error= 2.71D-05 at cycle  15 NSaved=  15.
 NSaved=15 IEnMin=15 EnMin= -1776.23774231436     IErMin=15 ErrMin= 2.71D-05
 ErrMax= 2.71D-05  0.00D+00 EMaxC= 1.00D+00 BMatC= 1.53D-08 BMatP= 3.67D-08
 IDIUse=1 WtCom= 1.00D+00 WtEn= 0.00D+00
 Coeff-Com: -0.334D-05-0.215D-04-0.349D-03-0.358D-04 0.126D-02 0.629D-02
 Coeff-Com: -0.751D-02-0.292D-01 0.128D-01 0.167D+00-0.222D-01-0.286D+00
 Coeff-Com: -0.983D+00 0.752D+00 0.139D+01
 Coeff:     -0.334D-05-0.215D-04-0.349D-03-0.358D-04 0.126D-02 0.629D-02
 Coeff:     -0.751D-02-0.292D-01 0.128D-01 0.167D+00-0.222D-01-0.286D+00
 Coeff:     -0.983D+00 0.752D+00 0.139D+01
 Gap=     0.273 Goal=   None    Shift=    0.500
 RMSDP=6.87D-07 MaxDP=3.38D-05 DE=-1.53D-07 OVMax= 1.61D-04

 SCF Done:  E(RLC-wHPBE) =  -1776.23774231     A.U. after   15 cycles
            NFock= 15  Conv=0.69D-06     -V/T= 2.0037
 KE= 1.769770273127D+03 PE=-9.117317204088D+03 EE= 3.096624421287D+03
 Leave Link  502 at Tue Jan 19 00:05:29 2021, MaxMem=  4026531840 cpu:            5901.7 elap:             740.2
 (Enter /opt/ohpc/pub/libs/gaussian/g16-A.03/sandybridge/g16/l508.exe)
 QCSCF skips out because SCF is already converged.
 Leave Link  508 at Tue Jan 19 00:05:29 2021, MaxMem=  4026531840 cpu:               0.4 elap:               0.2
 (Enter /opt/ohpc/pub/libs/gaussian/g16-A.03/sandybridge/g16/l601.exe)
 Copying SCF densities to generalized density rwf, IOpCl= 0 IROHF=0.

 **********************************************************************

            Population analysis using the SCF density.

 **********************************************************************

 Orbital symmetries:
       Occupied  (A) (A) (A) (A) (A) (A) (A) (A) (A) (A) (A) (A)
                 (A) (A) (A) (A) (A) (A) (A) (A) (A) (A) (A) (A)
                 (A) (A) (A) (A) (A) (A) (A) (A) (A) (A) (A) (A)
                 (A) (A) (A) (A) (A) (A) (A) (A) (A) (A) (A) (A)
                 (A) (A) (A) (A) (A) (A) (A) (A) (A) (A) (A) (A)
                 (A) (A) (A) (A) (A) (A) (A) (A) (A) (A) (A) (A)
                 (A) (A) (A) (A) (A) (A) (A) (A) (A) (A) (A) (A)
                 (A) (A) (A) (A) (A) (A) (A) (A) (A) (A) (A) (A)
                 (A) (A) (A) (A) (A)
       Virtual   (A) (A) (A) (A) (A) (A) (A) (A) (A) (A) (A) (A)
                 (A) (A) (A) (A) (A) (A) (A) (A) (A) (A) (A) (A)
                 (A) (A) (A) (A) (A) (A) (A) (A) (A) (A) (A) (A)
                 (A) (A) (A) (A) (A) (A) (A) (A) (A) (A) (A) (A)
                 (A) (A) (A) (A) (A) (A) (A) (A) (A) (A) (A) (A)
                 (A) (A) (A) (A) (A) (A) (A) (A) (A) (A) (A) (A)
                 (A) (A) (A) (A) (A) (A) (A) (A) (A) (A) (A) (A)
                 (A) (A) (A) (A) (A) (A) (A) (A) (A) (A) (A) (A)
                 (A) (A) (A) (A) (A) (A) (A) (A) (A) (A) (A) (A)
                 (A) (A) (A) (A) (A) (A) (A) (A) (A) (A) (A) (A)
                 (A) (A) (A) (A) (A) (A) (A) (A) (A) (A) (A) (A)
                 (A) (A) (A) (A) (A) (A) (A) (A) (A) (A) (A) (A)
                 (A) (A) (A) (A) (A) (A) (A) (A) (A) (A) (A) (A)
                 (A) (A) (A) (A) (A) (A) (A) (A) (A) (A) (A) (A)
                 (A) (A) (A) (A) (A) (A) (A) (A) (A) (A) (A) (A)
                 (A) (A) (A) (A) (A) (A) (A) (A) (A) (A) (A) (A)
                 (A) (A) (A) (A) (A) (A) (A) (A) (A) (A) (A) (A)
                 (A) (A) (A) (A) (A) (A) (A) (A) (A) (A) (A) (A)
                 (A) (A) (A) (A) (A) (A) (A) (A) (A) (A) (A) (A)
                 (A) (A) (A) (A) (A) (A) (A) (A) (A) (A) (A) (A)
                 (A) (A) (A) (A) (A) (A) (A) (A) (A) (A) (A) (A)
                 (A) (A) (A) (A) (A) (A) (A) (A) (A) (A) (A) (A)
                 (A) (A) (A) (A) (A) (A) (A) (A) (A) (A) (A) (A)
                 (A) (A) (A) (A) (A) (A) (A) (A) (A) (A) (A) (A)
                 (A) (A) (A) (A) (A) (A) (A) (A) (A) (A) (A) (A)
                 (A) (A) (A) (A) (A) (A) (A) (A) (A) (A) (A) (A)
                 (A) (A) (A) (A) (A) (A) (A) (A) (A) (A) (A) (A)
                 (A) (A) (A) (A) (A) (A) (A) (A) (A) (A) (A) (A)
                 (A) (A) (A) (A) (A) (A) (A) (A) (A) (A) (A) (A)
                 (A) (A) (A) (A) (A) (A) (A) (A) (A) (A) (A) (A)
                 (A) (A) (A) (A) (A) (A) (A) (A) (A) (A) (A) (A)
                 (A) (A) (A) (A) (A) (A) (A) (A) (A) (A) (A) (A)
                 (A) (A) (A) (A) (A) (A) (A) (A) (A) (A) (A) (A)
                 (A) (A) (A) (A) (A) (A) (A) (A) (A) (A) (A) (A)
                 (A) (A) (A) (A) (A) (A) (A) (A) (A) (A) (A) (A)
                 (A) (A) (A) (A) (A) (A) (A) (A) (A) (A) (A) (A)
                 (A) (A) (A) (A) (A) (A) (A) (A) (A) (A) (A) (A)
                 (A) (A) (A) (A) (A) (A) (A) (A) (A) (A) (A) (A)
                 (A) (A) (A) (A) (A) (A) (A) (A) (A) (A) (A) (A)
                 (A) (A) (A) (A) (A) (A) (A) (A) (A) (A) (A) (A)
                 (A) (A) (A) (A) (A) (A) (A) (A) (A) (A) (A) (A)
                 (A) (A) (A) (A) (A) (A) (A) (A) (A) (A) (A) (A)
                 (A) (A) (A) (A) (A) (A) (A) (A) (A) (A) (A) (A)
                 (A) (A) (A) (A) (A) (A) (A) (A) (A) (A) (A) (A)
                 (A) (A) (A) (A)
 The electronic state is 1-A.
 Alpha  occ. eigenvalues --  -88.20387 -88.20303 -14.13862 -10.05150 -10.04585
 Alpha  occ. eigenvalues --  -10.04547 -10.03955 -10.03582 -10.03017 -10.00972
 Alpha  occ. eigenvalues --  -10.00946 -10.00570 -10.00539 -10.00511 -10.00508
 Alpha  occ. eigenvalues --  -10.00464 -10.00461 -10.00381 -10.00354 -10.00318
 Alpha  occ. eigenvalues --  -10.00317 -10.00296 -10.00130 -10.00093  -9.99923
 Alpha  occ. eigenvalues --   -9.99734  -9.99664  -7.79691  -7.79480  -5.81892
 Alpha  occ. eigenvalues --   -5.81709  -5.81405  -5.81196  -5.80645  -5.80432
 Alpha  occ. eigenvalues --   -1.01707  -0.92449  -0.91408  -0.91104  -0.89450
 Alpha  occ. eigenvalues --   -0.84891  -0.83742  -0.81645  -0.81081  -0.80194
 Alpha  occ. eigenvalues --   -0.79977  -0.79924  -0.77563  -0.75818  -0.73681
 Alpha  occ. eigenvalues --   -0.69237  -0.68646  -0.66841  -0.66660  -0.66236
 Alpha  occ. eigenvalues --   -0.65539  -0.63693  -0.62958  -0.60435  -0.60402
 Alpha  occ. eigenvalues --   -0.57681  -0.56124  -0.54779  -0.53736  -0.53577
 Alpha  occ. eigenvalues --   -0.52885  -0.51970  -0.51676  -0.50705  -0.50390
 Alpha  occ. eigenvalues --   -0.49739  -0.49495  -0.49005  -0.48729  -0.48562
 Alpha  occ. eigenvalues --   -0.48070  -0.47132  -0.46169  -0.45332  -0.45109
 Alpha  occ. eigenvalues --   -0.44941  -0.43638  -0.42834  -0.42249  -0.41831
 Alpha  occ. eigenvalues --   -0.41182  -0.40712  -0.40628  -0.40516  -0.38881
 Alpha  occ. eigenvalues --   -0.37420  -0.36806  -0.35576  -0.34047  -0.34023
 Alpha  occ. eigenvalues --   -0.33665  -0.32888  -0.32629  -0.29345  -0.27094
 Alpha  occ. eigenvalues --   -0.25784
 Alpha virt. eigenvalues --    0.01476   0.01960   0.02575   0.03826   0.04304
 Alpha virt. eigenvalues --    0.04578   0.04946   0.05776   0.07152   0.09511
 Alpha virt. eigenvalues --    0.10641   0.10957   0.11141   0.12186   0.13205
 Alpha virt. eigenvalues --    0.13449   0.13725   0.14080   0.14408   0.14912
 Alpha virt. eigenvalues --    0.15433   0.15573   0.16228   0.16674   0.16787
 Alpha virt. eigenvalues --    0.17198   0.17473   0.18067   0.18374   0.18660
 Alpha virt. eigenvalues --    0.19105   0.19495   0.20275   0.20550   0.21497
 Alpha virt. eigenvalues --    0.22170   0.23461   0.24152   0.24468   0.24850
 Alpha virt. eigenvalues --    0.24996   0.25448   0.25902   0.26032   0.26365
 Alpha virt. eigenvalues --    0.26832   0.27000   0.27623   0.27754   0.28048
 Alpha virt. eigenvalues --    0.28143   0.28406   0.28585   0.28777   0.29253
 Alpha virt. eigenvalues --    0.29535   0.29758   0.30221   0.30315   0.30903
 Alpha virt. eigenvalues --    0.31102   0.31193   0.31818   0.31869   0.32453
 Alpha virt. eigenvalues --    0.32867   0.33121   0.33248   0.33557   0.33966
 Alpha virt. eigenvalues --    0.34652   0.35024   0.35595   0.35788   0.36185
 Alpha virt. eigenvalues --    0.36439   0.36975   0.37184   0.37709   0.38277
 Alpha virt. eigenvalues --    0.38448   0.38976   0.39214   0.39956   0.40230
 Alpha virt. eigenvalues --    0.40938   0.41059   0.41784   0.42118   0.42332
 Alpha virt. eigenvalues --    0.42644   0.43144   0.43414   0.43497   0.43847
 Alpha virt. eigenvalues --    0.44288   0.44351   0.44639   0.44688   0.45502
 Alpha virt. eigenvalues --    0.45699   0.45778   0.46319   0.46780   0.47213
 Alpha virt. eigenvalues --    0.47238   0.47730   0.47915   0.48308   0.48387
 Alpha virt. eigenvalues --    0.48683   0.49124   0.49535   0.49851   0.50505
 Alpha virt. eigenvalues --    0.50639   0.50884   0.51193   0.51996   0.52377
 Alpha virt. eigenvalues --    0.52710   0.52977   0.53357   0.54006   0.54321
 Alpha virt. eigenvalues --    0.54882   0.55161   0.55699   0.55796   0.56073
 Alpha virt. eigenvalues --    0.56263   0.56431   0.56890   0.57255   0.57702
 Alpha virt. eigenvalues --    0.58604   0.58931   0.59858   0.60324   0.60838
 Alpha virt. eigenvalues --    0.61235   0.62348   0.62423   0.63170   0.63645
 Alpha virt. eigenvalues --    0.64518   0.65426   0.66064   0.66511   0.67211
 Alpha virt. eigenvalues --    0.68132   0.68741   0.70549   0.71372   0.71680
 Alpha virt. eigenvalues --    0.72181   0.72509   0.72759   0.72913   0.73506
 Alpha virt. eigenvalues --    0.74016   0.74090   0.74826   0.75049   0.75254
 Alpha virt. eigenvalues --    0.75734   0.76010   0.76444   0.77066   0.77863
 Alpha virt. eigenvalues --    0.78109   0.78334   0.79524   0.80887   0.81554
 Alpha virt. eigenvalues --    0.81718   0.82604   0.83268   0.83746   0.85411
 Alpha virt. eigenvalues --    0.86122   0.88409   0.89701   0.90100   0.90619
 Alpha virt. eigenvalues --    0.91167   0.92800   0.93315   0.95887   0.96523
 Alpha virt. eigenvalues --    0.96931   0.97655   0.99042   1.00386   1.01095
 Alpha virt. eigenvalues --    1.01754   1.08197   1.14207   1.18784   1.19678
 Alpha virt. eigenvalues --    1.19953   1.23253   1.23355   1.24481   1.25442
 Alpha virt. eigenvalues --    1.26565   1.26844   1.27168   1.27757   1.28127
 Alpha virt. eigenvalues --    1.29291   1.29515   1.29927   1.30077   1.30217
 Alpha virt. eigenvalues --    1.30776   1.31243   1.31474   1.31662   1.32345
 Alpha virt. eigenvalues --    1.32375   1.33083   1.33443   1.33818   1.34173
 Alpha virt. eigenvalues --    1.34537   1.34648   1.35474   1.36276   1.36716
 Alpha virt. eigenvalues --    1.37456   1.38056   1.38212   1.39063   1.39822
 Alpha virt. eigenvalues --    1.41436   1.43283   1.44135   1.44474   1.44907
 Alpha virt. eigenvalues --    1.45726   1.46244   1.46970   1.47294   1.47465
 Alpha virt. eigenvalues --    1.47583   1.47628   1.47831   1.48167   1.48284
 Alpha virt. eigenvalues --    1.48469   1.48776   1.49164   1.49403   1.49816
 Alpha virt. eigenvalues --    1.49943   1.50974   1.51382   1.51651   1.52008
 Alpha virt. eigenvalues --    1.52648   1.53375   1.53951   1.54106   1.54510
 Alpha virt. eigenvalues --    1.54866   1.55139   1.55169   1.56182   1.56211
 Alpha virt. eigenvalues --    1.56810   1.57458   1.58137   1.58618   1.58978
 Alpha virt. eigenvalues --    1.59339   1.59445   1.59861   1.59922   1.60172
 Alpha virt. eigenvalues --    1.60542   1.60979   1.61544   1.61779   1.62065
 Alpha virt. eigenvalues --    1.62214   1.63298   1.63466   1.64105   1.64693
 Alpha virt. eigenvalues --    1.65314   1.65356   1.69069   1.69426   1.70111
 Alpha virt. eigenvalues --    1.70293   1.71097   1.72874   1.73976   1.74769
 Alpha virt. eigenvalues --    1.75527   1.75947   1.78730   1.79344   1.79736
 Alpha virt. eigenvalues --    1.80054   1.80367   1.80431   1.81195   1.81445
 Alpha virt. eigenvalues --    1.82077   1.82412   1.82738   1.83135   1.83713
 Alpha virt. eigenvalues --    1.84310   1.84867   1.85295   1.85714   1.85812
 Alpha virt. eigenvalues --    1.86934   1.87546   1.88258   1.90476   1.90851
 Alpha virt. eigenvalues --    1.91499   1.91919   1.92215   1.92429   1.92707
 Alpha virt. eigenvalues --    1.93197   1.94126   1.94194   1.94479   1.95028
 Alpha virt. eigenvalues --    1.95305   1.95710   1.95900   1.96347   1.96459
 Alpha virt. eigenvalues --    1.96943   1.97083   1.97218   1.98279   1.99245
 Alpha virt. eigenvalues --    2.00600   2.00678   2.00799   2.01003   2.01795
 Alpha virt. eigenvalues --    2.02644   2.02985   2.03713   2.04572   2.04823
 Alpha virt. eigenvalues --    2.05725   2.06463   2.07051   2.07322   2.09333
 Alpha virt. eigenvalues --    2.11153   2.12119   2.12826   2.13871   2.14948
 Alpha virt. eigenvalues --    2.16055   2.17829   2.18796   2.22193   2.22585
 Alpha virt. eigenvalues --    2.23545   2.25483   2.26244   2.27083   2.27512
 Alpha virt. eigenvalues --    2.29841   2.30135   2.31758   2.32835   2.32951
 Alpha virt. eigenvalues --    2.33847   2.34172   2.34484   2.34749   2.34935
 Alpha virt. eigenvalues --    2.35222   2.35588   2.35933   2.36192   2.36746
 Alpha virt. eigenvalues --    2.36979   2.37370   2.37698   2.38197   2.38557
 Alpha virt. eigenvalues --    2.38784   2.38831   2.40193   2.40426   2.40491
 Alpha virt. eigenvalues --    2.41470   2.41731   2.43295   2.45949   2.47368
 Alpha virt. eigenvalues --    2.48760   2.49313   2.50052   2.52509   2.53749
 Alpha virt. eigenvalues --    2.54004   2.54964   2.55110   2.55256   2.56083
 Alpha virt. eigenvalues --    2.56507   2.57178   2.59098   2.59377   2.60345
 Alpha virt. eigenvalues --    2.61825   2.62080   2.62960   2.63945   2.65270
 Alpha virt. eigenvalues --    2.66142   2.67008   2.67897   2.67970   2.68119
 Alpha virt. eigenvalues --    2.68356   2.68942   2.69181   2.69457   2.69687
 Alpha virt. eigenvalues --    2.70535   2.70770   2.72547   2.76504   2.77188
 Alpha virt. eigenvalues --    2.77711   2.78321   2.79521   2.80756   2.81647
 Alpha virt. eigenvalues --    2.82531   2.83903   2.85685   2.86271   2.87392
 Alpha virt. eigenvalues --    2.87715   2.88683   2.89680   2.91836   2.98884
 Alpha virt. eigenvalues --    3.00558   3.00765   3.01892   3.02580   3.04471
 Alpha virt. eigenvalues --    3.05044   3.05551   3.06244   3.06514   3.07297
 Alpha virt. eigenvalues --    3.08278   3.10250   3.12732   3.13046   3.13210
 Alpha virt. eigenvalues --    3.14889   3.15467   3.15763   3.17457   3.17862
 Alpha virt. eigenvalues --    3.18725   3.20046   3.20322   3.20781   3.22456
 Alpha virt. eigenvalues --    3.22907   3.23172   3.24061   3.24135   3.26294
 Alpha virt. eigenvalues --    3.29014   3.31440   3.36002   3.36337   3.36896
 Alpha virt. eigenvalues --    3.39155   3.42348   3.43397   3.44154   3.49408
 Alpha virt. eigenvalues --    3.55346   3.57550   3.58230   3.58398   3.60698
 Alpha virt. eigenvalues --    3.64986   3.73791   3.83185   3.94003   3.96071
 Alpha virt. eigenvalues --   18.77144  19.02328  21.06195  21.21165  21.23524
 Alpha virt. eigenvalues --   21.35016  21.62913  21.70117  21.71125  21.73204
 Alpha virt. eigenvalues --   21.74454  21.75300  21.82157  21.87671  21.91852
 Alpha virt. eigenvalues --   21.93094  21.93657  21.97100  21.99187  21.99784
 Alpha virt. eigenvalues --   22.04810  22.04926  22.08942  22.12181  22.17539
 Alpha virt. eigenvalues --   22.18231  32.05360
          Condensed to atoms (all electrons):
               1          2          3          4          5          6
     1  C    5.813745   0.095717  -0.155055  -0.066488   0.003824  -0.037923
     2  C    0.095717   5.882809   0.434075  -0.059926  -0.012380  -0.010892
     3  S   -0.155055   0.434075  15.551790  -0.100715  -0.134773   0.409441
     4  C   -0.066488  -0.059926  -0.100715   5.988768  -0.003550   0.034500
     5  C    0.003824  -0.012380  -0.134773  -0.003550   5.634261   0.011951
     6  C   -0.037923  -0.010892   0.409441   0.034500   0.011951   5.909884
     7  C    0.085365   0.123204   0.029226  -0.177310  -0.004271  -0.010090
     8  C   -0.399887   0.114305   0.026120  -0.038252  -0.000206  -0.003577
     9  H    0.000987   0.019643   0.000064  -0.033888   0.000007  -0.000008
    10  C   -0.003057   0.001335   0.041898   0.001106  -0.017028   0.203580
    11  C    0.004638  -0.009914  -0.147645  -0.007070   0.244600  -0.136832
    12  C    0.000135  -0.000591   0.047850   0.000489  -0.313033   0.273571
    13  C   -0.000025  -0.002571  -0.014243  -0.000539   0.222187  -0.312525
    14  H    0.000003  -0.000019  -0.000152   0.000003  -0.047176   0.016958
    15  H    0.002790  -0.001357  -0.008557  -0.001831   0.030694  -0.098918
    16  H    0.000052   0.000033  -0.000130   0.000006  -0.003460   0.017256
    17  C    0.218608  -0.206213  -0.006325   0.212300   0.000244   0.002144
    18  H    0.424522  -0.094265  -0.019027   0.008477  -0.002544   0.021195
    19  H    0.001022  -0.000478  -0.002430  -0.000844   0.453284  -0.095622
    20  H   -0.067896   0.024163  -0.000078  -0.002282  -0.000000   0.000028
    21  H   -0.003369   0.031886  -0.000143  -0.121126  -0.000003   0.000017
    22  H    0.024823  -0.004972   0.000001   0.027970   0.000004   0.000007
    23  S    0.034485  -0.151770   0.021105   0.470192   0.000155   0.000117
    24  N   -0.000029  -0.000011  -0.000033  -0.000000   0.016498   0.002442
    25  C    0.000017  -0.000014   0.000019  -0.000001  -0.005559   0.002919
    26  C   -0.000001   0.000001  -0.000000   0.000000  -0.000341   0.000190
    27  C    0.000003  -0.000004   0.000006  -0.000000   0.002938  -0.001180
    28  C   -0.000000   0.000000  -0.000000   0.000000  -0.000053   0.000016
    29  C    0.000000  -0.000000   0.000000  -0.000000   0.000080  -0.000105
    30  C   -0.000000   0.000000   0.000000   0.000000   0.000016  -0.000006
    31  H    0.000000  -0.000000   0.000000  -0.000000   0.000010  -0.000002
    32  H    0.000000  -0.000001   0.000008  -0.000000  -0.000182   0.000937
    33  H    0.000000  -0.000000   0.000000  -0.000000   0.000000  -0.000000
    34  H    0.000000  -0.000000  -0.000000   0.000000  -0.000001  -0.000002
    35  H   -0.000000   0.000000  -0.000000   0.000000  -0.000000  -0.000000
    36  C   -0.000000  -0.000003  -0.000030  -0.000000  -0.003111   0.001130
    37  C    0.000003  -0.000000   0.000002  -0.000000   0.000780   0.000297
    38  C   -0.000166   0.000015  -0.000019   0.000002  -0.006354  -0.001836
    39  C   -0.000000  -0.000000  -0.000000   0.000000   0.000033   0.000024
    40  C   -0.000014   0.000001  -0.000001   0.000000  -0.000557  -0.000143
    41  C    0.000000  -0.000000   0.000000  -0.000000  -0.000058  -0.000002
    42  H   -0.000000   0.000000  -0.000000   0.000000   0.000012  -0.000009
    43  H    0.000089   0.000012  -0.000000  -0.000001  -0.002671   0.000570
    44  H   -0.000000   0.000000  -0.000000   0.000000  -0.000002  -0.000000
    45  H   -0.000000  -0.000000  -0.000000   0.000000   0.000024  -0.000003
    46  H    0.000000  -0.000000   0.000000  -0.000000  -0.000001  -0.000000
               7          8          9         10         11         12
     1  C    0.085365  -0.399887   0.000987  -0.003057   0.004638   0.000135
     2  C    0.123204   0.114305   0.019643   0.001335  -0.009914  -0.000591
     3  S    0.029226   0.026120   0.000064   0.041898  -0.147645   0.047850
     4  C   -0.177310  -0.038252  -0.033888   0.001106  -0.007070   0.000489
     5  C   -0.004271  -0.000206   0.000007  -0.017028   0.244600  -0.313033
     6  C   -0.010090  -0.003577  -0.000008   0.203580  -0.136832   0.273571
     7  C    5.303872   0.244164  -0.001077   0.000737  -0.004648   0.001116
     8  C    0.244164   5.941416  -0.036219  -0.000025   0.000817   0.000027
     9  H   -0.001077  -0.036219   0.622469  -0.000000  -0.000000  -0.000000
    10  C    0.000737  -0.000025  -0.000000   5.686540  -0.301800   0.085897
    11  C   -0.004648   0.000817  -0.000000  -0.301800   5.786147  -0.100672
    12  C    0.001116   0.000027  -0.000000   0.085897  -0.100672   5.769016
    13  C   -0.000254   0.000027   0.000000   0.115753   0.261327   0.071586
    14  H    0.000002  -0.000000  -0.000000   0.413469  -0.003203   0.014230
    15  H   -0.000957  -0.000016   0.000001  -0.009429   0.469135  -0.086709
    16  H    0.000012   0.000000  -0.000000   0.014549  -0.045628   0.412595
    17  C    0.236002  -0.057259   0.006011  -0.000014  -0.000221  -0.000026
    18  H   -0.038737   0.001815   0.000006   0.001482  -0.000587   0.000001
    19  H   -0.000432   0.000019   0.000000  -0.081567   0.037443  -0.012481
    20  H    0.426553   0.021895  -0.000003  -0.000005  -0.000022  -0.000011
    21  H    0.017515   0.447542  -0.000922   0.000000   0.000007   0.000000
    22  H   -0.073030  -0.081578   0.000039  -0.000000   0.000000  -0.000000
    23  S   -0.010233  -0.148215   0.327119   0.000007   0.000102   0.000001
    24  N    0.000002  -0.000000   0.000000  -0.017557   0.015432  -0.020611
    25  C    0.000002   0.000000  -0.000000  -0.002849  -0.006293   0.034128
    26  C   -0.000000  -0.000000   0.000000  -0.011122   0.000959   0.020901
    27  C   -0.000000   0.000000  -0.000000   0.019467  -0.007103  -0.067611
    28  C    0.000000  -0.000000  -0.000000  -0.000233   0.000026   0.002884
    29  C    0.000000   0.000000  -0.000000   0.001175  -0.000871  -0.010695
    30  C   -0.000000  -0.000000   0.000000   0.000020  -0.000014  -0.000370
    31  H    0.000000   0.000000  -0.000000  -0.000279  -0.000017   0.000430
    32  H    0.000000   0.000000   0.000000   0.000156  -0.002567   0.004499
    33  H    0.000000   0.000000  -0.000000   0.000002  -0.000002  -0.000036
    34  H    0.000000   0.000000  -0.000000  -0.000024   0.000019   0.000033
    35  H   -0.000000  -0.000000   0.000000   0.000000  -0.000001  -0.000013
    36  C   -0.000001   0.000000   0.000000   0.020412  -0.002348  -0.009565
    37  C    0.000000   0.000000  -0.000000   0.021980  -0.000565  -0.010308
    38  C    0.000013  -0.000000   0.000000  -0.066154   0.003200   0.016551
    39  C   -0.000000  -0.000000  -0.000000   0.002833  -0.000063  -0.000150
    40  C    0.000000  -0.000000   0.000000  -0.010862   0.000106   0.001023
    41  C    0.000000   0.000000  -0.000000  -0.000119   0.000010   0.000027
    42  H   -0.000000  -0.000000   0.000000   0.000415   0.000026  -0.000362
    43  H    0.000004   0.000000   0.000000   0.005406   0.000204  -0.000573
    44  H   -0.000000  -0.000000   0.000000  -0.000038   0.000000   0.000002
    45  H    0.000000   0.000000  -0.000000  -0.000001   0.000000  -0.000026
    46  H    0.000000   0.000000  -0.000000  -0.000013  -0.000000   0.000000
              13         14         15         16         17         18
     1  C   -0.000025   0.000003   0.002790   0.000052   0.218608   0.424522
     2  C   -0.002571  -0.000019  -0.001357   0.000033  -0.206213  -0.094265
     3  S   -0.014243  -0.000152  -0.008557  -0.000130  -0.006325  -0.019027
     4  C   -0.000539   0.000003  -0.001831   0.000006   0.212300   0.008477
     5  C    0.222187  -0.047176   0.030694  -0.003460   0.000244  -0.002544
     6  C   -0.312525   0.016958  -0.098918   0.017256   0.002144   0.021195
     7  C   -0.000254   0.000002  -0.000957   0.000012   0.236002  -0.038737
     8  C    0.000027  -0.000000  -0.000016   0.000000  -0.057259   0.001815
     9  H    0.000000  -0.000000   0.000001  -0.000000   0.006011   0.000006
    10  C    0.115753   0.413469  -0.009429   0.014549  -0.000014   0.001482
    11  C    0.261327  -0.003203   0.469135  -0.045628  -0.000221  -0.000587
    12  C    0.071586   0.014230  -0.086709   0.412595  -0.000026   0.000001
    13  C    5.646407  -0.051700   0.028279  -0.052848  -0.000011  -0.001571
    14  H   -0.051700   0.514075  -0.000025  -0.000218   0.000000   0.000105
    15  H    0.028279  -0.000025   0.562115  -0.008548   0.000103   0.000611
    16  H   -0.052848  -0.000218  -0.008548   0.511396  -0.000000   0.000029
    17  C   -0.000011   0.000000   0.000103  -0.000000   5.352565   0.010353
    18  H   -0.001571   0.000105   0.000611   0.000029   0.010353   0.534552
    19  H    0.028233  -0.008711   0.000199  -0.000036   0.000014   0.000606
    20  H   -0.000011  -0.000000  -0.000008   0.000000  -0.071277  -0.008711
    21  H    0.000000   0.000000  -0.000000   0.000000  -0.054679   0.000026
    22  H    0.000000  -0.000000   0.000000  -0.000000   0.436031  -0.000325
    23  S    0.000000   0.000000   0.000177  -0.000000   0.041000  -0.000067
    24  N    0.201258  -0.008321  -0.000323  -0.008562   0.000000   0.000028
    25  C   -0.087667  -0.000969  -0.000259   0.005358  -0.000000  -0.000003
    26  C   -0.012911  -0.000264  -0.000028  -0.000227   0.000000   0.000003
    27  C    0.023833   0.000177  -0.000056  -0.001009  -0.000000  -0.000008
    28  C   -0.004217   0.000009  -0.000002   0.000524  -0.000000   0.000000
    29  C    0.003545  -0.000008   0.000011  -0.001454  -0.000000  -0.000000
    30  C    0.001613  -0.000003   0.000001   0.000297   0.000000   0.000000
    31  H   -0.001436  -0.000006  -0.000001   0.000056  -0.000000  -0.000000
    32  H   -0.002398   0.000024  -0.000065   0.001178   0.000000   0.000001
    33  H    0.000011  -0.000000  -0.000000   0.000010  -0.000000  -0.000000
    34  H   -0.000161  -0.000000  -0.000000  -0.000025  -0.000000   0.000000
    35  H    0.000014   0.000000   0.000000   0.000004   0.000000   0.000000
    36  C   -0.069491   0.004479   0.000068  -0.001433  -0.000000  -0.000071
    37  C   -0.016253  -0.000319  -0.000001  -0.000219  -0.000000  -0.000005
    38  C    0.026045  -0.001057  -0.000007   0.000164   0.000000   0.000225
    39  C   -0.004125   0.000544   0.000000   0.000011   0.000000   0.000000
    40  C    0.004571  -0.001394  -0.000000  -0.000005   0.000000   0.000030
    41  C    0.001245   0.000381  -0.000000  -0.000002  -0.000000  -0.000000
    42  H   -0.001438   0.000021   0.000000  -0.000011   0.000000  -0.000000
    43  H   -0.002266   0.001022  -0.000000  -0.000011  -0.000000   0.000108
    44  H    0.000017   0.000009  -0.000000  -0.000000   0.000000   0.000000
    45  H   -0.000140  -0.000029   0.000000  -0.000000  -0.000000  -0.000001
    46  H    0.000014   0.000005  -0.000000   0.000000  -0.000000  -0.000000
              19         20         21         22         23         24
     1  C    0.001022  -0.067896  -0.003369   0.024823   0.034485  -0.000029
     2  C   -0.000478   0.024163   0.031886  -0.004972  -0.151770  -0.000011
     3  S   -0.002430  -0.000078  -0.000143   0.000001   0.021105  -0.000033
     4  C   -0.000844  -0.002282  -0.121126   0.027970   0.470192  -0.000000
     5  C    0.453284  -0.000000  -0.000003   0.000004   0.000155   0.016498
     6  C   -0.095622   0.000028   0.000017   0.000007   0.000117   0.002442
     7  C   -0.000432   0.426553   0.017515  -0.073030  -0.010233   0.000002
     8  C    0.000019   0.021895   0.447542  -0.081578  -0.148215  -0.000000
     9  H    0.000000  -0.000003  -0.000922   0.000039   0.327119   0.000000
    10  C   -0.081567  -0.000005   0.000000  -0.000000   0.000007  -0.017557
    11  C    0.037443  -0.000022   0.000007   0.000000   0.000102   0.015432
    12  C   -0.012481  -0.000011   0.000000  -0.000000   0.000001  -0.020611
    13  C    0.028233  -0.000011   0.000000   0.000000   0.000000   0.201258
    14  H   -0.008711  -0.000000   0.000000  -0.000000   0.000000  -0.008321
    15  H    0.000199  -0.000008  -0.000000   0.000000   0.000177  -0.000323
    16  H   -0.000036   0.000000   0.000000  -0.000000  -0.000000  -0.008562
    17  C    0.000014  -0.071277  -0.054679   0.436031   0.041000   0.000000
    18  H    0.000606  -0.008711   0.000026  -0.000325  -0.000067   0.000028
    19  H    0.565674  -0.000000   0.000000  -0.000000  -0.000008  -0.000359
    20  H   -0.000000   0.585356  -0.000336  -0.009326  -0.000024   0.000000
    21  H    0.000000  -0.000336   0.605033  -0.010407  -0.017727   0.000000
    22  H   -0.000000  -0.009326  -0.010407   0.588039  -0.000051   0.000000
    23  S   -0.000008  -0.000024  -0.017727  -0.000051  15.484249   0.000000
    24  N   -0.000359   0.000000   0.000000   0.000000   0.000000   6.521942
    25  C    0.000019  -0.000000   0.000000  -0.000000  -0.000000   0.146851
    26  C    0.000002   0.000000  -0.000000   0.000000   0.000000  -0.006870
    27  C   -0.000020   0.000000   0.000000  -0.000000  -0.000000  -0.008268
    28  C    0.000000   0.000000  -0.000000   0.000000  -0.000000   0.014225
    29  C   -0.000001  -0.000000   0.000000  -0.000000  -0.000000   0.015031
    30  C    0.000000   0.000000  -0.000000   0.000000   0.000000   0.005820
    31  H   -0.000000   0.000000   0.000000  -0.000000  -0.000000  -0.007672
    32  H   -0.000008  -0.000000   0.000000  -0.000000   0.000000  -0.006295
    33  H   -0.000000  -0.000000   0.000000  -0.000000  -0.000000  -0.000614
    34  H    0.000000  -0.000000   0.000000  -0.000000   0.000000  -0.000642
    35  H    0.000000   0.000000  -0.000000   0.000000   0.000000  -0.000048
    36  C   -0.000046   0.000000   0.000000  -0.000000   0.000000   0.148317
    37  C   -0.000040   0.000000   0.000000  -0.000000  -0.000000  -0.007818
    38  C    0.000071  -0.000001  -0.000000   0.000000   0.000000  -0.005085
    39  C   -0.000002  -0.000000  -0.000000   0.000000   0.000000   0.013624
    40  C    0.000031  -0.000000  -0.000000   0.000000   0.000000   0.014488
    41  C   -0.000004   0.000000   0.000000  -0.000000  -0.000000   0.005956
    42  H    0.000000   0.000000   0.000000   0.000000  -0.000000  -0.007545
    43  H   -0.000070   0.000008   0.000000  -0.000000  -0.000000  -0.007309
    44  H    0.000000  -0.000000  -0.000000   0.000000   0.000000  -0.000616
    45  H    0.000000   0.000000  -0.000000   0.000000   0.000000  -0.000626
    46  H   -0.000000   0.000000   0.000000  -0.000000  -0.000000  -0.000048
              25         26         27         28         29         30
     1  C    0.000017  -0.000001   0.000003  -0.000000   0.000000  -0.000000
     2  C   -0.000014   0.000001  -0.000004   0.000000  -0.000000   0.000000
     3  S    0.000019  -0.000000   0.000006  -0.000000   0.000000   0.000000
     4  C   -0.000001   0.000000  -0.000000   0.000000  -0.000000   0.000000
     5  C   -0.005559  -0.000341   0.002938  -0.000053   0.000080   0.000016
     6  C    0.002919   0.000190  -0.001180   0.000016  -0.000105  -0.000006
     7  C    0.000002  -0.000000  -0.000000   0.000000   0.000000  -0.000000
     8  C    0.000000  -0.000000   0.000000  -0.000000   0.000000  -0.000000
     9  H   -0.000000   0.000000  -0.000000  -0.000000  -0.000000   0.000000
    10  C   -0.002849  -0.011122   0.019467  -0.000233   0.001175   0.000020
    11  C   -0.006293   0.000959  -0.007103   0.000026  -0.000871  -0.000014
    12  C    0.034128   0.020901  -0.067611   0.002884  -0.010695  -0.000370
    13  C   -0.087667  -0.012911   0.023833  -0.004217   0.003545   0.001613
    14  H   -0.000969  -0.000264   0.000177   0.000009  -0.000008  -0.000003
    15  H   -0.000259  -0.000028  -0.000056  -0.000002   0.000011   0.000001
    16  H    0.005358  -0.000227  -0.001009   0.000524  -0.001454   0.000297
    17  C   -0.000000   0.000000  -0.000000  -0.000000  -0.000000   0.000000
    18  H   -0.000003   0.000003  -0.000008   0.000000  -0.000000   0.000000
    19  H    0.000019   0.000002  -0.000020   0.000000  -0.000001   0.000000
    20  H   -0.000000   0.000000   0.000000   0.000000  -0.000000   0.000000
    21  H    0.000000  -0.000000   0.000000  -0.000000   0.000000  -0.000000
    22  H   -0.000000   0.000000  -0.000000   0.000000  -0.000000   0.000000
    23  S   -0.000000   0.000000  -0.000000  -0.000000  -0.000000   0.000000
    24  N    0.146851  -0.006870  -0.008268   0.014225   0.015031   0.005820
    25  C    5.492826   0.353440   0.347104   0.020586   0.018134  -0.102567
    26  C    0.353440   5.208710  -0.039764   0.364057  -0.140775  -0.018904
    27  C    0.347104  -0.039764   5.254183  -0.137066   0.357227  -0.020775
    28  C    0.020586   0.364057  -0.137066   5.086200   0.033374   0.426291
    29  C    0.018134  -0.140775   0.357227   0.033374   5.087552   0.430173
    30  C   -0.102567  -0.018904  -0.020775   0.426291   0.430173   5.055115
    31  H   -0.036373   0.404038   0.013738  -0.048191  -0.001924   0.010994
    32  H   -0.037928   0.013289   0.401169  -0.001677  -0.040997   0.010432
    33  H    0.018901  -0.052797  -0.002594   0.418837   0.016988  -0.068258
    34  H    0.018332  -0.002404  -0.051575   0.016636   0.417504  -0.067181
    35  H   -0.008319   0.024584   0.025171  -0.071173  -0.070808   0.432935
    36  C   -0.095728   0.032981  -0.007164  -0.003199  -0.006405   0.003004
    37  C    0.030838  -0.057668   0.010320  -0.005068   0.004719  -0.001567
    38  C   -0.004635   0.008612  -0.009296   0.000784  -0.000197   0.000030
    39  C   -0.003962  -0.004356   0.000816  -0.000191   0.000106  -0.000061
    40  C   -0.006602   0.005085  -0.000281   0.000141  -0.000078   0.000034
    41  C    0.003261  -0.001868   0.000064  -0.000077   0.000036  -0.000021
    42  H    0.004508   0.001189  -0.001690  -0.001574   0.000603   0.000421
    43  H   -0.001140   0.000377  -0.000259  -0.000015   0.000019  -0.000007
    44  H   -0.000250   0.000142  -0.000040   0.000024  -0.000005   0.000001
    45  H   -0.000008  -0.000018   0.000001  -0.000002   0.000000   0.000000
    46  H    0.000023  -0.000024   0.000001  -0.000001   0.000000  -0.000000
              31         32         33         34         35         36
     1  C    0.000000   0.000000   0.000000   0.000000  -0.000000  -0.000000
     2  C   -0.000000  -0.000001  -0.000000  -0.000000   0.000000  -0.000003
     3  S    0.000000   0.000008   0.000000  -0.000000  -0.000000  -0.000030
     4  C   -0.000000  -0.000000  -0.000000   0.000000   0.000000  -0.000000
     5  C    0.000010  -0.000182   0.000000  -0.000001  -0.000000  -0.003111
     6  C   -0.000002   0.000937  -0.000000  -0.000002  -0.000000   0.001130
     7  C    0.000000   0.000000   0.000000   0.000000  -0.000000  -0.000001
     8  C    0.000000   0.000000   0.000000   0.000000  -0.000000   0.000000
     9  H   -0.000000   0.000000  -0.000000  -0.000000   0.000000   0.000000
    10  C   -0.000279   0.000156   0.000002  -0.000024   0.000000   0.020412
    11  C   -0.000017  -0.002567  -0.000002   0.000019  -0.000001  -0.002348
    12  C    0.000430   0.004499  -0.000036   0.000033  -0.000013  -0.009565
    13  C   -0.001436  -0.002398   0.000011  -0.000161   0.000014  -0.069491
    14  H   -0.000006   0.000024  -0.000000  -0.000000   0.000000   0.004479
    15  H   -0.000001  -0.000065  -0.000000  -0.000000   0.000000   0.000068
    16  H    0.000056   0.001178   0.000010  -0.000025   0.000004  -0.001433
    17  C   -0.000000   0.000000  -0.000000  -0.000000   0.000000  -0.000000
    18  H   -0.000000   0.000001  -0.000000   0.000000   0.000000  -0.000071
    19  H   -0.000000  -0.000008  -0.000000   0.000000   0.000000  -0.000046
    20  H    0.000000  -0.000000  -0.000000  -0.000000   0.000000   0.000000
    21  H    0.000000   0.000000   0.000000   0.000000  -0.000000   0.000000
    22  H   -0.000000  -0.000000  -0.000000  -0.000000   0.000000  -0.000000
    23  S   -0.000000   0.000000  -0.000000   0.000000   0.000000   0.000000
    24  N   -0.007672  -0.006295  -0.000614  -0.000642  -0.000048   0.148317
    25  C   -0.036373  -0.037928   0.018901   0.018332  -0.008319  -0.095728
    26  C    0.404038   0.013289  -0.052797  -0.002404   0.024584   0.032981
    27  C    0.013738   0.401169  -0.002594  -0.051575   0.025171  -0.007164
    28  C   -0.048191  -0.001677   0.418837   0.016636  -0.071173  -0.003199
    29  C   -0.001924  -0.040997   0.016988   0.417504  -0.070808  -0.006405
    30  C    0.010994   0.010432  -0.068258  -0.067181   0.432935   0.003004
    31  H    0.526392  -0.000238  -0.007473   0.000013  -0.000084   0.003918
    32  H   -0.000238   0.516683   0.000010  -0.007266  -0.000083  -0.001479
    33  H   -0.007473   0.000010   0.578531  -0.000215  -0.008852  -0.000249
    34  H    0.000013  -0.007266  -0.000215   0.577031  -0.008751  -0.000005
    35  H   -0.000084  -0.000083  -0.008852  -0.008751   0.577830   0.000024
    36  C    0.003918  -0.001479  -0.000249  -0.000005   0.000024   5.502780
    37  C    0.001601   0.000633   0.000133  -0.000025  -0.000024   0.345273
    38  C   -0.001514  -0.000340  -0.000037   0.000002   0.000001   0.337398
    39  C   -0.001650   0.000001   0.000023  -0.000002  -0.000001   0.025427
    40  C    0.000464   0.000016  -0.000005   0.000000   0.000000   0.029725
    41  C    0.000466  -0.000007   0.000001   0.000000  -0.000000  -0.106973
    42  H    0.000867   0.000081  -0.000037   0.000004   0.000002  -0.036300
    43  H    0.000118  -0.000009   0.000000  -0.000000  -0.000000  -0.036709
    44  H   -0.000039   0.000000  -0.000000  -0.000000   0.000000   0.019276
    45  H    0.000002  -0.000000  -0.000000  -0.000000  -0.000000   0.018671
    46  H    0.000002  -0.000000   0.000000  -0.000000  -0.000000  -0.008631
              37         38         39         40         41         42
     1  C    0.000003  -0.000166  -0.000000  -0.000014   0.000000  -0.000000
     2  C   -0.000000   0.000015  -0.000000   0.000001  -0.000000   0.000000
     3  S    0.000002  -0.000019  -0.000000  -0.000001   0.000000  -0.000000
     4  C   -0.000000   0.000002   0.000000   0.000000  -0.000000   0.000000
     5  C    0.000780  -0.006354   0.000033  -0.000557  -0.000058   0.000012
     6  C    0.000297  -0.001836   0.000024  -0.000143  -0.000002  -0.000009
     7  C    0.000000   0.000013  -0.000000   0.000000   0.000000  -0.000000
     8  C    0.000000  -0.000000  -0.000000  -0.000000   0.000000  -0.000000
     9  H   -0.000000   0.000000  -0.000000   0.000000  -0.000000   0.000000
    10  C    0.021980  -0.066154   0.002833  -0.010862  -0.000119   0.000415
    11  C   -0.000565   0.003200  -0.000063   0.000106   0.000010   0.000026
    12  C   -0.010308   0.016551  -0.000150   0.001023   0.000027  -0.000362
    13  C   -0.016253   0.026045  -0.004125   0.004571   0.001245  -0.001438
    14  H   -0.000319  -0.001057   0.000544  -0.001394   0.000381   0.000021
    15  H   -0.000001  -0.000007   0.000000  -0.000000  -0.000000   0.000000
    16  H   -0.000219   0.000164   0.000011  -0.000005  -0.000002  -0.000011
    17  C   -0.000000   0.000000   0.000000   0.000000  -0.000000   0.000000
    18  H   -0.000005   0.000225   0.000000   0.000030  -0.000000  -0.000000
    19  H   -0.000040   0.000071  -0.000002   0.000031  -0.000004   0.000000
    20  H    0.000000  -0.000001  -0.000000  -0.000000   0.000000   0.000000
    21  H    0.000000  -0.000000  -0.000000  -0.000000   0.000000   0.000000
    22  H   -0.000000   0.000000   0.000000   0.000000  -0.000000   0.000000
    23  S   -0.000000   0.000000   0.000000   0.000000  -0.000000  -0.000000
    24  N   -0.007818  -0.005085   0.013624   0.014488   0.005956  -0.007545
    25  C    0.030838  -0.004635  -0.003962  -0.006602   0.003261   0.004508
    26  C   -0.057668   0.008612  -0.004356   0.005085  -0.001868   0.001189
    27  C    0.010320  -0.009296   0.000816  -0.000281   0.000064  -0.001690
    28  C   -0.005068   0.000784  -0.000191   0.000141  -0.000077  -0.001574
    29  C    0.004719  -0.000197   0.000106  -0.000078   0.000036   0.000603
    30  C   -0.001567   0.000030  -0.000061   0.000034  -0.000021   0.000421
    31  H    0.001601  -0.001514  -0.001650   0.000464   0.000466   0.000867
    32  H    0.000633  -0.000340   0.000001   0.000016  -0.000007   0.000081
    33  H    0.000133  -0.000037   0.000023  -0.000005   0.000001  -0.000037
    34  H   -0.000025   0.000002  -0.000002   0.000000   0.000000   0.000004
    35  H   -0.000024   0.000001  -0.000001   0.000000  -0.000000   0.000002
    36  C    0.345273   0.337398   0.025427   0.029725  -0.106973  -0.036300
    37  C    5.212685  -0.032558   0.361182  -0.146608  -0.015915   0.403896
    38  C   -0.032558   5.261970  -0.142288   0.344909  -0.014060   0.013857
    39  C    0.361182  -0.142288   5.088754   0.038712   0.423314  -0.048142
    40  C   -0.146608   0.344909   0.038712   5.102349   0.423725  -0.001971
    41  C   -0.015915  -0.014060   0.423314   0.423725   5.055932   0.011008
    42  H    0.403896   0.013857  -0.048142  -0.001971   0.011008   0.525095
    43  H    0.013857   0.398113  -0.001673  -0.043451   0.010328  -0.000244
    44  H   -0.053183  -0.002913   0.419498   0.017420  -0.068967  -0.007463
    45  H   -0.002519  -0.053061   0.016799   0.418348  -0.066793   0.000012
    46  H    0.024934   0.025816  -0.071836  -0.072297   0.434282  -0.000079
              43         44         45         46
     1  C    0.000089  -0.000000  -0.000000   0.000000
     2  C    0.000012   0.000000  -0.000000  -0.000000
     3  S   -0.000000  -0.000000  -0.000000   0.000000
     4  C   -0.000001   0.000000   0.000000  -0.000000
     5  C   -0.002671  -0.000002   0.000024  -0.000001
     6  C    0.000570  -0.000000  -0.000003  -0.000000
     7  C    0.000004  -0.000000   0.000000   0.000000
     8  C    0.000000  -0.000000   0.000000   0.000000
     9  H    0.000000   0.000000  -0.000000  -0.000000
    10  C    0.005406  -0.000038  -0.000001  -0.000013
    11  C    0.000204   0.000000   0.000000  -0.000000
    12  C   -0.000573   0.000002  -0.000026   0.000000
    13  C   -0.002266   0.000017  -0.000140   0.000014
    14  H    0.001022   0.000009  -0.000029   0.000005
    15  H   -0.000000  -0.000000   0.000000  -0.000000
    16  H   -0.000011  -0.000000  -0.000000   0.000000
    17  C   -0.000000   0.000000  -0.000000  -0.000000
    18  H    0.000108   0.000000  -0.000001  -0.000000
    19  H   -0.000070   0.000000   0.000000  -0.000000
    20  H    0.000008  -0.000000   0.000000   0.000000
    21  H    0.000000  -0.000000  -0.000000   0.000000
    22  H   -0.000000   0.000000   0.000000  -0.000000
    23  S   -0.000000   0.000000   0.000000  -0.000000
    24  N   -0.007309  -0.000616  -0.000626  -0.000048
    25  C   -0.001140  -0.000250  -0.000008   0.000023
    26  C    0.000377   0.000142  -0.000018  -0.000024
    27  C   -0.000259  -0.000040   0.000001   0.000001
    28  C   -0.000015   0.000024  -0.000002  -0.000001
    29  C    0.000019  -0.000005   0.000000   0.000000
    30  C   -0.000007   0.000001   0.000000  -0.000000
    31  H    0.000118  -0.000039   0.000002   0.000002
    32  H   -0.000009   0.000000  -0.000000  -0.000000
    33  H    0.000000  -0.000000  -0.000000   0.000000
    34  H   -0.000000  -0.000000  -0.000000  -0.000000
    35  H   -0.000000   0.000000  -0.000000  -0.000000
    36  C   -0.036709   0.019276   0.018671  -0.008631
    37  C    0.013857  -0.053183  -0.002519   0.024934
    38  C    0.398113  -0.002913  -0.053061   0.025816
    39  C   -0.001673   0.419498   0.016799  -0.071836
    40  C   -0.043451   0.017420   0.418348  -0.072297
    41  C    0.010328  -0.068967  -0.066793   0.434282
    42  H   -0.000244  -0.007463   0.000012  -0.000079
    43  H    0.520368   0.000004  -0.007333  -0.000071
    44  H    0.000004   0.578363  -0.000211  -0.008906
    45  H   -0.007333  -0.000211   0.578677  -0.008886
    46  H   -0.000071  -0.008906  -0.008886   0.578308
 Mulliken charges:
               1
     1  C    0.023085
     2  C   -0.171818
     3  S    0.027751
     4  C   -0.129989
     5  C   -0.064290
     6  C   -0.199497
     7  C   -0.146748
     8  C   -0.032914
     9  H    0.095772
    10  C   -0.116045
    11  C   -0.046113
    12  C   -0.123145
    13  C    0.002835
    14  H    0.158058
    15  H    0.122914
    16  H    0.160299
    17  C   -0.119348
    18  H    0.161749
    19  H    0.116544
    20  H    0.101991
    21  H    0.106687
    22  H    0.102777
    23  S   -0.050614
    24  N   -0.006652
    25  C   -0.096135
    26  C   -0.088217
    27  C   -0.100454
    28  C   -0.111874
    29  C   -0.111954
    30  C   -0.097463
    31  H    0.143790
    32  H    0.152421
    33  H    0.107722
    34  H    0.108706
    35  H    0.107591
    36  C   -0.103940
    37  C   -0.082467
    38  C   -0.096196
    39  C   -0.113199
    40  C   -0.116909
    41  C   -0.095171
    42  H    0.144849
    43  H    0.153206
    44  H    0.107878
    45  H    0.107123
    46  H    0.107407
 Sum of Mulliken charges =  -0.00000
 Mulliken charges with hydrogens summed into heavy atoms:
               1
     1  C    0.184833
     2  C   -0.171818
     3  S    0.027751
     4  C   -0.129989
     5  C    0.052254
     6  C   -0.199497
     7  C   -0.044758
     8  C    0.073773
    10  C    0.042013
    11  C    0.076801
    12  C    0.037154
    13  C    0.002835
    17  C   -0.016571
    23  S    0.045158
    24  N   -0.006652
    25  C   -0.096135
    26  C    0.055573
    27  C    0.051967
    28  C   -0.004152
    29  C   -0.003249
    30  C    0.010128
    36  C   -0.103940
    37  C    0.062382
    38  C    0.057010
    39  C   -0.005322
    40  C   -0.009786
    41  C    0.012236
 Electronic spatial extent (au):  <R**2>=          15344.0341
 Charge=             -0.0000 electrons
 Dipole moment (field-independent basis, Debye):
    X=              2.2465    Y=              1.2600    Z=              1.4796  Tot=              2.9705
 Quadrupole moment (field-independent basis, Debye-Ang):
   XX=           -154.1067   YY=           -162.9704   ZZ=           -171.6263
   XY=             -5.5762   XZ=             -6.8408   YZ=              1.2104
 Traceless Quadrupole moment (field-independent basis, Debye-Ang):
   XX=              8.7944   YY=             -0.0692   ZZ=             -8.7252
   XY=             -5.5762   XZ=             -6.8408   YZ=              1.2104
 Octapole moment (field-independent basis, Debye-Ang**2):
  XXX=            -99.9348  YYY=              4.9828  ZZZ=              3.0527  XYY=             51.0657
  XXY=             13.6435  XXZ=             44.9037  XZZ=              9.2232  YZZ=              6.7338
  YYZ=              6.2968  XYZ=            -20.4275
 Hexadecapole moment (field-independent basis, Debye-Ang**3):
 XXXX=         -14781.5982 YYYY=          -3408.4603 ZZZZ=          -1257.7493 XXXY=            -33.0521
 XXXZ=           -172.8880 YYYX=             -7.0471 YYYZ=             43.6562 ZZZX=              9.3803
 ZZZY=             24.0911 XXYY=          -3252.1533 XXZZ=          -2964.7281 YYZZ=           -807.6232
 XXYZ=            -29.8339 YYXZ=            -34.0704 ZZXY=            -60.4861
 N-N= 2.474684767360D+03 E-N=-9.117317655482D+03  KE= 1.769770273127D+03
 No NMR shielding tensors so no spin-rotation constants.
 Leave Link  601 at Tue Jan 19 00:05:30 2021, MaxMem=  4026531840 cpu:               4.6 elap:               0.8
 (Enter /opt/ohpc/pub/libs/gaussian/g16-A.03/sandybridge/g16/l9999.exe)

 Test job not archived.
 1\1\GINC-CASCADEB058\SP\RLC-wHPBE\TZVP\C24H19N1S2\RDU230\19-Jan-2021\0
 \\#P LC-wHPBE/TZVP iop(3/107=0198600000, 3/108=0198600000) scf=(conver
 =6,fermi,ndamp=35,noincfock,novaracc,vshift=500,xqc)\\H19 C24 S2 N1\\0
 ,1\C,0,-3.352046,1.022081,0.90149\C,0,-4.015603,0.124147,0.077833\S,0,
 -3.193622,-0.833868,-1.176213\C,0,-5.398593,-0.028228,0.207342\C,0,-0.
 749106,0.373785,-1.531691\C,0,-1.475477,-0.56699,-0.815552\C,0,-4.0415
 16,1.761821,1.844012\C,0,-6.080951,0.720801,1.156415\H,0,-7.475944,-0.
 835079,-0.458792\C,0,0.601771,0.54717,-1.299188\C,0,-0.823428,-1.33634
 6,0.139234\C,0,0.521569,-1.15492,0.389409\C,0,1.255724,-0.212476,-0.33
 1046\H,0,1.160253,1.275483,-1.876291\H,0,-1.383265,-2.076857,0.700814\
 H,0,1.015474,-1.752114,1.147605\C,0,-5.411167,1.613701,1.970885\H,0,-2
 .279577,1.141824,0.800598\H,0,-1.248138,0.967582,-2.290346\H,0,-3.5032
 27,2.458074,2.478369\H,0,-7.154267,0.598627,1.263844\H,0,-5.962434,2.1
 89124,2.706912\S,0,-6.238224,-1.192989,-0.835805\N,0,2.627173,-0.03758
 6,-0.087724\C,0,3.438312,-1.140752,0.276409\C,0,4.374889,-1.012928,1.2
 95896\C,0,3.317625,-2.35655,-0.387733\C,0,5.1794,-2.084309,1.64001\C,0
 ,4.112866,-3.428755,-0.025756\C,0,5.049979,-3.298472,0.986151\H,0,4.47
 0709,-0.064848,1.814448\H,0,2.593785,-2.456724,-1.189607\H,0,5.90745,-
 1.970366,2.436839\H,0,4.006805,-4.37257,-0.551042\H,0,5.67733,-4.13910
 6,1.26285\C,0,3.224517,1.239724,-0.221989\C,0,4.446224,1.376745,-0.871
 25\C,0,2.604731,2.367846,0.304633\C,0,5.03746,2.622109,-0.986244\C,0,3
 .193018,3.612223,0.169883\C,0,4.413292,3.746533,-0.472133\H,0,4.931907
 ,0.498005,-1.282066\H,0,1.656156,2.262505,0.820378\H,0,5.992055,2.7142
 7,-1.494403\H,0,2.697309,4.484427,0.584059\H,0,4.876004,4.72281,-0.569
 917\\Version=EM64L-G16RevA.03\State=1-A\HF=-1776.2377423\RMSD=6.870e-0
 7\Dipole=0.8838591,0.4957231,0.5821019\Quadrupole=6.5384398,-0.0514794
 ,-6.4869604,-4.1457552,-5.0859806,0.8998669\PG=C01 [X(C24H19N1S2)]\\@


 IF THE FACTS DO NOT CONFORM TO THE THEORY, THEY MUST BE DISPOSED OF.
 Job cpu time:       0 days  1 hours 39 minutes 38.0 seconds.
 Elapsed time:       0 days  0 hours 12 minutes 30.5 seconds.
 File lengths (MBytes):  RWF=    172 Int=      0 D2E=      0 Chk=     28 Scr=      8
 Normal termination of Gaussian 16 at Tue Jan 19 00:05:30 2021.
