 Entering Gaussian System, Link 0=g16
 Input=mol_ta_pa_half_tune_c9.gjf
 Output=mol_ta_pa_half_tune_c9.log
 Initial command:
 /opt/ohpc/pub/libs/gaussian/g16-A.03/sandybridge/g16/l1.exe "/mnt/gpfs2_4m/scratch/rdu230/ondemand/projects/init_structures/wtuning/mol_ta_pa_half/tuning_mol_ta_pa_half_ocycle0/Gau-33804.inp" -scrdir="/mnt/gpfs2_4m/scratch/rdu230/ondemand/projects/init_structures/wtuning/mol_ta_pa_half/tuning_mol_ta_pa_half_ocycle0/"
 Entering Link 1 = /opt/ohpc/pub/libs/gaussian/g16-A.03/sandybridge/g16/l1.exe PID=     33805.
  
 Copyright (c) 1988,1990,1992,1993,1995,1998,2003,2009,2016,
            Gaussian, Inc.  All Rights Reserved.
  
 This is part of the Gaussian(R) 16 program.  It is based on
 the Gaussian(R) 09 system (copyright 2009, Gaussian, Inc.),
 the Gaussian(R) 03 system (copyright 2003, Gaussian, Inc.),
 the Gaussian(R) 98 system (copyright 1998, Gaussian, Inc.),
 the Gaussian(R) 94 system (copyright 1995, Gaussian, Inc.),
 the Gaussian 92(TM) system (copyright 1992, Gaussian, Inc.),
 the Gaussian 90(TM) system (copyright 1990, Gaussian, Inc.),
 the Gaussian 88(TM) system (copyright 1988, Gaussian, Inc.),
 the Gaussian 86(TM) system (copyright 1986, Carnegie Mellon
 University), and the Gaussian 82(TM) system (copyright 1983,
 Carnegie Mellon University). Gaussian is a federally registered
 trademark of Gaussian, Inc.
  
 This software contains proprietary and confidential information,
 including trade secrets, belonging to Gaussian, Inc.
  
 This software is provided under written license and may be
 used, copied, transmitted, or stored only in accord with that
 written license.
  
 The following legend is applicable only to US Government
 contracts under FAR:
  
                    RESTRICTED RIGHTS LEGEND
  
 Use, reproduction and disclosure by the US Government is
 subject to restrictions as set forth in subparagraphs (a)
 and (c) of the Commercial Computer Software - Restricted
 Rights clause in FAR 52.227-19.
  
 Gaussian, Inc.
 340 Quinnipiac St., Bldg. 40, Wallingford CT 06492
  
  
 ---------------------------------------------------------------
 Warning -- This program may not be used in any manner that
 competes with the business of Gaussian, Inc. or will provide
 assistance to any competitor of Gaussian, Inc.  The licensee
 of this program is prohibited from giving any competitor of
 Gaussian, Inc. access to this program.  By using this program,
 the user acknowledges that Gaussian, Inc. is engaged in the
 business of creating and licensing software in the field of
 computational chemistry and represents and warrants to the
 licensee that it is not a competitor of Gaussian, Inc. and that
 it will not use this program in any manner prohibited above.
 ---------------------------------------------------------------
  

 Cite this work as:
 Gaussian 16, Revision A.03,
 M. J. Frisch, G. W. Trucks, H. B. Schlegel, G. E. Scuseria, 
 M. A. Robb, J. R. Cheeseman, G. Scalmani, V. Barone, 
 G. A. Petersson, H. Nakatsuji, X. Li, M. Caricato, A. V. Marenich, 
 J. Bloino, B. G. Janesko, R. Gomperts, B. Mennucci, H. P. Hratchian, 
 J. V. Ortiz, A. F. Izmaylov, J. L. Sonnenberg, D. Williams-Young, 
 F. Ding, F. Lipparini, F. Egidi, J. Goings, B. Peng, A. Petrone, 
 T. Henderson, D. Ranasinghe, V. G. Zakrzewski, J. Gao, N. Rega, 
 G. Zheng, W. Liang, M. Hada, M. Ehara, K. Toyota, R. Fukuda, 
 J. Hasegawa, M. Ishida, T. Nakajima, Y. Honda, O. Kitao, H. Nakai, 
 T. Vreven, K. Throssell, J. A. Montgomery, Jr., J. E. Peralta, 
 F. Ogliaro, M. J. Bearpark, J. J. Heyd, E. N. Brothers, K. N. Kudin, 
 V. N. Staroverov, T. A. Keith, R. Kobayashi, J. Normand, 
 K. Raghavachari, A. P. Rendell, J. C. Burant, S. S. Iyengar, 
 J. Tomasi, M. Cossi, J. M. Millam, M. Klene, C. Adamo, R. Cammi, 
 J. W. Ochterski, R. L. Martin, K. Morokuma, O. Farkas, 
 J. B. Foresman, and D. J. Fox, Gaussian, Inc., Wallingford CT, 2016.
 
 ******************************************
 Gaussian 16:  EM64L-G16RevA.03 25-Dec-2016
                19-Jan-2021 
 ******************************************
 %mem=30GB
 %nproc=8
 Will use up to    8 processors via shared memory.
 ----------------------------------------------------------------------
 #P LC-wHPBE/TZVP iop(3/107=0181000000, 3/108=0181000000) scf=(conver=6
 ,fermi,ndamp=35,noincfock,novaracc,vshift=500,xqc)
 ----------------------------------------------------------------------
 1/38=1,172=1/1;
 2/12=2,17=6,18=5,40=1/2;
 3/5=19,7=101,11=2,25=1,30=1,74=-71,107=181000000,108=181000000/1,2,3;
 4//1;
 5/5=100002,6=6,8=3,10=500,13=1,18=-1,22=13,38=1,93=35/2,8;
 6/7=2,8=2,9=2,10=2,28=1/1;
 99/5=1,9=1/99;
 Leave Link    1 at Tue Jan 19 08:56:43 2021, MaxMem=  4026531840 cpu:               0.7 elap:               0.2
 (Enter /opt/ohpc/pub/libs/gaussian/g16-A.03/sandybridge/g16/l101.exe)
 -------------
 H19 C24 S2 N1
 -------------
 Symbolic Z-matrix:
 Charge =  1 Multiplicity = 2
 C                    -3.35205   1.02208   0.90149 
 C                    -4.0156    0.12415   0.07783 
 S                    -3.19362  -0.83387  -1.17621 
 C                    -5.39859  -0.02823   0.20734 
 C                    -0.74911   0.37379  -1.53169 
 C                    -1.47548  -0.56699  -0.81555 
 C                    -4.04152   1.76182   1.84401 
 C                    -6.08095   0.7208    1.15641 
 H                    -7.47594  -0.83508  -0.45879 
 C                     0.60177   0.54717  -1.29919 
 C                    -0.82343  -1.33635   0.13923 
 C                     0.52157  -1.15492   0.38941 
 C                     1.25572  -0.21248  -0.33105 
 H                     1.16025   1.27548  -1.87629 
 H                    -1.38327  -2.07686   0.70081 
 H                     1.01547  -1.75211   1.1476 
 C                    -5.41117   1.6137    1.97089 
 H                    -2.27958   1.14182   0.8006 
 H                    -1.24814   0.96758  -2.29035 
 H                    -3.50323   2.45807   2.47837 
 H                    -7.15427   0.59863   1.26384 
 H                    -5.96243   2.18912   2.70691 
 S                    -6.23822  -1.19299  -0.83581 
 N                     2.62717  -0.03759  -0.08772 
 C                     3.43831  -1.14075   0.27641 
 C                     4.37489  -1.01293   1.2959 
 C                     3.31763  -2.35655  -0.38773 
 C                     5.1794   -2.08431   1.64001 
 C                     4.11287  -3.42876  -0.02576 
 C                     5.04998  -3.29847   0.98615 
 H                     4.47071  -0.06485   1.81445 
 H                     2.59379  -2.45672  -1.18961 
 H                     5.90745  -1.97037   2.43684 
 H                     4.0068   -4.37257  -0.55104 
 H                     5.67733  -4.13911   1.26285 
 C                     3.22452   1.23972  -0.22199 
 C                     4.44622   1.37675  -0.87125 
 C                     2.60473   2.36785   0.30463 
 C                     5.03746   2.62211  -0.98624 
 C                     3.19302   3.61222   0.16988 
 C                     4.41329   3.74653  -0.47213 
 H                     4.93191   0.49801  -1.28207 
 H                     1.65616   2.2625    0.82038 
 H                     5.99206   2.71427  -1.4944 
 H                     2.69731   4.48443   0.58406 
 H                     4.876     4.72281  -0.56992 
 
 ITRead=  0  0  0  0  0  0  0  0  0  0  0  0  0  0  0  0  0  0  0  0
 ITRead=  0  0  0  0  0  0  0  0  0  0  0  0  0  0  0  0  0  0  0  0
 ITRead=  0  0  0  0  0  0
 MicOpt= -1 -1 -1 -1 -1 -1 -1 -1 -1 -1 -1 -1 -1 -1 -1 -1 -1 -1 -1 -1
 MicOpt= -1 -1 -1 -1 -1 -1 -1 -1 -1 -1 -1 -1 -1 -1 -1 -1 -1 -1 -1 -1
 MicOpt= -1 -1 -1 -1 -1 -1
 NAtoms=     46 NQM=       46 NQMF=       0 NMMI=      0 NMMIF=      0
                NMic=       0 NMicF=      0.
                    Isotopes and Nuclear Properties:
 (Nuclear quadrupole moments (NQMom) in fm**2, nuclear magnetic moments (NMagM)
  in nuclear magnetons)

  Atom         1           2           3           4           5           6           7           8           9          10
 IAtWgt=          12          12          32          12          12          12          12          12           1          12
 AtmWgt=  12.0000000  12.0000000  31.9720718  12.0000000  12.0000000  12.0000000  12.0000000  12.0000000   1.0078250  12.0000000
 NucSpn=           0           0           0           0           0           0           0           0           1           0
 AtZEff=  -0.0000000  -0.0000000  -0.0000000  -0.0000000  -0.0000000  -0.0000000  -0.0000000  -0.0000000  -0.0000000  -0.0000000
 NQMom=    0.0000000   0.0000000   0.0000000   0.0000000   0.0000000   0.0000000   0.0000000   0.0000000   0.0000000   0.0000000
 NMagM=    0.0000000   0.0000000   0.0000000   0.0000000   0.0000000   0.0000000   0.0000000   0.0000000   2.7928460   0.0000000
 AtZNuc=   6.0000000   6.0000000  16.0000000   6.0000000   6.0000000   6.0000000   6.0000000   6.0000000   1.0000000   6.0000000

  Atom        11          12          13          14          15          16          17          18          19          20
 IAtWgt=          12          12          12           1           1           1          12           1           1           1
 AtmWgt=  12.0000000  12.0000000  12.0000000   1.0078250   1.0078250   1.0078250  12.0000000   1.0078250   1.0078250   1.0078250
 NucSpn=           0           0           0           1           1           1           0           1           1           1
 AtZEff=  -0.0000000  -0.0000000  -0.0000000  -0.0000000  -0.0000000  -0.0000000  -0.0000000  -0.0000000  -0.0000000  -0.0000000
 NQMom=    0.0000000   0.0000000   0.0000000   0.0000000   0.0000000   0.0000000   0.0000000   0.0000000   0.0000000   0.0000000
 NMagM=    0.0000000   0.0000000   0.0000000   2.7928460   2.7928460   2.7928460   0.0000000   2.7928460   2.7928460   2.7928460
 AtZNuc=   6.0000000   6.0000000   6.0000000   1.0000000   1.0000000   1.0000000   6.0000000   1.0000000   1.0000000   1.0000000

  Atom        21          22          23          24          25          26          27          28          29          30
 IAtWgt=           1           1          32          14          12          12          12          12          12          12
 AtmWgt=   1.0078250   1.0078250  31.9720718  14.0030740  12.0000000  12.0000000  12.0000000  12.0000000  12.0000000  12.0000000
 NucSpn=           1           1           0           2           0           0           0           0           0           0
 AtZEff=  -0.0000000  -0.0000000  -0.0000000  -0.0000000  -0.0000000  -0.0000000  -0.0000000  -0.0000000  -0.0000000  -0.0000000
 NQMom=    0.0000000   0.0000000   0.0000000   2.0440000   0.0000000   0.0000000   0.0000000   0.0000000   0.0000000   0.0000000
 NMagM=    2.7928460   2.7928460   0.0000000   0.4037610   0.0000000   0.0000000   0.0000000   0.0000000   0.0000000   0.0000000
 AtZNuc=   1.0000000   1.0000000  16.0000000   7.0000000   6.0000000   6.0000000   6.0000000   6.0000000   6.0000000   6.0000000

  Atom        31          32          33          34          35          36          37          38          39          40
 IAtWgt=           1           1           1           1           1          12          12          12          12          12
 AtmWgt=   1.0078250   1.0078250   1.0078250   1.0078250   1.0078250  12.0000000  12.0000000  12.0000000  12.0000000  12.0000000
 NucSpn=           1           1           1           1           1           0           0           0           0           0
 AtZEff=  -0.0000000  -0.0000000  -0.0000000  -0.0000000  -0.0000000  -0.0000000  -0.0000000  -0.0000000  -0.0000000  -0.0000000
 NQMom=    0.0000000   0.0000000   0.0000000   0.0000000   0.0000000   0.0000000   0.0000000   0.0000000   0.0000000   0.0000000
 NMagM=    2.7928460   2.7928460   2.7928460   2.7928460   2.7928460   0.0000000   0.0000000   0.0000000   0.0000000   0.0000000
 AtZNuc=   1.0000000   1.0000000   1.0000000   1.0000000   1.0000000   6.0000000   6.0000000   6.0000000   6.0000000   6.0000000

  Atom        41          42          43          44          45          46
 IAtWgt=          12           1           1           1           1           1
 AtmWgt=  12.0000000   1.0078250   1.0078250   1.0078250   1.0078250   1.0078250
 NucSpn=           0           1           1           1           1           1
 AtZEff=  -0.0000000  -0.0000000  -0.0000000  -0.0000000  -0.0000000  -0.0000000
 NQMom=    0.0000000   0.0000000   0.0000000   0.0000000   0.0000000   0.0000000
 NMagM=    0.0000000   2.7928460   2.7928460   2.7928460   2.7928460   2.7928460
 AtZNuc=   6.0000000   1.0000000   1.0000000   1.0000000   1.0000000   1.0000000
 Leave Link  101 at Tue Jan 19 08:56:43 2021, MaxMem=  4026531840 cpu:               0.7 elap:               0.1
 (Enter /opt/ohpc/pub/libs/gaussian/g16-A.03/sandybridge/g16/l202.exe)
                          Input orientation:                          
 ---------------------------------------------------------------------
 Center     Atomic      Atomic             Coordinates (Angstroms)
 Number     Number       Type             X           Y           Z
 ---------------------------------------------------------------------
      1          6           0       -3.352046    1.022081    0.901490
      2          6           0       -4.015603    0.124147    0.077833
      3         16           0       -3.193622   -0.833868   -1.176213
      4          6           0       -5.398593   -0.028228    0.207342
      5          6           0       -0.749106    0.373785   -1.531691
      6          6           0       -1.475477   -0.566990   -0.815552
      7          6           0       -4.041516    1.761821    1.844012
      8          6           0       -6.080951    0.720801    1.156415
      9          1           0       -7.475944   -0.835079   -0.458792
     10          6           0        0.601771    0.547170   -1.299188
     11          6           0       -0.823428   -1.336346    0.139234
     12          6           0        0.521569   -1.154920    0.389409
     13          6           0        1.255724   -0.212476   -0.331046
     14          1           0        1.160253    1.275483   -1.876291
     15          1           0       -1.383265   -2.076857    0.700814
     16          1           0        1.015474   -1.752114    1.147605
     17          6           0       -5.411167    1.613701    1.970885
     18          1           0       -2.279577    1.141824    0.800598
     19          1           0       -1.248138    0.967582   -2.290346
     20          1           0       -3.503227    2.458074    2.478369
     21          1           0       -7.154267    0.598627    1.263844
     22          1           0       -5.962434    2.189124    2.706912
     23         16           0       -6.238224   -1.192989   -0.835805
     24          7           0        2.627173   -0.037586   -0.087724
     25          6           0        3.438312   -1.140752    0.276409
     26          6           0        4.374889   -1.012928    1.295896
     27          6           0        3.317625   -2.356550   -0.387733
     28          6           0        5.179400   -2.084309    1.640010
     29          6           0        4.112866   -3.428755   -0.025756
     30          6           0        5.049979   -3.298472    0.986151
     31          1           0        4.470709   -0.064848    1.814448
     32          1           0        2.593785   -2.456724   -1.189607
     33          1           0        5.907450   -1.970366    2.436839
     34          1           0        4.006805   -4.372570   -0.551042
     35          1           0        5.677330   -4.139106    1.262850
     36          6           0        3.224517    1.239724   -0.221989
     37          6           0        4.446224    1.376745   -0.871250
     38          6           0        2.604731    2.367846    0.304633
     39          6           0        5.037460    2.622109   -0.986244
     40          6           0        3.193018    3.612223    0.169883
     41          6           0        4.413292    3.746533   -0.472133
     42          1           0        4.931907    0.498005   -1.282066
     43          1           0        1.656156    2.262505    0.820378
     44          1           0        5.992055    2.714270   -1.494403
     45          1           0        2.697309    4.484427    0.584059
     46          1           0        4.876004    4.722810   -0.569917
 ---------------------------------------------------------------------
                    Distance matrix (angstroms):
                    1          2          3          4          5
     1  C    0.000000
     2  C    1.387445   0.000000
     3  S    2.790429   1.779347   0.000000
     4  C    2.402779   1.397373   2.724918   0.000000
     5  C    3.621596   3.650053   2.749627   4.980319   0.000000
     6  C    2.999148   2.779937   1.775760   4.089916   1.387634
     7  C    1.382365   2.408742   4.071644   2.779320   4.915484
     8  C    2.757296   2.405202   4.024279   1.388307   5.981213
     9  H    4.722917   3.630708   4.342001   2.325969   6.918296
    10  C    4.549856   4.836867   4.040717   6.213299   1.381662
    11  C    3.540780   3.510953   2.756938   4.758986   2.392083
    12  C    4.472857   4.724301   4.044365   6.029171   2.764449
    13  C    4.926948   5.297866   4.571336   6.678603   2.409272
    14  H    5.304821   5.650988   4.888323   7.004259   2.139500
    15  H    3.676926   3.487367   2.888883   4.534672   3.375186
    16  H    5.179958   5.475080   4.894874   6.707916   3.848612
    17  C    2.394494   2.783885   4.562053   2.409600   5.961564
    18  H    1.083839   2.138187   2.940513   3.383672   2.893406
    19  H    3.823247   3.738785   2.876008   4.945337   1.084982
    20  H    2.138102   3.387081   4.928357   3.864152   5.292450
    21  H    3.842850   3.388652   4.867507   2.142787   6.992257
    22  H    3.381666   3.868635   5.646544   3.388571   6.959885
    23  S    4.031718   2.740370   3.084550   1.774769   5.750605
    24  N    6.152438   6.646807   5.974992   8.031194   3.695068
    25  C    7.153848   7.563085   6.796090   8.906928   4.805988
    26  C    8.000146   8.554354   7.964028   9.883093   6.014445
    27  C    7.586946   7.755440   6.733246   9.041441   5.030077
    28  C    9.109371   9.584662   8.922007  10.870784   7.158847
    29  C    8.740403   8.871632   7.838479  10.103750   6.353418
    30  C    9.448194   9.732633   8.871699  10.976051   7.311251
    31  H    7.950497   8.664239   8.263015   9.999363   6.215747
    32  H    7.199144   7.207726   6.010651   8.469189   4.393600
    33  H    9.851411  10.412438   9.857752  11.686281   8.096543
    34  H    9.239307   9.218187   8.047323  10.387972   6.790305
    35  H   10.406636  10.655165   9.775859  11.861260   8.335150
    36  C    6.675384   7.331694   6.811963   8.726400   4.272569
    37  C    8.005086   8.606525   7.959087  10.002886   5.332313
    38  C    6.136001   6.993886   6.787104   8.354869   4.312376
    39  C    8.746853   9.451456   8.929198  10.833288   6.231919
    40  C    7.076860   8.008706   7.897396   9.331134   5.378027
    41  C    8.343258   9.190779   8.907353  10.534875   6.256872
    42  H    8.582916   9.057982   8.234641  10.450574   5.687851
    43  H    5.160166   6.106783   6.090505   7.442631   3.858079
    44  H    9.793673  10.456284   9.852268  11.839092   7.136001
    45  H    6.977342   8.020692   8.129323   9.276292   5.766416
    46  H    9.141184  10.031349   9.816472  11.346534   7.175018
                    6          7          8          9         10
     6  C    0.000000
     7  C    4.368203   0.000000
     8  C    5.172760   2.390775   0.000000
     9  H    6.017039   4.882836   2.641148   0.000000
    10  C    2.406287   5.737177   7.121721   8.238104   0.000000
    11  C    1.388774   4.781318   5.736555   6.698125   2.765481
    12  C    2.405366   5.607583   6.906511   8.048724   2.398938
    13  C    2.796406   6.057184   7.543895   8.754769   1.393562
    14  H    3.386288   6.413703   7.870198   9.002648   1.084154
    15  H    2.141861   4.807146   5.486594   6.325143   3.850441
    16  H    3.385756   6.197247   7.514961   8.690549   3.382995
    17  C    5.292381   1.383467   1.381753   4.020343   6.927214
    18  H    2.485672   2.139518   3.841134   5.700565   3.614537
    19  H    2.140470   5.052395   5.941140   6.737191   2.140398
    20  H    4.910468   1.084865   3.377920   5.937529   5.896821
    21  H    6.158832   3.373253   1.085576   2.264170   8.168715
    22  H    6.335353   2.148746   2.138705   4.632299   7.863437
    23  S    4.803753   4.553883   2.766996   1.342456   7.073076
    24  N    4.200207   7.172230   8.829182  10.141334   2.431427
    25  C    5.066251   8.174970   9.739413  10.943260   3.657534
    26  C    6.235692   8.878938  10.599522  11.981352   4.837849
    27  C    5.134139   8.723452  10.009381  10.900507   4.078995
    28  C    7.253925   9.992979  11.614560  12.888882   6.043033
    29  C    6.327958   9.845408  11.069338  11.883400   5.455034
    30  C    7.299911  10.440200  11.835588  12.847370   6.308589
    31  H    6.521210   8.706065  10.601310  12.185376   5.003796
    32  H    4.502211   8.427703   9.531607  10.225618   3.606038
    33  H    8.188719  10.642490  12.353284  13.740043   6.960324
    34  H    6.678909  10.399159  11.428940  12.015651   6.029745
    35  H    8.260897  11.384843  12.723490  13.670745   7.367939
    36  C    5.070155   7.572066   9.421306  10.902328   2.918696
    37  C    6.232796   8.919790  10.740722  12.132616   3.956153
    38  C    5.149386   6.849055   8.881405  10.604789   3.146260
    39  C    7.253815   9.548730  11.481508  12.992907   4.906999
    40  C    6.342850   7.652789   9.764224  11.575858   4.274024
    41  C    7.307668   8.988180  11.042480  12.741479   5.044565
    42  H    6.512021   9.586027  11.281794  12.506385   4.330449
    43  H    4.526526   5.810506   7.896366   9.727618   2.923467
    44  H    8.184836  10.617190  12.520313  13.966294   5.812882
    45  H    6.699841   7.376437   9.568193  11.527348   4.841476
    46  H    8.269440   9.701375  11.791996  13.545224   6.019707
                   11         12         13         14         15
    11  C    0.000000
    12  C    1.380043   0.000000
    13  C    2.409797   1.395077   0.000000
    14  H    3.849543   3.383515   2.147305   0.000000
    15  H    1.084964   2.139003   3.391890   4.934485   0.000000
    16  H    2.138045   1.084179   2.148165   4.281501   2.461509
    17  C    5.753701   6.735257   7.285688   7.622251   5.608680
    18  H    2.949423   3.645618   3.951342   4.360737   3.342640
    19  H    3.375103   3.849411   3.391271   2.463045   4.270118
    20  H    5.201009   5.797971   6.137774   6.489193   5.312207
    21  H    6.714789   7.921996   8.598227   8.913463   6.385897
    22  H    6.740274   7.654786   8.191378   8.518988   6.572048
    23  S    5.503750   6.870036   7.574658   7.868509   5.168467
    24  N    3.693905   2.430979   1.403804   2.659883   4.567716
    25  C    4.268431   2.918965   2.448344   3.957507   4.929910
    26  C    5.335257   3.961055   3.607888   5.062952   5.885780
    27  C    4.297305   3.140986   2.975181   4.479031   4.833377
    28  C    6.232634   4.911533   4.773264   6.309209   6.629534
    29  C    5.363991   4.270843   4.312878   5.854251   5.706399
    30  C    6.250129   5.045534   5.065052   6.651662   6.554418
    31  H    5.696572   4.337591   3.867954   5.135870   6.289465
    32  H    3.833851   2.912398   2.750306   4.056589   4.419832
    33  H    7.140426   5.819333   5.691214   7.188498   7.495308
    34  H    5.746850   4.835762   4.992317   6.462170   5.990851
    35  H    7.167833   6.020809   6.124502   7.718547   7.377043
    36  C    4.811702   3.662520   2.448862   2.645596   5.751776
    37  C    6.012585   4.837510   3.605098   3.437727   6.955695
    38  C    5.049819   4.093486   2.980263   2.834820   5.984685
    39  C    7.161430   6.045795   4.771340   4.199800   8.133398
    40  C    6.373469   5.469048   4.316522   3.712050   7.320511
    41  C    7.323433   6.317595   5.065954   4.319723   8.299864
    42  H    6.205547   4.997707   3.863100   3.896530   7.102332
    43  H    4.423124   3.626543   2.758923   2.914130   5.299287
    44  H    8.094879   6.960287   5.687888   5.055913   9.064724
    45  H    6.817247   6.047642   4.997648   4.325874   7.727559
    46  H    8.348640   7.377609   6.125401   5.234260   9.328916
                   16         17         18         19         20
    16  H    0.000000
    17  C    7.301248   0.000000
    18  H    4.399165   3.376255   0.000000
    19  H    4.933578   5.992192   3.263152   0.000000
    20  H    6.317854   2.147264   2.458607   5.481572   0.000000
    21  H    8.502009   2.137447   4.926689   6.902953   4.273489
    22  H    8.164312   1.084778   4.277184   6.977775   2.484404
    23  S    7.540734   4.054509   4.878530   5.628918   5.638636
    24  N    2.657671   8.460469   5.124092   4.569457   7.098941
    25  C    2.646297   9.421865   6.178930   5.744225   8.123124
    26  C    3.442972  10.154885   7.012146   6.957153   8.689696
    27  C    2.832403   9.875109   6.706670   5.959529   8.827183
    28  C    4.206078  11.222516   8.169999   8.128652   9.834841
    29  C    3.712376  10.959934   7.901669   7.293594   9.946370
    30  C    4.323716  11.598910   8.571642   8.282568  10.417383
    31  H    3.902588  10.024643   6.931833   7.114805   8.389850
    32  H    2.906906   9.520311   6.376529   5.262877   8.647707
    33  H    5.063713  11.881656   8.910130   9.065333  10.400656
    34  H    4.324379  11.440881   8.470777   7.691348  10.594131
    35  H    5.238694  12.512029   9.561081   9.309435  11.370264
    36  C    3.963175   8.917600   5.599136   4.935261   7.351112
    37  C    5.063159  10.261678   6.934455   5.882772   8.693848
    38  C    4.495599   8.221907   5.060195   4.851727   6.483858
    39  C    6.313756  10.905746   7.676137   6.629245   9.218123
    40  C    5.871435   9.014971   6.037381   5.724572   7.176410
    41  C    6.663620  10.345883   7.293754   6.563555   8.546161
    42  H    5.128819  10.899800   7.533757   6.279338   9.441092
    43  H    4.078568   7.189692   4.092226   4.448410   5.422768
    44  H    7.189934  11.968832   8.726942   7.490316  10.296064
    45  H    6.483872   8.712734   5.999106   6.016391   6.792729
    46  H    7.731637  11.043012   8.118135   7.386930   9.199597
                   21         22         23         24         25
    21  H    0.000000
    22  H    2.456134   0.000000
    23  S    2.908186   4.905669   0.000000
    24  N    9.894851   9.303202   8.971613   0.000000
    25  C   10.779759  10.264962   9.740385   1.416868   0.000000
    26  C   11.641288  10.913494  10.826576   2.433148   1.390277
    27  C   11.005512  10.787005   9.636851   2.438098   1.390617
    28  C   12.627707  11.980859  11.716921   3.699730   2.404391
    29  C   12.034582  11.854944  10.620729   3.702857   2.404430
    30  C   12.814371  12.423686  11.626526   4.201973   2.785132
    31  H   11.656905  10.711086  11.089535   2.649080   2.142190
    32  H   10.506146  10.486927   8.928974   2.658475   2.143411
    33  H   13.363536  12.580479  12.602853   4.568290   3.384134
    34  H   12.352171  12.371573  10.730864   4.572760   3.384155
    35  H   13.678304  13.327262  12.452485   5.286774   3.869935
    36  C   10.504183   9.689164   9.789705   1.416463   2.441470
    37  C   11.820977  11.036456  10.989186   2.433761   2.944622
    38  C    9.964350   8.899393   9.600937   2.437325   3.606371
    39  C   12.561671  11.611397  11.904564   3.700108   4.279099
    40  C   10.832581   9.606458  10.632488   3.702384   4.760492
    41  C   12.113272  10.963008  11.746741   4.202089   5.039490
    42  H   12.351817  11.724269  11.306212   2.650492   2.710202
    43  H    8.977121   7.849032   8.775227   2.656679   3.879967
    44  H   13.598149  12.682138  12.856133   4.568795   4.951623
    45  H   10.612026   9.206849  10.681424   4.572178   5.682110
    46  H   12.849085  11.602970  12.593389   5.286882   6.096276
                   26         27         28         29         30
    26  C    0.000000
    27  C    2.399528   0.000000
    28  C    1.383297   2.766236   0.000000
    29  C    2.766160   1.383134   2.391612   0.000000
    30  C    2.403206   2.403295   1.385090   1.385320   0.000000
    31  H    1.084866   3.380991   2.147299   3.851009   3.387913
    32  H    3.381509   1.084888   3.851082   2.146392   3.387529
    33  H    2.137097   3.851563   1.085346   3.378136   2.145604
    34  H    3.851475   2.136814   3.378139   1.085339   2.145894
    35  H    3.386803   3.386759   2.147644   2.147708   1.084803
    36  C    2.949877   3.601295   4.282266   4.756298   5.038565
    37  C    3.226786   3.930015   4.338533   4.890687   5.066765
    38  C    3.942803   4.827785   5.313552   5.998684   6.208934
    39  C    4.342886   5.301235   5.391449   6.195996   6.240495
    40  C    4.904768   5.996058   6.209466   7.103504   7.202243
    41  C    5.077388   6.201228   6.248743   7.195434   7.222469
    42  H    3.039585   3.399150   3.907445   4.203402   4.424024
    43  H    4.283233   5.055263   5.655072   6.256341   6.516900
    44  H    4.928793   5.838708   5.788896   6.589767   6.572193
    45  H    5.791537   6.937445   7.100993   8.061893   8.140654
    46  H    6.052360   7.251143   7.163288   8.205273   8.172673
                   31         32         33         34         35
    31  H    0.000000
    32  H    4.274139   0.000000
    33  H    2.466292   4.936399   0.000000
    34  H    4.936316   2.464722   4.279073   0.000000
    35  H    4.284831   4.284064   2.476820   2.476967   0.000000
    36  C    2.720658   3.872704   4.957033   5.676099   6.095314
    37  C    3.048239   4.269469   4.927655   5.774967   6.041077
    38  C    3.417516   5.050678   5.854429   6.937665   7.259440
    39  C    3.922349   5.639809   5.793549   7.083586   7.154152
    40  C    4.225866   6.248153   6.608520   8.058468   8.212763
    41  C    4.445039   6.504289   6.586164   8.129655   8.172592
    42  H    3.180866   3.769056   4.568894   5.011258   5.341821
    43  H    3.785030   5.214433   6.213183   7.171511   7.572730
    44  H    4.581101   6.195185   6.116178   7.419869   7.393934
    45  H    5.035346   7.164927   7.443262   9.024945   9.149131
    46  H    5.363873   7.558985   7.409660   9.136838   9.084862
                   36         37         38         39         40
    36  C    0.000000
    37  C    1.390281   0.000000
    38  C    1.390728   2.399183   0.000000
    39  C    2.404545   1.383371   2.765716   0.000000
    40  C    2.404851   2.766197   1.383009   2.391427   0.000000
    41  C    2.785651   2.403388   2.403130   1.385000   1.385385
    42  H    2.142216   1.084823   3.380779   2.147200   3.851006
    43  H    2.142981   3.380925   1.084843   3.850508   2.146352
    44  H    3.384168   2.137027   3.851039   1.085344   3.377984
    45  H    3.384636   3.851534   2.136952   3.377926   1.085361
    46  H    3.870446   3.386984   3.386646   2.147636   2.147824
                   41         42         43         44         45
    41  C    0.000000
    42  H    3.387903   0.000000
    43  H    3.387436   4.273672   0.000000
    44  H    2.145483   2.465934   4.935820   0.000000
    45  H    2.145839   4.936336   2.465113   4.278880   0.000000
    46  H    1.084795   4.284771   4.284092   2.476788   2.476933
                   46
    46  H    0.000000
 Stoichiometry    C24H19NS2(1+,2)
 Framework group  C1[X(C24H19NS2)]
 Deg. of freedom   132
 Full point group                 C1      NOp   1
 Largest Abelian subgroup         C1      NOp   1
 Largest concise Abelian subgroup C1      NOp   1
                         Standard orientation:                         
 ---------------------------------------------------------------------
 Center     Atomic      Atomic             Coordinates (Angstroms)
 Number     Number       Type             X           Y           Z
 ---------------------------------------------------------------------
      1          6           0       -3.352046    1.022081    0.901490
      2          6           0       -4.015603    0.124147    0.077833
      3         16           0       -3.193622   -0.833868   -1.176213
      4          6           0       -5.398593   -0.028228    0.207342
      5          6           0       -0.749106    0.373785   -1.531691
      6          6           0       -1.475477   -0.566990   -0.815552
      7          6           0       -4.041516    1.761821    1.844012
      8          6           0       -6.080951    0.720801    1.156415
      9          1           0       -7.475944   -0.835079   -0.458792
     10          6           0        0.601771    0.547170   -1.299188
     11          6           0       -0.823428   -1.336346    0.139234
     12          6           0        0.521569   -1.154920    0.389409
     13          6           0        1.255724   -0.212476   -0.331046
     14          1           0        1.160253    1.275483   -1.876291
     15          1           0       -1.383265   -2.076857    0.700814
     16          1           0        1.015474   -1.752114    1.147605
     17          6           0       -5.411167    1.613701    1.970885
     18          1           0       -2.279577    1.141824    0.800598
     19          1           0       -1.248138    0.967582   -2.290346
     20          1           0       -3.503227    2.458074    2.478369
     21          1           0       -7.154267    0.598627    1.263844
     22          1           0       -5.962434    2.189124    2.706912
     23         16           0       -6.238224   -1.192989   -0.835805
     24          7           0        2.627173   -0.037586   -0.087724
     25          6           0        3.438312   -1.140752    0.276409
     26          6           0        4.374889   -1.012928    1.295896
     27          6           0        3.317625   -2.356550   -0.387733
     28          6           0        5.179400   -2.084309    1.640010
     29          6           0        4.112866   -3.428755   -0.025756
     30          6           0        5.049979   -3.298472    0.986151
     31          1           0        4.470709   -0.064848    1.814448
     32          1           0        2.593785   -2.456724   -1.189607
     33          1           0        5.907450   -1.970366    2.436839
     34          1           0        4.006805   -4.372570   -0.551042
     35          1           0        5.677330   -4.139106    1.262850
     36          6           0        3.224517    1.239724   -0.221989
     37          6           0        4.446224    1.376745   -0.871250
     38          6           0        2.604731    2.367846    0.304633
     39          6           0        5.037460    2.622109   -0.986244
     40          6           0        3.193018    3.612223    0.169883
     41          6           0        4.413292    3.746533   -0.472133
     42          1           0        4.931907    0.498005   -1.282066
     43          1           0        1.656156    2.262505    0.820378
     44          1           0        5.992055    2.714270   -1.494403
     45          1           0        2.697309    4.484427    0.584059
     46          1           0        4.876004    4.722810   -0.569917
 ---------------------------------------------------------------------
 Rotational constants (GHZ):           0.3083654           0.0766714           0.0675965
 Leave Link  202 at Tue Jan 19 08:56:43 2021, MaxMem=  4026531840 cpu:               0.1 elap:               0.0
 (Enter /opt/ohpc/pub/libs/gaussian/g16-A.03/sandybridge/g16/l301.exe)
 Standard basis: TZVP (5D, 7F)
 Ernie: Thresh=  0.10000D-02 Tol=  0.10000D-05 Strict=F.
 There are   660 symmetry adapted cartesian basis functions of A   symmetry.
 There are   633 symmetry adapted basis functions of A   symmetry.
   633 basis functions,  1121 primitive gaussians,   660 cartesian basis functions
   101 alpha electrons      100 beta electrons
       nuclear repulsion energy      2474.6847673599 Hartrees.
 IExCor=33909 DFT=T Ex+Corr=LC-wHPBE ExCW=0 ScaHFX=  1.000000
 ScaDFX=  1.000000  1.000000  1.000000  1.000000 ScalE2=  1.000000  1.000000
 IRadAn=      5 IRanWt=     -1 IRanGd=            0 ICorTp=0 IEmpDi=  4
 HFx  wShort=  0.000000 wLong=  0.181000 cFull=  0.000000 cShort=  0.000000 cLong=  1.000000
 DFx  wShort=  0.000000 wLong=  0.181000 cFull=  0.000000 cShort=  1.000000 cLong=  0.000000
 NAtoms=   46 NActive=   46 NUniq=   46 SFac= 1.00D+00 NAtFMM=   60 NAOKFM=F Big=F
 Integral buffers will be    131072 words long.
 Raffenetti 2 integral format.
 Two-electron integral symmetry is turned on.
 Leave Link  301 at Tue Jan 19 08:56:43 2021, MaxMem=  4026531840 cpu:               0.4 elap:               0.1
 (Enter /opt/ohpc/pub/libs/gaussian/g16-A.03/sandybridge/g16/l302.exe)
 NPDir=0 NMtPBC=     1 NCelOv=     1 NCel=       1 NClECP=     1 NCelD=      1
         NCelK=      1 NCelE2=     1 NClLst=     1 CellRange=     0.0.
 One-electron integrals computed using PRISM.
 One-electron integral symmetry used in STVInt
 NBasis=   633 RedAO= T EigKep=  6.67D-06  NBF=   633
 NBsUse=   633 1.00D-06 EigRej= -1.00D+00 NBFU=   633
 Precomputing XC quadrature grid using
 IXCGrd= 4 IRadAn=           5 IRanWt=          -1 IRanGd=           0 AccXCQ= 0.00D+00.
 Generated NRdTot=       0 NPtTot=           0 NUsed=           0 NTot=          32
 NSgBfM=   625   625   625   625   625 MxSgAt=    46 MxSgA2=    46.
 Leave Link  302 at Tue Jan 19 08:56:45 2021, MaxMem=  4026531840 cpu:              11.1 elap:               1.5
 (Enter /opt/ohpc/pub/libs/gaussian/g16-A.03/sandybridge/g16/l303.exe)
 DipDrv:  MaxL=1.
 Leave Link  303 at Tue Jan 19 08:56:45 2021, MaxMem=  4026531840 cpu:               0.8 elap:               0.2
 (Enter /opt/ohpc/pub/libs/gaussian/g16-A.03/sandybridge/g16/l401.exe)
 ExpMin= 9.52D-02 ExpMax= 6.07D+04 ExpMxC= 2.07D+03 IAcc=3 IRadAn=         5 AccDes= 0.00D+00
 Harris functional with IExCor=33909 and IRadAn=       5 diagonalized for initial guess.
 HarFok:  IExCor=33909 AccDes= 0.00D+00 IRadAn=         5 IDoV= 1 UseB2=F ITyADJ=14
 ICtDFT=  3500011 ScaDFX=  1.000000  1.000000  1.000000  1.000000
 FoFCou: FMM=F IPFlag=           0 FMFlag=      100000 FMFlg1=           0
         NFxFlg=           0 DoJE=T BraDBF=F KetDBF=T FulRan=T
         wScrn=  0.000000 ICntrl=       500 IOpCl=  0 I1Cent=   200000004 NGrid=           0
         NMat0=    1 NMatS0=      1 NMatT0=    0 NMatD0=    1 NMtDS0=    0 NMtDT0=    0
 Petite list used in FoFCou.
 Harris En= -1756.42886438865    
 JPrj=0 DoOrth=F DoCkMO=F.
 Initial guess <Sx>= 0.0000 <Sy>= 0.0000 <Sz>= 0.5000 <S**2>= 0.7500 S= 0.5000
 Leave Link  401 at Tue Jan 19 08:56:51 2021, MaxMem=  4026531840 cpu:              46.8 elap:               5.9
 (Enter /opt/ohpc/pub/libs/gaussian/g16-A.03/sandybridge/g16/l502.exe)
 Integral symmetry usage will be decided dynamically.
 UHF open shell SCF:
 Using DIIS extrapolation, IDIIS=    10.
 NGot=  4026531840 LenX=  4025648940 LenY=  4025212680
 Requested convergence on RMS density matrix=1.00D-06 within  32 cycles.
 Requested convergence on MAX density matrix=1.00D-04.
 Requested convergence on             energy=1.00D-04.
 Virtual orbitals will be shifted by   0.500 hartree.
 No special actions if energy rises.
 Dynamic level shift is on during FON iterations.

 Cycle   1  Pass 1  IDiag  1:
 FoFJK:  IHMeth= 1 ICntrl=       0 DoSepK=T KAlg= 0 I1Cent=           0 FoldK=F
 IRaf=         1 NMat=       1 IRICut=       1 DoRegI=T DoRafI=F ISym2E= 0 IDoP0=0 IntGTp=1.
 FoFCou: FMM=F IPFlag=           0 FMFlag=      100000 FMFlg1=           0
         NFxFlg=           0 DoJE=T BraDBF=F KetDBF=F FulRan=T
         wScrn=  0.000000 ICntrl=       500 IOpCl=  0 I1Cent=           0 NGrid=           0
         NMat0=    1 NMatS0=      1 NMatT0=    0 NMatD0=    1 NMtDS0=    0 NMtDT0=    0
 Symmetry not used in FoFCou.
 E= -1775.34050330769    
 DIIS: error= 3.63D-02 at cycle   1 NSaved=   1.
 NSaved= 1 IEnMin= 1 EnMin= -1775.34050330769     IErMin= 1 ErrMin= 3.63D-02
 ErrMax= 3.63D-02  0.00D+00 EMaxC= 1.00D+00 BMatC= 2.31D+00 BMatP= 2.31D+00
 IDIUse=1 WtCom= 1.00D+00 WtEn= 0.00D+00
 Coeff-Com:  0.100D+01
 Coeff:      0.100D+01
 Gap=     0.565 Goal=   None    Shift=    0.500
 T= 1610. Gap= 0.537 NK=0 IS=  102 IE=  633 IFin=  101
          NO(<0.9)=   0  NV(>0.1)=   0    101.00e < EF      0.00e >EF  Err=0.0D+00
 Gap=     0.166 Goal=   None    Shift=    0.500
 T= 1610. Gap= 0.370 NK=0 IS=  101 IE=  633 IFin=  100
          NO(<0.9)=   0  NV(>0.1)=   0    100.00e < EF      0.00e >EF  Err=0.0D+00
 GapD=    0.166 DampG=1.000 DampE=0.500 DampFc=0.5000 IDamp=-1.
 Damping current iteration by 5.00D-01
 RMSDP=3.47D-03 MaxDP=3.19D-01              OVMax= 1.40D-01

 Cycle   2  Pass 1  IDiag  1:
 E= -1775.72073019275     Delta-E=       -0.380226885063 Rises=F Damp=T
 DIIS: error= 1.64D-02 at cycle   2 NSaved=   2.
 NSaved= 2 IEnMin= 2 EnMin= -1775.72073019275     IErMin= 2 ErrMin= 1.64D-02
 ErrMax= 1.64D-02  0.00D+00 EMaxC= 1.00D+00 BMatC= 3.26D-01 BMatP= 2.31D+00
 IDIUse=1 WtCom= 1.00D+00 WtEn= 0.00D+00
 Coeff-Com: -0.484D+00 0.148D+01
 Coeff:     -0.484D+00 0.148D+01
 Gap=     0.205 Goal=   None    Shift=    0.500
 T= 1489. Gap= 0.676 NK=0 IS=  102 IE=  633 IFin=  101
          NO(<0.9)=   0  NV(>0.1)=   0    101.00e < EF      0.00e >EF  Err=0.0D+00
 Gap=     0.041 Goal=   None    Shift=    0.500
 T= 1489. Gap= 0.518 NK=0 IS=  101 IE=  633 IFin=  100
          NO(<0.9)=   0  NV(>0.1)=   0    100.00e < EF      0.00e >EF  Err=0.0D+00
 GapD=    0.041 DampG=0.250 DampE=0.500 DampFc=0.1250 IDamp=-1.
 Damping current iteration by 1.25D-01
 RMSDP=1.96D-03 MaxDP=1.26D-01 DE=-3.80D-01 OVMax= 2.72D-02

 Cycle   3  Pass 1  IDiag  1:
 E= -1775.75348978282     Delta-E=       -0.032759590071 Rises=F Damp=T
 DIIS: error= 1.42D-02 at cycle   3 NSaved=   3.
 NSaved= 3 IEnMin= 3 EnMin= -1775.75348978282     IErMin= 3 ErrMin= 1.42D-02
 ErrMax= 1.42D-02  0.00D+00 EMaxC= 1.00D+00 BMatC= 2.34D-01 BMatP= 3.26D-01
 IDIUse=1 WtCom= 1.00D+00 WtEn= 0.00D+00
 Coeff-Com:  0.122D+00-0.667D+01 0.754D+01
 Coeff:      0.122D+00-0.667D+01 0.754D+01
 Gap=     0.216 Goal=   None    Shift=    0.500
 T= 1317. Gap= 0.712 NK=0 IS=  102 IE=  633 IFin=  101
          NO(<0.9)=   0  NV(>0.1)=   0    101.00e < EF      0.00e >EF  Err=0.0D+00
 Gap=     0.061 Goal=   None    Shift=    0.500
 T= 1317. Gap= 0.560 NK=0 IS=  101 IE=  633 IFin=  100
          NO(<0.9)=   0  NV(>0.1)=   0    100.00e < EF      0.00e >EF  Err=0.0D+00
 GapD=    0.061 DampG=0.500 DampE=0.500 DampFc=0.2500 IDamp=-1.
 Damping current iteration by 2.50D-01
 RMSDP=1.82D-03 MaxDP=1.21D-01 DE=-3.28D-02 OVMax= 1.50D-02

 Cycle   4  Pass 1  IDiag  1:
 E= -1775.80543690158     Delta-E=       -0.051947118764 Rises=F Damp=T
 DIIS: error= 1.07D-02 at cycle   4 NSaved=   4.
 NSaved= 4 IEnMin= 4 EnMin= -1775.80543690158     IErMin= 4 ErrMin= 1.07D-02
 ErrMax= 1.07D-02  0.00D+00 EMaxC= 1.00D+00 BMatC= 1.25D-01 BMatP= 2.34D-01
 IDIUse=1 WtCom= 1.00D+00 WtEn= 0.00D+00
 Coeff-Com:  0.822D-01-0.288D+00-0.288D+01 0.408D+01
 Coeff:      0.822D-01-0.288D+00-0.288D+01 0.408D+01
 Gap=     0.211 Goal=   None    Shift=    0.500
 T= 1028. Gap= 0.711 NK=0 IS=  102 IE=  633 IFin=  101
          NO(<0.9)=   0  NV(>0.1)=   0    101.00e < EF      0.00e >EF  Err=0.0D+00
 Gap=     0.059 Goal=   None    Shift=    0.500
 T= 1028. Gap= 0.559 NK=0 IS=  101 IE=  633 IFin=  100
          NO(<0.9)=   0  NV(>0.1)=   0    100.00e < EF      0.00e >EF  Err=0.0D+00
 GapD=    0.059 DampG=0.500 DampE=0.500 DampFc=0.2500 IDamp=-1.
 Damping current iteration by 2.50D-01
 RMSDP=1.38D-03 MaxDP=9.17D-02 DE=-5.19D-02 OVMax= 1.27D-02

 Cycle   5  Pass 1  IDiag  1:
 E= -1775.84161529085     Delta-E=       -0.036178389269 Rises=F Damp=T
 DIIS: error= 8.18D-03 at cycle   5 NSaved=   5.
 NSaved= 5 IEnMin= 5 EnMin= -1775.84161529085     IErMin= 5 ErrMin= 8.18D-03
 ErrMax= 8.18D-03  0.00D+00 EMaxC= 1.00D+00 BMatC= 6.95D-02 BMatP= 1.25D-01
 IDIUse=1 WtCom= 1.00D+00 WtEn= 0.00D+00
 Coeff-Com: -0.339D-02 0.115D+01-0.133D+01-0.349D+01 0.468D+01
 Coeff:     -0.339D-02 0.115D+01-0.133D+01-0.349D+01 0.468D+01
 Gap=     0.214 Goal=   None    Shift=    0.500
 T=  895. Gap= 0.714 NK=0 IS=  102 IE=  633 IFin=  101
          NO(<0.9)=   0  NV(>0.1)=   0    101.00e < EF      0.00e >EF  Err=0.0D+00
 Gap=     0.063 Goal=   None    Shift=    0.500
 T=  895. Gap= 0.563 NK=0 IS=  101 IE=  633 IFin=  100
          NO(<0.9)=   0  NV(>0.1)=   0    100.00e < EF      0.00e >EF  Err=0.0D+00
 GapD=    0.063 DampG=0.500 DampE=1.000 DampFc=0.5000 IDamp=-1.
 Damping current iteration by 5.00D-01
 RMSDP=1.03D-03 MaxDP=6.75D-02 DE=-3.62D-02 OVMax= 1.17D-02

 Cycle   6  Pass 1  IDiag  1:
 E= -1775.89280520310     Delta-E=       -0.051189912244 Rises=F Damp=T
 DIIS: error= 4.49D-03 at cycle   6 NSaved=   6.
 NSaved= 6 IEnMin= 6 EnMin= -1775.89280520310     IErMin= 6 ErrMin= 4.49D-03
 ErrMax= 4.49D-03  0.00D+00 EMaxC= 1.00D+00 BMatC= 1.75D-02 BMatP= 6.95D-02
 IDIUse=1 WtCom= 1.00D+00 WtEn= 0.00D+00
 Coeff-Com: -0.184D-01 0.139D+00 0.591D+00 0.653D+00-0.395D+01 0.358D+01
 Coeff:     -0.184D-01 0.139D+00 0.591D+00 0.653D+00-0.395D+01 0.358D+01
 Gap=     0.216 Goal=   None    Shift=    0.500
 T=  688. Gap= 0.716 NK=0 IS=  102 IE=  633 IFin=  101
          NO(<0.9)=   0  NV(>0.1)=   0    101.00e < EF      0.00e >EF  Err=0.0D+00
 Gap=     0.066 Goal=   None    Shift=    0.500
 T=  688. Gap= 0.566 NK=0 IS=  101 IE=  633 IFin=  100
          NO(<0.9)=   0  NV(>0.1)=   0    100.00e < EF      0.00e >EF  Err=0.0D+00
 GapD=    0.066 DampG=0.500 DampE=1.000 DampFc=0.5000 IDamp=-1.
 Damping current iteration by 5.00D-01
 RMSDP=5.14D-04 MaxDP=3.30D-02 DE=-5.12D-02 OVMax= 1.18D-02

 Cycle   7  Pass 1  IDiag  1:
 E= -1775.91735312934     Delta-E=       -0.024547926238 Rises=F Damp=T
 DIIS: error= 2.89D-03 at cycle   7 NSaved=   7.
 NSaved= 7 IEnMin= 7 EnMin= -1775.91735312934     IErMin= 7 ErrMin= 2.89D-03
 ErrMax= 2.89D-03  0.00D+00 EMaxC= 1.00D+00 BMatC= 4.61D-03 BMatP= 1.75D-02
 IDIUse=1 WtCom= 1.00D+00 WtEn= 0.00D+00
 Coeff-Com: -0.463D-02-0.354D+00 0.722D+00 0.142D+01-0.253D+01-0.144D+01
 Coeff-Com:  0.318D+01
 Coeff:     -0.463D-02-0.354D+00 0.722D+00 0.142D+01-0.253D+01-0.144D+01
 Coeff:      0.318D+01
 Gap=     0.216 Goal=   None    Shift=    0.500
 T=  443. Gap= 0.716 NK=0 IS=  102 IE=  633 IFin=  101
          NO(<0.9)=   0  NV(>0.1)=   0    101.00e < EF      0.00e >EF  Err=0.0D+00
 Gap=     0.066 Goal=   None    Shift=    0.500
 T=  443. Gap= 0.567 NK=0 IS=  101 IE=  633 IFin=  100
          NO(<0.9)=   0  NV(>0.1)=   0    100.00e < EF      0.00e >EF  Err=0.0D+00
 GapD=    0.066 DampG=0.500 DampE=1.000 DampFc=0.5000 IDamp=-1.
 Damping current iteration by 5.00D-01
 RMSDP=2.70D-04 MaxDP=1.65D-02 DE=-2.45D-02 OVMax= 1.17D-02

 Cycle   8  Pass 1  IDiag  1:
 E= -1775.92954286892     Delta-E=       -0.012189739589 Rises=F Damp=T
 DIIS: error= 2.11D-03 at cycle   8 NSaved=   8.
 NSaved= 8 IEnMin= 8 EnMin= -1775.92954286892     IErMin= 8 ErrMin= 2.11D-03
 ErrMax= 2.11D-03  0.00D+00 EMaxC= 1.00D+00 BMatC= 1.33D-03 BMatP= 4.61D-03
 IDIUse=1 WtCom= 1.00D+00 WtEn= 0.00D+00
 Coeff-Com:  0.421D-02-0.169D+00-0.747D-01 0.330D+00 0.102D+01-0.196D+01
 Coeff-Com: -0.203D+01 0.388D+01
 Coeff:      0.421D-02-0.169D+00-0.747D-01 0.330D+00 0.102D+01-0.196D+01
 Coeff:     -0.203D+01 0.388D+01
 Gap=     0.217 Goal=   None    Shift=    0.500
 T=  146. Gap= 0.717 NK=0 IS=  102 IE=  633 IFin=  101
          NO(<0.9)=   0  NV(>0.1)=   0    101.00e < EF      0.00e >EF  Err=0.0D+00
 Gap=     0.067 Goal=   None    Shift=    0.500
 T=  146. Gap= 0.568 NK=0 IS=  101 IE=  633 IFin=  100
          NO(<0.9)=   0  NV(>0.1)=   0    100.00e < EF      0.00e >EF  Err=0.0D+00
 GapD=    0.067 DampG=0.500 DampE=1.000 DampFc=0.5000 IDamp=-1.
 Damping current iteration by 5.00D-01
 RMSDP=1.54D-04 MaxDP=8.56D-03 DE=-1.22D-02 OVMax= 1.21D-02

 Cycle   9  Pass 1  IDiag  1:
 E= -1775.93573289730     Delta-E=       -0.006190028378 Rises=F Damp=T
 DIIS: error= 2.06D-03 at cycle   9 NSaved=   9.
 NSaved= 9 IEnMin= 9 EnMin= -1775.93573289730     IErMin= 9 ErrMin= 2.06D-03
 ErrMax= 2.06D-03  0.00D+00 EMaxC= 1.00D+00 BMatC= 4.52D-04 BMatP= 1.33D-03
 IDIUse=1 WtCom= 1.00D+00 WtEn= 0.00D+00
 Coeff-Com:  0.222D-02-0.550D-01-0.155D+00 0.956D-02 0.103D+01-0.105D+01
 Coeff-Com: -0.119D+01 0.167D+00 0.224D+01
 Coeff:      0.222D-02-0.550D-01-0.155D+00 0.956D-02 0.103D+01-0.105D+01
 Coeff:     -0.119D+01 0.167D+00 0.224D+01
 Gap=     0.218 Goal=   None    Shift=    0.500
 Gap=     0.068 Goal=   None    Shift=    0.500
 GapD=    0.068 DampG=0.500 DampE=1.000 DampFc=0.5000 IDamp=-1.
 Damping current iteration by 5.00D-01
 RMSDP=9.67D-05 MaxDP=5.34D-03 DE=-6.19D-03 OVMax= 1.14D-02

 Cycle  10  Pass 1  IDiag  1:
 E= -1775.93893907295     Delta-E=       -0.003206175645 Rises=F Damp=T
 DIIS: error= 2.05D-03 at cycle  10 NSaved=  10.
 NSaved=10 IEnMin=10 EnMin= -1775.93893907295     IErMin=10 ErrMin= 2.05D-03
 ErrMax= 2.05D-03  0.00D+00 EMaxC= 1.00D+00 BMatC= 1.99D-04 BMatP= 4.52D-04
 IDIUse=1 WtCom= 1.00D+00 WtEn= 0.00D+00
 Coeff-Com: -0.713D-03-0.552D-01 0.898D-01 0.377D+00-0.679D+00 0.318D-01
 Coeff-Com:  0.871D+00 0.505D+00-0.520D+01 0.506D+01
 Coeff:     -0.713D-03-0.552D-01 0.898D-01 0.377D+00-0.679D+00 0.318D-01
 Coeff:      0.871D+00 0.505D+00-0.520D+01 0.506D+01
 Gap=     0.219 Goal=   None    Shift=    0.500
 Gap=     0.069 Goal=   None    Shift=    0.500
 GapD=    0.069 DampG=0.500 DampE=1.000 DampFc=0.5000 IDamp=-1.
 Damping current iteration by 5.00D-01
 RMSDP=7.24D-05 MaxDP=5.40D-03 DE=-3.21D-03 OVMax= 1.22D-02

 Cycle  11  Pass 1  IDiag  1:
 E= -1775.94064669900     Delta-E=       -0.001707626048 Rises=F Damp=T
 DIIS: error= 2.07D-03 at cycle  11 NSaved=  11.
 NSaved=11 IEnMin=11 EnMin= -1775.94064669900     IErMin=10 ErrMin= 2.05D-03
 ErrMax= 2.07D-03  0.00D+00 EMaxC= 1.00D+00 BMatC= 1.24D-04 BMatP= 1.99D-04
 IDIUse=1 WtCom= 1.00D+00 WtEn= 0.00D+00
 Coeff-Com: -0.874D-03-0.728D-01 0.151D+00 0.351D+00-0.763D+00 0.634D-01
 Coeff-Com:  0.933D+00 0.759D+00-0.484D+01 0.320D+01 0.122D+01
 Coeff:     -0.874D-03-0.728D-01 0.151D+00 0.351D+00-0.763D+00 0.634D-01
 Coeff:      0.933D+00 0.759D+00-0.484D+01 0.320D+01 0.122D+01
 Gap=     0.219 Goal=   None    Shift=    0.500
 Gap=     0.069 Goal=   None    Shift=    0.500
 GapD=    0.069 DampG=0.500 DampE=1.000 DampFc=0.5000 IDamp=-1.
 Damping current iteration by 5.00D-01
 RMSDP=5.67D-05 MaxDP=4.32D-03 DE=-1.71D-03 OVMax= 1.13D-02

 Cycle  12  Pass 1  IDiag  1:
 E= -1775.94159363303     Delta-E=       -0.000946934038 Rises=F Damp=T
 DIIS: error= 2.10D-03 at cycle  12 NSaved=  12.
 NSaved=12 IEnMin=12 EnMin= -1775.94159363303     IErMin=10 ErrMin= 2.05D-03
 ErrMax= 2.10D-03  0.00D+00 EMaxC= 1.00D+00 BMatC= 9.81D-05 BMatP= 1.24D-04
 IDIUse=1 WtCom= 1.00D+00 WtEn= 0.00D+00
 Coeff-Com: -0.509D-03-0.708D-01 0.113D+00 0.351D+00-0.597D+00-0.135D+00
 Coeff-Com:  0.699D+00 0.920D+00-0.381D+01 0.282D+01-0.672D+00 0.138D+01
 Coeff:     -0.509D-03-0.708D-01 0.113D+00 0.351D+00-0.597D+00-0.135D+00
 Coeff:      0.699D+00 0.920D+00-0.381D+01 0.282D+01-0.672D+00 0.138D+01
 Gap=     0.220 Goal=   None    Shift=    0.500
 Gap=     0.070 Goal=   None    Shift=    0.500
 GapD=    0.070 DampG=0.500 DampE=1.000 DampFc=0.5000 IDamp=-1.
 Damping current iteration by 5.00D-01
 RMSDP=4.62D-05 MaxDP=3.35D-03 DE=-9.47D-04 OVMax= 1.05D-02

 Cycle  13  Pass 1  IDiag  1:
 E= -1775.94214841534     Delta-E=       -0.000554782303 Rises=F Damp=T
 DIIS: error= 2.12D-03 at cycle  13 NSaved=  13.
 NSaved=13 IEnMin=13 EnMin= -1775.94214841534     IErMin=10 ErrMin= 2.05D-03
 ErrMax= 2.12D-03  0.00D+00 EMaxC= 1.00D+00 BMatC= 8.88D-05 BMatP= 9.81D-05
 IDIUse=1 WtCom= 1.00D+00 WtEn= 0.00D+00
 Coeff-Com: -0.434D-03-0.915D-01 0.162D+00 0.331D+00-0.638D+00-0.986D-01
 Coeff-Com:  0.666D+00 0.113D+01-0.418D+01 0.450D+01-0.603D+01 0.794D+01
 Coeff-Com: -0.270D+01
 Coeff:     -0.434D-03-0.915D-01 0.162D+00 0.331D+00-0.638D+00-0.986D-01
 Coeff:      0.666D+00 0.113D+01-0.418D+01 0.450D+01-0.603D+01 0.794D+01
 Coeff:     -0.270D+01
 Gap=     0.219 Goal=   None    Shift=    0.500
 Gap=     0.070 Goal=   None    Shift=    0.500
 GapD=    0.070 DampG=0.500 DampE=1.000 DampFc=0.5000 IDamp=-1.
 Damping current iteration by 5.00D-01
 RMSDP=3.65D-05 MaxDP=2.47D-03 DE=-5.55D-04 OVMax= 8.92D-03

 Cycle  14  Pass 1  IDiag  1:
 E= -1775.94249241560     Delta-E=       -0.000344000264 Rises=F Damp=T
 DIIS: error= 2.12D-03 at cycle  14 NSaved=  14.
 NSaved=14 IEnMin=14 EnMin= -1775.94249241560     IErMin=10 ErrMin= 2.05D-03
 ErrMax= 2.12D-03  0.00D+00 EMaxC= 1.00D+00 BMatC= 8.78D-05 BMatP= 8.88D-05
 IDIUse=1 WtCom= 1.00D+00 WtEn= 0.00D+00
 Large coefficients: NSaved= 14 BigCof=   15.21 CofMax=   10.00 Det=-1.21D-09
 Inversion failed.  Reducing to 13 matrices.
 Large coefficients: NSaved= 13 BigCof=   15.12 CofMax=   10.00 Det=-1.21D-09
 Inversion failed.  Reducing to 12 matrices.
 Coeff-Com: -0.334D-01 0.214D+00-0.214D+00-0.195D+00 0.404D+00 0.903D+00
 Coeff-Com: -0.344D+01 0.339D+01-0.339D+01 0.539D+01-0.274D+01 0.713D+00
 Coeff:     -0.334D-01 0.214D+00-0.214D+00-0.195D+00 0.404D+00 0.903D+00
 Coeff:     -0.344D+01 0.339D+01-0.339D+01 0.539D+01-0.274D+01 0.713D+00
 Gap=     0.220 Goal=   None    Shift=    0.500
 Gap=     0.070 Goal=   None    Shift=    0.500
 GapD=    0.070 DampG=0.500 DampE=1.000 DampFc=0.5000 IDamp=-1.
 Damping current iteration by 5.00D-01
 RMSDP=3.01D-05 MaxDP=2.07D-03 DE=-3.44D-04 OVMax= 7.95D-03

 Cycle  15  Pass 1  IDiag  1:
 E= -1775.94272051890     Delta-E=       -0.000228103303 Rises=F Damp=T
 DIIS: error= 2.12D-03 at cycle  15 NSaved=  13.
 NSaved=13 IEnMin=13 EnMin= -1775.94272051890     IErMin= 8 ErrMin= 2.05D-03
 ErrMax= 2.12D-03  0.00D+00 EMaxC= 1.00D+00 BMatC= 9.29D-05 BMatP= 8.78D-05
 IDIUse=1 WtCom= 1.00D+00 WtEn= 0.00D+00
 Large coefficients: NSaved= 13 BigCof=   10.85 CofMax=   10.00 Det=-1.64D-09
 Inversion failed.  Reducing to 12 matrices.
 Large coefficients: NSaved= 12 BigCof=   11.19 CofMax=   10.00 Det=-1.75D-09
 Inversion failed.  Reducing to 11 matrices.
 Large coefficients: NSaved= 11 BigCof=   10.03 CofMax=   10.00 Det=-1.11D-09
 Inversion failed.  Reducing to 10 matrices.
 Coeff-Com: -0.759D-01 0.242D+00 0.843D+00-0.350D+01 0.429D+01-0.674D+01
 Coeff-Com:  0.983D+01-0.358D+01-0.110D+01 0.798D+00
 Coeff:     -0.759D-01 0.242D+00 0.843D+00-0.350D+01 0.429D+01-0.674D+01
 Coeff:      0.983D+01-0.358D+01-0.110D+01 0.798D+00
 Gap=     0.219 Goal=   None    Shift=    0.500
 Gap=     0.070 Goal=   None    Shift=    0.500
 GapD=    0.070 DampG=0.500 DampE=1.000 DampFc=0.5000 IDamp=-1.
 Damping current iteration by 5.00D-01
 RMSDP=2.47D-05 MaxDP=1.69D-03 DE=-2.28D-04 OVMax= 6.73D-03

 Cycle  16  Pass 1  IDiag  1:
 E= -1775.94287975727     Delta-E=       -0.000159238364 Rises=F Damp=T
 DIIS: error= 2.10D-03 at cycle  16 NSaved=  11.
 NSaved=11 IEnMin=11 EnMin= -1775.94287975727     IErMin= 5 ErrMin= 2.05D-03
 ErrMax= 2.10D-03  0.00D+00 EMaxC= 1.00D+00 BMatC= 1.03D-04 BMatP= 8.78D-05
 IDIUse=1 WtCom= 1.00D+00 WtEn= 0.00D+00
 Large coefficients: NSaved= 11 BigCof=   12.21 CofMax=   10.00 Det=-1.26D-09
 Inversion failed.  Reducing to 10 matrices.
 Coeff-Com:  0.319D-02 0.909D+00-0.330D+01 0.437D+01-0.633D+01 0.874D+01
 Coeff-Com: -0.421D+01 0.378D+00 0.127D+01-0.828D+00
 Coeff:      0.319D-02 0.909D+00-0.330D+01 0.437D+01-0.633D+01 0.874D+01
 Coeff:     -0.421D+01 0.378D+00 0.127D+01-0.828D+00
 Gap=     0.219 Goal=   None    Shift=    0.500
 Gap=     0.070 Goal=   None    Shift=    0.500
 GapD=    0.070 DampG=0.500 DampE=1.000 DampFc=0.5000 IDamp=-1.
 Damping current iteration by 5.00D-01
 RMSDP=2.07D-05 MaxDP=1.40D-03 DE=-1.59D-04 OVMax= 5.77D-03

 Cycle  17  Pass 1  IDiag  1:
 E= -1775.94299623665     Delta-E=       -0.000116479381 Rises=F Damp=T
 DIIS: error= 2.09D-03 at cycle  17 NSaved=  11.
 NSaved=11 IEnMin=11 EnMin= -1775.94299623665     IErMin= 4 ErrMin= 2.05D-03
 ErrMax= 2.09D-03  0.00D+00 EMaxC= 1.00D+00 BMatC= 1.18D-04 BMatP= 8.78D-05
 IDIUse=1 WtCom= 1.00D+00 WtEn= 0.00D+00
 Coeff-Com: -0.102D-01 0.949D+00-0.333D+01 0.443D+01-0.630D+01 0.804D+01
 Coeff-Com: -0.316D+01-0.260D+00 0.274D+01-0.328D+01 0.119D+01
 Coeff:     -0.102D-01 0.949D+00-0.333D+01 0.443D+01-0.630D+01 0.804D+01
 Coeff:     -0.316D+01-0.260D+00 0.274D+01-0.328D+01 0.119D+01
 Gap=     0.219 Goal=   None    Shift=    0.500
 Gap=     0.070 Goal=   None    Shift=    0.500
 GapD=    0.070 DampG=0.500 DampE=1.000 DampFc=0.5000 IDamp=-1.
 Damping current iteration by 5.00D-01
 RMSDP=1.78D-05 MaxDP=1.19D-03 DE=-1.16D-04 OVMax= 5.13D-03

 Cycle  18  Pass 1  IDiag  1:
 E= -1775.94308618701     Delta-E=       -0.000089950366 Rises=F Damp=T
 DIIS: error= 2.07D-03 at cycle  18 NSaved=  12.
 NSaved=12 IEnMin=12 EnMin= -1775.94308618701     IErMin= 4 ErrMin= 2.05D-03
 ErrMax= 2.07D-03  0.00D+00 EMaxC= 1.00D+00 BMatC= 1.35D-04 BMatP= 8.78D-05
 IDIUse=1 WtCom= 1.00D+00 WtEn= 0.00D+00
 Large coefficients: NSaved= 12 BigCof=   12.42 CofMax=   10.00 Det=-7.64D-10
 Inversion failed.  Reducing to 11 matrices.
 Large coefficients: NSaved= 11 BigCof=   12.25 CofMax=   10.00 Det=-1.06D-09
 Inversion failed.  Reducing to 10 matrices.
 Coeff-Com: -0.140D+00 0.136D+01-0.404D+01 0.326D+01 0.108D+01-0.280D+00
 Coeff-Com: -0.113D+01-0.273D+01 0.868D+01-0.507D+01
 Coeff:     -0.140D+00 0.136D+01-0.404D+01 0.326D+01 0.108D+01-0.280D+00
 Coeff:     -0.113D+01-0.273D+01 0.868D+01-0.507D+01
 Gap=     0.220 Goal=   None    Shift=    0.500
 Gap=     0.071 Goal=   None    Shift=    0.500
 GapD=    0.071 DampG=0.500 DampE=1.000 DampFc=0.5000 IDamp=-1.
 Damping current iteration by 5.00D-01
 RMSDP=1.84D-05 MaxDP=1.29D-03 DE=-9.00D-05 OVMax= 5.58D-03

 Cycle  19  Pass 1  IDiag  1:
 E= -1775.94316818932     Delta-E=       -0.000082002310 Rises=F Damp=T
 DIIS: error= 2.06D-03 at cycle  19 NSaved=  11.
 NSaved=11 IEnMin=11 EnMin= -1775.94316818932     IErMin= 2 ErrMin= 2.05D-03
 ErrMax= 2.06D-03  0.00D+00 EMaxC= 1.00D+00 BMatC= 1.49D-04 BMatP= 8.78D-05
 IDIUse=1 WtCom= 1.00D+00 WtEn= 0.00D+00
 Large coefficients: NSaved= 11 BigCof=   19.55 CofMax=   10.00 Det=-7.81D-10
 Inversion failed.  Reducing to 10 matrices.
 Large coefficients: NSaved= 10 BigCof=   20.48 CofMax=   10.00 Det=-6.69D-10
 Inversion failed.  Reducing to  9 matrices.
 Large coefficients: NSaved=  9 BigCof=   15.03 CofMax=   10.00 Det=-1.10D-09
 Inversion failed.  Reducing to  8 matrices.
 Large coefficients: NSaved=  8 BigCof=   13.95 CofMax=   10.00 Det=-1.45D-09
 Inversion failed.  Reducing to  7 matrices.
 Large coefficients: NSaved=  7 BigCof=   14.28 CofMax=   10.00 Det=-1.45D-09
 Inversion failed.  Reducing to  6 matrices.
 Large coefficients: NSaved=  6 BigCof=   19.99 CofMax=   10.00 Det=-1.68D-09
 Inversion failed.  Reducing to  5 matrices.
 Large coefficients: NSaved=  5 BigCof=   19.76 CofMax=   10.00 Det=-1.69D-09
 Inversion failed.  Reducing to  4 matrices.
 Large coefficients: NSaved=  4 BigCof=   17.25 CofMax=   10.00 Det=-2.53D-09
 Inversion failed.  Reducing to  3 matrices.
 Coeff-Com:  0.561D+01-0.506D+01 0.450D+00
 Coeff:      0.561D+01-0.506D+01 0.450D+00
 Gap=     0.220 Goal=   None    Shift=    0.500
 Gap=     0.071 Goal=   None    Shift=    0.500
 GapD=    0.071 DampG=0.500 DampE=1.000 DampFc=0.5000 IDamp=-1.
 Damping current iteration by 5.00D-01
 RMSDP=1.71D-05 MaxDP=1.17D-03 DE=-8.20D-05 OVMax= 4.93D-03

 Cycle  20  Pass 1  IDiag  1:
 E= -1775.94324096206     Delta-E=       -0.000072772736 Rises=F Damp=T
 DIIS: error= 2.05D-03 at cycle  20 NSaved=   4.
 NSaved= 4 IEnMin= 4 EnMin= -1775.94324096206     IErMin= 4 ErrMin= 2.05D-03
 ErrMax= 2.05D-03  0.00D+00 EMaxC= 1.00D+00 BMatC= 1.62D-04 BMatP= 1.18D-04
 IDIUse=1 WtCom= 1.00D+00 WtEn= 0.00D+00
 Coeff-Com:  0.592D+01-0.483D+01-0.123D+01 0.114D+01
 Coeff:      0.592D+01-0.483D+01-0.123D+01 0.114D+01
 Gap=     0.220 Goal=   None    Shift=    0.500
 Gap=     0.071 Goal=   None    Shift=    0.500
 GapD=    0.071 DampG=0.500 DampE=1.000 DampFc=0.5000 IDamp=-1.
 Damping current iteration by 5.00D-01
 RMSDP=1.57D-05 MaxDP=1.04D-03 DE=-7.28D-05 OVMax= 4.48D-03

 Cycle  21  Pass 1  IDiag  1:
 E= -1775.94330568662     Delta-E=       -0.000064724556 Rises=F Damp=T
 DIIS: error= 2.04D-03 at cycle  21 NSaved=   5.
 NSaved= 5 IEnMin= 5 EnMin= -1775.94330568662     IErMin= 5 ErrMin= 2.04D-03
 ErrMax= 2.04D-03  0.00D+00 EMaxC= 1.00D+00 BMatC= 1.77D-04 BMatP= 1.18D-04
 IDIUse=1 WtCom= 1.00D+00 WtEn= 0.00D+00
 Large coefficients: NSaved=  5 BigCof=   21.54 CofMax=   10.00 Det=-3.58D-09
 Inversion failed.  Reducing to  4 matrices.
 Large coefficients: NSaved=  4 BigCof=   27.18 CofMax=   10.00 Det=-9.02D-09
 Inversion failed.  Reducing to  3 matrices.
 Large coefficients: NSaved=  3 BigCof=   26.95 CofMax=   10.00 Det=-9.49D-09
 Inversion failed.  Reducing to  2 matrices.
 Large coefficients: NSaved=  2 BigCof=   12.22 CofMax=   10.00 Det=-6.09D-07
 Coeff-Com:  0.122D+02-0.112D+02
 Coeff:      0.122D+02-0.112D+02
 Gap=     0.218 Goal=   None    Shift=    0.500
 Gap=     0.071 Goal=   None    Shift=    0.500
 GapD=    0.071 DampG=0.500 DampE=1.000 DampFc=0.5000 IDamp=-1.
 Damping current iteration by 5.00D-01
 RMSDP=1.31D-05 MaxDP=1.71D-03 DE=-6.47D-05 OVMax= 1.86D-03

 Cycle  22  Pass 1  IDiag  1:
 E= -1775.94334123514     Delta-E=       -0.000035548525 Rises=F Damp=T
 DIIS: error= 2.00D-03 at cycle  22 NSaved=   3.
 NSaved= 3 IEnMin= 3 EnMin= -1775.94334123514     IErMin= 3 ErrMin= 2.00D-03
 ErrMax= 2.00D-03  0.00D+00 EMaxC= 1.00D+00 BMatC= 2.07D-04 BMatP= 1.62D-04
 IDIUse=1 WtCom= 1.00D+00 WtEn= 0.00D+00
 Large coefficients: NSaved=  3 BigCof=   14.50 CofMax=   10.00 Det=-5.05D-08
 Inversion failed.  Reducing to  2 matrices.
 Coeff-Com:  0.606D+01-0.506D+01
 Coeff:      0.606D+01-0.506D+01
 Gap=     0.223 Goal=   None    Shift=    0.500
 Gap=     0.072 Goal=   None    Shift=    0.500
 GapD=    0.072 DampG=0.500 DampE=1.000 DampFc=0.5000 IDamp=-1.
 Damping current iteration by 5.00D-01
 RMSDP=3.08D-05 MaxDP=4.07D-03 DE=-3.55D-05 OVMax= 7.49D-03

 Cycle  23  Pass 1  IDiag  1:
 E= -1775.94342571276     Delta-E=       -0.000084477616 Rises=F Damp=T
 DIIS: error= 2.04D-03 at cycle  23 NSaved=   3.
 NSaved= 3 IEnMin= 3 EnMin= -1775.94342571276     IErMin= 2 ErrMin= 2.00D-03
 ErrMax= 2.04D-03  0.00D+00 EMaxC= 1.00D+00 BMatC= 1.81D-04 BMatP= 1.77D-04
 IDIUse=1 WtCom= 1.00D+00 WtEn= 0.00D+00
 Coeff-Com:  0.519D+01-0.598D+01 0.180D+01
 Coeff:      0.519D+01-0.598D+01 0.180D+01
 Gap=     0.224 Goal=   None    Shift=    0.500
 Gap=     0.072 Goal=   None    Shift=    0.500
 GapD=    0.072 DampG=0.500 DampE=1.000 DampFc=0.5000 IDamp=-1.
 Damping current iteration by 5.00D-01
 RMSDP=4.15D-05 MaxDP=6.06D-03 DE=-8.45D-05 OVMax= 8.41D-03

 Cycle  24  Pass 1  IDiag  1:
 E= -1775.94353300573     Delta-E=       -0.000107292975 Rises=F Damp=T
 DIIS: error= 2.10D-03 at cycle  24 NSaved=   4.
 NSaved= 4 IEnMin= 4 EnMin= -1775.94353300573     IErMin= 2 ErrMin= 2.00D-03
 ErrMax= 2.10D-03  0.00D+00 EMaxC= 1.00D+00 BMatC= 1.60D-04 BMatP= 1.77D-04
 IDIUse=1 WtCom= 1.00D+00 WtEn= 0.00D+00
 Coeff-Com:  0.643D+01-0.760D+01 0.405D+01-0.188D+01
 Coeff:      0.643D+01-0.760D+01 0.405D+01-0.188D+01
 Gap=     0.222 Goal=   None    Shift=    0.500
 Gap=     0.072 Goal=   None    Shift=    0.500
 GapD=    0.072 DampG=0.500 DampE=1.000 DampFc=0.5000 IDamp=-1.
 Damping current iteration by 5.00D-01
 RMSDP=2.51D-05 MaxDP=2.88D-03 DE=-1.07D-04 OVMax= 5.17D-03

 Cycle  25  Pass 1  IDiag  1:
 E= -1775.94362018122     Delta-E=       -0.000087175489 Rises=F Damp=T
 DIIS: error= 2.11D-03 at cycle  25 NSaved=   5.
 NSaved= 5 IEnMin= 5 EnMin= -1775.94362018122     IErMin= 2 ErrMin= 2.00D-03
 ErrMax= 2.11D-03  0.00D+00 EMaxC= 1.00D+00 BMatC= 1.67D-04 BMatP= 1.60D-04
 IDIUse=1 WtCom= 1.00D+00 WtEn= 0.00D+00
 Coeff-Com:  0.696D+01-0.843D+01 0.511D+01-0.329D+01 0.642D+00
 Coeff:      0.696D+01-0.843D+01 0.511D+01-0.329D+01 0.642D+00
 Gap=     0.222 Goal=   None    Shift=    0.500
 Gap=     0.072 Goal=   None    Shift=    0.500
 GapD=    0.072 DampG=0.500 DampE=1.000 DampFc=0.5000 IDamp=-1.
 Damping current iteration by 5.00D-01
 RMSDP=1.73D-05 MaxDP=1.18D-03 DE=-8.72D-05 OVMax= 4.30D-03

 Cycle  26  Pass 1  IDiag  1:
 E= -1775.94368983351     Delta-E=       -0.000069652289 Rises=F Damp=T
 DIIS: error= 2.10D-03 at cycle  26 NSaved=   6.
 NSaved= 6 IEnMin= 6 EnMin= -1775.94368983351     IErMin= 2 ErrMin= 2.00D-03
 ErrMax= 2.10D-03  0.00D+00 EMaxC= 1.00D+00 BMatC= 1.85D-04 BMatP= 1.60D-04
 IDIUse=1 WtCom= 1.00D+00 WtEn= 0.00D+00
 Large coefficients: NSaved=  6 BigCof=   32.63 CofMax=   10.00 Det=-3.61D-09
 Inversion failed.  Reducing to  5 matrices.
 Large coefficients: NSaved=  5 BigCof=   41.05 CofMax=   10.00 Det=-4.49D-09
 Inversion failed.  Reducing to  4 matrices.
 Large coefficients: NSaved=  4 BigCof=   45.27 CofMax=   10.00 Det=-4.64D-09
 Inversion failed.  Reducing to  3 matrices.
 Large coefficients: NSaved=  3 BigCof=   19.11 CofMax=   10.00 Det=-7.85D-08
 Inversion failed.  Reducing to  2 matrices.
 Coeff-Com:  0.807D+01-0.707D+01
 Coeff:      0.807D+01-0.707D+01
 Gap=     0.223 Goal=   None    Shift=    0.500
 Gap=     0.073 Goal=   None    Shift=    0.500
 GapD=    0.073 DampG=0.500 DampE=1.000 DampFc=0.5000 IDamp=-1.
 Damping current iteration by 5.00D-01
 RMSDP=1.82D-05 MaxDP=1.99D-03 DE=-6.97D-05 OVMax= 4.32D-03

 Cycle  27  Pass 1  IDiag  1:
 E= -1775.94375550540     Delta-E=       -0.000065671888 Rises=F Damp=T
 DIIS: error= 2.09D-03 at cycle  27 NSaved=   3.
 NSaved= 3 IEnMin= 3 EnMin= -1775.94375550540     IErMin= 3 ErrMin= 2.09D-03
 ErrMax= 2.09D-03  0.00D+00 EMaxC= 1.00D+00 BMatC= 1.97D-04 BMatP= 1.67D-04
 IDIUse=1 WtCom= 1.00D+00 WtEn= 0.00D+00
 Large coefficients: NSaved=  3 BigCof=   11.76 CofMax=   10.00 Det=-4.05D-07
 Inversion failed.  Reducing to  2 matrices.
 Coeff-Com:  0.206D+01-0.106D+01
 Coeff:      0.206D+01-0.106D+01
 Gap=     0.229 Goal=   None    Shift=    0.500
 Gap=     0.075 Goal=   None    Shift=    0.500
 GapD=    0.075 DampG=0.500 DampE=1.000 DampFc=0.5000 IDamp=-1.
 Damping current iteration by 5.00D-01
 RMSDP=5.01D-05 MaxDP=8.20D-03 DE=-6.57D-05 OVMax= 7.94D-03

 Cycle  28  Pass 1  IDiag  1:
 E= -1775.94386473123     Delta-E=       -0.000109225835 Rises=F Damp=T
 DIIS: error= 2.22D-03 at cycle  28 NSaved=   3.
 NSaved= 3 IEnMin= 3 EnMin= -1775.94386473123     IErMin= 2 ErrMin= 2.09D-03
 ErrMax= 2.22D-03  0.00D+00 EMaxC= 1.00D+00 BMatC= 1.36D-04 BMatP= 1.85D-04
 IDIUse=1 WtCom= 1.00D+00 WtEn= 0.00D+00
 Coeff-Com:  0.175D+01-0.248D+01 0.173D+01
 Coeff:      0.175D+01-0.248D+01 0.173D+01
 Gap=     0.228 Goal=   None    Shift=    0.500
 Gap=     0.074 Goal=   None    Shift=    0.500
 GapD=    0.074 DampG=0.500 DampE=1.000 DampFc=0.5000 IDamp=-1.
 Damping current iteration by 5.00D-01
 RMSDP=4.87D-05 MaxDP=7.19D-03 DE=-1.09D-04 OVMax= 9.62D-03

 Cycle  29  Pass 1  IDiag  1:
 E= -1775.94398963521     Delta-E=       -0.000124903972 Rises=F Damp=T
 DIIS: error= 2.28D-03 at cycle  29 NSaved=   4.
 NSaved= 4 IEnMin= 4 EnMin= -1775.94398963521     IErMin= 2 ErrMin= 2.09D-03
 ErrMax= 2.28D-03  0.00D+00 EMaxC= 1.00D+00 BMatC= 1.25D-04 BMatP= 1.36D-04
 IDIUse=1 WtCom= 1.00D+00 WtEn= 0.00D+00
 Coeff-Com:  0.131D+01-0.172D+01-0.518D+00 0.193D+01
 Coeff:      0.131D+01-0.172D+01-0.518D+00 0.193D+01
 Gap=     0.229 Goal=   None    Shift=    0.500
 Gap=     0.074 Goal=   None    Shift=    0.500
 GapD=    0.074 DampG=0.500 DampE=1.000 DampFc=0.5000 IDamp=-1.
 Damping current iteration by 5.00D-01
 RMSDP=5.14D-05 MaxDP=6.95D-03 DE=-1.25D-04 OVMax= 1.08D-02

 Cycle  30  Pass 1  IDiag  1:
 E= -1775.94413363840     Delta-E=       -0.000144003194 Rises=F Damp=T
 DIIS: error= 2.33D-03 at cycle  30 NSaved=   5.
 NSaved= 5 IEnMin= 5 EnMin= -1775.94413363840     IErMin= 2 ErrMin= 2.09D-03
 ErrMax= 2.33D-03  0.00D+00 EMaxC= 1.00D+00 BMatC= 1.22D-04 BMatP= 1.25D-04
 IDIUse=1 WtCom= 1.00D+00 WtEn= 0.00D+00
 Coeff-Com:  0.194D+01-0.213D+01-0.248D+01 0.731D+01-0.363D+01
 Coeff:      0.194D+01-0.213D+01-0.248D+01 0.731D+01-0.363D+01
 Gap=     0.227 Goal=   None    Shift=    0.500
 Gap=     0.074 Goal=   None    Shift=    0.500
 GapD=    0.074 DampG=0.500 DampE=1.000 DampFc=0.5000 IDamp=-1.
 Damping current iteration by 5.00D-01
 RMSDP=2.56D-05 MaxDP=1.51D-03 DE=-1.44D-04 OVMax= 5.80D-03

 Cycle  31  Pass 1  IDiag  1:
 E= -1775.94424412544     Delta-E=       -0.000110487038 Rises=F Damp=T
 DIIS: error= 2.29D-03 at cycle  31 NSaved=   6.
 NSaved= 6 IEnMin= 6 EnMin= -1775.94424412544     IErMin= 2 ErrMin= 2.09D-03
 ErrMax= 2.29D-03  0.00D+00 EMaxC= 1.00D+00 BMatC= 1.41D-04 BMatP= 1.22D-04
 IDIUse=1 WtCom= 1.00D+00 WtEn= 0.00D+00
 Coeff-Com:  0.181D+01-0.553D-01 0.642D+00-0.127D+01 0.658D+01-0.671D+01
 Coeff:      0.181D+01-0.553D-01 0.642D+00-0.127D+01 0.658D+01-0.671D+01
 Gap=     0.220 Goal=   None    Shift=    0.500
 Gap=     0.073 Goal=   None    Shift=    0.500
 GapD=    0.073 DampG=0.500 DampE=1.000 DampFc=0.5000 IDamp=-1.
 Damping current iteration by 5.00D-01
 RMSDP=6.07D-05 MaxDP=1.07D-02 DE=-1.10D-04 OVMax= 4.89D-03

 Cycle  32  Pass 1  IDiag  1:
 E= -1775.94421249944     Delta-E=        0.000031625995 Rises=F Damp=T
 DIIS: error= 2.09D-03 at cycle  32 NSaved=   7.
 NSaved= 7 IEnMin= 6 EnMin= -1775.94424412544     IErMin= 7 ErrMin= 2.09D-03
 ErrMax= 2.09D-03  0.00D+00 EMaxC= 1.00D+00 BMatC= 2.49D-04 BMatP= 1.22D-04
 IDIUse=1 WtCom= 1.00D+00 WtEn= 0.00D+00
 Coeff-Com:  0.174D+01-0.232D-01 0.744D+00-0.270D+01 0.992D+01-0.943D+01
 Coeff-Com:  0.739D+00
 Coeff:      0.174D+01-0.232D-01 0.744D+00-0.270D+01 0.992D+01-0.943D+01
 Coeff:      0.739D+00
 Gap=     0.220 Goal=   None    Shift=    0.000
 Gap=     0.073 Goal=   None    Shift=    0.000
 GapD=    0.073 DampG=0.500 DampE=1.000 DampFc=0.5000 IDamp=-1.
 Damping current iteration by 5.00D-01
 RMSDP=1.07D-04 MaxDP=1.63D-02 DE= 3.16D-05 OVMax= 3.40D-02

 >>>>>>>>>> Convergence criterion not met.
 SCF Done:  E(ULC-wHPBE) =  -1775.94421250     A.U. after   33 cycles
            NFock= 32  Conv=0.11D-03     -V/T= 2.0036
 <Sx>= 0.0000 <Sy>= 0.0000 <Sz>= 0.5000 <S**2>= 0.7576 S= 0.5038
 <L.S>= 0.000000000000E+00
 KE= 1.769526838476D+03 PE=-9.093270180565D+03 EE= 3.073114362230D+03
 Annihilation of the first spin contaminant:
 S**2 before annihilation     0.7576,   after     0.7494
 Leave Link  502 at Tue Jan 19 09:22:54 2021, MaxMem=  4026531840 cpu:           12471.6 elap:            1562.9
 (Enter /opt/ohpc/pub/libs/gaussian/g16-A.03/sandybridge/g16/l508.exe)
 Integral symmetry usage will be decided dynamically.
 Tight linear equation convergence will be used.
 ULC-wHPBE wavefunction.
 Quadratic Convergence SCF Method.
 Line search only if initial step raises energy.
 FoFJK:  IHMeth= 1 ICntrl=       0 DoSepK=T KAlg= 0 I1Cent=           0 FoldK=F
 IRaf=         1 NMat=       1 IRICut=       1 DoRegI=T DoRafI=F ISym2E= 1 IDoP0=0 IntGTp=1.
 FoFCou: FMM=F IPFlag=           0 FMFlag=      100000 FMFlg1=           0
         NFxFlg=           0 DoJE=T BraDBF=F KetDBF=F FulRan=T
         wScrn=  0.000000 ICntrl=       500 IOpCl=  0 I1Cent=           0 NGrid=           0
         NMat0=    1 NMatS0=      1 NMatT0=    0 NMatD0=    1 NMtDS0=    0 NMtDT0=    0
 Petite list used in FoFCou.
 Iteration   1 EE= -1775.94363148439                                    Grad=1.465D-02 Max rot=    0.2687 deg.
 Gradient too large for Newton-Raphson -- use scaled steepest descent instead.
     ILin= 1 X=0.000D+00 Y=-1.775943631484D+03 DE= 0.00D+00 F= -3.90D-04
     ILin= 2 X=3.000D-01 Y=-1.775943735517D+03 DE=-1.04D-04 F= -3.03D-04
     ILin= 3 X=6.000D-01 Y=-1.775943813551D+03 DE=-1.82D-04 F= -2.17D-04
     ILin= 4 X=1.200D+00 Y=-1.775943891843D+03 DE=-2.60D-04 F= -4.43D-05
     ILin= 5 X=2.400D+00 Y=-1.775943738867D+03 DE=-1.07D-04 F=  2.99D-04
     An  expanding polynomial of degree  5 produced  1.3543
 Iteration   2 EE= -1775.94389525536     Delta-E=       -0.000263770975 Grad=1.350D-02 Max rot=    0.4047 deg.
 Gradient too large for Newton-Raphson -- use scaled steepest descent instead.
     ILin= 1 X=0.000D+00 Y=-1.775943895255D+03 DE= 0.00D+00 F= -3.48D-04
     ILin= 2 X=6.000D-01 Y=-1.775944056762D+03 DE=-1.62D-04 F= -1.90D-04
     ILin= 3 X=1.300D+00 Y=-1.775944124834D+03 DE=-2.30D-04 F= -4.15D-06
     Reject lnstep minimum 1.394D+00 FVal=-1.775944125083D+03 Lims=  6.00D-01  1.30D+00
     ILin= 4 X=2.500D+00 Y=-1.775943936768D+03 DE=-4.15D-05 F=  3.18D-04
     An  expanding polynomial of degree  4 produced  1.3156
     Minimum is close to point  3 DX=  1.56D-02 DF= -3.23D-08 DXR=  1.18D-02 DFR=  1.41D-04 which will be used.
 Iteration   3 EE= -1775.94412483407     Delta-E=       -0.000229578709 Grad=1.456D-02 Max rot=    0.3165 deg.
 Gradient too large for Newton-Raphson -- use scaled steepest descent instead.
     ILin= 1 X=0.000D+00 Y=-1.775944124834D+03 DE= 0.00D+00 F= -3.51D-04
     ILin= 2 X=1.300D+00 Y=-1.775944349941D+03 DE=-2.25D-04 F=  3.77D-06
     Accept linear search using points  1 and  2.
     An  expanding polynomial of degree  2 produced  1.2931
     Minimum is close to point  2 DX= -6.89D-03 DF= -9.97D-09 DXR=  5.33D-03 DFR=  4.43D-05 which will be used.
 Iteration   4 EE= -1775.94434994114     Delta-E=       -0.000225107065 Grad=1.448D-02 Max rot=    0.4206 deg.
 Gradient too large for Newton-Raphson -- use scaled steepest descent instead.
     ILin= 1 X=0.000D+00 Y=-1.775944349941D+03 DE= 0.00D+00 F= -3.81D-04
     ILin= 2 X=1.300D+00 Y=-1.775944575925D+03 DE=-2.26D-04 F=  3.41D-05
     Accept linear search using points  1 and  2.
     An  expanding polynomial of degree  2 produced  1.2411
     Minimum is close to point  2 DX= -5.89D-02 DF= -7.65D-07 DXR=  4.74D-02 DFR=  3.38D-03 which will be used.
 Iteration   5 EE= -1775.94457592509     Delta-E=       -0.000225983951 Grad=1.660D-02 Max rot=    0.3299 deg.
 Gradient too large for Newton-Raphson -- use scaled steepest descent instead.
     ILin= 1 X=0.000D+00 Y=-1.775944575925D+03 DE= 0.00D+00 F= -4.27D-04
     ILin= 2 X=1.300D+00 Y=-1.775944802672D+03 DE=-2.27D-04 F=  7.78D-05
     Accept linear search using points  1 and  2.
     An  expanding polynomial of degree  2 produced  1.1754
 Iteration   6 EE= -1775.94480935706     Delta-E=       -0.000233431967 Grad=1.476D-02 Max rot=    0.4313 deg.
 Gradient too large for Newton-Raphson -- use scaled steepest descent instead.
     ILin= 1 X=0.000D+00 Y=-1.775944809357D+03 DE= 0.00D+00 F= -3.93D-04
     ILin= 2 X=1.200D+00 Y=-1.775945045414D+03 DE=-2.36D-04 F=  5.25D-07
     Accept linear search using points  1 and  2.
     An  expanding polynomial of degree  2 produced  1.1990
     Minimum is close to point  2 DX= -9.60D-04 DF= -2.10D-10 DXR=  8.00D-04 DFR=  8.89D-07 which will be used.
 Iteration   7 EE= -1775.94504541439     Delta-E=       -0.000236057329 Grad=1.529D-02 Max rot=    0.3495 deg.
 Gradient too large for Newton-Raphson -- use scaled steepest descent instead.
     ILin= 1 X=0.000D+00 Y=-1.775945045414D+03 DE= 0.00D+00 F= -3.83D-04
     ILin= 2 X=1.200D+00 Y=-1.775945285738D+03 DE=-2.40D-04 F= -1.80D-05
     Reject lnstep minimum 1.234D+00 FVal=-1.775945285992D+03 Lims=  0.00D+00  1.20D+00
     ILin= 3 X=2.400D+00 Y=-1.775945089278D+03 DE=-4.39D-05 F=  3.45D-04
     An  expanding polynomial of degree  3 produced  1.2603
     Minimum is close to point  2 DX=  6.03D-02 DF= -5.51D-07 DXR=  4.78D-02 DFR=  2.29D-03 which will be used.
 Iteration   8 EE= -1775.94528573814     Delta-E=       -0.000240323751 Grad=1.418D-02 Max rot=    0.4387 deg.
 Gradient too large for Newton-Raphson -- use scaled steepest descent instead.
     ILin= 1 X=0.000D+00 Y=-1.775945285738D+03 DE= 0.00D+00 F= -3.77D-04
     ILin= 2 X=1.200D+00 Y=-1.775945531096D+03 DE=-2.45D-04 F= -3.17D-05
     Reject lnstep minimum 1.259D+00 FVal=-1.775945531889D+03 Lims=  0.00D+00  1.20D+00
     ILin= 3 X=2.500D+00 Y=-1.775945327438D+03 DE=-4.17D-05 F=  3.46D-04
     An  expanding polynomial of degree  3 produced  1.3077
     Minimum is close to point  2 DX=  1.08D-01 DF= -1.68D-06 DXR=  8.24D-02 DFR=  6.83D-03 which will be used.
 Iteration   9 EE= -1775.94553109636     Delta-E=       -0.000245358225 Grad=1.482D-02 Max rot=    0.3616 deg.
 Gradient too large for Newton-Raphson -- use scaled steepest descent instead.
     ILin= 1 X=0.000D+00 Y=-1.775945531096D+03 DE= 0.00D+00 F= -3.71D-04
     ILin= 2 X=1.300D+00 Y=-1.775945784178D+03 DE=-2.53D-04 F= -1.89D-05
     Reject lnstep minimum 1.332D+00 FVal=-1.775945784409D+03 Lims=  0.00D+00  1.30D+00
     ILin= 3 X=2.600D+00 Y=-1.775945581091D+03 DE=-5.00D-05 F=  3.31D-04
     An  expanding polynomial of degree  3 produced  1.3712
     Minimum is close to point  2 DX=  7.12D-02 DF= -6.85D-07 DXR=  5.20D-02 DFR=  2.71D-03 which will be used.
 Iteration  10 EE= -1775.94578417779     Delta-E=       -0.000253081424 Grad=1.542D-02 Max rot=    0.4534 deg.
 Gradient too large for Newton-Raphson -- use scaled steepest descent instead.
     ILin= 1 X=0.000D+00 Y=-1.775945784178D+03 DE= 0.00D+00 F= -4.25D-04
     ILin= 2 X=1.300D+00 Y=-1.775946038331D+03 DE=-2.54D-04 F=  3.50D-05
     Accept linear search using points  1 and  2.
     An  expanding polynomial of degree  2 produced  1.2460
     Minimum is close to point  2 DX= -5.40D-02 DF= -7.20D-07 DXR=  4.33D-02 DFR=  2.83D-03 which will be used.
 Iteration  11 EE= -1775.94603833141     Delta-E=       -0.000254153627 Grad=1.809D-02 Max rot=    0.3566 deg.
 Gradient too large for Newton-Raphson -- use scaled steepest descent instead.
     ILin= 1 X=0.000D+00 Y=-1.775946038331D+03 DE= 0.00D+00 F= -4.94D-04
     ILin= 2 X=1.300D+00 Y=-1.775946291556D+03 DE=-2.53D-04 F=  1.04D-04
     Accept linear search using points  1 and  2.
     An  expanding polynomial of degree  2 produced  1.1551
 Iteration  12 EE= -1775.94630180625     Delta-E=       -0.000263474836 Grad=1.586D-02 Max rot=    0.4639 deg.
 Gradient too large for Newton-Raphson -- use scaled steepest descent instead.
     ILin= 1 X=0.000D+00 Y=-1.775946301806D+03 DE= 0.00D+00 F= -4.47D-04
     ILin= 2 X=1.200D+00 Y=-1.775946566464D+03 DE=-2.65D-04 F=  5.97D-06
     Accept linear search using points  1 and  2.
     An  expanding polynomial of degree  2 produced  1.1904
     Minimum is close to point  2 DX= -9.64D-03 DF= -2.40D-08 DXR=  8.10D-03 DFR=  9.05D-05 which will be used.
 Iteration  13 EE= -1775.94656646376     Delta-E=       -0.000264657512 Grad=1.662D-02 Max rot=    0.3677 deg.
 Gradient too large for Newton-Raphson -- use scaled steepest descent instead.
     ILin= 1 X=0.000D+00 Y=-1.775946566464D+03 DE= 0.00D+00 F= -4.40D-04
     ILin= 2 X=1.200D+00 Y=-1.775946834554D+03 DE=-2.68D-04 F= -7.42D-06
     Reject lnstep minimum 1.212D+00 FVal=-1.775946834591D+03 Lims=  0.00D+00  1.20D+00
     ILin= 3 X=2.300D+00 Y=-1.775946625313D+03 DE=-5.88D-05 F=  3.88D-04
     An  expanding polynomial of degree  3 produced  1.2211
     Minimum is close to point  2 DX=  2.11D-02 DF= -8.04D-08 DXR=  1.73D-02 DFR=  3.00D-04 which will be used.
 Iteration  14 EE= -1775.94683455357     Delta-E=       -0.000268089804 Grad=1.544D-02 Max rot=    0.4693 deg.
 Gradient too large for Newton-Raphson -- use scaled steepest descent instead.
     ILin= 1 X=0.000D+00 Y=-1.775946834554D+03 DE= 0.00D+00 F= -4.34D-04
     ILin= 2 X=1.200D+00 Y=-1.775947106034D+03 DE=-2.71D-04 F= -1.76D-05
     Reject lnstep minimum 1.229D+00 FVal=-1.775947106246D+03 Lims=  0.00D+00  1.20D+00
     ILin= 3 X=2.400D+00 Y=-1.775946875580D+03 DE=-4.10D-05 F=  4.02D-04
     An  expanding polynomial of degree  3 produced  1.2490
     Minimum is close to point  2 DX=  4.90D-02 DF= -4.19D-07 DXR=  3.93D-02 DFR=  1.54D-03 which will be used.
 Iteration  15 EE= -1775.94710603367     Delta-E=       -0.000271480102 Grad=1.625D-02 Max rot=    0.3729 deg.
 Gradient too large for Newton-Raphson -- use scaled steepest descent instead.
     ILin= 1 X=0.000D+00 Y=-1.775947106034D+03 DE= 0.00D+00 F= -4.28D-04
     ILin= 2 X=1.200D+00 Y=-1.775947380214D+03 DE=-2.74D-04 F= -2.87D-05
[...]
     4   Atom       -0.000789     -0.000233      0.001021
     5   Atom        0.027781     -0.012884     -0.014897
     6   Atom       -0.073071      0.028525      0.044546
     7   Atom        0.000846     -0.001065      0.000218
     8   Atom        0.001116     -0.000811     -0.000305
     9   Atom        0.000626     -0.000373     -0.000253
    10   Atom       -0.049332      0.066411     -0.017080
    11   Atom        0.022617     -0.009654     -0.012963
    12   Atom       -0.060096      0.070558     -0.010462
    13   Atom        0.012332     -0.023444      0.011112
    14   Atom       -0.002842      0.002073      0.000769
    15   Atom        0.001623     -0.001470     -0.000152
    16   Atom       -0.003719      0.001088      0.002630
    17   Atom       -0.001930      0.001170      0.000761
    18   Atom        0.001167     -0.000481     -0.000687
    19   Atom        0.001691     -0.001096     -0.000596
    20   Atom        0.000322     -0.000124     -0.000197
    21   Atom        0.000431     -0.000249     -0.000183
    22   Atom        0.000125     -0.000161      0.000036
    23   Atom       -0.007198     -0.009062      0.016260
    24   Atom       -0.461429     -0.465679      0.927108
    25   Atom       -0.012716     -0.000271      0.012987
    26   Atom        0.062249     -0.038477     -0.023771
    27   Atom        0.022228     -0.002397     -0.019832
    28   Atom       -0.002901      0.013786     -0.010885
    29   Atom       -0.009145      0.017545     -0.008400
    30   Atom        0.016666     -0.048275      0.031609
    31   Atom       -0.001320      0.001279      0.000041
    32   Atom       -0.000929     -0.000675      0.001604
    33   Atom       -0.000693      0.001218     -0.000525
    34   Atom       -0.000325      0.000594     -0.000269
    35   Atom        0.000884      0.002728     -0.003611
    36   Atom       -0.014109      0.007269      0.006840
    37   Atom        0.031963     -0.051268      0.019305
    38   Atom        0.004999     -0.027543      0.022544
    39   Atom        0.008438      0.018708     -0.027146
    40   Atom        0.005463      0.021098     -0.026562
    41   Atom       -0.030178     -0.056444      0.086623
    42   Atom        0.002287      0.000015     -0.002303
    43   Atom        0.003324     -0.001754     -0.001570
    44   Atom       -0.000305      0.001674     -0.001369
    45   Atom        0.000146      0.001192     -0.001337
    46   Atom       -0.003542      0.005911     -0.002369
 --------------------------------------------------------
                        XY            XZ            YZ
 --------------------------------------------------------
     1   Atom       -0.002104      0.003137      0.000174
     2   Atom       -0.014108     -0.005532      0.009093
     3   Atom        0.036307     -0.008763     -0.029743
     4   Atom        0.001903     -0.002611     -0.003601
     5   Atom        0.009371      0.008164     -0.036427
     6   Atom       -0.031092     -0.033024      0.126066
     7   Atom       -0.000293     -0.000454      0.001165
     8   Atom       -0.000190     -0.001040      0.001847
     9   Atom       -0.000043     -0.000020     -0.000004
    10   Atom       -0.053615     -0.029350      0.081178
    11   Atom        0.013593      0.015844     -0.033926
    12   Atom       -0.013310     -0.011826      0.081460
    13   Atom        0.005783      0.001928     -0.005092
    14   Atom        0.002160     -0.003251     -0.006188
    15   Atom       -0.000160      0.001386     -0.001917
    16   Atom       -0.000945      0.002402     -0.005771
    17   Atom       -0.000079     -0.000634     -0.003162
    18   Atom       -0.001130     -0.001705      0.002137
    19   Atom        0.001541     -0.000052     -0.001789
    20   Atom       -0.000290     -0.000449      0.000418
    21   Atom       -0.000085     -0.000182      0.000147
    22   Atom       -0.000321     -0.000461      0.000198
    23   Atom       -0.001862      0.004190     -0.004935
    24   Atom       -0.052994     -0.282407      0.270122
    25   Atom       -0.017003      0.003274      0.003719
    26   Atom        0.041094     -0.050231     -0.021168
    27   Atom        0.058729     -0.051884     -0.037001
    28   Atom       -0.013370      0.025348      0.011559
    29   Atom       -0.011080      0.027575      0.007567
    30   Atom        0.027646     -0.085404     -0.034843
    31   Atom        0.001908      0.002998      0.004598
    32   Atom        0.001961      0.004465      0.002872
    33   Atom       -0.001251      0.001201      0.000534
    34   Atom       -0.001335      0.001613      0.000125
    35   Atom       -0.006414     -0.000817     -0.004757
    36   Atom        0.010370     -0.014058      0.005079
    37   Atom       -0.010746      0.072824     -0.013603
    38   Atom       -0.037177      0.067297     -0.037813
    39   Atom        0.006294     -0.020469      0.008595
    40   Atom        0.003765     -0.023765      0.003179
    41   Atom       -0.006109      0.069611     -0.018964
    42   Atom       -0.003258     -0.003363      0.002849
    43   Atom       -0.002051     -0.004475      0.001028
    44   Atom        0.000559     -0.001204      0.000514
    45   Atom        0.001052     -0.001399      0.000121
    46   Atom        0.006217      0.002240     -0.002158
 --------------------------------------------------------


 ---------------------------------------------------------------------------------
              Anisotropic Spin Dipole Couplings in Principal Axis System
 ---------------------------------------------------------------------------------

       Atom             a.u.   MegaHertz   Gauss  10(-4) cm-1        Axes

              Baa    -0.0040    -0.538    -0.192    -0.180  0.4178  0.8306 -0.3681
     1 C(13)  Bbb    -0.0013    -0.169    -0.060    -0.056 -0.3313  0.5166  0.7896
              Bcc     0.0053     0.708     0.252     0.236  0.8460 -0.2079  0.4910
 
              Baa    -0.0134    -1.795    -0.641    -0.599 -0.0417 -0.4008  0.9152
     2 C(13)  Bbb    -0.0096    -1.283    -0.458    -0.428  0.8243  0.5039  0.2582
              Bcc     0.0229     3.079     1.099     1.027 -0.5647  0.7652  0.3093
 
              Baa    -0.0642    -2.633    -0.940    -0.878  0.9739 -0.2148  0.0729
     3 S(33)  Bbb    -0.0415    -1.700    -0.607    -0.567 -0.0230  0.2261  0.9738
              Bcc     0.1057     4.333     1.546     1.445  0.2256  0.9501 -0.2153
 
              Baa    -0.0033    -0.444    -0.158    -0.148  0.1979  0.6915  0.6948
     4 C(13)  Bbb    -0.0024    -0.316    -0.113    -0.105  0.8722 -0.4476  0.1971
              Bcc     0.0057     0.760     0.271     0.253 -0.4473 -0.5670  0.6917
 
              Baa    -0.0522    -7.011    -2.502    -2.339 -0.1530  0.6906  0.7069
     5 C(13)  Bbb     0.0224     3.007     1.073     1.003  0.1357 -0.6939  0.7072
              Bcc     0.0298     4.004     1.429     1.336  0.9789  0.2041  0.0124
 
              Baa    -0.0898   -12.048    -4.299    -4.019  0.0085  0.7302 -0.6832
     6 C(13)  Bbb    -0.0815   -10.935    -3.902    -3.648  0.9832  0.1186  0.1390
              Bcc     0.1713    22.983     8.201     7.666 -0.1825  0.6729  0.7169
 
              Baa    -0.0018    -0.235    -0.084    -0.078  0.0087  0.8618 -0.5071
     7 C(13)  Bbb     0.0003     0.045     0.016     0.015  0.7264  0.3431  0.5955
              Bcc     0.0014     0.190     0.068     0.063  0.6872 -0.3736 -0.6231
 
              Baa    -0.0025    -0.337    -0.120    -0.112 -0.1565  0.7192 -0.6769
     8 C(13)  Bbb     0.0004     0.048     0.017     0.016  0.7164  0.5545  0.4235
              Bcc     0.0022     0.289     0.103     0.096  0.6800 -0.4186 -0.6020
 
              Baa    -0.0004    -0.200    -0.071    -0.067  0.0437  0.9982  0.0415
     9 H(1)   Bbb    -0.0003    -0.135    -0.048    -0.045  0.0208 -0.0425  0.9989
              Bcc     0.0006     0.335     0.120     0.112  0.9988 -0.0428 -0.0226
 
              Baa    -0.0711    -9.541    -3.405    -3.183  0.8118  0.4972 -0.3061
    10 C(13)  Bbb    -0.0650    -8.717    -3.110    -2.908  0.4930 -0.3028  0.8156
              Bcc     0.1361    18.258     6.515     6.090 -0.3129  0.8131  0.4910
 
              Baa    -0.0512    -6.866    -2.450    -2.290 -0.2720  0.6608  0.6996
    11 C(13)  Bbb     0.0225     3.016     1.076     1.006  0.1629  0.7481 -0.6433
              Bcc     0.0287     3.850     1.374     1.284  0.9484  0.0610  0.3111
 
              Baa    -0.0644    -8.644    -3.084    -2.883  0.7512 -0.2852  0.5952
    12 C(13)  Bbb    -0.0583    -7.823    -2.791    -2.609  0.6531  0.4517 -0.6078
              Bcc     0.1227    16.466     5.876     5.493 -0.0956  0.8454  0.5256
 
              Baa    -0.0251    -3.374    -1.204    -1.125 -0.1582  0.9766  0.1456
    13 C(13)  Bbb     0.0113     1.514     0.540     0.505 -0.4625 -0.2036  0.8629
              Bcc     0.0139     1.860     0.664     0.620  0.8724  0.0692  0.4839
 
              Baa    -0.0054    -2.898    -1.034    -0.967  0.5377  0.4389  0.7199
    14 H(1)   Bbb    -0.0034    -1.835    -0.655    -0.612  0.7846 -0.5731 -0.2366
              Bcc     0.0089     4.733     1.689     1.579  0.3087  0.6921 -0.6525
 
              Baa    -0.0029    -1.572    -0.561    -0.524 -0.1581  0.7758  0.6108
    15 H(1)   Bbb     0.0002     0.128     0.046     0.043  0.6182  0.5601 -0.5514
              Bcc     0.0027     1.444     0.515     0.482  0.7699 -0.2904  0.5682
 
              Baa    -0.0050    -2.642    -0.943    -0.881  0.7430 -0.3979 -0.5382
    16 H(1)   Bbb    -0.0032    -1.723    -0.615    -0.575  0.6384  0.6629  0.3912
              Bcc     0.0082     4.365     1.558     1.456  0.2011 -0.6343  0.7465
 
              Baa    -0.0026    -0.350    -0.125    -0.117  0.6173  0.5125  0.5970
    17 C(13)  Bbb    -0.0015    -0.208    -0.074    -0.069  0.7843 -0.4606 -0.4155
              Bcc     0.0042     0.558     0.199     0.186  0.0620  0.7247 -0.6863
 
              Baa    -0.0028    -1.489    -0.531    -0.497  0.1475 -0.6317  0.7610
    18 H(1)   Bbb    -0.0006    -0.315    -0.112    -0.105  0.7236  0.5934  0.3524
              Bcc     0.0034     1.804     0.644     0.602  0.6742 -0.4987 -0.5447
 
              Baa    -0.0029    -1.571    -0.561    -0.524 -0.2503  0.7729  0.5831
    19 H(1)   Bbb     0.0003     0.181     0.065     0.060  0.4998 -0.4127  0.7615
              Bcc     0.0026     1.390     0.496     0.464  0.8292  0.4821 -0.2830
 
              Baa    -0.0006    -0.325    -0.116    -0.108  0.2098 -0.5630  0.7994
    20 H(1)   Bbb    -0.0002    -0.110    -0.039    -0.037  0.6496  0.6913  0.3163
              Bcc     0.0008     0.435     0.155     0.145  0.7307 -0.4529 -0.5108
 
              Baa    -0.0004    -0.197    -0.070    -0.066 -0.0698  0.7505 -0.6572
    21 H(1)   Bbb    -0.0001    -0.070    -0.025    -0.023  0.3217  0.6405  0.6973
              Bcc     0.0005     0.267     0.095     0.089  0.9443 -0.1627 -0.2861
 
              Baa    -0.0004    -0.226    -0.081    -0.075  0.7108  0.4945  0.5002
    22 H(1)   Bbb    -0.0003    -0.150    -0.053    -0.050 -0.0981  0.7739 -0.6257
              Bcc     0.0007     0.376     0.134     0.125  0.6965 -0.3957 -0.5986
 
              Baa    -0.0104    -0.428    -0.153    -0.143  0.3863  0.9159  0.1087
    23 S(33)  Bbb    -0.0075    -0.309    -0.110    -0.103  0.9056 -0.3544 -0.2328
              Bcc     0.0180     0.737     0.263     0.246  0.1748 -0.1884  0.9664
 
              Baa    -0.5167   -19.929    -7.111    -6.647  0.9452  0.3000  0.1288
    24 N(14)  Bbb    -0.5162   -19.908    -7.104    -6.641 -0.2663  0.9367 -0.2274
              Bcc     1.0329    39.837    14.215    13.288 -0.1888  0.1807  0.9652
 
              Baa    -0.0252    -3.383    -1.207    -1.128  0.8109  0.5716 -0.1252
    25 C(13)  Bbb     0.0111     1.486     0.530     0.496 -0.5660  0.7119 -0.4157
              Bcc     0.0141     1.896     0.677     0.633 -0.1485  0.4079  0.9008
 
              Baa    -0.0543    -7.288    -2.601    -2.431 -0.1699  0.9184  0.3572
    26 C(13)  Bbb    -0.0464    -6.224    -2.221    -2.076  0.4806 -0.2392  0.8437
              Bcc     0.1007    13.512     4.821     4.507  0.8603  0.3150 -0.4008
 
              Baa    -0.0552    -7.412    -2.645    -2.472  0.6475 -0.2059  0.7337
    27 C(13)  Bbb    -0.0477    -6.397    -2.283    -2.134 -0.3089  0.8092  0.4998
              Bcc     0.1029    13.809     4.927     4.606  0.6966  0.5503 -0.4604
 
              Baa    -0.0384    -5.155    -1.839    -1.720 -0.6272 -0.3181  0.7110
    28 C(13)  Bbb     0.0167     2.235     0.798     0.746  0.4405  0.6080  0.6606
              Bcc     0.0218     2.920     1.042     0.974 -0.6423  0.7275 -0.2412
 
              Baa    -0.0394    -5.289    -1.887    -1.764  0.6999  0.2261 -0.6775
    29 C(13)  Bbb     0.0172     2.309     0.824     0.770  0.4825  0.5497  0.6820
              Bcc     0.0222     2.980     1.063     0.994 -0.5266  0.8042 -0.2757
 
              Baa    -0.0639    -8.576    -3.060    -2.861  0.4871  0.5846  0.6488
    30 C(13)  Bbb    -0.0576    -7.724    -2.756    -2.576 -0.5829  0.7709 -0.2570
              Bcc     0.1215    16.300     5.816     5.437 -0.6504 -0.2530  0.7162
 
              Baa    -0.0045    -2.394    -0.854    -0.798 -0.4460 -0.4632  0.7658
    31 H(1)   Bbb    -0.0023    -1.211    -0.432    -0.404  0.8044 -0.5827  0.1160
              Bcc     0.0068     3.605     1.286     1.202  0.3925  0.6677  0.6325
 
              Baa    -0.0043    -2.303    -0.822    -0.768  0.7795  0.0712 -0.6224
    32 H(1)   Bbb    -0.0023    -1.235    -0.441    -0.412 -0.3189  0.9003 -0.2964
              Bcc     0.0066     3.538     1.262     1.180  0.5392  0.4295  0.7244
 
              Baa    -0.0023    -1.222    -0.436    -0.407  0.7223  0.3486 -0.5973
    33 H(1)   Bbb     0.0005     0.241     0.086     0.080  0.5216  0.2925  0.8015
              Bcc     0.0018     0.981     0.350     0.327 -0.4541  0.8905 -0.0295
 
              Baa    -0.0023    -1.232    -0.440    -0.411  0.7219  0.3575 -0.5924
    34 H(1)   Bbb     0.0003     0.182     0.065     0.061  0.1984  0.7133  0.6722
              Bcc     0.0020     1.051     0.375     0.350  0.6629 -0.6028  0.4440
 
              Baa    -0.0082    -4.358    -1.555    -1.454  0.4648  0.5696  0.6779
    35 H(1)   Bbb    -0.0009    -0.490    -0.175    -0.163 -0.6688 -0.2759  0.6904
              Bcc     0.0091     4.848     1.730     1.617 -0.5802  0.7743 -0.2527
 
              Baa    -0.0253    -3.390    -1.210    -1.131  0.8427 -0.3345  0.4219
    36 C(13)  Bbb     0.0114     1.525     0.544     0.509  0.2798  0.9416  0.1876
              Bcc     0.0139     1.865     0.666     0.622 -0.4600 -0.0400  0.8870
 
              Baa    -0.0543    -7.287    -2.600    -2.431 -0.1760  0.9221  0.3446
    37 C(13)  Bbb    -0.0464    -6.221    -2.220    -2.075  0.6592  0.3704 -0.6544
              Bcc     0.1007    13.508     4.820     4.506  0.7310 -0.1120  0.6731
 
              Baa    -0.0553    -7.423    -2.649    -2.476  0.7837  0.3743 -0.4956
    38 C(13)  Bbb    -0.0478    -6.413    -2.288    -2.139 -0.0727  0.8478  0.5254
              Bcc     0.1031    13.835     4.937     4.615  0.6168 -0.3757  0.6916
 
              Baa    -0.0384    -5.151    -1.838    -1.718  0.4142 -0.1800  0.8922
    39 C(13)  Bbb     0.0166     2.232     0.796     0.744  0.7649 -0.4625 -0.4484
              Bcc     0.0218     2.919     1.042     0.974  0.4933  0.8682 -0.0539
 
              Baa    -0.0396    -5.307    -1.894    -1.770  0.4705 -0.0753  0.8792
    40 C(13)  Bbb     0.0173     2.322     0.828     0.774  0.7925 -0.4021 -0.4585
              Bcc     0.0222     2.986     1.065     0.996  0.3881  0.9125 -0.1295
 
              Baa    -0.0638    -8.563    -3.056    -2.856  0.7987 -0.4275 -0.4235
    41 C(13)  Bbb    -0.0575    -7.712    -2.752    -2.572  0.4322  0.8972 -0.0907
              Bcc     0.1213    16.275     5.807     5.429  0.4187 -0.1106  0.9014
 
              Baa    -0.0045    -2.395    -0.854    -0.799  0.2621 -0.3733  0.8899
    42 H(1)   Bbb    -0.0023    -1.201    -0.428    -0.400  0.6398  0.7576  0.1293
              Bcc     0.0067     3.595     1.283     1.199  0.7224 -0.5355 -0.4374
 
              Baa    -0.0042    -2.261    -0.807    -0.754  0.5240  0.0820  0.8478
    43 H(1)   Bbb    -0.0024    -1.263    -0.451    -0.421  0.1839  0.9610 -0.2066
              Bcc     0.0066     3.524     1.257     1.175  0.8316 -0.2642 -0.4885
 
              Baa    -0.0023    -1.222    -0.436    -0.408  0.5469 -0.1831  0.8169
    44 H(1)   Bbb     0.0005     0.242     0.087     0.081  0.8102 -0.1302 -0.5716
              Bcc     0.0018     0.979     0.349     0.327  0.2110  0.9744  0.0771
 
              Baa    -0.0023    -1.230    -0.439    -0.410  0.5473 -0.1927  0.8144
    45 H(1)   Bbb     0.0003     0.167     0.060     0.056 -0.5771  0.6179  0.5340
              Bcc     0.0020     1.063     0.379     0.355  0.6061  0.7623 -0.2270
 
              Baa    -0.0082    -4.353    -1.553    -1.452  0.7844 -0.4170 -0.4590
    46 H(1)   Bbb    -0.0009    -0.489    -0.175    -0.163  0.4488 -0.1291  0.8843
              Bcc     0.0091     4.842     1.728     1.615  0.4281  0.8997 -0.0859
 

 ---------------------------------------------------------------------------------

 No NMR shielding tensors so no spin-rotation constants.
 Leave Link  601 at Tue Jan 19 11:20:56 2021, MaxMem=  4026531840 cpu:               6.7 elap:               1.1
 (Enter /opt/ohpc/pub/libs/gaussian/g16-A.03/sandybridge/g16/l9999.exe)

 Test job not archived.
 1\1\GINC-CASCADEB058\SP\ULC-wHPBE\TZVP\C24H19N1S2(1+,2)\RDU230\19-Jan-
 2021\0\\#P LC-wHPBE/TZVP iop(3/107=0181000000, 3/108=0181000000) scf=(
 conver=6,fermi,ndamp=35,noincfock,novaracc,vshift=500,xqc)\\H19 C24 S2
  N1\\1,2\C,0,-3.352046,1.022081,0.90149\C,0,-4.015603,0.124147,0.07783
 3\S,0,-3.193622,-0.833868,-1.176213\C,0,-5.398593,-0.028228,0.207342\C
 ,0,-0.749106,0.373785,-1.531691\C,0,-1.475477,-0.56699,-0.815552\C,0,-
 4.041516,1.761821,1.844012\C,0,-6.080951,0.720801,1.156415\H,0,-7.4759
 44,-0.835079,-0.458792\C,0,0.601771,0.54717,-1.299188\C,0,-0.823428,-1
 .336346,0.139234\C,0,0.521569,-1.15492,0.389409\C,0,1.255724,-0.212476
 ,-0.331046\H,0,1.160253,1.275483,-1.876291\H,0,-1.383265,-2.076857,0.7
 00814\H,0,1.015474,-1.752114,1.147605\C,0,-5.411167,1.613701,1.970885\
 H,0,-2.279577,1.141824,0.800598\H,0,-1.248138,0.967582,-2.290346\H,0,-
 3.503227,2.458074,2.478369\H,0,-7.154267,0.598627,1.263844\H,0,-5.9624
 34,2.189124,2.706912\S,0,-6.238224,-1.192989,-0.835805\N,0,2.627173,-0
 .037586,-0.087724\C,0,3.438312,-1.140752,0.276409\C,0,4.374889,-1.0129
 28,1.295896\C,0,3.317625,-2.35655,-0.387733\C,0,5.1794,-2.084309,1.640
 01\C,0,4.112866,-3.428755,-0.025756\C,0,5.049979,-3.298472,0.986151\H,
 0,4.470709,-0.064848,1.814448\H,0,2.593785,-2.456724,-1.189607\H,0,5.9
 0745,-1.970366,2.436839\H,0,4.006805,-4.37257,-0.551042\H,0,5.67733,-4
 .139106,1.26285\C,0,3.224517,1.239724,-0.221989\C,0,4.446224,1.376745,
 -0.87125\C,0,2.604731,2.367846,0.304633\C,0,5.03746,2.622109,-0.986244
 \C,0,3.193018,3.612223,0.169883\C,0,4.413292,3.746533,-0.472133\H,0,4.
 931907,0.498005,-1.282066\H,0,1.656156,2.262505,0.820378\H,0,5.992055,
 2.71427,-1.494403\H,0,2.697309,4.484427,0.584059\H,0,4.876004,4.72281,
 -0.569917\\Version=EM64L-G16RevA.03\State=2-A\HF=-1775.9581186\S2=0.76
 7773\S2-1=0.\S2A=0.750287\RMSD=7.626e-08\Dipole=4.1208787,0.4669963,0.
 5198236\Quadrupole=37.3160021,-7.4418572,-29.8741449,-4.1477557,-3.795
 7253,-1.1664138\PG=C01 [X(C24H19N1S2)]\\@


 You can't act like a skunk without someone's getting wind of it.
 -- Lorene Workman
 Job cpu time:       0 days 19 hours 10 minutes 15.6 seconds.
 Elapsed time:       0 days  2 hours 24 minutes 13.3 seconds.
 File lengths (MBytes):  RWF=    244 Int=      0 D2E=      0 Chk=     36 Scr=      8
 Normal termination of Gaussian 16 at Tue Jan 19 11:20:56 2021.
