 Entering Gaussian System, Link 0=g16
 Input=mol_ta_pa_half_tune_c8.gjf
 Output=mol_ta_pa_half_tune_c8.log
 Initial command:
 /opt/ohpc/pub/libs/gaussian/g16-A.03/sandybridge/g16/l1.exe "/mnt/gpfs2_4m/scratch/rdu230/ondemand/projects/init_structures/wtuning/mol_ta_pa_half/tuning_mol_ta_pa_half_ocycle0/Gau-454485.inp" -scrdir="/mnt/gpfs2_4m/scratch/rdu230/ondemand/projects/init_structures/wtuning/mol_ta_pa_half/tuning_mol_ta_pa_half_ocycle0/"
 Entering Link 1 = /opt/ohpc/pub/libs/gaussian/g16-A.03/sandybridge/g16/l1.exe PID=    454486.
  
 Copyright (c) 1988,1990,1992,1993,1995,1998,2003,2009,2016,
            Gaussian, Inc.  All Rights Reserved.
  
 This is part of the Gaussian(R) 16 program.  It is based on
 the Gaussian(R) 09 system (copyright 2009, Gaussian, Inc.),
 the Gaussian(R) 03 system (copyright 2003, Gaussian, Inc.),
 the Gaussian(R) 98 system (copyright 1998, Gaussian, Inc.),
 the Gaussian(R) 94 system (copyright 1995, Gaussian, Inc.),
 the Gaussian 92(TM) system (copyright 1992, Gaussian, Inc.),
 the Gaussian 90(TM) system (copyright 1990, Gaussian, Inc.),
 the Gaussian 88(TM) system (copyright 1988, Gaussian, Inc.),
 the Gaussian 86(TM) system (copyright 1986, Carnegie Mellon
 University), and the Gaussian 82(TM) system (copyright 1983,
 Carnegie Mellon University). Gaussian is a federally registered
 trademark of Gaussian, Inc.
  
 This software contains proprietary and confidential information,
 including trade secrets, belonging to Gaussian, Inc.
  
 This software is provided under written license and may be
 used, copied, transmitted, or stored only in accord with that
 written license.
  
 The following legend is applicable only to US Government
 contracts under FAR:
  
                    RESTRICTED RIGHTS LEGEND
  
 Use, reproduction and disclosure by the US Government is
 subject to restrictions as set forth in subparagraphs (a)
 and (c) of the Commercial Computer Software - Restricted
 Rights clause in FAR 52.227-19.
  
 Gaussian, Inc.
 340 Quinnipiac St., Bldg. 40, Wallingford CT 06492
  
  
 ---------------------------------------------------------------
 Warning -- This program may not be used in any manner that
 competes with the business of Gaussian, Inc. or will provide
 assistance to any competitor of Gaussian, Inc.  The licensee
 of this program is prohibited from giving any competitor of
 Gaussian, Inc. access to this program.  By using this program,
 the user acknowledges that Gaussian, Inc. is engaged in the
 business of creating and licensing software in the field of
 computational chemistry and represents and warrants to the
 licensee that it is not a competitor of Gaussian, Inc. and that
 it will not use this program in any manner prohibited above.
 ---------------------------------------------------------------
  

 Cite this work as:
 Gaussian 16, Revision A.03,
 M. J. Frisch, G. W. Trucks, H. B. Schlegel, G. E. Scuseria, 
 M. A. Robb, J. R. Cheeseman, G. Scalmani, V. Barone, 
 G. A. Petersson, H. Nakatsuji, X. Li, M. Caricato, A. V. Marenich, 
 J. Bloino, B. G. Janesko, R. Gomperts, B. Mennucci, H. P. Hratchian, 
 J. V. Ortiz, A. F. Izmaylov, J. L. Sonnenberg, D. Williams-Young, 
 F. Ding, F. Lipparini, F. Egidi, J. Goings, B. Peng, A. Petrone, 
 T. Henderson, D. Ranasinghe, V. G. Zakrzewski, J. Gao, N. Rega, 
 G. Zheng, W. Liang, M. Hada, M. Ehara, K. Toyota, R. Fukuda, 
 J. Hasegawa, M. Ishida, T. Nakajima, Y. Honda, O. Kitao, H. Nakai, 
 T. Vreven, K. Throssell, J. A. Montgomery, Jr., J. E. Peralta, 
 F. Ogliaro, M. J. Bearpark, J. J. Heyd, E. N. Brothers, K. N. Kudin, 
 V. N. Staroverov, T. A. Keith, R. Kobayashi, J. Normand, 
 K. Raghavachari, A. P. Rendell, J. C. Burant, S. S. Iyengar, 
 J. Tomasi, M. Cossi, J. M. Millam, M. Klene, C. Adamo, R. Cammi, 
 J. W. Ochterski, R. L. Martin, K. Morokuma, O. Farkas, 
 J. B. Foresman, and D. J. Fox, Gaussian, Inc., Wallingford CT, 2016.
 
 ******************************************
 Gaussian 16:  EM64L-G16RevA.03 25-Dec-2016
                19-Jan-2021 
 ******************************************
 %mem=30GB
 %nproc=8
 Will use up to    8 processors via shared memory.
 ----------------------------------------------------------------------
 #P LC-wHPBE/TZVP iop(3/107=0179500000, 3/108=0179500000) scf=(conver=6
 ,fermi,ndamp=35,noincfock,novaracc,vshift=500,xqc)
 ----------------------------------------------------------------------
 1/38=1,172=1/1;
 2/12=2,17=6,18=5,40=1/2;
 3/5=19,7=101,11=2,25=1,30=1,74=-71,107=179500000,108=179500000/1,2,3;
 4//1;
 5/5=100002,6=6,8=3,10=500,13=1,18=-1,22=13,38=1,93=35/2,8;
 6/7=2,8=2,9=2,10=2,28=1/1;
 99/5=1,9=1/99;
 Leave Link    1 at Tue Jan 19 06:16:08 2021, MaxMem=  4026531840 cpu:               1.1 elap:               0.2
 (Enter /opt/ohpc/pub/libs/gaussian/g16-A.03/sandybridge/g16/l101.exe)
 -------------
 H19 C24 S2 N1
 -------------
 Symbolic Z-matrix:
 Charge =  1 Multiplicity = 2
 C                    -3.35205   1.02208   0.90149 
 C                    -4.0156    0.12415   0.07783 
 S                    -3.19362  -0.83387  -1.17621 
 C                    -5.39859  -0.02823   0.20734 
 C                    -0.74911   0.37379  -1.53169 
 C                    -1.47548  -0.56699  -0.81555 
 C                    -4.04152   1.76182   1.84401 
 C                    -6.08095   0.7208    1.15641 
 H                    -7.47594  -0.83508  -0.45879 
 C                     0.60177   0.54717  -1.29919 
 C                    -0.82343  -1.33635   0.13923 
 C                     0.52157  -1.15492   0.38941 
 C                     1.25572  -0.21248  -0.33105 
 H                     1.16025   1.27548  -1.87629 
 H                    -1.38327  -2.07686   0.70081 
 H                     1.01547  -1.75211   1.1476 
 C                    -5.41117   1.6137    1.97089 
 H                    -2.27958   1.14182   0.8006 
 H                    -1.24814   0.96758  -2.29035 
 H                    -3.50323   2.45807   2.47837 
 H                    -7.15427   0.59863   1.26384 
 H                    -5.96243   2.18912   2.70691 
 S                    -6.23822  -1.19299  -0.83581 
 N                     2.62717  -0.03759  -0.08772 
 C                     3.43831  -1.14075   0.27641 
 C                     4.37489  -1.01293   1.2959 
 C                     3.31763  -2.35655  -0.38773 
 C                     5.1794   -2.08431   1.64001 
 C                     4.11287  -3.42876  -0.02576 
 C                     5.04998  -3.29847   0.98615 
 H                     4.47071  -0.06485   1.81445 
 H                     2.59379  -2.45672  -1.18961 
 H                     5.90745  -1.97037   2.43684 
 H                     4.0068   -4.37257  -0.55104 
 H                     5.67733  -4.13911   1.26285 
 C                     3.22452   1.23972  -0.22199 
 C                     4.44622   1.37675  -0.87125 
 C                     2.60473   2.36785   0.30463 
 C                     5.03746   2.62211  -0.98624 
 C                     3.19302   3.61222   0.16988 
 C                     4.41329   3.74653  -0.47213 
 H                     4.93191   0.49801  -1.28207 
 H                     1.65616   2.2625    0.82038 
 H                     5.99206   2.71427  -1.4944 
 H                     2.69731   4.48443   0.58406 
 H                     4.876     4.72281  -0.56992 
 
 ITRead=  0  0  0  0  0  0  0  0  0  0  0  0  0  0  0  0  0  0  0  0
 ITRead=  0  0  0  0  0  0  0  0  0  0  0  0  0  0  0  0  0  0  0  0
 ITRead=  0  0  0  0  0  0
 MicOpt= -1 -1 -1 -1 -1 -1 -1 -1 -1 -1 -1 -1 -1 -1 -1 -1 -1 -1 -1 -1
 MicOpt= -1 -1 -1 -1 -1 -1 -1 -1 -1 -1 -1 -1 -1 -1 -1 -1 -1 -1 -1 -1
 MicOpt= -1 -1 -1 -1 -1 -1
 NAtoms=     46 NQM=       46 NQMF=       0 NMMI=      0 NMMIF=      0
                NMic=       0 NMicF=      0.
                    Isotopes and Nuclear Properties:
 (Nuclear quadrupole moments (NQMom) in fm**2, nuclear magnetic moments (NMagM)
  in nuclear magnetons)

  Atom         1           2           3           4           5           6           7           8           9          10
 IAtWgt=          12          12          32          12          12          12          12          12           1          12
 AtmWgt=  12.0000000  12.0000000  31.9720718  12.0000000  12.0000000  12.0000000  12.0000000  12.0000000   1.0078250  12.0000000
 NucSpn=           0           0           0           0           0           0           0           0           1           0
 AtZEff=  -0.0000000  -0.0000000  -0.0000000  -0.0000000  -0.0000000  -0.0000000  -0.0000000  -0.0000000  -0.0000000  -0.0000000
 NQMom=    0.0000000   0.0000000   0.0000000   0.0000000   0.0000000   0.0000000   0.0000000   0.0000000   0.0000000   0.0000000
 NMagM=    0.0000000   0.0000000   0.0000000   0.0000000   0.0000000   0.0000000   0.0000000   0.0000000   2.7928460   0.0000000
 AtZNuc=   6.0000000   6.0000000  16.0000000   6.0000000   6.0000000   6.0000000   6.0000000   6.0000000   1.0000000   6.0000000

  Atom        11          12          13          14          15          16          17          18          19          20
 IAtWgt=          12          12          12           1           1           1          12           1           1           1
 AtmWgt=  12.0000000  12.0000000  12.0000000   1.0078250   1.0078250   1.0078250  12.0000000   1.0078250   1.0078250   1.0078250
 NucSpn=           0           0           0           1           1           1           0           1           1           1
 AtZEff=  -0.0000000  -0.0000000  -0.0000000  -0.0000000  -0.0000000  -0.0000000  -0.0000000  -0.0000000  -0.0000000  -0.0000000
 NQMom=    0.0000000   0.0000000   0.0000000   0.0000000   0.0000000   0.0000000   0.0000000   0.0000000   0.0000000   0.0000000
 NMagM=    0.0000000   0.0000000   0.0000000   2.7928460   2.7928460   2.7928460   0.0000000   2.7928460   2.7928460   2.7928460
 AtZNuc=   6.0000000   6.0000000   6.0000000   1.0000000   1.0000000   1.0000000   6.0000000   1.0000000   1.0000000   1.0000000

  Atom        21          22          23          24          25          26          27          28          29          30
 IAtWgt=           1           1          32          14          12          12          12          12          12          12
 AtmWgt=   1.0078250   1.0078250  31.9720718  14.0030740  12.0000000  12.0000000  12.0000000  12.0000000  12.0000000  12.0000000
 NucSpn=           1           1           0           2           0           0           0           0           0           0
 AtZEff=  -0.0000000  -0.0000000  -0.0000000  -0.0000000  -0.0000000  -0.0000000  -0.0000000  -0.0000000  -0.0000000  -0.0000000
 NQMom=    0.0000000   0.0000000   0.0000000   2.0440000   0.0000000   0.0000000   0.0000000   0.0000000   0.0000000   0.0000000
 NMagM=    2.7928460   2.7928460   0.0000000   0.4037610   0.0000000   0.0000000   0.0000000   0.0000000   0.0000000   0.0000000
 AtZNuc=   1.0000000   1.0000000  16.0000000   7.0000000   6.0000000   6.0000000   6.0000000   6.0000000   6.0000000   6.0000000

  Atom        31          32          33          34          35          36          37          38          39          40
 IAtWgt=           1           1           1           1           1          12          12          12          12          12
 AtmWgt=   1.0078250   1.0078250   1.0078250   1.0078250   1.0078250  12.0000000  12.0000000  12.0000000  12.0000000  12.0000000
 NucSpn=           1           1           1           1           1           0           0           0           0           0
 AtZEff=  -0.0000000  -0.0000000  -0.0000000  -0.0000000  -0.0000000  -0.0000000  -0.0000000  -0.0000000  -0.0000000  -0.0000000
 NQMom=    0.0000000   0.0000000   0.0000000   0.0000000   0.0000000   0.0000000   0.0000000   0.0000000   0.0000000   0.0000000
 NMagM=    2.7928460   2.7928460   2.7928460   2.7928460   2.7928460   0.0000000   0.0000000   0.0000000   0.0000000   0.0000000
 AtZNuc=   1.0000000   1.0000000   1.0000000   1.0000000   1.0000000   6.0000000   6.0000000   6.0000000   6.0000000   6.0000000

  Atom        41          42          43          44          45          46
 IAtWgt=          12           1           1           1           1           1
 AtmWgt=  12.0000000   1.0078250   1.0078250   1.0078250   1.0078250   1.0078250
 NucSpn=           0           1           1           1           1           1
 AtZEff=  -0.0000000  -0.0000000  -0.0000000  -0.0000000  -0.0000000  -0.0000000
 NQMom=    0.0000000   0.0000000   0.0000000   0.0000000   0.0000000   0.0000000
 NMagM=    0.0000000   2.7928460   2.7928460   2.7928460   2.7928460   2.7928460
 AtZNuc=   6.0000000   1.0000000   1.0000000   1.0000000   1.0000000   1.0000000
 Leave Link  101 at Tue Jan 19 06:16:09 2021, MaxMem=  4026531840 cpu:               0.7 elap:               0.1
 (Enter /opt/ohpc/pub/libs/gaussian/g16-A.03/sandybridge/g16/l202.exe)
                          Input orientation:                          
 ---------------------------------------------------------------------
 Center     Atomic      Atomic             Coordinates (Angstroms)
 Number     Number       Type             X           Y           Z
 ---------------------------------------------------------------------
      1          6           0       -3.352046    1.022081    0.901490
      2          6           0       -4.015603    0.124147    0.077833
      3         16           0       -3.193622   -0.833868   -1.176213
      4          6           0       -5.398593   -0.028228    0.207342
      5          6           0       -0.749106    0.373785   -1.531691
      6          6           0       -1.475477   -0.566990   -0.815552
      7          6           0       -4.041516    1.761821    1.844012
      8          6           0       -6.080951    0.720801    1.156415
      9          1           0       -7.475944   -0.835079   -0.458792
     10          6           0        0.601771    0.547170   -1.299188
     11          6           0       -0.823428   -1.336346    0.139234
     12          6           0        0.521569   -1.154920    0.389409
     13          6           0        1.255724   -0.212476   -0.331046
     14          1           0        1.160253    1.275483   -1.876291
     15          1           0       -1.383265   -2.076857    0.700814
     16          1           0        1.015474   -1.752114    1.147605
     17          6           0       -5.411167    1.613701    1.970885
     18          1           0       -2.279577    1.141824    0.800598
     19          1           0       -1.248138    0.967582   -2.290346
     20          1           0       -3.503227    2.458074    2.478369
     21          1           0       -7.154267    0.598627    1.263844
     22          1           0       -5.962434    2.189124    2.706912
     23         16           0       -6.238224   -1.192989   -0.835805
     24          7           0        2.627173   -0.037586   -0.087724
     25          6           0        3.438312   -1.140752    0.276409
     26          6           0        4.374889   -1.012928    1.295896
     27          6           0        3.317625   -2.356550   -0.387733
     28          6           0        5.179400   -2.084309    1.640010
     29          6           0        4.112866   -3.428755   -0.025756
     30          6           0        5.049979   -3.298472    0.986151
     31          1           0        4.470709   -0.064848    1.814448
     32          1           0        2.593785   -2.456724   -1.189607
     33          1           0        5.907450   -1.970366    2.436839
     34          1           0        4.006805   -4.372570   -0.551042
     35          1           0        5.677330   -4.139106    1.262850
     36          6           0        3.224517    1.239724   -0.221989
     37          6           0        4.446224    1.376745   -0.871250
     38          6           0        2.604731    2.367846    0.304633
     39          6           0        5.037460    2.622109   -0.986244
     40          6           0        3.193018    3.612223    0.169883
     41          6           0        4.413292    3.746533   -0.472133
     42          1           0        4.931907    0.498005   -1.282066
     43          1           0        1.656156    2.262505    0.820378
     44          1           0        5.992055    2.714270   -1.494403
     45          1           0        2.697309    4.484427    0.584059
     46          1           0        4.876004    4.722810   -0.569917
 ---------------------------------------------------------------------
                    Distance matrix (angstroms):
                    1          2          3          4          5
     1  C    0.000000
     2  C    1.387445   0.000000
     3  S    2.790429   1.779347   0.000000
     4  C    2.402779   1.397373   2.724918   0.000000
     5  C    3.621596   3.650053   2.749627   4.980319   0.000000
     6  C    2.999148   2.779937   1.775760   4.089916   1.387634
     7  C    1.382365   2.408742   4.071644   2.779320   4.915484
     8  C    2.757296   2.405202   4.024279   1.388307   5.981213
     9  H    4.722917   3.630708   4.342001   2.325969   6.918296
    10  C    4.549856   4.836867   4.040717   6.213299   1.381662
    11  C    3.540780   3.510953   2.756938   4.758986   2.392083
    12  C    4.472857   4.724301   4.044365   6.029171   2.764449
    13  C    4.926948   5.297866   4.571336   6.678603   2.409272
    14  H    5.304821   5.650988   4.888323   7.004259   2.139500
    15  H    3.676926   3.487367   2.888883   4.534672   3.375186
    16  H    5.179958   5.475080   4.894874   6.707916   3.848612
    17  C    2.394494   2.783885   4.562053   2.409600   5.961564
    18  H    1.083839   2.138187   2.940513   3.383672   2.893406
    19  H    3.823247   3.738785   2.876008   4.945337   1.084982
    20  H    2.138102   3.387081   4.928357   3.864152   5.292450
    21  H    3.842850   3.388652   4.867507   2.142787   6.992257
    22  H    3.381666   3.868635   5.646544   3.388571   6.959885
    23  S    4.031718   2.740370   3.084550   1.774769   5.750605
    24  N    6.152438   6.646807   5.974992   8.031194   3.695068
    25  C    7.153848   7.563085   6.796090   8.906928   4.805988
    26  C    8.000146   8.554354   7.964028   9.883093   6.014445
    27  C    7.586946   7.755440   6.733246   9.041441   5.030077
    28  C    9.109371   9.584662   8.922007  10.870784   7.158847
    29  C    8.740403   8.871632   7.838479  10.103750   6.353418
    30  C    9.448194   9.732633   8.871699  10.976051   7.311251
    31  H    7.950497   8.664239   8.263015   9.999363   6.215747
    32  H    7.199144   7.207726   6.010651   8.469189   4.393600
    33  H    9.851411  10.412438   9.857752  11.686281   8.096543
    34  H    9.239307   9.218187   8.047323  10.387972   6.790305
    35  H   10.406636  10.655165   9.775859  11.861260   8.335150
    36  C    6.675384   7.331694   6.811963   8.726400   4.272569
    37  C    8.005086   8.606525   7.959087  10.002886   5.332313
    38  C    6.136001   6.993886   6.787104   8.354869   4.312376
    39  C    8.746853   9.451456   8.929198  10.833288   6.231919
    40  C    7.076860   8.008706   7.897396   9.331134   5.378027
    41  C    8.343258   9.190779   8.907353  10.534875   6.256872
    42  H    8.582916   9.057982   8.234641  10.450574   5.687851
    43  H    5.160166   6.106783   6.090505   7.442631   3.858079
    44  H    9.793673  10.456284   9.852268  11.839092   7.136001
    45  H    6.977342   8.020692   8.129323   9.276292   5.766416
    46  H    9.141184  10.031349   9.816472  11.346534   7.175018
                    6          7          8          9         10
     6  C    0.000000
     7  C    4.368203   0.000000
     8  C    5.172760   2.390775   0.000000
     9  H    6.017039   4.882836   2.641148   0.000000
    10  C    2.406287   5.737177   7.121721   8.238104   0.000000
    11  C    1.388774   4.781318   5.736555   6.698125   2.765481
    12  C    2.405366   5.607583   6.906511   8.048724   2.398938
    13  C    2.796406   6.057184   7.543895   8.754769   1.393562
    14  H    3.386288   6.413703   7.870198   9.002648   1.084154
    15  H    2.141861   4.807146   5.486594   6.325143   3.850441
    16  H    3.385756   6.197247   7.514961   8.690549   3.382995
    17  C    5.292381   1.383467   1.381753   4.020343   6.927214
    18  H    2.485672   2.139518   3.841134   5.700565   3.614537
    19  H    2.140470   5.052395   5.941140   6.737191   2.140398
    20  H    4.910468   1.084865   3.377920   5.937529   5.896821
    21  H    6.158832   3.373253   1.085576   2.264170   8.168715
    22  H    6.335353   2.148746   2.138705   4.632299   7.863437
    23  S    4.803753   4.553883   2.766996   1.342456   7.073076
    24  N    4.200207   7.172230   8.829182  10.141334   2.431427
    25  C    5.066251   8.174970   9.739413  10.943260   3.657534
    26  C    6.235692   8.878938  10.599522  11.981352   4.837849
    27  C    5.134139   8.723452  10.009381  10.900507   4.078995
    28  C    7.253925   9.992979  11.614560  12.888882   6.043033
    29  C    6.327958   9.845408  11.069338  11.883400   5.455034
    30  C    7.299911  10.440200  11.835588  12.847370   6.308589
    31  H    6.521210   8.706065  10.601310  12.185376   5.003796
    32  H    4.502211   8.427703   9.531607  10.225618   3.606038
    33  H    8.188719  10.642490  12.353284  13.740043   6.960324
    34  H    6.678909  10.399159  11.428940  12.015651   6.029745
    35  H    8.260897  11.384843  12.723490  13.670745   7.367939
    36  C    5.070155   7.572066   9.421306  10.902328   2.918696
    37  C    6.232796   8.919790  10.740722  12.132616   3.956153
    38  C    5.149386   6.849055   8.881405  10.604789   3.146260
    39  C    7.253815   9.548730  11.481508  12.992907   4.906999
    40  C    6.342850   7.652789   9.764224  11.575858   4.274024
    41  C    7.307668   8.988180  11.042480  12.741479   5.044565
    42  H    6.512021   9.586027  11.281794  12.506385   4.330449
    43  H    4.526526   5.810506   7.896366   9.727618   2.923467
    44  H    8.184836  10.617190  12.520313  13.966294   5.812882
    45  H    6.699841   7.376437   9.568193  11.527348   4.841476
    46  H    8.269440   9.701375  11.791996  13.545224   6.019707
                   11         12         13         14         15
    11  C    0.000000
    12  C    1.380043   0.000000
    13  C    2.409797   1.395077   0.000000
    14  H    3.849543   3.383515   2.147305   0.000000
    15  H    1.084964   2.139003   3.391890   4.934485   0.000000
    16  H    2.138045   1.084179   2.148165   4.281501   2.461509
    17  C    5.753701   6.735257   7.285688   7.622251   5.608680
    18  H    2.949423   3.645618   3.951342   4.360737   3.342640
    19  H    3.375103   3.849411   3.391271   2.463045   4.270118
    20  H    5.201009   5.797971   6.137774   6.489193   5.312207
    21  H    6.714789   7.921996   8.598227   8.913463   6.385897
    22  H    6.740274   7.654786   8.191378   8.518988   6.572048
    23  S    5.503750   6.870036   7.574658   7.868509   5.168467
    24  N    3.693905   2.430979   1.403804   2.659883   4.567716
    25  C    4.268431   2.918965   2.448344   3.957507   4.929910
    26  C    5.335257   3.961055   3.607888   5.062952   5.885780
    27  C    4.297305   3.140986   2.975181   4.479031   4.833377
    28  C    6.232634   4.911533   4.773264   6.309209   6.629534
    29  C    5.363991   4.270843   4.312878   5.854251   5.706399
    30  C    6.250129   5.045534   5.065052   6.651662   6.554418
    31  H    5.696572   4.337591   3.867954   5.135870   6.289465
    32  H    3.833851   2.912398   2.750306   4.056589   4.419832
    33  H    7.140426   5.819333   5.691214   7.188498   7.495308
    34  H    5.746850   4.835762   4.992317   6.462170   5.990851
    35  H    7.167833   6.020809   6.124502   7.718547   7.377043
    36  C    4.811702   3.662520   2.448862   2.645596   5.751776
    37  C    6.012585   4.837510   3.605098   3.437727   6.955695
    38  C    5.049819   4.093486   2.980263   2.834820   5.984685
    39  C    7.161430   6.045795   4.771340   4.199800   8.133398
    40  C    6.373469   5.469048   4.316522   3.712050   7.320511
    41  C    7.323433   6.317595   5.065954   4.319723   8.299864
    42  H    6.205547   4.997707   3.863100   3.896530   7.102332
    43  H    4.423124   3.626543   2.758923   2.914130   5.299287
    44  H    8.094879   6.960287   5.687888   5.055913   9.064724
    45  H    6.817247   6.047642   4.997648   4.325874   7.727559
    46  H    8.348640   7.377609   6.125401   5.234260   9.328916
                   16         17         18         19         20
    16  H    0.000000
    17  C    7.301248   0.000000
    18  H    4.399165   3.376255   0.000000
    19  H    4.933578   5.992192   3.263152   0.000000
    20  H    6.317854   2.147264   2.458607   5.481572   0.000000
    21  H    8.502009   2.137447   4.926689   6.902953   4.273489
    22  H    8.164312   1.084778   4.277184   6.977775   2.484404
    23  S    7.540734   4.054509   4.878530   5.628918   5.638636
    24  N    2.657671   8.460469   5.124092   4.569457   7.098941
    25  C    2.646297   9.421865   6.178930   5.744225   8.123124
    26  C    3.442972  10.154885   7.012146   6.957153   8.689696
    27  C    2.832403   9.875109   6.706670   5.959529   8.827183
    28  C    4.206078  11.222516   8.169999   8.128652   9.834841
    29  C    3.712376  10.959934   7.901669   7.293594   9.946370
    30  C    4.323716  11.598910   8.571642   8.282568  10.417383
    31  H    3.902588  10.024643   6.931833   7.114805   8.389850
    32  H    2.906906   9.520311   6.376529   5.262877   8.647707
    33  H    5.063713  11.881656   8.910130   9.065333  10.400656
    34  H    4.324379  11.440881   8.470777   7.691348  10.594131
    35  H    5.238694  12.512029   9.561081   9.309435  11.370264
    36  C    3.963175   8.917600   5.599136   4.935261   7.351112
    37  C    5.063159  10.261678   6.934455   5.882772   8.693848
    38  C    4.495599   8.221907   5.060195   4.851727   6.483858
    39  C    6.313756  10.905746   7.676137   6.629245   9.218123
    40  C    5.871435   9.014971   6.037381   5.724572   7.176410
    41  C    6.663620  10.345883   7.293754   6.563555   8.546161
    42  H    5.128819  10.899800   7.533757   6.279338   9.441092
    43  H    4.078568   7.189692   4.092226   4.448410   5.422768
    44  H    7.189934  11.968832   8.726942   7.490316  10.296064
    45  H    6.483872   8.712734   5.999106   6.016391   6.792729
    46  H    7.731637  11.043012   8.118135   7.386930   9.199597
                   21         22         23         24         25
    21  H    0.000000
    22  H    2.456134   0.000000
    23  S    2.908186   4.905669   0.000000
    24  N    9.894851   9.303202   8.971613   0.000000
    25  C   10.779759  10.264962   9.740385   1.416868   0.000000
    26  C   11.641288  10.913494  10.826576   2.433148   1.390277
    27  C   11.005512  10.787005   9.636851   2.438098   1.390617
    28  C   12.627707  11.980859  11.716921   3.699730   2.404391
    29  C   12.034582  11.854944  10.620729   3.702857   2.404430
    30  C   12.814371  12.423686  11.626526   4.201973   2.785132
    31  H   11.656905  10.711086  11.089535   2.649080   2.142190
    32  H   10.506146  10.486927   8.928974   2.658475   2.143411
    33  H   13.363536  12.580479  12.602853   4.568290   3.384134
    34  H   12.352171  12.371573  10.730864   4.572760   3.384155
    35  H   13.678304  13.327262  12.452485   5.286774   3.869935
    36  C   10.504183   9.689164   9.789705   1.416463   2.441470
    37  C   11.820977  11.036456  10.989186   2.433761   2.944622
    38  C    9.964350   8.899393   9.600937   2.437325   3.606371
    39  C   12.561671  11.611397  11.904564   3.700108   4.279099
    40  C   10.832581   9.606458  10.632488   3.702384   4.760492
    41  C   12.113272  10.963008  11.746741   4.202089   5.039490
    42  H   12.351817  11.724269  11.306212   2.650492   2.710202
    43  H    8.977121   7.849032   8.775227   2.656679   3.879967
    44  H   13.598149  12.682138  12.856133   4.568795   4.951623
    45  H   10.612026   9.206849  10.681424   4.572178   5.682110
    46  H   12.849085  11.602970  12.593389   5.286882   6.096276
                   26         27         28         29         30
    26  C    0.000000
    27  C    2.399528   0.000000
    28  C    1.383297   2.766236   0.000000
    29  C    2.766160   1.383134   2.391612   0.000000
    30  C    2.403206   2.403295   1.385090   1.385320   0.000000
    31  H    1.084866   3.380991   2.147299   3.851009   3.387913
    32  H    3.381509   1.084888   3.851082   2.146392   3.387529
    33  H    2.137097   3.851563   1.085346   3.378136   2.145604
    34  H    3.851475   2.136814   3.378139   1.085339   2.145894
    35  H    3.386803   3.386759   2.147644   2.147708   1.084803
    36  C    2.949877   3.601295   4.282266   4.756298   5.038565
    37  C    3.226786   3.930015   4.338533   4.890687   5.066765
    38  C    3.942803   4.827785   5.313552   5.998684   6.208934
    39  C    4.342886   5.301235   5.391449   6.195996   6.240495
    40  C    4.904768   5.996058   6.209466   7.103504   7.202243
    41  C    5.077388   6.201228   6.248743   7.195434   7.222469
    42  H    3.039585   3.399150   3.907445   4.203402   4.424024
    43  H    4.283233   5.055263   5.655072   6.256341   6.516900
    44  H    4.928793   5.838708   5.788896   6.589767   6.572193
    45  H    5.791537   6.937445   7.100993   8.061893   8.140654
    46  H    6.052360   7.251143   7.163288   8.205273   8.172673
                   31         32         33         34         35
    31  H    0.000000
    32  H    4.274139   0.000000
    33  H    2.466292   4.936399   0.000000
    34  H    4.936316   2.464722   4.279073   0.000000
    35  H    4.284831   4.284064   2.476820   2.476967   0.000000
    36  C    2.720658   3.872704   4.957033   5.676099   6.095314
    37  C    3.048239   4.269469   4.927655   5.774967   6.041077
    38  C    3.417516   5.050678   5.854429   6.937665   7.259440
    39  C    3.922349   5.639809   5.793549   7.083586   7.154152
    40  C    4.225866   6.248153   6.608520   8.058468   8.212763
    41  C    4.445039   6.504289   6.586164   8.129655   8.172592
    42  H    3.180866   3.769056   4.568894   5.011258   5.341821
    43  H    3.785030   5.214433   6.213183   7.171511   7.572730
    44  H    4.581101   6.195185   6.116178   7.419869   7.393934
    45  H    5.035346   7.164927   7.443262   9.024945   9.149131
    46  H    5.363873   7.558985   7.409660   9.136838   9.084862
                   36         37         38         39         40
    36  C    0.000000
    37  C    1.390281   0.000000
    38  C    1.390728   2.399183   0.000000
    39  C    2.404545   1.383371   2.765716   0.000000
    40  C    2.404851   2.766197   1.383009   2.391427   0.000000
    41  C    2.785651   2.403388   2.403130   1.385000   1.385385
    42  H    2.142216   1.084823   3.380779   2.147200   3.851006
    43  H    2.142981   3.380925   1.084843   3.850508   2.146352
    44  H    3.384168   2.137027   3.851039   1.085344   3.377984
    45  H    3.384636   3.851534   2.136952   3.377926   1.085361
    46  H    3.870446   3.386984   3.386646   2.147636   2.147824
                   41         42         43         44         45
    41  C    0.000000
    42  H    3.387903   0.000000
    43  H    3.387436   4.273672   0.000000
    44  H    2.145483   2.465934   4.935820   0.000000
    45  H    2.145839   4.936336   2.465113   4.278880   0.000000
    46  H    1.084795   4.284771   4.284092   2.476788   2.476933
                   46
    46  H    0.000000
 Stoichiometry    C24H19NS2(1+,2)
 Framework group  C1[X(C24H19NS2)]
 Deg. of freedom   132
 Full point group                 C1      NOp   1
 Largest Abelian subgroup         C1      NOp   1
 Largest concise Abelian subgroup C1      NOp   1
                         Standard orientation:                         
 ---------------------------------------------------------------------
 Center     Atomic      Atomic             Coordinates (Angstroms)
 Number     Number       Type             X           Y           Z
 ---------------------------------------------------------------------
      1          6           0       -3.352046    1.022081    0.901490
      2          6           0       -4.015603    0.124147    0.077833
      3         16           0       -3.193622   -0.833868   -1.176213
      4          6           0       -5.398593   -0.028228    0.207342
      5          6           0       -0.749106    0.373785   -1.531691
      6          6           0       -1.475477   -0.566990   -0.815552
      7          6           0       -4.041516    1.761821    1.844012
      8          6           0       -6.080951    0.720801    1.156415
      9          1           0       -7.475944   -0.835079   -0.458792
     10          6           0        0.601771    0.547170   -1.299188
     11          6           0       -0.823428   -1.336346    0.139234
     12          6           0        0.521569   -1.154920    0.389409
     13          6           0        1.255724   -0.212476   -0.331046
     14          1           0        1.160253    1.275483   -1.876291
     15          1           0       -1.383265   -2.076857    0.700814
     16          1           0        1.015474   -1.752114    1.147605
     17          6           0       -5.411167    1.613701    1.970885
     18          1           0       -2.279577    1.141824    0.800598
     19          1           0       -1.248138    0.967582   -2.290346
     20          1           0       -3.503227    2.458074    2.478369
     21          1           0       -7.154267    0.598627    1.263844
     22          1           0       -5.962434    2.189124    2.706912
     23         16           0       -6.238224   -1.192989   -0.835805
     24          7           0        2.627173   -0.037586   -0.087724
     25          6           0        3.438312   -1.140752    0.276409
     26          6           0        4.374889   -1.012928    1.295896
     27          6           0        3.317625   -2.356550   -0.387733
     28          6           0        5.179400   -2.084309    1.640010
     29          6           0        4.112866   -3.428755   -0.025756
     30          6           0        5.049979   -3.298472    0.986151
     31          1           0        4.470709   -0.064848    1.814448
     32          1           0        2.593785   -2.456724   -1.189607
     33          1           0        5.907450   -1.970366    2.436839
     34          1           0        4.006805   -4.372570   -0.551042
     35          1           0        5.677330   -4.139106    1.262850
     36          6           0        3.224517    1.239724   -0.221989
     37          6           0        4.446224    1.376745   -0.871250
     38          6           0        2.604731    2.367846    0.304633
     39          6           0        5.037460    2.622109   -0.986244
     40          6           0        3.193018    3.612223    0.169883
     41          6           0        4.413292    3.746533   -0.472133
     42          1           0        4.931907    0.498005   -1.282066
     43          1           0        1.656156    2.262505    0.820378
     44          1           0        5.992055    2.714270   -1.494403
     45          1           0        2.697309    4.484427    0.584059
     46          1           0        4.876004    4.722810   -0.569917
 ---------------------------------------------------------------------
 Rotational constants (GHZ):           0.3083654           0.0766714           0.0675965
 Leave Link  202 at Tue Jan 19 06:16:09 2021, MaxMem=  4026531840 cpu:               0.2 elap:               0.0
 (Enter /opt/ohpc/pub/libs/gaussian/g16-A.03/sandybridge/g16/l301.exe)
 Standard basis: TZVP (5D, 7F)
 Ernie: Thresh=  0.10000D-02 Tol=  0.10000D-05 Strict=F.
 There are   660 symmetry adapted cartesian basis functions of A   symmetry.
 There are   633 symmetry adapted basis functions of A   symmetry.
   633 basis functions,  1121 primitive gaussians,   660 cartesian basis functions
   101 alpha electrons      100 beta electrons
       nuclear repulsion energy      2474.6847673599 Hartrees.
 IExCor=33909 DFT=T Ex+Corr=LC-wHPBE ExCW=0 ScaHFX=  1.000000
 ScaDFX=  1.000000  1.000000  1.000000  1.000000 ScalE2=  1.000000  1.000000
 IRadAn=      5 IRanWt=     -1 IRanGd=            0 ICorTp=0 IEmpDi=  4
 HFx  wShort=  0.000000 wLong=  0.179500 cFull=  0.000000 cShort=  0.000000 cLong=  1.000000
 DFx  wShort=  0.000000 wLong=  0.179500 cFull=  0.000000 cShort=  1.000000 cLong=  0.000000
 NAtoms=   46 NActive=   46 NUniq=   46 SFac= 1.00D+00 NAtFMM=   60 NAOKFM=F Big=F
 Integral buffers will be    131072 words long.
 Raffenetti 2 integral format.
 Two-electron integral symmetry is turned on.
 Leave Link  301 at Tue Jan 19 06:16:09 2021, MaxMem=  4026531840 cpu:               0.4 elap:               0.1
 (Enter /opt/ohpc/pub/libs/gaussian/g16-A.03/sandybridge/g16/l302.exe)
 NPDir=0 NMtPBC=     1 NCelOv=     1 NCel=       1 NClECP=     1 NCelD=      1
         NCelK=      1 NCelE2=     1 NClLst=     1 CellRange=     0.0.
 One-electron integrals computed using PRISM.
 One-electron integral symmetry used in STVInt
 NBasis=   633 RedAO= T EigKep=  6.67D-06  NBF=   633
 NBsUse=   633 1.00D-06 EigRej= -1.00D+00 NBFU=   633
 Precomputing XC quadrature grid using
 IXCGrd= 4 IRadAn=           5 IRanWt=          -1 IRanGd=           0 AccXCQ= 0.00D+00.
 Generated NRdTot=       0 NPtTot=           0 NUsed=           0 NTot=          32
 NSgBfM=   625   625   625   625   625 MxSgAt=    46 MxSgA2=    46.
 Leave Link  302 at Tue Jan 19 06:16:10 2021, MaxMem=  4026531840 cpu:               9.1 elap:               1.2
 (Enter /opt/ohpc/pub/libs/gaussian/g16-A.03/sandybridge/g16/l303.exe)
 DipDrv:  MaxL=1.
 Leave Link  303 at Tue Jan 19 06:16:10 2021, MaxMem=  4026531840 cpu:               0.9 elap:               0.1
 (Enter /opt/ohpc/pub/libs/gaussian/g16-A.03/sandybridge/g16/l401.exe)
 ExpMin= 9.52D-02 ExpMax= 6.07D+04 ExpMxC= 2.07D+03 IAcc=3 IRadAn=         5 AccDes= 0.00D+00
 Harris functional with IExCor=33909 and IRadAn=       5 diagonalized for initial guess.
 HarFok:  IExCor=33909 AccDes= 0.00D+00 IRadAn=         5 IDoV= 1 UseB2=F ITyADJ=14
 ICtDFT=  3500011 ScaDFX=  1.000000  1.000000  1.000000  1.000000
 FoFCou: FMM=F IPFlag=           0 FMFlag=      100000 FMFlg1=           0
         NFxFlg=           0 DoJE=T BraDBF=F KetDBF=T FulRan=T
         wScrn=  0.000000 ICntrl=       500 IOpCl=  0 I1Cent=   200000004 NGrid=           0
         NMat0=    1 NMatS0=      1 NMatT0=    0 NMatD0=    1 NMtDS0=    0 NMtDT0=    0
 Petite list used in FoFCou.
 Harris En= -1756.58167449880    
 JPrj=0 DoOrth=F DoCkMO=F.
 Initial guess <Sx>= 0.0000 <Sy>= 0.0000 <Sz>= 0.5000 <S**2>= 0.7500 S= 0.5000
 Leave Link  401 at Tue Jan 19 06:16:17 2021, MaxMem=  4026531840 cpu:              55.1 elap:               6.9
 (Enter /opt/ohpc/pub/libs/gaussian/g16-A.03/sandybridge/g16/l502.exe)
 Integral symmetry usage will be decided dynamically.
 UHF open shell SCF:
 Using DIIS extrapolation, IDIIS=    10.
 NGot=  4026531840 LenX=  4025648940 LenY=  4025212680
 Requested convergence on RMS density matrix=1.00D-06 within  32 cycles.
 Requested convergence on MAX density matrix=1.00D-04.
 Requested convergence on             energy=1.00D-04.
 Virtual orbitals will be shifted by   0.500 hartree.
 No special actions if energy rises.
 Dynamic level shift is on during FON iterations.

 Cycle   1  Pass 1  IDiag  1:
 FoFJK:  IHMeth= 1 ICntrl=       0 DoSepK=T KAlg= 0 I1Cent=           0 FoldK=F
 IRaf=         1 NMat=       1 IRICut=       1 DoRegI=T DoRafI=F ISym2E= 0 IDoP0=0 IntGTp=1.
 FoFCou: FMM=F IPFlag=           0 FMFlag=      100000 FMFlg1=           0
         NFxFlg=           0 DoJE=T BraDBF=F KetDBF=F FulRan=T
         wScrn=  0.000000 ICntrl=       500 IOpCl=  0 I1Cent=           0 NGrid=           0
         NMat0=    1 NMatS0=      1 NMatT0=    0 NMatD0=    1 NMtDS0=    0 NMtDT0=    0
 Symmetry not used in FoFCou.
 E= -1775.33751146578    
 DIIS: error= 3.63D-02 at cycle   1 NSaved=   1.
 NSaved= 1 IEnMin= 1 EnMin= -1775.33751146578     IErMin= 1 ErrMin= 3.63D-02
 ErrMax= 3.63D-02  0.00D+00 EMaxC= 1.00D+00 BMatC= 2.31D+00 BMatP= 2.31D+00
 IDIUse=1 WtCom= 1.00D+00 WtEn= 0.00D+00
 Coeff-Com:  0.100D+01
 Coeff:      0.100D+01
 Gap=     0.565 Goal=   None    Shift=    0.500
 T= 1610. Gap= 0.536 NK=0 IS=  102 IE=  633 IFin=  101
          NO(<0.9)=   0  NV(>0.1)=   0    101.00e < EF      0.00e >EF  Err=0.0D+00
 Gap=     0.166 Goal=   None    Shift=    0.500
 T= 1610. Gap= 0.370 NK=0 IS=  101 IE=  633 IFin=  100
          NO(<0.9)=   0  NV(>0.1)=   0    100.00e < EF      0.00e >EF  Err=0.0D+00
 GapD=    0.166 DampG=1.000 DampE=0.500 DampFc=0.5000 IDamp=-1.
 Damping current iteration by 5.00D-01
 RMSDP=3.47D-03 MaxDP=3.20D-01              OVMax= 1.40D-01

 Cycle   2  Pass 1  IDiag  1:
 E= -1775.71847271090     Delta-E=       -0.380961245124 Rises=F Damp=T
 DIIS: error= 1.63D-02 at cycle   2 NSaved=   2.
 NSaved= 2 IEnMin= 2 EnMin= -1775.71847271090     IErMin= 2 ErrMin= 1.63D-02
 ErrMax= 1.63D-02  0.00D+00 EMaxC= 1.00D+00 BMatC= 3.25D-01 BMatP= 2.31D+00
 IDIUse=1 WtCom= 1.00D+00 WtEn= 0.00D+00
 Coeff-Com: -0.483D+00 0.148D+01
 Coeff:     -0.483D+00 0.148D+01
 Gap=     0.204 Goal=   None    Shift=    0.500
 T= 1488. Gap= 0.676 NK=0 IS=  102 IE=  633 IFin=  101
          NO(<0.9)=   0  NV(>0.1)=   0    101.00e < EF      0.00e >EF  Err=0.0D+00
 Gap=     0.041 Goal=   None    Shift=    0.500
 T= 1488. Gap= 0.517 NK=0 IS=  101 IE=  633 IFin=  100
          NO(<0.9)=   0  NV(>0.1)=   0    100.00e < EF      0.00e >EF  Err=0.0D+00
 GapD=    0.041 DampG=0.250 DampE=0.500 DampFc=0.1250 IDamp=-1.
 Damping current iteration by 1.25D-01
 RMSDP=1.95D-03 MaxDP=1.26D-01 DE=-3.81D-01 OVMax= 2.73D-02

 Cycle   3  Pass 1  IDiag  1:
 E= -1775.75126448016     Delta-E=       -0.032791769261 Rises=F Damp=T
 DIIS: error= 1.41D-02 at cycle   3 NSaved=   3.
 NSaved= 3 IEnMin= 3 EnMin= -1775.75126448016     IErMin= 3 ErrMin= 1.41D-02
 ErrMax= 1.41D-02  0.00D+00 EMaxC= 1.00D+00 BMatC= 2.34D-01 BMatP= 3.25D-01
 IDIUse=1 WtCom= 1.00D+00 WtEn= 0.00D+00
 Coeff-Com:  0.122D+00-0.666D+01 0.754D+01
 Coeff:      0.122D+00-0.666D+01 0.754D+01
 Gap=     0.216 Goal=   None    Shift=    0.500
 T= 1316. Gap= 0.711 NK=0 IS=  102 IE=  633 IFin=  101
          NO(<0.9)=   0  NV(>0.1)=   0    101.00e < EF      0.00e >EF  Err=0.0D+00
 Gap=     0.060 Goal=   None    Shift=    0.500
 T= 1316. Gap= 0.559 NK=0 IS=  101 IE=  633 IFin=  100
          NO(<0.9)=   0  NV(>0.1)=   0    100.00e < EF      0.00e >EF  Err=0.0D+00
 GapD=    0.060 DampG=0.500 DampE=0.500 DampFc=0.2500 IDamp=-1.
 Damping current iteration by 2.50D-01
 RMSDP=1.81D-03 MaxDP=1.20D-01 DE=-3.28D-02 OVMax= 1.50D-02

 Cycle   4  Pass 1  IDiag  1:
 E= -1775.80324951188     Delta-E=       -0.051985031717 Rises=F Damp=T
 DIIS: error= 1.07D-02 at cycle   4 NSaved=   4.
 NSaved= 4 IEnMin= 4 EnMin= -1775.80324951188     IErMin= 4 ErrMin= 1.07D-02
 ErrMax= 1.07D-02  0.00D+00 EMaxC= 1.00D+00 BMatC= 1.25D-01 BMatP= 2.34D-01
 IDIUse=1 WtCom= 1.00D+00 WtEn= 0.00D+00
 Coeff-Com:  0.823D-01-0.294D+00-0.287D+01 0.408D+01
 Coeff:      0.823D-01-0.294D+00-0.287D+01 0.408D+01
 Gap=     0.210 Goal=   None    Shift=    0.500
 T= 1026. Gap= 0.710 NK=0 IS=  102 IE=  633 IFin=  101
          NO(<0.9)=   0  NV(>0.1)=   0    101.00e < EF      0.00e >EF  Err=0.0D+00
 Gap=     0.059 Goal=   None    Shift=    0.500
 T= 1026. Gap= 0.559 NK=0 IS=  101 IE=  633 IFin=  100
          NO(<0.9)=   0  NV(>0.1)=   0    100.00e < EF      0.00e >EF  Err=0.0D+00
 GapD=    0.059 DampG=0.500 DampE=0.500 DampFc=0.2500 IDamp=-1.
 Damping current iteration by 2.50D-01
 RMSDP=1.37D-03 MaxDP=9.09D-02 DE=-5.20D-02 OVMax= 1.28D-02

 Cycle   5  Pass 1  IDiag  1:
 E= -1775.83944928338     Delta-E=       -0.036199771502 Rises=F Damp=T
 DIIS: error= 8.15D-03 at cycle   5 NSaved=   5.
 NSaved= 5 IEnMin= 5 EnMin= -1775.83944928338     IErMin= 5 ErrMin= 8.15D-03
 ErrMax= 8.15D-03  0.00D+00 EMaxC= 1.00D+00 BMatC= 6.94D-02 BMatP= 1.25D-01
 IDIUse=1 WtCom= 1.00D+00 WtEn= 0.00D+00
 Coeff-Com: -0.327D-02 0.115D+01-0.133D+01-0.348D+01 0.467D+01
 Coeff:     -0.327D-02 0.115D+01-0.133D+01-0.348D+01 0.467D+01
 Gap=     0.213 Goal=   None    Shift=    0.500
 T=  893. Gap= 0.713 NK=0 IS=  102 IE=  633 IFin=  101
          NO(<0.9)=   0  NV(>0.1)=   0    101.00e < EF      0.00e >EF  Err=0.0D+00
 Gap=     0.063 Goal=   None    Shift=    0.500
 T=  893. Gap= 0.563 NK=0 IS=  101 IE=  633 IFin=  100
          NO(<0.9)=   0  NV(>0.1)=   0    100.00e < EF      0.00e >EF  Err=0.0D+00
 GapD=    0.063 DampG=0.500 DampE=1.000 DampFc=0.5000 IDamp=-1.
 Damping current iteration by 5.00D-01
 RMSDP=1.02D-03 MaxDP=6.68D-02 DE=-3.62D-02 OVMax= 1.18D-02

 Cycle   6  Pass 1  IDiag  1:
 E= -1775.89066530448     Delta-E=       -0.051216021094 Rises=F Damp=T
 DIIS: error= 4.48D-03 at cycle   6 NSaved=   6.
 NSaved= 6 IEnMin= 6 EnMin= -1775.89066530448     IErMin= 6 ErrMin= 4.48D-03
 ErrMax= 4.48D-03  0.00D+00 EMaxC= 1.00D+00 BMatC= 1.74D-02 BMatP= 6.94D-02
 IDIUse=1 WtCom= 1.00D+00 WtEn= 0.00D+00
 Coeff-Com: -0.184D-01 0.142D+00 0.581D+00 0.650D+00-0.393D+01 0.357D+01
 Coeff:     -0.184D-01 0.142D+00 0.581D+00 0.650D+00-0.393D+01 0.357D+01
 Gap=     0.216 Goal=   None    Shift=    0.500
 T=  686. Gap= 0.716 NK=0 IS=  102 IE=  633 IFin=  101
          NO(<0.9)=   0  NV(>0.1)=   0    101.00e < EF      0.00e >EF  Err=0.0D+00
 Gap=     0.065 Goal=   None    Shift=    0.500
 T=  686. Gap= 0.566 NK=0 IS=  101 IE=  633 IFin=  100
          NO(<0.9)=   0  NV(>0.1)=   0    100.00e < EF      0.00e >EF  Err=0.0D+00
 GapD=    0.065 DampG=0.500 DampE=1.000 DampFc=0.5000 IDamp=-1.
 Damping current iteration by 5.00D-01
 RMSDP=5.11D-04 MaxDP=3.28D-02 DE=-5.12D-02 OVMax= 1.19D-02

 Cycle   7  Pass 1  IDiag  1:
 E= -1775.91522432409     Delta-E=       -0.024559019612 Rises=F Damp=T
 DIIS: error= 2.88D-03 at cycle   7 NSaved=   7.
 NSaved= 7 IEnMin= 7 EnMin= -1775.91522432409     IErMin= 7 ErrMin= 2.88D-03
 ErrMax= 2.88D-03  0.00D+00 EMaxC= 1.00D+00 BMatC= 4.60D-03 BMatP= 1.74D-02
 IDIUse=1 WtCom= 1.00D+00 WtEn= 0.00D+00
 Coeff-Com: -0.467D-02-0.352D+00 0.720D+00 0.142D+01-0.253D+01-0.144D+01
 Coeff-Com:  0.318D+01
 Coeff:     -0.467D-02-0.352D+00 0.720D+00 0.142D+01-0.253D+01-0.144D+01
 Coeff:      0.318D+01
 Gap=     0.215 Goal=   None    Shift=    0.500
 T=  441. Gap= 0.715 NK=0 IS=  102 IE=  633 IFin=  101
          NO(<0.9)=   0  NV(>0.1)=   0    101.00e < EF      0.00e >EF  Err=0.0D+00
 Gap=     0.066 Goal=   None    Shift=    0.500
 T=  441. Gap= 0.566 NK=0 IS=  101 IE=  633 IFin=  100
          NO(<0.9)=   0  NV(>0.1)=   0    100.00e < EF      0.00e >EF  Err=0.0D+00
 GapD=    0.066 DampG=0.500 DampE=1.000 DampFc=0.5000 IDamp=-1.
 Damping current iteration by 5.00D-01
 RMSDP=2.69D-04 MaxDP=1.64D-02 DE=-2.46D-02 OVMax= 1.19D-02

 Cycle   8  Pass 1  IDiag  1:
 E= -1775.92741966507     Delta-E=       -0.012195340982 Rises=F Damp=T
 DIIS: error= 2.14D-03 at cycle   8 NSaved=   8.
 NSaved= 8 IEnMin= 8 EnMin= -1775.92741966507     IErMin= 8 ErrMin= 2.14D-03
 ErrMax= 2.14D-03  0.00D+00 EMaxC= 1.00D+00 BMatC= 1.33D-03 BMatP= 4.60D-03
 IDIUse=1 WtCom= 1.00D+00 WtEn= 0.00D+00
 Coeff-Com:  0.420D-02-0.171D+00-0.675D-01 0.332D+00 0.101D+01-0.195D+01
 Coeff-Com: -0.202D+01 0.387D+01
 Coeff:      0.420D-02-0.171D+00-0.675D-01 0.332D+00 0.101D+01-0.195D+01
 Coeff:     -0.202D+01 0.387D+01
 Gap=     0.216 Goal=   None    Shift=    0.500
 T=  147. Gap= 0.716 NK=0 IS=  102 IE=  633 IFin=  101
          NO(<0.9)=   0  NV(>0.1)=   0    101.00e < EF      0.00e >EF  Err=0.0D+00
 Gap=     0.067 Goal=   None    Shift=    0.500
 T=  147. Gap= 0.567 NK=0 IS=  101 IE=  633 IFin=  100
          NO(<0.9)=   0  NV(>0.1)=   0    100.00e < EF      0.00e >EF  Err=0.0D+00
 GapD=    0.067 DampG=0.500 DampE=1.000 DampFc=0.5000 IDamp=-1.
 Damping current iteration by 5.00D-01
 RMSDP=1.54D-04 MaxDP=8.49D-03 DE=-1.22D-02 OVMax= 1.23D-02

 Cycle   9  Pass 1  IDiag  1:
 E= -1775.93361355963     Delta-E=       -0.006193894558 Rises=F Damp=T
 DIIS: error= 2.09D-03 at cycle   9 NSaved=   9.
 NSaved= 9 IEnMin= 9 EnMin= -1775.93361355963     IErMin= 9 ErrMin= 2.09D-03
 ErrMax= 2.09D-03  0.00D+00 EMaxC= 1.00D+00 BMatC= 4.52D-04 BMatP= 1.33D-03
 IDIUse=1 WtCom= 1.00D+00 WtEn= 0.00D+00
 Coeff-Com:  0.225D-02-0.585D-01-0.148D+00 0.161D-01 0.102D+01-0.106D+01
 Coeff-Com: -0.118D+01 0.200D+00 0.222D+01
 Coeff:      0.225D-02-0.585D-01-0.148D+00 0.161D-01 0.102D+01-0.106D+01
 Coeff:     -0.118D+01 0.200D+00 0.222D+01
 Gap=     0.217 Goal=   None    Shift=    0.500
 Gap=     0.068 Goal=   None    Shift=    0.500
 GapD=    0.068 DampG=0.500 DampE=1.000 DampFc=0.5000 IDamp=-1.
 Damping current iteration by 5.00D-01
 RMSDP=9.67D-05 MaxDP=5.38D-03 DE=-6.19D-03 OVMax= 1.15D-02

 Cycle  10  Pass 1  IDiag  1:
 E= -1775.93682311481     Delta-E=       -0.003209555180 Rises=F Damp=T
 DIIS: error= 2.08D-03 at cycle  10 NSaved=  10.
 NSaved=10 IEnMin=10 EnMin= -1775.93682311481     IErMin=10 ErrMin= 2.08D-03
 ErrMax= 2.08D-03  0.00D+00 EMaxC= 1.00D+00 BMatC= 2.01D-04 BMatP= 4.52D-04
 IDIUse=1 WtCom= 1.00D+00 WtEn= 0.00D+00
 Coeff-Com: -0.642D-03-0.559D-01 0.828D-01 0.382D+00-0.647D+00-0.161D-01
 Coeff-Com:  0.830D+00 0.575D+00-0.513D+01 0.498D+01
 Coeff:     -0.642D-03-0.559D-01 0.828D-01 0.382D+00-0.647D+00-0.161D-01
 Coeff:      0.830D+00 0.575D+00-0.513D+01 0.498D+01
 Gap=     0.218 Goal=   None    Shift=    0.500
 Gap=     0.068 Goal=   None    Shift=    0.500
 GapD=    0.068 DampG=0.500 DampE=1.000 DampFc=0.5000 IDamp=-1.
 Damping current iteration by 5.00D-01
 RMSDP=7.25D-05 MaxDP=5.44D-03 DE=-3.21D-03 OVMax= 1.23D-02

 Cycle  11  Pass 1  IDiag  1:
 E= -1775.93853411436     Delta-E=       -0.001710999552 Rises=F Damp=T
 DIIS: error= 2.10D-03 at cycle  11 NSaved=  11.
 NSaved=11 IEnMin=11 EnMin= -1775.93853411436     IErMin=10 ErrMin= 2.08D-03
 ErrMax= 2.10D-03  0.00D+00 EMaxC= 1.00D+00 BMatC= 1.26D-04 BMatP= 2.01D-04
 IDIUse=1 WtCom= 1.00D+00 WtEn= 0.00D+00
 Coeff-Com: -0.798D-03-0.720D-01 0.140D+00 0.358D+00-0.727D+00 0.146D-01
 Coeff-Com:  0.888D+00 0.807D+00-0.477D+01 0.319D+01 0.117D+01
 Coeff:     -0.798D-03-0.720D-01 0.140D+00 0.358D+00-0.727D+00 0.146D-01
 Coeff:      0.888D+00 0.807D+00-0.477D+01 0.319D+01 0.117D+01
 Gap=     0.218 Goal=   None    Shift=    0.500
 Gap=     0.069 Goal=   None    Shift=    0.500
 GapD=    0.069 DampG=0.500 DampE=1.000 DampFc=0.5000 IDamp=-1.
 Damping current iteration by 5.00D-01
 RMSDP=5.67D-05 MaxDP=4.34D-03 DE=-1.71D-03 OVMax= 1.14D-02

 Cycle  12  Pass 1  IDiag  1:
 E= -1775.93948424086     Delta-E=       -0.000950126507 Rises=F Damp=T
 DIIS: error= 2.13D-03 at cycle  12 NSaved=  12.
 NSaved=12 IEnMin=12 EnMin= -1775.93948424086     IErMin=10 ErrMin= 2.08D-03
 ErrMax= 2.13D-03  0.00D+00 EMaxC= 1.00D+00 BMatC= 1.00D-04 BMatP= 1.26D-04
 IDIUse=1 WtCom= 1.00D+00 WtEn= 0.00D+00
 Coeff-Com: -0.539D-03-0.703D-01 0.112D+00 0.358D+00-0.611D+00-0.124D+00
 Coeff-Com:  0.725D+00 0.911D+00-0.403D+01 0.291D+01-0.155D+00 0.968D+00
 Coeff:     -0.539D-03-0.703D-01 0.112D+00 0.358D+00-0.611D+00-0.124D+00
 Coeff:      0.725D+00 0.911D+00-0.403D+01 0.291D+01-0.155D+00 0.968D+00
 Gap=     0.219 Goal=   None    Shift=    0.500
 Gap=     0.069 Goal=   None    Shift=    0.500
 GapD=    0.069 DampG=0.500 DampE=1.000 DampFc=0.5000 IDamp=-1.
 Damping current iteration by 5.00D-01
 RMSDP=4.56D-05 MaxDP=3.20D-03 DE=-9.50D-04 OVMax= 1.04D-02

 Cycle  13  Pass 1  IDiag  1:
 E= -1775.94004093924     Delta-E=       -0.000556698378 Rises=F Damp=T
 DIIS: error= 2.15D-03 at cycle  13 NSaved=  13.
 NSaved=13 IEnMin=13 EnMin= -1775.94004093924     IErMin=10 ErrMin= 2.08D-03
 ErrMax= 2.15D-03  0.00D+00 EMaxC= 1.00D+00 BMatC= 9.12D-05 BMatP= 1.00D-04
 IDIUse=1 WtCom= 1.00D+00 WtEn= 0.00D+00
 Coeff-Com: -0.436D-03-0.842D-01 0.143D+00 0.340D+00-0.616D+00-0.113D+00
 Coeff-Com:  0.663D+00 0.104D+01-0.414D+01 0.419D+01-0.436D+01 0.581D+01
 Coeff-Com: -0.188D+01
 Coeff:     -0.436D-03-0.842D-01 0.143D+00 0.340D+00-0.616D+00-0.113D+00
 Coeff:      0.663D+00 0.104D+01-0.414D+01 0.419D+01-0.436D+01 0.581D+01
 Coeff:     -0.188D+01
 Gap=     0.219 Goal=   None    Shift=    0.500
 Gap=     0.069 Goal=   None    Shift=    0.500
 GapD=    0.069 DampG=0.500 DampE=1.000 DampFc=0.5000 IDamp=-1.
 Damping current iteration by 5.00D-01
 RMSDP=3.65D-05 MaxDP=2.48D-03 DE=-5.57D-04 OVMax= 9.03D-03

 Cycle  14  Pass 1  IDiag  1:
 E= -1775.94038713313     Delta-E=       -0.000346193890 Rises=F Damp=T
 DIIS: error= 2.15D-03 at cycle  14 NSaved=  14.
 NSaved=14 IEnMin=14 EnMin= -1775.94038713313     IErMin=10 ErrMin= 2.08D-03
 ErrMax= 2.15D-03  0.00D+00 EMaxC= 1.00D+00 BMatC= 9.07D-05 BMatP= 9.12D-05
 IDIUse=1 WtCom= 1.00D+00 WtEn= 0.00D+00
 Large coefficients: NSaved= 14 BigCof=   15.46 CofMax=   10.00 Det=-7.76D-10
 Inversion failed.  Reducing to 13 matrices.
 Large coefficients: NSaved= 13 BigCof=   15.40 CofMax=   10.00 Det=-7.76D-10
 Inversion failed.  Reducing to 12 matrices.
 Coeff-Com: -0.352D-01 0.219D+00-0.215D+00-0.192D+00 0.408D+00 0.857D+00
 Coeff-Com: -0.352D+01 0.342D+01-0.266D+01 0.435D+01-0.227D+01 0.644D+00
 Coeff:     -0.352D-01 0.219D+00-0.215D+00-0.192D+00 0.408D+00 0.857D+00
 Coeff:     -0.352D+01 0.342D+01-0.266D+01 0.435D+01-0.227D+01 0.644D+00
 Gap=     0.219 Goal=   None    Shift=    0.500
 Gap=     0.070 Goal=   None    Shift=    0.500
 GapD=    0.070 DampG=0.500 DampE=1.000 DampFc=0.5000 IDamp=-1.
 Damping current iteration by 5.00D-01
 RMSDP=3.02D-05 MaxDP=2.08D-03 DE=-3.46D-04 OVMax= 8.01D-03

 Cycle  15  Pass 1  IDiag  1:
 E= -1775.94061727357     Delta-E=       -0.000230140441 Rises=F Damp=T
 DIIS: error= 2.15D-03 at cycle  15 NSaved=  13.
 NSaved=13 IEnMin=13 EnMin= -1775.94061727357     IErMin= 8 ErrMin= 2.08D-03
 ErrMax= 2.15D-03  0.00D+00 EMaxC= 1.00D+00 BMatC= 9.65D-05 BMatP= 9.07D-05
 IDIUse=1 WtCom= 1.00D+00 WtEn= 0.00D+00
 Large coefficients: NSaved= 13 BigCof=   17.32 CofMax=   10.00 Det=-1.06D-09
 Inversion failed.  Reducing to 12 matrices.
 Large coefficients: NSaved= 12 BigCof=   15.68 CofMax=   10.00 Det=-1.24D-09
 Inversion failed.  Reducing to 11 matrices.
 Large coefficients: NSaved= 11 BigCof=   12.30 CofMax=   10.00 Det=-6.07D-10
 Inversion failed.  Reducing to 10 matrices.
 Large coefficients: NSaved= 10 BigCof=   11.69 CofMax=   10.00 Det=-1.35D-09
 Inversion failed.  Reducing to  9 matrices.
 Coeff-Com:  0.384D-01 0.830D+00-0.335D+01 0.445D+01-0.617D+01 0.793D+01
 Coeff-Com: -0.175D+01-0.191D+01 0.928D+00
 Coeff:      0.384D-01 0.830D+00-0.335D+01 0.445D+01-0.617D+01 0.793D+01
 Coeff:     -0.175D+01-0.191D+01 0.928D+00
 Gap=     0.219 Goal=   None    Shift=    0.500
 Gap=     0.070 Goal=   None    Shift=    0.500
 GapD=    0.070 DampG=0.500 DampE=1.000 DampFc=0.5000 IDamp=-1.
 Damping current iteration by 5.00D-01
 RMSDP=2.48D-05 MaxDP=1.70D-03 DE=-2.30D-04 OVMax= 6.79D-03

 Cycle  16  Pass 1  IDiag  1:
 E= -1775.94077842884     Delta-E=       -0.000161155262 Rises=F Damp=T
 DIIS: error= 2.14D-03 at cycle  16 NSaved=  10.
 NSaved=10 IEnMin=10 EnMin= -1775.94077842884     IErMin= 4 ErrMin= 2.08D-03
 ErrMax= 2.14D-03  0.00D+00 EMaxC= 1.00D+00 BMatC= 1.08D-04 BMatP= 9.07D-05
 IDIUse=1 WtCom= 1.00D+00 WtEn= 0.00D+00
 Coeff-Com:  0.371D-01 0.829D+00-0.329D+01 0.426D+01-0.571D+01 0.651D+01
 Coeff-Com:  0.876D+00-0.362D+01 0.432D+00 0.676D+00
 Coeff:      0.371D-01 0.829D+00-0.329D+01 0.426D+01-0.571D+01 0.651D+01
 Coeff:      0.876D+00-0.362D+01 0.432D+00 0.676D+00
 Gap=     0.219 Goal=   None    Shift=    0.500
 Gap=     0.070 Goal=   None    Shift=    0.500
 GapD=    0.070 DampG=0.500 DampE=1.000 DampFc=0.5000 IDamp=-1.
 Damping current iteration by 5.00D-01
 RMSDP=2.13D-05 MaxDP=1.43D-03 DE=-1.61D-04 OVMax= 6.04D-03

 Cycle  17  Pass 1  IDiag  1:
 E= -1775.94089835800     Delta-E=       -0.000119929160 Rises=F Damp=T
 DIIS: error= 2.12D-03 at cycle  17 NSaved=  11.
 NSaved=11 IEnMin=11 EnMin= -1775.94089835800     IErMin= 4 ErrMin= 2.08D-03
 ErrMax= 2.12D-03  0.00D+00 EMaxC= 1.00D+00 BMatC= 1.22D-04 BMatP= 9.07D-05
 IDIUse=1 WtCom= 1.00D+00 WtEn= 0.00D+00
 Large coefficients: NSaved= 11 BigCof=   24.50 CofMax=   10.00 Det=-3.79D-10
 Inversion failed.  Reducing to 10 matrices.
 Large coefficients: NSaved= 10 BigCof=   24.75 CofMax=   10.00 Det=-5.77D-10
 Inversion failed.  Reducing to  9 matrices.
 Large coefficients: NSaved=  9 BigCof=   15.28 CofMax=   10.00 Det=-6.21D-10
 Inversion failed.  Reducing to  8 matrices.
 Large coefficients: NSaved=  8 BigCof=   16.68 CofMax=   10.00 Det=-5.36D-10
 Inversion failed.  Reducing to  7 matrices.
 Large coefficients: NSaved=  7 BigCof=   12.19 CofMax=   10.00 Det=-9.23D-10
 Inversion failed.  Reducing to  6 matrices.
 Large coefficients: NSaved=  6 BigCof=   13.54 CofMax=   10.00 Det=-1.70D-09
 Inversion failed.  Reducing to  5 matrices.
 Large coefficients: NSaved=  5 BigCof=   14.38 CofMax=   10.00 Det=-1.75D-09
 Inversion failed.  Reducing to  4 matrices.
 Large coefficients: NSaved=  4 BigCof=   19.63 CofMax=   10.00 Det=-3.23D-09
 Inversion failed.  Reducing to  3 matrices.
 Large coefficients: NSaved=  3 BigCof=   16.62 CofMax=   10.00 Det=-5.18D-09
 Inversion failed.  Reducing to  2 matrices.
 Coeff-Com:  0.407D+01-0.307D+01
 Coeff:      0.407D+01-0.307D+01
 Gap=     0.219 Goal=   None    Shift=    0.500
 Gap=     0.070 Goal=   None    Shift=    0.500
 GapD=    0.070 DampG=0.500 DampE=1.000 DampFc=0.5000 IDamp=-1.
 Damping current iteration by 5.00D-01
 RMSDP=2.00D-05 MaxDP=1.38D-03 DE=-1.20D-04 OVMax= 5.94D-03

 Cycle  18  Pass 1  IDiag  1:
 E= -1775.94099750111     Delta-E=       -0.000099143112 Rises=F Damp=T
 DIIS: error= 2.11D-03 at cycle  18 NSaved=   3.
 NSaved= 3 IEnMin= 3 EnMin= -1775.94099750111     IErMin= 3 ErrMin= 2.11D-03
 ErrMax= 2.11D-03  0.00D+00 EMaxC= 1.00D+00 BMatC= 1.36D-04 BMatP= 1.08D-04
 IDIUse=1 WtCom= 1.00D+00 WtEn= 0.00D+00
 Coeff-Com:  0.508D+01-0.538D+01 0.130D+01
 Coeff:      0.508D+01-0.538D+01 0.130D+01
 Gap=     0.219 Goal=   None    Shift=    0.500
 Gap=     0.070 Goal=   None    Shift=    0.500
 GapD=    0.070 DampG=0.500 DampE=1.000 DampFc=0.5000 IDamp=-1.
 Damping current iteration by 5.00D-01
 RMSDP=1.86D-05 MaxDP=1.26D-03 DE=-9.91D-05 OVMax= 5.40D-03

 Cycle  19  Pass 1  IDiag  1:
 E= -1775.94108204465     Delta-E=       -0.000084543541 Rises=F Damp=T
 DIIS: error= 2.10D-03 at cycle  19 NSaved=   4.
 NSaved= 4 IEnMin= 4 EnMin= -1775.94108204465     IErMin= 4 ErrMin= 2.10D-03
 ErrMax= 2.10D-03  0.00D+00 EMaxC= 1.00D+00 BMatC= 1.51D-04 BMatP= 1.08D-04
 IDIUse=1 WtCom= 1.00D+00 WtEn= 0.00D+00
 Large coefficients: NSaved=  4 BigCof=   12.45 CofMax=   10.00 Det=-1.09D-08
 Inversion failed.  Reducing to  3 matrices.
 Large coefficients: NSaved=  3 BigCof=   16.07 CofMax=   10.00 Det=-2.55D-08
 Inversion failed.  Reducing to  2 matrices.
 Coeff-Com:  0.789D+01-0.689D+01
 Coeff:      0.789D+01-0.689D+01
 Gap=     0.218 Goal=   None    Shift=    0.500
 Gap=     0.070 Goal=   None    Shift=    0.500
 GapD=    0.070 DampG=0.500 DampE=1.000 DampFc=0.5000 IDamp=-1.
 Damping current iteration by 5.00D-01
 RMSDP=1.44D-05 MaxDP=8.94D-04 DE=-8.45D-05 OVMax= 3.67D-03

 Cycle  20  Pass 1  IDiag  1:
 E= -1775.94114457642     Delta-E=       -0.000062531776 Rises=F Damp=T
 DIIS: error= 2.07D-03 at cycle  20 NSaved=   3.
 NSaved= 3 IEnMin= 3 EnMin= -1775.94114457642     IErMin= 3 ErrMin= 2.07D-03
 ErrMax= 2.07D-03  0.00D+00 EMaxC= 1.00D+00 BMatC= 1.73D-04 BMatP= 1.36D-04
 IDIUse=1 WtCom= 1.00D+00 WtEn= 0.00D+00
 Coeff-Com:  0.832D+01-0.766D+01 0.341D+00
 Coeff:      0.832D+01-0.766D+01 0.341D+00
 Gap=     0.218 Goal=   None    Shift=    0.500
 Gap=     0.070 Goal=   None    Shift=    0.500
 GapD=    0.070 DampG=0.500 DampE=1.000 DampFc=0.5000 IDamp=-1.
 Damping current iteration by 5.00D-01
 RMSDP=1.22D-05 MaxDP=8.95D-04 DE=-6.25D-05 OVMax= 3.07D-03

 Cycle  21  Pass 1  IDiag  1:
 E= -1775.94119191893     Delta-E=       -0.000047342510 Rises=F Damp=T
 DIIS: error= 2.05D-03 at cycle  21 NSaved=   4.
 NSaved= 4 IEnMin= 4 EnMin= -1775.94119191893     IErMin= 4 ErrMin= 2.05D-03
 ErrMax= 2.05D-03  0.00D+00 EMaxC= 1.00D+00 BMatC= 1.98D-04 BMatP= 1.36D-04
 IDIUse=1 WtCom= 1.00D+00 WtEn= 0.00D+00
 Coeff-Com:  0.826D+01-0.801D+01 0.124D+01-0.489D+00
 Coeff:      0.826D+01-0.801D+01 0.124D+01-0.489D+00
 Gap=     0.218 Goal=   None    Shift=    0.500
 Gap=     0.070 Goal=   None    Shift=    0.500
 GapD=    0.070 DampG=0.500 DampE=1.000 DampFc=0.5000 IDamp=-1.
 Damping current iteration by 5.00D-01
 RMSDP=1.01D-05 MaxDP=6.88D-04 DE=-4.73D-05 OVMax= 2.75D-03

 Cycle  22  Pass 1  IDiag  1:
 E= -1775.94123039879     Delta-E=       -0.000038479861 Rises=F Damp=T
 DIIS: error= 2.02D-03 at cycle  22 NSaved=   5.
 NSaved= 5 IEnMin= 5 EnMin= -1775.94123039879     IErMin= 5 ErrMin= 2.02D-03
 ErrMax= 2.02D-03  0.00D+00 EMaxC= 1.00D+00 BMatC= 2.20D-04 BMatP= 1.36D-04
 IDIUse=1 WtCom= 1.00D+00 WtEn= 0.00D+00
 Large coefficients: NSaved=  5 BigCof=   11.74 CofMax=   10.00 Det=-2.46D-10
 Inversion failed.  Reducing to  4 matrices.
 Large coefficients: NSaved=  4 BigCof=   77.56 CofMax=   10.00 Det=-3.00D-10
 Inversion failed.  Reducing to  3 matrices.
 Large coefficients: NSaved=  3 BigCof=   19.29 CofMax=   10.00 Det=-2.26D-09
 Inversion failed.  Reducing to  2 matrices.
 Large coefficients: NSaved=  2 BigCof=   10.60 CofMax=   10.00 Det=-1.11D-06
 Coeff-Com:  0.106D+02-0.960D+01
 Coeff:      0.106D+02-0.960D+01
 Gap=     0.220 Goal=   None    Shift=    0.500
 Gap=     0.071 Goal=   None    Shift=    0.500
 GapD=    0.071 DampG=0.500 DampE=1.000 DampFc=0.5000 IDamp=-1.
 Damping current iteration by 5.00D-01
 RMSDP=2.19D-05 MaxDP=2.62D-03 DE=-3.85D-05 OVMax= 5.85D-03

 Cycle  23  Pass 1  IDiag  1:
 E= -1775.94129787242     Delta-E=       -0.000067473626 Rises=F Damp=T
 DIIS: error= 2.04D-03 at cycle  23 NSaved=   3.
 NSaved= 3 IEnMin= 3 EnMin= -1775.94129787242     IErMin= 2 ErrMin= 2.02D-03
 ErrMax= 2.04D-03  0.00D+00 EMaxC= 1.00D+00 BMatC= 2.15D-04 BMatP= 1.98D-04
 IDIUse=1 WtCom= 1.00D+00 WtEn= 0.00D+00
 Large coefficients: NSaved=  3 BigCof=   10.84 CofMax=   10.00 Det=-5.93D-07
 Inversion failed.  Reducing to  2 matrices.
 Coeff-Com: -0.178D+01 0.278D+01
 Coeff:     -0.178D+01 0.278D+01
 Gap=     0.228 Goal=   None    Shift=    0.500
 Gap=     0.074 Goal=   None    Shift=    0.500
 GapD=    0.074 DampG=0.500 DampE=1.000 DampFc=0.5000 IDamp=-1.
 Damping current iteration by 5.00D-01
 RMSDP=7.02D-05 MaxDP=1.18D-02 DE=-6.75D-05 OVMax= 1.01D-02

 Cycle  24  Pass 1  IDiag  1:
 E= -1775.94142983820     Delta-E=       -0.000131965782 Rises=F Damp=T
 DIIS: error= 2.22D-03 at cycle  24 NSaved=   3.
 NSaved= 3 IEnMin= 3 EnMin= -1775.94142983820     IErMin= 1 ErrMin= 2.02D-03
 ErrMax= 2.22D-03  0.00D+00 EMaxC= 1.00D+00 BMatC= 1.21D-04 BMatP= 2.15D-04
 IDIUse=1 WtCom= 1.00D+00 WtEn= 0.00D+00
 Coeff-Com: -0.945D+00 0.511D+00 0.143D+01
 Coeff:     -0.945D+00 0.511D+00 0.143D+01
 Gap=     0.226 Goal=   None    Shift=    0.500
 Gap=     0.073 Goal=   None    Shift=    0.500
 GapD=    0.073 DampG=0.500 DampE=1.000 DampFc=0.5000 IDamp=-1.
 Damping current iteration by 5.00D-01
 RMSDP=6.06D-05 MaxDP=9.32D-03 DE=-1.32D-04 OVMax= 1.10D-02

 Cycle  25  Pass 1  IDiag  1:
 E= -1775.94157362259     Delta-E=       -0.000143784384 Rises=F Damp=T
 DIIS: error= 2.31D-03 at cycle  25 NSaved=   4.
 NSaved= 4 IEnMin= 4 EnMin= -1775.94157362259     IErMin= 1 ErrMin= 2.02D-03
 ErrMax= 2.31D-03  0.00D+00 EMaxC= 1.00D+00 BMatC= 1.09D-04 BMatP= 1.21D-04
 IDIUse=1 WtCom= 1.00D+00 WtEn= 0.00D+00
 Coeff-Com: -0.418D+00 0.362D+00-0.616D+00 0.167D+01
 Coeff:     -0.418D+00 0.362D+00-0.616D+00 0.167D+01
 Gap=     0.227 Goal=   None    Shift=    0.500
 Gap=     0.073 Goal=   None    Shift=    0.500
 GapD=    0.073 DampG=0.500 DampE=1.000 DampFc=0.5000 IDamp=-1.
 Damping current iteration by 5.00D-01
 RMSDP=5.44D-05 MaxDP=7.31D-03 DE=-1.44D-04 OVMax= 1.12D-02

 Cycle  26  Pass 1  IDiag  1:
 E= -1775.94172980619     Delta-E=       -0.000156183607 Rises=F Damp=T
 DIIS: error= 2.36D-03 at cycle  26 NSaved=   5.
 NSaved= 5 IEnMin= 5 EnMin= -1775.94172980619     IErMin= 1 ErrMin= 2.02D-03
 ErrMax= 2.36D-03  0.00D+00 EMaxC= 1.00D+00 BMatC= 1.08D-04 BMatP= 1.09D-04
 IDIUse=1 WtCom= 1.00D+00 WtEn= 0.00D+00
 Coeff-Com: -0.896D+00 0.100D+01-0.154D+01 0.440D+01-0.196D+01
 Coeff:     -0.896D+00 0.100D+01-0.154D+01 0.440D+01-0.196D+01
 Gap=     0.226 Goal=   None    Shift=    0.500
 Gap=     0.073 Goal=   None    Shift=    0.500
 GapD=    0.073 DampG=0.500 DampE=1.000 DampFc=0.5000 IDamp=-1.
 Damping current iteration by 5.00D-01
 RMSDP=3.47D-05 MaxDP=3.02D-03 DE=-1.56D-04 OVMax= 7.99D-03

 Cycle  27  Pass 1  IDiag  1:
 E= -1775.94186742684     Delta-E=       -0.000137620649 Rises=F Damp=T
 DIIS: error= 2.35D-03 at cycle  27 NSaved=   6.
 NSaved= 6 IEnMin= 6 EnMin= -1775.94186742684     IErMin= 1 ErrMin= 2.02D-03
 ErrMax= 2.35D-03  0.00D+00 EMaxC= 1.00D+00 BMatC= 1.18D-04 BMatP= 1.08D-04
 IDIUse=1 WtCom= 1.00D+00 WtEn= 0.00D+00
 Coeff-Com: -0.905D-01 0.123D+01-0.553D+00-0.132D+01 0.874D+01-0.702D+01
 Coeff:     -0.905D-01 0.123D+01-0.553D+00-0.132D+01 0.874D+01-0.702D+01
 Gap=     0.220 Goal=   None    Shift=    0.500
 Gap=     0.072 Goal=   None    Shift=    0.500
 GapD=    0.072 DampG=0.500 DampE=1.000 DampFc=0.5000 IDamp=-1.
 Damping current iteration by 5.00D-01
 RMSDP=3.99D-05 MaxDP=6.81D-03 DE=-1.38D-04 OVMax= 2.14D-03

 Cycle  28  Pass 1  IDiag  1:
 E= -1775.94190223358     Delta-E=       -0.000034806735 Rises=F Damp=T
 DIIS: error= 2.20D-03 at cycle  28 NSaved=   7.
 NSaved= 7 IEnMin= 7 EnMin= -1775.94190223358     IErMin= 1 ErrMin= 2.02D-03
 ErrMax= 2.20D-03  0.00D+00 EMaxC= 1.00D+00 BMatC= 1.80D-04 BMatP= 1.08D-04
 IDIUse=1 WtCom= 1.00D+00 WtEn= 0.00D+00
 Large coefficients: NSaved=  7 BigCof=   28.71 CofMax=   10.00 Det=-1.67D-08
 Inversion failed.  Reducing to  6 matrices.
 Large coefficients: NSaved=  6 BigCof=   27.41 CofMax=   10.00 Det=-1.79D-08
 Inversion failed.  Reducing to  5 matrices.
 Large coefficients: NSaved=  5 BigCof=   19.29 CofMax=   10.00 Det=-2.14D-08
 Inversion failed.  Reducing to  4 matrices.
 Coeff-Com: -0.826D+00 0.516D+01-0.395D+01 0.614D+00
 Coeff:     -0.826D+00 0.516D+01-0.395D+01 0.614D+00
 Gap=     0.225 Goal=   None    Shift=    0.500
 Gap=     0.073 Goal=   None    Shift=    0.500
 GapD=    0.073 DampG=0.500 DampE=1.000 DampFc=0.5000 IDamp=-1.
 Damping current iteration by 5.00D-01
 RMSDP=1.62D-05 MaxDP=1.11D-03 DE=-3.48D-05 OVMax= 6.44D-03

 Cycle  29  Pass 1  IDiag  1:
 E= -1775.94197177198     Delta-E=       -0.000069538404 Rises=F Damp=T
 DIIS: error= 2.16D-03 at cycle  29 NSaved=   5.
 NSaved= 5 IEnMin= 5 EnMin= -1775.94197177198     IErMin= 5 ErrMin= 2.16D-03
 ErrMax= 2.16D-03  0.00D+00 EMaxC= 1.00D+00 BMatC= 2.10D-04 BMatP= 1.08D-04
 IDIUse=1 WtCom= 1.00D+00 WtEn= 0.00D+00
 Coeff-Com: -0.153D+01 0.834D+01-0.675D+01-0.495D+00 0.143D+01
 Coeff:     -0.153D+01 0.834D+01-0.675D+01-0.495D+00 0.143D+01
 Gap=     0.224 Goal=   None    Shift=    0.500
 Gap=     0.073 Goal=   None    Shift=    0.500
 GapD=    0.073 DampG=0.500 DampE=1.000 DampFc=0.5000 IDamp=-1.
 Damping current iteration by 5.00D-01
 RMSDP=1.53D-05 MaxDP=1.01D-03 DE=-6.95D-05 OVMax= 4.58D-03

 Cycle  30  Pass 1  IDiag  1:
 E= -1775.94203643339     Delta-E=       -0.000064661404 Rises=F Damp=T
 DIIS: error= 2.13D-03 at cycle  30 NSaved=   6.
 NSaved= 6 IEnMin= 6 EnMin= -1775.94203643339     IErMin= 6 ErrMin= 2.13D-03
 ErrMax= 2.13D-03  0.00D+00 EMaxC= 1.00D+00 BMatC= 2.35D-04 BMatP= 1.08D-04
 IDIUse=1 WtCom= 1.00D+00 WtEn= 0.00D+00
 Coeff-Com: -0.587D+00 0.589D+01-0.493D+01-0.172D+01 0.449D+01-0.213D+01
 Coeff:     -0.587D+00 0.589D+01-0.493D+01-0.172D+01 0.449D+01-0.213D+01
 Gap=     0.224 Goal=   None    Shift=    0.500
 Gap=     0.073 Goal=   None    Shift=    0.500
 GapD=    0.073 DampG=0.500 DampE=1.000 DampFc=0.5000 IDamp=-1.
 Damping current iteration by 5.00D-01
 RMSDP=1.27D-05 MaxDP=8.15D-04 DE=-6.47D-05 OVMax= 3.65D-03

 Cycle  31  Pass 1  IDiag  1:
 E= -1775.94208966446     Delta-E=       -0.000053231071 Rises=F Damp=T
 DIIS: error= 2.09D-03 at cycle  31 NSaved=   7.
 NSaved= 7 IEnMin= 7 EnMin= -1775.94208966446     IErMin= 7 ErrMin= 2.09D-03
 ErrMax= 2.09D-03  0.00D+00 EMaxC= 1.00D+00 BMatC= 2.63D-04 BMatP= 1.08D-04
 IDIUse=1 WtCom= 1.00D+00 WtEn= 0.00D+00
 Coeff-Com: -0.783D+00 0.672D+01-0.584D+01-0.765D+00 0.124D+00 0.450D+01
 Coeff-Com: -0.296D+01
 Coeff:     -0.783D+00 0.672D+01-0.584D+01-0.765D+00 0.124D+00 0.450D+01
 Coeff:     -0.296D+01
 Gap=     0.224 Goal=   None    Shift=    0.500
 Gap=     0.073 Goal=   None    Shift=    0.500
 GapD=    0.073 DampG=0.500 DampE=1.000 DampFc=0.5000 IDamp=-1.
 Damping current iteration by 5.00D-01
 RMSDP=1.06D-05 MaxDP=6.44D-04 DE=-5.32D-05 OVMax= 3.04D-03

 Cycle  32  Pass 1  IDiag  1:
 E= -1775.94213246301     Delta-E=       -0.000042798552 Rises=F Damp=T
 DIIS: error= 2.06D-03 at cycle  32 NSaved=   8.
 NSaved= 8 IEnMin= 8 EnMin= -1775.94213246301     IErMin= 8 ErrMin= 2.06D-03
 ErrMax= 2.06D-03  0.00D+00 EMaxC= 1.00D+00 BMatC= 2.93D-04 BMatP= 1.08D-04
 IDIUse=1 WtCom= 1.00D+00 WtEn= 0.00D+00
 Large coefficients: NSaved=  8 BigCof=   70.14 CofMax=   10.00 Det=-3.54D-10
 Inversion failed.  Reducing to  7 matrices.
 Large coefficients: NSaved=  7 BigCof=   54.03 CofMax=   10.00 Det=-4.19D-10
 Inversion failed.  Reducing to  6 matrices.
 Large coefficients: NSaved=  6 BigCof=   29.14 CofMax=   10.00 Det=-4.76D-10
 Inversion failed.  Reducing to  5 matrices.
 Large coefficients: NSaved=  5 BigCof=   50.03 CofMax=   10.00 Det=-7.69D-10
 Inversion failed.  Reducing to  4 matrices.
 Large coefficients: NSaved=  4 BigCof=   26.54 CofMax=   10.00 Det=-1.17D-09
 Inversion failed.  Reducing to  3 matrices.
 Coeff-Com:  0.998D+01-0.881D+01-0.173D+00
 Coeff:      0.998D+01-0.881D+01-0.173D+00
 Gap=     0.225 Goal=   None    Shift=    0.500
 Gap=     0.073 Goal=   None    Shift=    0.500
 GapD=    0.073 DampG=0.500 DampE=1.000 DampFc=0.5000 IDamp=-1.
 Damping current iteration by 5.00D-01
 RMSDP=1.86D-05 MaxDP=1.96D-03 DE=-4.28D-05 OVMax= 4.87D-03

 >>>>>>>>>> Convergence criterion not met.
 SCF Done:  E(ULC-wHPBE) =  -1775.94213246     A.U. after   33 cycles
            NFock= 32  Conv=0.19D-04     -V/T= 2.0036
 <Sx>= 0.0000 <Sy>= 0.0000 <Sz>= 0.5000 <S**2>= 0.7575 S= 0.5037
 <L.S>= 0.000000000000E+00
 KE= 1.769532897922D+03 PE=-9.093277008723D+03 EE= 3.073117210979D+03
 Annihilation of the first spin contaminant:
 S**2 before annihilation     0.7575,   after     0.7500
 Leave Link  502 at Tue Jan 19 06:46:34 2021, MaxMem=  4026531840 cpu:           14501.3 elap:            1817.3
 (Enter /opt/ohpc/pub/libs/gaussian/g16-A.03/sandybridge/g16/l508.exe)
 Integral symmetry usage will be decided dynamically.
 Tight linear equation convergence will be used.
 ULC-wHPBE wavefunction.
 Quadratic Convergence SCF Method.
 Line search only if initial step raises energy.
 FoFJK:  IHMeth= 1 ICntrl=       0 DoSepK=T KAlg= 0 I1Cent=           0 FoldK=F
 IRaf=         1 NMat=       1 IRICut=       1 DoRegI=T DoRafI=F ISym2E= 1 IDoP0=0 IntGTp=1.
 FoFCou: FMM=F IPFlag=           0 FMFlag=      100000 FMFlg1=           0
         NFxFlg=           0 DoJE=T BraDBF=F KetDBF=F FulRan=T
         wScrn=  0.000000 ICntrl=       500 IOpCl=  0 I1Cent=           0 NGrid=           0
         NMat0=    1 NMatS0=      1 NMatT0=    0 NMatD0=    1 NMtDS0=    0 NMtDT0=    0
 Petite list used in FoFCou.
 Iteration   1 EE= -1775.94225989696                                    Grad=1.258D-02 Max rot=    0.3117 deg.
 Gradient too large for Newton-Raphson -- use scaled steepest descent instead.
     ILin= 1 X=0.000D+00 Y=-1.775942259897D+03 DE= 0.00D+00 F= -3.17D-04
     ILin= 2 X=3.000D-01 Y=-1.775942347270D+03 DE=-8.74D-05 F= -2.65D-04
     ILin= 3 X=6.000D-01 Y=-1.775942419111D+03 DE=-1.59D-04 F= -2.14D-04
     ILin= 4 X=1.200D+00 Y=-1.775942516396D+03 DE=-2.56D-04 F= -1.11D-04
     ILin= 5 X=2.400D+00 Y=-1.775942526717D+03 DE=-2.67D-04 F=  9.31D-05
     Accept linear search using points  4 and  5.
     An  expanding polynomial of degree  5 produced  1.8650
 Iteration   2 EE= -1775.94255233041     Delta-E=       -0.000292433453 Grad=1.728D-02 Max rot=    0.4747 deg.
 Gradient too large for Newton-Raphson -- use scaled steepest descent instead.
     ILin= 1 X=0.000D+00 Y=-1.775942552330D+03 DE= 0.00D+00 F= -5.41D-04
     ILin= 2 X=7.000D-01 Y=-1.775942803078D+03 DE=-2.51D-04 F= -1.75D-04
     ILin= 3 X=1.500D+00 Y=-1.775942775246D+03 DE=-2.23D-04 F=  2.46D-04
     An  expanding polynomial of degree  3 produced  1.0336
 Iteration   3 EE= -1775.94283240419     Delta-E=       -0.000280073785 Grad=1.329D-02 Max rot=    0.3514 deg.
 Gradient too large for Newton-Raphson -- use scaled steepest descent instead.
     ILin= 1 X=0.000D+00 Y=-1.775942832404D+03 DE= 0.00D+00 F= -3.23D-04
     ILin= 2 X=1.400D+00 Y=-1.775943092883D+03 DE=-2.60D-04 F= -4.97D-05
     Reject lnstep minimum 1.473D+00 FVal=-1.775943094205D+03 Lims=  0.00D+00  1.40D+00
     ILin= 3 X=2.800D+00 Y=-1.775942972822D+03 DE=-1.40D-04 F=  2.21D-04
     An  expanding polynomial of degree  3 produced  1.6583
 Iteration   4 EE= -1775.94309924393     Delta-E=       -0.000266839736 Grad=1.812D-02 Max rot=    0.4720 deg.
 Gradient too large for Newton-Raphson -- use scaled steepest descent instead.
     ILin= 1 X=0.000D+00 Y=-1.775943099244D+03 DE= 0.00D+00 F= -5.48D-04
     ILin= 2 X=1.300D+00 Y=-1.775943345313D+03 DE=-2.46D-04 F=  1.71D-04
     Accept linear search using points  1 and  2.
     An  expanding polynomial of degree  2 produced  1.0825
 Iteration   5 EE= -1775.94336934877     Delta-E=       -0.000270104843 Grad=1.563D-02 Max rot=    0.3563 deg.
 Gradient too large for Newton-Raphson -- use scaled steepest descent instead.
     ILin= 1 X=0.000D+00 Y=-1.775943369349D+03 DE= 0.00D+00 F= -4.05D-04
     ILin= 2 X=1.300D+00 Y=-1.775943627808D+03 DE=-2.58D-04 F=  7.44D-06
     Accept linear search using points  1 and  2.
     An  expanding polynomial of degree  2 produced  1.2882
     Minimum is close to point  2 DX= -1.18D-02 DF= -3.37D-08 DXR=  9.16D-03 DFR=  1.30D-04 which will be used.
 Iteration   6 EE= -1775.94362780810     Delta-E=       -0.000258459329 Grad=1.614D-02 Max rot=    0.4677 deg.
 Gradient too large for Newton-Raphson -- use scaled steepest descent instead.
     ILin= 1 X=0.000D+00 Y=-1.775943627808D+03 DE= 0.00D+00 F= -4.64D-04
     ILin= 2 X=1.200D+00 Y=-1.775943891189D+03 DE=-2.63D-04 F=  2.54D-05
     Accept linear search using points  1 and  2.
     An  expanding polynomial of degree  2 produced  1.1604
     Minimum is close to point  2 DX= -3.96D-02 DF= -4.17D-07 DXR=  3.42D-02 DFR=  1.58D-03 which will be used.
 Iteration   7 EE= -1775.94389118929     Delta-E=       -0.000263381191 Grad=1.683D-02 Max rot=    0.3619 deg.
 Gradient too large for Newton-Raphson -- use scaled steepest descent instead.
     ILin= 1 X=0.000D+00 Y=-1.775943891189D+03 DE= 0.00D+00 F= -4.52D-04
     ILin= 2 X=1.200D+00 Y=-1.775944157848D+03 DE=-2.67D-04 F=  7.30D-06
     Accept linear search using points  1 and  2.
     An  expanding polynomial of degree  2 produced  1.1883
     Minimum is close to point  2 DX= -1.17D-02 DF= -3.56D-08 DXR=  9.86D-03 DFR=  1.34D-04 which will be used.
 Iteration   8 EE= -1775.94415784842     Delta-E=       -0.000266659124 Grad=1.561D-02 Max rot=    0.4718 deg.
 Gradient too large for Newton-Raphson -- use scaled steepest descent instead.
     ILin= 1 X=0.000D+00 Y=-1.775944157848D+03 DE= 0.00D+00 F= -4.45D-04
     ILin= 2 X=1.200D+00 Y=-1.775944428339D+03 DE=-2.70D-04 F= -5.33D-06
     Reject lnstep minimum 1.209D+00 FVal=-1.775944428358D+03 Lims=  0.00D+00  1.20D+00
     ILin= 3 X=2.300D+00 Y=-1.775944211144D+03 DE=-5.33D-05 F=  4.01D-04
     An  expanding polynomial of degree  3 produced  1.2130
     Minimum is close to point  2 DX=  1.30D-02 DF= -3.12D-08 DXR=  1.07D-02 DFR=  1.15D-04 which will be used.
 Iteration   9 EE= -1775.94442833863     Delta-E=       -0.000270490211 Grad=1.641D-02 Max rot=    0.3710 deg.
 Gradient too large for Newton-Raphson -- use scaled steepest descent instead.
     ILin= 1 X=0.000D+00 Y=-1.775944428339D+03 DE= 0.00D+00 F= -4.38D-04
     ILin= 2 X=1.200D+00 Y=-1.775944701980D+03 DE=-2.74D-04 F= -1.84D-05
     Reject lnstep minimum 1.230D+00 FVal=-1.775944702212D+03 Lims=  0.00D+00  1.20D+00
     ILin= 3 X=2.400D+00 Y=-1.775944473063D+03 DE=-4.47D-05 F=  4.00D-04
     An  expanding polynomial of degree  3 produced  1.2534
     Minimum is close to point  2 DX=  5.34D-02 DF= -4.98D-07 DXR=  4.26D-02 DFR=  1.82D-03 which will be used.
 Iteration  10 EE= -1775.94470198014     Delta-E=       -0.000273641514 Grad=1.524D-02 Max rot=    0.4761 deg.
 Gradient too large for Newton-Raphson -- use scaled steepest descent instead.
     ILin= 1 X=0.000D+00 Y=-1.775944701980D+03 DE= 0.00D+00 F= -4.33D-04
     ILin= 2 X=1.200D+00 Y=-1.775944978912D+03 DE=-2.77D-04 F= -2.76D-05
     Reject lnstep minimum 1.245D+00 FVal=-1.775944979437D+03 Lims=  0.00D+00  1.20D+00
     ILin= 3 X=2.500D+00 Y=-1.775944727268D+03 DE=-2.53D-05 F=  4.15D-04
     An  expanding polynomial of degree  3 produced  1.2798
     Minimum is close to point  2 DX=  7.98D-02 DF= -1.08D-06 DXR=  6.24D-02 DFR=  3.90D-03 which will be used.
 Iteration  11 EE= -1775.94497891214     Delta-E=       -0.000276931996 Grad=1.610D-02 Max rot=    0.3769 deg.
 Gradient too large for Newton-Raphson -- use scaled steepest descent instead.
     ILin= 1 X=0.000D+00 Y=-1.775944978912D+03 DE= 0.00D+00 F= -4.28D-04
     ILin= 2 X=1.300D+00 Y=-1.775945260503D+03 DE=-2.82D-04 F= -5.23D-06
     Reject lnstep minimum 1.308D+00 FVal=-1.775945260519D+03 Lims=  0.00D+00  1.30D+00
     ILin= 3 X=2.500D+00 Y=-1.775945033119D+03 DE=-5.42D-05 F=  3.84D-04
     An  expanding polynomial of degree  3 produced  1.3167
     Minimum is close to point  2 DX=  1.67D-02 DF= -4.55D-08 DXR=  1.27D-02 DFR=  1.62D-04 which will be used.
 Iteration  12 EE= -1775.94526050306     Delta-E=       -0.000281590919 Grad=1.676D-02 Max rot=    0.4882 deg.
 Gradient too large for Newton-Raphson -- use scaled steepest descent instead.
     ILin= 1 X=0.000D+00 Y=-1.775945260503D+03 DE= 0.00D+00 F= -4.95D-04
     ILin= 2 X=1.300D+00 Y=-1.775945538622D+03 DE=-2.78D-04 F=  6.74D-05
     Accept linear search using points  1 and  2.
     An  expanding polynomial of degree  2 produced  1.2087
     Minimum is close to point  2 DX= -9.13D-02 DF= -2.34D-06 DXR=  7.56D-02 DFR=  8.40D-03 which will be used.
 Iteration  13 EE= -1775.94553862227     Delta-E=       -0.000278119218 Grad=1.988D-02 Max rot=    0.3621 deg.
 Gradient too large for Newton-Raphson -- use scaled steepest descent instead.
     ILin= 1 X=0.000D+00 Y=-1.775945538622D+03 DE= 0.00D+00 F= -5.80D-04
     ILin= 2 X=1.300D+00 Y=-1.775945810600D+03 DE=-2.72D-04 F=  1.62D-04
     Accept linear search using points  1 and  2.
     An  expanding polynomial of degree  2 produced  1.1054
 Iteration  14 EE= -1775.94583129365     Delta-E=       -0.000292671377 Grad=1.620D-02 Max rot=    0.4894 deg.
 Gradient too large for Newton-Raphson -- use scaled steepest descent instead.
     ILin= 1 X=0.000D+00 Y=-1.775945831294D+03 DE= 0.00D+00 F= -4.74D-04
     ILin= 2 X=1.200D+00 Y=-1.775946116896D+03 DE=-2.86D-04 F= -1.42D-06
     Reject lnstep minimum 1.202D+00 FVal=-1.775946116897D+03 Lims=  0.00D+00  1.20D+00
     ILin= 3 X=2.300D+00 Y=-1.775945879108D+03 DE=-4.78D-05 F=  4.34D-04
     An  expanding polynomial of degree  3 produced  1.2026
     Minimum is close to point  2 DX=  2.64D-03 DF= -1.38D-09 DXR=  2.19D-03 DFR=  4.82D-06 which will be used.
 Iteration  15 EE= -1775.94611689595     Delta-E=       -0.000285602298 Grad=1.716D-02 Max rot=    0.3748 deg.
 Gradient too large for Newton-Raphson -- use scaled steepest descent instead.
     ILin= 1 X=0.000D+00 Y=-1.775946116896D+03 DE= 0.00D+00 F= -4.68D-04
     ILin= 2 X=1.200D+00 Y=-1.775946403197D+03 DE=-2.86D-04 F= -9.01D-06
[...]
     4   Atom       -0.000940     -0.000169      0.001109
     5   Atom        0.027621     -0.012817     -0.014805
     6   Atom       -0.072869      0.028634      0.044235
     7   Atom        0.000852     -0.001096      0.000244
     8   Atom        0.001152     -0.000824     -0.000328
     9   Atom        0.000634     -0.000380     -0.000254
    10   Atom       -0.049072      0.066178     -0.017106
    11   Atom        0.022398     -0.009571     -0.012827
    12   Atom       -0.059800      0.070266     -0.010466
    13   Atom        0.012094     -0.023339      0.011245
    14   Atom       -0.002825      0.002065      0.000761
    15   Atom        0.001609     -0.001464     -0.000145
    16   Atom       -0.003692      0.001083      0.002608
    17   Atom       -0.002060      0.001254      0.000806
    18   Atom        0.001171     -0.000484     -0.000687
    19   Atom        0.001673     -0.001094     -0.000579
    20   Atom        0.000323     -0.000122     -0.000201
    21   Atom        0.000431     -0.000249     -0.000182
    22   Atom        0.000118     -0.000162      0.000043
    23   Atom       -0.007599     -0.009347      0.016947
    24   Atom       -0.459996     -0.464244      0.924240
    25   Atom       -0.012644     -0.000413      0.013057
    26   Atom        0.062077     -0.038326     -0.023752
    27   Atom        0.022141     -0.002315     -0.019826
    28   Atom       -0.002841      0.013666     -0.010825
    29   Atom       -0.009064      0.017416     -0.008352
    30   Atom        0.016600     -0.048149      0.031549
    31   Atom       -0.001314      0.001274      0.000041
    32   Atom       -0.000929     -0.000664      0.001593
    33   Atom       -0.000686      0.001201     -0.000515
    34   Atom       -0.000332      0.000600     -0.000269
    35   Atom        0.000881      0.002721     -0.003602
    36   Atom       -0.014172      0.007084      0.007088
    37   Atom        0.031922     -0.051068      0.019146
    38   Atom        0.005026     -0.027397      0.022371
    39   Atom        0.008390      0.018546     -0.026935
    40   Atom        0.005424      0.020937     -0.026360
    41   Atom       -0.030115     -0.056295      0.086410
    42   Atom        0.002285      0.000016     -0.002301
    43   Atom        0.003311     -0.001740     -0.001571
    44   Atom       -0.000292      0.001654     -0.001362
    45   Atom        0.000141      0.001193     -0.001334
    46   Atom       -0.003533      0.005898     -0.002365
 --------------------------------------------------------
                        XY            XZ            YZ
 --------------------------------------------------------
     1   Atom       -0.002155      0.003218      0.000119
     2   Atom       -0.014321     -0.005402      0.009039
     3   Atom        0.036799     -0.009188     -0.031589
     4   Atom        0.001936     -0.002637     -0.003806
     5   Atom        0.009256      0.008038     -0.036108
     6   Atom       -0.031019     -0.032901      0.125718
     7   Atom       -0.000293     -0.000448      0.001175
     8   Atom       -0.000182     -0.001054      0.001920
     9   Atom       -0.000048     -0.000023     -0.000006
    10   Atom       -0.053579     -0.029322      0.080879
    11   Atom        0.013514      0.015760     -0.033561
    12   Atom       -0.013082     -0.011658      0.081019
    13   Atom        0.005662      0.001809     -0.004710
    14   Atom        0.002154     -0.003239     -0.006177
    15   Atom       -0.000153      0.001371     -0.001927
    16   Atom       -0.000929      0.002390     -0.005755
    17   Atom       -0.000094     -0.000626     -0.003347
    18   Atom       -0.001118     -0.001707      0.002133
    19   Atom        0.001530     -0.000044     -0.001798
    20   Atom       -0.000285     -0.000448      0.000420
    21   Atom       -0.000086     -0.000183      0.000153
    22   Atom       -0.000331     -0.000473      0.000203
    23   Atom       -0.001959      0.004314     -0.005510
    24   Atom       -0.052823     -0.281516      0.269263
    25   Atom       -0.016893      0.003019      0.003615
    26   Atom        0.040951     -0.049996     -0.021074
    27   Atom        0.058543     -0.051639     -0.036863
    28   Atom       -0.013256      0.025129      0.011457
    29   Atom       -0.010973      0.027341      0.007481
    30   Atom        0.027557     -0.085168     -0.034738
    31   Atom        0.001898      0.002997      0.004581
    32   Atom        0.001949      0.004453      0.002866
    33   Atom       -0.001242      0.001207      0.000533
    34   Atom       -0.001326      0.001604      0.000136
    35   Atom       -0.006399     -0.000813     -0.004744
    36   Atom        0.010333     -0.013822      0.005019
    37   Atom       -0.010703      0.072551     -0.013544
    38   Atom       -0.037081      0.067045     -0.037695
    39   Atom        0.006250     -0.020267      0.008523
    40   Atom        0.003728     -0.023555      0.003133
    41   Atom       -0.006088      0.069402     -0.018904
    42   Atom       -0.003243     -0.003358      0.002837
    43   Atom       -0.002043     -0.004463      0.001029
    44   Atom        0.000558     -0.001209      0.000510
    45   Atom        0.001037     -0.001395      0.000129
    46   Atom        0.006202      0.002233     -0.002152
 --------------------------------------------------------


 ---------------------------------------------------------------------------------
              Anisotropic Spin Dipole Couplings in Principal Axis System
 ---------------------------------------------------------------------------------

       Atom             a.u.   MegaHertz   Gauss  10(-4) cm-1        Axes

              Baa    -0.0041    -0.544    -0.194    -0.181  0.4243  0.8300 -0.3620
     1 C(13)  Bbb    -0.0013    -0.176    -0.063    -0.059 -0.3373  0.5159  0.7875
              Bcc     0.0054     0.720     0.257     0.240  0.8404 -0.2120  0.4988
 
              Baa    -0.0136    -1.824    -0.651    -0.608 -0.0460 -0.3926  0.9185
     2 C(13)  Bbb    -0.0096    -1.294    -0.462    -0.432  0.8252  0.5032  0.2564
              Bcc     0.0232     3.118     1.113     1.040 -0.5629  0.7698  0.3009
 
              Baa    -0.0658    -2.697    -0.962    -0.900  0.9745 -0.2105  0.0771
     3 S(33)  Bbb    -0.0432    -1.771    -0.632    -0.591 -0.0266  0.2327  0.9722
              Bcc     0.1090     4.468     1.594     1.490  0.2226  0.9495 -0.2211
 
              Baa    -0.0034    -0.461    -0.164    -0.154  0.1964  0.6925  0.6941
     4 C(13)  Bbb    -0.0025    -0.329    -0.118    -0.110  0.8805 -0.4361  0.1859
              Bcc     0.0059     0.790     0.282     0.264 -0.4314 -0.5747  0.6954
 
              Baa    -0.0518    -6.953    -2.481    -2.319 -0.1520  0.6907  0.7070
     5 C(13)  Bbb     0.0222     2.975     1.062     0.992  0.1356 -0.6939  0.7072
              Bcc     0.0296     3.978     1.419     1.327  0.9790  0.2034  0.0118
 
              Baa    -0.0895   -12.013    -4.287    -4.007  0.0082  0.7297 -0.6838
     6 C(13)  Bbb    -0.0813   -10.904    -3.891    -3.637  0.9832  0.1189  0.1387
              Bcc     0.1708    22.918     8.178     7.645 -0.1825  0.6734  0.7164
 
              Baa    -0.0018    -0.239    -0.085    -0.080  0.0111  0.8657 -0.5004
     7 C(13)  Bbb     0.0004     0.047     0.017     0.016  0.7308  0.3345  0.5950
              Bcc     0.0014     0.191     0.068     0.064  0.6825 -0.3723 -0.6290
 
              Baa    -0.0026    -0.349    -0.125    -0.116 -0.1559  0.7177 -0.6787
     8 C(13)  Bbb     0.0004     0.053     0.019     0.018  0.7192  0.5534  0.4200
              Bcc     0.0022     0.296     0.106     0.099  0.6771 -0.4226 -0.6025
 
              Baa    -0.0004    -0.204    -0.073    -0.068  0.0484  0.9972  0.0578
     9 H(1)   Bbb    -0.0003    -0.136    -0.048    -0.045  0.0222 -0.0590  0.9980
              Bcc     0.0006     0.340     0.121     0.113  0.9986 -0.0470 -0.0250
 
              Baa    -0.0709    -9.512    -3.394    -3.173  0.8108  0.4982 -0.3073
    10 C(13)  Bbb    -0.0648    -8.692    -3.102    -2.899  0.4942 -0.3014  0.8154
              Bcc     0.1357    18.204     6.496     6.072 -0.3137  0.8130  0.4906
 
              Baa    -0.0507    -6.801    -2.427    -2.269 -0.2730  0.6606  0.6993
    11 C(13)  Bbb     0.0222     2.982     1.064     0.995  0.1625  0.7482 -0.6433
              Bcc     0.0285     3.819     1.363     1.274  0.9482  0.0620  0.3116
 
              Baa    -0.0641    -8.597    -3.068    -2.868  0.7500 -0.2865  0.5962
    12 C(13)  Bbb    -0.0580    -7.781    -2.777    -2.596  0.6547  0.4503 -0.6071
              Bcc     0.1221    16.379     5.844     5.463 -0.0945  0.8456  0.5253
 
              Baa    -0.0249    -3.341    -1.192    -1.114 -0.1564  0.9784  0.1353
    13 C(13)  Bbb     0.0113     1.512     0.540     0.504 -0.5004 -0.1966  0.8432
              Bcc     0.0136     1.828     0.652     0.610  0.8516  0.0641  0.5203
 
              Baa    -0.0054    -2.892    -1.032    -0.965  0.5339  0.4415  0.7211
    14 H(1)   Bbb    -0.0034    -1.829    -0.653    -0.610  0.7871 -0.5710 -0.2333
              Bcc     0.0088     4.720     1.684     1.575  0.3088  0.6922 -0.6524
 
              Baa    -0.0029    -1.573    -0.561    -0.525 -0.1575  0.7762  0.6105
    15 H(1)   Bbb     0.0003     0.139     0.050     0.046  0.6221  0.5581 -0.5491
              Bcc     0.0027     1.434     0.512     0.478  0.7669 -0.2933  0.5708
 
              Baa    -0.0049    -2.634    -0.940    -0.879  0.7374 -0.4037 -0.5415
    16 H(1)   Bbb    -0.0032    -1.711    -0.611    -0.571  0.6450  0.6589  0.3871
              Bcc     0.0081     4.345     1.551     1.449  0.2005 -0.6347  0.7463
 
              Baa    -0.0027    -0.367    -0.131    -0.122  0.6200  0.5127  0.5939
    17 C(13)  Bbb    -0.0017    -0.224    -0.080    -0.075  0.7826 -0.4579 -0.4217
              Bcc     0.0044     0.591     0.211     0.197  0.0557  0.7263 -0.6852
 
              Baa    -0.0028    -1.489    -0.531    -0.497  0.1498 -0.6311  0.7611
    18 H(1)   Bbb    -0.0006    -0.310    -0.111    -0.103  0.7223  0.5955  0.3516
              Bcc     0.0034     1.799     0.642     0.600  0.6751 -0.4971 -0.5450
 
              Baa    -0.0029    -1.572    -0.561    -0.524 -0.2506  0.7731  0.5827
    19 H(1)   Bbb     0.0004     0.193     0.069     0.064  0.5036 -0.4099  0.7605
              Bcc     0.0026     1.379     0.492     0.460  0.8268  0.4840 -0.2866
 
              Baa    -0.0006    -0.328    -0.117    -0.109  0.2127 -0.5603  0.8005
    20 H(1)   Bbb    -0.0002    -0.106    -0.038    -0.035  0.6484  0.6938  0.3133
              Bcc     0.0008     0.433     0.155     0.145  0.7310 -0.4524 -0.5109
 
              Baa    -0.0004    -0.200    -0.071    -0.067 -0.0701  0.7493 -0.6585
    21 H(1)   Bbb    -0.0001    -0.068    -0.024    -0.023  0.3269  0.6410  0.6945
              Bcc     0.0005     0.268     0.096     0.089  0.9425 -0.1666 -0.2899
 
              Baa    -0.0004    -0.234    -0.083    -0.078  0.7150  0.4930  0.4957
    22 H(1)   Bbb    -0.0003    -0.151    -0.054    -0.050 -0.0997  0.7737 -0.6256
              Bcc     0.0007     0.385     0.137     0.128  0.6920 -0.3979 -0.6024
 
              Baa    -0.0109    -0.447    -0.159    -0.149  0.3842  0.9152  0.1216
    23 S(33)  Bbb    -0.0080    -0.326    -0.116    -0.109  0.9071 -0.3496 -0.2345
              Bcc     0.0189     0.773     0.276     0.258  0.1721 -0.2004  0.9645
 
              Baa    -0.5151   -19.867    -7.089    -6.627  0.9437  0.3052  0.1275
    24 N(14)  Bbb    -0.5146   -19.847    -7.082    -6.620 -0.2715  0.9350 -0.2281
              Bcc     1.0297    39.713    14.171    13.247 -0.1888  0.1806  0.9653
 
              Baa    -0.0250    -3.360    -1.199    -1.121  0.8106  0.5735 -0.1186
    25 C(13)  Bbb     0.0109     1.461     0.521     0.487 -0.5666  0.7167 -0.4065
              Bcc     0.0141     1.898     0.677     0.633 -0.1481  0.3967  0.9059
 
              Baa    -0.0541    -7.261    -2.591    -2.422 -0.1694  0.9181  0.3584
    26 C(13)  Bbb    -0.0462    -6.202    -2.213    -2.069  0.4804 -0.2407  0.8434
              Bcc     0.1003    13.462     4.804     4.491  0.8606  0.3150 -0.4003
 
              Baa    -0.0550    -7.384    -2.635    -2.463  0.6469 -0.2048  0.7346
    27 C(13)  Bbb    -0.0475    -6.373    -2.274    -2.126 -0.3103  0.8092  0.4989
              Bcc     0.1025    13.757     4.909     4.589  0.6966  0.5507 -0.4599
 
              Baa    -0.0381    -5.111    -1.824    -1.705 -0.6268 -0.3180  0.7114
    28 C(13)  Bbb     0.0165     2.214     0.790     0.739  0.4401  0.6089  0.6600
              Bcc     0.0216     2.897     1.034     0.966 -0.6430  0.7267 -0.2417
 
              Baa    -0.0391    -5.244    -1.871    -1.749  0.6999  0.2257 -0.6777
    29 C(13)  Bbb     0.0170     2.288     0.816     0.763  0.4833  0.5490  0.6819
              Bcc     0.0220     2.956     1.055     0.986 -0.5259  0.8048 -0.2751
 
              Baa    -0.0637    -8.551    -3.051    -2.852  0.4872  0.5847  0.6487
    30 C(13)  Bbb    -0.0574    -7.703    -2.749    -2.569 -0.5829  0.7708 -0.2571
              Bcc     0.1211    16.254     5.800     5.422 -0.6503 -0.2529  0.7163
 
              Baa    -0.0045    -2.389    -0.853    -0.797 -0.4480 -0.4619  0.7655
    31 H(1)   Bbb    -0.0023    -1.204    -0.430    -0.402  0.8031 -0.5842  0.1174
              Bcc     0.0067     3.593     1.282     1.199  0.3929  0.6674  0.6326
 
              Baa    -0.0043    -2.299    -0.820    -0.767  0.7787  0.0735 -0.6231
    32 H(1)   Bbb    -0.0023    -1.227    -0.438    -0.409 -0.3211  0.8999 -0.2951
              Bcc     0.0066     3.526     1.258     1.176  0.5391  0.4299  0.7243
 
              Baa    -0.0023    -1.219    -0.435    -0.407  0.7221  0.3486 -0.5975
    33 H(1)   Bbb     0.0005     0.248     0.089     0.083  0.5197  0.2967  0.8012
              Bcc     0.0018     0.971     0.346     0.324 -0.4566  0.8890 -0.0331
 
              Baa    -0.0023    -1.230    -0.439    -0.410  0.7219  0.3573 -0.5926
    34 H(1)   Bbb     0.0004     0.189     0.067     0.063  0.2012  0.7110  0.6738
              Bcc     0.0020     1.041     0.371     0.347  0.6621 -0.6057  0.4414
 
              Baa    -0.0081    -4.346    -1.551    -1.450  0.4648  0.5696  0.6779
    35 H(1)   Bbb    -0.0009    -0.491    -0.175    -0.164 -0.6688 -0.2759  0.6904
              Bcc     0.0091     4.837     1.726     1.613 -0.5802  0.7742 -0.2527
 
              Baa    -0.0251    -3.366    -1.201    -1.123  0.8451 -0.3363  0.4156
    36 C(13)  Bbb     0.0112     1.501     0.536     0.501  0.2921  0.9415  0.1681
              Bcc     0.0139     1.865     0.665     0.622 -0.4478 -0.0207  0.8939
 
              Baa    -0.0541    -7.259    -2.590    -2.421 -0.1768  0.9216  0.3456
    37 C(13)  Bbb    -0.0462    -6.198    -2.212    -2.068  0.6586  0.3717 -0.6543
              Bcc     0.1003    13.457     4.802     4.489  0.7314 -0.1119  0.6727
 
              Baa    -0.0551    -7.396    -2.639    -2.467  0.7837  0.3731 -0.4966
    38 C(13)  Bbb    -0.0476    -6.390    -2.280    -2.131 -0.0712  0.8481  0.5250
              Bcc     0.1027    13.785     4.919     4.598  0.6171 -0.3761  0.6912
 
              Baa    -0.0381    -5.106    -1.822    -1.703  0.4137 -0.1801  0.8924
    39 C(13)  Bbb     0.0165     2.211     0.789     0.737  0.7645 -0.4636 -0.4479
              Bcc     0.0216     2.895     1.033     0.966  0.4944  0.8675 -0.0541
 
              Baa    -0.0392    -5.263    -1.878    -1.756  0.4702 -0.0749  0.8794
    40 C(13)  Bbb     0.0171     2.301     0.821     0.768  0.7930 -0.4014 -0.4582
              Bcc     0.0221     2.962     1.057     0.988  0.3873  0.9128 -0.1293
 
              Baa    -0.0636    -8.540    -3.047    -2.848  0.7987 -0.4276 -0.4233
    41 C(13)  Bbb    -0.0573    -7.691    -2.744    -2.566  0.4322  0.8972 -0.0907
              Bcc     0.1210    16.231     5.792     5.414  0.4186 -0.1105  0.9014
 
              Baa    -0.0045    -2.390    -0.853    -0.797  0.2637 -0.3716  0.8902
    42 H(1)   Bbb    -0.0022    -1.194    -0.426    -0.398  0.6388  0.7588  0.1275
              Bcc     0.0067     3.584     1.279     1.195  0.7228 -0.5350 -0.4374
 
              Baa    -0.0042    -2.257    -0.805    -0.753  0.5236  0.0792  0.8483
    43 H(1)   Bbb    -0.0024    -1.256    -0.448    -0.419  0.1857  0.9611 -0.2043
              Bcc     0.0066     3.512     1.253     1.172  0.8315 -0.2645 -0.4885
 
              Baa    -0.0023    -1.219    -0.435    -0.407  0.5467 -0.1832  0.8171
    44 H(1)   Bbb     0.0005     0.250     0.089     0.083  0.8093 -0.1347 -0.5717
              Bcc     0.0018     0.969     0.346     0.323  0.2148  0.9738  0.0746
 
              Baa    -0.0023    -1.228    -0.438    -0.410  0.5471 -0.1926  0.8146
    45 H(1)   Bbb     0.0003     0.175     0.062     0.058 -0.5796  0.6149  0.5347
              Bcc     0.0020     1.053     0.376     0.351  0.6039  0.7647 -0.2248
 
              Baa    -0.0081    -4.341    -1.549    -1.448  0.7845 -0.4171 -0.4590
    46 H(1)   Bbb    -0.0009    -0.490    -0.175    -0.163  0.4487 -0.1291  0.8843
              Bcc     0.0091     4.831     1.724     1.611  0.4281  0.8997 -0.0858
 

 ---------------------------------------------------------------------------------

 No NMR shielding tensors so no spin-rotation constants.
 Leave Link  601 at Tue Jan 19 08:45:11 2021, MaxMem=  4026531840 cpu:               9.3 elap:               1.6
 (Enter /opt/ohpc/pub/libs/gaussian/g16-A.03/sandybridge/g16/l9999.exe)

 Test job not archived.
 1\1\GINC-CASCADEB058\SP\ULC-wHPBE\TZVP\C24H19N1S2(1+,2)\RDU230\19-Jan-
 2021\0\\#P LC-wHPBE/TZVP iop(3/107=0179500000, 3/108=0179500000) scf=(
 conver=6,fermi,ndamp=35,noincfock,novaracc,vshift=500,xqc)\\H19 C24 S2
  N1\\1,2\C,0,-3.352046,1.022081,0.90149\C,0,-4.015603,0.124147,0.07783
 3\S,0,-3.193622,-0.833868,-1.176213\C,0,-5.398593,-0.028228,0.207342\C
 ,0,-0.749106,0.373785,-1.531691\C,0,-1.475477,-0.56699,-0.815552\C,0,-
 4.041516,1.761821,1.844012\C,0,-6.080951,0.720801,1.156415\H,0,-7.4759
 44,-0.835079,-0.458792\C,0,0.601771,0.54717,-1.299188\C,0,-0.823428,-1
 .336346,0.139234\C,0,0.521569,-1.15492,0.389409\C,0,1.255724,-0.212476
 ,-0.331046\H,0,1.160253,1.275483,-1.876291\H,0,-1.383265,-2.076857,0.7
 00814\H,0,1.015474,-1.752114,1.147605\C,0,-5.411167,1.613701,1.970885\
 H,0,-2.279577,1.141824,0.800598\H,0,-1.248138,0.967582,-2.290346\H,0,-
 3.503227,2.458074,2.478369\H,0,-7.154267,0.598627,1.263844\H,0,-5.9624
 34,2.189124,2.706912\S,0,-6.238224,-1.192989,-0.835805\N,0,2.627173,-0
 .037586,-0.087724\C,0,3.438312,-1.140752,0.276409\C,0,4.374889,-1.0129
 28,1.295896\C,0,3.317625,-2.35655,-0.387733\C,0,5.1794,-2.084309,1.640
 01\C,0,4.112866,-3.428755,-0.025756\C,0,5.049979,-3.298472,0.986151\H,
 0,4.470709,-0.064848,1.814448\H,0,2.593785,-2.456724,-1.189607\H,0,5.9
 0745,-1.970366,2.436839\H,0,4.006805,-4.37257,-0.551042\H,0,5.67733,-4
 .139106,1.26285\C,0,3.224517,1.239724,-0.221989\C,0,4.446224,1.376745,
 -0.87125\C,0,2.604731,2.367846,0.304633\C,0,5.03746,2.622109,-0.986244
 \C,0,3.193018,3.612223,0.169883\C,0,4.413292,3.746533,-0.472133\H,0,4.
 931907,0.498005,-1.282066\H,0,1.656156,2.262505,0.820378\H,0,5.992055,
 2.71427,-1.494403\H,0,2.697309,4.484427,0.584059\H,0,4.876004,4.72281,
 -0.569917\\Version=EM64L-G16RevA.03\State=2-A\HF=-1775.9559505\S2=0.76
 753\S2-1=0.\S2A=0.750279\RMSD=3.133e-08\Dipole=4.1077277,0.4662544,0.5
 192134\Quadrupole=37.3425813,-7.4633877,-29.8791936,-4.1390897,-3.7930
 346,-1.1585231\PG=C01 [X(C24H19N1S2)]\\@


 NO MATTER HOW THIN YOU SLICE IT, IT'S STILL BALONEY

                                   -- ALFRED E. SMITH
 Job cpu time:       0 days 19 hours 47 minutes 55.7 seconds.
 Elapsed time:       0 days  2 hours 29 minutes  2.9 seconds.
 File lengths (MBytes):  RWF=    244 Int=      0 D2E=      0 Chk=     36 Scr=      8
 Normal termination of Gaussian 16 at Tue Jan 19 08:45:11 2021.
