 Entering Gaussian System, Link 0=g16
 Input=mol_ta_pa_half_tune_c12.gjf
 Output=mol_ta_pa_half_tune_c12.log
 Initial command:
 /opt/ohpc/pub/libs/gaussian/g16-A.03/sandybridge/g16/l1.exe "/mnt/gpfs2_4m/scratch/rdu230/ondemand/projects/init_structures/wtuning/mol_ta_pa_half/tuning_mol_ta_pa_half_ocycle0/Gau-98425.inp" -scrdir="/mnt/gpfs2_4m/scratch/rdu230/ondemand/projects/init_structures/wtuning/mol_ta_pa_half/tuning_mol_ta_pa_half_ocycle0/"
 Entering Link 1 = /opt/ohpc/pub/libs/gaussian/g16-A.03/sandybridge/g16/l1.exe PID=     98426.
  
 Copyright (c) 1988,1990,1992,1993,1995,1998,2003,2009,2016,
            Gaussian, Inc.  All Rights Reserved.
  
 This is part of the Gaussian(R) 16 program.  It is based on
 the Gaussian(R) 09 system (copyright 2009, Gaussian, Inc.),
 the Gaussian(R) 03 system (copyright 2003, Gaussian, Inc.),
 the Gaussian(R) 98 system (copyright 1998, Gaussian, Inc.),
 the Gaussian(R) 94 system (copyright 1995, Gaussian, Inc.),
 the Gaussian 92(TM) system (copyright 1992, Gaussian, Inc.),
 the Gaussian 90(TM) system (copyright 1990, Gaussian, Inc.),
 the Gaussian 88(TM) system (copyright 1988, Gaussian, Inc.),
 the Gaussian 86(TM) system (copyright 1986, Carnegie Mellon
 University), and the Gaussian 82(TM) system (copyright 1983,
 Carnegie Mellon University). Gaussian is a federally registered
 trademark of Gaussian, Inc.
  
 This software contains proprietary and confidential information,
 including trade secrets, belonging to Gaussian, Inc.
  
 This software is provided under written license and may be
 used, copied, transmitted, or stored only in accord with that
 written license.
  
 The following legend is applicable only to US Government
 contracts under FAR:
  
                    RESTRICTED RIGHTS LEGEND
  
 Use, reproduction and disclosure by the US Government is
 subject to restrictions as set forth in subparagraphs (a)
 and (c) of the Commercial Computer Software - Restricted
 Rights clause in FAR 52.227-19.
  
 Gaussian, Inc.
 340 Quinnipiac St., Bldg. 40, Wallingford CT 06492
  
  
 ---------------------------------------------------------------
 Warning -- This program may not be used in any manner that
 competes with the business of Gaussian, Inc. or will provide
 assistance to any competitor of Gaussian, Inc.  The licensee
 of this program is prohibited from giving any competitor of
 Gaussian, Inc. access to this program.  By using this program,
 the user acknowledges that Gaussian, Inc. is engaged in the
 business of creating and licensing software in the field of
 computational chemistry and represents and warrants to the
 licensee that it is not a competitor of Gaussian, Inc. and that
 it will not use this program in any manner prohibited above.
 ---------------------------------------------------------------
  

 Cite this work as:
 Gaussian 16, Revision A.03,
 M. J. Frisch, G. W. Trucks, H. B. Schlegel, G. E. Scuseria, 
 M. A. Robb, J. R. Cheeseman, G. Scalmani, V. Barone, 
 G. A. Petersson, H. Nakatsuji, X. Li, M. Caricato, A. V. Marenich, 
 J. Bloino, B. G. Janesko, R. Gomperts, B. Mennucci, H. P. Hratchian, 
 J. V. Ortiz, A. F. Izmaylov, J. L. Sonnenberg, D. Williams-Young, 
 F. Ding, F. Lipparini, F. Egidi, J. Goings, B. Peng, A. Petrone, 
 T. Henderson, D. Ranasinghe, V. G. Zakrzewski, J. Gao, N. Rega, 
 G. Zheng, W. Liang, M. Hada, M. Ehara, K. Toyota, R. Fukuda, 
 J. Hasegawa, M. Ishida, T. Nakajima, Y. Honda, O. Kitao, H. Nakai, 
 T. Vreven, K. Throssell, J. A. Montgomery, Jr., J. E. Peralta, 
 F. Ogliaro, M. J. Bearpark, J. J. Heyd, E. N. Brothers, K. N. Kudin, 
 V. N. Staroverov, T. A. Keith, R. Kobayashi, J. Normand, 
 K. Raghavachari, A. P. Rendell, J. C. Burant, S. S. Iyengar, 
 J. Tomasi, M. Cossi, J. M. Millam, M. Klene, C. Adamo, R. Cammi, 
 J. W. Ochterski, R. L. Martin, K. Morokuma, O. Farkas, 
 J. B. Foresman, and D. J. Fox, Gaussian, Inc., Wallingford CT, 2016.
 
 ******************************************
 Gaussian 16:  EM64L-G16RevA.03 25-Dec-2016
                19-Jan-2021 
 ******************************************
 %mem=30GB
 %nproc=8
 Will use up to    8 processors via shared memory.
 ----------------------------------------------------------------------
 #P LC-wHPBE/TZVP iop(3/107=0180600000, 3/108=0180600000) scf=(conver=6
 ,fermi,ndamp=35,noincfock,novaracc,vshift=500,xqc)
 ----------------------------------------------------------------------
 1/38=1,172=1/1;
 2/12=2,17=6,18=5,40=1/2;
 3/5=19,7=101,11=2,25=1,30=1,74=-71,107=180600000,108=180600000/1,2,3;
 4//1;
 5/5=100002,6=6,8=3,10=500,13=1,18=-1,22=13,38=1,93=35/2,8;
 6/7=2,8=2,9=2,10=2,28=1/1;
 99/5=1,9=1/99;
 Leave Link    1 at Tue Jan 19 15:29:22 2021, MaxMem=  4026531840 cpu:               1.4 elap:               0.2
 (Enter /opt/ohpc/pub/libs/gaussian/g16-A.03/sandybridge/g16/l101.exe)
 -------------
 H19 C24 S2 N1
 -------------
 Symbolic Z-matrix:
 Charge =  1 Multiplicity = 2
 C                    -3.35205   1.02208   0.90149 
 C                    -4.0156    0.12415   0.07783 
 S                    -3.19362  -0.83387  -1.17621 
 C                    -5.39859  -0.02823   0.20734 
 C                    -0.74911   0.37379  -1.53169 
 C                    -1.47548  -0.56699  -0.81555 
 C                    -4.04152   1.76182   1.84401 
 C                    -6.08095   0.7208    1.15641 
 H                    -7.47594  -0.83508  -0.45879 
 C                     0.60177   0.54717  -1.29919 
 C                    -0.82343  -1.33635   0.13923 
 C                     0.52157  -1.15492   0.38941 
 C                     1.25572  -0.21248  -0.33105 
 H                     1.16025   1.27548  -1.87629 
 H                    -1.38327  -2.07686   0.70081 
 H                     1.01547  -1.75211   1.1476 
 C                    -5.41117   1.6137    1.97089 
 H                    -2.27958   1.14182   0.8006 
 H                    -1.24814   0.96758  -2.29035 
 H                    -3.50323   2.45807   2.47837 
 H                    -7.15427   0.59863   1.26384 
 H                    -5.96243   2.18912   2.70691 
 S                    -6.23822  -1.19299  -0.83581 
 N                     2.62717  -0.03759  -0.08772 
 C                     3.43831  -1.14075   0.27641 
 C                     4.37489  -1.01293   1.2959 
 C                     3.31763  -2.35655  -0.38773 
 C                     5.1794   -2.08431   1.64001 
 C                     4.11287  -3.42876  -0.02576 
 C                     5.04998  -3.29847   0.98615 
 H                     4.47071  -0.06485   1.81445 
 H                     2.59379  -2.45672  -1.18961 
 H                     5.90745  -1.97037   2.43684 
 H                     4.0068   -4.37257  -0.55104 
 H                     5.67733  -4.13911   1.26285 
 C                     3.22452   1.23972  -0.22199 
 C                     4.44622   1.37675  -0.87125 
 C                     2.60473   2.36785   0.30463 
 C                     5.03746   2.62211  -0.98624 
 C                     3.19302   3.61222   0.16988 
 C                     4.41329   3.74653  -0.47213 
 H                     4.93191   0.49801  -1.28207 
 H                     1.65616   2.2625    0.82038 
 H                     5.99206   2.71427  -1.4944 
 H                     2.69731   4.48443   0.58406 
 H                     4.876     4.72281  -0.56992 
 
 ITRead=  0  0  0  0  0  0  0  0  0  0  0  0  0  0  0  0  0  0  0  0
 ITRead=  0  0  0  0  0  0  0  0  0  0  0  0  0  0  0  0  0  0  0  0
 ITRead=  0  0  0  0  0  0
 MicOpt= -1 -1 -1 -1 -1 -1 -1 -1 -1 -1 -1 -1 -1 -1 -1 -1 -1 -1 -1 -1
 MicOpt= -1 -1 -1 -1 -1 -1 -1 -1 -1 -1 -1 -1 -1 -1 -1 -1 -1 -1 -1 -1
 MicOpt= -1 -1 -1 -1 -1 -1
 NAtoms=     46 NQM=       46 NQMF=       0 NMMI=      0 NMMIF=      0
                NMic=       0 NMicF=      0.
                    Isotopes and Nuclear Properties:
 (Nuclear quadrupole moments (NQMom) in fm**2, nuclear magnetic moments (NMagM)
  in nuclear magnetons)

  Atom         1           2           3           4           5           6           7           8           9          10
 IAtWgt=          12          12          32          12          12          12          12          12           1          12
 AtmWgt=  12.0000000  12.0000000  31.9720718  12.0000000  12.0000000  12.0000000  12.0000000  12.0000000   1.0078250  12.0000000
 NucSpn=           0           0           0           0           0           0           0           0           1           0
 AtZEff=  -0.0000000  -0.0000000  -0.0000000  -0.0000000  -0.0000000  -0.0000000  -0.0000000  -0.0000000  -0.0000000  -0.0000000
 NQMom=    0.0000000   0.0000000   0.0000000   0.0000000   0.0000000   0.0000000   0.0000000   0.0000000   0.0000000   0.0000000
 NMagM=    0.0000000   0.0000000   0.0000000   0.0000000   0.0000000   0.0000000   0.0000000   0.0000000   2.7928460   0.0000000
 AtZNuc=   6.0000000   6.0000000  16.0000000   6.0000000   6.0000000   6.0000000   6.0000000   6.0000000   1.0000000   6.0000000

  Atom        11          12          13          14          15          16          17          18          19          20
 IAtWgt=          12          12          12           1           1           1          12           1           1           1
 AtmWgt=  12.0000000  12.0000000  12.0000000   1.0078250   1.0078250   1.0078250  12.0000000   1.0078250   1.0078250   1.0078250
 NucSpn=           0           0           0           1           1           1           0           1           1           1
 AtZEff=  -0.0000000  -0.0000000  -0.0000000  -0.0000000  -0.0000000  -0.0000000  -0.0000000  -0.0000000  -0.0000000  -0.0000000
 NQMom=    0.0000000   0.0000000   0.0000000   0.0000000   0.0000000   0.0000000   0.0000000   0.0000000   0.0000000   0.0000000
 NMagM=    0.0000000   0.0000000   0.0000000   2.7928460   2.7928460   2.7928460   0.0000000   2.7928460   2.7928460   2.7928460
 AtZNuc=   6.0000000   6.0000000   6.0000000   1.0000000   1.0000000   1.0000000   6.0000000   1.0000000   1.0000000   1.0000000

  Atom        21          22          23          24          25          26          27          28          29          30
 IAtWgt=           1           1          32          14          12          12          12          12          12          12
 AtmWgt=   1.0078250   1.0078250  31.9720718  14.0030740  12.0000000  12.0000000  12.0000000  12.0000000  12.0000000  12.0000000
 NucSpn=           1           1           0           2           0           0           0           0           0           0
 AtZEff=  -0.0000000  -0.0000000  -0.0000000  -0.0000000  -0.0000000  -0.0000000  -0.0000000  -0.0000000  -0.0000000  -0.0000000
 NQMom=    0.0000000   0.0000000   0.0000000   2.0440000   0.0000000   0.0000000   0.0000000   0.0000000   0.0000000   0.0000000
 NMagM=    2.7928460   2.7928460   0.0000000   0.4037610   0.0000000   0.0000000   0.0000000   0.0000000   0.0000000   0.0000000
 AtZNuc=   1.0000000   1.0000000  16.0000000   7.0000000   6.0000000   6.0000000   6.0000000   6.0000000   6.0000000   6.0000000

  Atom        31          32          33          34          35          36          37          38          39          40
 IAtWgt=           1           1           1           1           1          12          12          12          12          12
 AtmWgt=   1.0078250   1.0078250   1.0078250   1.0078250   1.0078250  12.0000000  12.0000000  12.0000000  12.0000000  12.0000000
 NucSpn=           1           1           1           1           1           0           0           0           0           0
 AtZEff=  -0.0000000  -0.0000000  -0.0000000  -0.0000000  -0.0000000  -0.0000000  -0.0000000  -0.0000000  -0.0000000  -0.0000000
 NQMom=    0.0000000   0.0000000   0.0000000   0.0000000   0.0000000   0.0000000   0.0000000   0.0000000   0.0000000   0.0000000
 NMagM=    2.7928460   2.7928460   2.7928460   2.7928460   2.7928460   0.0000000   0.0000000   0.0000000   0.0000000   0.0000000
 AtZNuc=   1.0000000   1.0000000   1.0000000   1.0000000   1.0000000   6.0000000   6.0000000   6.0000000   6.0000000   6.0000000

  Atom        41          42          43          44          45          46
 IAtWgt=          12           1           1           1           1           1
 AtmWgt=  12.0000000   1.0078250   1.0078250   1.0078250   1.0078250   1.0078250
 NucSpn=           0           1           1           1           1           1
 AtZEff=  -0.0000000  -0.0000000  -0.0000000  -0.0000000  -0.0000000  -0.0000000
 NQMom=    0.0000000   0.0000000   0.0000000   0.0000000   0.0000000   0.0000000
 NMagM=    0.0000000   2.7928460   2.7928460   2.7928460   2.7928460   2.7928460
 AtZNuc=   6.0000000   1.0000000   1.0000000   1.0000000   1.0000000   1.0000000
 Leave Link  101 at Tue Jan 19 15:29:22 2021, MaxMem=  4026531840 cpu:               0.7 elap:               0.1
 (Enter /opt/ohpc/pub/libs/gaussian/g16-A.03/sandybridge/g16/l202.exe)
                          Input orientation:                          
 ---------------------------------------------------------------------
 Center     Atomic      Atomic             Coordinates (Angstroms)
 Number     Number       Type             X           Y           Z
 ---------------------------------------------------------------------
      1          6           0       -3.352046    1.022081    0.901490
      2          6           0       -4.015603    0.124147    0.077833
      3         16           0       -3.193622   -0.833868   -1.176213
      4          6           0       -5.398593   -0.028228    0.207342
      5          6           0       -0.749106    0.373785   -1.531691
      6          6           0       -1.475477   -0.566990   -0.815552
      7          6           0       -4.041516    1.761821    1.844012
      8          6           0       -6.080951    0.720801    1.156415
      9          1           0       -7.475944   -0.835079   -0.458792
     10          6           0        0.601771    0.547170   -1.299188
     11          6           0       -0.823428   -1.336346    0.139234
     12          6           0        0.521569   -1.154920    0.389409
     13          6           0        1.255724   -0.212476   -0.331046
     14          1           0        1.160253    1.275483   -1.876291
     15          1           0       -1.383265   -2.076857    0.700814
     16          1           0        1.015474   -1.752114    1.147605
     17          6           0       -5.411167    1.613701    1.970885
     18          1           0       -2.279577    1.141824    0.800598
     19          1           0       -1.248138    0.967582   -2.290346
     20          1           0       -3.503227    2.458074    2.478369
     21          1           0       -7.154267    0.598627    1.263844
     22          1           0       -5.962434    2.189124    2.706912
     23         16           0       -6.238224   -1.192989   -0.835805
     24          7           0        2.627173   -0.037586   -0.087724
     25          6           0        3.438312   -1.140752    0.276409
     26          6           0        4.374889   -1.012928    1.295896
     27          6           0        3.317625   -2.356550   -0.387733
     28          6           0        5.179400   -2.084309    1.640010
     29          6           0        4.112866   -3.428755   -0.025756
     30          6           0        5.049979   -3.298472    0.986151
     31          1           0        4.470709   -0.064848    1.814448
     32          1           0        2.593785   -2.456724   -1.189607
     33          1           0        5.907450   -1.970366    2.436839
     34          1           0        4.006805   -4.372570   -0.551042
     35          1           0        5.677330   -4.139106    1.262850
     36          6           0        3.224517    1.239724   -0.221989
     37          6           0        4.446224    1.376745   -0.871250
     38          6           0        2.604731    2.367846    0.304633
     39          6           0        5.037460    2.622109   -0.986244
     40          6           0        3.193018    3.612223    0.169883
     41          6           0        4.413292    3.746533   -0.472133
     42          1           0        4.931907    0.498005   -1.282066
     43          1           0        1.656156    2.262505    0.820378
     44          1           0        5.992055    2.714270   -1.494403
     45          1           0        2.697309    4.484427    0.584059
     46          1           0        4.876004    4.722810   -0.569917
 ---------------------------------------------------------------------
                    Distance matrix (angstroms):
                    1          2          3          4          5
     1  C    0.000000
     2  C    1.387445   0.000000
     3  S    2.790429   1.779347   0.000000
     4  C    2.402779   1.397373   2.724918   0.000000
     5  C    3.621596   3.650053   2.749627   4.980319   0.000000
     6  C    2.999148   2.779937   1.775760   4.089916   1.387634
     7  C    1.382365   2.408742   4.071644   2.779320   4.915484
     8  C    2.757296   2.405202   4.024279   1.388307   5.981213
     9  H    4.722917   3.630708   4.342001   2.325969   6.918296
    10  C    4.549856   4.836867   4.040717   6.213299   1.381662
    11  C    3.540780   3.510953   2.756938   4.758986   2.392083
    12  C    4.472857   4.724301   4.044365   6.029171   2.764449
    13  C    4.926948   5.297866   4.571336   6.678603   2.409272
    14  H    5.304821   5.650988   4.888323   7.004259   2.139500
    15  H    3.676926   3.487367   2.888883   4.534672   3.375186
    16  H    5.179958   5.475080   4.894874   6.707916   3.848612
    17  C    2.394494   2.783885   4.562053   2.409600   5.961564
    18  H    1.083839   2.138187   2.940513   3.383672   2.893406
    19  H    3.823247   3.738785   2.876008   4.945337   1.084982
    20  H    2.138102   3.387081   4.928357   3.864152   5.292450
    21  H    3.842850   3.388652   4.867507   2.142787   6.992257
    22  H    3.381666   3.868635   5.646544   3.388571   6.959885
    23  S    4.031718   2.740370   3.084550   1.774769   5.750605
    24  N    6.152438   6.646807   5.974992   8.031194   3.695068
    25  C    7.153848   7.563085   6.796090   8.906928   4.805988
    26  C    8.000146   8.554354   7.964028   9.883093   6.014445
    27  C    7.586946   7.755440   6.733246   9.041441   5.030077
    28  C    9.109371   9.584662   8.922007  10.870784   7.158847
    29  C    8.740403   8.871632   7.838479  10.103750   6.353418
    30  C    9.448194   9.732633   8.871699  10.976051   7.311251
    31  H    7.950497   8.664239   8.263015   9.999363   6.215747
    32  H    7.199144   7.207726   6.010651   8.469189   4.393600
    33  H    9.851411  10.412438   9.857752  11.686281   8.096543
    34  H    9.239307   9.218187   8.047323  10.387972   6.790305
    35  H   10.406636  10.655165   9.775859  11.861260   8.335150
    36  C    6.675384   7.331694   6.811963   8.726400   4.272569
    37  C    8.005086   8.606525   7.959087  10.002886   5.332313
    38  C    6.136001   6.993886   6.787104   8.354869   4.312376
    39  C    8.746853   9.451456   8.929198  10.833288   6.231919
    40  C    7.076860   8.008706   7.897396   9.331134   5.378027
    41  C    8.343258   9.190779   8.907353  10.534875   6.256872
    42  H    8.582916   9.057982   8.234641  10.450574   5.687851
    43  H    5.160166   6.106783   6.090505   7.442631   3.858079
    44  H    9.793673  10.456284   9.852268  11.839092   7.136001
    45  H    6.977342   8.020692   8.129323   9.276292   5.766416
    46  H    9.141184  10.031349   9.816472  11.346534   7.175018
                    6          7          8          9         10
     6  C    0.000000
     7  C    4.368203   0.000000
     8  C    5.172760   2.390775   0.000000
     9  H    6.017039   4.882836   2.641148   0.000000
    10  C    2.406287   5.737177   7.121721   8.238104   0.000000
    11  C    1.388774   4.781318   5.736555   6.698125   2.765481
    12  C    2.405366   5.607583   6.906511   8.048724   2.398938
    13  C    2.796406   6.057184   7.543895   8.754769   1.393562
    14  H    3.386288   6.413703   7.870198   9.002648   1.084154
    15  H    2.141861   4.807146   5.486594   6.325143   3.850441
    16  H    3.385756   6.197247   7.514961   8.690549   3.382995
    17  C    5.292381   1.383467   1.381753   4.020343   6.927214
    18  H    2.485672   2.139518   3.841134   5.700565   3.614537
    19  H    2.140470   5.052395   5.941140   6.737191   2.140398
    20  H    4.910468   1.084865   3.377920   5.937529   5.896821
    21  H    6.158832   3.373253   1.085576   2.264170   8.168715
    22  H    6.335353   2.148746   2.138705   4.632299   7.863437
    23  S    4.803753   4.553883   2.766996   1.342456   7.073076
    24  N    4.200207   7.172230   8.829182  10.141334   2.431427
    25  C    5.066251   8.174970   9.739413  10.943260   3.657534
    26  C    6.235692   8.878938  10.599522  11.981352   4.837849
    27  C    5.134139   8.723452  10.009381  10.900507   4.078995
    28  C    7.253925   9.992979  11.614560  12.888882   6.043033
    29  C    6.327958   9.845408  11.069338  11.883400   5.455034
    30  C    7.299911  10.440200  11.835588  12.847370   6.308589
    31  H    6.521210   8.706065  10.601310  12.185376   5.003796
    32  H    4.502211   8.427703   9.531607  10.225618   3.606038
    33  H    8.188719  10.642490  12.353284  13.740043   6.960324
    34  H    6.678909  10.399159  11.428940  12.015651   6.029745
    35  H    8.260897  11.384843  12.723490  13.670745   7.367939
    36  C    5.070155   7.572066   9.421306  10.902328   2.918696
    37  C    6.232796   8.919790  10.740722  12.132616   3.956153
    38  C    5.149386   6.849055   8.881405  10.604789   3.146260
    39  C    7.253815   9.548730  11.481508  12.992907   4.906999
    40  C    6.342850   7.652789   9.764224  11.575858   4.274024
    41  C    7.307668   8.988180  11.042480  12.741479   5.044565
    42  H    6.512021   9.586027  11.281794  12.506385   4.330449
    43  H    4.526526   5.810506   7.896366   9.727618   2.923467
    44  H    8.184836  10.617190  12.520313  13.966294   5.812882
    45  H    6.699841   7.376437   9.568193  11.527348   4.841476
    46  H    8.269440   9.701375  11.791996  13.545224   6.019707
                   11         12         13         14         15
    11  C    0.000000
    12  C    1.380043   0.000000
    13  C    2.409797   1.395077   0.000000
    14  H    3.849543   3.383515   2.147305   0.000000
    15  H    1.084964   2.139003   3.391890   4.934485   0.000000
    16  H    2.138045   1.084179   2.148165   4.281501   2.461509
    17  C    5.753701   6.735257   7.285688   7.622251   5.608680
    18  H    2.949423   3.645618   3.951342   4.360737   3.342640
    19  H    3.375103   3.849411   3.391271   2.463045   4.270118
    20  H    5.201009   5.797971   6.137774   6.489193   5.312207
    21  H    6.714789   7.921996   8.598227   8.913463   6.385897
    22  H    6.740274   7.654786   8.191378   8.518988   6.572048
    23  S    5.503750   6.870036   7.574658   7.868509   5.168467
    24  N    3.693905   2.430979   1.403804   2.659883   4.567716
    25  C    4.268431   2.918965   2.448344   3.957507   4.929910
    26  C    5.335257   3.961055   3.607888   5.062952   5.885780
    27  C    4.297305   3.140986   2.975181   4.479031   4.833377
    28  C    6.232634   4.911533   4.773264   6.309209   6.629534
    29  C    5.363991   4.270843   4.312878   5.854251   5.706399
    30  C    6.250129   5.045534   5.065052   6.651662   6.554418
    31  H    5.696572   4.337591   3.867954   5.135870   6.289465
    32  H    3.833851   2.912398   2.750306   4.056589   4.419832
    33  H    7.140426   5.819333   5.691214   7.188498   7.495308
    34  H    5.746850   4.835762   4.992317   6.462170   5.990851
    35  H    7.167833   6.020809   6.124502   7.718547   7.377043
    36  C    4.811702   3.662520   2.448862   2.645596   5.751776
    37  C    6.012585   4.837510   3.605098   3.437727   6.955695
    38  C    5.049819   4.093486   2.980263   2.834820   5.984685
    39  C    7.161430   6.045795   4.771340   4.199800   8.133398
    40  C    6.373469   5.469048   4.316522   3.712050   7.320511
    41  C    7.323433   6.317595   5.065954   4.319723   8.299864
    42  H    6.205547   4.997707   3.863100   3.896530   7.102332
    43  H    4.423124   3.626543   2.758923   2.914130   5.299287
    44  H    8.094879   6.960287   5.687888   5.055913   9.064724
    45  H    6.817247   6.047642   4.997648   4.325874   7.727559
    46  H    8.348640   7.377609   6.125401   5.234260   9.328916
                   16         17         18         19         20
    16  H    0.000000
    17  C    7.301248   0.000000
    18  H    4.399165   3.376255   0.000000
    19  H    4.933578   5.992192   3.263152   0.000000
    20  H    6.317854   2.147264   2.458607   5.481572   0.000000
    21  H    8.502009   2.137447   4.926689   6.902953   4.273489
    22  H    8.164312   1.084778   4.277184   6.977775   2.484404
    23  S    7.540734   4.054509   4.878530   5.628918   5.638636
    24  N    2.657671   8.460469   5.124092   4.569457   7.098941
    25  C    2.646297   9.421865   6.178930   5.744225   8.123124
    26  C    3.442972  10.154885   7.012146   6.957153   8.689696
    27  C    2.832403   9.875109   6.706670   5.959529   8.827183
    28  C    4.206078  11.222516   8.169999   8.128652   9.834841
    29  C    3.712376  10.959934   7.901669   7.293594   9.946370
    30  C    4.323716  11.598910   8.571642   8.282568  10.417383
    31  H    3.902588  10.024643   6.931833   7.114805   8.389850
    32  H    2.906906   9.520311   6.376529   5.262877   8.647707
    33  H    5.063713  11.881656   8.910130   9.065333  10.400656
    34  H    4.324379  11.440881   8.470777   7.691348  10.594131
    35  H    5.238694  12.512029   9.561081   9.309435  11.370264
    36  C    3.963175   8.917600   5.599136   4.935261   7.351112
    37  C    5.063159  10.261678   6.934455   5.882772   8.693848
    38  C    4.495599   8.221907   5.060195   4.851727   6.483858
    39  C    6.313756  10.905746   7.676137   6.629245   9.218123
    40  C    5.871435   9.014971   6.037381   5.724572   7.176410
    41  C    6.663620  10.345883   7.293754   6.563555   8.546161
    42  H    5.128819  10.899800   7.533757   6.279338   9.441092
    43  H    4.078568   7.189692   4.092226   4.448410   5.422768
    44  H    7.189934  11.968832   8.726942   7.490316  10.296064
    45  H    6.483872   8.712734   5.999106   6.016391   6.792729
    46  H    7.731637  11.043012   8.118135   7.386930   9.199597
                   21         22         23         24         25
    21  H    0.000000
    22  H    2.456134   0.000000
    23  S    2.908186   4.905669   0.000000
    24  N    9.894851   9.303202   8.971613   0.000000
    25  C   10.779759  10.264962   9.740385   1.416868   0.000000
    26  C   11.641288  10.913494  10.826576   2.433148   1.390277
    27  C   11.005512  10.787005   9.636851   2.438098   1.390617
    28  C   12.627707  11.980859  11.716921   3.699730   2.404391
    29  C   12.034582  11.854944  10.620729   3.702857   2.404430
    30  C   12.814371  12.423686  11.626526   4.201973   2.785132
    31  H   11.656905  10.711086  11.089535   2.649080   2.142190
    32  H   10.506146  10.486927   8.928974   2.658475   2.143411
    33  H   13.363536  12.580479  12.602853   4.568290   3.384134
    34  H   12.352171  12.371573  10.730864   4.572760   3.384155
    35  H   13.678304  13.327262  12.452485   5.286774   3.869935
    36  C   10.504183   9.689164   9.789705   1.416463   2.441470
    37  C   11.820977  11.036456  10.989186   2.433761   2.944622
    38  C    9.964350   8.899393   9.600937   2.437325   3.606371
    39  C   12.561671  11.611397  11.904564   3.700108   4.279099
    40  C   10.832581   9.606458  10.632488   3.702384   4.760492
    41  C   12.113272  10.963008  11.746741   4.202089   5.039490
    42  H   12.351817  11.724269  11.306212   2.650492   2.710202
    43  H    8.977121   7.849032   8.775227   2.656679   3.879967
    44  H   13.598149  12.682138  12.856133   4.568795   4.951623
    45  H   10.612026   9.206849  10.681424   4.572178   5.682110
    46  H   12.849085  11.602970  12.593389   5.286882   6.096276
                   26         27         28         29         30
    26  C    0.000000
    27  C    2.399528   0.000000
    28  C    1.383297   2.766236   0.000000
    29  C    2.766160   1.383134   2.391612   0.000000
    30  C    2.403206   2.403295   1.385090   1.385320   0.000000
    31  H    1.084866   3.380991   2.147299   3.851009   3.387913
    32  H    3.381509   1.084888   3.851082   2.146392   3.387529
    33  H    2.137097   3.851563   1.085346   3.378136   2.145604
    34  H    3.851475   2.136814   3.378139   1.085339   2.145894
    35  H    3.386803   3.386759   2.147644   2.147708   1.084803
    36  C    2.949877   3.601295   4.282266   4.756298   5.038565
    37  C    3.226786   3.930015   4.338533   4.890687   5.066765
    38  C    3.942803   4.827785   5.313552   5.998684   6.208934
    39  C    4.342886   5.301235   5.391449   6.195996   6.240495
    40  C    4.904768   5.996058   6.209466   7.103504   7.202243
    41  C    5.077388   6.201228   6.248743   7.195434   7.222469
    42  H    3.039585   3.399150   3.907445   4.203402   4.424024
    43  H    4.283233   5.055263   5.655072   6.256341   6.516900
    44  H    4.928793   5.838708   5.788896   6.589767   6.572193
    45  H    5.791537   6.937445   7.100993   8.061893   8.140654
    46  H    6.052360   7.251143   7.163288   8.205273   8.172673
                   31         32         33         34         35
    31  H    0.000000
    32  H    4.274139   0.000000
    33  H    2.466292   4.936399   0.000000
    34  H    4.936316   2.464722   4.279073   0.000000
    35  H    4.284831   4.284064   2.476820   2.476967   0.000000
    36  C    2.720658   3.872704   4.957033   5.676099   6.095314
    37  C    3.048239   4.269469   4.927655   5.774967   6.041077
    38  C    3.417516   5.050678   5.854429   6.937665   7.259440
    39  C    3.922349   5.639809   5.793549   7.083586   7.154152
    40  C    4.225866   6.248153   6.608520   8.058468   8.212763
    41  C    4.445039   6.504289   6.586164   8.129655   8.172592
    42  H    3.180866   3.769056   4.568894   5.011258   5.341821
    43  H    3.785030   5.214433   6.213183   7.171511   7.572730
    44  H    4.581101   6.195185   6.116178   7.419869   7.393934
    45  H    5.035346   7.164927   7.443262   9.024945   9.149131
    46  H    5.363873   7.558985   7.409660   9.136838   9.084862
                   36         37         38         39         40
    36  C    0.000000
    37  C    1.390281   0.000000
    38  C    1.390728   2.399183   0.000000
    39  C    2.404545   1.383371   2.765716   0.000000
    40  C    2.404851   2.766197   1.383009   2.391427   0.000000
    41  C    2.785651   2.403388   2.403130   1.385000   1.385385
    42  H    2.142216   1.084823   3.380779   2.147200   3.851006
    43  H    2.142981   3.380925   1.084843   3.850508   2.146352
    44  H    3.384168   2.137027   3.851039   1.085344   3.377984
    45  H    3.384636   3.851534   2.136952   3.377926   1.085361
    46  H    3.870446   3.386984   3.386646   2.147636   2.147824
                   41         42         43         44         45
    41  C    0.000000
    42  H    3.387903   0.000000
    43  H    3.387436   4.273672   0.000000
    44  H    2.145483   2.465934   4.935820   0.000000
    45  H    2.145839   4.936336   2.465113   4.278880   0.000000
    46  H    1.084795   4.284771   4.284092   2.476788   2.476933
                   46
    46  H    0.000000
 Stoichiometry    C24H19NS2(1+,2)
 Framework group  C1[X(C24H19NS2)]
 Deg. of freedom   132
 Full point group                 C1      NOp   1
 Largest Abelian subgroup         C1      NOp   1
 Largest concise Abelian subgroup C1      NOp   1
                         Standard orientation:                         
 ---------------------------------------------------------------------
 Center     Atomic      Atomic             Coordinates (Angstroms)
 Number     Number       Type             X           Y           Z
 ---------------------------------------------------------------------
      1          6           0       -3.352046    1.022081    0.901490
      2          6           0       -4.015603    0.124147    0.077833
      3         16           0       -3.193622   -0.833868   -1.176213
      4          6           0       -5.398593   -0.028228    0.207342
      5          6           0       -0.749106    0.373785   -1.531691
      6          6           0       -1.475477   -0.566990   -0.815552
      7          6           0       -4.041516    1.761821    1.844012
      8          6           0       -6.080951    0.720801    1.156415
      9          1           0       -7.475944   -0.835079   -0.458792
     10          6           0        0.601771    0.547170   -1.299188
     11          6           0       -0.823428   -1.336346    0.139234
     12          6           0        0.521569   -1.154920    0.389409
     13          6           0        1.255724   -0.212476   -0.331046
     14          1           0        1.160253    1.275483   -1.876291
     15          1           0       -1.383265   -2.076857    0.700814
     16          1           0        1.015474   -1.752114    1.147605
     17          6           0       -5.411167    1.613701    1.970885
     18          1           0       -2.279577    1.141824    0.800598
     19          1           0       -1.248138    0.967582   -2.290346
     20          1           0       -3.503227    2.458074    2.478369
     21          1           0       -7.154267    0.598627    1.263844
     22          1           0       -5.962434    2.189124    2.706912
     23         16           0       -6.238224   -1.192989   -0.835805
     24          7           0        2.627173   -0.037586   -0.087724
     25          6           0        3.438312   -1.140752    0.276409
     26          6           0        4.374889   -1.012928    1.295896
     27          6           0        3.317625   -2.356550   -0.387733
     28          6           0        5.179400   -2.084309    1.640010
     29          6           0        4.112866   -3.428755   -0.025756
     30          6           0        5.049979   -3.298472    0.986151
     31          1           0        4.470709   -0.064848    1.814448
     32          1           0        2.593785   -2.456724   -1.189607
     33          1           0        5.907450   -1.970366    2.436839
     34          1           0        4.006805   -4.372570   -0.551042
     35          1           0        5.677330   -4.139106    1.262850
     36          6           0        3.224517    1.239724   -0.221989
     37          6           0        4.446224    1.376745   -0.871250
     38          6           0        2.604731    2.367846    0.304633
     39          6           0        5.037460    2.622109   -0.986244
     40          6           0        3.193018    3.612223    0.169883
     41          6           0        4.413292    3.746533   -0.472133
     42          1           0        4.931907    0.498005   -1.282066
     43          1           0        1.656156    2.262505    0.820378
     44          1           0        5.992055    2.714270   -1.494403
     45          1           0        2.697309    4.484427    0.584059
     46          1           0        4.876004    4.722810   -0.569917
 ---------------------------------------------------------------------
 Rotational constants (GHZ):           0.3083654           0.0766714           0.0675965
 Leave Link  202 at Tue Jan 19 15:29:22 2021, MaxMem=  4026531840 cpu:               0.1 elap:               0.0
 (Enter /opt/ohpc/pub/libs/gaussian/g16-A.03/sandybridge/g16/l301.exe)
 Standard basis: TZVP (5D, 7F)
 Ernie: Thresh=  0.10000D-02 Tol=  0.10000D-05 Strict=F.
 There are   660 symmetry adapted cartesian basis functions of A   symmetry.
 There are   633 symmetry adapted basis functions of A   symmetry.
   633 basis functions,  1121 primitive gaussians,   660 cartesian basis functions
   101 alpha electrons      100 beta electrons
       nuclear repulsion energy      2474.6847673599 Hartrees.
 IExCor=33909 DFT=T Ex+Corr=LC-wHPBE ExCW=0 ScaHFX=  1.000000
 ScaDFX=  1.000000  1.000000  1.000000  1.000000 ScalE2=  1.000000  1.000000
 IRadAn=      5 IRanWt=     -1 IRanGd=            0 ICorTp=0 IEmpDi=  4
 HFx  wShort=  0.000000 wLong=  0.180600 cFull=  0.000000 cShort=  0.000000 cLong=  1.000000
 DFx  wShort=  0.000000 wLong=  0.180600 cFull=  0.000000 cShort=  1.000000 cLong=  0.000000
 NAtoms=   46 NActive=   46 NUniq=   46 SFac= 1.00D+00 NAtFMM=   60 NAOKFM=F Big=F
 Integral buffers will be    131072 words long.
 Raffenetti 2 integral format.
 Two-electron integral symmetry is turned on.
 Leave Link  301 at Tue Jan 19 15:29:22 2021, MaxMem=  4026531840 cpu:               0.4 elap:               0.1
 (Enter /opt/ohpc/pub/libs/gaussian/g16-A.03/sandybridge/g16/l302.exe)
 NPDir=0 NMtPBC=     1 NCelOv=     1 NCel=       1 NClECP=     1 NCelD=      1
         NCelK=      1 NCelE2=     1 NClLst=     1 CellRange=     0.0.
 One-electron integrals computed using PRISM.
 One-electron integral symmetry used in STVInt
 NBasis=   633 RedAO= T EigKep=  6.67D-06  NBF=   633
 NBsUse=   633 1.00D-06 EigRej= -1.00D+00 NBFU=   633
 Precomputing XC quadrature grid using
 IXCGrd= 4 IRadAn=           5 IRanWt=          -1 IRanGd=           0 AccXCQ= 0.00D+00.
 Generated NRdTot=       0 NPtTot=           0 NUsed=           0 NTot=          32
 NSgBfM=   625   625   625   625   625 MxSgAt=    46 MxSgA2=    46.
 Leave Link  302 at Tue Jan 19 15:29:23 2021, MaxMem=  4026531840 cpu:              10.4 elap:               1.5
 (Enter /opt/ohpc/pub/libs/gaussian/g16-A.03/sandybridge/g16/l303.exe)
 DipDrv:  MaxL=1.
 Leave Link  303 at Tue Jan 19 15:29:24 2021, MaxMem=  4026531840 cpu:               0.9 elap:               0.2
 (Enter /opt/ohpc/pub/libs/gaussian/g16-A.03/sandybridge/g16/l401.exe)
 ExpMin= 9.52D-02 ExpMax= 6.07D+04 ExpMxC= 2.07D+03 IAcc=3 IRadAn=         5 AccDes= 0.00D+00
 Harris functional with IExCor=33909 and IRadAn=       5 diagonalized for initial guess.
 HarFok:  IExCor=33909 AccDes= 0.00D+00 IRadAn=         5 IDoV= 1 UseB2=F ITyADJ=14
 ICtDFT=  3500011 ScaDFX=  1.000000  1.000000  1.000000  1.000000
 FoFCou: FMM=F IPFlag=           0 FMFlag=      100000 FMFlg1=           0
         NFxFlg=           0 DoJE=T BraDBF=F KetDBF=T FulRan=T
         wScrn=  0.000000 ICntrl=       500 IOpCl=  0 I1Cent=   200000004 NGrid=           0
         NMat0=    1 NMatS0=      1 NMatT0=    0 NMatD0=    1 NMtDS0=    0 NMtDT0=    0
 Petite list used in FoFCou.
 Harris En= -1756.46959401991    
 JPrj=0 DoOrth=F DoCkMO=F.
 Initial guess <Sx>= 0.0000 <Sy>= 0.0000 <Sz>= 0.5000 <S**2>= 0.7500 S= 0.5000
 Leave Link  401 at Tue Jan 19 15:29:30 2021, MaxMem=  4026531840 cpu:              47.1 elap:               6.0
 (Enter /opt/ohpc/pub/libs/gaussian/g16-A.03/sandybridge/g16/l502.exe)
 Integral symmetry usage will be decided dynamically.
 UHF open shell SCF:
 Using DIIS extrapolation, IDIIS=    10.
 NGot=  4026531840 LenX=  4025648940 LenY=  4025212680
 Requested convergence on RMS density matrix=1.00D-06 within  32 cycles.
 Requested convergence on MAX density matrix=1.00D-04.
 Requested convergence on             energy=1.00D-04.
 Virtual orbitals will be shifted by   0.500 hartree.
 No special actions if energy rises.
 Dynamic level shift is on during FON iterations.

 Cycle   1  Pass 1  IDiag  1:
 FoFJK:  IHMeth= 1 ICntrl=       0 DoSepK=T KAlg= 0 I1Cent=           0 FoldK=F
 IRaf=         1 NMat=       1 IRICut=       1 DoRegI=T DoRafI=F ISym2E= 0 IDoP0=0 IntGTp=1.
 FoFCou: FMM=F IPFlag=           0 FMFlag=      100000 FMFlg1=           0
         NFxFlg=           0 DoJE=T BraDBF=F KetDBF=F FulRan=T
         wScrn=  0.000000 ICntrl=       500 IOpCl=  0 I1Cent=           0 NGrid=           0
         NMat0=    1 NMatS0=      1 NMatT0=    0 NMatD0=    1 NMtDS0=    0 NMtDT0=    0
 Symmetry not used in FoFCou.
 E= -1775.33970544805    
 DIIS: error= 3.63D-02 at cycle   1 NSaved=   1.
 NSaved= 1 IEnMin= 1 EnMin= -1775.33970544805     IErMin= 1 ErrMin= 3.63D-02
 ErrMax= 3.63D-02  0.00D+00 EMaxC= 1.00D+00 BMatC= 2.31D+00 BMatP= 2.31D+00
 IDIUse=1 WtCom= 1.00D+00 WtEn= 0.00D+00
 Coeff-Com:  0.100D+01
 Coeff:      0.100D+01
 Gap=     0.565 Goal=   None    Shift=    0.500
 T= 1610. Gap= 0.537 NK=0 IS=  102 IE=  633 IFin=  101
          NO(<0.9)=   0  NV(>0.1)=   0    101.00e < EF      0.00e >EF  Err=0.0D+00
 Gap=     0.166 Goal=   None    Shift=    0.500
 T= 1610. Gap= 0.370 NK=0 IS=  101 IE=  633 IFin=  100
          NO(<0.9)=   0  NV(>0.1)=   0    100.00e < EF      0.00e >EF  Err=0.0D+00
 GapD=    0.166 DampG=1.000 DampE=0.500 DampFc=0.5000 IDamp=-1.
 Damping current iteration by 5.00D-01
 RMSDP=3.47D-03 MaxDP=3.19D-01              OVMax= 1.40D-01

 Cycle   2  Pass 1  IDiag  1:
 E= -1775.72012822936     Delta-E=       -0.380422781306 Rises=F Damp=T
 DIIS: error= 1.63D-02 at cycle   2 NSaved=   2.
 NSaved= 2 IEnMin= 2 EnMin= -1775.72012822936     IErMin= 2 ErrMin= 1.63D-02
 ErrMax= 1.63D-02  0.00D+00 EMaxC= 1.00D+00 BMatC= 3.26D-01 BMatP= 2.31D+00
 IDIUse=1 WtCom= 1.00D+00 WtEn= 0.00D+00
 Coeff-Com: -0.483D+00 0.148D+01
 Coeff:     -0.483D+00 0.148D+01
 Gap=     0.205 Goal=   None    Shift=    0.500
 T= 1489. Gap= 0.676 NK=0 IS=  102 IE=  633 IFin=  101
          NO(<0.9)=   0  NV(>0.1)=   0    101.00e < EF      0.00e >EF  Err=0.0D+00
 Gap=     0.041 Goal=   None    Shift=    0.500
 T= 1489. Gap= 0.518 NK=0 IS=  101 IE=  633 IFin=  100
          NO(<0.9)=   0  NV(>0.1)=   0    100.00e < EF      0.00e >EF  Err=0.0D+00
 GapD=    0.041 DampG=0.250 DampE=0.500 DampFc=0.1250 IDamp=-1.
 Damping current iteration by 1.25D-01
 RMSDP=1.96D-03 MaxDP=1.26D-01 DE=-3.80D-01 OVMax= 2.72D-02

 Cycle   3  Pass 1  IDiag  1:
 E= -1775.75289643684     Delta-E=       -0.032768207486 Rises=F Damp=T
 DIIS: error= 1.42D-02 at cycle   3 NSaved=   3.
 NSaved= 3 IEnMin= 3 EnMin= -1775.75289643684     IErMin= 3 ErrMin= 1.42D-02
 ErrMax= 1.42D-02  0.00D+00 EMaxC= 1.00D+00 BMatC= 2.34D-01 BMatP= 3.26D-01
 IDIUse=1 WtCom= 1.00D+00 WtEn= 0.00D+00
 Coeff-Com:  0.122D+00-0.667D+01 0.754D+01
 Coeff:      0.122D+00-0.667D+01 0.754D+01
 Gap=     0.216 Goal=   None    Shift=    0.500
 T= 1317. Gap= 0.712 NK=0 IS=  102 IE=  633 IFin=  101
          NO(<0.9)=   0  NV(>0.1)=   0    101.00e < EF      0.00e >EF  Err=0.0D+00
 Gap=     0.061 Goal=   None    Shift=    0.500
 T= 1317. Gap= 0.560 NK=0 IS=  101 IE=  633 IFin=  100
          NO(<0.9)=   0  NV(>0.1)=   0    100.00e < EF      0.00e >EF  Err=0.0D+00
 GapD=    0.061 DampG=0.500 DampE=0.500 DampFc=0.2500 IDamp=-1.
 Damping current iteration by 2.50D-01
 RMSDP=1.82D-03 MaxDP=1.21D-01 DE=-3.28D-02 OVMax= 1.50D-02

 Cycle   4  Pass 1  IDiag  1:
 E= -1775.80485373012     Delta-E=       -0.051957293275 Rises=F Damp=T
 DIIS: error= 1.07D-02 at cycle   4 NSaved=   4.
 NSaved= 4 IEnMin= 4 EnMin= -1775.80485373012     IErMin= 4 ErrMin= 1.07D-02
 ErrMax= 1.07D-02  0.00D+00 EMaxC= 1.00D+00 BMatC= 1.25D-01 BMatP= 2.34D-01
 IDIUse=1 WtCom= 1.00D+00 WtEn= 0.00D+00
 Coeff-Com:  0.822D-01-0.290D+00-0.287D+01 0.408D+01
 Coeff:      0.822D-01-0.290D+00-0.287D+01 0.408D+01
 Gap=     0.211 Goal=   None    Shift=    0.500
 T= 1027. Gap= 0.711 NK=0 IS=  102 IE=  633 IFin=  101
          NO(<0.9)=   0  NV(>0.1)=   0    101.00e < EF      0.00e >EF  Err=0.0D+00
 Gap=     0.059 Goal=   None    Shift=    0.500
 T= 1027. Gap= 0.559 NK=0 IS=  101 IE=  633 IFin=  100
          NO(<0.9)=   0  NV(>0.1)=   0    100.00e < EF      0.00e >EF  Err=0.0D+00
 GapD=    0.059 DampG=0.500 DampE=0.500 DampFc=0.2500 IDamp=-1.
 Damping current iteration by 2.50D-01
 RMSDP=1.38D-03 MaxDP=9.15D-02 DE=-5.20D-02 OVMax= 1.27D-02

 Cycle   5  Pass 1  IDiag  1:
 E= -1775.84103786595     Delta-E=       -0.036184135831 Rises=F Damp=T
 DIIS: error= 8.17D-03 at cycle   5 NSaved=   5.
 NSaved= 5 IEnMin= 5 EnMin= -1775.84103786595     IErMin= 5 ErrMin= 8.17D-03
 ErrMax= 8.17D-03  0.00D+00 EMaxC= 1.00D+00 BMatC= 6.95D-02 BMatP= 1.25D-01
 IDIUse=1 WtCom= 1.00D+00 WtEn= 0.00D+00
 Coeff-Com: -0.336D-02 0.115D+01-0.133D+01-0.349D+01 0.468D+01
 Coeff:     -0.336D-02 0.115D+01-0.133D+01-0.349D+01 0.468D+01
 Gap=     0.214 Goal=   None    Shift=    0.500
 T=  895. Gap= 0.714 NK=0 IS=  102 IE=  633 IFin=  101
          NO(<0.9)=   0  NV(>0.1)=   0    101.00e < EF      0.00e >EF  Err=0.0D+00
 Gap=     0.063 Goal=   None    Shift=    0.500
 T=  895. Gap= 0.563 NK=0 IS=  101 IE=  633 IFin=  100
          NO(<0.9)=   0  NV(>0.1)=   0    100.00e < EF      0.00e >EF  Err=0.0D+00
 GapD=    0.063 DampG=0.500 DampE=1.000 DampFc=0.5000 IDamp=-1.
 Damping current iteration by 5.00D-01
 RMSDP=1.03D-03 MaxDP=6.73D-02 DE=-3.62D-02 OVMax= 1.17D-02

 Cycle   6  Pass 1  IDiag  1:
 E= -1775.89223479634     Delta-E=       -0.051196930393 Rises=F Damp=T
 DIIS: error= 4.49D-03 at cycle   6 NSaved=   6.
 NSaved= 6 IEnMin= 6 EnMin= -1775.89223479634     IErMin= 6 ErrMin= 4.49D-03
 ErrMax= 4.49D-03  0.00D+00 EMaxC= 1.00D+00 BMatC= 1.74D-02 BMatP= 6.95D-02
 IDIUse=1 WtCom= 1.00D+00 WtEn= 0.00D+00
 Coeff-Com: -0.184D-01 0.140D+00 0.588D+00 0.653D+00-0.394D+01 0.358D+01
 Coeff:     -0.184D-01 0.140D+00 0.588D+00 0.653D+00-0.394D+01 0.358D+01
 Gap=     0.216 Goal=   None    Shift=    0.500
 T=  687. Gap= 0.716 NK=0 IS=  102 IE=  633 IFin=  101
          NO(<0.9)=   0  NV(>0.1)=   0    101.00e < EF      0.00e >EF  Err=0.0D+00
 Gap=     0.066 Goal=   None    Shift=    0.500
 T=  687. Gap= 0.566 NK=0 IS=  101 IE=  633 IFin=  100
          NO(<0.9)=   0  NV(>0.1)=   0    100.00e < EF      0.00e >EF  Err=0.0D+00
 GapD=    0.066 DampG=0.500 DampE=1.000 DampFc=0.5000 IDamp=-1.
 Damping current iteration by 5.00D-01
 RMSDP=5.13D-04 MaxDP=3.30D-02 DE=-5.12D-02 OVMax= 1.18D-02

 Cycle   7  Pass 1  IDiag  1:
 E= -1775.91678569986     Delta-E=       -0.024550903521 Rises=F Damp=T
 DIIS: error= 2.89D-03 at cycle   7 NSaved=   7.
 NSaved= 7 IEnMin= 7 EnMin= -1775.91678569986     IErMin= 7 ErrMin= 2.89D-03
 ErrMax= 2.89D-03  0.00D+00 EMaxC= 1.00D+00 BMatC= 4.61D-03 BMatP= 1.74D-02
 IDIUse=1 WtCom= 1.00D+00 WtEn= 0.00D+00
 Coeff-Com: -0.464D-02-0.353D+00 0.722D+00 0.142D+01-0.253D+01-0.144D+01
 Coeff-Com:  0.318D+01
 Coeff:     -0.464D-02-0.353D+00 0.722D+00 0.142D+01-0.253D+01-0.144D+01
 Coeff:      0.318D+01
 Gap=     0.216 Goal=   None    Shift=    0.500
 T=  442. Gap= 0.716 NK=0 IS=  102 IE=  633 IFin=  101
          NO(<0.9)=   0  NV(>0.1)=   0    101.00e < EF      0.00e >EF  Err=0.0D+00
 Gap=     0.066 Goal=   None    Shift=    0.500
 T=  442. Gap= 0.566 NK=0 IS=  101 IE=  633 IFin=  100
          NO(<0.9)=   0  NV(>0.1)=   0    100.00e < EF      0.00e >EF  Err=0.0D+00
 GapD=    0.066 DampG=0.500 DampE=1.000 DampFc=0.5000 IDamp=-1.
 Damping current iteration by 5.00D-01
 RMSDP=2.70D-04 MaxDP=1.64D-02 DE=-2.46D-02 OVMax= 1.18D-02

 Cycle   8  Pass 1  IDiag  1:
 E= -1775.92897693612     Delta-E=       -0.012191236262 Rises=F Damp=T
 DIIS: error= 2.12D-03 at cycle   8 NSaved=   8.
 NSaved= 8 IEnMin= 8 EnMin= -1775.92897693612     IErMin= 8 ErrMin= 2.12D-03
 ErrMax= 2.12D-03  0.00D+00 EMaxC= 1.00D+00 BMatC= 1.33D-03 BMatP= 4.61D-03
 IDIUse=1 WtCom= 1.00D+00 WtEn= 0.00D+00
 Coeff-Com:  0.421D-02-0.170D+00-0.728D-01 0.330D+00 0.102D+01-0.196D+01
 Coeff-Com: -0.203D+01 0.387D+01
 Coeff:      0.421D-02-0.170D+00-0.728D-01 0.330D+00 0.102D+01-0.196D+01
 Coeff:     -0.203D+01 0.387D+01
 Gap=     0.217 Goal=   None    Shift=    0.500
 T=  147. Gap= 0.717 NK=0 IS=  102 IE=  633 IFin=  101
          NO(<0.9)=   0  NV(>0.1)=   0    101.00e < EF      0.00e >EF  Err=0.0D+00
 Gap=     0.067 Goal=   None    Shift=    0.500
 T=  147. Gap= 0.568 NK=0 IS=  101 IE=  633 IFin=  100
          NO(<0.9)=   0  NV(>0.1)=   0    100.00e < EF      0.00e >EF  Err=0.0D+00
 GapD=    0.067 DampG=0.500 DampE=1.000 DampFc=0.5000 IDamp=-1.
 Damping current iteration by 5.00D-01
 RMSDP=1.54D-04 MaxDP=8.54D-03 DE=-1.22D-02 OVMax= 1.22D-02

 Cycle   9  Pass 1  IDiag  1:
 E= -1775.93516799063     Delta-E=       -0.006191054510 Rises=F Damp=T
 DIIS: error= 2.07D-03 at cycle   9 NSaved=   9.
 NSaved= 9 IEnMin= 9 EnMin= -1775.93516799063     IErMin= 9 ErrMin= 2.07D-03
 ErrMax= 2.07D-03  0.00D+00 EMaxC= 1.00D+00 BMatC= 4.52D-04 BMatP= 1.33D-03
 IDIUse=1 WtCom= 1.00D+00 WtEn= 0.00D+00
 Coeff-Com:  0.223D-02-0.559D-01-0.153D+00 0.113D-01 0.103D+01-0.106D+01
 Coeff-Com: -0.119D+01 0.176D+00 0.224D+01
 Coeff:      0.223D-02-0.559D-01-0.153D+00 0.113D-01 0.103D+01-0.106D+01
 Coeff:     -0.119D+01 0.176D+00 0.224D+01
 Gap=     0.217 Goal=   None    Shift=    0.500
 Gap=     0.068 Goal=   None    Shift=    0.500
 GapD=    0.068 DampG=0.500 DampE=1.000 DampFc=0.5000 IDamp=-1.
 Damping current iteration by 5.00D-01
 RMSDP=9.67D-05 MaxDP=5.35D-03 DE=-6.19D-03 OVMax= 1.14D-02

 Cycle  10  Pass 1  IDiag  1:
 E= -1775.93837505882     Delta-E=       -0.003207068189 Rises=F Damp=T
 DIIS: error= 2.06D-03 at cycle  10 NSaved=  10.
 NSaved=10 IEnMin=10 EnMin= -1775.93837505882     IErMin=10 ErrMin= 2.06D-03
 ErrMax= 2.06D-03  0.00D+00 EMaxC= 1.00D+00 BMatC= 2.00D-04 BMatP= 4.52D-04
 IDIUse=1 WtCom= 1.00D+00 WtEn= 0.00D+00
 Coeff-Com: -0.695D-03-0.553D-01 0.880D-01 0.379D+00-0.670D+00 0.191D-01
 Coeff-Com:  0.861D+00 0.523D+00-0.518D+01 0.504D+01
 Coeff:     -0.695D-03-0.553D-01 0.880D-01 0.379D+00-0.670D+00 0.191D-01
 Coeff:      0.861D+00 0.523D+00-0.518D+01 0.504D+01
 Gap=     0.219 Goal=   None    Shift=    0.500
 Gap=     0.069 Goal=   None    Shift=    0.500
 GapD=    0.069 DampG=0.500 DampE=1.000 DampFc=0.5000 IDamp=-1.
 Damping current iteration by 5.00D-01
 RMSDP=7.24D-05 MaxDP=5.41D-03 DE=-3.21D-03 OVMax= 1.22D-02

 Cycle  11  Pass 1  IDiag  1:
 E= -1775.94008357563     Delta-E=       -0.001708516802 Rises=F Damp=T
 DIIS: error= 2.08D-03 at cycle  11 NSaved=  11.
 NSaved=11 IEnMin=11 EnMin= -1775.94008357563     IErMin=10 ErrMin= 2.06D-03
 ErrMax= 2.08D-03  0.00D+00 EMaxC= 1.00D+00 BMatC= 1.24D-04 BMatP= 2.00D-04
 IDIUse=1 WtCom= 1.00D+00 WtEn= 0.00D+00
 Coeff-Com: -0.854D-03-0.726D-01 0.148D+00 0.353D+00-0.754D+00 0.505D-01
 Coeff-Com:  0.922D+00 0.772D+00-0.482D+01 0.320D+01 0.121D+01
 Coeff:     -0.854D-03-0.726D-01 0.148D+00 0.353D+00-0.754D+00 0.505D-01
 Coeff:      0.922D+00 0.772D+00-0.482D+01 0.320D+01 0.121D+01
 Gap=     0.219 Goal=   None    Shift=    0.500
 Gap=     0.069 Goal=   None    Shift=    0.500
 GapD=    0.069 DampG=0.500 DampE=1.000 DampFc=0.5000 IDamp=-1.
 Damping current iteration by 5.00D-01
 RMSDP=5.67D-05 MaxDP=4.32D-03 DE=-1.71D-03 OVMax= 1.13D-02

 Cycle  12  Pass 1  IDiag  1:
 E= -1775.94103135506     Delta-E=       -0.000947779434 Rises=F Damp=T
 DIIS: error= 2.11D-03 at cycle  12 NSaved=  12.
 NSaved=12 IEnMin=12 EnMin= -1775.94103135506     IErMin=10 ErrMin= 2.06D-03
 ErrMax= 2.11D-03  0.00D+00 EMaxC= 1.00D+00 BMatC= 9.86D-05 BMatP= 1.24D-04
 IDIUse=1 WtCom= 1.00D+00 WtEn= 0.00D+00
 Coeff-Com: -0.518D-03-0.707D-01 0.113D+00 0.353D+00-0.601D+00-0.131D+00
 Coeff-Com:  0.706D+00 0.917D+00-0.386D+01 0.284D+01-0.533D+00 0.127D+01
 Coeff:     -0.518D-03-0.707D-01 0.113D+00 0.353D+00-0.601D+00-0.131D+00
 Coeff:      0.706D+00 0.917D+00-0.386D+01 0.284D+01-0.533D+00 0.127D+01
 Gap=     0.219 Goal=   None    Shift=    0.500
 Gap=     0.070 Goal=   None    Shift=    0.500
 GapD=    0.070 DampG=0.500 DampE=1.000 DampFc=0.5000 IDamp=-1.
 Damping current iteration by 5.00D-01
 RMSDP=4.60D-05 MaxDP=3.31D-03 DE=-9.48D-04 OVMax= 1.04D-02

 Cycle  13  Pass 1  IDiag  1:
 E= -1775.94158664734     Delta-E=       -0.000555292286 Rises=F Damp=T
 DIIS: error= 2.12D-03 at cycle  13 NSaved=  13.
 NSaved=13 IEnMin=13 EnMin= -1775.94158664734     IErMin=10 ErrMin= 2.06D-03
 ErrMax= 2.12D-03  0.00D+00 EMaxC= 1.00D+00 BMatC= 8.95D-05 BMatP= 9.86D-05
 IDIUse=1 WtCom= 1.00D+00 WtEn= 0.00D+00
 Coeff-Com: -0.431D-03-0.896D-01 0.157D+00 0.333D+00-0.630D+00-0.103D+00
 Coeff-Com:  0.662D+00 0.110D+01-0.416D+01 0.444D+01-0.566D+01 0.744D+01
 Coeff-Com: -0.250D+01
 Coeff:     -0.431D-03-0.896D-01 0.157D+00 0.333D+00-0.630D+00-0.103D+00
 Coeff:      0.662D+00 0.110D+01-0.416D+01 0.444D+01-0.566D+01 0.744D+01
 Coeff:     -0.250D+01
 Gap=     0.219 Goal=   None    Shift=    0.500
 Gap=     0.070 Goal=   None    Shift=    0.500
 GapD=    0.070 DampG=0.500 DampE=1.000 DampFc=0.5000 IDamp=-1.
 Damping current iteration by 5.00D-01
 RMSDP=3.65D-05 MaxDP=2.48D-03 DE=-5.55D-04 OVMax= 8.95D-03

 Cycle  14  Pass 1  IDiag  1:
 E= -1775.94193127788     Delta-E=       -0.000344630535 Rises=F Damp=T
 DIIS: error= 2.13D-03 at cycle  14 NSaved=  14.
 NSaved=14 IEnMin=14 EnMin= -1775.94193127788     IErMin=10 ErrMin= 2.06D-03
 ErrMax= 2.13D-03  0.00D+00 EMaxC= 1.00D+00 BMatC= 8.86D-05 BMatP= 8.95D-05
 IDIUse=1 WtCom= 1.00D+00 WtEn= 0.00D+00
 Large coefficients: NSaved= 14 BigCof=   15.58 CofMax=   10.00 Det=-1.08D-09
 Inversion failed.  Reducing to 13 matrices.
 Large coefficients: NSaved= 13 BigCof=   15.51 CofMax=   10.00 Det=-1.08D-09
 Inversion failed.  Reducing to 12 matrices.
 Coeff-Com: -0.336D-01 0.215D+00-0.214D+00-0.193D+00 0.406D+00 0.894D+00
 Coeff-Com: -0.348D+01 0.345D+01-0.336D+01 0.537D+01-0.279D+01 0.735D+00
 Coeff:     -0.336D-01 0.215D+00-0.214D+00-0.193D+00 0.406D+00 0.894D+00
 Coeff:     -0.348D+01 0.345D+01-0.336D+01 0.537D+01-0.279D+01 0.735D+00
 Gap=     0.219 Goal=   None    Shift=    0.500
 Gap=     0.070 Goal=   None    Shift=    0.500
 GapD=    0.070 DampG=0.500 DampE=1.000 DampFc=0.5000 IDamp=-1.
 Damping current iteration by 5.00D-01
 RMSDP=3.01D-05 MaxDP=2.07D-03 DE=-3.45D-04 OVMax= 7.96D-03

 Cycle  15  Pass 1  IDiag  1:
 E= -1775.94215989486     Delta-E=       -0.000228616977 Rises=F Damp=T
 DIIS: error= 2.13D-03 at cycle  15 NSaved=  13.
 NSaved=13 IEnMin=13 EnMin= -1775.94215989486     IErMin= 8 ErrMin= 2.06D-03
 ErrMax= 2.13D-03  0.00D+00 EMaxC= 1.00D+00 BMatC= 9.38D-05 BMatP= 8.86D-05
 IDIUse=1 WtCom= 1.00D+00 WtEn= 0.00D+00
 Large coefficients: NSaved= 13 BigCof=   13.14 CofMax=   10.00 Det=-1.47D-09
 Inversion failed.  Reducing to 12 matrices.
 Large coefficients: NSaved= 12 BigCof=   13.11 CofMax=   10.00 Det=-1.60D-09
 Inversion failed.  Reducing to 11 matrices.
 Large coefficients: NSaved= 11 BigCof=   11.31 CofMax=   10.00 Det=-9.34D-10
 Inversion failed.  Reducing to 10 matrices.
 Large coefficients: NSaved= 10 BigCof=   11.00 CofMax=   10.00 Det=-1.80D-09
 Inversion failed.  Reducing to  9 matrices.
 Coeff-Com:  0.192D-01 0.865D+00-0.327D+01 0.427D+01-0.600D+01 0.764D+01
 Coeff-Com: -0.170D+01-0.151D+01 0.699D+00
 Coeff:      0.192D-01 0.865D+00-0.327D+01 0.427D+01-0.600D+01 0.764D+01
 Coeff:     -0.170D+01-0.151D+01 0.699D+00
 Gap=     0.219 Goal=   None    Shift=    0.500
 Gap=     0.070 Goal=   None    Shift=    0.500
 GapD=    0.070 DampG=0.500 DampE=1.000 DampFc=0.5000 IDamp=-1.
 Damping current iteration by 5.00D-01
 RMSDP=2.47D-05 MaxDP=1.69D-03 DE=-2.29D-04 OVMax= 6.73D-03

 Cycle  16  Pass 1  IDiag  1:
 E= -1775.94231954802     Delta-E=       -0.000159653162 Rises=F Damp=T
 DIIS: error= 2.11D-03 at cycle  16 NSaved=  10.
 NSaved=10 IEnMin=10 EnMin= -1775.94231954802     IErMin= 4 ErrMin= 2.06D-03
 ErrMax= 2.11D-03  0.00D+00 EMaxC= 1.00D+00 BMatC= 1.04D-04 BMatP= 8.86D-05
 IDIUse=1 WtCom= 1.00D+00 WtEn= 0.00D+00
 Coeff-Com:  0.193D-01 0.864D+00-0.326D+01 0.424D+01-0.594D+01 0.747D+01
 Coeff-Com: -0.141D+01-0.169D+01 0.615D+00 0.908D-01
 Coeff:      0.193D-01 0.864D+00-0.326D+01 0.424D+01-0.594D+01 0.747D+01
 Coeff:     -0.141D+01-0.169D+01 0.615D+00 0.908D-01
 Gap=     0.219 Goal=   None    Shift=    0.500
 Gap=     0.070 Goal=   None    Shift=    0.500
 RMSDP=2.09D-05 MaxDP=1.41D-03 DE=-1.60D-04 OVMax= 5.91D-03

 Cycle  17  Pass 1  IDiag  1:
 E= -1775.94256276590     Delta-E=       -0.000243217887 Rises=F Damp=F
 DIIS: error= 2.08D-03 at cycle  17 NSaved=  11.
 NSaved=11 IEnMin=11 EnMin= -1775.94256276590     IErMin= 4 ErrMin= 2.06D-03
 ErrMax= 2.08D-03  0.00D+00 EMaxC= 1.00D+00 BMatC= 1.37D-04 BMatP= 8.86D-05
 IDIUse=1 WtCom= 1.00D+00 WtEn= 0.00D+00
 Coeff-Com:  0.315D-01 0.807D+00-0.323D+01 0.419D+01-0.456D+01 0.359D+01
 Coeff-Com:  0.182D+01-0.168D+01 0.288D+01-0.450D+01 0.165D+01
 Coeff:      0.315D-01 0.807D+00-0.323D+01 0.419D+01-0.456D+01 0.359D+01
 Coeff:      0.182D+01-0.168D+01 0.288D+01-0.450D+01 0.165D+01
 Gap=     0.219 Goal=   None    Shift=    0.500
 Gap=     0.070 Goal=   None    Shift=    0.500
 GapD=    0.070 DampG=0.500 DampE=1.000 DampFc=0.5000 IDamp=-1.
 Damping current iteration by 5.00D-01
 RMSDP=8.08D-06 MaxDP=5.28D-04 DE=-2.43D-04 OVMax= 5.40D-03

 Cycle  18  Pass 1  IDiag  1:
 E= -1775.94259542775     Delta-E=       -0.000032661848 Rises=F Damp=T
 DIIS: error= 2.07D-03 at cycle  18 NSaved=  12.
 NSaved=12 IEnMin=12 EnMin= -1775.94259542775     IErMin= 4 ErrMin= 2.06D-03
 ErrMax= 2.07D-03  0.00D+00 EMaxC= 1.00D+00 BMatC= 1.45D-04 BMatP= 8.86D-05
 IDIUse=1 WtCom= 1.00D+00 WtEn= 0.00D+00
 Large coefficients: NSaved= 12 BigCof=   60.03 CofMax=   10.00 Det=-5.49D-10
 Inversion failed.  Reducing to 11 matrices.
 Large coefficients: NSaved= 11 BigCof=   59.71 CofMax=   10.00 Det=-7.62D-10
 Inversion failed.  Reducing to 10 matrices.
 Large coefficients: NSaved= 10 BigCof=   61.55 CofMax=   10.00 Det=-7.64D-10
 Inversion failed.  Reducing to  9 matrices.
 Large coefficients: NSaved=  9 BigCof=   55.67 CofMax=   10.00 Det=-7.85D-10
 Inversion failed.  Reducing to  8 matrices.
 Large coefficients: NSaved=  8 BigCof=   55.71 CofMax=   10.00 Det=-8.78D-10
 Inversion failed.  Reducing to  7 matrices.
 Large coefficients: NSaved=  7 BigCof=   54.69 CofMax=   10.00 Det=-9.06D-10
 Inversion failed.  Reducing to  6 matrices.
 Large coefficients: NSaved=  6 BigCof=   52.18 CofMax=   10.00 Det=-9.29D-10
 Inversion failed.  Reducing to  5 matrices.
 Large coefficients: NSaved=  5 BigCof=   53.37 CofMax=   10.00 Det=-9.52D-10
 Inversion failed.  Reducing to  4 matrices.
 Large coefficients: NSaved=  4 BigCof=   42.23 CofMax=   10.00 Det=-1.34D-09
 Inversion failed.  Reducing to  3 matrices.
 Large coefficients: NSaved=  3 BigCof=   22.48 CofMax=   10.00 Det=-4.18D-09
 Inversion failed.  Reducing to  2 matrices.
 Large coefficients: NSaved=  2 BigCof=   15.22 CofMax=   10.00 Det=-2.63D-07
 Coeff-Com:  0.152D+02-0.142D+02
 Coeff:      0.152D+02-0.142D+02
 Gap=     0.219 Goal=   None    Shift=    0.500
 Gap=     0.071 Goal=   None    Shift=    0.500
 GapD=    0.071 DampG=0.500 DampE=1.000 DampFc=0.5000 IDamp=-1.
 Damping current iteration by 5.00D-01
 RMSDP=1.16D-05 MaxDP=8.12D-04 DE=-3.27D-05 OVMax= 4.76D-03

 Cycle  19  Pass 1  IDiag  1:
 E= -1775.94264047557     Delta-E=       -0.000045047820 Rises=F Damp=T
 DIIS: error= 2.05D-03 at cycle  19 NSaved=   3.
 NSaved= 3 IEnMin= 3 EnMin= -1775.94264047557     IErMin= 3 ErrMin= 2.05D-03
 ErrMax= 2.05D-03  0.00D+00 EMaxC= 1.00D+00 BMatC= 1.61D-04 BMatP= 1.37D-04
 IDIUse=1 WtCom= 1.00D+00 WtEn= 0.00D+00
 Large coefficients: NSaved=  3 BigCof=   18.35 CofMax=   10.00 Det=-2.18D-08
 Inversion failed.  Reducing to  2 matrices.
 Coeff-Com:  0.745D+01-0.645D+01
 Coeff:      0.745D+01-0.645D+01
 Gap=     0.221 Goal=   None    Shift=    0.500
 Gap=     0.071 Goal=   None    Shift=    0.500
 GapD=    0.071 DampG=0.500 DampE=1.000 DampFc=0.5000 IDamp=-1.
 Damping current iteration by 5.00D-01
 RMSDP=2.00D-05 MaxDP=1.73D-03 DE=-4.50D-05 OVMax= 6.29D-03

 Cycle  20  Pass 1  IDiag  1:
 E= -1775.94270809925     Delta-E=       -0.000067623679 Rises=F Damp=T
 DIIS: error= 2.06D-03 at cycle  20 NSaved=   3.
 NSaved= 3 IEnMin= 3 EnMin= -1775.94270809925     IErMin= 2 ErrMin= 2.05D-03
 ErrMax= 2.06D-03  0.00D+00 EMaxC= 1.00D+00 BMatC= 1.59D-04 BMatP= 1.45D-04
 IDIUse=1 WtCom= 1.00D+00 WtEn= 0.00D+00
 Coeff-Com:  0.801D+01-0.915D+01 0.214D+01
 Coeff:      0.801D+01-0.915D+01 0.214D+01
 Gap=     0.221 Goal=   None    Shift=    0.500
 Gap=     0.071 Goal=   None    Shift=    0.500
 GapD=    0.071 DampG=0.500 DampE=1.000 DampFc=0.5000 IDamp=-1.
 Damping current iteration by 5.00D-01
 RMSDP=2.56D-05 MaxDP=2.93D-03 DE=-6.76D-05 OVMax= 6.75D-03

 Cycle  21  Pass 1  IDiag  1:
 E= -1775.94278965541     Delta-E=       -0.000081556157 Rises=F Damp=T
 DIIS: error= 2.08D-03 at cycle  21 NSaved=   4.
 NSaved= 4 IEnMin= 4 EnMin= -1775.94278965541     IErMin= 2 ErrMin= 2.05D-03
 ErrMax= 2.08D-03  0.00D+00 EMaxC= 1.00D+00 BMatC= 1.58D-04 BMatP= 1.45D-04
 IDIUse=1 WtCom= 1.00D+00 WtEn= 0.00D+00
 Coeff-Com:  0.833D+01-0.966D+01 0.550D+01-0.316D+01
 Coeff:      0.833D+01-0.966D+01 0.550D+01-0.316D+01
 Gap=     0.220 Goal=   None    Shift=    0.500
 Gap=     0.071 Goal=   None    Shift=    0.500
 GapD=    0.071 DampG=0.500 DampE=1.000 DampFc=0.5000 IDamp=-1.
 Damping current iteration by 5.00D-01
 RMSDP=1.37D-05 MaxDP=7.74D-04 DE=-8.16D-05 OVMax= 3.27D-03

 Cycle  22  Pass 1  IDiag  1:
 E= -1775.94284478088     Delta-E=       -0.000055125472 Rises=F Damp=T
 DIIS: error= 2.06D-03 at cycle  22 NSaved=   5.
 NSaved= 5 IEnMin= 5 EnMin= -1775.94284478088     IErMin= 2 ErrMin= 2.05D-03
 ErrMax= 2.06D-03  0.00D+00 EMaxC= 1.00D+00 BMatC= 1.81D-04 BMatP= 1.45D-04
 IDIUse=1 WtCom= 1.00D+00 WtEn= 0.00D+00
 Large coefficients: NSaved=  5 BigCof=   10.75 CofMax=   10.00 Det=-3.57D-08
 Inversion failed.  Reducing to  4 matrices.
 Coeff-Com:  0.178D+01-0.451D+01 0.944D+01-0.571D+01
 Coeff:      0.178D+01-0.451D+01 0.944D+01-0.571D+01
 Gap=     0.223 Goal=   None    Shift=    0.500
 Gap=     0.072 Goal=   None    Shift=    0.500
 GapD=    0.072 DampG=0.500 DampE=1.000 DampFc=0.5000 IDamp=-1.
 Damping current iteration by 5.00D-01
 RMSDP=2.78D-05 MaxDP=3.68D-03 DE=-5.51D-05 OVMax= 7.02D-03

 Cycle  23  Pass 1  IDiag  1:
 E= -1775.94292958294     Delta-E=       -0.000084802055 Rises=F Damp=T
 DIIS: error= 2.08D-03 at cycle  23 NSaved=   5.
 NSaved= 5 IEnMin= 5 EnMin= -1775.94292958294     IErMin= 1 ErrMin= 2.05D-03
 ErrMax= 2.08D-03  0.00D+00 EMaxC= 1.00D+00 BMatC= 1.75D-04 BMatP= 1.58D-04
 IDIUse=1 WtCom= 1.00D+00 WtEn= 0.00D+00
 Coeff-Com:  0.121D+01 0.163D+01 0.365D+01-0.827D+01 0.279D+01
 Coeff:      0.121D+01 0.163D+01 0.365D+01-0.827D+01 0.279D+01
 Gap=     0.221 Goal=   None    Shift=    0.500
 Gap=     0.072 Goal=   None    Shift=    0.500
 GapD=    0.072 DampG=0.500 DampE=1.000 DampFc=0.5000 IDamp=-1.
 Damping current iteration by 5.00D-01
 RMSDP=1.87D-05 MaxDP=1.73D-03 DE=-8.48D-05 OVMax= 4.38D-03

 Cycle  24  Pass 1  IDiag  1:
 E= -1775.94300033232     Delta-E=       -0.000070749386 Rises=F Damp=T
 DIIS: error= 2.08D-03 at cycle  24 NSaved=   6.
 NSaved= 6 IEnMin= 6 EnMin= -1775.94300033232     IErMin= 1 ErrMin= 2.05D-03
 ErrMax= 2.08D-03  0.00D+00 EMaxC= 1.00D+00 BMatC= 1.86D-04 BMatP= 1.58D-04
 IDIUse=1 WtCom= 1.00D+00 WtEn= 0.00D+00
 Coeff-Com:  0.121D+01 0.168D+01 0.367D+01-0.837D+01 0.260D+01 0.199D+00
 Coeff:      0.121D+01 0.168D+01 0.367D+01-0.837D+01 0.260D+01 0.199D+00
 Gap=     0.222 Goal=   None    Shift=    0.500
 Gap=     0.072 Goal=   None    Shift=    0.500
 GapD=    0.072 DampG=0.500 DampE=1.000 DampFc=0.5000 IDamp=-1.
 Damping current iteration by 5.00D-01
 RMSDP=1.47D-05 MaxDP=1.01D-03 DE=-7.07D-05 OVMax= 3.88D-03

 Cycle  25  Pass 1  IDiag  1:
 E= -1775.94306027833     Delta-E=       -0.000059946011 Rises=F Damp=T
 DIIS: error= 2.07D-03 at cycle  25 NSaved=   7.
 NSaved= 7 IEnMin= 7 EnMin= -1775.94306027833     IErMin= 1 ErrMin= 2.05D-03
 ErrMax= 2.07D-03  0.00D+00 EMaxC= 1.00D+00 BMatC= 2.01D-04 BMatP= 1.58D-04
 IDIUse=1 WtCom= 1.00D+00 WtEn= 0.00D+00
 Large coefficients: NSaved=  7 BigCof=   41.92 CofMax=   10.00 Det=-2.58D-09
 Inversion failed.  Reducing to  6 matrices.
 Large coefficients: NSaved=  6 BigCof=   39.45 CofMax=   10.00 Det=-3.73D-09
 Inversion failed.  Reducing to  5 matrices.
 Large coefficients: NSaved=  5 BigCof=   28.75 CofMax=   10.00 Det=-4.36D-09
 Inversion failed.  Reducing to  4 matrices.
 Large coefficients: NSaved=  4 BigCof=   30.94 CofMax=   10.00 Det=-5.79D-09
 Inversion failed.  Reducing to  3 matrices.
 Large coefficients: NSaved=  3 BigCof=   10.84 CofMax=   10.00 Det=-1.63D-08
 Inversion failed.  Reducing to  2 matrices.
 Large coefficients: NSaved=  2 BigCof=   13.07 CofMax=   10.00 Det=-6.27D-07
 Coeff-Com:  0.131D+02-0.121D+02
 Coeff:      0.131D+02-0.121D+02
 Gap=     0.220 Goal=   None    Shift=    0.500
 Gap=     0.072 Goal=   None    Shift=    0.500
 GapD=    0.072 DampG=0.500 DampE=1.000 DampFc=0.5000 IDamp=-1.
 Damping current iteration by 5.00D-01
 RMSDP=1.21D-05 MaxDP=1.40D-03 DE=-5.99D-05 OVMax= 2.33D-03

 Cycle  26  Pass 1  IDiag  1:
 E= -1775.94309548510     Delta-E=       -0.000035206770 Rises=F Damp=T
 DIIS: error= 2.04D-03 at cycle  26 NSaved=   3.
 NSaved= 3 IEnMin= 3 EnMin= -1775.94309548510     IErMin= 3 ErrMin= 2.04D-03
 ErrMax= 2.04D-03  0.00D+00 EMaxC= 1.00D+00 BMatC= 2.31D-04 BMatP= 1.86D-04
 IDIUse=1 WtCom= 1.00D+00 WtEn= 0.00D+00
 Large coefficients: NSaved=  3 BigCof=   14.07 CofMax=   10.00 Det=-9.07D-08
 Inversion failed.  Reducing to  2 matrices.
 Coeff-Com:  0.614D+01-0.514D+01
 Coeff:      0.614D+01-0.514D+01
 Gap=     0.225 Goal=   None    Shift=    0.500
 Gap=     0.073 Goal=   None    Shift=    0.500
 GapD=    0.073 DampG=0.500 DampE=1.000 DampFc=0.5000 IDamp=-1.
 Damping current iteration by 5.00D-01
 RMSDP=3.42D-05 MaxDP=4.92D-03 DE=-3.52D-05 OVMax= 7.52D-03

 Cycle  27  Pass 1  IDiag  1:
 E= -1775.94318653959     Delta-E=       -0.000091054488 Rises=F Damp=T
 DIIS: error= 2.10D-03 at cycle  27 NSaved=   3.
 NSaved= 3 IEnMin= 3 EnMin= -1775.94318653959     IErMin= 2 ErrMin= 2.04D-03
 ErrMax= 2.10D-03  0.00D+00 EMaxC= 1.00D+00 BMatC= 1.88D-04 BMatP= 2.01D-04
 IDIUse=1 WtCom= 1.00D+00 WtEn= 0.00D+00
 Coeff-Com:  0.520D+01-0.583D+01 0.163D+01
 Coeff:      0.520D+01-0.583D+01 0.163D+01
 Gap=     0.226 Goal=   None    Shift=    0.500
 Gap=     0.073 Goal=   None    Shift=    0.500
 GapD=    0.073 DampG=0.500 DampE=1.000 DampFc=0.5000 IDamp=-1.
 Damping current iteration by 5.00D-01
 RMSDP=4.36D-05 MaxDP=6.63D-03 DE=-9.11D-05 OVMax= 8.50D-03

 Cycle  28  Pass 1  IDiag  1:
 E= -1775.94329913568     Delta-E=       -0.000112596088 Rises=F Damp=T
 DIIS: error= 2.16D-03 at cycle  28 NSaved=   4.
 NSaved= 4 IEnMin= 4 EnMin= -1775.94329913568     IErMin= 2 ErrMin= 2.04D-03
 ErrMax= 2.16D-03  0.00D+00 EMaxC= 1.00D+00 BMatC= 1.66D-04 BMatP= 1.88D-04
 IDIUse=1 WtCom= 1.00D+00 WtEn= 0.00D+00
 Coeff-Com:  0.616D+01-0.698D+01 0.324D+01-0.143D+01
 Coeff:      0.616D+01-0.698D+01 0.324D+01-0.143D+01
 Gap=     0.225 Goal=   None    Shift=    0.500
 Gap=     0.073 Goal=   None    Shift=    0.500
 GapD=    0.073 DampG=0.500 DampE=1.000 DampFc=0.5000 IDamp=-1.
 Damping current iteration by 5.00D-01
 RMSDP=2.81D-05 MaxDP=3.57D-03 DE=-1.13D-04 OVMax= 5.63D-03

 Cycle  29  Pass 1  IDiag  1:
 E= -1775.94339428150     Delta-E=       -0.000095145819 Rises=F Damp=T
 DIIS: error= 2.17D-03 at cycle  29 NSaved=   5.
 NSaved= 5 IEnMin= 5 EnMin= -1775.94339428150     IErMin= 2 ErrMin= 2.04D-03
 ErrMax= 2.17D-03  0.00D+00 EMaxC= 1.00D+00 BMatC= 1.73D-04 BMatP= 1.66D-04
 IDIUse=1 WtCom= 1.00D+00 WtEn= 0.00D+00
 Coeff-Com:  0.615D+01-0.696D+01 0.322D+01-0.140D+01-0.163D-01
 Coeff:      0.615D+01-0.696D+01 0.322D+01-0.140D+01-0.163D-01
 Gap=     0.225 Goal=   None    Shift=    0.500
 Gap=     0.073 Goal=   None    Shift=    0.500
 GapD=    0.073 DampG=0.500 DampE=1.000 DampFc=0.5000 IDamp=-1.
 Damping current iteration by 5.00D-01
 RMSDP=2.05D-05 MaxDP=1.95D-03 DE=-9.51D-05 OVMax= 4.91D-03

 Cycle  30  Pass 1  IDiag  1:
 E= -1775.94347441316     Delta-E=       -0.000080131662 Rises=F Damp=T
 DIIS: error= 2.15D-03 at cycle  30 NSaved=   6.
 NSaved= 6 IEnMin= 6 EnMin= -1775.94347441316     IErMin= 2 ErrMin= 2.04D-03
 ErrMax= 2.15D-03  0.00D+00 EMaxC= 1.00D+00 BMatC= 1.90D-04 BMatP= 1.66D-04
 IDIUse=1 WtCom= 1.00D+00 WtEn= 0.00D+00
 Large coefficients: NSaved=  6 BigCof=   44.12 CofMax=   10.00 Det=-2.96D-09
 Inversion failed.  Reducing to  5 matrices.
 Large coefficients: NSaved=  5 BigCof=   43.39 CofMax=   10.00 Det=-2.96D-09
 Inversion failed.  Reducing to  4 matrices.
 Large coefficients: NSaved=  4 BigCof=   53.49 CofMax=   10.00 Det=-3.18D-09
 Inversion failed.  Reducing to  3 matrices.
 Large coefficients: NSaved=  3 BigCof=   22.73 CofMax=   10.00 Det=-6.54D-08
 Inversion failed.  Reducing to  2 matrices.
 Coeff-Com:  0.730D+01-0.630D+01
 Coeff:      0.730D+01-0.630D+01
 Gap=     0.225 Goal=   None    Shift=    0.500
 Gap=     0.074 Goal=   None    Shift=    0.500
 GapD=    0.074 DampG=0.500 DampE=1.000 DampFc=0.5000 IDamp=-1.
 Damping current iteration by 5.00D-01
 RMSDP=2.09D-05 MaxDP=2.38D-03 DE=-8.01D-05 OVMax= 4.50D-03

 Cycle  31  Pass 1  IDiag  1:
 E= -1775.94354648780     Delta-E=       -0.000072074638 Rises=F Damp=T
 DIIS: error= 2.15D-03 at cycle  31 NSaved=   3.
 NSaved= 3 IEnMin= 3 EnMin= -1775.94354648780     IErMin= 3 ErrMin= 2.15D-03
 ErrMax= 2.15D-03  0.00D+00 EMaxC= 1.00D+00 BMatC= 2.02D-04 BMatP= 1.73D-04
 IDIUse=1 WtCom= 1.00D+00 WtEn= 0.00D+00
 Large coefficients: NSaved=  3 BigCof=   11.58 CofMax=   10.00 Det=-4.50D-07
 Inversion failed.  Reducing to  2 matrices.
 Coeff-Com:  0.158D+01-0.584D+00
 Coeff:      0.158D+01-0.584D+00
 Gap=     0.231 Goal=   None    Shift=    0.500
 Gap=     0.075 Goal=   None    Shift=    0.500
 GapD=    0.075 DampG=0.500 DampE=1.000 DampFc=0.5000 IDamp=-1.
 Damping current iteration by 5.00D-01
 RMSDP=5.29D-05 MaxDP=8.34D-03 DE=-7.21D-05 OVMax= 8.41D-03

 Cycle  32  Pass 1  IDiag  1:
 E= -1775.94366456463     Delta-E=       -0.000118076828 Rises=F Damp=T
 DIIS: error= 2.28D-03 at cycle  32 NSaved=   3.
 NSaved= 3 IEnMin= 3 EnMin= -1775.94366456463     IErMin= 2 ErrMin= 2.15D-03
 ErrMax= 2.28D-03  0.00D+00 EMaxC= 1.00D+00 BMatC= 1.42D-04 BMatP= 1.90D-04
 IDIUse=1 WtCom= 1.00D+00 WtEn= 0.00D+00
 Coeff-Com:  0.132D+01-0.207D+01 0.175D+01
 Coeff:      0.132D+01-0.207D+01 0.175D+01
 Gap=     0.231 Goal=   None    Shift=    0.500
 Gap=     0.074 Goal=   None    Shift=    0.500
 GapD=    0.074 DampG=0.500 DampE=1.000 DampFc=0.5000 IDamp=-1.
 Damping current iteration by 5.00D-01
 RMSDP=5.22D-05 MaxDP=7.59D-03 DE=-1.18D-04 OVMax= 1.02D-02

 >>>>>>>>>> Convergence criterion not met.
 SCF Done:  E(ULC-wHPBE) =  -1775.94366456     A.U. after   33 cycles
            NFock= 32  Conv=0.52D-04     -V/T= 2.0036
 <Sx>= 0.0000 <Sy>= 0.0000 <Sz>= 0.5000 <S**2>= 0.7576 S= 0.5038
 <L.S>= 0.000000000000E+00
 KE= 1.769527032813D+03 PE=-9.093293110104D+03 EE= 3.073137645366D+03
 Annihilation of the first spin contaminant:
 S**2 before annihilation     0.7576,   after     0.7498
 Leave Link  502 at Tue Jan 19 15:55:40 2021, MaxMem=  4026531840 cpu:           12529.3 elap:            1570.2
 (Enter /opt/ohpc/pub/libs/gaussian/g16-A.03/sandybridge/g16/l508.exe)
 Integral symmetry usage will be decided dynamically.
 Tight linear equation convergence will be used.
 ULC-wHPBE wavefunction.
 Quadratic Convergence SCF Method.
 Line search only if initial step raises energy.
 FoFJK:  IHMeth= 1 ICntrl=       0 DoSepK=T KAlg= 0 I1Cent=           0 FoldK=F
 IRaf=         1 NMat=       1 IRICut=       1 DoRegI=T DoRafI=F ISym2E= 1 IDoP0=0 IntGTp=1.
 FoFCou: FMM=F IPFlag=           0 FMFlag=      100000 FMFlg1=           0
         NFxFlg=           0 DoJE=T BraDBF=F KetDBF=F FulRan=T
         wScrn=  0.000000 ICntrl=       500 IOpCl=  0 I1Cent=           0 NGrid=           0
         NMat0=    1 NMatS0=      1 NMatT0=    0 NMatD0=    1 NMtDS0=    0 NMtDT0=    0
 Petite list used in FoFCou.
 Iteration   1 EE= -1775.94395544467                                    Grad=7.866D-03 Max rot=    0.3733 deg.
 QCNR:  CnvC1=7.87D-08 CnvC2=7.87D-07
 LinEq1:  Iter=  0 NonCon=     1 RMS=2.70D-04 Max=8.70D-02 NDo=     1
 AX will form     1 AO Fock derivatives at one time.
 LinEq1:  Iter=  1 NonCon=     1 RMS=6.15D-05 Max=4.78D-03 NDo=     1
 LinEq1:  Iter=  2 NonCon=     1 RMS=3.94D-05 Max=6.56D-03 NDo=     1
 LinEq1:  Iter=  3 NonCon=     1 RMS=2.94D-05 Max=3.99D-03 NDo=     1
 LinEq1:  Iter=  4 NonCon=     1 RMS=1.80D-05 Max=1.88D-03 NDo=     1
 LinEq1:  Iter=  5 NonCon=     1 RMS=1.35D-05 Max=1.37D-03 NDo=     1
 LinEq1:  Iter=  6 NonCon=     1 RMS=8.72D-06 Max=1.42D-03 NDo=     1
 LinEq1:  Iter=  7 NonCon=     1 RMS=5.59D-06 Max=5.99D-04 NDo=     1
 LinEq1:  Iter=  8 NonCon=     1 RMS=3.05D-06 Max=2.25D-04 NDo=     1
 LinEq1:  Iter=  9 NonCon=     1 RMS=1.56D-06 Max=1.05D-04 NDo=     1
 LinEq1:  Iter= 10 NonCon=     1 RMS=8.89D-07 Max=5.04D-05 NDo=     1
 LinEq1:  Iter= 11 NonCon=     1 RMS=5.16D-07 Max=2.72D-05 NDo=     1
 LinEq1:  Iter= 12 NonCon=     1 RMS=2.68D-07 Max=1.39D-05 NDo=     1
 LinEq1:  Iter= 13 NonCon=     1 RMS=1.53D-07 Max=8.69D-06 NDo=     1
 LinEq1:  Iter= 14 NonCon=     1 RMS=7.82D-08 Max=4.35D-06 NDo=     1
 LinEq1:  Iter= 15 NonCon=     1 RMS=4.02D-08 Max=2.13D-06 NDo=     1
 LinEq1:  Iter= 16 NonCon=     1 RMS=2.46D-08 Max=1.14D-06 NDo=     1
 LinEq1:  Iter= 17 NonCon=     1 RMS=1.59D-08 Max=8.41D-07 NDo=     1
 LinEq1:  Iter= 18 NonCon=     1 RMS=8.78D-09 Max=8.57D-07 NDo=     1
 LinEq1:  Iter= 19 NonCon=     0 RMS=5.33D-09 Max=3.13D-07 NDo=     1
 Linear equations converged to 7.866D-08 7.866D-07 after    19 iterations.
 Angle between quadratic step and gradient= 158.67 degrees.
 Incorrect curvature in search direction -- initial direction reversed.
     ILin= 1 X=0.000D+00 Y=-1.775943955445D+03 DE= 0.00D+00 F= -1.46D-02
     ILin= 2 X=8.000D-01 Y=-1.775953034046D+03 DE=-9.08D-03 F= -5.30D-03
     Reject lnstep minimum 3.001D+00 FVal=-1.775961694436D+03 Lims=  0.00D+00  8.00D-01
     ILin= 3 X=1.200D+00 Y=-1.775955066379D+03 DE=-1.11D-02 F= -1.69D-03
     Note:  rotation exceeds Pi/2.
     ILin= 4 X=1.700D+00 Y=-1.775938475476D+03 DE= 5.48D-03 F=  9.26D-02
     An  expanding polynomial of degree  4 produced  1.0980
     Minimum is close to point  3 DX= -1.02D-01 DF= -3.73D-04 DXR=  9.28D-02 DFR=  3.35D-02 which will be used.
 Iteration   2 EE= -1775.95506637860     Delta-E=       -0.011110933927 Grad=4.626D-02 Max rot=    0.2442 deg.
 Gradient too large for Newton-Raphson -- use scaled steepest descent instead.
     ILin= 1 X=0.000D+00 Y=-1.775955066379D+03 DE= 0.00D+00 F= -3.25D-03
     ILin= 2 X=3.000D-01 Y=-1.775955893329D+03 DE=-8.27D-04 F= -2.26D-03
     ILin= 3 X=6.000D-01 Y=-1.775956421404D+03 DE=-1.36D-03 F= -1.26D-03
     ILin= 4 X=1.200D+00 Y=-1.775956580836D+03 DE=-1.51D-03 F=  7.31D-04
     Accept linear search using points  3 and  4.
     An  expanding polynomial of degree  4 produced  0.9329
 Iteration   3 EE= -1775.95665751473     Delta-E=       -0.001591136127 Grad=1.933D-02 Max rot=    0.1659 deg.
 Gradient too large for Newton-Raphson -- use scaled steepest descent instead.
     ILin= 1 X=0.000D+00 Y=-1.775956657515D+03 DE= 0.00D+00 F= -5.34D-04
     ILin= 2 X=5.000D-01 Y=-1.775956876245D+03 DE=-2.19D-04 F= -3.40D-04
     ILin= 3 X=1.100D+00 Y=-1.775957010726D+03 DE=-3.53D-04 F= -1.08D-04
     ILin= 4 X=2.100D+00 Y=-1.775956924605D+03 DE=-2.67D-04 F=  2.80D-04
     An  expanding polynomial of degree  4 produced  1.3779
 Iteration   4 EE= -1775.95702570286     Delta-E=       -0.000368188128 Grad=1.546D-02 Max rot=    0.1176 deg.
 Gradient too large for Newton-Raphson -- use scaled steepest descent instead.
     ILin= 1 X=0.000D+00 Y=-1.775957025703D+03 DE= 0.00D+00 F= -3.24D-04
     ILin= 2 X=1.100D+00 Y=-1.775957169490D+03 DE=-1.44D-04 F=  6.25D-05
     Accept linear search using points  1 and  2.
     An  expanding polynomial of degree  2 produced  0.9492
 Iteration   5 EE= -1775.95717491741     Delta-E=       -0.000149214558 Grad=8.556D-03 Max rot=    0.0976 deg.
 QCNR:  CnvC1=8.56D-08 CnvC2=8.56D-07
 LinEq1:  Iter=  0 NonCon=     1 RMS=8.31D-05 Max=1.58D-02 NDo=     1
 LinEq1:  Iter=  1 NonCon=     1 RMS=5.98D-05 Max=6.35D-03 NDo=     1
 LinEq1:  Iter=  2 NonCon=     1 RMS=3.43D-05 Max=4.33D-03 NDo=     1
 LinEq1:  Iter=  3 NonCon=     1 RMS=1.99D-05 Max=1.29D-03 NDo=     1
 LinEq1:  Iter=  4 NonCon=     1 RMS=1.05D-05 Max=9.22D-04 NDo=     1
 LinEq1:  Iter=  5 NonCon=     1 RMS=5.91D-06 Max=3.66D-04 NDo=     1
 LinEq1:  Iter=  6 NonCon=     1 RMS=3.33D-06 Max=1.83D-04 NDo=     1
 LinEq1:  Iter=  7 NonCon=     1 RMS=2.04D-06 Max=1.24D-04 NDo=     1
 LinEq1:  Iter=  8 NonCon=     1 RMS=1.35D-06 Max=8.74D-05 NDo=     1
 LinEq1:  Iter=  9 NonCon=     1 RMS=6.96D-07 Max=4.37D-05 NDo=     1
 LinEq1:  Iter= 10 NonCon=     1 RMS=3.86D-07 Max=2.29D-05 NDo=     1
 LinEq1:  Iter= 11 NonCon=     1 RMS=2.23D-07 Max=1.50D-05 NDo=     1
 LinEq1:  Iter= 12 NonCon=     1 RMS=1.40D-07 Max=7.61D-06 NDo=     1
 LinEq1:  Iter= 13 NonCon=     1 RMS=8.06D-08 Max=3.84D-06 NDo=     1
 LinEq1:  Iter= 14 NonCon=     1 RMS=4.85D-08 Max=2.71D-06 NDo=     1
 LinEq1:  Iter= 15 NonCon=     1 RMS=2.69D-08 Max=1.40D-06 NDo=     1
 LinEq1:  Iter= 16 NonCon=     0 RMS=1.37D-08 Max=8.10D-07 NDo=     1
 Linear equations converged to 8.556D-08 8.556D-07 after    16 iterations.
 Angle between quadratic step and gradient=  67.22 degrees.
     ILin= 1 X=0.000D+00 Y=-1.775957174917D+03 DE= 0.00D+00 F= -7.39D-04
     ILin= 2 X=1.000D+00 Y=-1.775957529804D+03 DE=-3.55D-04
 Iteration   6 EE= -1775.95752980377     Delta-E=       -0.000354886351 Grad=3.818D-03 Max rot=    0.0286 deg.
 QCNR:  CnvC1=3.82D-08 CnvC2=3.82D-07
 LinEq1:  Iter=  0 NonCon=     1 RMS=2.16D-05 Max=2.56D-03 NDo=     1
 LinEq1:  Iter=  1 NonCon=     1 RMS=1.22D-05 Max=9.65D-04 NDo=     1
 LinEq1:  Iter=  2 NonCon=     1 RMS=8.11D-06 Max=4.88D-04 NDo=     1
 LinEq1:  Iter=  3 NonCon=     1 RMS=4.20D-06 Max=3.85D-04 NDo=     1
 LinEq1:  Iter=  4 NonCon=     1 RMS=3.12D-06 Max=2.21D-04 NDo=     1
 LinEq1:  Iter=  5 NonCon=     1 RMS=1.88D-06 Max=2.13D-04 NDo=     1
 LinEq1:  Iter=  6 NonCon=     1 RMS=1.18D-06 Max=1.15D-04 NDo=     1
 LinEq1:  Iter=  7 NonCon=     1 RMS=6.95D-07 Max=6.26D-05 NDo=     1
 LinEq1:  Iter=  8 NonCon=     1 RMS=3.47D-07 Max=3.04D-05 NDo=     1
 LinEq1:  Iter=  9 NonCon=     1 RMS=1.86D-07 Max=1.29D-05 NDo=     1
 LinEq1:  Iter= 10 NonCon=     1 RMS=1.25D-07 Max=7.17D-06 NDo=     1
 LinEq1:  Iter= 11 NonCon=     1 RMS=7.06D-08 Max=4.37D-06 NDo=     1
 LinEq1:  Iter= 12 NonCon=     1 RMS=3.89D-08 Max=2.05D-06 NDo=     1
 LinEq1:  Iter= 13 NonCon=     1 RMS=2.31D-08 Max=1.16D-06 NDo=     1
 LinEq1:  Iter= 14 NonCon=     1 RMS=1.08D-08 Max=6.52D-07 NDo=     1
 LinEq1:  Iter= 15 NonCon=     1 RMS=6.89D-09 Max=5.53D-07 NDo=     1
 LinEq1:  Iter= 16 NonCon=     0 RMS=3.94D-09 Max=1.73D-07 NDo=     1
 Linear equations converged to 3.818D-08 3.818D-07 after    16 iterations.
 Angle between quadratic step and gradient=  51.35 degrees.
     ILin= 1 X=0.000D+00 Y=-1.775957529804D+03 DE= 0.00D+00 F= -2.16D-05
     ILin= 2 X=1.000D+00 Y=-1.775957540612D+03 DE=-1.08D-05
 Iteration   7 EE= -1775.95754061199     Delta-E=       -0.000010808229 Grad=5.635D-06 Max rot=    0.0002 deg.
 Rotation gradient small -- convergence achieved.
 SCF Done:  E(ULC-wHPBE) =  -1775.95754061     a.u. after    7 cycles
            Convg  =    0.5635D-05                    67 Fock formations.
              S**2 =  0.7677                  -V/T =  2.0036
 <Sx>= 0.0000 <Sy>= 0.0000 <Sz>= 0.5000 <S**2>= 0.7677 S= 0.5088
 <L.S>= 0.000000000000E+00
 Annihilation of the first spin contaminant:
 S**2 before annihilation     0.7677,   after     0.7503
 Leave Link  508 at Tue Jan 19 16:47:03 2021, MaxMem=  4026531840 cpu:           24574.0 elap:            3083.1
 (Enter /opt/ohpc/pub/libs/gaussian/g16-A.03/sandybridge/g16/l601.exe)
 Copying SCF densities to generalized density rwf, IOpCl= 1 IROHF=0.

 **********************************************************************

            Population analysis using the SCF density.

 **********************************************************************

 Orbital symmetries:
 Alpha Orbitals:
       Occupied  (A) (A) (A) (A) (A) (A) (A) (A) (A) (A) (A) (A)
                 (A) (A) (A) (A) (A) (A) (A) (A) (A) (A) (A) (A)
                 (A) (A) (A) (A) (A) (A) (A) (A) (A) (A) (A) (A)
                 (A) (A) (A) (A) (A) (A) (A) (A) (A) (A) (A) (A)
                 (A) (A) (A) (A) (A) (A) (A) (A) (A) (A) (A) (A)
[...]
     3   Atom       -0.056119      0.091286     -0.035167
     4   Atom       -0.000846     -0.000207      0.001054
     5   Atom        0.027739     -0.012868     -0.014871
     6   Atom       -0.073008      0.028572      0.044436
     7   Atom        0.000850     -0.001077      0.000227
     8   Atom        0.001132     -0.000817     -0.000315
     9   Atom        0.000629     -0.000376     -0.000253
    10   Atom       -0.049252      0.066337     -0.017086
    11   Atom        0.022553     -0.009632     -0.012921
    12   Atom       -0.060005      0.070464     -0.010459
    13   Atom        0.012265     -0.023413      0.011149
    14   Atom       -0.002837      0.002071      0.000766
    15   Atom        0.001618     -0.001469     -0.000150
    16   Atom       -0.003711      0.001087      0.002623
    17   Atom       -0.001979      0.001201      0.000778
    18   Atom        0.001169     -0.000482     -0.000687
    19   Atom        0.001686     -0.001095     -0.000591
    20   Atom        0.000322     -0.000123     -0.000199
    21   Atom        0.000431     -0.000249     -0.000182
    22   Atom        0.000123     -0.000162      0.000039
    23   Atom       -0.007346     -0.009162      0.016507
    24   Atom       -0.460990     -0.465239      0.926229
    25   Atom       -0.012695     -0.000308      0.013002
    26   Atom        0.062194     -0.038431     -0.023763
    27   Atom        0.022201     -0.002373     -0.019828
    28   Atom       -0.002884      0.013751     -0.010867
    29   Atom       -0.009122      0.017507     -0.008386
    30   Atom        0.016645     -0.048232      0.031587
    31   Atom       -0.001318      0.001277      0.000041
    32   Atom       -0.000929     -0.000672      0.001601
    33   Atom       -0.000691      0.001213     -0.000523
    34   Atom       -0.000327      0.000595     -0.000269
    35   Atom        0.000883      0.002725     -0.003608
    36   Atom       -0.014123      0.007220      0.006903
    37   Atom        0.031948     -0.051207      0.019259
    38   Atom        0.005006     -0.027499      0.022492
    39   Atom        0.008423      0.018661     -0.027084
    40   Atom        0.005452      0.021051     -0.026503
    41   Atom       -0.030156     -0.056395      0.086551
    42   Atom        0.002287      0.000015     -0.002302
    43   Atom        0.003320     -0.001750     -0.001570
    44   Atom       -0.000301      0.001668     -0.001367
    45   Atom        0.000144      0.001192     -0.001336
    46   Atom       -0.003539      0.005906     -0.002367
 --------------------------------------------------------
                        XY            XZ            YZ
 --------------------------------------------------------
     1   Atom       -0.002122      0.003165      0.000154
     2   Atom       -0.014184     -0.005485      0.009075
     3   Atom        0.036487     -0.008921     -0.030430
     4   Atom        0.001914     -0.002620     -0.003680
     5   Atom        0.009338      0.008125     -0.036337
     6   Atom       -0.031074     -0.032987      0.125959
     7   Atom       -0.000293     -0.000452      0.001170
     8   Atom       -0.000186     -0.001046      0.001877
     9   Atom       -0.000045     -0.000021     -0.000005
    10   Atom       -0.053612     -0.029348      0.081093
    11   Atom        0.013572      0.015822     -0.033818
    12   Atom       -0.013233     -0.011770      0.081325
    13   Atom        0.005748      0.001895     -0.004985
    14   Atom        0.002158     -0.003248     -0.006185
    15   Atom       -0.000159      0.001382     -0.001921
    16   Atom       -0.000940      0.002398     -0.005766
    17   Atom       -0.000085     -0.000630     -0.003232
    18   Atom       -0.001126     -0.001706      0.002135
    19   Atom        0.001538     -0.000050     -0.001792
    20   Atom       -0.000288     -0.000449      0.000419
    21   Atom       -0.000085     -0.000182      0.000149
    22   Atom       -0.000325     -0.000466      0.000200
    23   Atom       -0.001899      0.004236     -0.005152
    24   Atom       -0.052942     -0.282134      0.269861
    25   Atom       -0.016973      0.003207      0.003691
    26   Atom        0.041049     -0.050159     -0.021139
    27   Atom        0.058670     -0.051809     -0.036958
    28   Atom       -0.013337      0.025285      0.011529
    29   Atom       -0.011049      0.027507      0.007542
    30   Atom        0.027617     -0.085326     -0.034809
    31   Atom        0.001905      0.002997      0.004593
    32   Atom        0.001957      0.004461      0.002870
    33   Atom       -0.001248      0.001203      0.000534
    34   Atom       -0.001332      0.001610      0.000128
    35   Atom       -0.006409     -0.000816     -0.004752
    36   Atom        0.010360     -0.013993      0.005063
    37   Atom       -0.010732      0.072740     -0.013585
    38   Atom       -0.037147      0.067219     -0.037776
    39   Atom        0.006282     -0.020411      0.008574
    40   Atom        0.003755     -0.023704      0.003166
    41   Atom       -0.006102      0.069543     -0.018945
    42   Atom       -0.003254     -0.003361      0.002845
    43   Atom       -0.002049     -0.004471      0.001028
    44   Atom        0.000559     -0.001205      0.000513
    45   Atom        0.001048     -0.001397      0.000123
    46   Atom        0.006212      0.002238     -0.002156
 --------------------------------------------------------


 ---------------------------------------------------------------------------------
              Anisotropic Spin Dipole Couplings in Principal Axis System
 ---------------------------------------------------------------------------------

       Atom             a.u.   MegaHertz   Gauss  10(-4) cm-1        Axes

              Baa    -0.0040    -0.540    -0.193    -0.180  0.4201  0.8304 -0.3659
     1 C(13)  Bbb    -0.0013    -0.172    -0.061    -0.057 -0.3333  0.5162  0.7889
              Bcc     0.0053     0.712     0.254     0.237  0.8440 -0.2095  0.4937
 
              Baa    -0.0135    -1.806    -0.644    -0.602 -0.0433 -0.3979  0.9164
     2 C(13)  Bbb    -0.0096    -1.287    -0.459    -0.429  0.8246  0.5037  0.2576
              Bcc     0.0230     3.093     1.104     1.032 -0.5641  0.7668  0.3063
 
              Baa    -0.0648    -2.656    -0.948    -0.886  0.9742 -0.2133  0.0743
     3 S(33)  Bbb    -0.0421    -1.726    -0.616    -0.576 -0.0242  0.2286  0.9732
              Bcc     0.1069     4.382     1.564     1.462  0.2245  0.9499 -0.2176
 
              Baa    -0.0034    -0.450    -0.161    -0.150  0.1973  0.6919  0.6945
     4 C(13)  Bbb    -0.0024    -0.321    -0.115    -0.107  0.8756 -0.4430  0.1926
              Bcc     0.0057     0.771     0.275     0.257 -0.4409 -0.5701  0.6932
 
              Baa    -0.0521    -6.995    -2.496    -2.333 -0.1527  0.6906  0.7069
     5 C(13)  Bbb     0.0223     2.998     1.070     1.000  0.1358 -0.6939  0.7072
              Bcc     0.0298     3.997     1.426     1.333  0.9789  0.2039  0.0122
 
              Baa    -0.0897   -12.038    -4.295    -4.015  0.0084  0.7300 -0.6834
     6 C(13)  Bbb    -0.0814   -10.926    -3.899    -3.644  0.9832  0.1187  0.1389
              Bcc     0.1711    22.963     8.194     7.660 -0.1825  0.6731  0.7167
 
              Baa    -0.0018    -0.237    -0.084    -0.079  0.0093  0.8631 -0.5050
     7 C(13)  Bbb     0.0003     0.046     0.016     0.015  0.7279  0.3405  0.5952
              Bcc     0.0014     0.191     0.068     0.064  0.6856 -0.3731 -0.6250
 
              Baa    -0.0025    -0.342    -0.122    -0.114 -0.1563  0.7186 -0.6776
     8 C(13)  Bbb     0.0004     0.050     0.018     0.017  0.7173  0.5542  0.4223
              Bcc     0.0022     0.292     0.104     0.097  0.6790 -0.4201 -0.6021
 
              Baa    -0.0004    -0.202    -0.072    -0.067  0.0455  0.9978  0.0480
     9 H(1)   Bbb    -0.0003    -0.135    -0.048    -0.045  0.0214 -0.0490  0.9986
              Bcc     0.0006     0.337     0.120     0.112  0.9987 -0.0444 -0.0236
 
              Baa    -0.0710    -9.533    -3.402    -3.180  0.8115  0.4976 -0.3064
    10 C(13)  Bbb    -0.0649    -8.710    -3.108    -2.905  0.4934 -0.3024  0.8156
              Bcc     0.1359    18.243     6.509     6.085 -0.3131  0.8130  0.4909
 
              Baa    -0.0510    -6.847    -2.443    -2.284 -0.2723  0.6607  0.6995
    11 C(13)  Bbb     0.0224     3.006     1.073     1.003  0.1629  0.7481 -0.6433
              Bcc     0.0286     3.841     1.371     1.281  0.9483  0.0612  0.3113
 
              Baa    -0.0643    -8.629    -3.079    -2.878  0.7509 -0.2856  0.5955
    12 C(13)  Bbb    -0.0582    -7.810    -2.787    -2.605  0.6535  0.4513 -0.6076
              Bcc     0.1225    16.439     5.866     5.483 -0.0952  0.8454  0.5255
 
              Baa    -0.0251    -3.364    -1.200    -1.122 -0.1577  0.9771  0.1427
    13 C(13)  Bbb     0.0113     1.513     0.540     0.505 -0.4725 -0.2016  0.8580
              Bcc     0.0138     1.851     0.660     0.617  0.8671  0.0678  0.4935
 
              Baa    -0.0054    -2.896    -1.033    -0.966  0.5367  0.4395  0.7202
    14 H(1)   Bbb    -0.0034    -1.833    -0.654    -0.611  0.7852 -0.5725 -0.2358
              Bcc     0.0089     4.729     1.688     1.578  0.3087  0.6921 -0.6524
 
              Baa    -0.0029    -1.573    -0.561    -0.525 -0.1579  0.7760  0.6107
    15 H(1)   Bbb     0.0002     0.131     0.047     0.044  0.6195  0.5594 -0.5507
              Bcc     0.0027     1.441     0.514     0.481  0.7690 -0.2913  0.5690
 
              Baa    -0.0049    -2.640    -0.942    -0.881  0.7413 -0.3996 -0.5392
    16 H(1)   Bbb    -0.0032    -1.719    -0.613    -0.573  0.6404  0.6617  0.3900
              Bcc     0.0082     4.359     1.555     1.454  0.2009 -0.6344  0.7464
 
              Baa    -0.0027    -0.357    -0.127    -0.119  0.6183  0.5126  0.5957
    17 C(13)  Bbb    -0.0016    -0.214    -0.076    -0.071  0.7837 -0.4595 -0.4180
              Bcc     0.0042     0.570     0.203     0.190  0.0595  0.7253 -0.6859
 
              Baa    -0.0028    -1.489    -0.531    -0.497  0.1483 -0.6315  0.7611
    18 H(1)   Bbb    -0.0006    -0.313    -0.112    -0.104  0.7232  0.5941  0.3521
              Bcc     0.0034     1.802     0.643     0.601  0.6745 -0.4982 -0.5448
 
              Baa    -0.0029    -1.571    -0.561    -0.524 -0.2504  0.7730  0.5829
    19 H(1)   Bbb     0.0003     0.185     0.066     0.062  0.5010 -0.4118  0.7612
              Bcc     0.0026     1.387     0.495     0.463  0.8284  0.4827 -0.2841
 
              Baa    -0.0006    -0.326    -0.116    -0.109  0.2109 -0.5619  0.7999
    20 H(1)   Bbb    -0.0002    -0.108    -0.039    -0.036  0.6490  0.6923  0.3153
              Bcc     0.0008     0.434     0.155     0.145  0.7309 -0.4527 -0.5107
 
              Baa    -0.0004    -0.198    -0.071    -0.066 -0.0699  0.7500 -0.6577
    21 H(1)   Bbb    -0.0001    -0.069    -0.025    -0.023  0.3239  0.6406  0.6962
              Bcc     0.0005     0.268     0.095     0.089  0.9435 -0.1644 -0.2877
 
              Baa    -0.0004    -0.229    -0.082    -0.076  0.7124  0.4941  0.4984
    22 H(1)   Bbb    -0.0003    -0.150    -0.054    -0.050 -0.0988  0.7737 -0.6258
              Bcc     0.0007     0.379     0.135     0.126  0.6948 -0.3965 -0.6000
 
              Baa    -0.0106    -0.435    -0.155    -0.145  0.3859  0.9155  0.1137
    23 S(33)  Bbb    -0.0077    -0.316    -0.113    -0.105  0.9060 -0.3529 -0.2337
              Bcc     0.0183     0.750     0.268     0.250  0.1738 -0.1932  0.9656
 
              Baa    -0.5162   -19.910    -7.104    -6.641  0.9447  0.3017  0.1283
    24 N(14)  Bbb    -0.5157   -19.890    -7.097    -6.634 -0.2680  0.9361 -0.2276
              Bcc     1.0319    39.799    14.201    13.276 -0.1888  0.1807  0.9653
 
              Baa    -0.0252    -3.376    -1.205    -1.126  0.8108  0.5721 -0.1235
    25 C(13)  Bbb     0.0110     1.480     0.528     0.494 -0.5661  0.7131 -0.4135
              Bcc     0.0141     1.896     0.677     0.633 -0.1485  0.4052  0.9021
 
              Baa    -0.0542    -7.280    -2.598    -2.428 -0.1697  0.9183  0.3576
    26 C(13)  Bbb    -0.0463    -6.217    -2.218    -2.074  0.4805 -0.2396  0.8436
              Bcc     0.1006    13.497     4.816     4.502  0.8604  0.3150 -0.4006
 
              Baa    -0.0552    -7.404    -2.642    -2.470  0.6473 -0.2056  0.7339
    27 C(13)  Bbb    -0.0476    -6.389    -2.280    -2.131 -0.3093  0.8092  0.4995
              Bcc     0.1028    13.793     4.922     4.601  0.6966  0.5504 -0.4602
 
              Baa    -0.0383    -5.142    -1.835    -1.715 -0.6271 -0.3180  0.7111
    28 C(13)  Bbb     0.0166     2.229     0.795     0.744  0.4404  0.6082  0.6604
              Bcc     0.0217     2.913     1.039     0.972 -0.6425  0.7273 -0.2413
 
              Baa    -0.0393    -5.276    -1.883    -1.760  0.6999  0.2260 -0.6775
    29 C(13)  Bbb     0.0172     2.303     0.822     0.768  0.4827  0.5495  0.6819
              Bcc     0.0222     2.973     1.061     0.992 -0.5264  0.8043 -0.2755
 
              Baa    -0.0638    -8.568    -3.057    -2.858  0.4871  0.5847  0.6488
    30 C(13)  Bbb    -0.0575    -7.717    -2.754    -2.574 -0.5829  0.7708 -0.2570
              Bcc     0.1214    16.285     5.811     5.432 -0.6504 -0.2529  0.7163
 
              Baa    -0.0045    -2.392    -0.854    -0.798 -0.4465 -0.4629  0.7657
    31 H(1)   Bbb    -0.0023    -1.209    -0.431    -0.403  0.8040 -0.5831  0.1164
              Bcc     0.0067     3.601     1.285     1.201  0.3927  0.6676  0.6325
 
              Baa    -0.0043    -2.301    -0.821    -0.768  0.7792  0.0719 -0.6226
    32 H(1)   Bbb    -0.0023    -1.233    -0.440    -0.411 -0.3196  0.9001 -0.2960
              Bcc     0.0066     3.534     1.261     1.179  0.5392  0.4296  0.7244
 
              Baa    -0.0023    -1.221    -0.436    -0.407  0.7222  0.3486 -0.5974
    33 H(1)   Bbb     0.0005     0.243     0.087     0.081  0.5211  0.2937  0.8014
              Bcc     0.0018     0.978     0.349     0.326 -0.4548  0.8901 -0.0305
 
              Baa    -0.0023    -1.231    -0.439    -0.411  0.7219  0.3575 -0.5925
    34 H(1)   Bbb     0.0003     0.184     0.065     0.061  0.1992  0.7126  0.6727
              Bcc     0.0020     1.048     0.374     0.350  0.6627 -0.6036  0.4433
 
              Baa    -0.0082    -4.354    -1.554    -1.452  0.4648  0.5696  0.6779
    35 H(1)   Bbb    -0.0009    -0.490    -0.175    -0.164 -0.6688 -0.2759  0.6904
              Bcc     0.0091     4.844     1.729     1.616 -0.5802  0.7743 -0.2527
 
              Baa    -0.0252    -3.383    -1.207    -1.129  0.8433 -0.3350  0.4203
    36 C(13)  Bbb     0.0113     1.519     0.542     0.507  0.2832  0.9416  0.1822
              Bcc     0.0139     1.865     0.665     0.622 -0.4567 -0.0346  0.8889
 
              Baa    -0.0542    -7.278    -2.597    -2.428 -0.1763  0.9220  0.3449
    37 C(13)  Bbb    -0.0463    -6.214    -2.217    -2.073  0.6591  0.3708 -0.6543
              Bcc     0.1005    13.492     4.814     4.500  0.7311 -0.1120  0.6730
 
              Baa    -0.0553    -7.414    -2.646    -2.473  0.7837  0.3740 -0.4959
    38 C(13)  Bbb    -0.0477    -6.406    -2.286    -2.137 -0.0723  0.8479  0.5253
              Bcc     0.1030    13.820     4.931     4.610  0.6169 -0.3758  0.6915
 
              Baa    -0.0383    -5.138    -1.833    -1.714  0.4141 -0.1800  0.8923
    39 C(13)  Bbb     0.0166     2.226     0.794     0.742  0.7648 -0.4628 -0.4483
              Bcc     0.0217     2.912     1.039     0.971  0.4936  0.8680 -0.0540
 
              Baa    -0.0395    -5.295    -1.889    -1.766  0.4704 -0.0752  0.8792
    40 C(13)  Bbb     0.0173     2.316     0.826     0.772  0.7926 -0.4019 -0.4584
              Bcc     0.0222     2.979     1.063     0.994  0.3879  0.9126 -0.1295
 
              Baa    -0.0638    -8.556    -3.053    -2.854  0.7987 -0.4276 -0.4234
    41 C(13)  Bbb    -0.0574    -7.705    -2.749    -2.570  0.4322  0.8972 -0.0907
              Bcc     0.1212    16.261     5.802     5.424  0.4187 -0.1106  0.9014
 
              Baa    -0.0045    -2.393    -0.854    -0.798  0.2626 -0.3728  0.8900
    42 H(1)   Bbb    -0.0022    -1.199    -0.428    -0.400  0.6395  0.7579  0.1288
              Bcc     0.0067     3.592     1.282     1.198  0.7226 -0.5353 -0.4374
 
              Baa    -0.0042    -2.259    -0.806    -0.754  0.5239  0.0811  0.8479
    43 H(1)   Bbb    -0.0024    -1.261    -0.450    -0.421  0.1844  0.9610 -0.2059
              Bcc     0.0066     3.520     1.256     1.174  0.8316 -0.2643 -0.4885
 
              Baa    -0.0023    -1.221    -0.436    -0.407  0.5468 -0.1831  0.8170
    44 H(1)   Bbb     0.0005     0.245     0.087     0.082  0.8099 -0.1315 -0.5716
              Bcc     0.0018     0.976     0.348     0.326  0.2121  0.9743  0.0764
 
              Baa    -0.0023    -1.229    -0.439    -0.410  0.5473 -0.1927  0.8145
    45 H(1)   Bbb     0.0003     0.169     0.060     0.056 -0.5778  0.6171  0.5342
              Bcc     0.0020     1.060     0.378     0.354  0.6055  0.7630 -0.2264
 
              Baa    -0.0082    -4.349    -1.552    -1.451  0.7845 -0.4171 -0.4590
    46 H(1)   Bbb    -0.0009    -0.489    -0.175    -0.163  0.4488 -0.1291  0.8843
              Bcc     0.0091     4.838     1.726     1.614  0.4281  0.8997 -0.0859
 

 ---------------------------------------------------------------------------------

 No NMR shielding tensors so no spin-rotation constants.
 Leave Link  601 at Tue Jan 19 16:47:04 2021, MaxMem=  4026531840 cpu:               5.3 elap:               0.7
 (Enter /opt/ohpc/pub/libs/gaussian/g16-A.03/sandybridge/g16/l9999.exe)

 Test job not archived.
 1\1\GINC-CASCADEB058\SP\ULC-wHPBE\TZVP\C24H19N1S2(1+,2)\RDU230\19-Jan-
 2021\0\\#P LC-wHPBE/TZVP iop(3/107=0180600000, 3/108=0180600000) scf=(
 conver=6,fermi,ndamp=35,noincfock,novaracc,vshift=500,xqc)\\H19 C24 S2
  N1\\1,2\C,0,-3.352046,1.022081,0.90149\C,0,-4.015603,0.124147,0.07783
 3\S,0,-3.193622,-0.833868,-1.176213\C,0,-5.398593,-0.028228,0.207342\C
 ,0,-0.749106,0.373785,-1.531691\C,0,-1.475477,-0.56699,-0.815552\C,0,-
 4.041516,1.761821,1.844012\C,0,-6.080951,0.720801,1.156415\H,0,-7.4759
 44,-0.835079,-0.458792\C,0,0.601771,0.54717,-1.299188\C,0,-0.823428,-1
 .336346,0.139234\C,0,0.521569,-1.15492,0.389409\C,0,1.255724,-0.212476
 ,-0.331046\H,0,1.160253,1.275483,-1.876291\H,0,-1.383265,-2.076857,0.7
 00814\H,0,1.015474,-1.752114,1.147605\C,0,-5.411167,1.613701,1.970885\
 H,0,-2.279577,1.141824,0.800598\H,0,-1.248138,0.967582,-2.290346\H,0,-
 3.503227,2.458074,2.478369\H,0,-7.154267,0.598627,1.263844\H,0,-5.9624
 34,2.189124,2.706912\S,0,-6.238224,-1.192989,-0.835805\N,0,2.627173,-0
 .037586,-0.087724\C,0,3.438312,-1.140752,0.276409\C,0,4.374889,-1.0129
 28,1.295896\C,0,3.317625,-2.35655,-0.387733\C,0,5.1794,-2.084309,1.640
 01\C,0,4.112866,-3.428755,-0.025756\C,0,5.049979,-3.298472,0.986151\H,
 0,4.470709,-0.064848,1.814448\H,0,2.593785,-2.456724,-1.189607\H,0,5.9
 0745,-1.970366,2.436839\H,0,4.006805,-4.37257,-0.551042\H,0,5.67733,-4
 .139106,1.26285\C,0,3.224517,1.239724,-0.221989\C,0,4.446224,1.376745,
 -0.87125\C,0,2.604731,2.367846,0.304633\C,0,5.03746,2.622109,-0.986244
 \C,0,3.193018,3.612223,0.169883\C,0,4.413292,3.746533,-0.472133\H,0,4.
 931907,0.498005,-1.282066\H,0,1.656156,2.262505,0.820378\H,0,5.992055,
 2.71427,-1.494403\H,0,2.697309,4.484427,0.584059\H,0,4.876004,4.72281,
 -0.569917\\Version=EM64L-G16RevA.03\State=2-A\HF=-1775.9575406\S2=0.76
 7705\S2-1=0.\S2A=0.750285\RMSD=1.722e-08\Dipole=4.1163169,0.4668072,0.
 5196787\Quadrupole=37.3247546,-7.4494885,-29.8752661,-4.1454012,-3.795
 6936,-1.1634716\PG=C01 [X(C24H19N1S2)]\\@


 QED = W**5 (WHICH WAS WHAT WE WANTED)
 Job cpu time:       0 days 10 hours 19 minutes 30.4 seconds.
 Elapsed time:       0 days  1 hours 17 minutes 42.1 seconds.
 File lengths (MBytes):  RWF=    244 Int=      0 D2E=      0 Chk=     36 Scr=      8
 Normal termination of Gaussian 16 at Tue Jan 19 16:47:04 2021.
