 Entering Gaussian System, Link 0=g16
 Input=mol_ta_pa_half_tune_c3.gjf
 Output=mol_ta_pa_half_tune_c3.log
 Initial command:
 /opt/ohpc/pub/libs/gaussian/g16-A.03/sandybridge/g16/l1.exe "/mnt/gpfs2_4m/scratch/rdu230/ondemand/projects/init_structures/wtuning/mol_ta_pa_half/tuning_mol_ta_pa_half_ocycle0/Gau-269813.inp" -scrdir="/mnt/gpfs2_4m/scratch/rdu230/ondemand/projects/init_structures/wtuning/mol_ta_pa_half/tuning_mol_ta_pa_half_ocycle0/"
 Entering Link 1 = /opt/ohpc/pub/libs/gaussian/g16-A.03/sandybridge/g16/l1.exe PID=    269814.
  
 Copyright (c) 1988,1990,1992,1993,1995,1998,2003,2009,2016,
            Gaussian, Inc.  All Rights Reserved.
  
 This is part of the Gaussian(R) 16 program.  It is based on
 the Gaussian(R) 09 system (copyright 2009, Gaussian, Inc.),
 the Gaussian(R) 03 system (copyright 2003, Gaussian, Inc.),
 the Gaussian(R) 98 system (copyright 1998, Gaussian, Inc.),
 the Gaussian(R) 94 system (copyright 1995, Gaussian, Inc.),
 the Gaussian 92(TM) system (copyright 1992, Gaussian, Inc.),
 the Gaussian 90(TM) system (copyright 1990, Gaussian, Inc.),
 the Gaussian 88(TM) system (copyright 1988, Gaussian, Inc.),
 the Gaussian 86(TM) system (copyright 1986, Carnegie Mellon
 University), and the Gaussian 82(TM) system (copyright 1983,
 Carnegie Mellon University). Gaussian is a federally registered
 trademark of Gaussian, Inc.
  
 This software contains proprietary and confidential information,
 including trade secrets, belonging to Gaussian, Inc.
  
 This software is provided under written license and may be
 used, copied, transmitted, or stored only in accord with that
 written license.
  
 The following legend is applicable only to US Government
 contracts under FAR:
  
                    RESTRICTED RIGHTS LEGEND
  
 Use, reproduction and disclosure by the US Government is
 subject to restrictions as set forth in subparagraphs (a)
 and (c) of the Commercial Computer Software - Restricted
 Rights clause in FAR 52.227-19.
  
 Gaussian, Inc.
 340 Quinnipiac St., Bldg. 40, Wallingford CT 06492
  
  
 ---------------------------------------------------------------
 Warning -- This program may not be used in any manner that
 competes with the business of Gaussian, Inc. or will provide
 assistance to any competitor of Gaussian, Inc.  The licensee
 of this program is prohibited from giving any competitor of
 Gaussian, Inc. access to this program.  By using this program,
 the user acknowledges that Gaussian, Inc. is engaged in the
 business of creating and licensing software in the field of
 computational chemistry and represents and warrants to the
 licensee that it is not a competitor of Gaussian, Inc. and that
 it will not use this program in any manner prohibited above.
 ---------------------------------------------------------------
  

 Cite this work as:
 Gaussian 16, Revision A.03,
 M. J. Frisch, G. W. Trucks, H. B. Schlegel, G. E. Scuseria, 
 M. A. Robb, J. R. Cheeseman, G. Scalmani, V. Barone, 
 G. A. Petersson, H. Nakatsuji, X. Li, M. Caricato, A. V. Marenich, 
 J. Bloino, B. G. Janesko, R. Gomperts, B. Mennucci, H. P. Hratchian, 
 J. V. Ortiz, A. F. Izmaylov, J. L. Sonnenberg, D. Williams-Young, 
 F. Ding, F. Lipparini, F. Egidi, J. Goings, B. Peng, A. Petrone, 
 T. Henderson, D. Ranasinghe, V. G. Zakrzewski, J. Gao, N. Rega, 
 G. Zheng, W. Liang, M. Hada, M. Ehara, K. Toyota, R. Fukuda, 
 J. Hasegawa, M. Ishida, T. Nakajima, Y. Honda, O. Kitao, H. Nakai, 
 T. Vreven, K. Throssell, J. A. Montgomery, Jr., J. E. Peralta, 
 F. Ogliaro, M. J. Bearpark, J. J. Heyd, E. N. Brothers, K. N. Kudin, 
 V. N. Staroverov, T. A. Keith, R. Kobayashi, J. Normand, 
 K. Raghavachari, A. P. Rendell, J. C. Burant, S. S. Iyengar, 
 J. Tomasi, M. Cossi, J. M. Millam, M. Klene, C. Adamo, R. Cammi, 
 J. W. Ochterski, R. L. Martin, K. Morokuma, O. Farkas, 
 J. B. Foresman, and D. J. Fox, Gaussian, Inc., Wallingford CT, 2016.
 
 ******************************************
 Gaussian 16:  EM64L-G16RevA.03 25-Dec-2016
                18-Jan-2021 
 ******************************************
 %mem=30GB
 %nproc=8
 Will use up to    8 processors via shared memory.
 ----------------------------------------------------------------------
 #P LC-wHPBE/TZVP iop(3/107=0155800000, 3/108=0155800000) scf=(conver=6
 ,fermi,ndamp=35,noincfock,novaracc,vshift=500,xqc)
 ----------------------------------------------------------------------
 1/38=1,172=1/1;
 2/12=2,17=6,18=5,40=1/2;
 3/5=19,7=101,11=2,25=1,30=1,74=-71,107=155800000,108=155800000/1,2,3;
 4//1;
 5/5=100002,6=6,8=3,10=500,13=1,18=-1,22=13,38=1,93=35/2,8;
 6/7=2,8=2,9=2,10=2,28=1/1;
 99/5=1,9=1/99;
 Leave Link    1 at Mon Jan 18 18:29:31 2021, MaxMem=  4026531840 cpu:               1.1 elap:               0.2
 (Enter /opt/ohpc/pub/libs/gaussian/g16-A.03/sandybridge/g16/l101.exe)
 -------------
 H19 C24 S2 N1
 -------------
 Symbolic Z-matrix:
 Charge =  1 Multiplicity = 2
 C                    -3.35205   1.02208   0.90149 
 C                    -4.0156    0.12415   0.07783 
 S                    -3.19362  -0.83387  -1.17621 
 C                    -5.39859  -0.02823   0.20734 
 C                    -0.74911   0.37379  -1.53169 
 C                    -1.47548  -0.56699  -0.81555 
 C                    -4.04152   1.76182   1.84401 
 C                    -6.08095   0.7208    1.15641 
 H                    -7.47594  -0.83508  -0.45879 
 C                     0.60177   0.54717  -1.29919 
 C                    -0.82343  -1.33635   0.13923 
 C                     0.52157  -1.15492   0.38941 
 C                     1.25572  -0.21248  -0.33105 
 H                     1.16025   1.27548  -1.87629 
 H                    -1.38327  -2.07686   0.70081 
 H                     1.01547  -1.75211   1.1476 
 C                    -5.41117   1.6137    1.97089 
 H                    -2.27958   1.14182   0.8006 
 H                    -1.24814   0.96758  -2.29035 
 H                    -3.50323   2.45807   2.47837 
 H                    -7.15427   0.59863   1.26384 
 H                    -5.96243   2.18912   2.70691 
 S                    -6.23822  -1.19299  -0.83581 
 N                     2.62717  -0.03759  -0.08772 
 C                     3.43831  -1.14075   0.27641 
 C                     4.37489  -1.01293   1.2959 
 C                     3.31763  -2.35655  -0.38773 
 C                     5.1794   -2.08431   1.64001 
 C                     4.11287  -3.42876  -0.02576 
 C                     5.04998  -3.29847   0.98615 
 H                     4.47071  -0.06485   1.81445 
 H                     2.59379  -2.45672  -1.18961 
 H                     5.90745  -1.97037   2.43684 
 H                     4.0068   -4.37257  -0.55104 
 H                     5.67733  -4.13911   1.26285 
 C                     3.22452   1.23972  -0.22199 
 C                     4.44622   1.37675  -0.87125 
 C                     2.60473   2.36785   0.30463 
 C                     5.03746   2.62211  -0.98624 
 C                     3.19302   3.61222   0.16988 
 C                     4.41329   3.74653  -0.47213 
 H                     4.93191   0.49801  -1.28207 
 H                     1.65616   2.2625    0.82038 
 H                     5.99206   2.71427  -1.4944 
 H                     2.69731   4.48443   0.58406 
 H                     4.876     4.72281  -0.56992 
 
 ITRead=  0  0  0  0  0  0  0  0  0  0  0  0  0  0  0  0  0  0  0  0
 ITRead=  0  0  0  0  0  0  0  0  0  0  0  0  0  0  0  0  0  0  0  0
 ITRead=  0  0  0  0  0  0
 MicOpt= -1 -1 -1 -1 -1 -1 -1 -1 -1 -1 -1 -1 -1 -1 -1 -1 -1 -1 -1 -1
 MicOpt= -1 -1 -1 -1 -1 -1 -1 -1 -1 -1 -1 -1 -1 -1 -1 -1 -1 -1 -1 -1
 MicOpt= -1 -1 -1 -1 -1 -1
 NAtoms=     46 NQM=       46 NQMF=       0 NMMI=      0 NMMIF=      0
                NMic=       0 NMicF=      0.
                    Isotopes and Nuclear Properties:
 (Nuclear quadrupole moments (NQMom) in fm**2, nuclear magnetic moments (NMagM)
  in nuclear magnetons)

  Atom         1           2           3           4           5           6           7           8           9          10
 IAtWgt=          12          12          32          12          12          12          12          12           1          12
 AtmWgt=  12.0000000  12.0000000  31.9720718  12.0000000  12.0000000  12.0000000  12.0000000  12.0000000   1.0078250  12.0000000
 NucSpn=           0           0           0           0           0           0           0           0           1           0
 AtZEff=  -0.0000000  -0.0000000  -0.0000000  -0.0000000  -0.0000000  -0.0000000  -0.0000000  -0.0000000  -0.0000000  -0.0000000
 NQMom=    0.0000000   0.0000000   0.0000000   0.0000000   0.0000000   0.0000000   0.0000000   0.0000000   0.0000000   0.0000000
 NMagM=    0.0000000   0.0000000   0.0000000   0.0000000   0.0000000   0.0000000   0.0000000   0.0000000   2.7928460   0.0000000
 AtZNuc=   6.0000000   6.0000000  16.0000000   6.0000000   6.0000000   6.0000000   6.0000000   6.0000000   1.0000000   6.0000000

  Atom        11          12          13          14          15          16          17          18          19          20
 IAtWgt=          12          12          12           1           1           1          12           1           1           1
 AtmWgt=  12.0000000  12.0000000  12.0000000   1.0078250   1.0078250   1.0078250  12.0000000   1.0078250   1.0078250   1.0078250
 NucSpn=           0           0           0           1           1           1           0           1           1           1
 AtZEff=  -0.0000000  -0.0000000  -0.0000000  -0.0000000  -0.0000000  -0.0000000  -0.0000000  -0.0000000  -0.0000000  -0.0000000
 NQMom=    0.0000000   0.0000000   0.0000000   0.0000000   0.0000000   0.0000000   0.0000000   0.0000000   0.0000000   0.0000000
 NMagM=    0.0000000   0.0000000   0.0000000   2.7928460   2.7928460   2.7928460   0.0000000   2.7928460   2.7928460   2.7928460
 AtZNuc=   6.0000000   6.0000000   6.0000000   1.0000000   1.0000000   1.0000000   6.0000000   1.0000000   1.0000000   1.0000000

  Atom        21          22          23          24          25          26          27          28          29          30
 IAtWgt=           1           1          32          14          12          12          12          12          12          12
 AtmWgt=   1.0078250   1.0078250  31.9720718  14.0030740  12.0000000  12.0000000  12.0000000  12.0000000  12.0000000  12.0000000
 NucSpn=           1           1           0           2           0           0           0           0           0           0
 AtZEff=  -0.0000000  -0.0000000  -0.0000000  -0.0000000  -0.0000000  -0.0000000  -0.0000000  -0.0000000  -0.0000000  -0.0000000
 NQMom=    0.0000000   0.0000000   0.0000000   2.0440000   0.0000000   0.0000000   0.0000000   0.0000000   0.0000000   0.0000000
 NMagM=    2.7928460   2.7928460   0.0000000   0.4037610   0.0000000   0.0000000   0.0000000   0.0000000   0.0000000   0.0000000
 AtZNuc=   1.0000000   1.0000000  16.0000000   7.0000000   6.0000000   6.0000000   6.0000000   6.0000000   6.0000000   6.0000000

  Atom        31          32          33          34          35          36          37          38          39          40
 IAtWgt=           1           1           1           1           1          12          12          12          12          12
 AtmWgt=   1.0078250   1.0078250   1.0078250   1.0078250   1.0078250  12.0000000  12.0000000  12.0000000  12.0000000  12.0000000
 NucSpn=           1           1           1           1           1           0           0           0           0           0
 AtZEff=  -0.0000000  -0.0000000  -0.0000000  -0.0000000  -0.0000000  -0.0000000  -0.0000000  -0.0000000  -0.0000000  -0.0000000
 NQMom=    0.0000000   0.0000000   0.0000000   0.0000000   0.0000000   0.0000000   0.0000000   0.0000000   0.0000000   0.0000000
 NMagM=    2.7928460   2.7928460   2.7928460   2.7928460   2.7928460   0.0000000   0.0000000   0.0000000   0.0000000   0.0000000
 AtZNuc=   1.0000000   1.0000000   1.0000000   1.0000000   1.0000000   6.0000000   6.0000000   6.0000000   6.0000000   6.0000000

  Atom        41          42          43          44          45          46
 IAtWgt=          12           1           1           1           1           1
 AtmWgt=  12.0000000   1.0078250   1.0078250   1.0078250   1.0078250   1.0078250
 NucSpn=           0           1           1           1           1           1
 AtZEff=  -0.0000000  -0.0000000  -0.0000000  -0.0000000  -0.0000000  -0.0000000
 NQMom=    0.0000000   0.0000000   0.0000000   0.0000000   0.0000000   0.0000000
 NMagM=    0.0000000   2.7928460   2.7928460   2.7928460   2.7928460   2.7928460
 AtZNuc=   6.0000000   1.0000000   1.0000000   1.0000000   1.0000000   1.0000000
 Leave Link  101 at Mon Jan 18 18:29:31 2021, MaxMem=  4026531840 cpu:               0.7 elap:               0.1
 (Enter /opt/ohpc/pub/libs/gaussian/g16-A.03/sandybridge/g16/l202.exe)
                          Input orientation:                          
 ---------------------------------------------------------------------
 Center     Atomic      Atomic             Coordinates (Angstroms)
 Number     Number       Type             X           Y           Z
 ---------------------------------------------------------------------
      1          6           0       -3.352046    1.022081    0.901490
      2          6           0       -4.015603    0.124147    0.077833
      3         16           0       -3.193622   -0.833868   -1.176213
      4          6           0       -5.398593   -0.028228    0.207342
      5          6           0       -0.749106    0.373785   -1.531691
      6          6           0       -1.475477   -0.566990   -0.815552
      7          6           0       -4.041516    1.761821    1.844012
      8          6           0       -6.080951    0.720801    1.156415
      9          1           0       -7.475944   -0.835079   -0.458792
     10          6           0        0.601771    0.547170   -1.299188
     11          6           0       -0.823428   -1.336346    0.139234
     12          6           0        0.521569   -1.154920    0.389409
     13          6           0        1.255724   -0.212476   -0.331046
     14          1           0        1.160253    1.275483   -1.876291
     15          1           0       -1.383265   -2.076857    0.700814
     16          1           0        1.015474   -1.752114    1.147605
     17          6           0       -5.411167    1.613701    1.970885
     18          1           0       -2.279577    1.141824    0.800598
     19          1           0       -1.248138    0.967582   -2.290346
     20          1           0       -3.503227    2.458074    2.478369
     21          1           0       -7.154267    0.598627    1.263844
     22          1           0       -5.962434    2.189124    2.706912
     23         16           0       -6.238224   -1.192989   -0.835805
     24          7           0        2.627173   -0.037586   -0.087724
     25          6           0        3.438312   -1.140752    0.276409
     26          6           0        4.374889   -1.012928    1.295896
     27          6           0        3.317625   -2.356550   -0.387733
     28          6           0        5.179400   -2.084309    1.640010
     29          6           0        4.112866   -3.428755   -0.025756
     30          6           0        5.049979   -3.298472    0.986151
     31          1           0        4.470709   -0.064848    1.814448
     32          1           0        2.593785   -2.456724   -1.189607
     33          1           0        5.907450   -1.970366    2.436839
     34          1           0        4.006805   -4.372570   -0.551042
     35          1           0        5.677330   -4.139106    1.262850
     36          6           0        3.224517    1.239724   -0.221989
     37          6           0        4.446224    1.376745   -0.871250
     38          6           0        2.604731    2.367846    0.304633
     39          6           0        5.037460    2.622109   -0.986244
     40          6           0        3.193018    3.612223    0.169883
     41          6           0        4.413292    3.746533   -0.472133
     42          1           0        4.931907    0.498005   -1.282066
     43          1           0        1.656156    2.262505    0.820378
     44          1           0        5.992055    2.714270   -1.494403
     45          1           0        2.697309    4.484427    0.584059
     46          1           0        4.876004    4.722810   -0.569917
 ---------------------------------------------------------------------
                    Distance matrix (angstroms):
                    1          2          3          4          5
     1  C    0.000000
     2  C    1.387445   0.000000
     3  S    2.790429   1.779347   0.000000
     4  C    2.402779   1.397373   2.724918   0.000000
     5  C    3.621596   3.650053   2.749627   4.980319   0.000000
     6  C    2.999148   2.779937   1.775760   4.089916   1.387634
     7  C    1.382365   2.408742   4.071644   2.779320   4.915484
     8  C    2.757296   2.405202   4.024279   1.388307   5.981213
     9  H    4.722917   3.630708   4.342001   2.325969   6.918296
    10  C    4.549856   4.836867   4.040717   6.213299   1.381662
    11  C    3.540780   3.510953   2.756938   4.758986   2.392083
    12  C    4.472857   4.724301   4.044365   6.029171   2.764449
    13  C    4.926948   5.297866   4.571336   6.678603   2.409272
    14  H    5.304821   5.650988   4.888323   7.004259   2.139500
    15  H    3.676926   3.487367   2.888883   4.534672   3.375186
    16  H    5.179958   5.475080   4.894874   6.707916   3.848612
    17  C    2.394494   2.783885   4.562053   2.409600   5.961564
    18  H    1.083839   2.138187   2.940513   3.383672   2.893406
    19  H    3.823247   3.738785   2.876008   4.945337   1.084982
    20  H    2.138102   3.387081   4.928357   3.864152   5.292450
    21  H    3.842850   3.388652   4.867507   2.142787   6.992257
    22  H    3.381666   3.868635   5.646544   3.388571   6.959885
    23  S    4.031718   2.740370   3.084550   1.774769   5.750605
    24  N    6.152438   6.646807   5.974992   8.031194   3.695068
    25  C    7.153848   7.563085   6.796090   8.906928   4.805988
    26  C    8.000146   8.554354   7.964028   9.883093   6.014445
    27  C    7.586946   7.755440   6.733246   9.041441   5.030077
    28  C    9.109371   9.584662   8.922007  10.870784   7.158847
    29  C    8.740403   8.871632   7.838479  10.103750   6.353418
    30  C    9.448194   9.732633   8.871699  10.976051   7.311251
    31  H    7.950497   8.664239   8.263015   9.999363   6.215747
    32  H    7.199144   7.207726   6.010651   8.469189   4.393600
    33  H    9.851411  10.412438   9.857752  11.686281   8.096543
    34  H    9.239307   9.218187   8.047323  10.387972   6.790305
    35  H   10.406636  10.655165   9.775859  11.861260   8.335150
    36  C    6.675384   7.331694   6.811963   8.726400   4.272569
    37  C    8.005086   8.606525   7.959087  10.002886   5.332313
    38  C    6.136001   6.993886   6.787104   8.354869   4.312376
    39  C    8.746853   9.451456   8.929198  10.833288   6.231919
    40  C    7.076860   8.008706   7.897396   9.331134   5.378027
    41  C    8.343258   9.190779   8.907353  10.534875   6.256872
    42  H    8.582916   9.057982   8.234641  10.450574   5.687851
    43  H    5.160166   6.106783   6.090505   7.442631   3.858079
    44  H    9.793673  10.456284   9.852268  11.839092   7.136001
    45  H    6.977342   8.020692   8.129323   9.276292   5.766416
    46  H    9.141184  10.031349   9.816472  11.346534   7.175018
                    6          7          8          9         10
     6  C    0.000000
     7  C    4.368203   0.000000
     8  C    5.172760   2.390775   0.000000
     9  H    6.017039   4.882836   2.641148   0.000000
    10  C    2.406287   5.737177   7.121721   8.238104   0.000000
    11  C    1.388774   4.781318   5.736555   6.698125   2.765481
    12  C    2.405366   5.607583   6.906511   8.048724   2.398938
    13  C    2.796406   6.057184   7.543895   8.754769   1.393562
    14  H    3.386288   6.413703   7.870198   9.002648   1.084154
    15  H    2.141861   4.807146   5.486594   6.325143   3.850441
    16  H    3.385756   6.197247   7.514961   8.690549   3.382995
    17  C    5.292381   1.383467   1.381753   4.020343   6.927214
    18  H    2.485672   2.139518   3.841134   5.700565   3.614537
    19  H    2.140470   5.052395   5.941140   6.737191   2.140398
    20  H    4.910468   1.084865   3.377920   5.937529   5.896821
    21  H    6.158832   3.373253   1.085576   2.264170   8.168715
    22  H    6.335353   2.148746   2.138705   4.632299   7.863437
    23  S    4.803753   4.553883   2.766996   1.342456   7.073076
    24  N    4.200207   7.172230   8.829182  10.141334   2.431427
    25  C    5.066251   8.174970   9.739413  10.943260   3.657534
    26  C    6.235692   8.878938  10.599522  11.981352   4.837849
    27  C    5.134139   8.723452  10.009381  10.900507   4.078995
    28  C    7.253925   9.992979  11.614560  12.888882   6.043033
    29  C    6.327958   9.845408  11.069338  11.883400   5.455034
    30  C    7.299911  10.440200  11.835588  12.847370   6.308589
    31  H    6.521210   8.706065  10.601310  12.185376   5.003796
    32  H    4.502211   8.427703   9.531607  10.225618   3.606038
    33  H    8.188719  10.642490  12.353284  13.740043   6.960324
    34  H    6.678909  10.399159  11.428940  12.015651   6.029745
    35  H    8.260897  11.384843  12.723490  13.670745   7.367939
    36  C    5.070155   7.572066   9.421306  10.902328   2.918696
    37  C    6.232796   8.919790  10.740722  12.132616   3.956153
    38  C    5.149386   6.849055   8.881405  10.604789   3.146260
    39  C    7.253815   9.548730  11.481508  12.992907   4.906999
    40  C    6.342850   7.652789   9.764224  11.575858   4.274024
    41  C    7.307668   8.988180  11.042480  12.741479   5.044565
    42  H    6.512021   9.586027  11.281794  12.506385   4.330449
    43  H    4.526526   5.810506   7.896366   9.727618   2.923467
    44  H    8.184836  10.617190  12.520313  13.966294   5.812882
    45  H    6.699841   7.376437   9.568193  11.527348   4.841476
    46  H    8.269440   9.701375  11.791996  13.545224   6.019707
                   11         12         13         14         15
    11  C    0.000000
    12  C    1.380043   0.000000
    13  C    2.409797   1.395077   0.000000
    14  H    3.849543   3.383515   2.147305   0.000000
    15  H    1.084964   2.139003   3.391890   4.934485   0.000000
    16  H    2.138045   1.084179   2.148165   4.281501   2.461509
    17  C    5.753701   6.735257   7.285688   7.622251   5.608680
    18  H    2.949423   3.645618   3.951342   4.360737   3.342640
    19  H    3.375103   3.849411   3.391271   2.463045   4.270118
    20  H    5.201009   5.797971   6.137774   6.489193   5.312207
    21  H    6.714789   7.921996   8.598227   8.913463   6.385897
    22  H    6.740274   7.654786   8.191378   8.518988   6.572048
    23  S    5.503750   6.870036   7.574658   7.868509   5.168467
    24  N    3.693905   2.430979   1.403804   2.659883   4.567716
    25  C    4.268431   2.918965   2.448344   3.957507   4.929910
    26  C    5.335257   3.961055   3.607888   5.062952   5.885780
    27  C    4.297305   3.140986   2.975181   4.479031   4.833377
    28  C    6.232634   4.911533   4.773264   6.309209   6.629534
    29  C    5.363991   4.270843   4.312878   5.854251   5.706399
    30  C    6.250129   5.045534   5.065052   6.651662   6.554418
    31  H    5.696572   4.337591   3.867954   5.135870   6.289465
    32  H    3.833851   2.912398   2.750306   4.056589   4.419832
    33  H    7.140426   5.819333   5.691214   7.188498   7.495308
    34  H    5.746850   4.835762   4.992317   6.462170   5.990851
    35  H    7.167833   6.020809   6.124502   7.718547   7.377043
    36  C    4.811702   3.662520   2.448862   2.645596   5.751776
    37  C    6.012585   4.837510   3.605098   3.437727   6.955695
    38  C    5.049819   4.093486   2.980263   2.834820   5.984685
    39  C    7.161430   6.045795   4.771340   4.199800   8.133398
    40  C    6.373469   5.469048   4.316522   3.712050   7.320511
    41  C    7.323433   6.317595   5.065954   4.319723   8.299864
    42  H    6.205547   4.997707   3.863100   3.896530   7.102332
    43  H    4.423124   3.626543   2.758923   2.914130   5.299287
    44  H    8.094879   6.960287   5.687888   5.055913   9.064724
    45  H    6.817247   6.047642   4.997648   4.325874   7.727559
    46  H    8.348640   7.377609   6.125401   5.234260   9.328916
                   16         17         18         19         20
    16  H    0.000000
    17  C    7.301248   0.000000
    18  H    4.399165   3.376255   0.000000
    19  H    4.933578   5.992192   3.263152   0.000000
    20  H    6.317854   2.147264   2.458607   5.481572   0.000000
    21  H    8.502009   2.137447   4.926689   6.902953   4.273489
    22  H    8.164312   1.084778   4.277184   6.977775   2.484404
    23  S    7.540734   4.054509   4.878530   5.628918   5.638636
    24  N    2.657671   8.460469   5.124092   4.569457   7.098941
    25  C    2.646297   9.421865   6.178930   5.744225   8.123124
    26  C    3.442972  10.154885   7.012146   6.957153   8.689696
    27  C    2.832403   9.875109   6.706670   5.959529   8.827183
    28  C    4.206078  11.222516   8.169999   8.128652   9.834841
    29  C    3.712376  10.959934   7.901669   7.293594   9.946370
    30  C    4.323716  11.598910   8.571642   8.282568  10.417383
    31  H    3.902588  10.024643   6.931833   7.114805   8.389850
    32  H    2.906906   9.520311   6.376529   5.262877   8.647707
    33  H    5.063713  11.881656   8.910130   9.065333  10.400656
    34  H    4.324379  11.440881   8.470777   7.691348  10.594131
    35  H    5.238694  12.512029   9.561081   9.309435  11.370264
    36  C    3.963175   8.917600   5.599136   4.935261   7.351112
    37  C    5.063159  10.261678   6.934455   5.882772   8.693848
    38  C    4.495599   8.221907   5.060195   4.851727   6.483858
    39  C    6.313756  10.905746   7.676137   6.629245   9.218123
    40  C    5.871435   9.014971   6.037381   5.724572   7.176410
    41  C    6.663620  10.345883   7.293754   6.563555   8.546161
    42  H    5.128819  10.899800   7.533757   6.279338   9.441092
    43  H    4.078568   7.189692   4.092226   4.448410   5.422768
    44  H    7.189934  11.968832   8.726942   7.490316  10.296064
    45  H    6.483872   8.712734   5.999106   6.016391   6.792729
    46  H    7.731637  11.043012   8.118135   7.386930   9.199597
                   21         22         23         24         25
    21  H    0.000000
    22  H    2.456134   0.000000
    23  S    2.908186   4.905669   0.000000
    24  N    9.894851   9.303202   8.971613   0.000000
    25  C   10.779759  10.264962   9.740385   1.416868   0.000000
    26  C   11.641288  10.913494  10.826576   2.433148   1.390277
    27  C   11.005512  10.787005   9.636851   2.438098   1.390617
    28  C   12.627707  11.980859  11.716921   3.699730   2.404391
    29  C   12.034582  11.854944  10.620729   3.702857   2.404430
    30  C   12.814371  12.423686  11.626526   4.201973   2.785132
    31  H   11.656905  10.711086  11.089535   2.649080   2.142190
    32  H   10.506146  10.486927   8.928974   2.658475   2.143411
    33  H   13.363536  12.580479  12.602853   4.568290   3.384134
    34  H   12.352171  12.371573  10.730864   4.572760   3.384155
    35  H   13.678304  13.327262  12.452485   5.286774   3.869935
    36  C   10.504183   9.689164   9.789705   1.416463   2.441470
    37  C   11.820977  11.036456  10.989186   2.433761   2.944622
    38  C    9.964350   8.899393   9.600937   2.437325   3.606371
    39  C   12.561671  11.611397  11.904564   3.700108   4.279099
    40  C   10.832581   9.606458  10.632488   3.702384   4.760492
    41  C   12.113272  10.963008  11.746741   4.202089   5.039490
    42  H   12.351817  11.724269  11.306212   2.650492   2.710202
    43  H    8.977121   7.849032   8.775227   2.656679   3.879967
    44  H   13.598149  12.682138  12.856133   4.568795   4.951623
    45  H   10.612026   9.206849  10.681424   4.572178   5.682110
    46  H   12.849085  11.602970  12.593389   5.286882   6.096276
                   26         27         28         29         30
    26  C    0.000000
    27  C    2.399528   0.000000
    28  C    1.383297   2.766236   0.000000
    29  C    2.766160   1.383134   2.391612   0.000000
    30  C    2.403206   2.403295   1.385090   1.385320   0.000000
    31  H    1.084866   3.380991   2.147299   3.851009   3.387913
    32  H    3.381509   1.084888   3.851082   2.146392   3.387529
    33  H    2.137097   3.851563   1.085346   3.378136   2.145604
    34  H    3.851475   2.136814   3.378139   1.085339   2.145894
    35  H    3.386803   3.386759   2.147644   2.147708   1.084803
    36  C    2.949877   3.601295   4.282266   4.756298   5.038565
    37  C    3.226786   3.930015   4.338533   4.890687   5.066765
    38  C    3.942803   4.827785   5.313552   5.998684   6.208934
    39  C    4.342886   5.301235   5.391449   6.195996   6.240495
    40  C    4.904768   5.996058   6.209466   7.103504   7.202243
    41  C    5.077388   6.201228   6.248743   7.195434   7.222469
    42  H    3.039585   3.399150   3.907445   4.203402   4.424024
    43  H    4.283233   5.055263   5.655072   6.256341   6.516900
    44  H    4.928793   5.838708   5.788896   6.589767   6.572193
    45  H    5.791537   6.937445   7.100993   8.061893   8.140654
    46  H    6.052360   7.251143   7.163288   8.205273   8.172673
                   31         32         33         34         35
    31  H    0.000000
    32  H    4.274139   0.000000
    33  H    2.466292   4.936399   0.000000
    34  H    4.936316   2.464722   4.279073   0.000000
    35  H    4.284831   4.284064   2.476820   2.476967   0.000000
    36  C    2.720658   3.872704   4.957033   5.676099   6.095314
    37  C    3.048239   4.269469   4.927655   5.774967   6.041077
    38  C    3.417516   5.050678   5.854429   6.937665   7.259440
    39  C    3.922349   5.639809   5.793549   7.083586   7.154152
    40  C    4.225866   6.248153   6.608520   8.058468   8.212763
    41  C    4.445039   6.504289   6.586164   8.129655   8.172592
    42  H    3.180866   3.769056   4.568894   5.011258   5.341821
    43  H    3.785030   5.214433   6.213183   7.171511   7.572730
    44  H    4.581101   6.195185   6.116178   7.419869   7.393934
    45  H    5.035346   7.164927   7.443262   9.024945   9.149131
    46  H    5.363873   7.558985   7.409660   9.136838   9.084862
                   36         37         38         39         40
    36  C    0.000000
    37  C    1.390281   0.000000
    38  C    1.390728   2.399183   0.000000
    39  C    2.404545   1.383371   2.765716   0.000000
    40  C    2.404851   2.766197   1.383009   2.391427   0.000000
    41  C    2.785651   2.403388   2.403130   1.385000   1.385385
    42  H    2.142216   1.084823   3.380779   2.147200   3.851006
    43  H    2.142981   3.380925   1.084843   3.850508   2.146352
    44  H    3.384168   2.137027   3.851039   1.085344   3.377984
    45  H    3.384636   3.851534   2.136952   3.377926   1.085361
    46  H    3.870446   3.386984   3.386646   2.147636   2.147824
                   41         42         43         44         45
    41  C    0.000000
    42  H    3.387903   0.000000
    43  H    3.387436   4.273672   0.000000
    44  H    2.145483   2.465934   4.935820   0.000000
    45  H    2.145839   4.936336   2.465113   4.278880   0.000000
    46  H    1.084795   4.284771   4.284092   2.476788   2.476933
                   46
    46  H    0.000000
 Stoichiometry    C24H19NS2(1+,2)
 Framework group  C1[X(C24H19NS2)]
 Deg. of freedom   132
 Full point group                 C1      NOp   1
 Largest Abelian subgroup         C1      NOp   1
 Largest concise Abelian subgroup C1      NOp   1
                         Standard orientation:                         
 ---------------------------------------------------------------------
 Center     Atomic      Atomic             Coordinates (Angstroms)
 Number     Number       Type             X           Y           Z
 ---------------------------------------------------------------------
      1          6           0       -3.352046    1.022081    0.901490
      2          6           0       -4.015603    0.124147    0.077833
      3         16           0       -3.193622   -0.833868   -1.176213
      4          6           0       -5.398593   -0.028228    0.207342
      5          6           0       -0.749106    0.373785   -1.531691
      6          6           0       -1.475477   -0.566990   -0.815552
      7          6           0       -4.041516    1.761821    1.844012
      8          6           0       -6.080951    0.720801    1.156415
      9          1           0       -7.475944   -0.835079   -0.458792
     10          6           0        0.601771    0.547170   -1.299188
     11          6           0       -0.823428   -1.336346    0.139234
     12          6           0        0.521569   -1.154920    0.389409
     13          6           0        1.255724   -0.212476   -0.331046
     14          1           0        1.160253    1.275483   -1.876291
     15          1           0       -1.383265   -2.076857    0.700814
     16          1           0        1.015474   -1.752114    1.147605
     17          6           0       -5.411167    1.613701    1.970885
     18          1           0       -2.279577    1.141824    0.800598
     19          1           0       -1.248138    0.967582   -2.290346
     20          1           0       -3.503227    2.458074    2.478369
     21          1           0       -7.154267    0.598627    1.263844
     22          1           0       -5.962434    2.189124    2.706912
     23         16           0       -6.238224   -1.192989   -0.835805
     24          7           0        2.627173   -0.037586   -0.087724
     25          6           0        3.438312   -1.140752    0.276409
     26          6           0        4.374889   -1.012928    1.295896
     27          6           0        3.317625   -2.356550   -0.387733
     28          6           0        5.179400   -2.084309    1.640010
     29          6           0        4.112866   -3.428755   -0.025756
     30          6           0        5.049979   -3.298472    0.986151
     31          1           0        4.470709   -0.064848    1.814448
     32          1           0        2.593785   -2.456724   -1.189607
     33          1           0        5.907450   -1.970366    2.436839
     34          1           0        4.006805   -4.372570   -0.551042
     35          1           0        5.677330   -4.139106    1.262850
     36          6           0        3.224517    1.239724   -0.221989
     37          6           0        4.446224    1.376745   -0.871250
     38          6           0        2.604731    2.367846    0.304633
     39          6           0        5.037460    2.622109   -0.986244
     40          6           0        3.193018    3.612223    0.169883
     41          6           0        4.413292    3.746533   -0.472133
     42          1           0        4.931907    0.498005   -1.282066
     43          1           0        1.656156    2.262505    0.820378
     44          1           0        5.992055    2.714270   -1.494403
     45          1           0        2.697309    4.484427    0.584059
     46          1           0        4.876004    4.722810   -0.569917
 ---------------------------------------------------------------------
 Rotational constants (GHZ):           0.3083654           0.0766714           0.0675965
 Leave Link  202 at Mon Jan 18 18:29:31 2021, MaxMem=  4026531840 cpu:               0.2 elap:               0.1
 (Enter /opt/ohpc/pub/libs/gaussian/g16-A.03/sandybridge/g16/l301.exe)
 Standard basis: TZVP (5D, 7F)
 Ernie: Thresh=  0.10000D-02 Tol=  0.10000D-05 Strict=F.
 There are   660 symmetry adapted cartesian basis functions of A   symmetry.
 There are   633 symmetry adapted basis functions of A   symmetry.
   633 basis functions,  1121 primitive gaussians,   660 cartesian basis functions
   101 alpha electrons      100 beta electrons
       nuclear repulsion energy      2474.6847673599 Hartrees.
 IExCor=33909 DFT=T Ex+Corr=LC-wHPBE ExCW=0 ScaHFX=  1.000000
 ScaDFX=  1.000000  1.000000  1.000000  1.000000 ScalE2=  1.000000  1.000000
 IRadAn=      5 IRanWt=     -1 IRanGd=            0 ICorTp=0 IEmpDi=  4
 HFx  wShort=  0.000000 wLong=  0.155800 cFull=  0.000000 cShort=  0.000000 cLong=  1.000000
 DFx  wShort=  0.000000 wLong=  0.155800 cFull=  0.000000 cShort=  1.000000 cLong=  0.000000
 NAtoms=   46 NActive=   46 NUniq=   46 SFac= 1.00D+00 NAtFMM=   60 NAOKFM=F Big=F
 Integral buffers will be    131072 words long.
 Raffenetti 2 integral format.
 Two-electron integral symmetry is turned on.
 Leave Link  301 at Mon Jan 18 18:29:31 2021, MaxMem=  4026531840 cpu:               0.4 elap:               0.1
 (Enter /opt/ohpc/pub/libs/gaussian/g16-A.03/sandybridge/g16/l302.exe)
 NPDir=0 NMtPBC=     1 NCelOv=     1 NCel=       1 NClECP=     1 NCelD=      1
         NCelK=      1 NCelE2=     1 NClLst=     1 CellRange=     0.0.
 One-electron integrals computed using PRISM.
 One-electron integral symmetry used in STVInt
 NBasis=   633 RedAO= T EigKep=  6.67D-06  NBF=   633
 NBsUse=   633 1.00D-06 EigRej= -1.00D+00 NBFU=   633
 Precomputing XC quadrature grid using
 IXCGrd= 4 IRadAn=           5 IRanWt=          -1 IRanGd=           0 AccXCQ= 0.00D+00.
 Generated NRdTot=       0 NPtTot=           0 NUsed=           0 NTot=          32
 NSgBfM=   625   625   625   625   625 MxSgAt=    46 MxSgA2=    46.
 Leave Link  302 at Mon Jan 18 18:29:32 2021, MaxMem=  4026531840 cpu:               8.1 elap:               1.1
 (Enter /opt/ohpc/pub/libs/gaussian/g16-A.03/sandybridge/g16/l303.exe)
 DipDrv:  MaxL=1.
 Leave Link  303 at Mon Jan 18 18:29:32 2021, MaxMem=  4026531840 cpu:               0.9 elap:               0.2
 (Enter /opt/ohpc/pub/libs/gaussian/g16-A.03/sandybridge/g16/l401.exe)
 ExpMin= 9.52D-02 ExpMax= 6.07D+04 ExpMxC= 2.07D+03 IAcc=3 IRadAn=         5 AccDes= 0.00D+00
 Harris functional with IExCor=33909 and IRadAn=       5 diagonalized for initial guess.
 HarFok:  IExCor=33909 AccDes= 0.00D+00 IRadAn=         5 IDoV= 1 UseB2=F ITyADJ=14
 ICtDFT=  3500011 ScaDFX=  1.000000  1.000000  1.000000  1.000000
 FoFCou: FMM=F IPFlag=           0 FMFlag=      100000 FMFlg1=           0
         NFxFlg=           0 DoJE=T BraDBF=F KetDBF=T FulRan=T
         wScrn=  0.000000 ICntrl=       500 IOpCl=  0 I1Cent=   200000004 NGrid=           0
         NMat0=    1 NMatS0=      1 NMatT0=    0 NMatD0=    1 NMtDS0=    0 NMtDT0=    0
 Petite list used in FoFCou.
 Harris En= -1759.02260480980    
 JPrj=0 DoOrth=F DoCkMO=F.
 Initial guess <Sx>= 0.0000 <Sy>= 0.0000 <Sz>= 0.5000 <S**2>= 0.7500 S= 0.5000
 Leave Link  401 at Mon Jan 18 18:29:38 2021, MaxMem=  4026531840 cpu:              48.0 elap:               6.0
 (Enter /opt/ohpc/pub/libs/gaussian/g16-A.03/sandybridge/g16/l502.exe)
 Integral symmetry usage will be decided dynamically.
 UHF open shell SCF:
 Using DIIS extrapolation, IDIIS=    10.
 NGot=  4026531840 LenX=  4025648940 LenY=  4025212680
 Requested convergence on RMS density matrix=1.00D-06 within  32 cycles.
 Requested convergence on MAX density matrix=1.00D-04.
 Requested convergence on             energy=1.00D-04.
 Virtual orbitals will be shifted by   0.500 hartree.
 No special actions if energy rises.
 Dynamic level shift is on during FON iterations.

 Cycle   1  Pass 1  IDiag  1:
 FoFJK:  IHMeth= 1 ICntrl=       0 DoSepK=T KAlg= 0 I1Cent=           0 FoldK=F
 IRaf=         1 NMat=       1 IRICut=       1 DoRegI=T DoRafI=F ISym2E= 0 IDoP0=0 IntGTp=1.
 FoFCou: FMM=F IPFlag=           0 FMFlag=      100000 FMFlg1=           0
         NFxFlg=           0 DoJE=T BraDBF=F KetDBF=F FulRan=T
         wScrn=  0.000000 ICntrl=       500 IOpCl=  0 I1Cent=           0 NGrid=           0
         NMat0=    1 NMatS0=      1 NMatT0=    0 NMatD0=    1 NMtDS0=    0 NMtDT0=    0
 Symmetry not used in FoFCou.
 E= -1775.29051343993    
 DIIS: error= 3.59D-02 at cycle   1 NSaved=   1.
 NSaved= 1 IEnMin= 1 EnMin= -1775.29051343993     IErMin= 1 ErrMin= 3.59D-02
 ErrMax= 3.59D-02  0.00D+00 EMaxC= 1.00D+00 BMatC= 2.35D+00 BMatP= 2.35D+00
 IDIUse=1 WtCom= 1.00D+00 WtEn= 0.00D+00
 Coeff-Com:  0.100D+01
 Coeff:      0.100D+01
 Gap=     0.552 Goal=   None    Shift=    0.500
 T= 1603. Gap= 0.521 NK=0 IS=  102 IE=  633 IFin=  101
          NO(<0.9)=   0  NV(>0.1)=   0    101.00e < EF      0.00e >EF  Err=0.0D+00
 Gap=     0.157 Goal=   None    Shift=    0.500
 T= 1603. Gap= 0.357 NK=0 IS=  101 IE=  633 IFin=  100
          NO(<0.9)=   0  NV(>0.1)=   0    100.00e < EF      0.00e >EF  Err=0.0D+00
 GapD=    0.157 DampG=1.000 DampE=0.500 DampFc=0.5000 IDamp=-1.
 Damping current iteration by 5.00D-01
 RMSDP=3.47D-03 MaxDP=3.41D-01              OVMax= 1.44D-01

 Cycle   2  Pass 1  IDiag  1:
 E= -1775.68296670924     Delta-E=       -0.392453269312 Rises=F Damp=T
 DIIS: error= 1.56D-02 at cycle   2 NSaved=   2.
 NSaved= 2 IEnMin= 2 EnMin= -1775.68296670924     IErMin= 2 ErrMin= 1.56D-02
 ErrMax= 1.56D-02  0.00D+00 EMaxC= 1.00D+00 BMatC= 3.19D-01 BMatP= 2.35D+00
 IDIUse=1 WtCom= 1.00D+00 WtEn= 0.00D+00
 Coeff-Com: -0.464D+00 0.146D+01
 Coeff:     -0.464D+00 0.146D+01
 Gap=     0.191 Goal=   None    Shift=    0.500
 T= 1478. Gap= 0.662 NK=0 IS=  102 IE=  633 IFin=  101
          NO(<0.9)=   0  NV(>0.1)=   0    101.00e < EF      0.00e >EF  Err=0.0D+00
 Gap=     0.031 Goal=   None    Shift=    0.500
 T= 1478. Gap= 0.507 NK=0 IS=  101 IE=  633 IFin=  100
          NO(<0.9)=   0  NV(>0.1)=   0    100.00e < EF      0.00e >EF  Err=0.0D+00
 GapD=    0.031 DampG=0.250 DampE=0.500 DampFc=0.1250 IDamp=-1.
 Damping current iteration by 1.25D-01
 RMSDP=1.89D-03 MaxDP=1.15D-01 DE=-3.92D-01 OVMax= 2.92D-02

 Cycle   3  Pass 1  IDiag  1:
 E= -1775.71621347263     Delta-E=       -0.033246763391 Rises=F Damp=T
 DIIS: error= 1.34D-02 at cycle   3 NSaved=   3.
 NSaved= 3 IEnMin= 3 EnMin= -1775.71621347263     IErMin= 3 ErrMin= 1.34D-02
 ErrMax= 1.34D-02  0.00D+00 EMaxC= 1.00D+00 BMatC= 2.28D-01 BMatP= 3.19D-01
 IDIUse=1 WtCom= 1.00D+00 WtEn= 0.00D+00
 Coeff-Com:  0.127D+00-0.660D+01 0.747D+01
 Coeff:      0.127D+00-0.660D+01 0.747D+01
 Gap=     0.203 Goal=   None    Shift=    0.500
 T= 1300. Gap= 0.698 NK=0 IS=  102 IE=  633 IFin=  101
          NO(<0.9)=   0  NV(>0.1)=   0    101.00e < EF      0.00e >EF  Err=0.0D+00
 Gap=     0.051 Goal=   None    Shift=    0.500
 T= 1300. Gap= 0.550 NK=0 IS=  101 IE=  633 IFin=  100
          NO(<0.9)=   0  NV(>0.1)=   0    100.00e < EF      0.00e >EF  Err=0.0D+00
 GapD=    0.051 DampG=0.500 DampE=0.500 DampFc=0.2500 IDamp=-1.
 Damping current iteration by 2.50D-01
 RMSDP=1.71D-03 MaxDP=1.07D-01 DE=-3.32D-02 OVMax= 1.58D-02

 Cycle   4  Pass 1  IDiag  1:
 E= -1775.76870357060     Delta-E=       -0.052490097976 Rises=F Damp=T
 DIIS: error= 1.01D-02 at cycle   4 NSaved=   4.
 NSaved= 4 IEnMin= 4 EnMin= -1775.76870357060     IErMin= 4 ErrMin= 1.01D-02
 ErrMax= 1.01D-02  0.00D+00 EMaxC= 1.00D+00 BMatC= 1.21D-01 BMatP= 2.28D-01
 IDIUse=1 WtCom= 1.00D+00 WtEn= 0.00D+00
 Coeff-Com:  0.852D-01-0.375D+00-0.273D+01 0.402D+01
 Coeff:      0.852D-01-0.375D+00-0.273D+01 0.402D+01
 Gap=     0.197 Goal=   None    Shift=    0.500
 T=  997. Gap= 0.697 NK=0 IS=  102 IE=  633 IFin=  101
          NO(<0.9)=   0  NV(>0.1)=   0    101.00e < EF      0.00e >EF  Err=0.0D+00
 Gap=     0.049 Goal=   None    Shift=    0.500
 T=  997. Gap= 0.549 NK=0 IS=  101 IE=  633 IFin=  100
          NO(<0.9)=   0  NV(>0.1)=   0    100.00e < EF      0.00e >EF  Err=0.0D+00
 GapD=    0.049 DampG=0.250 DampE=0.500 DampFc=0.1250 IDamp=-1.
 Damping current iteration by 1.25D-01
 RMSDP=1.27D-03 MaxDP=8.11D-02 DE=-5.25D-02 OVMax= 1.43D-02

 Cycle   5  Pass 1  IDiag  1:
 E= -1775.78716004626     Delta-E=       -0.018456475655 Rises=F Damp=T
 DIIS: error= 8.88D-03 at cycle   5 NSaved=   5.
 NSaved= 5 IEnMin= 5 EnMin= -1775.78716004626     IErMin= 5 ErrMin= 8.88D-03
 ErrMax= 8.88D-03  0.00D+00 EMaxC= 1.00D+00 BMatC= 9.21D-02 BMatP= 1.21D-01
 IDIUse=1 WtCom= 1.00D+00 WtEn= 0.00D+00
 Coeff-Com: -0.558D-03 0.108D+01-0.134D+01-0.778D+01 0.905D+01
 Coeff:     -0.558D-03 0.108D+01-0.134D+01-0.778D+01 0.905D+01
 Gap=     0.200 Goal=   None    Shift=    0.500
 T=  884. Gap= 0.700 NK=0 IS=  102 IE=  633 IFin=  101
          NO(<0.9)=   0  NV(>0.1)=   0    101.00e < EF      0.00e >EF  Err=0.0D+00
 Gap=     0.053 Goal=   None    Shift=    0.500
 T=  884. Gap= 0.553 NK=0 IS=  101 IE=  633 IFin=  100
          NO(<0.9)=   0  NV(>0.1)=   0    100.00e < EF      0.00e >EF  Err=0.0D+00
 GapD=    0.053 DampG=0.500 DampE=1.000 DampFc=0.5000 IDamp=-1.
 Damping current iteration by 5.00D-01
 RMSDP=1.10D-03 MaxDP=7.09D-02 DE=-1.85D-02 OVMax= 1.35D-02

 Cycle   6  Pass 1  IDiag  1:
 E= -1775.84838258317     Delta-E=       -0.061222536906 Rises=F Damp=T
 DIIS: error= 4.77D-03 at cycle   6 NSaved=   6.
 NSaved= 6 IEnMin= 6 EnMin= -1775.84838258317     IErMin= 6 ErrMin= 4.77D-03
 ErrMax= 4.77D-03  0.00D+00 EMaxC= 1.00D+00 BMatC= 2.29D-02 BMatP= 9.21D-02
 IDIUse=1 WtCom= 1.00D+00 WtEn= 0.00D+00
 Coeff-Com: -0.176D-01 0.181D+00 0.438D+00 0.274D+01-0.581D+01 0.347D+01
 Coeff:     -0.176D-01 0.181D+00 0.438D+00 0.274D+01-0.581D+01 0.347D+01
 Gap=     0.203 Goal=   None    Shift=    0.500
 T=  697. Gap= 0.703 NK=0 IS=  102 IE=  633 IFin=  101
          NO(<0.9)=   0  NV(>0.1)=   0    101.00e < EF      0.00e >EF  Err=0.0D+00
 Gap=     0.056 Goal=   None    Shift=    0.500
 T=  697. Gap= 0.556 NK=0 IS=  101 IE=  633 IFin=  100
          NO(<0.9)=   0  NV(>0.1)=   0    100.00e < EF      0.00e >EF  Err=0.0D+00
 GapD=    0.056 DampG=0.500 DampE=1.000 DampFc=0.5000 IDamp=-1.
 Damping current iteration by 5.00D-01
 RMSDP=5.47D-04 MaxDP=3.43D-02 DE=-6.12D-02 OVMax= 1.40D-02

 Cycle   7  Pass 1  IDiag  1:
 E= -1775.87741484168     Delta-E=       -0.029032258516 Rises=F Damp=T
 DIIS: error= 2.97D-03 at cycle   7 NSaved=   7.
 NSaved= 7 IEnMin= 7 EnMin= -1775.87741484168     IErMin= 7 ErrMin= 2.97D-03
 ErrMax= 2.97D-03  0.00D+00 EMaxC= 1.00D+00 BMatC= 5.95D-03 BMatP= 2.29D-02
 IDIUse=1 WtCom= 1.00D+00 WtEn= 0.00D+00
 Coeff-Com: -0.522D-02-0.316D+00 0.680D+00 0.382D+01-0.497D+01-0.129D+01
 Coeff-Com:  0.308D+01
 Coeff:     -0.522D-02-0.316D+00 0.680D+00 0.382D+01-0.497D+01-0.129D+01
 Coeff:      0.308D+01
 Gap=     0.203 Goal=   None    Shift=    0.500
 T=  483. Gap= 0.703 NK=0 IS=  102 IE=  633 IFin=  101
          NO(<0.9)=   0  NV(>0.1)=   0    101.00e < EF      0.00e >EF  Err=0.0D+00
 Gap=     0.057 Goal=   None    Shift=    0.500
 T=  483. Gap= 0.557 NK=0 IS=  101 IE=  633 IFin=  100
          NO(<0.9)=   0  NV(>0.1)=   0    100.00e < EF      0.00e >EF  Err=0.0D+00
 GapD=    0.057 DampG=0.500 DampE=1.000 DampFc=0.5000 IDamp=-1.
 Damping current iteration by 5.00D-01
 RMSDP=2.86D-04 MaxDP=1.68D-02 DE=-2.90D-02 OVMax= 1.44D-02

 Cycle   8  Pass 1  IDiag  1:
 E= -1775.89173869549     Delta-E=       -0.014323853808 Rises=F Damp=T
 DIIS: error= 2.66D-03 at cycle   8 NSaved=   8.
 NSaved= 8 IEnMin= 8 EnMin= -1775.89173869549     IErMin= 8 ErrMin= 2.66D-03
 ErrMax= 2.66D-03  0.00D+00 EMaxC= 1.00D+00 BMatC= 1.68D-03 BMatP= 5.95D-03
 IDIUse=1 WtCom= 1.00D+00 WtEn= 0.00D+00
 Coeff-Com:  0.444D-02-0.189D+00-0.105D-01 0.247D+00 0.105D+01-0.194D+01
 Coeff-Com: -0.212D+01 0.395D+01
 Coeff:      0.444D-02-0.189D+00-0.105D-01 0.247D+00 0.105D+01-0.194D+01
 Coeff:     -0.212D+01 0.395D+01
 Gap=     0.205 Goal=   None    Shift=    0.500
 T=  201. Gap= 0.705 NK=0 IS=  102 IE=  633 IFin=  101
          NO(<0.9)=   0  NV(>0.1)=   0    101.00e < EF      0.00e >EF  Err=0.0D+00
 Gap=     0.058 Goal=   None    Shift=    0.500
 T=  201. Gap= 0.558 NK=0 IS=  101 IE=  633 IFin=  100
          NO(<0.9)=   0  NV(>0.1)=   0    100.00e < EF      0.00e >EF  Err=0.0D+00
 GapD=    0.058 DampG=0.500 DampE=1.000 DampFc=0.5000 IDamp=-1.
 Damping current iteration by 5.00D-01
 RMSDP=1.63D-04 MaxDP=8.64D-03 DE=-1.43D-02 OVMax= 1.55D-02

 Cycle   9  Pass 1  IDiag  1:
 E= -1775.89899755799     Delta-E=       -0.007258862495 Rises=F Damp=T
 DIIS: error= 2.64D-03 at cycle   9 NSaved=   9.
 NSaved= 9 IEnMin= 9 EnMin= -1775.89899755799     IErMin= 9 ErrMin= 2.64D-03
 ErrMax= 2.64D-03  0.00D+00 EMaxC= 1.00D+00 BMatC= 5.65D-04 BMatP= 1.68D-03
 IDIUse=1 WtCom= 1.00D+00 WtEn= 0.00D+00
 Coeff-Com:  0.345D-02-0.118D+00-0.840D-01-0.231D+00 0.142D+01-0.148D+01
 Coeff-Com: -0.149D+01 0.146D+01 0.152D+01
 Coeff:      0.345D-02-0.118D+00-0.840D-01-0.231D+00 0.142D+01-0.148D+01
 Coeff:     -0.149D+01 0.146D+01 0.152D+01
 Gap=     0.205 Goal=   None    Shift=    0.500
 T=   64. Gap= 0.705 NK=0 IS=  102 IE=  633 IFin=  101
          NO(<0.9)=   0  NV(>0.1)=   0    101.00e < EF      0.00e >EF  Err=0.0D+00
 Gap=     0.059 Goal=   None    Shift=    0.500
 T=   64. Gap= 0.559 NK=0 IS=  101 IE=  633 IFin=  100
          NO(<0.9)=   0  NV(>0.1)=   0    100.00e < EF      0.00e >EF  Err=0.0D+00
 GapD=    0.059 DampG=0.500 DampE=1.000 DampFc=0.5000 IDamp=-1.
 Damping current iteration by 5.00D-01
 RMSDP=1.03D-04 MaxDP=6.22D-03 DE=-7.26D-03 OVMax= 1.46D-02

 Cycle  10  Pass 1  IDiag  1:
 E= -1775.90276780806     Delta-E=       -0.003770250079 Rises=F Damp=T
 DIIS: error= 2.65D-03 at cycle  10 NSaved=  10.
 NSaved=10 IEnMin=10 EnMin= -1775.90276780806     IErMin= 9 ErrMin= 2.64D-03
 ErrMax= 2.65D-03  0.00D+00 EMaxC= 1.00D+00 BMatC= 2.58D-04 BMatP= 5.65D-04
 IDIUse=1 WtCom= 1.00D+00 WtEn= 0.00D+00
 Coeff-Com:  0.213D-02-0.971D-01-0.513D-01 0.523D+00 0.170D+00-0.115D+01
 Coeff-Com: -0.568D+00 0.229D+01-0.284D+01 0.272D+01
 Coeff:      0.213D-02-0.971D-01-0.513D-01 0.523D+00 0.170D+00-0.115D+01
 Coeff:     -0.568D+00 0.229D+01-0.284D+01 0.272D+01
 Gap=     0.206 Goal=   None    Shift=    0.500
 T=   40. Gap= 0.706 NK=0 IS=  102 IE=  633 IFin=  101
          NO(<0.9)=   0  NV(>0.1)=   0    101.00e < EF      0.00e >EF  Err=0.0D+00
 Gap=     0.060 Goal=   None    Shift=    0.500
 T=   40. Gap= 0.560 NK=0 IS=  101 IE=  633 IFin=  100
          NO(<0.9)=   0  NV(>0.1)=   0    100.00e < EF      0.00e >EF  Err=0.0D+00
 GapD=    0.060 DampG=0.500 DampE=1.000 DampFc=0.5000 IDamp=-1.
 Damping current iteration by 5.00D-01
 RMSDP=7.52D-05 MaxDP=5.51D-03 DE=-3.77D-03 OVMax= 1.42D-02

 Cycle  11  Pass 1  IDiag  1:
 E= -1775.90478977674     Delta-E=       -0.002021968678 Rises=F Damp=T
 DIIS: error= 2.69D-03 at cycle  11 NSaved=  11.
 NSaved=11 IEnMin=11 EnMin= -1775.90478977674     IErMin= 9 ErrMin= 2.64D-03
 ErrMax= 2.69D-03  0.00D+00 EMaxC= 1.00D+00 BMatC= 1.71D-04 BMatP= 2.58D-04
 IDIUse=1 WtCom= 1.00D+00 WtEn= 0.00D+00
 Coeff-Com:  0.213D-02-0.987D-01-0.502D-01 0.526D+00 0.163D+00-0.113D+01
 Coeff-Com: -0.564D+00 0.239D+01-0.371D+01 0.424D+01-0.762D+00
 Coeff:      0.213D-02-0.987D-01-0.502D-01 0.526D+00 0.163D+00-0.113D+01
 Coeff:     -0.564D+00 0.239D+01-0.371D+01 0.424D+01-0.762D+00
 Gap=     0.206 Goal=   None    Shift=    0.500
 Gap=     0.060 Goal=   None    Shift=    0.500
 GapD=    0.060 DampG=0.500 DampE=1.000 DampFc=0.5000 IDamp=-1.
 Damping current iteration by 5.00D-01
 RMSDP=5.60D-05 MaxDP=3.52D-03 DE=-2.02D-03 OVMax= 1.23D-02

 Cycle  12  Pass 1  IDiag  1:
 E= -1775.90591761420     Delta-E=       -0.001127837461 Rises=F Damp=T
 DIIS: error= 2.71D-03 at cycle  12 NSaved=  12.
 NSaved=12 IEnMin=12 EnMin= -1775.90591761420     IErMin= 9 ErrMin= 2.64D-03
 ErrMax= 2.71D-03  0.00D+00 EMaxC= 1.00D+00 BMatC= 1.48D-04 BMatP= 1.71D-04
 IDIUse=1 WtCom= 1.00D+00 WtEn= 0.00D+00
 Coeff-Com:  0.218D-02-0.959D-01-0.615D-01 0.511D+00 0.209D+00-0.116D+01
 Coeff-Com: -0.593D+00 0.234D+01-0.350D+01 0.423D+01-0.104D+01 0.166D+00
 Coeff:      0.218D-02-0.959D-01-0.615D-01 0.511D+00 0.209D+00-0.116D+01
 Coeff:     -0.593D+00 0.234D+01-0.350D+01 0.423D+01-0.104D+01 0.166D+00
 Gap=     0.206 Goal=   None    Shift=    0.500
 Gap=     0.060 Goal=   None    Shift=    0.500
 GapD=    0.060 DampG=0.500 DampE=1.000 DampFc=0.5000 IDamp=-1.
 Damping current iteration by 5.00D-01
 RMSDP=4.39D-05 MaxDP=2.90D-03 DE=-1.13D-03 OVMax= 1.10D-02

 Cycle  13  Pass 1  IDiag  1:
 E= -1775.90658028613     Delta-E=       -0.000662671928 Rises=F Damp=T
 DIIS: error= 2.72D-03 at cycle  13 NSaved=  13.
 NSaved=13 IEnMin=13 EnMin= -1775.90658028613     IErMin= 9 ErrMin= 2.64D-03
 ErrMax= 2.72D-03  0.00D+00 EMaxC= 1.00D+00 BMatC= 1.50D-04 BMatP= 1.48D-04
 IDIUse=1 WtCom= 1.00D+00 WtEn= 0.00D+00
 Large coefficients: NSaved= 13 BigCof=   11.43 CofMax=   10.00 Det=-9.07D-10
 Inversion failed.  Reducing to 12 matrices.
 Coeff-Com: -0.764D-01-0.145D-01 0.679D+00-0.218D+00-0.925D+00-0.412D+00
 Coeff-Com:  0.236D+01-0.466D+01 0.779D+01-0.869D+01 0.841D+01-0.324D+01
 Coeff:     -0.764D-01-0.145D-01 0.679D+00-0.218D+00-0.925D+00-0.412D+00
 Coeff:      0.236D+01-0.466D+01 0.779D+01-0.869D+01 0.841D+01-0.324D+01
 Gap=     0.206 Goal=   None    Shift=    0.500
 Gap=     0.061 Goal=   None    Shift=    0.500
 GapD=    0.061 DampG=0.500 DampE=1.000 DampFc=0.5000 IDamp=-1.
 Damping current iteration by 5.00D-01
 RMSDP=3.55D-05 MaxDP=2.39D-03 DE=-6.63D-04 OVMax= 9.50D-03

 Cycle  14  Pass 1  IDiag  1:
 E= -1775.90699274909     Delta-E=       -0.000412462960 Rises=F Damp=T
 DIIS: error= 2.71D-03 at cycle  14 NSaved=  13.
 NSaved=13 IEnMin=13 EnMin= -1775.90699274909     IErMin= 8 ErrMin= 2.64D-03
 ErrMax= 2.71D-03  0.00D+00 EMaxC= 1.00D+00 BMatC= 1.68D-04 BMatP= 1.48D-04
 IDIUse=1 WtCom= 1.00D+00 WtEn= 0.00D+00
 Large coefficients: NSaved= 13 BigCof=   25.11 CofMax=   10.00 Det=-3.65D-10
 Inversion failed.  Reducing to 12 matrices.
 Large coefficients: NSaved= 12 BigCof=   24.65 CofMax=   10.00 Det=-3.65D-10
 Inversion failed.  Reducing to 11 matrices.
 Large coefficients: NSaved= 11 BigCof=   26.74 CofMax=   10.00 Det=-3.65D-10
 Inversion failed.  Reducing to 10 matrices.
 Large coefficients: NSaved= 10 BigCof=   21.73 CofMax=   10.00 Det=-3.89D-10
 Inversion failed.  Reducing to  9 matrices.
 Large coefficients: NSaved=  9 BigCof=   32.41 CofMax=   10.00 Det=-4.07D-10
 Inversion failed.  Reducing to  8 matrices.
 Large coefficients: NSaved=  8 BigCof=   32.46 CofMax=   10.00 Det=-4.08D-10
 Inversion failed.  Reducing to  7 matrices.
 Large coefficients: NSaved=  7 BigCof=   29.68 CofMax=   10.00 Det=-4.30D-10
 Inversion failed.  Reducing to  6 matrices.
 Large coefficients: NSaved=  6 BigCof=   16.94 CofMax=   10.00 Det=-4.38D-10
 Inversion failed.  Reducing to  5 matrices.
 Large coefficients: NSaved=  5 BigCof=   17.59 CofMax=   10.00 Det=-2.06D-09
 Inversion failed.  Reducing to  4 matrices.
 Coeff-Com: -0.318D+01 0.820D+01-0.452D+01 0.509D+00
 Coeff:     -0.318D+01 0.820D+01-0.452D+01 0.509D+00
 Gap=     0.206 Goal=   None    Shift=    0.500
 Gap=     0.061 Goal=   None    Shift=    0.500
 GapD=    0.061 DampG=0.500 DampE=1.000 DampFc=0.5000 IDamp=-1.
 Damping current iteration by 5.00D-01
 RMSDP=3.20D-05 MaxDP=2.21D-03 DE=-4.12D-04 OVMax= 9.36D-03

 Cycle  15  Pass 1  IDiag  1:
 E= -1775.90727821636     Delta-E=       -0.000285467269 Rises=F Damp=T
 DIIS: error= 2.70D-03 at cycle  15 NSaved=   5.
 NSaved= 5 IEnMin= 5 EnMin= -1775.90727821636     IErMin= 1 ErrMin= 2.69D-03
 ErrMax= 2.70D-03  0.00D+00 EMaxC= 1.00D+00 BMatC= 1.89D-04 BMatP= 1.48D-04
 IDIUse=1 WtCom= 1.00D+00 WtEn= 0.00D+00
 Coeff-Com: -0.377D+01 0.998D+01-0.536D+01-0.108D+01 0.123D+01
 Coeff:     -0.377D+01 0.998D+01-0.536D+01-0.108D+01 0.123D+01
 Gap=     0.207 Goal=   None    Shift=    0.500
 Gap=     0.061 Goal=   None    Shift=    0.500
 GapD=    0.061 DampG=0.500 DampE=1.000 DampFc=0.5000 IDamp=-1.
 Damping current iteration by 5.00D-01
 RMSDP=2.93D-05 MaxDP=1.98D-03 DE=-2.85D-04 OVMax= 8.57D-03

 Cycle  16  Pass 1  IDiag  1:
 E= -1775.90749187985     Delta-E=       -0.000213663485 Rises=F Damp=T
 DIIS: error= 2.70D-03 at cycle  16 NSaved=   6.
 NSaved= 6 IEnMin= 6 EnMin= -1775.90749187985     IErMin= 1 ErrMin= 2.69D-03
 ErrMax= 2.70D-03  0.00D+00 EMaxC= 1.00D+00 BMatC= 2.16D-04 BMatP= 1.48D-04
 IDIUse=1 WtCom= 1.00D+00 WtEn= 0.00D+00
 Large coefficients: NSaved=  6 BigCof=   16.16 CofMax=   10.00 Det=-7.38D-09
 Inversion failed.  Reducing to  5 matrices.
 Large coefficients: NSaved=  5 BigCof=   17.69 CofMax=   10.00 Det=-1.28D-08
 Inversion failed.  Reducing to  4 matrices.
 Large coefficients: NSaved=  4 BigCof=   14.04 CofMax=   10.00 Det=-4.33D-08
 Inversion failed.  Reducing to  3 matrices.
 Large coefficients: NSaved=  3 BigCof=   12.90 CofMax=   10.00 Det=-5.68D-08
 Inversion failed.  Reducing to  2 matrices.
 Coeff-Com:  0.524D+01-0.424D+01
 Coeff:      0.524D+01-0.424D+01
 Gap=     0.206 Goal=   None    Shift=    0.500
 Gap=     0.061 Goal=   None    Shift=    0.500
 GapD=    0.061 DampG=0.500 DampE=1.000 DampFc=0.5000 IDamp=-1.
 Damping current iteration by 5.00D-01
 RMSDP=2.38D-05 MaxDP=1.52D-03 DE=-2.14D-04 OVMax= 6.64D-03

 Cycle  17  Pass 1  IDiag  1:
 E= -1775.90764881022     Delta-E=       -0.000156930369 Rises=F Damp=T
 DIIS: error= 2.67D-03 at cycle  17 NSaved=   3.
 NSaved= 3 IEnMin= 3 EnMin= -1775.90764881022     IErMin= 3 ErrMin= 2.67D-03
 ErrMax= 2.67D-03  0.00D+00 EMaxC= 1.00D+00 BMatC= 2.53D-04 BMatP= 1.89D-04
 IDIUse=1 WtCom= 1.00D+00 WtEn= 0.00D+00
 Coeff-Com:  0.788D+01-0.912D+01 0.224D+01
 Coeff:      0.788D+01-0.912D+01 0.224D+01
 Gap=     0.205 Goal=   None    Shift=    0.500
 Gap=     0.061 Goal=   None    Shift=    0.500
 GapD=    0.061 DampG=0.500 DampE=1.000 DampFc=0.5000 IDamp=-1.
 Damping current iteration by 5.00D-01
 RMSDP=2.00D-05 MaxDP=1.40D-03 DE=-1.57D-04 OVMax= 5.01D-03

 Cycle  18  Pass 1  IDiag  1:
 E= -1775.90775874498     Delta-E=       -0.000109934765 Rises=F Damp=T
 DIIS: error= 2.63D-03 at cycle  18 NSaved=   4.
 NSaved= 4 IEnMin= 4 EnMin= -1775.90775874498     IErMin= 4 ErrMin= 2.63D-03
 ErrMax= 2.63D-03  0.00D+00 EMaxC= 1.00D+00 BMatC= 3.04D-04 BMatP= 1.89D-04
 IDIUse=1 WtCom= 1.00D+00 WtEn= 0.00D+00
 Coeff-Com:  0.837D+01-0.957D+01 0.179D+01 0.415D+00
 Coeff:      0.837D+01-0.957D+01 0.179D+01 0.415D+00
 Gap=     0.205 Goal=   None    Shift=    0.500
 Gap=     0.061 Goal=   None    Shift=    0.500
 GapD=    0.061 DampG=0.500 DampE=1.000 DampFc=0.5000 IDamp=-1.
 Damping current iteration by 5.00D-01
 RMSDP=1.70D-05 MaxDP=1.55D-03 DE=-1.10D-04 OVMax= 4.17D-03

 Cycle  19  Pass 1  IDiag  1:
 E= -1775.90783807147     Delta-E=       -0.000079326492 Rises=F Damp=T
 DIIS: error= 2.58D-03 at cycle  19 NSaved=   5.
 NSaved= 5 IEnMin= 5 EnMin= -1775.90783807147     IErMin= 5 ErrMin= 2.58D-03
 ErrMax= 2.58D-03  0.00D+00 EMaxC= 1.00D+00 BMatC= 3.59D-04 BMatP= 1.89D-04
 IDIUse=1 WtCom= 1.00D+00 WtEn= 0.00D+00
 Coeff-Com:  0.848D+01-0.954D+01 0.262D+00 0.306D+01-0.128D+01
 Coeff:      0.848D+01-0.954D+01 0.262D+00 0.306D+01-0.128D+01
 Gap=     0.205 Goal=   None    Shift=    0.500
 Gap=     0.061 Goal=   None    Shift=    0.500
 GapD=    0.061 DampG=0.500 DampE=1.000 DampFc=0.5000 IDamp=-1.
 Damping current iteration by 5.00D-01
 RMSDP=1.41D-05 MaxDP=1.20D-03 DE=-7.93D-05 OVMax= 3.70D-03

 Cycle  20  Pass 1  IDiag  1:
 E= -1775.90790011849     Delta-E=       -0.000062047016 Rises=F Damp=T
 DIIS: error= 2.55D-03 at cycle  20 NSaved=   6.
 NSaved= 6 IEnMin= 6 EnMin= -1775.90790011849     IErMin= 6 ErrMin= 2.55D-03
 ErrMax= 2.55D-03  0.00D+00 EMaxC= 1.00D+00 BMatC= 4.10D-04 BMatP= 1.89D-04
 IDIUse=1 WtCom= 1.00D+00 WtEn= 0.00D+00
 Large coefficients: NSaved=  6 BigCof=   51.57 CofMax=   10.00 Det=-2.95D-10
 Inversion failed.  Reducing to  5 matrices.
 Large coefficients: NSaved=  5 BigCof=   72.87 CofMax=   10.00 Det=-3.04D-10
 Inversion failed.  Reducing to  4 matrices.
 Large coefficients: NSaved=  4 BigCof=   40.83 CofMax=   10.00 Det=-8.61D-10
 Inversion failed.  Reducing to  3 matrices.
 Large coefficients: NSaved=  3 BigCof=   15.37 CofMax=   10.00 Det=-5.44D-09
 Inversion failed.  Reducing to  2 matrices.
 Coeff-Com:  0.978D+01-0.878D+01
 Coeff:      0.978D+01-0.878D+01
 Gap=     0.208 Goal=   None    Shift=    0.500
 Gap=     0.063 Goal=   None    Shift=    0.500
 GapD=    0.063 DampG=0.500 DampE=1.000 DampFc=0.5000 IDamp=-1.
 Damping current iteration by 5.00D-01
 RMSDP=3.31D-05 MaxDP=4.45D-03 DE=-6.20D-05 OVMax= 8.48D-03

 Cycle  21  Pass 1  IDiag  1:
 E= -1775.90802411407     Delta-E=       -0.000123995581 Rises=F Damp=T
 DIIS: error= 2.57D-03 at cycle  21 NSaved=   3.
 NSaved= 3 IEnMin= 3 EnMin= -1775.90802411407     IErMin= 2 ErrMin= 2.55D-03
 ErrMax= 2.57D-03  0.00D+00 EMaxC= 1.00D+00 BMatC= 3.98D-04 BMatP= 3.59D-04
 IDIUse=1 WtCom= 1.00D+00 WtEn= 0.00D+00
 Coeff-Com:  0.962D+01-0.940D+01 0.775D+00
 Coeff:      0.962D+01-0.940D+01 0.775D+00
 Gap=     0.209 Goal=   None    Shift=    0.500
 Gap=     0.063 Goal=   None    Shift=    0.500
 GapD=    0.063 DampG=0.500 DampE=1.000 DampFc=0.5000 IDamp=-1.
 Damping current iteration by 5.00D-01
 RMSDP=3.86D-05 MaxDP=5.32D-03 DE=-1.24D-04 OVMax= 8.24D-03

 Cycle  22  Pass 1  IDiag  1:
 E= -1775.90816768827     Delta-E=       -0.000143574199 Rises=F Damp=T
 DIIS: error= 2.60D-03 at cycle  22 NSaved=   4.
 NSaved= 4 IEnMin= 4 EnMin= -1775.90816768827     IErMin= 2 ErrMin= 2.55D-03
 ErrMax= 2.60D-03  0.00D+00 EMaxC= 1.00D+00 BMatC= 3.86D-04 BMatP= 3.59D-04
 IDIUse=1 WtCom= 1.00D+00 WtEn= 0.00D+00
 Large coefficients: NSaved=  4 BigCof=   15.88 CofMax=   10.00 Det=-2.04D-08
 Inversion failed.  Reducing to  3 matrices.
 Large coefficients: NSaved=  3 BigCof=   45.42 CofMax=   10.00 Det=-5.07D-08
 Inversion failed.  Reducing to  2 matrices.
 Coeff-Com: -0.682D+01 0.782D+01
 Coeff:     -0.682D+01 0.782D+01
 Gap=     0.223 Goal=   None    Shift=    0.500
 Gap=     0.069 Goal=   None    Shift=    0.500
 GapD=    0.069 DampG=0.500 DampE=1.000 DampFc=0.5000 IDamp=-1.
 Damping current iteration by 5.00D-01
 RMSDP=1.27D-04 MaxDP=2.11D-02 DE=-1.44D-04 OVMax= 1.86D-02

 Cycle  23  Pass 1  IDiag  1:
 E= -1775.90845567867     Delta-E=       -0.000287990398 Rises=F Damp=T
 DIIS: error= 2.94D-03 at cycle  23 NSaved=   3.
 NSaved= 3 IEnMin= 3 EnMin= -1775.90845567867     IErMin= 1 ErrMin= 2.57D-03
 ErrMax= 2.94D-03  0.00D+00 EMaxC= 1.00D+00 BMatC= 1.91D-04 BMatP= 3.86D-04
 IDIUse=1 WtCom= 1.00D+00 WtEn= 0.00D+00
 Coeff-Com: -0.252D+01 0.236D+01 0.116D+01
 Coeff:     -0.252D+01 0.236D+01 0.116D+01
 Gap=     0.218 Goal=   None    Shift=    0.500
 Gap=     0.067 Goal=   None    Shift=    0.500
 GapD=    0.067 DampG=0.500 DampE=1.000 DampFc=0.5000 IDamp=-1.
 Damping current iteration by 5.00D-01
 RMSDP=9.52D-05 MaxDP=1.46D-02 DE=-2.88D-04 OVMax= 1.57D-02

 Cycle  24  Pass 1  IDiag  1:
 E= -1775.90874785545     Delta-E=       -0.000292176784 Rises=F Damp=T
 DIIS: error= 3.09D-03 at cycle  24 NSaved=   4.
 NSaved= 4 IEnMin= 4 EnMin= -1775.90874785545     IErMin= 1 ErrMin= 2.57D-03
 ErrMax= 3.09D-03  0.00D+00 EMaxC= 1.00D+00 BMatC= 1.78D-04 BMatP= 1.91D-04
 IDIUse=1 WtCom= 1.00D+00 WtEn= 0.00D+00
 Coeff-Com: -0.826D+00 0.910D+00-0.433D+00 0.135D+01
 Coeff:     -0.826D+00 0.910D+00-0.433D+00 0.135D+01
 Gap=     0.218 Goal=   None    Shift=    0.500
 Gap=     0.067 Goal=   None    Shift=    0.500
 GapD=    0.067 DampG=0.500 DampE=1.000 DampFc=0.5000 IDamp=-1.
 Damping current iteration by 5.00D-01
 RMSDP=7.26D-05 MaxDP=9.52D-03 DE=-2.92D-04 OVMax= 1.46D-02

 Cycle  25  Pass 1  IDiag  1:
 E= -1775.90903924314     Delta-E=       -0.000291387694 Rises=F Damp=T
 DIIS: error= 3.13D-03 at cycle  25 NSaved=   5.
 NSaved= 5 IEnMin= 5 EnMin= -1775.90903924314     IErMin= 1 ErrMin= 2.57D-03
 ErrMax= 3.13D-03  0.00D+00 EMaxC= 1.00D+00 BMatC= 1.79D-04 BMatP= 1.78D-04
 IDIUse=1 WtCom= 1.00D+00 WtEn= 0.00D+00
 Large coefficients: NSaved=  5 BigCof=   11.34 CofMax=   10.00 Det=-5.82D-08
 Inversion failed.  Reducing to  4 matrices.
 Coeff-Com:  0.451D+00-0.203D+01 0.450D+01-0.192D+01
 Coeff:      0.451D+00-0.203D+01 0.450D+01-0.192D+01
 Gap=     0.216 Goal=   None    Shift=    0.500
 Gap=     0.067 Goal=   None    Shift=    0.500
 GapD=    0.067 DampG=0.500 DampE=1.000 DampFc=0.5000 IDamp=-1.
 Damping current iteration by 5.00D-01
 RMSDP=4.25D-05 MaxDP=2.60D-03 DE=-2.91D-04 OVMax= 1.01D-02

 Cycle  26  Pass 1  IDiag  1:
 E= -1775.90927912925     Delta-E=       -0.000239886110 Rises=F Damp=T
 DIIS: error= 3.05D-03 at cycle  26 NSaved=   5.
 NSaved= 5 IEnMin= 5 EnMin= -1775.90927912925     IErMin= 1 ErrMin= 2.60D-03
 ErrMax= 3.05D-03  0.00D+00 EMaxC= 1.00D+00 BMatC= 2.01D-04 BMatP= 1.78D-04
 IDIUse=1 WtCom= 1.00D+00 WtEn= 0.00D+00
 Coeff-Com:  0.492D+00-0.122D+01 0.193D+01 0.929D+00-0.114D+01
 Coeff:      0.492D+00-0.122D+01 0.193D+01 0.929D+00-0.114D+01
 Gap=     0.215 Goal=   None    Shift=    0.500
 Gap=     0.067 Goal=   None    Shift=    0.500
 GapD=    0.067 DampG=0.500 DampE=1.000 DampFc=0.5000 IDamp=-1.
 Damping current iteration by 5.00D-01
 RMSDP=3.26D-05 MaxDP=1.87D-03 DE=-2.40D-04 OVMax= 8.72D-03

 Cycle  27  Pass 1  IDiag  1:
 E= -1775.90946913033     Delta-E=       -0.000190001078 Rises=F Damp=T
 DIIS: error= 2.94D-03 at cycle  27 NSaved=   6.
 NSaved= 6 IEnMin= 6 EnMin= -1775.90946913033     IErMin= 1 ErrMin= 2.60D-03
 ErrMax= 2.94D-03  0.00D+00 EMaxC= 1.00D+00 BMatC= 2.54D-04 BMatP= 1.78D-04
 IDIUse=1 WtCom= 1.00D+00 WtEn= 0.00D+00
 Coeff-Com:  0.538D+00-0.179D+01 0.507D+01-0.623D+01 0.684D+01-0.342D+01
 Coeff:      0.538D+00-0.179D+01 0.507D+01-0.623D+01 0.684D+01-0.342D+01
 Gap=     0.214 Goal=   None    Shift=    0.500
 Gap=     0.067 Goal=   None    Shift=    0.500
 GapD=    0.067 DampG=0.500 DampE=1.000 DampFc=0.5000 IDamp=-1.
 Damping current iteration by 5.00D-01
 RMSDP=2.79D-05 MaxDP=2.33D-03 DE=-1.90D-04 OVMax= 6.31D-03

 Cycle  28  Pass 1  IDiag  1:
 E= -1775.90959994097     Delta-E=       -0.000130810634 Rises=F Damp=T
 DIIS: error= 2.80D-03 at cycle  28 NSaved=   7.
 NSaved= 7 IEnMin= 7 EnMin= -1775.90959994097     IErMin= 1 ErrMin= 2.60D-03
 ErrMax= 2.80D-03  0.00D+00 EMaxC= 1.00D+00 BMatC= 3.46D-04 BMatP= 1.78D-04
 IDIUse=1 WtCom= 1.00D+00 WtEn= 0.00D+00
 Large coefficients: NSaved=  7 BigCof=   21.94 CofMax=   10.00 Det=-3.53D-09
 Inversion failed.  Reducing to  6 matrices.
 Coeff-Com:  0.130D+00 0.919D+00-0.264D+01 0.578D+01-0.377D+01 0.576D+00
 Coeff:      0.130D+00 0.919D+00-0.264D+01 0.578D+01-0.377D+01 0.576D+00
 Gap=     0.217 Goal=   None    Shift=    0.500
 Gap=     0.067 Goal=   None    Shift=    0.500
 GapD=    0.067 DampG=0.500 DampE=1.000 DampFc=0.5000 IDamp=-1.
 Damping current iteration by 5.00D-01
 RMSDP=2.79D-05 MaxDP=1.81D-03 DE=-1.31D-04 OVMax= 8.71D-03

 Cycle  29  Pass 1  IDiag  1:
 E= -1775.90974684105     Delta-E=       -0.000146900083 Rises=F Damp=T
 DIIS: error= 2.73D-03 at cycle  29 NSaved=   7.
 NSaved= 7 IEnMin= 7 EnMin= -1775.90974684105     IErMin= 7 ErrMin= 2.73D-03
 ErrMax= 2.73D-03  0.00D+00 EMaxC= 1.00D+00 BMatC= 4.05D-04 BMatP= 1.78D-04
 IDIUse=1 WtCom= 1.00D+00 WtEn= 0.00D+00
 Coeff-Com:  0.354D-01 0.131D+01-0.319D+01 0.600D+01-0.348D+01 0.110D+00
 Coeff-Com:  0.214D+00
 Coeff:      0.354D-01 0.131D+01-0.319D+01 0.600D+01-0.348D+01 0.110D+00
 Coeff:      0.214D+00
 Gap=     0.217 Goal=   None    Shift=    0.500
 Gap=     0.068 Goal=   None    Shift=    0.500
 RMSDP=2.80D-05 MaxDP=2.19D-03 DE=-1.47D-04 OVMax= 7.72D-03

 Cycle  30  Pass 1  IDiag  1:
 E= -1775.91003771113     Delta-E=       -0.000290870079 Rises=F Damp=F
 DIIS: error= 2.61D-03 at cycle  30 NSaved=   8.
 NSaved= 8 IEnMin= 8 EnMin= -1775.91003771113     IErMin= 8 ErrMin= 2.61D-03
 ErrMax= 2.61D-03  0.00D+00 EMaxC= 1.00D+00 BMatC= 5.19D-04 BMatP= 1.78D-04
 IDIUse=1 WtCom= 1.00D+00 WtEn= 0.00D+00
 Large coefficients: NSaved=  8 BigCof=   19.56 CofMax=   10.00 Det=-1.83D-09
 Inversion failed.  Reducing to  7 matrices.
 Large coefficients: NSaved=  7 BigCof=   18.07 CofMax=   10.00 Det=-2.36D-09
 Inversion failed.  Reducing to  6 matrices.
 Coeff-Com:  0.357D-01 0.458D+01-0.606D+01 0.150D-01 0.423D+01-0.181D+01
 Coeff:      0.357D-01 0.458D+01-0.606D+01 0.150D-01 0.423D+01-0.181D+01
 Gap=     0.217 Goal=   None    Shift=    0.500
 Gap=     0.068 Goal=   None    Shift=    0.500
 GapD=    0.068 DampG=0.500 DampE=1.000 DampFc=0.5000 IDamp=-1.
 Damping current iteration by 5.00D-01
 RMSDP=1.03D-05 MaxDP=5.80D-04 DE=-2.91D-04 OVMax= 6.69D-03

 Cycle  31  Pass 1  IDiag  1:
 E= -1775.91008824013     Delta-E=       -0.000050529000 Rises=F Damp=T
 DIIS: error= 2.57D-03 at cycle  31 NSaved=   7.
 NSaved= 7 IEnMin= 7 EnMin= -1775.91008824013     IErMin= 7 ErrMin= 2.57D-03
 ErrMax= 2.57D-03  0.00D+00 EMaxC= 1.00D+00 BMatC= 5.56D-04 BMatP= 1.79D-04
 IDIUse=1 WtCom= 1.00D+00 WtEn= 0.00D+00
 Large coefficients: NSaved=  7 BigCof=   11.61 CofMax=   10.00 Det=-2.04D-09
 Inversion failed.  Reducing to  6 matrices.
 Coeff-Com:  0.510D+01-0.695D+01-0.129D+01 0.736D+01-0.449D+01 0.125D+01
 Coeff:      0.510D+01-0.695D+01-0.129D+01 0.736D+01-0.449D+01 0.125D+01
 Gap=     0.216 Goal=   None    Shift=    0.500
 Gap=     0.068 Goal=   None    Shift=    0.500
 GapD=    0.068 DampG=0.500 DampE=1.000 DampFc=0.5000 IDamp=-1.
 Damping current iteration by 5.00D-01
 RMSDP=1.27D-05 MaxDP=6.52D-04 DE=-5.05D-05 OVMax= 5.14D-03

 Cycle  32  Pass 1  IDiag  1:
 E= -1775.91014206481     Delta-E=       -0.000053824680 Rises=F Damp=T
 DIIS: error= 2.50D-03 at cycle  32 NSaved=   7.
 NSaved= 7 IEnMin= 7 EnMin= -1775.91014206481     IErMin= 7 ErrMin= 2.50D-03
 ErrMax= 2.50D-03  0.00D+00 EMaxC= 1.00D+00 BMatC= 6.28D-04 BMatP= 2.01D-04
 IDIUse=1 WtCom= 1.00D+00 WtEn= 0.00D+00
 Large coefficients: NSaved=  7 BigCof=   39.16 CofMax=   10.00 Det=-1.78D-09
 Inversion failed.  Reducing to  6 matrices.
 Large coefficients: NSaved=  6 BigCof=   42.17 CofMax=   10.00 Det=-2.07D-09
 Inversion failed.  Reducing to  5 matrices.
 Large coefficients: NSaved=  5 BigCof=   22.06 CofMax=   10.00 Det=-5.77D-09
 Inversion failed.  Reducing to  4 matrices.
 Coeff-Com:  0.464D+01-0.715D+01 0.662D+01-0.311D+01
 Coeff:      0.464D+01-0.715D+01 0.662D+01-0.311D+01
 Gap=     0.216 Goal=   None    Shift=    0.500
 Gap=     0.068 Goal=   None    Shift=    0.500
 GapD=    0.068 DampG=0.500 DampE=1.000 DampFc=0.5000 IDamp=-1.
 Damping current iteration by 5.00D-01
 RMSDP=1.40D-05 MaxDP=7.27D-04 DE=-5.38D-05 OVMax= 4.53D-03

 >>>>>>>>>> Convergence criterion not met.
 SCF Done:  E(ULC-wHPBE) =  -1775.91014206     A.U. after   33 cycles
            NFock= 32  Conv=0.14D-04     -V/T= 2.0036
 <Sx>= 0.0000 <Sy>= 0.0000 <Sz>= 0.5000 <S**2>= 0.7559 S= 0.5029
 <L.S>= 0.000000000000E+00
 KE= 1.769617993053D+03 PE=-9.093310470571D+03 EE= 3.073097568093D+03
 Annihilation of the first spin contaminant:
 S**2 before annihilation     0.7559,   after     0.7500
 Leave Link  502 at Mon Jan 18 18:56:33 2021, MaxMem=  4026531840 cpu:           12675.9 elap:            1614.8
 (Enter /opt/ohpc/pub/libs/gaussian/g16-A.03/sandybridge/g16/l508.exe)
 Integral symmetry usage will be decided dynamically.
 Tight linear equation convergence will be used.
 ULC-wHPBE wavefunction.
 Quadratic Convergence SCF Method.
 Line search only if initial step raises energy.
 FoFJK:  IHMeth= 1 ICntrl=       0 DoSepK=T KAlg= 0 I1Cent=           0 FoldK=F
 IRaf=         1 NMat=       1 IRICut=       1 DoRegI=T DoRafI=F ISym2E= 1 IDoP0=0 IntGTp=1.
 FoFCou: FMM=F IPFlag=           0 FMFlag=      100000 FMFlg1=           0
         NFxFlg=           0 DoJE=T BraDBF=F KetDBF=F FulRan=T
         wScrn=  0.000000 ICntrl=       500 IOpCl=  0 I1Cent=           0 NGrid=           0
         NMat0=    1 NMatS0=      1 NMatT0=    0 NMatD0=    1 NMtDS0=    0 NMtDT0=    0
 Petite list used in FoFCou.
 Iteration   1 EE= -1775.91024399824                                    Grad=2.037D-02 Max rot=    0.3568 deg.
 Gradient too large for Newton-Raphson -- use scaled steepest descent instead.
     ILin= 1 X=0.000D+00 Y=-1.775910243998D+03 DE= 0.00D+00 F= -7.43D-04
     ILin= 2 X=3.000D-01 Y=-1.775910440188D+03 DE=-1.96D-04 F= -5.65D-04
     ILin= 3 X=6.000D-01 Y=-1.775910583083D+03 DE=-3.39D-04 F= -3.88D-04
     ILin= 4 X=1.200D+00 Y=-1.775910709409D+03 DE=-4.65D-04 F= -3.37D-05
     Reject lnstep minimum 1.515D+00 FVal=-1.775910723068D+03 Lims=  6.00D-01  1.20D+00
     ILin= 5 X=2.400D+00 Y=-1.775910327109D+03 DE=-8.31D-05 F=  6.70D-04
     An  expanding polynomial of degree  5 produced  1.2573
     Minimum is close to point  4 DX=  5.73D-02 DF= -9.65D-07 DXR=  4.56D-02 DFR=  2.07D-03 which will be used.
 Iteration   2 EE= -1775.91070940867     Delta-E=       -0.000465410427 Grad=1.700D-02 Max rot=    0.5717 deg.
 Gradient too large for Newton-Raphson -- use scaled steepest descent instead.
     ILin= 1 X=0.000D+00 Y=-1.775910709409D+03 DE= 0.00D+00 F= -5.92D-04
     ILin= 2 X=6.000D-01 Y=-1.775910988559D+03 DE=-2.79D-04 F= -3.38D-04
     ILin= 3 X=1.200D+00 Y=-1.775911114985D+03 DE=-4.06D-04 F= -8.26D-05
     ILin= 4 X=2.500D+00 Y=-1.775910858270D+03 DE=-1.49D-04 F=  4.79D-04
     An  expanding polynomial of degree  4 produced  1.3928
 Iteration   3 EE= -1775.91112295079     Delta-E=       -0.000413542124 Grad=2.161D-02 Max rot=    0.4100 deg.
 Gradient too large for Newton-Raphson -- use scaled steepest descent instead.
     ILin= 1 X=0.000D+00 Y=-1.775911122951D+03 DE= 0.00D+00 F= -7.39D-04
     ILin= 2 X=1.300D+00 Y=-1.775911512575D+03 DE=-3.90D-04 F=  1.39D-04
     Accept linear search using points  1 and  2.
     An  expanding polynomial of degree  2 produced  1.1713
 Iteration   4 EE= -1775.91152487985     Delta-E=       -0.000401929061 Grad=1.920D-02 Max rot=    0.5855 deg.
 Gradient too large for Newton-Raphson -- use scaled steepest descent instead.
     ILin= 1 X=0.000D+00 Y=-1.775911524880D+03 DE= 0.00D+00 F= -6.87D-04
     ILin= 2 X=1.300D+00 Y=-1.775911913977D+03 DE=-3.89D-04 F=  9.05D-05
     Accept linear search using points  1 and  2.
     An  expanding polynomial of degree  2 produced  1.2121
     Minimum is close to point  2 DX= -8.79D-02 DF= -3.02D-06 DXR=  7.25D-02 DFR=  7.76D-03 which will be used.
 Iteration   5 EE= -1775.91191397717     Delta-E=       -0.000389097318 Grad=2.314D-02 Max rot=    0.4154 deg.
 Gradient too large for Newton-Raphson -- use scaled steepest descent instead.
     ILin= 1 X=0.000D+00 Y=-1.775911913977D+03 DE= 0.00D+00 F= -8.14D-04
     ILin= 2 X=1.200D+00 Y=-1.775912304868D+03 DE=-3.91D-04 F=  1.62D-04
     Accept linear search using points  1 and  2.
     An  expanding polynomial of degree  2 produced  1.0547
 Iteration   6 EE= -1775.91231979030     Delta-E=       -0.000405813125 Grad=1.775D-02 Max rot=    0.5726 deg.
 Gradient too large for Newton-Raphson -- use scaled steepest descent instead.
     ILin= 1 X=0.000D+00 Y=-1.775912319790D+03 DE= 0.00D+00 F= -6.11D-04
     ILin= 2 X=1.100D+00 Y=-1.775912702302D+03 DE=-3.83D-04 F= -8.39D-05
     Reject lnstep minimum 1.218D+00 FVal=-1.775912706863D+03 Lims=  0.00D+00  1.10D+00
     ILin= 3 X=2.300D+00 Y=-1.775912455282D+03 DE=-1.35D-04 F=  4.96D-04
     An  expanding polynomial of degree  3 produced  1.2724
 Iteration   7 EE= -1775.91270960331     Delta-E=       -0.000389813015 Grad=2.080D-02 Max rot=    0.4271 deg.
 Gradient too large for Newton-Raphson -- use scaled steepest descent instead.
     ILin= 1 X=0.000D+00 Y=-1.775912709603D+03 DE= 0.00D+00 F= -6.88D-04
     ILin= 2 X=1.200D+00 Y=-1.775913092221D+03 DE=-3.83D-04 F=  4.99D-05
     Accept linear search using points  1 and  2.
     An  expanding polynomial of degree  2 produced  1.1471
     Minimum is close to point  2 DX= -5.29D-02 DF= -1.09D-06 DXR=  4.61D-02 DFR=  2.86D-03 which will be used.
 Iteration   8 EE= -1775.91309222057     Delta-E=       -0.000382617258 Grad=1.973D-02 Max rot=    0.5768 deg.
 Gradient too large for Newton-Raphson -- use scaled steepest descent instead.
     ILin= 1 X=0.000D+00 Y=-1.775913092221D+03 DE= 0.00D+00 F= -6.96D-04
     ILin= 2 X=1.200D+00 Y=-1.775913468827D+03 DE=-3.77D-04 F=  6.93D-05
     Accept linear search using points  1 and  2.
     An  expanding polynomial of degree  2 produced  1.1275
     Minimum is close to point  2 DX= -7.25D-02 DF= -2.08D-06 DXR=  6.43D-02 DFR=  5.51D-03 which will be used.
 Iteration   9 EE= -1775.91346882686     Delta-E=       -0.000376606285 Grad=2.130D-02 Max rot=    0.4166 deg.
 Gradient too large for Newton-Raphson -- use scaled steepest descent instead.
     ILin= 1 X=0.000D+00 Y=-1.775913468827D+03 DE= 0.00D+00 F= -7.03D-04
     ILin= 2 X=1.100D+00 Y=-1.775913843552D+03 DE=-3.75D-04 F=  2.19D-05
     Accept linear search using points  1 and  2.
     An  expanding polynomial of degree  2 produced  1.0742
     Minimum is close to point  2 DX= -2.58D-02 DF= -2.57D-07 DXR=  2.40D-02 DFR=  6.85D-04 which will be used.
 Iteration  10 EE= -1775.91384355200     Delta-E=       -0.000374725147 Grad=1.767D-02 Max rot=    0.5579 deg.
 Gradient too large for Newton-Raphson -- use scaled steepest descent instead.
     ILin= 1 X=0.000D+00 Y=-1.775913843552D+03 DE= 0.00D+00 F= -5.90D-04
     ILin= 2 X=1.100D+00 Y=-1.775914202753D+03 DE=-3.59D-04 F= -6.24D-05
     Reject lnstep minimum 1.191D+00 FVal=-1.775914205346D+03 Lims=  0.00D+00  1.10D+00
     ILin= 3 X=2.200D+00 Y=-1.775913979765D+03 DE=-1.36D-04 F=  4.68D-04
     An  expanding polynomial of degree  3 produced  1.2287
 Iteration  11 EE= -1775.91420679724     Delta-E=       -0.000363245239 Grad=1.978D-02 Max rot=    0.4119 deg.
 Gradient too large for Newton-Raphson -- use scaled steepest descent instead.
     ILin= 1 X=0.000D+00 Y=-1.775914206797D+03 DE= 0.00D+00 F= -6.22D-04
     ILin= 2 X=1.100D+00 Y=-1.775914560604D+03 DE=-3.54D-04 F= -2.11D-05
     Reject lnstep minimum 1.129D+00 FVal=-1.775914560881D+03 Lims=  0.00D+00  1.10D+00
     ILin= 3 X=2.300D+00 Y=-1.775914192794D+03 DE= 1.40D-05 F=  6.34D-04
     An  expanding polynomial of degree  3 produced  1.1389
     Minimum is close to point  2 DX=  3.89D-02 DF= -4.12D-07 DXR=  3.41D-02 DFR=  1.17D-03 which will be used.
 Iteration  12 EE= -1775.91456060407     Delta-E=       -0.000353806829 Grad=1.644D-02 Max rot=    0.5405 deg.
 Gradient too large for Newton-Raphson -- use scaled steepest descent instead.
     ILin= 1 X=0.000D+00 Y=-1.775914560604D+03 DE= 0.00D+00 F= -5.27D-04
     ILin= 2 X=1.200D+00 Y=-1.775914905851D+03 DE=-3.45D-04 F= -4.79D-05
     Reject lnstep minimum 1.264D+00 FVal=-1.775914907146D+03 Lims=  0.00D+00  1.20D+00
     ILin= 3 X=2.400D+00 Y=-1.775914674724D+03 DE=-1.14D-04 F=  4.33D-04
     An  expanding polynomial of degree  3 produced  1.3188
     Minimum is close to point  2 DX=  1.19D-01 DF= -2.82D-06 DXR=  9.01D-02 DFR=  8.18D-03 which will be used.
 Iteration  13 EE= -1775.91490585086     Delta-E=       -0.000345246786 Grad=1.783D-02 Max rot=    0.4070 deg.
 Gradient too large for Newton-Raphson -- use scaled steepest descent instead.
     ILin= 1 X=0.000D+00 Y=-1.775914905851D+03 DE= 0.00D+00 F= -5.28D-04
     ILin= 2 X=1.200D+00 Y=-1.775915240327D+03 DE=-3.34D-04 F= -2.93D-05
     Reject lnstep minimum 1.240D+00 FVal=-1.775915240813D+03 Lims=  0.00D+00  1.20D+00
     ILin= 3 X=2.500D+00 Y=-1.775914927219D+03 DE=-2.14D-05 F=  5.11D-04
     An  expanding polynomial of degree  3 produced  1.2706
     Minimum is close to point  2 DX=  7.06D-02 DF= -1.03D-06 DXR=  5.55D-02 DFR=  3.09D-03 which will be used.
 Iteration  14 EE= -1775.91524032704     Delta-E=       -0.000334476181 Grad=1.681D-02 Max rot=    0.5291 deg.
 Gradient too large for Newton-Raphson -- use scaled steepest descent instead.
     ILin= 1 X=0.000D+00 Y=-1.775915240327D+03 DE= 0.00D+00 F= -5.30D-04
     ILin= 2 X=1.300D+00 Y=-1.775915562090D+03 DE=-3.22D-04 F=  3.55D-05
     Accept linear search using points  1 and  2.
     An  expanding polynomial of degree  2 produced  1.2562
     Minimum is close to point  2 DX= -4.38D-02 DF= -5.95D-07 DXR=  3.49D-02 DFR=  1.85D-03 which will be used.
 Iteration  15 EE= -1775.91556208986     Delta-E=       -0.000321762825 Grad=2.037D-02 Max rot=    0.3752 deg.
 Gradient too large for Newton-Raphson -- use scaled steepest descent instead.
     ILin= 1 X=0.000D+00 Y=-1.775915562090D+03 DE= 0.00D+00 F= -6.26D-04
     ILin= 2 X=1.300D+00 Y=-1.775915857120D+03 DE=-2.95D-04 F=  1.72D-04
     Accept linear search using points  1 and  2.
     An  expanding polynomial of degree  2 produced  1.1081
[...]
     5   Atom        0.025380     -0.012105     -0.013275
     6   Atom       -0.067959      0.031474      0.036485
     7   Atom        0.000591     -0.001737      0.001146
     8   Atom        0.002243     -0.001164     -0.001079
     9   Atom        0.000940     -0.000612     -0.000328
    10   Atom       -0.043683      0.060751     -0.017068
    11   Atom        0.018637     -0.008546     -0.010091
    12   Atom       -0.053494      0.063393     -0.009898
    13   Atom        0.008351     -0.021293      0.012942
    14   Atom       -0.002504      0.001941      0.000562
    15   Atom        0.001394     -0.001426      0.000032
    16   Atom       -0.003129      0.000996      0.002132
    17   Atom       -0.006139      0.003938      0.002201
    18   Atom        0.001300     -0.000577     -0.000722
    19   Atom        0.001389     -0.001090     -0.000299
    20   Atom        0.000353     -0.000049     -0.000304
    21   Atom        0.000420     -0.000253     -0.000167
    22   Atom       -0.000078     -0.000171      0.000249
    23   Atom       -0.023131     -0.015358      0.038489
    24   Atom       -0.427742     -0.431913      0.859655
    25   Atom       -0.011290     -0.002299      0.013589
    26   Atom        0.058001     -0.035200     -0.022801
    27   Atom        0.020250     -0.001038     -0.019213
    28   Atom       -0.001923      0.011627     -0.009704
    29   Atom       -0.007670      0.015150     -0.007480
    30   Atom        0.015263     -0.045189      0.029925
    31   Atom       -0.001189      0.001163      0.000026
    32   Atom       -0.000882     -0.000489      0.001371
    33   Atom       -0.000577      0.000939     -0.000362
    34   Atom       -0.000411      0.000673     -0.000262
    35   Atom        0.000826      0.002563     -0.003389
    36   Atom       -0.014598      0.004377      0.010221
    37   Atom        0.030450     -0.046886      0.016436
    38   Atom        0.005325     -0.024644      0.019319
    39   Atom        0.007522      0.015758     -0.023280
    40   Atom        0.004756      0.018131     -0.022887
    41   Atom       -0.028487     -0.052824      0.081311
    42   Atom        0.002204      0.000015     -0.002219
    43   Atom        0.003048     -0.001505     -0.001543
    44   Atom       -0.000097      0.001333     -0.001236
    45   Atom        0.000078      0.001175     -0.001253
    46   Atom       -0.003314      0.005565     -0.002251
 --------------------------------------------------------
                        XY            XZ            YZ
 --------------------------------------------------------
     1   Atom       -0.003326      0.005085     -0.001301
     2   Atom       -0.019838     -0.001725      0.005780
     3   Atom        0.047755     -0.019444     -0.093399
     4   Atom        0.002383     -0.002850     -0.010616
     5   Atom        0.007318      0.005599     -0.030806
     6   Atom       -0.029610     -0.030220      0.117537
     7   Atom       -0.000404     -0.000153      0.000746
     8   Atom        0.000030     -0.001463      0.004079
     9   Atom       -0.000225     -0.000136     -0.000096
    10   Atom       -0.052879     -0.029076      0.075092
    11   Atom        0.012384      0.014724     -0.027125
    12   Atom       -0.008121     -0.008095      0.071866
    13   Atom        0.003741      0.000086      0.000989
    14   Atom        0.002050     -0.003051     -0.005883
    15   Atom       -0.000128      0.001185     -0.002118
    16   Atom       -0.000631      0.002136     -0.005351
    17   Atom       -0.000759     -0.000203     -0.009249
    18   Atom       -0.000759     -0.001673      0.002069
    19   Atom        0.001451      0.000021     -0.001964
    20   Atom       -0.000084     -0.000381      0.000495
    21   Atom       -0.000130     -0.000249      0.000327
    22   Atom       -0.000654     -0.000867      0.000346
    23   Atom       -0.004896      0.007994     -0.028798
    24   Atom       -0.049013     -0.261529      0.250011
    25   Atom       -0.014993     -0.000448      0.002172
    26   Atom        0.037793     -0.045397     -0.019192
    27   Atom        0.054302     -0.046734     -0.033911
    28   Atom       -0.011316      0.021413      0.009728
    29   Atom       -0.009153      0.023340      0.006066
    30   Atom        0.025632     -0.079710     -0.032391
    31   Atom        0.001712      0.002905      0.004218
    32   Atom        0.001729      0.004164      0.002698
    33   Atom       -0.001088      0.001260      0.000502
    34   Atom       -0.001170      0.001441      0.000292
    35   Atom       -0.006028     -0.000732     -0.004445
    36   Atom        0.009569     -0.010212      0.004119
    37   Atom       -0.009760      0.066747     -0.012332
    38   Atom       -0.034751      0.061756     -0.035026
    39   Atom        0.005457     -0.016870      0.007297
    40   Atom        0.003114     -0.020007      0.002416
    41   Atom       -0.005641      0.064771     -0.017600
    42   Atom       -0.002939     -0.003197      0.002594
    43   Atom       -0.001857     -0.004165      0.001022
    44   Atom        0.000528     -0.001248      0.000443
    45   Atom        0.000820     -0.001309      0.000247
    46   Atom        0.005844      0.002075     -0.002011
 --------------------------------------------------------


 ---------------------------------------------------------------------------------
              Anisotropic Spin Dipole Couplings in Principal Axis System
 ---------------------------------------------------------------------------------

       Atom             a.u.   MegaHertz   Gauss  10(-4) cm-1        Axes

              Baa    -0.0052    -0.701    -0.250    -0.234  0.5455  0.7938 -0.2690
     1 C(13)  Bbb    -0.0026    -0.346    -0.123    -0.115 -0.4163  0.5352  0.7350
              Bcc     0.0078     1.046     0.373     0.349  0.7274 -0.2889  0.6224
 
              Baa    -0.0196    -2.624    -0.936    -0.875 -0.1373 -0.2136  0.9672
     2 C(13)  Bbb    -0.0126    -1.697    -0.605    -0.566  0.8457  0.4831  0.2267
              Bcc     0.0322     4.321     1.542     1.441 -0.5157  0.8491  0.1143
 
              Baa    -0.1132    -4.640    -1.656    -1.548  0.9800 -0.1130  0.1638
     3 S(33)  Bbb    -0.0945    -3.875    -1.383    -1.292 -0.1143  0.3542  0.9282
              Bcc     0.2077     8.515     3.038     2.840  0.1629  0.9283 -0.3342
 
              Baa    -0.0078    -1.046    -0.373    -0.349  0.1294  0.7130  0.6892
     4 C(13)  Bbb    -0.0064    -0.861    -0.307    -0.287  0.9746 -0.2195  0.0441
              Bcc     0.0142     1.907     0.681     0.636 -0.1827 -0.6660  0.7233
 
              Baa    -0.0447    -5.997    -2.140    -2.000 -0.1291  0.6964  0.7059
     5 C(13)  Bbb     0.0179     2.406     0.858     0.803  0.1463 -0.6907  0.7082
              Bcc     0.0268     3.591     1.281     1.198  0.9808  0.1947 -0.0127
 
              Baa    -0.0836   -11.216    -4.002    -3.741  0.0025  0.7149 -0.6992
     6 C(13)  Bbb    -0.0758   -10.176    -3.631    -3.394  0.9831  0.1262  0.1325
              Bcc     0.1594    21.392     7.633     7.136 -0.1829  0.6877  0.7025
 
              Baa    -0.0020    -0.264    -0.094    -0.088  0.1388  0.9646 -0.2242
     7 C(13)  Bbb     0.0006     0.076     0.027     0.025  0.9436 -0.0602  0.3255
              Bcc     0.0014     0.189     0.067     0.063 -0.3005  0.2568  0.9186
 
              Baa    -0.0053    -0.718    -0.256    -0.239  0.1393 -0.6917  0.7086
     8 C(13)  Bbb     0.0016     0.218     0.078     0.073  0.7884  0.5104  0.3433
              Bcc     0.0037     0.500     0.178     0.167 -0.5991  0.5109  0.6165
 
              Baa    -0.0007    -0.364    -0.130    -0.121  0.1565  0.9363  0.3144
     9 H(1)   Bbb    -0.0003    -0.161    -0.057    -0.054  0.0448 -0.3247  0.9447
              Bcc     0.0010     0.525     0.187     0.175  0.9867 -0.1337 -0.0927
 
              Baa    -0.0665    -8.927    -3.185    -2.978  0.7898  0.5200 -0.3252
    10 C(13)  Bbb    -0.0611    -8.200    -2.926    -2.735  0.5157 -0.2760  0.8111
              Bcc     0.1276    17.128     6.112     5.713 -0.3320  0.8083  0.4862
 
              Baa    -0.0425    -5.701    -2.034    -1.902 -0.2997  0.6600  0.6889
    11 C(13)  Bbb     0.0176     2.358     0.842     0.787  0.1724  0.7477 -0.6413
              Bcc     0.0249     3.342     1.193     1.115  0.9383  0.0734  0.3379
 
              Baa    -0.0568    -7.616    -2.717    -2.540  0.7277 -0.3152  0.6092
    12 C(13)  Bbb    -0.0514    -6.902    -2.463    -2.302  0.6824  0.4219 -0.5969
              Bcc     0.1082    14.518     5.180     4.843 -0.0688  0.8501  0.5221
 
              Baa    -0.0218    -2.923    -1.043    -0.975 -0.1231  0.9920 -0.0279
    13 C(13)  Bbb     0.0088     1.182     0.422     0.394  0.9913  0.1216 -0.0498
              Bcc     0.0130     1.742     0.621     0.581  0.0460  0.0338  0.9984
 
              Baa    -0.0052    -2.764    -0.986    -0.922  0.4809  0.4719  0.7389
    14 H(1)   Bbb    -0.0032    -1.691    -0.603    -0.564  0.8189 -0.5429 -0.1862
              Bcc     0.0083     4.455     1.590     1.486  0.3133  0.6947 -0.6475
 
              Baa    -0.0030    -1.611    -0.575    -0.537 -0.1383  0.7876  0.6005
    15 H(1)   Bbb     0.0005     0.255     0.091     0.085  0.7101  0.5015 -0.4941
              Bcc     0.0025     1.355     0.484     0.452  0.6903 -0.3581  0.6286
 
              Baa    -0.0046    -2.466    -0.880    -0.823  0.6386 -0.4920 -0.5917
    16 H(1)   Bbb    -0.0027    -1.448    -0.517    -0.483  0.7457  0.5855  0.3180
              Bcc     0.0073     3.913     1.396     1.305  0.1900 -0.6443  0.7408
 
              Baa    -0.0068    -0.919    -0.328    -0.306  0.6876  0.4999  0.5265
    17 C(13)  Bbb    -0.0055    -0.741    -0.264    -0.247  0.7257 -0.4503 -0.5202
              Bcc     0.0124     1.660     0.592     0.554 -0.0230  0.7398 -0.6724
 
              Baa    -0.0029    -1.522    -0.543    -0.508  0.1908 -0.6249  0.7570
    18 H(1)   Bbb    -0.0003    -0.137    -0.049    -0.046  0.6878  0.6353  0.3511
              Bcc     0.0031     1.658     0.592     0.553  0.7004 -0.4537 -0.5510
 
              Baa    -0.0030    -1.603    -0.572    -0.535 -0.2604  0.7804  0.5684
    19 H(1)   Bbb     0.0006     0.326     0.116     0.109  0.5985 -0.3315  0.7293
              Bcc     0.0024     1.277     0.456     0.426  0.7576  0.5301 -0.3807
 
              Baa    -0.0007    -0.399    -0.143    -0.133  0.2377 -0.5414  0.8065
    20 H(1)   Bbb     0.0001     0.043     0.015     0.014  0.6328  0.7162  0.2943
              Bcc     0.0007     0.357     0.127     0.119  0.7370 -0.4404 -0.5128
 
              Baa    -0.0005    -0.291    -0.104    -0.097 -0.0773  0.7286 -0.6805
    21 H(1)   Bbb    -0.0000    -0.021    -0.008    -0.007  0.5028  0.6179  0.6045
              Bcc     0.0006     0.312     0.111     0.104  0.8609 -0.2954 -0.4142
 
              Baa    -0.0009    -0.505    -0.180    -0.169  0.7759  0.4629  0.4286
    22 H(1)   Bbb    -0.0003    -0.186    -0.066    -0.062 -0.1189  0.7745 -0.6214
              Bcc     0.0013     0.691     0.247     0.231 -0.6195  0.4312  0.6559
 
              Baa    -0.0283    -1.159    -0.414    -0.387  0.3065  0.8868  0.3458
    23 S(33)  Bbb    -0.0239    -0.978    -0.349    -0.326  0.9440 -0.2364 -0.2303
              Bcc     0.0521     2.137     0.763     0.713  0.1224 -0.3970  0.9096
 
              Baa    -0.4789   -18.471    -6.591    -6.161  0.8826  0.4622  0.0861
    24 N(14)  Bbb    -0.4785   -18.456    -6.586    -6.156 -0.4306  0.8683 -0.2464
              Bcc     0.9575    36.928    13.177    12.318 -0.1886  0.1804  0.9653
 
              Baa    -0.0225    -3.016    -1.076    -1.006  0.8010  0.5981 -0.0261
    25 C(13)  Bbb     0.0081     1.090     0.389     0.364 -0.5691  0.7471 -0.3436
              Bcc     0.0143     1.926     0.687     0.642 -0.1860  0.2900  0.9388
 
              Baa    -0.0498    -6.684    -2.385    -2.230 -0.1601  0.9116  0.3786
    26 C(13)  Bbb    -0.0426    -5.718    -2.040    -1.907  0.4774 -0.2642  0.8380
              Bcc     0.0924    12.402     4.425     4.137  0.8640  0.3149 -0.3929
 
              Baa    -0.0505    -6.782    -2.420    -2.262  0.6362 -0.1848  0.7490
    27 C(13)  Bbb    -0.0437    -5.864    -2.092    -1.956 -0.3340  0.8092  0.4833
              Bcc     0.0942    12.646     4.513     4.218  0.6955  0.5576 -0.4532
 
              Baa    -0.0325    -4.361    -1.556    -1.455 -0.6199 -0.3172  0.7177
    28 C(13)  Bbb     0.0139     1.866     0.666     0.622  0.4332  0.6242  0.6501
              Bcc     0.0186     2.495     0.890     0.832 -0.6542  0.7140 -0.2496
 
              Baa    -0.0333    -4.470    -1.595    -1.491  0.6983  0.2173 -0.6820
    29 C(13)  Bbb     0.0144     1.928     0.688     0.643  0.4969  0.5386  0.6804
              Bcc     0.0189     2.542     0.907     0.848 -0.5151  0.8141 -0.2681
 
              Baa    -0.0596    -7.995    -2.853    -2.667  0.4879  0.5864  0.6466
    30 C(13)  Bbb    -0.0538    -7.215    -2.575    -2.407 -0.5837  0.7700 -0.2579
              Bcc     0.1134    15.211     5.428     5.074 -0.6491 -0.2516  0.7179
 
              Baa    -0.0042    -2.264    -0.808    -0.755 -0.4749 -0.4429  0.7605
    31 H(1)   Bbb    -0.0020    -1.070    -0.382    -0.357  0.7839 -0.6057  0.1367
              Bcc     0.0062     3.334     1.190     1.112  0.4001  0.6611  0.6348
 
              Baa    -0.0041    -2.187    -0.780    -0.730  0.7643  0.1089 -0.6356
    32 H(1)   Bbb    -0.0020    -1.071    -0.382    -0.357 -0.3558  0.8933 -0.2748
              Bcc     0.0061     3.258     1.163     1.087  0.5378  0.4361  0.7215
 
              Baa    -0.0022    -1.153    -0.411    -0.385  0.7185  0.3497 -0.6012
    33 H(1)   Bbb     0.0006     0.340     0.121     0.113  0.4728  0.3884  0.7910
              Bcc     0.0015     0.813     0.290     0.271 -0.5101  0.8526 -0.1138
 
              Baa    -0.0022    -1.163    -0.415    -0.388  0.7203  0.3562 -0.5952
    34 H(1)   Bbb     0.0005     0.284     0.101     0.095  0.2551  0.6619  0.7048
              Bcc     0.0016     0.879     0.314     0.293 -0.6451  0.6595 -0.3859
 
              Baa    -0.0076    -4.073    -1.453    -1.358  0.4649  0.5702  0.6773
    35 H(1)   Bbb    -0.0009    -0.483    -0.172    -0.161 -0.6682 -0.2759  0.6909
              Bcc     0.0085     4.556     1.626     1.520 -0.5808  0.7738 -0.2527
 
              Baa    -0.0223    -2.994    -1.068    -0.999  0.8748 -0.3631  0.3206
    36 C(13)  Bbb     0.0084     1.122     0.400     0.374  0.3771  0.9260  0.0198
              Bcc     0.0140     1.872     0.668     0.624 -0.3040  0.1036  0.9470
 
              Baa    -0.0497    -6.675    -2.382    -2.226 -0.1899  0.9128  0.3617
    37 C(13)  Bbb    -0.0425    -5.709    -2.037    -1.904 -0.6485 -0.3932  0.6517
              Bcc     0.0923    12.384     4.419     4.131  0.7371 -0.1108  0.6667
 
              Baa    -0.0508    -6.819    -2.433    -2.275  0.7826  0.3525 -0.5131
    38 C(13)  Bbb    -0.0440    -5.903    -2.106    -1.969 -0.0457  0.8545  0.5174
              Bcc     0.0948    12.722     4.540     4.244  0.6208 -0.3814  0.6849
 
              Baa    -0.0324    -4.343    -1.550    -1.449  0.4040 -0.1818  0.8965
    39 C(13)  Bbb     0.0138     1.856     0.662     0.619  0.7580 -0.4821 -0.4394
              Bcc     0.0185     2.487     0.887     0.830  0.5121  0.8570 -0.0570
 
              Baa    -0.0336    -4.513    -1.610    -1.505  0.4655 -0.0692  0.8823
    40 C(13)  Bbb     0.0146     1.953     0.697     0.652  0.8009 -0.3913 -0.4532
              Bcc     0.0191     2.560     0.913     0.854  0.3766  0.9177 -0.1267
 
              Baa    -0.0596    -7.995    -2.853    -2.667  0.7990 -0.4294 -0.4210
    41 C(13)  Bbb    -0.0538    -7.214    -2.574    -2.406  0.4338  0.8964 -0.0912
              Bcc     0.1133    15.210     5.427     5.073  0.4165 -0.1097  0.9025
 
              Baa    -0.0042    -2.266    -0.808    -0.756  0.2843 -0.3478  0.8934
    42 H(1)   Bbb    -0.0020    -1.064    -0.380    -0.355  0.6223  0.7758  0.1040
              Bcc     0.0062     3.330     1.188     1.111  0.7293 -0.5264 -0.4370
 
              Baa    -0.0040    -2.137    -0.762    -0.713  0.5144  0.0317  0.8570
    43 H(1)   Bbb    -0.0021    -1.117    -0.399    -0.373  0.2146  0.9628 -0.1644
              Bcc     0.0061     3.254     1.161     1.085  0.8303 -0.2685 -0.4884
 
              Baa    -0.0022    -1.154    -0.412    -0.385  0.5425 -0.1856  0.8193
    44 H(1)   Bbb     0.0007     0.350     0.125     0.117  0.7847 -0.2364 -0.5731
              Bcc     0.0015     0.804     0.287     0.268  0.3000  0.9538  0.0174
 
              Baa    -0.0022    -1.164    -0.415    -0.388  0.5433 -0.1929  0.8171
    45 H(1)   Bbb     0.0005     0.264     0.094     0.088  0.6258 -0.5558 -0.5473
              Bcc     0.0017     0.900     0.321     0.300  0.5597  0.8086 -0.1812
 
              Baa    -0.0076    -4.073    -1.453    -1.359  0.7847 -0.4173 -0.4584
    46 H(1)   Bbb    -0.0009    -0.484    -0.173    -0.161  0.4479 -0.1296  0.8847
              Bcc     0.0085     4.557     1.626     1.520  0.4286  0.8995 -0.0852
 

 ---------------------------------------------------------------------------------

 No NMR shielding tensors so no spin-rotation constants.
 Leave Link  601 at Mon Jan 18 20:36:18 2021, MaxMem=  4026531840 cpu:              10.0 elap:               1.8
 (Enter /opt/ohpc/pub/libs/gaussian/g16-A.03/sandybridge/g16/l9999.exe)

 Test job not archived.
 1\1\GINC-CASCADEB058\SP\ULC-wHPBE\TZVP\C24H19N1S2(1+,2)\RDU230\18-Jan-
 2021\0\\#P LC-wHPBE/TZVP iop(3/107=0155800000, 3/108=0155800000) scf=(
 conver=6,fermi,ndamp=35,noincfock,novaracc,vshift=500,xqc)\\H19 C24 S2
  N1\\1,2\C,0,-3.352046,1.022081,0.90149\C,0,-4.015603,0.124147,0.07783
 3\S,0,-3.193622,-0.833868,-1.176213\C,0,-5.398593,-0.028228,0.207342\C
 ,0,-0.749106,0.373785,-1.531691\C,0,-1.475477,-0.56699,-0.815552\C,0,-
 4.041516,1.761821,1.844012\C,0,-6.080951,0.720801,1.156415\H,0,-7.4759
 44,-0.835079,-0.458792\C,0,0.601771,0.54717,-1.299188\C,0,-0.823428,-1
 .336346,0.139234\C,0,0.521569,-1.15492,0.389409\C,0,1.255724,-0.212476
 ,-0.331046\H,0,1.160253,1.275483,-1.876291\H,0,-1.383265,-2.076857,0.7
 00814\H,0,1.015474,-1.752114,1.147605\C,0,-5.411167,1.613701,1.970885\
 H,0,-2.279577,1.141824,0.800598\H,0,-1.248138,0.967582,-2.290346\H,0,-
 3.503227,2.458074,2.478369\H,0,-7.154267,0.598627,1.263844\H,0,-5.9624
 34,2.189124,2.706912\S,0,-6.238224,-1.192989,-0.835805\N,0,2.627173,-0
 .037586,-0.087724\C,0,3.438312,-1.140752,0.276409\C,0,4.374889,-1.0129
 28,1.295896\C,0,3.317625,-2.35655,-0.387733\C,0,5.1794,-2.084309,1.640
 01\C,0,4.112866,-3.428755,-0.025756\C,0,5.049979,-3.298472,0.986151\H,
 0,4.470709,-0.064848,1.814448\H,0,2.593785,-2.456724,-1.189607\H,0,5.9
 0745,-1.970366,2.436839\H,0,4.006805,-4.37257,-0.551042\H,0,5.67733,-4
 .139106,1.26285\C,0,3.224517,1.239724,-0.221989\C,0,4.446224,1.376745,
 -0.87125\C,0,2.604731,2.367846,0.304633\C,0,5.03746,2.622109,-0.986244
 \C,0,3.193018,3.612223,0.169883\C,0,4.413292,3.746533,-0.472133\H,0,4.
 931907,0.498005,-1.282066\H,0,1.656156,2.262505,0.820378\H,0,5.992055,
 2.71427,-1.494403\H,0,2.697309,4.484427,0.584059\H,0,4.876004,4.72281,
 -0.569917\\Version=EM64L-G16RevA.03\State=2-A\HF=-1775.9216581\S2=0.76
 4028\S2-1=0.\S2A=0.750173\RMSD=5.883e-07\Dipole=3.6706885,0.4542576,0.
 5119007\Quadrupole=38.2328504,-8.1933854,-30.039465,-3.9792393,-3.8206
 379,-0.8956684\PG=C01 [X(C24H19N1S2)]\\@


 DIATOMIC MOLECULES ARE PECULIAR BECAUSE THEY ONLY HAVE TWO ENDS,
 AND THESE ENDS ARE VERY CLOSE TOGETHER.
 KLAUS RUEDENBERG, REV.MOD.PHYS. PG 176, 32, (1960)
 Job cpu time:       0 days 16 hours 47 minutes 31.0 seconds.
 Elapsed time:       0 days  2 hours  6 minutes 47.0 seconds.
 File lengths (MBytes):  RWF=    244 Int=      0 D2E=      0 Chk=     36 Scr=      8
 Normal termination of Gaussian 16 at Mon Jan 18 20:36:18 2021.
