 Entering Gaussian System, Link 0=g16
 Input=mol_ta_pa_half_tune_n11.gjf
 Output=mol_ta_pa_half_tune_n11.log
 Initial command:
 /opt/ohpc/pub/libs/gaussian/g16-A.03/sandybridge/g16/l1.exe "/mnt/gpfs2_4m/scratch/rdu230/ondemand/projects/init_structures/wtuning/mol_ta_pa_half/tuning_mol_ta_pa_half_ocycle0/Gau-71697.inp" -scrdir="/mnt/gpfs2_4m/scratch/rdu230/ondemand/projects/init_structures/wtuning/mol_ta_pa_half/tuning_mol_ta_pa_half_ocycle0/"
 Entering Link 1 = /opt/ohpc/pub/libs/gaussian/g16-A.03/sandybridge/g16/l1.exe PID=     71698.
  
 Copyright (c) 1988,1990,1992,1993,1995,1998,2003,2009,2016,
            Gaussian, Inc.  All Rights Reserved.
  
 This is part of the Gaussian(R) 16 program.  It is based on
 the Gaussian(R) 09 system (copyright 2009, Gaussian, Inc.),
 the Gaussian(R) 03 system (copyright 2003, Gaussian, Inc.),
 the Gaussian(R) 98 system (copyright 1998, Gaussian, Inc.),
 the Gaussian(R) 94 system (copyright 1995, Gaussian, Inc.),
 the Gaussian 92(TM) system (copyright 1992, Gaussian, Inc.),
 the Gaussian 90(TM) system (copyright 1990, Gaussian, Inc.),
 the Gaussian 88(TM) system (copyright 1988, Gaussian, Inc.),
 the Gaussian 86(TM) system (copyright 1986, Carnegie Mellon
 University), and the Gaussian 82(TM) system (copyright 1983,
 Carnegie Mellon University). Gaussian is a federally registered
 trademark of Gaussian, Inc.
  
 This software contains proprietary and confidential information,
 including trade secrets, belonging to Gaussian, Inc.
  
 This software is provided under written license and may be
 used, copied, transmitted, or stored only in accord with that
 written license.
  
 The following legend is applicable only to US Government
 contracts under FAR:
  
                    RESTRICTED RIGHTS LEGEND
  
 Use, reproduction and disclosure by the US Government is
 subject to restrictions as set forth in subparagraphs (a)
 and (c) of the Commercial Computer Software - Restricted
 Rights clause in FAR 52.227-19.
  
 Gaussian, Inc.
 340 Quinnipiac St., Bldg. 40, Wallingford CT 06492
  
  
 ---------------------------------------------------------------
 Warning -- This program may not be used in any manner that
 competes with the business of Gaussian, Inc. or will provide
 assistance to any competitor of Gaussian, Inc.  The licensee
 of this program is prohibited from giving any competitor of
 Gaussian, Inc. access to this program.  By using this program,
 the user acknowledges that Gaussian, Inc. is engaged in the
 business of creating and licensing software in the field of
 computational chemistry and represents and warrants to the
 licensee that it is not a competitor of Gaussian, Inc. and that
 it will not use this program in any manner prohibited above.
 ---------------------------------------------------------------
  

 Cite this work as:
 Gaussian 16, Revision A.03,
 M. J. Frisch, G. W. Trucks, H. B. Schlegel, G. E. Scuseria, 
 M. A. Robb, J. R. Cheeseman, G. Scalmani, V. Barone, 
 G. A. Petersson, H. Nakatsuji, X. Li, M. Caricato, A. V. Marenich, 
 J. Bloino, B. G. Janesko, R. Gomperts, B. Mennucci, H. P. Hratchian, 
 J. V. Ortiz, A. F. Izmaylov, J. L. Sonnenberg, D. Williams-Young, 
 F. Ding, F. Lipparini, F. Egidi, J. Goings, B. Peng, A. Petrone, 
 T. Henderson, D. Ranasinghe, V. G. Zakrzewski, J. Gao, N. Rega, 
 G. Zheng, W. Liang, M. Hada, M. Ehara, K. Toyota, R. Fukuda, 
 J. Hasegawa, M. Ishida, T. Nakajima, Y. Honda, O. Kitao, H. Nakai, 
 T. Vreven, K. Throssell, J. A. Montgomery, Jr., J. E. Peralta, 
 F. Ogliaro, M. J. Bearpark, J. J. Heyd, E. N. Brothers, K. N. Kudin, 
 V. N. Staroverov, T. A. Keith, R. Kobayashi, J. Normand, 
 K. Raghavachari, A. P. Rendell, J. C. Burant, S. S. Iyengar, 
 J. Tomasi, M. Cossi, J. M. Millam, M. Klene, C. Adamo, R. Cammi, 
 J. W. Ochterski, R. L. Martin, K. Morokuma, O. Farkas, 
 J. B. Foresman, and D. J. Fox, Gaussian, Inc., Wallingford CT, 2016.
 
 ******************************************
 Gaussian 16:  EM64L-G16RevA.03 25-Dec-2016
                19-Jan-2021 
 ******************************************
 %mem=30GB
 %nproc=8
 Will use up to    8 processors via shared memory.
 ----------------------------------------------------------------------
 #P LC-wHPBE/TZVP iop(3/107=0181400000, 3/108=0181400000) scf=(conver=6
 ,fermi,ndamp=35,noincfock,novaracc,vshift=500,xqc)
 ----------------------------------------------------------------------
 1/38=1,172=1/1;
 2/12=2,17=6,18=5,40=1/2;
 3/5=19,7=101,11=2,25=1,30=1,74=-71,107=181400000,108=181400000/1,2,3;
 4//1;
 5/5=100002,6=6,8=3,10=500,13=1,18=-1,22=13,38=1,93=35/2,8;
 6/7=2,8=2,9=2,10=2,28=1/1;
 99/5=1,9=1/99;
 Leave Link    1 at Tue Jan 19 12:47:03 2021, MaxMem=  4026531840 cpu:               1.3 elap:               0.2
 (Enter /opt/ohpc/pub/libs/gaussian/g16-A.03/sandybridge/g16/l101.exe)
 -------------
 H19 C24 S2 N1
 -------------
 Symbolic Z-matrix:
 Charge =  0 Multiplicity = 1
 C                    -3.35205   1.02208   0.90149 
 C                    -4.0156    0.12415   0.07783 
 S                    -3.19362  -0.83387  -1.17621 
 C                    -5.39859  -0.02823   0.20734 
 C                    -0.74911   0.37379  -1.53169 
 C                    -1.47548  -0.56699  -0.81555 
 C                    -4.04152   1.76182   1.84401 
 C                    -6.08095   0.7208    1.15641 
 H                    -7.47594  -0.83508  -0.45879 
 C                     0.60177   0.54717  -1.29919 
 C                    -0.82343  -1.33635   0.13923 
 C                     0.52157  -1.15492   0.38941 
 C                     1.25572  -0.21248  -0.33105 
 H                     1.16025   1.27548  -1.87629 
 H                    -1.38327  -2.07686   0.70081 
 H                     1.01547  -1.75211   1.1476 
 C                    -5.41117   1.6137    1.97089 
 H                    -2.27958   1.14182   0.8006 
 H                    -1.24814   0.96758  -2.29035 
 H                    -3.50323   2.45807   2.47837 
 H                    -7.15427   0.59863   1.26384 
 H                    -5.96243   2.18912   2.70691 
 S                    -6.23822  -1.19299  -0.83581 
 N                     2.62717  -0.03759  -0.08772 
 C                     3.43831  -1.14075   0.27641 
 C                     4.37489  -1.01293   1.2959 
 C                     3.31763  -2.35655  -0.38773 
 C                     5.1794   -2.08431   1.64001 
 C                     4.11287  -3.42876  -0.02576 
 C                     5.04998  -3.29847   0.98615 
 H                     4.47071  -0.06485   1.81445 
 H                     2.59379  -2.45672  -1.18961 
 H                     5.90745  -1.97037   2.43684 
 H                     4.0068   -4.37257  -0.55104 
 H                     5.67733  -4.13911   1.26285 
 C                     3.22452   1.23972  -0.22199 
 C                     4.44622   1.37675  -0.87125 
 C                     2.60473   2.36785   0.30463 
 C                     5.03746   2.62211  -0.98624 
 C                     3.19302   3.61222   0.16988 
 C                     4.41329   3.74653  -0.47213 
 H                     4.93191   0.49801  -1.28207 
 H                     1.65616   2.2625    0.82038 
 H                     5.99206   2.71427  -1.4944 
 H                     2.69731   4.48443   0.58406 
 H                     4.876     4.72281  -0.56992 
 
 ITRead=  0  0  0  0  0  0  0  0  0  0  0  0  0  0  0  0  0  0  0  0
 ITRead=  0  0  0  0  0  0  0  0  0  0  0  0  0  0  0  0  0  0  0  0
 ITRead=  0  0  0  0  0  0
 MicOpt= -1 -1 -1 -1 -1 -1 -1 -1 -1 -1 -1 -1 -1 -1 -1 -1 -1 -1 -1 -1
 MicOpt= -1 -1 -1 -1 -1 -1 -1 -1 -1 -1 -1 -1 -1 -1 -1 -1 -1 -1 -1 -1
 MicOpt= -1 -1 -1 -1 -1 -1
 NAtoms=     46 NQM=       46 NQMF=       0 NMMI=      0 NMMIF=      0
                NMic=       0 NMicF=      0.
                    Isotopes and Nuclear Properties:
 (Nuclear quadrupole moments (NQMom) in fm**2, nuclear magnetic moments (NMagM)
  in nuclear magnetons)

  Atom         1           2           3           4           5           6           7           8           9          10
 IAtWgt=          12          12          32          12          12          12          12          12           1          12
 AtmWgt=  12.0000000  12.0000000  31.9720718  12.0000000  12.0000000  12.0000000  12.0000000  12.0000000   1.0078250  12.0000000
 NucSpn=           0           0           0           0           0           0           0           0           1           0
 AtZEff=  -0.0000000  -0.0000000  -0.0000000  -0.0000000  -0.0000000  -0.0000000  -0.0000000  -0.0000000  -0.0000000  -0.0000000
 NQMom=    0.0000000   0.0000000   0.0000000   0.0000000   0.0000000   0.0000000   0.0000000   0.0000000   0.0000000   0.0000000
 NMagM=    0.0000000   0.0000000   0.0000000   0.0000000   0.0000000   0.0000000   0.0000000   0.0000000   2.7928460   0.0000000
 AtZNuc=   6.0000000   6.0000000  16.0000000   6.0000000   6.0000000   6.0000000   6.0000000   6.0000000   1.0000000   6.0000000

  Atom        11          12          13          14          15          16          17          18          19          20
 IAtWgt=          12          12          12           1           1           1          12           1           1           1
 AtmWgt=  12.0000000  12.0000000  12.0000000   1.0078250   1.0078250   1.0078250  12.0000000   1.0078250   1.0078250   1.0078250
 NucSpn=           0           0           0           1           1           1           0           1           1           1
 AtZEff=  -0.0000000  -0.0000000  -0.0000000  -0.0000000  -0.0000000  -0.0000000  -0.0000000  -0.0000000  -0.0000000  -0.0000000
 NQMom=    0.0000000   0.0000000   0.0000000   0.0000000   0.0000000   0.0000000   0.0000000   0.0000000   0.0000000   0.0000000
 NMagM=    0.0000000   0.0000000   0.0000000   2.7928460   2.7928460   2.7928460   0.0000000   2.7928460   2.7928460   2.7928460
 AtZNuc=   6.0000000   6.0000000   6.0000000   1.0000000   1.0000000   1.0000000   6.0000000   1.0000000   1.0000000   1.0000000

  Atom        21          22          23          24          25          26          27          28          29          30
 IAtWgt=           1           1          32          14          12          12          12          12          12          12
 AtmWgt=   1.0078250   1.0078250  31.9720718  14.0030740  12.0000000  12.0000000  12.0000000  12.0000000  12.0000000  12.0000000
 NucSpn=           1           1           0           2           0           0           0           0           0           0
 AtZEff=  -0.0000000  -0.0000000  -0.0000000  -0.0000000  -0.0000000  -0.0000000  -0.0000000  -0.0000000  -0.0000000  -0.0000000
 NQMom=    0.0000000   0.0000000   0.0000000   2.0440000   0.0000000   0.0000000   0.0000000   0.0000000   0.0000000   0.0000000
 NMagM=    2.7928460   2.7928460   0.0000000   0.4037610   0.0000000   0.0000000   0.0000000   0.0000000   0.0000000   0.0000000
 AtZNuc=   1.0000000   1.0000000  16.0000000   7.0000000   6.0000000   6.0000000   6.0000000   6.0000000   6.0000000   6.0000000

  Atom        31          32          33          34          35          36          37          38          39          40
 IAtWgt=           1           1           1           1           1          12          12          12          12          12
 AtmWgt=   1.0078250   1.0078250   1.0078250   1.0078250   1.0078250  12.0000000  12.0000000  12.0000000  12.0000000  12.0000000
 NucSpn=           1           1           1           1           1           0           0           0           0           0
 AtZEff=  -0.0000000  -0.0000000  -0.0000000  -0.0000000  -0.0000000  -0.0000000  -0.0000000  -0.0000000  -0.0000000  -0.0000000
 NQMom=    0.0000000   0.0000000   0.0000000   0.0000000   0.0000000   0.0000000   0.0000000   0.0000000   0.0000000   0.0000000
 NMagM=    2.7928460   2.7928460   2.7928460   2.7928460   2.7928460   0.0000000   0.0000000   0.0000000   0.0000000   0.0000000
 AtZNuc=   1.0000000   1.0000000   1.0000000   1.0000000   1.0000000   6.0000000   6.0000000   6.0000000   6.0000000   6.0000000

  Atom        41          42          43          44          45          46
 IAtWgt=          12           1           1           1           1           1
 AtmWgt=  12.0000000   1.0078250   1.0078250   1.0078250   1.0078250   1.0078250
 NucSpn=           0           1           1           1           1           1
 AtZEff=  -0.0000000  -0.0000000  -0.0000000  -0.0000000  -0.0000000  -0.0000000
 NQMom=    0.0000000   0.0000000   0.0000000   0.0000000   0.0000000   0.0000000
 NMagM=    0.0000000   2.7928460   2.7928460   2.7928460   2.7928460   2.7928460
 AtZNuc=   6.0000000   1.0000000   1.0000000   1.0000000   1.0000000   1.0000000
 Leave Link  101 at Tue Jan 19 12:47:03 2021, MaxMem=  4026531840 cpu:               0.7 elap:               0.1
 (Enter /opt/ohpc/pub/libs/gaussian/g16-A.03/sandybridge/g16/l202.exe)
                          Input orientation:                          
 ---------------------------------------------------------------------
 Center     Atomic      Atomic             Coordinates (Angstroms)
 Number     Number       Type             X           Y           Z
 ---------------------------------------------------------------------
      1          6           0       -3.352046    1.022081    0.901490
      2          6           0       -4.015603    0.124147    0.077833
      3         16           0       -3.193622   -0.833868   -1.176213
      4          6           0       -5.398593   -0.028228    0.207342
      5          6           0       -0.749106    0.373785   -1.531691
      6          6           0       -1.475477   -0.566990   -0.815552
      7          6           0       -4.041516    1.761821    1.844012
      8          6           0       -6.080951    0.720801    1.156415
      9          1           0       -7.475944   -0.835079   -0.458792
     10          6           0        0.601771    0.547170   -1.299188
     11          6           0       -0.823428   -1.336346    0.139234
     12          6           0        0.521569   -1.154920    0.389409
     13          6           0        1.255724   -0.212476   -0.331046
     14          1           0        1.160253    1.275483   -1.876291
     15          1           0       -1.383265   -2.076857    0.700814
     16          1           0        1.015474   -1.752114    1.147605
     17          6           0       -5.411167    1.613701    1.970885
     18          1           0       -2.279577    1.141824    0.800598
     19          1           0       -1.248138    0.967582   -2.290346
     20          1           0       -3.503227    2.458074    2.478369
     21          1           0       -7.154267    0.598627    1.263844
     22          1           0       -5.962434    2.189124    2.706912
     23         16           0       -6.238224   -1.192989   -0.835805
     24          7           0        2.627173   -0.037586   -0.087724
     25          6           0        3.438312   -1.140752    0.276409
     26          6           0        4.374889   -1.012928    1.295896
     27          6           0        3.317625   -2.356550   -0.387733
     28          6           0        5.179400   -2.084309    1.640010
     29          6           0        4.112866   -3.428755   -0.025756
     30          6           0        5.049979   -3.298472    0.986151
     31          1           0        4.470709   -0.064848    1.814448
     32          1           0        2.593785   -2.456724   -1.189607
     33          1           0        5.907450   -1.970366    2.436839
     34          1           0        4.006805   -4.372570   -0.551042
     35          1           0        5.677330   -4.139106    1.262850
     36          6           0        3.224517    1.239724   -0.221989
     37          6           0        4.446224    1.376745   -0.871250
     38          6           0        2.604731    2.367846    0.304633
     39          6           0        5.037460    2.622109   -0.986244
     40          6           0        3.193018    3.612223    0.169883
     41          6           0        4.413292    3.746533   -0.472133
     42          1           0        4.931907    0.498005   -1.282066
     43          1           0        1.656156    2.262505    0.820378
     44          1           0        5.992055    2.714270   -1.494403
     45          1           0        2.697309    4.484427    0.584059
     46          1           0        4.876004    4.722810   -0.569917
 ---------------------------------------------------------------------
                    Distance matrix (angstroms):
                    1          2          3          4          5
     1  C    0.000000
     2  C    1.387445   0.000000
     3  S    2.790429   1.779347   0.000000
     4  C    2.402779   1.397373   2.724918   0.000000
     5  C    3.621596   3.650053   2.749627   4.980319   0.000000
     6  C    2.999148   2.779937   1.775760   4.089916   1.387634
     7  C    1.382365   2.408742   4.071644   2.779320   4.915484
     8  C    2.757296   2.405202   4.024279   1.388307   5.981213
     9  H    4.722917   3.630708   4.342001   2.325969   6.918296
    10  C    4.549856   4.836867   4.040717   6.213299   1.381662
    11  C    3.540780   3.510953   2.756938   4.758986   2.392083
    12  C    4.472857   4.724301   4.044365   6.029171   2.764449
    13  C    4.926948   5.297866   4.571336   6.678603   2.409272
    14  H    5.304821   5.650988   4.888323   7.004259   2.139500
    15  H    3.676926   3.487367   2.888883   4.534672   3.375186
    16  H    5.179958   5.475080   4.894874   6.707916   3.848612
    17  C    2.394494   2.783885   4.562053   2.409600   5.961564
    18  H    1.083839   2.138187   2.940513   3.383672   2.893406
    19  H    3.823247   3.738785   2.876008   4.945337   1.084982
    20  H    2.138102   3.387081   4.928357   3.864152   5.292450
    21  H    3.842850   3.388652   4.867507   2.142787   6.992257
    22  H    3.381666   3.868635   5.646544   3.388571   6.959885
    23  S    4.031718   2.740370   3.084550   1.774769   5.750605
    24  N    6.152438   6.646807   5.974992   8.031194   3.695068
    25  C    7.153848   7.563085   6.796090   8.906928   4.805988
    26  C    8.000146   8.554354   7.964028   9.883093   6.014445
    27  C    7.586946   7.755440   6.733246   9.041441   5.030077
    28  C    9.109371   9.584662   8.922007  10.870784   7.158847
    29  C    8.740403   8.871632   7.838479  10.103750   6.353418
    30  C    9.448194   9.732633   8.871699  10.976051   7.311251
    31  H    7.950497   8.664239   8.263015   9.999363   6.215747
    32  H    7.199144   7.207726   6.010651   8.469189   4.393600
    33  H    9.851411  10.412438   9.857752  11.686281   8.096543
    34  H    9.239307   9.218187   8.047323  10.387972   6.790305
    35  H   10.406636  10.655165   9.775859  11.861260   8.335150
    36  C    6.675384   7.331694   6.811963   8.726400   4.272569
    37  C    8.005086   8.606525   7.959087  10.002886   5.332313
    38  C    6.136001   6.993886   6.787104   8.354869   4.312376
    39  C    8.746853   9.451456   8.929198  10.833288   6.231919
    40  C    7.076860   8.008706   7.897396   9.331134   5.378027
    41  C    8.343258   9.190779   8.907353  10.534875   6.256872
    42  H    8.582916   9.057982   8.234641  10.450574   5.687851
    43  H    5.160166   6.106783   6.090505   7.442631   3.858079
    44  H    9.793673  10.456284   9.852268  11.839092   7.136001
    45  H    6.977342   8.020692   8.129323   9.276292   5.766416
    46  H    9.141184  10.031349   9.816472  11.346534   7.175018
                    6          7          8          9         10
     6  C    0.000000
     7  C    4.368203   0.000000
     8  C    5.172760   2.390775   0.000000
     9  H    6.017039   4.882836   2.641148   0.000000
    10  C    2.406287   5.737177   7.121721   8.238104   0.000000
    11  C    1.388774   4.781318   5.736555   6.698125   2.765481
    12  C    2.405366   5.607583   6.906511   8.048724   2.398938
    13  C    2.796406   6.057184   7.543895   8.754769   1.393562
    14  H    3.386288   6.413703   7.870198   9.002648   1.084154
    15  H    2.141861   4.807146   5.486594   6.325143   3.850441
    16  H    3.385756   6.197247   7.514961   8.690549   3.382995
    17  C    5.292381   1.383467   1.381753   4.020343   6.927214
    18  H    2.485672   2.139518   3.841134   5.700565   3.614537
    19  H    2.140470   5.052395   5.941140   6.737191   2.140398
    20  H    4.910468   1.084865   3.377920   5.937529   5.896821
    21  H    6.158832   3.373253   1.085576   2.264170   8.168715
    22  H    6.335353   2.148746   2.138705   4.632299   7.863437
    23  S    4.803753   4.553883   2.766996   1.342456   7.073076
    24  N    4.200207   7.172230   8.829182  10.141334   2.431427
    25  C    5.066251   8.174970   9.739413  10.943260   3.657534
    26  C    6.235692   8.878938  10.599522  11.981352   4.837849
    27  C    5.134139   8.723452  10.009381  10.900507   4.078995
    28  C    7.253925   9.992979  11.614560  12.888882   6.043033
    29  C    6.327958   9.845408  11.069338  11.883400   5.455034
    30  C    7.299911  10.440200  11.835588  12.847370   6.308589
    31  H    6.521210   8.706065  10.601310  12.185376   5.003796
    32  H    4.502211   8.427703   9.531607  10.225618   3.606038
    33  H    8.188719  10.642490  12.353284  13.740043   6.960324
    34  H    6.678909  10.399159  11.428940  12.015651   6.029745
    35  H    8.260897  11.384843  12.723490  13.670745   7.367939
    36  C    5.070155   7.572066   9.421306  10.902328   2.918696
    37  C    6.232796   8.919790  10.740722  12.132616   3.956153
    38  C    5.149386   6.849055   8.881405  10.604789   3.146260
    39  C    7.253815   9.548730  11.481508  12.992907   4.906999
    40  C    6.342850   7.652789   9.764224  11.575858   4.274024
    41  C    7.307668   8.988180  11.042480  12.741479   5.044565
    42  H    6.512021   9.586027  11.281794  12.506385   4.330449
    43  H    4.526526   5.810506   7.896366   9.727618   2.923467
    44  H    8.184836  10.617190  12.520313  13.966294   5.812882
    45  H    6.699841   7.376437   9.568193  11.527348   4.841476
    46  H    8.269440   9.701375  11.791996  13.545224   6.019707
                   11         12         13         14         15
    11  C    0.000000
    12  C    1.380043   0.000000
    13  C    2.409797   1.395077   0.000000
    14  H    3.849543   3.383515   2.147305   0.000000
    15  H    1.084964   2.139003   3.391890   4.934485   0.000000
    16  H    2.138045   1.084179   2.148165   4.281501   2.461509
    17  C    5.753701   6.735257   7.285688   7.622251   5.608680
    18  H    2.949423   3.645618   3.951342   4.360737   3.342640
    19  H    3.375103   3.849411   3.391271   2.463045   4.270118
    20  H    5.201009   5.797971   6.137774   6.489193   5.312207
    21  H    6.714789   7.921996   8.598227   8.913463   6.385897
    22  H    6.740274   7.654786   8.191378   8.518988   6.572048
    23  S    5.503750   6.870036   7.574658   7.868509   5.168467
    24  N    3.693905   2.430979   1.403804   2.659883   4.567716
    25  C    4.268431   2.918965   2.448344   3.957507   4.929910
    26  C    5.335257   3.961055   3.607888   5.062952   5.885780
    27  C    4.297305   3.140986   2.975181   4.479031   4.833377
    28  C    6.232634   4.911533   4.773264   6.309209   6.629534
    29  C    5.363991   4.270843   4.312878   5.854251   5.706399
    30  C    6.250129   5.045534   5.065052   6.651662   6.554418
    31  H    5.696572   4.337591   3.867954   5.135870   6.289465
    32  H    3.833851   2.912398   2.750306   4.056589   4.419832
    33  H    7.140426   5.819333   5.691214   7.188498   7.495308
    34  H    5.746850   4.835762   4.992317   6.462170   5.990851
    35  H    7.167833   6.020809   6.124502   7.718547   7.377043
    36  C    4.811702   3.662520   2.448862   2.645596   5.751776
    37  C    6.012585   4.837510   3.605098   3.437727   6.955695
    38  C    5.049819   4.093486   2.980263   2.834820   5.984685
    39  C    7.161430   6.045795   4.771340   4.199800   8.133398
    40  C    6.373469   5.469048   4.316522   3.712050   7.320511
    41  C    7.323433   6.317595   5.065954   4.319723   8.299864
    42  H    6.205547   4.997707   3.863100   3.896530   7.102332
    43  H    4.423124   3.626543   2.758923   2.914130   5.299287
    44  H    8.094879   6.960287   5.687888   5.055913   9.064724
    45  H    6.817247   6.047642   4.997648   4.325874   7.727559
    46  H    8.348640   7.377609   6.125401   5.234260   9.328916
                   16         17         18         19         20
    16  H    0.000000
    17  C    7.301248   0.000000
    18  H    4.399165   3.376255   0.000000
    19  H    4.933578   5.992192   3.263152   0.000000
    20  H    6.317854   2.147264   2.458607   5.481572   0.000000
    21  H    8.502009   2.137447   4.926689   6.902953   4.273489
    22  H    8.164312   1.084778   4.277184   6.977775   2.484404
    23  S    7.540734   4.054509   4.878530   5.628918   5.638636
    24  N    2.657671   8.460469   5.124092   4.569457   7.098941
    25  C    2.646297   9.421865   6.178930   5.744225   8.123124
    26  C    3.442972  10.154885   7.012146   6.957153   8.689696
    27  C    2.832403   9.875109   6.706670   5.959529   8.827183
    28  C    4.206078  11.222516   8.169999   8.128652   9.834841
    29  C    3.712376  10.959934   7.901669   7.293594   9.946370
    30  C    4.323716  11.598910   8.571642   8.282568  10.417383
    31  H    3.902588  10.024643   6.931833   7.114805   8.389850
    32  H    2.906906   9.520311   6.376529   5.262877   8.647707
    33  H    5.063713  11.881656   8.910130   9.065333  10.400656
    34  H    4.324379  11.440881   8.470777   7.691348  10.594131
    35  H    5.238694  12.512029   9.561081   9.309435  11.370264
    36  C    3.963175   8.917600   5.599136   4.935261   7.351112
    37  C    5.063159  10.261678   6.934455   5.882772   8.693848
    38  C    4.495599   8.221907   5.060195   4.851727   6.483858
    39  C    6.313756  10.905746   7.676137   6.629245   9.218123
    40  C    5.871435   9.014971   6.037381   5.724572   7.176410
    41  C    6.663620  10.345883   7.293754   6.563555   8.546161
    42  H    5.128819  10.899800   7.533757   6.279338   9.441092
    43  H    4.078568   7.189692   4.092226   4.448410   5.422768
    44  H    7.189934  11.968832   8.726942   7.490316  10.296064
    45  H    6.483872   8.712734   5.999106   6.016391   6.792729
    46  H    7.731637  11.043012   8.118135   7.386930   9.199597
                   21         22         23         24         25
    21  H    0.000000
    22  H    2.456134   0.000000
    23  S    2.908186   4.905669   0.000000
    24  N    9.894851   9.303202   8.971613   0.000000
    25  C   10.779759  10.264962   9.740385   1.416868   0.000000
    26  C   11.641288  10.913494  10.826576   2.433148   1.390277
    27  C   11.005512  10.787005   9.636851   2.438098   1.390617
    28  C   12.627707  11.980859  11.716921   3.699730   2.404391
    29  C   12.034582  11.854944  10.620729   3.702857   2.404430
    30  C   12.814371  12.423686  11.626526   4.201973   2.785132
    31  H   11.656905  10.711086  11.089535   2.649080   2.142190
    32  H   10.506146  10.486927   8.928974   2.658475   2.143411
    33  H   13.363536  12.580479  12.602853   4.568290   3.384134
    34  H   12.352171  12.371573  10.730864   4.572760   3.384155
    35  H   13.678304  13.327262  12.452485   5.286774   3.869935
    36  C   10.504183   9.689164   9.789705   1.416463   2.441470
    37  C   11.820977  11.036456  10.989186   2.433761   2.944622
    38  C    9.964350   8.899393   9.600937   2.437325   3.606371
    39  C   12.561671  11.611397  11.904564   3.700108   4.279099
    40  C   10.832581   9.606458  10.632488   3.702384   4.760492
    41  C   12.113272  10.963008  11.746741   4.202089   5.039490
    42  H   12.351817  11.724269  11.306212   2.650492   2.710202
    43  H    8.977121   7.849032   8.775227   2.656679   3.879967
    44  H   13.598149  12.682138  12.856133   4.568795   4.951623
    45  H   10.612026   9.206849  10.681424   4.572178   5.682110
    46  H   12.849085  11.602970  12.593389   5.286882   6.096276
                   26         27         28         29         30
    26  C    0.000000
    27  C    2.399528   0.000000
    28  C    1.383297   2.766236   0.000000
    29  C    2.766160   1.383134   2.391612   0.000000
    30  C    2.403206   2.403295   1.385090   1.385320   0.000000
    31  H    1.084866   3.380991   2.147299   3.851009   3.387913
    32  H    3.381509   1.084888   3.851082   2.146392   3.387529
    33  H    2.137097   3.851563   1.085346   3.378136   2.145604
    34  H    3.851475   2.136814   3.378139   1.085339   2.145894
    35  H    3.386803   3.386759   2.147644   2.147708   1.084803
    36  C    2.949877   3.601295   4.282266   4.756298   5.038565
    37  C    3.226786   3.930015   4.338533   4.890687   5.066765
    38  C    3.942803   4.827785   5.313552   5.998684   6.208934
    39  C    4.342886   5.301235   5.391449   6.195996   6.240495
    40  C    4.904768   5.996058   6.209466   7.103504   7.202243
    41  C    5.077388   6.201228   6.248743   7.195434   7.222469
    42  H    3.039585   3.399150   3.907445   4.203402   4.424024
    43  H    4.283233   5.055263   5.655072   6.256341   6.516900
    44  H    4.928793   5.838708   5.788896   6.589767   6.572193
    45  H    5.791537   6.937445   7.100993   8.061893   8.140654
    46  H    6.052360   7.251143   7.163288   8.205273   8.172673
                   31         32         33         34         35
    31  H    0.000000
    32  H    4.274139   0.000000
    33  H    2.466292   4.936399   0.000000
    34  H    4.936316   2.464722   4.279073   0.000000
    35  H    4.284831   4.284064   2.476820   2.476967   0.000000
    36  C    2.720658   3.872704   4.957033   5.676099   6.095314
    37  C    3.048239   4.269469   4.927655   5.774967   6.041077
    38  C    3.417516   5.050678   5.854429   6.937665   7.259440
    39  C    3.922349   5.639809   5.793549   7.083586   7.154152
    40  C    4.225866   6.248153   6.608520   8.058468   8.212763
    41  C    4.445039   6.504289   6.586164   8.129655   8.172592
    42  H    3.180866   3.769056   4.568894   5.011258   5.341821
    43  H    3.785030   5.214433   6.213183   7.171511   7.572730
    44  H    4.581101   6.195185   6.116178   7.419869   7.393934
    45  H    5.035346   7.164927   7.443262   9.024945   9.149131
    46  H    5.363873   7.558985   7.409660   9.136838   9.084862
                   36         37         38         39         40
    36  C    0.000000
    37  C    1.390281   0.000000
    38  C    1.390728   2.399183   0.000000
    39  C    2.404545   1.383371   2.765716   0.000000
    40  C    2.404851   2.766197   1.383009   2.391427   0.000000
    41  C    2.785651   2.403388   2.403130   1.385000   1.385385
    42  H    2.142216   1.084823   3.380779   2.147200   3.851006
    43  H    2.142981   3.380925   1.084843   3.850508   2.146352
    44  H    3.384168   2.137027   3.851039   1.085344   3.377984
    45  H    3.384636   3.851534   2.136952   3.377926   1.085361
    46  H    3.870446   3.386984   3.386646   2.147636   2.147824
                   41         42         43         44         45
    41  C    0.000000
    42  H    3.387903   0.000000
    43  H    3.387436   4.273672   0.000000
    44  H    2.145483   2.465934   4.935820   0.000000
    45  H    2.145839   4.936336   2.465113   4.278880   0.000000
    46  H    1.084795   4.284771   4.284092   2.476788   2.476933
                   46
    46  H    0.000000
 Stoichiometry    C24H19NS2
 Framework group  C1[X(C24H19NS2)]
 Deg. of freedom   132
 Full point group                 C1      NOp   1
 Largest Abelian subgroup         C1      NOp   1
 Largest concise Abelian subgroup C1      NOp   1
                         Standard orientation:                         
 ---------------------------------------------------------------------
 Center     Atomic      Atomic             Coordinates (Angstroms)
 Number     Number       Type             X           Y           Z
 ---------------------------------------------------------------------
      1          6           0       -3.352046    1.022081    0.901490
      2          6           0       -4.015603    0.124147    0.077833
      3         16           0       -3.193622   -0.833868   -1.176213
      4          6           0       -5.398593   -0.028228    0.207342
      5          6           0       -0.749106    0.373785   -1.531691
      6          6           0       -1.475477   -0.566990   -0.815552
      7          6           0       -4.041516    1.761821    1.844012
      8          6           0       -6.080951    0.720801    1.156415
      9          1           0       -7.475944   -0.835079   -0.458792
     10          6           0        0.601771    0.547170   -1.299188
     11          6           0       -0.823428   -1.336346    0.139234
     12          6           0        0.521569   -1.154920    0.389409
     13          6           0        1.255724   -0.212476   -0.331046
     14          1           0        1.160253    1.275483   -1.876291
     15          1           0       -1.383265   -2.076857    0.700814
     16          1           0        1.015474   -1.752114    1.147605
     17          6           0       -5.411167    1.613701    1.970885
     18          1           0       -2.279577    1.141824    0.800598
     19          1           0       -1.248138    0.967582   -2.290346
     20          1           0       -3.503227    2.458074    2.478369
     21          1           0       -7.154267    0.598627    1.263844
     22          1           0       -5.962434    2.189124    2.706912
     23         16           0       -6.238224   -1.192989   -0.835805
     24          7           0        2.627173   -0.037586   -0.087724
     25          6           0        3.438312   -1.140752    0.276409
     26          6           0        4.374889   -1.012928    1.295896
     27          6           0        3.317625   -2.356550   -0.387733
     28          6           0        5.179400   -2.084309    1.640010
     29          6           0        4.112866   -3.428755   -0.025756
     30          6           0        5.049979   -3.298472    0.986151
     31          1           0        4.470709   -0.064848    1.814448
     32          1           0        2.593785   -2.456724   -1.189607
     33          1           0        5.907450   -1.970366    2.436839
     34          1           0        4.006805   -4.372570   -0.551042
     35          1           0        5.677330   -4.139106    1.262850
     36          6           0        3.224517    1.239724   -0.221989
     37          6           0        4.446224    1.376745   -0.871250
     38          6           0        2.604731    2.367846    0.304633
     39          6           0        5.037460    2.622109   -0.986244
     40          6           0        3.193018    3.612223    0.169883
     41          6           0        4.413292    3.746533   -0.472133
     42          1           0        4.931907    0.498005   -1.282066
     43          1           0        1.656156    2.262505    0.820378
     44          1           0        5.992055    2.714270   -1.494403
     45          1           0        2.697309    4.484427    0.584059
     46          1           0        4.876004    4.722810   -0.569917
 ---------------------------------------------------------------------
 Rotational constants (GHZ):           0.3083654           0.0766714           0.0675965
 Leave Link  202 at Tue Jan 19 12:47:03 2021, MaxMem=  4026531840 cpu:               0.2 elap:               0.0
 (Enter /opt/ohpc/pub/libs/gaussian/g16-A.03/sandybridge/g16/l301.exe)
 Standard basis: TZVP (5D, 7F)
 Ernie: Thresh=  0.10000D-02 Tol=  0.10000D-05 Strict=F.
 There are   660 symmetry adapted cartesian basis functions of A   symmetry.
 There are   633 symmetry adapted basis functions of A   symmetry.
   633 basis functions,  1121 primitive gaussians,   660 cartesian basis functions
   101 alpha electrons      101 beta electrons
       nuclear repulsion energy      2474.6847673599 Hartrees.
 IExCor=33909 DFT=T Ex+Corr=LC-wHPBE ExCW=0 ScaHFX=  1.000000
 ScaDFX=  1.000000  1.000000  1.000000  1.000000 ScalE2=  1.000000  1.000000
 IRadAn=      5 IRanWt=     -1 IRanGd=            0 ICorTp=0 IEmpDi=  4
 HFx  wShort=  0.000000 wLong=  0.181400 cFull=  0.000000 cShort=  0.000000 cLong=  1.000000
 DFx  wShort=  0.000000 wLong=  0.181400 cFull=  0.000000 cShort=  1.000000 cLong=  0.000000
 NAtoms=   46 NActive=   46 NUniq=   46 SFac= 1.00D+00 NAtFMM=   60 NAOKFM=F Big=F
 Integral buffers will be    131072 words long.
 Raffenetti 2 integral format.
 Two-electron integral symmetry is turned on.
 Leave Link  301 at Tue Jan 19 12:47:03 2021, MaxMem=  4026531840 cpu:               0.4 elap:               0.1
 (Enter /opt/ohpc/pub/libs/gaussian/g16-A.03/sandybridge/g16/l302.exe)
 NPDir=0 NMtPBC=     1 NCelOv=     1 NCel=       1 NClECP=     1 NCelD=      1
         NCelK=      1 NCelE2=     1 NClLst=     1 CellRange=     0.0.
 One-electron integrals computed using PRISM.
 One-electron integral symmetry used in STVInt
 NBasis=   633 RedAO= T EigKep=  6.67D-06  NBF=   633
 NBsUse=   633 1.00D-06 EigRej= -1.00D+00 NBFU=   633
 Precomputing XC quadrature grid using
 IXCGrd= 4 IRadAn=           5 IRanWt=          -1 IRanGd=           0 AccXCQ= 0.00D+00.
 Generated NRdTot=       0 NPtTot=           0 NUsed=           0 NTot=          32
 NSgBfM=   625   625   625   625   625 MxSgAt=    46 MxSgA2=    46.
 Leave Link  302 at Tue Jan 19 12:47:04 2021, MaxMem=  4026531840 cpu:               8.0 elap:               1.0
 (Enter /opt/ohpc/pub/libs/gaussian/g16-A.03/sandybridge/g16/l303.exe)
 DipDrv:  MaxL=1.
 Leave Link  303 at Tue Jan 19 12:47:04 2021, MaxMem=  4026531840 cpu:               0.7 elap:               0.1
 (Enter /opt/ohpc/pub/libs/gaussian/g16-A.03/sandybridge/g16/l401.exe)
 ExpMin= 9.52D-02 ExpMax= 6.07D+04 ExpMxC= 2.07D+03 IAcc=3 IRadAn=         5 AccDes= 0.00D+00
 Harris functional with IExCor=33909 and IRadAn=       5 diagonalized for initial guess.
 HarFok:  IExCor=33909 AccDes= 0.00D+00 IRadAn=         5 IDoV= 1 UseB2=F ITyADJ=14
 ICtDFT=  3500011 ScaDFX=  1.000000  1.000000  1.000000  1.000000
 FoFCou: FMM=F IPFlag=           0 FMFlag=      100000 FMFlg1=           0
         NFxFlg=           0 DoJE=T BraDBF=F KetDBF=T FulRan=T
         wScrn=  0.000000 ICntrl=       500 IOpCl=  0 I1Cent=   200000004 NGrid=           0
         NMat0=    1 NMatS0=      1 NMatT0=    0 NMatD0=    1 NMtDS0=    0 NMtDT0=    0
 Petite list used in FoFCou.
 Harris En= -1756.54579349333    
 JPrj=0 DoOrth=F DoCkMO=F.
 Leave Link  401 at Tue Jan 19 12:47:10 2021, MaxMem=  4026531840 cpu:              45.8 elap:               5.8
 (Enter /opt/ohpc/pub/libs/gaussian/g16-A.03/sandybridge/g16/l502.exe)
 Integral symmetry usage will be decided dynamically.
 Closed shell SCF:
 Using DIIS extrapolation, IDIIS=    10.
 NGot=  4026531840 LenX=  4025648940 LenY=  4025212680
 Requested convergence on RMS density matrix=1.00D-06 within  32 cycles.
 Requested convergence on MAX density matrix=1.00D-04.
 Requested convergence on             energy=1.00D-04.
 Virtual orbitals will be shifted by   0.500 hartree.
 No special actions if energy rises.
 Dynamic level shift is on during FON iterations.

 Cycle   1  Pass 1  IDiag  1:
 FoFJK:  IHMeth= 1 ICntrl=       0 DoSepK=T KAlg= 0 I1Cent=           0 FoldK=F
 IRaf=         1 NMat=       1 IRICut=       1 DoRegI=T DoRafI=F ISym2E= 0 IDoP0=0 IntGTp=1.
 FoFCou: FMM=F IPFlag=           0 FMFlag=      100000 FMFlg1=           0
         NFxFlg=           0 DoJE=T BraDBF=F KetDBF=F FulRan=T
         wScrn=  0.000000 ICntrl=       500 IOpCl=  0 I1Cent=           0 NGrid=           0
         NMat0=    1 NMatS0=      1 NMatT0=    0 NMatD0=    1 NMtDS0=    0 NMtDT0=    0
 Symmetry not used in FoFCou.
 E= -1775.66240400777    
 DIIS: error= 2.79D-02 at cycle   1 NSaved=   1.
 NSaved= 1 IEnMin= 1 EnMin= -1775.66240400777     IErMin= 1 ErrMin= 2.79D-02
 ErrMax= 2.79D-02  0.00D+00 EMaxC= 1.00D+00 BMatC= 5.44D-01 BMatP= 5.44D-01
 IDIUse=1 WtCom= 1.00D+00 WtEn= 0.00D+00
 Coeff-Com:  0.100D+01
 Coeff:      0.100D+01
 Gap=     0.400 Goal=   None    Shift=    0.500
 T= 1452. Gap= 0.665 NK=0 IS=  102 IE=  633 IFin=  101
          NO(<0.9)=   0  NV(>0.1)=   0    101.00e < EF      0.00e >EF  Err=0.0D+00
 GapD=    0.400 DampG=2.000 DampE=0.500 DampFc=1.0000 IDamp=-1.
 RMSDP=2.89D-03 MaxDP=2.00D-01              OVMax= 9.62D-02

 Cycle   2  Pass 1  IDiag  1:
 E= -1776.14912649499     Delta-E=       -0.486722487216 Rises=F Damp=F
 DIIS: error= 8.95D-03 at cycle   2 NSaved=   2.
 NSaved= 2 IEnMin= 2 EnMin= -1776.14912649499     IErMin= 2 ErrMin= 8.95D-03
 ErrMax= 8.95D-03  0.00D+00 EMaxC= 1.00D+00 BMatC= 7.67D-02 BMatP= 5.44D-01
 IDIUse=1 WtCom= 1.00D+00 WtEn= 0.00D+00
 Coeff-Com:  0.245D+00 0.755D+00
 Coeff:      0.245D+00 0.755D+00
 Gap=     0.351 Goal=   None    Shift=    0.500
 T= 1298. Gap= 0.751 NK=0 IS=  102 IE=  633 IFin=  101
          NO(<0.9)=   0  NV(>0.1)=   0    101.00e < EF      0.00e >EF  Err=0.0D+00
 GapD=    0.351 DampG=1.000 DampE=1.000 DampFc=1.0000 IDamp=-1.
 RMSDP=8.53D-04 MaxDP=6.08D-02 DE=-4.87D-01 OVMax= 1.85D-02

 Cycle   3  Pass 1  IDiag  1:
 E= -1776.20348118408     Delta-E=       -0.054354689088 Rises=F Damp=F
 DIIS: error= 2.62D-03 at cycle   3 NSaved=   3.
 NSaved= 3 IEnMin= 3 EnMin= -1776.20348118408     IErMin= 3 ErrMin= 2.62D-03
 ErrMax= 2.62D-03  0.00D+00 EMaxC= 1.00D+00 BMatC= 6.63D-03 BMatP= 7.67D-02
 IDIUse=1 WtCom= 1.00D+00 WtEn= 0.00D+00
 Coeff-Com:  0.799D-01-0.227D-01 0.943D+00
 Coeff:      0.799D-01-0.227D-01 0.943D+00
 Gap=     0.269 Goal=   None    Shift=    0.500
 T= 1001. Gap= 0.766 NK=0 IS=  102 IE=  633 IFin=  101
          NO(<0.9)=   0  NV(>0.1)=   0    101.00e < EF      0.00e >EF  Err=0.0D+00
 GapD=    0.269 DampG=1.000 DampE=1.000 DampFc=1.0000 IDamp=-1.
 RMSDP=3.74D-04 MaxDP=2.47D-02 DE=-5.44D-02 OVMax= 1.03D-02

 Cycle   4  Pass 1  IDiag  1:
 E= -1776.20992470999     Delta-E=       -0.006443525915 Rises=F Damp=F
 DIIS: error= 1.50D-03 at cycle   4 NSaved=   4.
 NSaved= 4 IEnMin= 4 EnMin= -1776.20992470999     IErMin= 4 ErrMin= 1.50D-03
 ErrMax= 1.50D-03  0.00D+00 EMaxC= 1.00D+00 BMatC= 9.92D-04 BMatP= 6.63D-03
 IDIUse=1 WtCom= 1.00D+00 WtEn= 0.00D+00
 Coeff-Com:  0.168D-01-0.682D-01 0.749D-01 0.976D+00
 Coeff:      0.168D-01-0.682D-01 0.749D-01 0.976D+00
 Gap=     0.263 Goal=   None    Shift=    0.500
 T=  338. Gap= 0.762 NK=0 IS=  102 IE=  633 IFin=  101
          NO(<0.9)=   0  NV(>0.1)=   0    101.00e < EF      0.00e >EF  Err=0.0D+00
 GapD=    0.263 DampG=1.000 DampE=1.000 DampFc=1.0000 IDamp=-1.
 RMSDP=2.33D-04 MaxDP=1.48D-02 DE=-6.44D-03 OVMax= 7.43D-03

 Cycle   5  Pass 1  IDiag  1:
 E= -1776.21122977225     Delta-E=       -0.001305062261 Rises=F Damp=F
 DIIS: error= 1.25D-03 at cycle   5 NSaved=   5.
 NSaved= 5 IEnMin= 5 EnMin= -1776.21122977225     IErMin= 5 ErrMin= 1.25D-03
 ErrMax= 1.25D-03  0.00D+00 EMaxC= 1.00D+00 BMatC= 1.48D-04 BMatP= 9.92D-04
 IDIUse=1 WtCom= 1.00D+00 WtEn= 0.00D+00
 Coeff-Com: -0.532D-02-0.823D-02-0.116D+00-0.821D-01 0.121D+01
 Coeff:     -0.532D-02-0.823D-02-0.116D+00-0.821D-01 0.121D+01
 Gap=     0.264 Goal=   None    Shift=    0.500
 GapD=    0.264 DampG=1.000 DampE=1.000 DampFc=1.0000 IDamp=-1.
 RMSDP=1.57D-04 MaxDP=1.05D-02 DE=-1.31D-03 OVMax= 6.02D-03

 Cycle   6  Pass 1  IDiag  1:
 E= -1776.21161743577     Delta-E=       -0.000387663516 Rises=F Damp=F
 DIIS: error= 1.02D-03 at cycle   6 NSaved=   6.
 NSaved= 6 IEnMin= 6 EnMin= -1776.21161743577     IErMin= 6 ErrMin= 1.02D-03
 ErrMax= 1.02D-03  0.00D+00 EMaxC= 1.00D+00 BMatC= 4.33D-05 BMatP= 1.48D-04
 IDIUse=1 WtCom= 1.00D+00 WtEn= 0.00D+00
 Coeff-Com: -0.626D-02 0.106D-01-0.339D-01-0.218D+00-0.276D+00 0.152D+01
 Coeff:     -0.626D-02 0.106D-01-0.339D-01-0.218D+00-0.276D+00 0.152D+01
 Gap=     0.264 Goal=   None    Shift=    0.500
 GapD=    0.264 DampG=1.000 DampE=1.000 DampFc=1.0000 IDamp=-1.
 RMSDP=9.68D-05 MaxDP=6.50D-03 DE=-3.88D-04 OVMax= 5.12D-03

 Cycle   7  Pass 1  IDiag  1:
 E= -1776.21179332840     Delta-E=       -0.000175892632 Rises=F Damp=F
 DIIS: error= 7.47D-04 at cycle   7 NSaved=   7.
 NSaved= 7 IEnMin= 7 EnMin= -1776.21179332840     IErMin= 7 ErrMin= 7.47D-04
 ErrMax= 7.47D-04  0.00D+00 EMaxC= 1.00D+00 BMatC= 1.74D-05 BMatP= 4.33D-05
 IDIUse=1 WtCom= 1.00D+00 WtEn= 0.00D+00
 Coeff-Com: -0.218D-02 0.359D-02 0.246D-01-0.525D-01-0.478D+00-0.479D-01
 Coeff-Com:  0.155D+01
 Coeff:     -0.218D-02 0.359D-02 0.246D-01-0.525D-01-0.478D+00-0.479D-01
 Coeff:      0.155D+01
 Gap=     0.264 Goal=   None    Shift=    0.500
 RMSDP=5.39D-05 MaxDP=3.45D-03 DE=-1.76D-04 OVMax= 4.02D-03

 Cycle   8  Pass 1  IDiag  1:
 E= -1776.21187660049     Delta-E=       -0.000083272091 Rises=F Damp=F
 DIIS: error= 5.19D-04 at cycle   8 NSaved=   8.
 NSaved= 8 IEnMin= 8 EnMin= -1776.21187660049     IErMin= 8 ErrMin= 5.19D-04
 ErrMax= 5.19D-04  0.00D+00 EMaxC= 1.00D+00 BMatC= 7.06D-06 BMatP= 1.74D-05
 IDIUse=1 WtCom= 1.00D+00 WtEn= 0.00D+00
 Coeff-Com:  0.730D-03-0.245D-02 0.160D-01 0.816D-01-0.731D-01-0.709D+00
 Coeff-Com: -0.115D+00 0.180D+01
 Coeff:      0.730D-03-0.245D-02 0.160D-01 0.816D-01-0.731D-01-0.709D+00
 Coeff:     -0.115D+00 0.180D+01
 Gap=     0.264 Goal=   None    Shift=    0.500
 RMSDP=2.74D-05 MaxDP=1.41D-03 DE=-8.33D-05 OVMax= 2.97D-03

 Cycle   9  Pass 1  IDiag  1:
 E= -1776.21191427105     Delta-E=       -0.000037670559 Rises=F Damp=F
 DIIS: error= 3.65D-04 at cycle   9 NSaved=   9.
 NSaved= 9 IEnMin= 9 EnMin= -1776.21191427105     IErMin= 9 ErrMin= 3.65D-04
 ErrMax= 3.65D-04  0.00D+00 EMaxC= 1.00D+00 BMatC= 2.98D-06 BMatP= 7.06D-06
 IDIUse=1 WtCom= 1.00D+00 WtEn= 0.00D+00
 Coeff-Com:  0.671D-03-0.135D-02-0.529D-02 0.661D-01 0.118D+00-0.405D+00
 Coeff-Com: -0.545D+00 0.291D+00 0.148D+01
 Coeff:      0.671D-03-0.135D-02-0.529D-02 0.661D-01 0.118D+00-0.405D+00
 Coeff:     -0.545D+00 0.291D+00 0.148D+01
 Gap=     0.264 Goal=   None    Shift=    0.500
 RMSDP=1.39D-05 MaxDP=5.60D-04 DE=-3.77D-05 OVMax= 2.09D-03

 Cycle  10  Pass 1  IDiag  1:
 E= -1776.21193013486     Delta-E=       -0.000015863814 Rises=F Damp=F
 DIIS: error= 2.37D-04 at cycle  10 NSaved=  10.
 NSaved=10 IEnMin=10 EnMin= -1776.21193013486     IErMin=10 ErrMin= 2.37D-04
 ErrMax= 2.37D-04  0.00D+00 EMaxC= 1.00D+00 BMatC= 1.17D-06 BMatP= 2.98D-06
 IDIUse=1 WtCom= 1.00D+00 WtEn= 0.00D+00
 Coeff-Com: -0.114D-03 0.698D-03-0.547D-02-0.211D-02 0.236D-01 0.110D+00
 Coeff-Com: -0.849D-01-0.531D+00-0.739D+00 0.223D+01
 Coeff:     -0.114D-03 0.698D-03-0.547D-02-0.211D-02 0.236D-01 0.110D+00
 Coeff:     -0.849D-01-0.531D+00-0.739D+00 0.223D+01
 Gap=     0.264 Goal=   None    Shift=    0.500
 RMSDP=8.75D-06 MaxDP=3.80D-04 DE=-1.59D-05 OVMax= 1.42D-03

 Cycle  11  Pass 1  IDiag  1:
 E= -1776.21193657872     Delta-E=       -0.000006443852 Rises=F Damp=F
 DIIS: error= 1.62D-04 at cycle  11 NSaved=  11.
 NSaved=11 IEnMin=11 EnMin= -1776.21193657872     IErMin=11 ErrMin= 1.62D-04
 ErrMax= 1.62D-04  0.00D+00 EMaxC= 1.00D+00 BMatC= 5.13D-07 BMatP= 1.17D-06
 IDIUse=1 WtCom= 1.00D+00 WtEn= 0.00D+00
 Coeff-Com: -0.173D-03 0.688D-03 0.300D-03-0.135D-01-0.230D-01 0.132D+00
 Coeff-Com:  0.937D-01-0.260D+00-0.100D+01 0.633D+00 0.144D+01
 Coeff:     -0.173D-03 0.688D-03 0.300D-03-0.135D-01-0.230D-01 0.132D+00
 Coeff:      0.937D-01-0.260D+00-0.100D+01 0.633D+00 0.144D+01
 Gap=     0.264 Goal=   None    Shift=    0.500
 RMSDP=5.18D-06 MaxDP=2.30D-04 DE=-6.44D-06 OVMax= 9.41D-04

 Cycle  12  Pass 1  IDiag  1:
 E= -1776.21193915318     Delta-E=       -0.000002574468 Rises=F Damp=F
 DIIS: error= 1.04D-04 at cycle  12 NSaved=  12.
 NSaved=12 IEnMin=12 EnMin= -1776.21193915318     IErMin=12 ErrMin= 1.04D-04
 ErrMax= 1.04D-04  0.00D+00 EMaxC= 1.00D+00 BMatC= 2.12D-07 BMatP= 5.13D-07
 IDIUse=1 WtCom= 1.00D+00 WtEn= 0.00D+00
 Coeff-Com: -0.387D-04 0.170D-03 0.239D-02-0.371D-02-0.145D-01 0.235D-02
 Coeff-Com:  0.644D-01 0.167D+00-0.357D+00-0.566D+00-0.232D+00 0.194D+01
 Coeff:     -0.387D-04 0.170D-03 0.239D-02-0.371D-02-0.145D-01 0.235D-02
 Coeff:      0.644D-01 0.167D+00-0.357D+00-0.566D+00-0.232D+00 0.194D+01
 Gap=     0.264 Goal=   None    Shift=    0.500
 RMSDP=3.12D-06 MaxDP=1.49D-04 DE=-2.57D-06 OVMax= 6.16D-04

 Cycle  13  Pass 1  IDiag  1:
 E= -1776.21194017676     Delta-E=       -0.000001023576 Rises=F Damp=F
 DIIS: error= 6.93D-05 at cycle  13 NSaved=  13.
 NSaved=13 IEnMin=13 EnMin= -1776.21194017676     IErMin=13 ErrMin= 6.93D-05
 ErrMax= 6.93D-05  0.00D+00 EMaxC= 1.00D+00 BMatC= 9.64D-08 BMatP= 2.12D-07
 IDIUse=1 WtCom= 1.00D+00 WtEn= 0.00D+00
 Coeff-Com:  0.211D-04-0.499D-05 0.813D-03 0.308D-02-0.136D-03-0.384D-01
 Coeff-Com:  0.595D-02 0.193D+00 0.583D-01-0.452D+00-0.853D+00 0.473D+00
 Coeff-Com:  0.161D+01
 Coeff:      0.211D-04-0.499D-05 0.813D-03 0.308D-02-0.136D-03-0.384D-01
 Coeff:      0.595D-02 0.193D+00 0.583D-01-0.452D+00-0.853D+00 0.473D+00
 Coeff:      0.161D+01
 Gap=     0.264 Goal=   None    Shift=    0.500
 RMSDP=1.88D-06 MaxDP=9.70D-05 DE=-1.02D-06 OVMax= 4.10D-04

 Cycle  14  Pass 1  IDiag  1:
 E= -1776.21194059646     Delta-E=       -0.000000419698 Rises=F Damp=F
 DIIS: error= 4.37D-05 at cycle  14 NSaved=  14.
 NSaved=14 IEnMin=14 EnMin= -1776.21194059646     IErMin=14 ErrMin= 4.37D-05
 ErrMax= 4.37D-05  0.00D+00 EMaxC= 1.00D+00 BMatC= 3.94D-08 BMatP= 9.64D-08
 IDIUse=1 WtCom= 1.00D+00 WtEn= 0.00D+00
 Coeff-Com:  0.140D-04-0.237D-04-0.427D-03 0.272D-02 0.273D-02-0.139D-01
 Coeff-Com: -0.148D-01 0.418D-01 0.868D-01 0.459D-01-0.441D+00-0.305D+00
 Coeff-Com: -0.421D+00 0.202D+01
 Coeff:      0.140D-04-0.237D-04-0.427D-03 0.272D-02 0.273D-02-0.139D-01
 Coeff:     -0.148D-01 0.418D-01 0.868D-01 0.459D-01-0.441D+00-0.305D+00
 Coeff:     -0.421D+00 0.202D+01
 Gap=     0.264 Goal=   None    Shift=    0.500
 RMSDP=1.21D-06 MaxDP=5.91D-05 DE=-4.20D-07 OVMax= 2.61D-04

 Cycle  15  Pass 1  IDiag  1:
 E= -1776.21194076168     Delta-E=       -0.000000165222 Rises=F Damp=F
 DIIS: error= 2.86D-05 at cycle  15 NSaved=  15.
 NSaved=15 IEnMin=15 EnMin= -1776.21194076168     IErMin=15 ErrMin= 2.86D-05
 ErrMax= 2.86D-05  0.00D+00 EMaxC= 1.00D+00 BMatC= 1.68D-08 BMatP= 3.94D-08
 IDIUse=1 WtCom= 1.00D+00 WtEn= 0.00D+00
 Coeff-Com: -0.172D-05-0.216D-04-0.396D-03 0.333D-03 0.152D-02 0.476D-02
 Coeff-Com: -0.890D-02-0.256D-01 0.200D-01 0.171D+00-0.434D-01-0.289D+00
 Coeff-Com: -0.104D+01 0.829D+00 0.138D+01
 Coeff:     -0.172D-05-0.216D-04-0.396D-03 0.333D-03 0.152D-02 0.476D-02
 Coeff:     -0.890D-02-0.256D-01 0.200D-01 0.171D+00-0.434D-01-0.289D+00
 Coeff:     -0.104D+01 0.829D+00 0.138D+01
 Gap=     0.264 Goal=   None    Shift=    0.500
 RMSDP=7.22D-07 MaxDP=3.54D-05 DE=-1.65D-07 OVMax= 1.69D-04

 SCF Done:  E(RLC-wHPBE) =  -1776.21194076     A.U. after   15 cycles
            NFock= 15  Conv=0.72D-06     -V/T= 2.0036
 KE= 1.769830851265D+03 PE=-9.117359084574D+03 EE= 3.096631525187D+03
 Leave Link  502 at Tue Jan 19 12:57:15 2021, MaxMem=  4026531840 cpu:            4831.9 elap:             605.6
 (Enter /opt/ohpc/pub/libs/gaussian/g16-A.03/sandybridge/g16/l508.exe)
 QCSCF skips out because SCF is already converged.
 Leave Link  508 at Tue Jan 19 12:57:15 2021, MaxMem=  4026531840 cpu:               0.0 elap:               0.0
 (Enter /opt/ohpc/pub/libs/gaussian/g16-A.03/sandybridge/g16/l601.exe)
 Copying SCF densities to generalized density rwf, IOpCl= 0 IROHF=0.

 **********************************************************************

            Population analysis using the SCF density.

 **********************************************************************

 Orbital symmetries:
       Occupied  (A) (A) (A) (A) (A) (A) (A) (A) (A) (A) (A) (A)
                 (A) (A) (A) (A) (A) (A) (A) (A) (A) (A) (A) (A)
                 (A) (A) (A) (A) (A) (A) (A) (A) (A) (A) (A) (A)
                 (A) (A) (A) (A) (A) (A) (A) (A) (A) (A) (A) (A)
                 (A) (A) (A) (A) (A) (A) (A) (A) (A) (A) (A) (A)
                 (A) (A) (A) (A) (A) (A) (A) (A) (A) (A) (A) (A)
                 (A) (A) (A) (A) (A) (A) (A) (A) (A) (A) (A) (A)
                 (A) (A) (A) (A) (A) (A) (A) (A) (A) (A) (A) (A)
                 (A) (A) (A) (A) (A)
       Virtual   (A) (A) (A) (A) (A) (A) (A) (A) (A) (A) (A) (A)
                 (A) (A) (A) (A) (A) (A) (A) (A) (A) (A) (A) (A)
                 (A) (A) (A) (A) (A) (A) (A) (A) (A) (A) (A) (A)
                 (A) (A) (A) (A) (A) (A) (A) (A) (A) (A) (A) (A)
                 (A) (A) (A) (A) (A) (A) (A) (A) (A) (A) (A) (A)
                 (A) (A) (A) (A) (A) (A) (A) (A) (A) (A) (A) (A)
                 (A) (A) (A) (A) (A) (A) (A) (A) (A) (A) (A) (A)
                 (A) (A) (A) (A) (A) (A) (A) (A) (A) (A) (A) (A)
                 (A) (A) (A) (A) (A) (A) (A) (A) (A) (A) (A) (A)
                 (A) (A) (A) (A) (A) (A) (A) (A) (A) (A) (A) (A)
                 (A) (A) (A) (A) (A) (A) (A) (A) (A) (A) (A) (A)
                 (A) (A) (A) (A) (A) (A) (A) (A) (A) (A) (A) (A)
                 (A) (A) (A) (A) (A) (A) (A) (A) (A) (A) (A) (A)
                 (A) (A) (A) (A) (A) (A) (A) (A) (A) (A) (A) (A)
                 (A) (A) (A) (A) (A) (A) (A) (A) (A) (A) (A) (A)
                 (A) (A) (A) (A) (A) (A) (A) (A) (A) (A) (A) (A)
                 (A) (A) (A) (A) (A) (A) (A) (A) (A) (A) (A) (A)
                 (A) (A) (A) (A) (A) (A) (A) (A) (A) (A) (A) (A)
                 (A) (A) (A) (A) (A) (A) (A) (A) (A) (A) (A) (A)
                 (A) (A) (A) (A) (A) (A) (A) (A) (A) (A) (A) (A)
                 (A) (A) (A) (A) (A) (A) (A) (A) (A) (A) (A) (A)
                 (A) (A) (A) (A) (A) (A) (A) (A) (A) (A) (A) (A)
                 (A) (A) (A) (A) (A) (A) (A) (A) (A) (A) (A) (A)
                 (A) (A) (A) (A) (A) (A) (A) (A) (A) (A) (A) (A)
                 (A) (A) (A) (A) (A) (A) (A) (A) (A) (A) (A) (A)
                 (A) (A) (A) (A) (A) (A) (A) (A) (A) (A) (A) (A)
                 (A) (A) (A) (A) (A) (A) (A) (A) (A) (A) (A) (A)
                 (A) (A) (A) (A) (A) (A) (A) (A) (A) (A) (A) (A)
                 (A) (A) (A) (A) (A) (A) (A) (A) (A) (A) (A) (A)
                 (A) (A) (A) (A) (A) (A) (A) (A) (A) (A) (A) (A)
                 (A) (A) (A) (A) (A) (A) (A) (A) (A) (A) (A) (A)
                 (A) (A) (A) (A) (A) (A) (A) (A) (A) (A) (A) (A)
                 (A) (A) (A) (A) (A) (A) (A) (A) (A) (A) (A) (A)
                 (A) (A) (A) (A) (A) (A) (A) (A) (A) (A) (A) (A)
                 (A) (A) (A) (A) (A) (A) (A) (A) (A) (A) (A) (A)
                 (A) (A) (A) (A) (A) (A) (A) (A) (A) (A) (A) (A)
                 (A) (A) (A) (A) (A) (A) (A) (A) (A) (A) (A) (A)
                 (A) (A) (A) (A) (A) (A) (A) (A) (A) (A) (A) (A)
                 (A) (A) (A) (A) (A) (A) (A) (A) (A) (A) (A) (A)
                 (A) (A) (A) (A) (A) (A) (A) (A) (A) (A) (A) (A)
                 (A) (A) (A) (A) (A) (A) (A) (A) (A) (A) (A) (A)
                 (A) (A) (A) (A) (A) (A) (A) (A) (A) (A) (A) (A)
                 (A) (A) (A) (A) (A) (A) (A) (A) (A) (A) (A) (A)
                 (A) (A) (A) (A) (A) (A) (A) (A) (A) (A) (A) (A)
                 (A) (A) (A) (A)
 The electronic state is 1-A.
 Alpha  occ. eigenvalues --  -88.19454 -88.19369 -14.12973 -10.04164 -10.03612
 Alpha  occ. eigenvalues --  -10.03575 -10.02951 -10.02576 -10.02046  -9.99999
 Alpha  occ. eigenvalues --   -9.99974  -9.99605  -9.99574  -9.99548  -9.99544
 Alpha  occ. eigenvalues --   -9.99507  -9.99504  -9.99423  -9.99360  -9.99360
 Alpha  occ. eigenvalues --   -9.99358  -9.99339  -9.99167  -9.99132  -9.98928
 Alpha  occ. eigenvalues --   -9.98734  -9.98664  -7.78740  -7.78527  -5.80959
 Alpha  occ. eigenvalues --   -5.80773  -5.80476  -5.80265  -5.79720  -5.79505
 Alpha  occ. eigenvalues --   -1.00713  -0.91401  -0.90374  -0.90084  -0.88438
 Alpha  occ. eigenvalues --   -0.83878  -0.82729  -0.80667  -0.80096  -0.79219
 Alpha  occ. eigenvalues --   -0.79004  -0.78949  -0.76600  -0.74858  -0.72739
 Alpha  occ. eigenvalues --   -0.68341  -0.67747  -0.65950  -0.65760  -0.65354
 Alpha  occ. eigenvalues --   -0.64653  -0.62818  -0.62083  -0.59597  -0.59561
 Alpha  occ. eigenvalues --   -0.56842  -0.55308  -0.53984  -0.52935  -0.52766
 Alpha  occ. eigenvalues --   -0.52106  -0.51193  -0.50900  -0.49928  -0.49621
 Alpha  occ. eigenvalues --   -0.48983  -0.48743  -0.48245  -0.47977  -0.47814
 Alpha  occ. eigenvalues --   -0.47322  -0.46384  -0.45324  -0.44562  -0.44314
 Alpha  occ. eigenvalues --   -0.44163  -0.42937  -0.42144  -0.41565  -0.41138
 Alpha  occ. eigenvalues --   -0.40515  -0.40044  -0.39953  -0.39844  -0.38218
 Alpha  occ. eigenvalues --   -0.36763  -0.36144  -0.34924  -0.33493  -0.33467
 Alpha  occ. eigenvalues --   -0.33121  -0.32345  -0.32093  -0.28784  -0.26570
 Alpha  occ. eigenvalues --   -0.25339
 Alpha virt. eigenvalues --    0.01067   0.01534   0.02147   0.03400   0.03893
 Alpha virt. eigenvalues --    0.04109   0.04491   0.05299   0.06669   0.09078
 Alpha virt. eigenvalues --    0.10167   0.10507   0.10695   0.11756   0.12776
 Alpha virt. eigenvalues --    0.13020   0.13292   0.13651   0.13916   0.14494
 Alpha virt. eigenvalues --    0.15003   0.15089   0.15803   0.16235   0.16357
 Alpha virt. eigenvalues --    0.16782   0.17047   0.17514   0.17897   0.18016
 Alpha virt. eigenvalues --    0.18589   0.18940   0.19798   0.19975   0.20993
 Alpha virt. eigenvalues --    0.21669   0.22968   0.23635   0.23978   0.24379
 Alpha virt. eigenvalues --    0.24512   0.24941   0.25413   0.25522   0.25867
 Alpha virt. eigenvalues --    0.26333   0.26524   0.27127   0.27271   0.27541
 Alpha virt. eigenvalues --    0.27627   0.27914   0.28094   0.28257   0.28762
 Alpha virt. eigenvalues --    0.29030   0.29258   0.29710   0.29796   0.30373
 Alpha virt. eigenvalues --    0.30579   0.30659   0.31297   0.31301   0.31924
 Alpha virt. eigenvalues --    0.32343   0.32593   0.32736   0.33027   0.33412
 Alpha virt. eigenvalues --    0.34129   0.34461   0.35060   0.35244   0.35645
 Alpha virt. eigenvalues --    0.35894   0.36423   0.36628   0.37147   0.37715
 Alpha virt. eigenvalues --    0.37869   0.38413   0.38644   0.39404   0.39674
 Alpha virt. eigenvalues --    0.40368   0.40496   0.41205   0.41541   0.41744
 Alpha virt. eigenvalues --    0.42054   0.42556   0.42851   0.42936   0.43273
 Alpha virt. eigenvalues --    0.43708   0.43781   0.44090   0.44125   0.44945
 Alpha virt. eigenvalues --    0.45128   0.45209   0.45761   0.46225   0.46671
 Alpha virt. eigenvalues --    0.46694   0.47177   0.47380   0.47773   0.47852
 Alpha virt. eigenvalues --    0.48158   0.48597   0.48952   0.49303   0.49950
 Alpha virt. eigenvalues --    0.50089   0.50316   0.50643   0.51430   0.51805
 Alpha virt. eigenvalues --    0.52137   0.52404   0.52760   0.53400   0.53732
 Alpha virt. eigenvalues --    0.54318   0.54565   0.55104   0.55195   0.55472
 Alpha virt. eigenvalues --    0.55658   0.55856   0.56261   0.56639   0.57085
 Alpha virt. eigenvalues --    0.57977   0.58313   0.59256   0.59712   0.60232
 Alpha virt. eigenvalues --    0.60621   0.61728   0.61803   0.62546   0.62980
 Alpha virt. eigenvalues --    0.63880   0.64810   0.65433   0.65849   0.66541
 Alpha virt. eigenvalues --    0.67472   0.68076   0.69938   0.70731   0.71035
 Alpha virt. eigenvalues --    0.71522   0.71856   0.72117   0.72246   0.72851
 Alpha virt. eigenvalues --    0.73311   0.73406   0.74153   0.74384   0.74607
 Alpha virt. eigenvalues --    0.75084   0.75287   0.75798   0.76425   0.77211
 Alpha virt. eigenvalues --    0.77451   0.77685   0.78885   0.80249   0.80868
 Alpha virt. eigenvalues --    0.81091   0.81982   0.82626   0.83139   0.84788
 Alpha virt. eigenvalues --    0.85508   0.87748   0.89084   0.89470   0.89982
 Alpha virt. eigenvalues --    0.90547   0.92168   0.92573   0.95116   0.95849
 Alpha virt. eigenvalues --    0.96296   0.96947   0.98426   0.99663   1.00380
 Alpha virt. eigenvalues --    1.01064   1.07449   1.13462   1.18057   1.18943
 Alpha virt. eigenvalues --    1.19252   1.22482   1.22607   1.23717   1.24684
 Alpha virt. eigenvalues --    1.25796   1.26085   1.26382   1.26985   1.27366
 Alpha virt. eigenvalues --    1.28520   1.28756   1.29160   1.29286   1.29442
 Alpha virt. eigenvalues --    1.30005   1.30450   1.30684   1.30913   1.31591
 Alpha virt. eigenvalues --    1.31617   1.32321   1.32695   1.33054   1.33416
 Alpha virt. eigenvalues --    1.33751   1.33889   1.34727   1.35517   1.35971
 Alpha virt. eigenvalues --    1.36705   1.37277   1.37443   1.38274   1.39090
 Alpha virt. eigenvalues --    1.40685   1.42514   1.43361   1.43703   1.44144
 Alpha virt. eigenvalues --    1.44932   1.45458   1.46187   1.46501   1.46676
 Alpha virt. eigenvalues --    1.46793   1.46834   1.47046   1.47388   1.47503
 Alpha virt. eigenvalues --    1.47700   1.48002   1.48396   1.48627   1.49021
 Alpha virt. eigenvalues --    1.49150   1.50203   1.50591   1.50859   1.51220
 Alpha virt. eigenvalues --    1.51863   1.52597   1.53195   1.53326   1.53737
 Alpha virt. eigenvalues --    1.54094   1.54362   1.54398   1.55406   1.55432
 Alpha virt. eigenvalues --    1.56023   1.56690   1.57342   1.57819   1.58178
 Alpha virt. eigenvalues --    1.58544   1.58646   1.59063   1.59128   1.59371
 Alpha virt. eigenvalues --    1.59750   1.60195   1.60761   1.60994   1.61273
 Alpha virt. eigenvalues --    1.61435   1.62518   1.62689   1.63329   1.63922
 Alpha virt. eigenvalues --    1.64534   1.64585   1.68276   1.68640   1.69340
 Alpha virt. eigenvalues --    1.69531   1.70318   1.72089   1.73180   1.73987
 Alpha virt. eigenvalues --    1.74735   1.75172   1.77921   1.78537   1.78924
 Alpha virt. eigenvalues --    1.79240   1.79567   1.79628   1.80387   1.80646
 Alpha virt. eigenvalues --    1.81271   1.81601   1.81927   1.82323   1.82896
 Alpha virt. eigenvalues --    1.83498   1.84052   1.84480   1.84909   1.85002
 Alpha virt. eigenvalues --    1.86125   1.86729   1.87449   1.89661   1.90052
 Alpha virt. eigenvalues --    1.90683   1.91099   1.91398   1.91633   1.91901
 Alpha virt. eigenvalues --    1.92381   1.93305   1.93381   1.93659   1.94206
 Alpha virt. eigenvalues --    1.94482   1.94889   1.95092   1.95536   1.95635
 Alpha virt. eigenvalues --    1.96120   1.96260   1.96398   1.97458   1.98427
 Alpha virt. eigenvalues --    1.99764   1.99843   1.99986   2.00189   2.00962
 Alpha virt. eigenvalues --    2.01813   2.02156   2.02885   2.03750   2.04007
 Alpha virt. eigenvalues --    2.04895   2.05629   2.06220   2.06492   2.08514
 Alpha virt. eigenvalues --    2.10331   2.11294   2.11988   2.13045   2.14114
 Alpha virt. eigenvalues --    2.15234   2.17006   2.17950   2.21344   2.21735
 Alpha virt. eigenvalues --    2.22699   2.24642   2.25391   2.26230   2.26655
 Alpha virt. eigenvalues --    2.28983   2.29297   2.30919   2.31993   2.32088
 Alpha virt. eigenvalues --    2.33012   2.33336   2.33625   2.33895   2.34081
 Alpha virt. eigenvalues --    2.34376   2.34752   2.35074   2.35362   2.35893
 Alpha virt. eigenvalues --    2.36135   2.36517   2.36845   2.37338   2.37707
 Alpha virt. eigenvalues --    2.37939   2.37985   2.39337   2.39566   2.39631
 Alpha virt. eigenvalues --    2.40618   2.40869   2.42441   2.45110   2.46529
 Alpha virt. eigenvalues --    2.47909   2.48468   2.49197   2.51647   2.52894
 Alpha virt. eigenvalues --    2.53152   2.54120   2.54257   2.54404   2.55242
 Alpha virt. eigenvalues --    2.55673   2.56338   2.58246   2.58518   2.59504
 Alpha virt. eigenvalues --    2.60990   2.61246   2.62115   2.63113   2.64429
 Alpha virt. eigenvalues --    2.65302   2.66150   2.67034   2.67126   2.67255
 Alpha virt. eigenvalues --    2.67497   2.68094   2.68348   2.68609   2.68836
 Alpha virt. eigenvalues --    2.69692   2.69930   2.71732   2.75663   2.76326
 Alpha virt. eigenvalues --    2.76850   2.77458   2.78646   2.79873   2.80789
 Alpha virt. eigenvalues --    2.81680   2.83068   2.84831   2.85415   2.86538
 Alpha virt. eigenvalues --    2.86884   2.87838   2.88822   2.90981   2.98022
 Alpha virt. eigenvalues --    2.99699   2.99939   3.01090   3.01761   3.03633
 Alpha virt. eigenvalues --    3.04230   3.04711   3.05417   3.05672   3.06454
 Alpha virt. eigenvalues --    3.07435   3.09419   3.11894   3.12203   3.12388
 Alpha virt. eigenvalues --    3.14036   3.14625   3.14935   3.16623   3.17012
 Alpha virt. eigenvalues --    3.17879   3.19192   3.19455   3.19934   3.21594
 Alpha virt. eigenvalues --    3.22039   3.22322   3.23203   3.23274   3.25449
 Alpha virt. eigenvalues --    3.28178   3.30595   3.35120   3.35456   3.36017
 Alpha virt. eigenvalues --    3.38314   3.41526   3.42577   3.43320   3.48539
 Alpha virt. eigenvalues --    3.54480   3.56696   3.57357   3.57534   3.59808
 Alpha virt. eigenvalues --    3.64085   3.72920   3.82287   3.93101   3.95167
 Alpha virt. eigenvalues --   18.76176  19.01362  21.05263  21.20197  21.22555
 Alpha virt. eigenvalues --   21.34054  21.61983  21.69149  21.70189  21.72236
 Alpha virt. eigenvalues --   21.73488  21.74336  21.81188  21.86711  21.90915
 Alpha virt. eigenvalues --   21.92147  21.92707  21.96131  21.98222  21.98817
 Alpha virt. eigenvalues --   22.03841  22.03961  22.08003  22.11217  22.16577
 Alpha virt. eigenvalues --   22.17266  32.04321
          Condensed to atoms (all electrons):
               1          2          3          4          5          6
     1  C    5.821200   0.091644  -0.156319  -0.064703   0.003299  -0.037756
     2  C    0.091644   5.905884   0.431440  -0.082937  -0.012089  -0.010004
     3  S   -0.156319   0.431440  15.560607  -0.100248  -0.136329   0.408145
     4  C   -0.064703  -0.082937  -0.100248   6.023656  -0.003461   0.034551
     5  C    0.003299  -0.012089  -0.136329  -0.003461   5.658995  -0.007024
     6  C   -0.037756  -0.010004   0.408145   0.034551  -0.007024   5.929470
     7  C    0.078868   0.127638   0.029545  -0.182735  -0.004282  -0.010165
     8  C   -0.401769   0.122445   0.026526  -0.051857  -0.000213  -0.003531
     9  H    0.001017   0.019461   0.000036  -0.034256   0.000007  -0.000011
    10  C   -0.003116   0.001361   0.042933   0.001134  -0.038340   0.216145
    11  C    0.004298  -0.010002  -0.149179  -0.006906   0.258355  -0.155034
    12  C    0.000269  -0.000662   0.048890   0.000470  -0.323006   0.286571
    13  C   -0.000115  -0.002540  -0.014449  -0.000539   0.233732  -0.321736
    14  H    0.000005  -0.000024  -0.000168   0.000003  -0.049037   0.017667
    15  H    0.002797  -0.001394  -0.008570  -0.001850   0.031595  -0.101743
    16  H    0.000060   0.000029  -0.000148   0.000005  -0.003521   0.017906
    17  C    0.221034  -0.211046  -0.006281   0.218514   0.000238   0.002127
    18  H    0.425198  -0.096713  -0.019357   0.009267  -0.002863   0.021923
    19  H    0.000984  -0.000461  -0.002453  -0.000846   0.455094  -0.098687
    20  H   -0.069809   0.024743  -0.000094  -0.002247   0.000006   0.000025
    21  H   -0.003356   0.032780  -0.000159  -0.123502  -0.000003   0.000017
    22  H    0.025502  -0.005074   0.000004   0.028760   0.000004   0.000007
    23  S    0.034903  -0.152557   0.021915   0.467871   0.000154   0.000157
    24  N   -0.000028  -0.000011  -0.000034  -0.000000   0.016813   0.002464
    25  C    0.000018  -0.000015   0.000020  -0.000001  -0.005496   0.003020
    26  C   -0.000001   0.000001  -0.000000   0.000000  -0.000312   0.000177
    27  C    0.000003  -0.000004   0.000006  -0.000000   0.002884  -0.001174
    28  C   -0.000000   0.000000  -0.000000   0.000000  -0.000056   0.000016
    29  C    0.000000  -0.000000   0.000000  -0.000000   0.000075  -0.000103
    30  C   -0.000000   0.000000   0.000000   0.000000   0.000016  -0.000007
    31  H    0.000000  -0.000000   0.000000  -0.000000   0.000011  -0.000003
    32  H    0.000000  -0.000001   0.000008  -0.000000  -0.000155   0.000932
    33  H    0.000000  -0.000000   0.000000  -0.000000   0.000000  -0.000000
    34  H    0.000000  -0.000000  -0.000000   0.000000  -0.000001  -0.000002
    35  H   -0.000000   0.000000  -0.000000   0.000000  -0.000000  -0.000000
    36  C   -0.000004  -0.000001  -0.000032  -0.000000  -0.003290   0.001132
    37  C    0.000003  -0.000000   0.000002  -0.000000   0.000781   0.000293
    38  C   -0.000163   0.000015  -0.000019   0.000002  -0.006298  -0.001859
    39  C   -0.000000  -0.000000  -0.000000   0.000000   0.000029   0.000025
    40  C   -0.000014   0.000001  -0.000001   0.000000  -0.000587  -0.000149
    41  C    0.000000  -0.000000   0.000000  -0.000000  -0.000058  -0.000002
    42  H   -0.000000   0.000000  -0.000000   0.000000   0.000014  -0.000009
    43  H    0.000089   0.000012  -0.000001  -0.000001  -0.002703   0.000580
    44  H   -0.000000   0.000000  -0.000000   0.000000  -0.000002  -0.000000
    45  H   -0.000000  -0.000000  -0.000000   0.000000   0.000025  -0.000003
    46  H    0.000000  -0.000000   0.000000  -0.000000  -0.000001  -0.000000
               7          8          9         10         11         12
     1  C    0.078868  -0.401769   0.001017  -0.003116   0.004298   0.000269
     2  C    0.127638   0.122445   0.019461   0.001361  -0.010002  -0.000662
     3  S    0.029545   0.026526   0.000036   0.042933  -0.149179   0.048890
     4  C   -0.182735  -0.051857  -0.034256   0.001134  -0.006906   0.000470
     5  C   -0.004282  -0.000213   0.000007  -0.038340   0.258355  -0.323006
     6  C   -0.010165  -0.003531  -0.000011   0.216145  -0.155034   0.286571
     7  C    5.314840   0.246817  -0.001090   0.000760  -0.004799   0.001149
     8  C    0.246817   5.951301  -0.035829  -0.000026   0.000817   0.000028
     9  H   -0.001090  -0.035829   0.623702  -0.000000  -0.000000  -0.000000
    10  C    0.000760  -0.000026  -0.000000   5.709782  -0.311071   0.092728
    11  C   -0.004799   0.000817  -0.000000  -0.311071   5.809573  -0.121238
    12  C    0.001149   0.000028  -0.000000   0.092728  -0.121238   5.791241
    13  C   -0.000259   0.000027   0.000000   0.101753   0.272065   0.057931
    14  H    0.000002  -0.000000  -0.000000   0.414710  -0.003266   0.014682
    15  H   -0.000979  -0.000018   0.000002  -0.009673   0.471067  -0.089277
    16  H    0.000013   0.000000  -0.000000   0.015012  -0.047446   0.413756
    17  C    0.230598  -0.063353   0.006059  -0.000014  -0.000215  -0.000026
    18  H   -0.040453   0.001801   0.000006   0.001683  -0.000544   0.000136
    19  H   -0.000438   0.000019   0.000000  -0.083940   0.038389  -0.012753
    20  H    0.427063   0.022420  -0.000003  -0.000007  -0.000021  -0.000014
    21  H    0.018065   0.447912  -0.000607   0.000000   0.000007   0.000000
    22  H   -0.074814  -0.083530   0.000035  -0.000000   0.000001  -0.000000
    23  S   -0.010176  -0.149232   0.325407   0.000006   0.000112   0.000000
    24  N    0.000002  -0.000000   0.000000  -0.018709   0.015645  -0.021614
    25  C    0.000002   0.000000  -0.000000  -0.002134  -0.006663   0.034240
    26  C   -0.000000  -0.000000   0.000000  -0.011199   0.000978   0.020744
    27  C   -0.000000   0.000000  -0.000000   0.019310  -0.007135  -0.065965
    28  C    0.000000  -0.000000  -0.000000  -0.000213   0.000023   0.002802
    29  C    0.000000   0.000000  -0.000000   0.001204  -0.000913  -0.010835
    30  C   -0.000000  -0.000000   0.000000   0.000012  -0.000013  -0.000332
    31  H    0.000000   0.000000  -0.000000  -0.000280  -0.000016   0.000428
    32  H    0.000000   0.000000   0.000000   0.000200  -0.002558   0.004742
    33  H    0.000000   0.000000  -0.000000   0.000002  -0.000002  -0.000037
    34  H    0.000000   0.000000  -0.000000  -0.000024   0.000019   0.000029
    35  H   -0.000000  -0.000000   0.000000   0.000000  -0.000001  -0.000013
    36  C   -0.000001   0.000000   0.000000   0.020010  -0.002127  -0.009324
    37  C    0.000000   0.000000  -0.000000   0.021869  -0.000545  -0.010352
    38  C    0.000013  -0.000000   0.000000  -0.064625   0.003109   0.016508
    39  C   -0.000000  -0.000000  -0.000000   0.002755  -0.000065  -0.000131
    40  C    0.000000  -0.000000   0.000000  -0.011006   0.000105   0.001035
    41  C    0.000000   0.000000  -0.000000  -0.000082   0.000011   0.000022
    42  H   -0.000000  -0.000000   0.000000   0.000409   0.000028  -0.000366
    43  H    0.000004   0.000000   0.000000   0.005684   0.000225  -0.000524
    44  H   -0.000000  -0.000000   0.000000  -0.000039   0.000000   0.000002
    45  H    0.000000   0.000000  -0.000000  -0.000005   0.000000  -0.000026
    46  H    0.000000   0.000000  -0.000000  -0.000013  -0.000000   0.000000
              13         14         15         16         17         18
     1  C   -0.000115   0.000005   0.002797   0.000060   0.221034   0.425198
     2  C   -0.002540  -0.000024  -0.001394   0.000029  -0.211046  -0.096713
     3  S   -0.014449  -0.000168  -0.008570  -0.000148  -0.006281  -0.019357
     4  C   -0.000539   0.000003  -0.001850   0.000005   0.218514   0.009267
     5  C    0.233732  -0.049037   0.031595  -0.003521   0.000238  -0.002863
     6  C   -0.321736   0.017667  -0.101743   0.017906   0.002127   0.021923
     7  C   -0.000259   0.000002  -0.000979   0.000013   0.230598  -0.040453
     8  C    0.000027  -0.000000  -0.000018   0.000000  -0.063353   0.001801
     9  H    0.000000  -0.000000   0.000002  -0.000000   0.006059   0.000006
    10  C    0.101753   0.414710  -0.009673   0.015012  -0.000014   0.001683
    11  C    0.272065  -0.003266   0.471067  -0.047446  -0.000215  -0.000544
    12  C    0.057931   0.014682  -0.089277   0.413756  -0.000026   0.000136
    13  C    5.669101  -0.053832   0.029113  -0.054917  -0.000012  -0.001721
    14  H   -0.053832   0.518205  -0.000022  -0.000233   0.000000   0.000110
    15  H    0.029113  -0.000022   0.566539  -0.008872   0.000106   0.000603
    16  H   -0.054917  -0.000233  -0.008872   0.515482  -0.000000   0.000028
    17  C   -0.000012   0.000000   0.000106  -0.000000   5.360390   0.010858
    18  H   -0.001721   0.000110   0.000603   0.000028   0.010858   0.538835
    19  H    0.029099  -0.009050   0.000191  -0.000033   0.000014   0.000584
    20  H   -0.000011  -0.000000  -0.000008   0.000000  -0.072883  -0.008981
    21  H    0.000000   0.000000  -0.000000   0.000000  -0.056280   0.000029
    22  H    0.000000  -0.000000   0.000000  -0.000000   0.436575  -0.000342
    23  S    0.000000   0.000000   0.000184  -0.000000   0.041282  -0.000078
    24  N    0.203431  -0.008586  -0.000331  -0.008867   0.000000   0.000024
    25  C   -0.092200  -0.001029  -0.000275   0.005706  -0.000000  -0.000004
    26  C   -0.012631  -0.000267  -0.000029  -0.000172   0.000000   0.000003
    27  C    0.023759   0.000178  -0.000059  -0.000806  -0.000000  -0.000007
    28  C   -0.004123   0.000010  -0.000001   0.000570  -0.000000   0.000000
    29  C    0.003664  -0.000008   0.000012  -0.001450  -0.000000  -0.000000
    30  C    0.001617  -0.000003   0.000001   0.000287   0.000000   0.000000
    31  H   -0.001483  -0.000007  -0.000001   0.000057  -0.000000  -0.000000
    32  H   -0.002382   0.000026  -0.000067   0.001180   0.000000   0.000001
    33  H    0.000011  -0.000000  -0.000000   0.000010  -0.000000  -0.000000
    34  H   -0.000166  -0.000000  -0.000000  -0.000026  -0.000000   0.000000
    35  H    0.000014   0.000000   0.000000   0.000004   0.000000   0.000000
    36  C   -0.073115   0.004746   0.000071  -0.001516  -0.000000  -0.000068
    37  C   -0.015974  -0.000260  -0.000001  -0.000220  -0.000000  -0.000004
    38  C    0.025822  -0.000866  -0.000008   0.000169   0.000000   0.000220
    39  C   -0.004019   0.000591   0.000000   0.000011   0.000000   0.000000
    40  C    0.004709  -0.001397  -0.000000  -0.000006   0.000000   0.000030
    41  C    0.001238   0.000377  -0.000000  -0.000003  -0.000000  -0.000000
    42  H   -0.001481   0.000020   0.000000  -0.000011   0.000000  -0.000000
    43  H   -0.002343   0.001026  -0.000000  -0.000008  -0.000000   0.000114
    44  H    0.000018   0.000009  -0.000000  -0.000000   0.000000   0.000000
    45  H   -0.000145  -0.000031   0.000000  -0.000000  -0.000000  -0.000001
    46  H    0.000014   0.000005  -0.000000   0.000000  -0.000000  -0.000000
              19         20         21         22         23         24
     1  C    0.000984  -0.069809  -0.003356   0.025502   0.034903  -0.000028
     2  C   -0.000461   0.024743   0.032780  -0.005074  -0.152557  -0.000011
     3  S   -0.002453  -0.000094  -0.000159   0.000004   0.021915  -0.000034
     4  C   -0.000846  -0.002247  -0.123502   0.028760   0.467871  -0.000000
     5  C    0.455094   0.000006  -0.000003   0.000004   0.000154   0.016813
     6  C   -0.098687   0.000025   0.000017   0.000007   0.000157   0.002464
     7  C   -0.000438   0.427063   0.018065  -0.074814  -0.010176   0.000002
     8  C    0.000019   0.022420   0.447912  -0.083530  -0.149232  -0.000000
     9  H    0.000000  -0.000003  -0.000607   0.000035   0.325407   0.000000
    10  C   -0.083940  -0.000007   0.000000  -0.000000   0.000006  -0.018709
    11  C    0.038389  -0.000021   0.000007   0.000001   0.000112   0.015645
    12  C   -0.012753  -0.000014   0.000000  -0.000000   0.000000  -0.021614
    13  C    0.029099  -0.000011   0.000000   0.000000   0.000000   0.203431
    14  H   -0.009050  -0.000000   0.000000  -0.000000   0.000000  -0.008586
    15  H    0.000191  -0.000008  -0.000000   0.000000   0.000184  -0.000331
    16  H   -0.000033   0.000000   0.000000  -0.000000  -0.000000  -0.008867
    17  C    0.000014  -0.072883  -0.056280   0.436575   0.041282   0.000000
    18  H    0.000584  -0.008981   0.000029  -0.000342  -0.000078   0.000024
    19  H    0.570221   0.000000   0.000000  -0.000000  -0.000007  -0.000370
    20  H    0.000000   0.589641  -0.000357  -0.009609  -0.000021   0.000000
    21  H    0.000000  -0.000357   0.609460  -0.010743  -0.017942   0.000000
    22  H   -0.000000  -0.009609  -0.010743   0.592383  -0.000070   0.000000
    23  S   -0.000007  -0.000021  -0.017942  -0.000070  15.490587   0.000000
    24  N   -0.000370   0.000000   0.000000   0.000000   0.000000   6.517709
    25  C    0.000020  -0.000000   0.000000  -0.000000  -0.000000   0.148777
    26  C    0.000002   0.000000  -0.000000   0.000000   0.000000  -0.008241
    27  C   -0.000021   0.000000   0.000000  -0.000000  -0.000000  -0.009426
    28  C    0.000000   0.000000  -0.000000   0.000000  -0.000000   0.014403
    29  C   -0.000001  -0.000000   0.000000  -0.000000  -0.000000   0.015167
    30  C    0.000000   0.000000  -0.000000   0.000000   0.000000   0.005914
    31  H   -0.000000   0.000000   0.000000  -0.000000  -0.000000  -0.007893
    32  H   -0.000008  -0.000000   0.000000  -0.000000   0.000000  -0.006525
    33  H   -0.000000  -0.000000   0.000000  -0.000000  -0.000000  -0.000628
    34  H    0.000000  -0.000000   0.000000  -0.000000   0.000000  -0.000657
    35  H    0.000000   0.000000  -0.000000   0.000000   0.000000  -0.000048
    36  C   -0.000052   0.000000   0.000000  -0.000000   0.000000   0.150062
    37  C   -0.000040   0.000000   0.000000  -0.000000  -0.000000  -0.009159
    38  C    0.000070  -0.000001  -0.000000   0.000000   0.000000  -0.006038
    39  C   -0.000002  -0.000000  -0.000000   0.000000   0.000000   0.013786
    40  C    0.000032  -0.000000  -0.000000   0.000000   0.000000   0.014580
    41  C   -0.000004   0.000000   0.000000  -0.000000  -0.000000   0.006067
    42  H    0.000000   0.000000   0.000000   0.000000  -0.000000  -0.007781
    43  H   -0.000072   0.000008   0.000000  -0.000000  -0.000000  -0.007485
    44  H    0.000000  -0.000000  -0.000000   0.000000   0.000000  -0.000630
    45  H    0.000000   0.000000  -0.000000   0.000000   0.000000  -0.000642
    46  H   -0.000000   0.000000   0.000000  -0.000000  -0.000000  -0.000047
              25         26         27         28         29         30
     1  C    0.000018  -0.000001   0.000003  -0.000000   0.000000  -0.000000
     2  C   -0.000015   0.000001  -0.000004   0.000000  -0.000000   0.000000
     3  S    0.000020  -0.000000   0.000006  -0.000000   0.000000   0.000000
     4  C   -0.000001   0.000000  -0.000000   0.000000  -0.000000   0.000000
     5  C   -0.005496  -0.000312   0.002884  -0.000056   0.000075   0.000016
     6  C    0.003020   0.000177  -0.001174   0.000016  -0.000103  -0.000007
     7  C    0.000002  -0.000000  -0.000000   0.000000   0.000000  -0.000000
     8  C    0.000000  -0.000000   0.000000  -0.000000   0.000000  -0.000000
     9  H   -0.000000   0.000000  -0.000000  -0.000000  -0.000000   0.000000
    10  C   -0.002134  -0.011199   0.019310  -0.000213   0.001204   0.000012
    11  C   -0.006663   0.000978  -0.007135   0.000023  -0.000913  -0.000013
    12  C    0.034240   0.020744  -0.065965   0.002802  -0.010835  -0.000332
    13  C   -0.092200  -0.012631   0.023759  -0.004123   0.003664   0.001617
    14  H   -0.001029  -0.000267   0.000178   0.000010  -0.000008  -0.000003
    15  H   -0.000275  -0.000029  -0.000059  -0.000001   0.000012   0.000001
    16  H    0.005706  -0.000172  -0.000806   0.000570  -0.001450   0.000287
    17  C   -0.000000   0.000000  -0.000000  -0.000000  -0.000000   0.000000
    18  H   -0.000004   0.000003  -0.000007   0.000000  -0.000000   0.000000
    19  H    0.000020   0.000002  -0.000021   0.000000  -0.000001   0.000000
    20  H   -0.000000   0.000000   0.000000   0.000000  -0.000000   0.000000
    21  H    0.000000  -0.000000   0.000000  -0.000000   0.000000  -0.000000
    22  H   -0.000000   0.000000  -0.000000   0.000000  -0.000000   0.000000
    23  S   -0.000000   0.000000  -0.000000  -0.000000  -0.000000   0.000000
    24  N    0.148777  -0.008241  -0.009426   0.014403   0.015167   0.005914
    25  C    5.509840   0.346354   0.339406   0.026480   0.024175  -0.107337
    26  C    0.346354   5.220104  -0.037266   0.354385  -0.144794  -0.014209
    27  C    0.339406  -0.037266   5.266269  -0.141043   0.347327  -0.016060
    28  C    0.026480   0.354385  -0.141043   5.097994   0.038585   0.417587
    29  C    0.024175  -0.144794   0.347327   0.038585   5.099448   0.421496
    30  C   -0.107337  -0.014209  -0.016060   0.417587   0.421496   5.067281
    31  H   -0.038138   0.404865   0.014202  -0.049797  -0.001999   0.011545
    32  H   -0.039810   0.013772   0.402160  -0.001750  -0.042677   0.010990
    33  H    0.019452  -0.054344  -0.002659   0.419366   0.017587  -0.070025
    34  H    0.018876  -0.002456  -0.053084   0.017218   0.417982  -0.068916
    35  H   -0.008461   0.025280   0.025877  -0.072928  -0.072564   0.433555
    36  C   -0.100950   0.033444  -0.006567  -0.003325  -0.006357   0.003067
    37  C    0.031256  -0.056439   0.010058  -0.005149   0.004655  -0.001554
    38  C   -0.004024   0.008406  -0.009380   0.000805  -0.000168   0.000017
    39  C   -0.004083  -0.004455   0.000839  -0.000215   0.000106  -0.000062
    40  C   -0.006542   0.005011  -0.000249   0.000140  -0.000080   0.000035
    41  C    0.003322  -0.001851   0.000050  -0.000078   0.000037  -0.000021
    42  H    0.004656   0.001386  -0.001659  -0.001572   0.000647   0.000420
    43  H   -0.001182   0.000390  -0.000267  -0.000015   0.000020  -0.000007
    44  H   -0.000260   0.000140  -0.000039   0.000025  -0.000005   0.000001
    45  H   -0.000008  -0.000018   0.000001  -0.000002   0.000000   0.000000
    46  H    0.000024  -0.000024   0.000001  -0.000001   0.000000  -0.000000
              31         32         33         34         35         36
     1  C    0.000000   0.000000   0.000000   0.000000  -0.000000  -0.000004
     2  C   -0.000000  -0.000001  -0.000000  -0.000000   0.000000  -0.000001
     3  S    0.000000   0.000008   0.000000  -0.000000  -0.000000  -0.000032
     4  C   -0.000000  -0.000000  -0.000000   0.000000   0.000000  -0.000000
     5  C    0.000011  -0.000155   0.000000  -0.000001  -0.000000  -0.003290
     6  C   -0.000003   0.000932  -0.000000  -0.000002  -0.000000   0.001132
     7  C    0.000000   0.000000   0.000000   0.000000  -0.000000  -0.000001
     8  C    0.000000   0.000000   0.000000   0.000000  -0.000000   0.000000
     9  H   -0.000000   0.000000  -0.000000  -0.000000   0.000000   0.000000
    10  C   -0.000280   0.000200   0.000002  -0.000024   0.000000   0.020010
    11  C   -0.000016  -0.002558  -0.000002   0.000019  -0.000001  -0.002127
    12  C    0.000428   0.004742  -0.000037   0.000029  -0.000013  -0.009324
    13  C   -0.001483  -0.002382   0.000011  -0.000166   0.000014  -0.073115
    14  H   -0.000007   0.000026  -0.000000  -0.000000   0.000000   0.004746
    15  H   -0.000001  -0.000067  -0.000000  -0.000000   0.000000   0.000071
    16  H    0.000057   0.001180   0.000010  -0.000026   0.000004  -0.001516
    17  C   -0.000000   0.000000  -0.000000  -0.000000   0.000000  -0.000000
    18  H   -0.000000   0.000001  -0.000000   0.000000   0.000000  -0.000068
    19  H   -0.000000  -0.000008  -0.000000   0.000000   0.000000  -0.000052
    20  H    0.000000  -0.000000  -0.000000  -0.000000   0.000000   0.000000
    21  H    0.000000   0.000000   0.000000   0.000000  -0.000000   0.000000
    22  H   -0.000000  -0.000000  -0.000000  -0.000000   0.000000  -0.000000
    23  S   -0.000000   0.000000  -0.000000   0.000000   0.000000   0.000000
    24  N   -0.007893  -0.006525  -0.000628  -0.000657  -0.000048   0.150062
    25  C   -0.038138  -0.039810   0.019452   0.018876  -0.008461  -0.100950
    26  C    0.404865   0.013772  -0.054344  -0.002456   0.025280   0.033444
    27  C    0.014202   0.402160  -0.002659  -0.053084   0.025877  -0.006567
    28  C   -0.049797  -0.001750   0.419366   0.017218  -0.072928  -0.003325
    29  C   -0.001999  -0.042677   0.017587   0.417982  -0.072564  -0.006357
    30  C    0.011545   0.010990  -0.070025  -0.068916   0.433555   0.003067
    31  H    0.530249  -0.000251  -0.007746   0.000015  -0.000094   0.004039
    32  H   -0.000251   0.520619   0.000012  -0.007541  -0.000093  -0.001510
    33  H   -0.007746   0.000012   0.582399  -0.000231  -0.009124  -0.000259
    34  H    0.000015  -0.007541  -0.000231   0.580892  -0.009020  -0.000005
    35  H   -0.000094  -0.000093  -0.009124  -0.009020   0.581648   0.000024
    36  C    0.004039  -0.001510  -0.000259  -0.000005   0.000024   5.520323
    37  C    0.001796   0.000636   0.000131  -0.000026  -0.000024   0.338578
    38  C   -0.001471  -0.000343  -0.000037   0.000002   0.000001   0.329306
    39  C   -0.001653   0.000001   0.000024  -0.000002  -0.000001   0.031207
    40  C    0.000504   0.000017  -0.000005   0.000000   0.000000   0.035592
    41  C    0.000466  -0.000007   0.000001   0.000000  -0.000000  -0.111659
    42  H    0.000868   0.000083  -0.000038   0.000004   0.000002  -0.038054
    43  H    0.000122  -0.000009   0.000000  -0.000000  -0.000000  -0.038655
    44  H   -0.000040   0.000000  -0.000000  -0.000000   0.000000   0.019827
    45  H    0.000002  -0.000000  -0.000000  -0.000000  -0.000000   0.019222
    46  H    0.000002  -0.000000   0.000000  -0.000000  -0.000000  -0.008773
              37         38         39         40         41         42
     1  C    0.000003  -0.000163  -0.000000  -0.000014   0.000000  -0.000000
     2  C   -0.000000   0.000015  -0.000000   0.000001  -0.000000   0.000000
     3  S    0.000002  -0.000019  -0.000000  -0.000001   0.000000  -0.000000
     4  C   -0.000000   0.000002   0.000000   0.000000  -0.000000   0.000000
     5  C    0.000781  -0.006298   0.000029  -0.000587  -0.000058   0.000014
     6  C    0.000293  -0.001859   0.000025  -0.000149  -0.000002  -0.000009
     7  C    0.000000   0.000013  -0.000000   0.000000   0.000000  -0.000000
     8  C    0.000000  -0.000000  -0.000000  -0.000000   0.000000  -0.000000
     9  H   -0.000000   0.000000  -0.000000   0.000000  -0.000000   0.000000
    10  C    0.021869  -0.064625   0.002755  -0.011006  -0.000082   0.000409
    11  C   -0.000545   0.003109  -0.000065   0.000105   0.000011   0.000028
    12  C   -0.010352   0.016508  -0.000131   0.001035   0.000022  -0.000366
    13  C   -0.015974   0.025822  -0.004019   0.004709   0.001238  -0.001481
    14  H   -0.000260  -0.000866   0.000591  -0.001397   0.000377   0.000020
    15  H   -0.000001  -0.000008   0.000000  -0.000000  -0.000000   0.000000
    16  H   -0.000220   0.000169   0.000011  -0.000006  -0.000003  -0.000011
    17  C   -0.000000   0.000000   0.000000   0.000000  -0.000000   0.000000
    18  H   -0.000004   0.000220   0.000000   0.000030  -0.000000  -0.000000
    19  H   -0.000040   0.000070  -0.000002   0.000032  -0.000004   0.000000
    20  H    0.000000  -0.000001  -0.000000  -0.000000   0.000000   0.000000
    21  H    0.000000  -0.000000  -0.000000  -0.000000   0.000000   0.000000
    22  H   -0.000000   0.000000   0.000000   0.000000  -0.000000   0.000000
    23  S   -0.000000   0.000000   0.000000   0.000000  -0.000000  -0.000000
    24  N   -0.009159  -0.006038   0.013786   0.014580   0.006067  -0.007781
    25  C    0.031256  -0.004024  -0.004083  -0.006542   0.003322   0.004656
    26  C   -0.056439   0.008406  -0.004455   0.005011  -0.001851   0.001386
    27  C    0.010058  -0.009380   0.000839  -0.000249   0.000050  -0.001659
    28  C   -0.005149   0.000805  -0.000215   0.000140  -0.000078  -0.001572
    29  C    0.004655  -0.000168   0.000106  -0.000080   0.000037   0.000647
    30  C   -0.001554   0.000017  -0.000062   0.000035  -0.000021   0.000420
    31  H    0.001796  -0.001471  -0.001653   0.000504   0.000466   0.000868
    32  H    0.000636  -0.000343   0.000001   0.000017  -0.000007   0.000083
    33  H    0.000131  -0.000037   0.000024  -0.000005   0.000001  -0.000038
    34  H   -0.000026   0.000002  -0.000002   0.000000   0.000000   0.000004
    35  H   -0.000024   0.000001  -0.000001   0.000000  -0.000000   0.000002
    36  C    0.338578   0.329306   0.031207   0.035592  -0.111659  -0.038054
    37  C    5.223689  -0.030316   0.351687  -0.150366  -0.011438   0.404721
    38  C   -0.030316   5.274260  -0.146227   0.335328  -0.009425   0.014333
    39  C    0.351687  -0.146227   5.100494   0.043755   0.414776  -0.049772
    40  C   -0.150366   0.335328   0.043755   5.113873   0.415256  -0.002046
    41  C   -0.011438  -0.009425   0.414776   0.415256   5.067887   0.011558
    42  H    0.404721   0.014333  -0.049772  -0.002046   0.011558   0.528976
    43  H    0.014308   0.399058  -0.001739  -0.045057   0.010878  -0.000257
    44  H   -0.054739  -0.002982   0.420035   0.018024  -0.070736  -0.007736
    45  H   -0.002566  -0.054549   0.017377   0.418807  -0.068526   0.000014
    46  H    0.025630   0.026521  -0.073596  -0.074055   0.434910  -0.000089
              43         44         45         46
     1  C    0.000089  -0.000000  -0.000000   0.000000
     2  C    0.000012   0.000000  -0.000000  -0.000000
     3  S   -0.000001  -0.000000  -0.000000   0.000000
     4  C   -0.000001   0.000000   0.000000  -0.000000
     5  C   -0.002703  -0.000002   0.000025  -0.000001
     6  C    0.000580  -0.000000  -0.000003  -0.000000
     7  C    0.000004  -0.000000   0.000000   0.000000
     8  C    0.000000  -0.000000   0.000000   0.000000
     9  H    0.000000   0.000000  -0.000000  -0.000000
    10  C    0.005684  -0.000039  -0.000005  -0.000013
    11  C    0.000225   0.000000   0.000000  -0.000000
    12  C   -0.000524   0.000002  -0.000026   0.000000
    13  C   -0.002343   0.000018  -0.000145   0.000014
    14  H    0.001026   0.000009  -0.000031   0.000005
    15  H   -0.000000  -0.000000   0.000000  -0.000000
    16  H   -0.000008  -0.000000  -0.000000   0.000000
    17  C   -0.000000   0.000000  -0.000000  -0.000000
    18  H    0.000114   0.000000  -0.000001  -0.000000
    19  H   -0.000072   0.000000   0.000000  -0.000000
    20  H    0.000008  -0.000000   0.000000   0.000000
    21  H    0.000000  -0.000000  -0.000000   0.000000
    22  H   -0.000000   0.000000   0.000000  -0.000000
    23  S   -0.000000   0.000000   0.000000  -0.000000
    24  N   -0.007485  -0.000630  -0.000642  -0.000047
    25  C   -0.001182  -0.000260  -0.000008   0.000024
    26  C    0.000390   0.000140  -0.000018  -0.000024
    27  C   -0.000267  -0.000039   0.000001   0.000001
    28  C   -0.000015   0.000025  -0.000002  -0.000001
    29  C    0.000020  -0.000005   0.000000   0.000000
    30  C   -0.000007   0.000001   0.000000  -0.000000
    31  H    0.000122  -0.000040   0.000002   0.000002
    32  H   -0.000009   0.000000  -0.000000  -0.000000
    33  H    0.000000  -0.000000  -0.000000   0.000000
    34  H   -0.000000  -0.000000  -0.000000  -0.000000
    35  H   -0.000000   0.000000  -0.000000  -0.000000
    36  C   -0.038655   0.019827   0.019222  -0.008773
    37  C    0.014308  -0.054739  -0.002566   0.025630
    38  C    0.399058  -0.002982  -0.054549   0.026521
    39  C   -0.001739   0.420035   0.017377  -0.073596
    40  C   -0.045057   0.018024   0.418807  -0.074055
    41  C    0.010878  -0.070736  -0.068526   0.434910
    42  H   -0.000257  -0.007736   0.000014  -0.000089
    43  H    0.524199   0.000007  -0.007606  -0.000081
    44  H    0.000007   0.582244  -0.000228  -0.009179
    45  H   -0.007606  -0.000228   0.582512  -0.009156
    46  H   -0.000081  -0.009179  -0.009156   0.582129
 Mulliken charges:
               1
     1  C    0.025962
     2  C   -0.171917
     3  S    0.023765
     4  C   -0.128142
     5  C   -0.063003
     6  C   -0.194351
     7  C   -0.145189
     8  C   -0.030755
     9  H    0.096065
    10  C   -0.114947
    11  C   -0.045068
    12  C   -0.121911
    13  C    0.003072
    14  H    0.155712
    15  H    0.120898
    16  H    0.157970
    17  C   -0.117686
    18  H    0.159682
    19  H    0.114522
    20  H    0.100159
    21  H    0.104678
    22  H    0.100914
    23  S   -0.052494
    24  N   -0.001093
    25  C   -0.097031
    26  C   -0.086732
    27  C   -0.099459
    28  C   -0.110141
    29  C   -0.110235
    30  C   -0.095296
    31  H    0.141701
    32  H    0.150305
    33  H    0.106139
    34  H    0.107121
    35  H    0.105966
    36  C   -0.105008
    37  C   -0.080922
    38  C   -0.095164
    39  C   -0.111478
    40  C   -0.115275
    41  C   -0.092967
    42  H    0.142732
    43  H    0.151286
    44  H    0.106284
    45  H    0.105551
    46  H    0.105780
 Sum of Mulliken charges =  -0.00000
 Mulliken charges with hydrogens summed into heavy atoms:
               1
     1  C    0.185644
     2  C   -0.171917
     3  S    0.023765
     4  C   -0.128142
     5  C    0.051520
     6  C   -0.194351
     7  C   -0.045030
     8  C    0.073923
    10  C    0.040766
    11  C    0.075829
    12  C    0.036059
    13  C    0.003072
    17  C   -0.016773
    23  S    0.043571
    24  N   -0.001093
    25  C   -0.097031
    26  C    0.054968
    27  C    0.050846
    28  C   -0.004002
    29  C   -0.003114
    30  C    0.010669
    36  C   -0.105008
    37  C    0.061810
    38  C    0.056122
    39  C   -0.005193
    40  C   -0.009724
    41  C    0.012814
 Electronic spatial extent (au):  <R**2>=          15344.3276
 Charge=             -0.0000 electrons
 Dipole moment (field-independent basis, Debye):
    X=              2.2675    Y=              1.2375    Z=              1.4559  Tot=              2.9653
 Quadrupole moment (field-independent basis, Debye-Ang):
   XX=           -154.2915   YY=           -163.0846   ZZ=           -171.7221
   XY=             -5.4665   XZ=             -6.7224   YZ=              1.2022
 Traceless Quadrupole moment (field-independent basis, Debye-Ang):
   XX=              8.7413   YY=             -0.0519   ZZ=             -8.6894
   XY=             -5.4665   XZ=             -6.7224   YZ=              1.2022
 Octapole moment (field-independent basis, Debye-Ang**2):
  XXX=            -99.2858  YYY=              4.8448  ZZZ=              2.9040  XYY=             50.9044
  XXY=             13.0914  XXZ=             44.2477  XZZ=              9.2274  YZZ=              6.6346
  YYZ=              6.2053  XYZ=            -20.3462
 Hexadecapole moment (field-independent basis, Debye-Ang**3):
 XXXX=         -14798.4985 YYYY=          -3411.8399 ZZZZ=          -1258.8944 XXXY=            -29.9916
 XXXZ=           -169.2330 YYYX=             -6.3601 YYYZ=             43.4662 ZZZX=             10.0123
 ZZZY=             23.9863 XXYY=          -3254.5669 XXZZ=          -2966.8778 YYZZ=           -808.2955
 XXYZ=            -29.8074 YYXZ=            -33.6004 ZZXY=            -59.9391
 N-N= 2.474684767360D+03 E-N=-9.117359560788D+03  KE= 1.769830851265D+03
 No NMR shielding tensors so no spin-rotation constants.
 Leave Link  601 at Tue Jan 19 12:57:16 2021, MaxMem=  4026531840 cpu:               2.7 elap:               0.4
 (Enter /opt/ohpc/pub/libs/gaussian/g16-A.03/sandybridge/g16/l9999.exe)

 Test job not archived.
 1\1\GINC-CASCADEB058\SP\RLC-wHPBE\TZVP\C24H19N1S2\RDU230\19-Jan-2021\0
 \\#P LC-wHPBE/TZVP iop(3/107=0181400000, 3/108=0181400000) scf=(conver
 =6,fermi,ndamp=35,noincfock,novaracc,vshift=500,xqc)\\H19 C24 S2 N1\\0
 ,1\C,0,-3.352046,1.022081,0.90149\C,0,-4.015603,0.124147,0.077833\S,0,
 -3.193622,-0.833868,-1.176213\C,0,-5.398593,-0.028228,0.207342\C,0,-0.
 749106,0.373785,-1.531691\C,0,-1.475477,-0.56699,-0.815552\C,0,-4.0415
 16,1.761821,1.844012\C,0,-6.080951,0.720801,1.156415\H,0,-7.475944,-0.
 835079,-0.458792\C,0,0.601771,0.54717,-1.299188\C,0,-0.823428,-1.33634
 6,0.139234\C,0,0.521569,-1.15492,0.389409\C,0,1.255724,-0.212476,-0.33
 1046\H,0,1.160253,1.275483,-1.876291\H,0,-1.383265,-2.076857,0.700814\
 H,0,1.015474,-1.752114,1.147605\C,0,-5.411167,1.613701,1.970885\H,0,-2
 .279577,1.141824,0.800598\H,0,-1.248138,0.967582,-2.290346\H,0,-3.5032
 27,2.458074,2.478369\H,0,-7.154267,0.598627,1.263844\H,0,-5.962434,2.1
 89124,2.706912\S,0,-6.238224,-1.192989,-0.835805\N,0,2.627173,-0.03758
 6,-0.087724\C,0,3.438312,-1.140752,0.276409\C,0,4.374889,-1.012928,1.2
 95896\C,0,3.317625,-2.35655,-0.387733\C,0,5.1794,-2.084309,1.64001\C,0
 ,4.112866,-3.428755,-0.025756\C,0,5.049979,-3.298472,0.986151\H,0,4.47
 0709,-0.064848,1.814448\H,0,2.593785,-2.456724,-1.189607\H,0,5.90745,-
 1.970366,2.436839\H,0,4.006805,-4.37257,-0.551042\H,0,5.67733,-4.13910
 6,1.26285\C,0,3.224517,1.239724,-0.221989\C,0,4.446224,1.376745,-0.871
 25\C,0,2.604731,2.367846,0.304633\C,0,5.03746,2.622109,-0.986244\C,0,3
 .193018,3.612223,0.169883\C,0,4.413292,3.746533,-0.472133\H,0,4.931907
 ,0.498005,-1.282066\H,0,1.656156,2.262505,0.820378\H,0,5.992055,2.7142
 7,-1.494403\H,0,2.697309,4.484427,0.584059\H,0,4.876004,4.72281,-0.569
 917\\Version=EM64L-G16RevA.03\State=1-A\HF=-1776.2119408\RMSD=7.216e-0
 7\Dipole=0.8921082,0.4868889,0.5728075\Quadrupole=6.4989325,-0.0385809
 ,-6.4603515,-4.0642069,-4.9979291,0.8938152\PG=C01 [X(C24H19N1S2)]\\@


 THE UNDERLYING PHYSICAL LAWS NECESSARY FOR THE 
 MATHEMATICAL THEORY OF A LARGE PART OF PHYSICS AND THE
 WHOLE OF CHEMISTRY ARE THUS COMPLETELY KNOWN, AND THE
 DIFFICULTY IS ONLY THAT THE EXACT APPLICATION OF THESE
 LAWS LEADS TO EQUATIONS MUCH TOO COMPLICATED 
 TO BE SOLUBLE.

                                        -- P. A. M. DIRAC, 1929
 Job cpu time:       0 days  1 hours 21 minutes 32.0 seconds.
 Elapsed time:       0 days  0 hours 10 minutes 13.4 seconds.
 File lengths (MBytes):  RWF=    172 Int=      0 D2E=      0 Chk=     28 Scr=      8
 Normal termination of Gaussian 16 at Tue Jan 19 12:57:16 2021.
