 Entering Gaussian System, Link 0=g16
 Input=mol_ta_pa_half_tune_c5.gjf
 Output=mol_ta_pa_half_tune_c5.log
 Initial command:
 /opt/ohpc/pub/libs/gaussian/g16-A.03/sandybridge/g16/l1.exe "/mnt/gpfs2_4m/scratch/rdu230/ondemand/projects/init_structures/wtuning/mol_ta_pa_half/tuning_mol_ta_pa_half_ocycle0/Gau-354930.inp" -scrdir="/mnt/gpfs2_4m/scratch/rdu230/ondemand/projects/init_structures/wtuning/mol_ta_pa_half/tuning_mol_ta_pa_half_ocycle0/"
 Entering Link 1 = /opt/ohpc/pub/libs/gaussian/g16-A.03/sandybridge/g16/l1.exe PID=    354931.
  
 Copyright (c) 1988,1990,1992,1993,1995,1998,2003,2009,2016,
            Gaussian, Inc.  All Rights Reserved.
  
 This is part of the Gaussian(R) 16 program.  It is based on
 the Gaussian(R) 09 system (copyright 2009, Gaussian, Inc.),
 the Gaussian(R) 03 system (copyright 2003, Gaussian, Inc.),
 the Gaussian(R) 98 system (copyright 1998, Gaussian, Inc.),
 the Gaussian(R) 94 system (copyright 1995, Gaussian, Inc.),
 the Gaussian 92(TM) system (copyright 1992, Gaussian, Inc.),
 the Gaussian 90(TM) system (copyright 1990, Gaussian, Inc.),
 the Gaussian 88(TM) system (copyright 1988, Gaussian, Inc.),
 the Gaussian 86(TM) system (copyright 1986, Carnegie Mellon
 University), and the Gaussian 82(TM) system (copyright 1983,
 Carnegie Mellon University). Gaussian is a federally registered
 trademark of Gaussian, Inc.
  
 This software contains proprietary and confidential information,
 including trade secrets, belonging to Gaussian, Inc.
  
 This software is provided under written license and may be
 used, copied, transmitted, or stored only in accord with that
 written license.
  
 The following legend is applicable only to US Government
 contracts under FAR:
  
                    RESTRICTED RIGHTS LEGEND
  
 Use, reproduction and disclosure by the US Government is
 subject to restrictions as set forth in subparagraphs (a)
 and (c) of the Commercial Computer Software - Restricted
 Rights clause in FAR 52.227-19.
  
 Gaussian, Inc.
 340 Quinnipiac St., Bldg. 40, Wallingford CT 06492
  
  
 ---------------------------------------------------------------
 Warning -- This program may not be used in any manner that
 competes with the business of Gaussian, Inc. or will provide
 assistance to any competitor of Gaussian, Inc.  The licensee
 of this program is prohibited from giving any competitor of
 Gaussian, Inc. access to this program.  By using this program,
 the user acknowledges that Gaussian, Inc. is engaged in the
 business of creating and licensing software in the field of
 computational chemistry and represents and warrants to the
 licensee that it is not a competitor of Gaussian, Inc. and that
 it will not use this program in any manner prohibited above.
 ---------------------------------------------------------------
  

 Cite this work as:
 Gaussian 16, Revision A.03,
 M. J. Frisch, G. W. Trucks, H. B. Schlegel, G. E. Scuseria, 
 M. A. Robb, J. R. Cheeseman, G. Scalmani, V. Barone, 
 G. A. Petersson, H. Nakatsuji, X. Li, M. Caricato, A. V. Marenich, 
 J. Bloino, B. G. Janesko, R. Gomperts, B. Mennucci, H. P. Hratchian, 
 J. V. Ortiz, A. F. Izmaylov, J. L. Sonnenberg, D. Williams-Young, 
 F. Ding, F. Lipparini, F. Egidi, J. Goings, B. Peng, A. Petrone, 
 T. Henderson, D. Ranasinghe, V. G. Zakrzewski, J. Gao, N. Rega, 
 G. Zheng, W. Liang, M. Hada, M. Ehara, K. Toyota, R. Fukuda, 
 J. Hasegawa, M. Ishida, T. Nakajima, Y. Honda, O. Kitao, H. Nakai, 
 T. Vreven, K. Throssell, J. A. Montgomery, Jr., J. E. Peralta, 
 F. Ogliaro, M. J. Bearpark, J. J. Heyd, E. N. Brothers, K. N. Kudin, 
 V. N. Staroverov, T. A. Keith, R. Kobayashi, J. Normand, 
 K. Raghavachari, A. P. Rendell, J. C. Burant, S. S. Iyengar, 
 J. Tomasi, M. Cossi, J. M. Millam, M. Klene, C. Adamo, R. Cammi, 
 J. W. Ochterski, R. L. Martin, K. Morokuma, O. Farkas, 
 J. B. Foresman, and D. J. Fox, Gaussian, Inc., Wallingford CT, 2016.
 
 ******************************************
 Gaussian 16:  EM64L-G16RevA.03 25-Dec-2016
                19-Jan-2021 
 ******************************************
 %mem=30GB
 %nproc=8
 Will use up to    8 processors via shared memory.
 ----------------------------------------------------------------------
 #P LC-wHPBE/TZVP iop(3/107=0198600000, 3/108=0198600000) scf=(conver=6
 ,fermi,ndamp=35,noincfock,novaracc,vshift=500,xqc)
 ----------------------------------------------------------------------
 1/38=1,172=1/1;
 2/12=2,17=6,18=5,40=1/2;
 3/5=19,7=101,11=2,25=1,30=1,74=-71,107=198600000,108=198600000/1,2,3;
 4//1;
 5/5=100002,6=6,8=3,10=500,13=1,18=-1,22=13,38=1,93=35/2,8;
 6/7=2,8=2,9=2,10=2,28=1/1;
 99/5=1,9=1/99;
 Leave Link    1 at Tue Jan 19 00:05:30 2021, MaxMem=  4026531840 cpu:               1.0 elap:               0.1
 (Enter /opt/ohpc/pub/libs/gaussian/g16-A.03/sandybridge/g16/l101.exe)
 -------------
 H19 C24 S2 N1
 -------------
 Symbolic Z-matrix:
 Charge =  1 Multiplicity = 2
 C                    -3.35205   1.02208   0.90149 
 C                    -4.0156    0.12415   0.07783 
 S                    -3.19362  -0.83387  -1.17621 
 C                    -5.39859  -0.02823   0.20734 
 C                    -0.74911   0.37379  -1.53169 
 C                    -1.47548  -0.56699  -0.81555 
 C                    -4.04152   1.76182   1.84401 
 C                    -6.08095   0.7208    1.15641 
 H                    -7.47594  -0.83508  -0.45879 
 C                     0.60177   0.54717  -1.29919 
 C                    -0.82343  -1.33635   0.13923 
 C                     0.52157  -1.15492   0.38941 
 C                     1.25572  -0.21248  -0.33105 
 H                     1.16025   1.27548  -1.87629 
 H                    -1.38327  -2.07686   0.70081 
 H                     1.01547  -1.75211   1.1476 
 C                    -5.41117   1.6137    1.97089 
 H                    -2.27958   1.14182   0.8006 
 H                    -1.24814   0.96758  -2.29035 
 H                    -3.50323   2.45807   2.47837 
 H                    -7.15427   0.59863   1.26384 
 H                    -5.96243   2.18912   2.70691 
 S                    -6.23822  -1.19299  -0.83581 
 N                     2.62717  -0.03759  -0.08772 
 C                     3.43831  -1.14075   0.27641 
 C                     4.37489  -1.01293   1.2959 
 C                     3.31763  -2.35655  -0.38773 
 C                     5.1794   -2.08431   1.64001 
 C                     4.11287  -3.42876  -0.02576 
 C                     5.04998  -3.29847   0.98615 
 H                     4.47071  -0.06485   1.81445 
 H                     2.59379  -2.45672  -1.18961 
 H                     5.90745  -1.97037   2.43684 
 H                     4.0068   -4.37257  -0.55104 
 H                     5.67733  -4.13911   1.26285 
 C                     3.22452   1.23972  -0.22199 
 C                     4.44622   1.37675  -0.87125 
 C                     2.60473   2.36785   0.30463 
 C                     5.03746   2.62211  -0.98624 
 C                     3.19302   3.61222   0.16988 
 C                     4.41329   3.74653  -0.47213 
 H                     4.93191   0.49801  -1.28207 
 H                     1.65616   2.2625    0.82038 
 H                     5.99206   2.71427  -1.4944 
 H                     2.69731   4.48443   0.58406 
 H                     4.876     4.72281  -0.56992 
 
 ITRead=  0  0  0  0  0  0  0  0  0  0  0  0  0  0  0  0  0  0  0  0
 ITRead=  0  0  0  0  0  0  0  0  0  0  0  0  0  0  0  0  0  0  0  0
 ITRead=  0  0  0  0  0  0
 MicOpt= -1 -1 -1 -1 -1 -1 -1 -1 -1 -1 -1 -1 -1 -1 -1 -1 -1 -1 -1 -1
 MicOpt= -1 -1 -1 -1 -1 -1 -1 -1 -1 -1 -1 -1 -1 -1 -1 -1 -1 -1 -1 -1
 MicOpt= -1 -1 -1 -1 -1 -1
 NAtoms=     46 NQM=       46 NQMF=       0 NMMI=      0 NMMIF=      0
                NMic=       0 NMicF=      0.
                    Isotopes and Nuclear Properties:
 (Nuclear quadrupole moments (NQMom) in fm**2, nuclear magnetic moments (NMagM)
  in nuclear magnetons)

  Atom         1           2           3           4           5           6           7           8           9          10
 IAtWgt=          12          12          32          12          12          12          12          12           1          12
 AtmWgt=  12.0000000  12.0000000  31.9720718  12.0000000  12.0000000  12.0000000  12.0000000  12.0000000   1.0078250  12.0000000
 NucSpn=           0           0           0           0           0           0           0           0           1           0
 AtZEff=  -0.0000000  -0.0000000  -0.0000000  -0.0000000  -0.0000000  -0.0000000  -0.0000000  -0.0000000  -0.0000000  -0.0000000
 NQMom=    0.0000000   0.0000000   0.0000000   0.0000000   0.0000000   0.0000000   0.0000000   0.0000000   0.0000000   0.0000000
 NMagM=    0.0000000   0.0000000   0.0000000   0.0000000   0.0000000   0.0000000   0.0000000   0.0000000   2.7928460   0.0000000
 AtZNuc=   6.0000000   6.0000000  16.0000000   6.0000000   6.0000000   6.0000000   6.0000000   6.0000000   1.0000000   6.0000000

  Atom        11          12          13          14          15          16          17          18          19          20
 IAtWgt=          12          12          12           1           1           1          12           1           1           1
 AtmWgt=  12.0000000  12.0000000  12.0000000   1.0078250   1.0078250   1.0078250  12.0000000   1.0078250   1.0078250   1.0078250
 NucSpn=           0           0           0           1           1           1           0           1           1           1
 AtZEff=  -0.0000000  -0.0000000  -0.0000000  -0.0000000  -0.0000000  -0.0000000  -0.0000000  -0.0000000  -0.0000000  -0.0000000
 NQMom=    0.0000000   0.0000000   0.0000000   0.0000000   0.0000000   0.0000000   0.0000000   0.0000000   0.0000000   0.0000000
 NMagM=    0.0000000   0.0000000   0.0000000   2.7928460   2.7928460   2.7928460   0.0000000   2.7928460   2.7928460   2.7928460
 AtZNuc=   6.0000000   6.0000000   6.0000000   1.0000000   1.0000000   1.0000000   6.0000000   1.0000000   1.0000000   1.0000000

  Atom        21          22          23          24          25          26          27          28          29          30
 IAtWgt=           1           1          32          14          12          12          12          12          12          12
 AtmWgt=   1.0078250   1.0078250  31.9720718  14.0030740  12.0000000  12.0000000  12.0000000  12.0000000  12.0000000  12.0000000
 NucSpn=           1           1           0           2           0           0           0           0           0           0
 AtZEff=  -0.0000000  -0.0000000  -0.0000000  -0.0000000  -0.0000000  -0.0000000  -0.0000000  -0.0000000  -0.0000000  -0.0000000
 NQMom=    0.0000000   0.0000000   0.0000000   2.0440000   0.0000000   0.0000000   0.0000000   0.0000000   0.0000000   0.0000000
 NMagM=    2.7928460   2.7928460   0.0000000   0.4037610   0.0000000   0.0000000   0.0000000   0.0000000   0.0000000   0.0000000
 AtZNuc=   1.0000000   1.0000000  16.0000000   7.0000000   6.0000000   6.0000000   6.0000000   6.0000000   6.0000000   6.0000000

  Atom        31          32          33          34          35          36          37          38          39          40
 IAtWgt=           1           1           1           1           1          12          12          12          12          12
 AtmWgt=   1.0078250   1.0078250   1.0078250   1.0078250   1.0078250  12.0000000  12.0000000  12.0000000  12.0000000  12.0000000
 NucSpn=           1           1           1           1           1           0           0           0           0           0
 AtZEff=  -0.0000000  -0.0000000  -0.0000000  -0.0000000  -0.0000000  -0.0000000  -0.0000000  -0.0000000  -0.0000000  -0.0000000
 NQMom=    0.0000000   0.0000000   0.0000000   0.0000000   0.0000000   0.0000000   0.0000000   0.0000000   0.0000000   0.0000000
 NMagM=    2.7928460   2.7928460   2.7928460   2.7928460   2.7928460   0.0000000   0.0000000   0.0000000   0.0000000   0.0000000
 AtZNuc=   1.0000000   1.0000000   1.0000000   1.0000000   1.0000000   6.0000000   6.0000000   6.0000000   6.0000000   6.0000000

  Atom        41          42          43          44          45          46
 IAtWgt=          12           1           1           1           1           1
 AtmWgt=  12.0000000   1.0078250   1.0078250   1.0078250   1.0078250   1.0078250
 NucSpn=           0           1           1           1           1           1
 AtZEff=  -0.0000000  -0.0000000  -0.0000000  -0.0000000  -0.0000000  -0.0000000
 NQMom=    0.0000000   0.0000000   0.0000000   0.0000000   0.0000000   0.0000000
 NMagM=    0.0000000   2.7928460   2.7928460   2.7928460   2.7928460   2.7928460
 AtZNuc=   6.0000000   1.0000000   1.0000000   1.0000000   1.0000000   1.0000000
 Leave Link  101 at Tue Jan 19 00:05:31 2021, MaxMem=  4026531840 cpu:               0.7 elap:               0.1
 (Enter /opt/ohpc/pub/libs/gaussian/g16-A.03/sandybridge/g16/l202.exe)
                          Input orientation:                          
 ---------------------------------------------------------------------
 Center     Atomic      Atomic             Coordinates (Angstroms)
 Number     Number       Type             X           Y           Z
 ---------------------------------------------------------------------
      1          6           0       -3.352046    1.022081    0.901490
      2          6           0       -4.015603    0.124147    0.077833
      3         16           0       -3.193622   -0.833868   -1.176213
      4          6           0       -5.398593   -0.028228    0.207342
      5          6           0       -0.749106    0.373785   -1.531691
      6          6           0       -1.475477   -0.566990   -0.815552
      7          6           0       -4.041516    1.761821    1.844012
      8          6           0       -6.080951    0.720801    1.156415
      9          1           0       -7.475944   -0.835079   -0.458792
     10          6           0        0.601771    0.547170   -1.299188
     11          6           0       -0.823428   -1.336346    0.139234
     12          6           0        0.521569   -1.154920    0.389409
     13          6           0        1.255724   -0.212476   -0.331046
     14          1           0        1.160253    1.275483   -1.876291
     15          1           0       -1.383265   -2.076857    0.700814
     16          1           0        1.015474   -1.752114    1.147605
     17          6           0       -5.411167    1.613701    1.970885
     18          1           0       -2.279577    1.141824    0.800598
     19          1           0       -1.248138    0.967582   -2.290346
     20          1           0       -3.503227    2.458074    2.478369
     21          1           0       -7.154267    0.598627    1.263844
     22          1           0       -5.962434    2.189124    2.706912
     23         16           0       -6.238224   -1.192989   -0.835805
     24          7           0        2.627173   -0.037586   -0.087724
     25          6           0        3.438312   -1.140752    0.276409
     26          6           0        4.374889   -1.012928    1.295896
     27          6           0        3.317625   -2.356550   -0.387733
     28          6           0        5.179400   -2.084309    1.640010
     29          6           0        4.112866   -3.428755   -0.025756
     30          6           0        5.049979   -3.298472    0.986151
     31          1           0        4.470709   -0.064848    1.814448
     32          1           0        2.593785   -2.456724   -1.189607
     33          1           0        5.907450   -1.970366    2.436839
     34          1           0        4.006805   -4.372570   -0.551042
     35          1           0        5.677330   -4.139106    1.262850
     36          6           0        3.224517    1.239724   -0.221989
     37          6           0        4.446224    1.376745   -0.871250
     38          6           0        2.604731    2.367846    0.304633
     39          6           0        5.037460    2.622109   -0.986244
     40          6           0        3.193018    3.612223    0.169883
     41          6           0        4.413292    3.746533   -0.472133
     42          1           0        4.931907    0.498005   -1.282066
     43          1           0        1.656156    2.262505    0.820378
     44          1           0        5.992055    2.714270   -1.494403
     45          1           0        2.697309    4.484427    0.584059
     46          1           0        4.876004    4.722810   -0.569917
 ---------------------------------------------------------------------
                    Distance matrix (angstroms):
                    1          2          3          4          5
     1  C    0.000000
     2  C    1.387445   0.000000
     3  S    2.790429   1.779347   0.000000
     4  C    2.402779   1.397373   2.724918   0.000000
     5  C    3.621596   3.650053   2.749627   4.980319   0.000000
     6  C    2.999148   2.779937   1.775760   4.089916   1.387634
     7  C    1.382365   2.408742   4.071644   2.779320   4.915484
     8  C    2.757296   2.405202   4.024279   1.388307   5.981213
     9  H    4.722917   3.630708   4.342001   2.325969   6.918296
    10  C    4.549856   4.836867   4.040717   6.213299   1.381662
    11  C    3.540780   3.510953   2.756938   4.758986   2.392083
    12  C    4.472857   4.724301   4.044365   6.029171   2.764449
    13  C    4.926948   5.297866   4.571336   6.678603   2.409272
    14  H    5.304821   5.650988   4.888323   7.004259   2.139500
    15  H    3.676926   3.487367   2.888883   4.534672   3.375186
    16  H    5.179958   5.475080   4.894874   6.707916   3.848612
    17  C    2.394494   2.783885   4.562053   2.409600   5.961564
    18  H    1.083839   2.138187   2.940513   3.383672   2.893406
    19  H    3.823247   3.738785   2.876008   4.945337   1.084982
    20  H    2.138102   3.387081   4.928357   3.864152   5.292450
    21  H    3.842850   3.388652   4.867507   2.142787   6.992257
    22  H    3.381666   3.868635   5.646544   3.388571   6.959885
    23  S    4.031718   2.740370   3.084550   1.774769   5.750605
    24  N    6.152438   6.646807   5.974992   8.031194   3.695068
    25  C    7.153848   7.563085   6.796090   8.906928   4.805988
    26  C    8.000146   8.554354   7.964028   9.883093   6.014445
    27  C    7.586946   7.755440   6.733246   9.041441   5.030077
    28  C    9.109371   9.584662   8.922007  10.870784   7.158847
    29  C    8.740403   8.871632   7.838479  10.103750   6.353418
    30  C    9.448194   9.732633   8.871699  10.976051   7.311251
    31  H    7.950497   8.664239   8.263015   9.999363   6.215747
    32  H    7.199144   7.207726   6.010651   8.469189   4.393600
    33  H    9.851411  10.412438   9.857752  11.686281   8.096543
    34  H    9.239307   9.218187   8.047323  10.387972   6.790305
    35  H   10.406636  10.655165   9.775859  11.861260   8.335150
    36  C    6.675384   7.331694   6.811963   8.726400   4.272569
    37  C    8.005086   8.606525   7.959087  10.002886   5.332313
    38  C    6.136001   6.993886   6.787104   8.354869   4.312376
    39  C    8.746853   9.451456   8.929198  10.833288   6.231919
    40  C    7.076860   8.008706   7.897396   9.331134   5.378027
    41  C    8.343258   9.190779   8.907353  10.534875   6.256872
    42  H    8.582916   9.057982   8.234641  10.450574   5.687851
    43  H    5.160166   6.106783   6.090505   7.442631   3.858079
    44  H    9.793673  10.456284   9.852268  11.839092   7.136001
    45  H    6.977342   8.020692   8.129323   9.276292   5.766416
    46  H    9.141184  10.031349   9.816472  11.346534   7.175018
                    6          7          8          9         10
     6  C    0.000000
     7  C    4.368203   0.000000
     8  C    5.172760   2.390775   0.000000
     9  H    6.017039   4.882836   2.641148   0.000000
    10  C    2.406287   5.737177   7.121721   8.238104   0.000000
    11  C    1.388774   4.781318   5.736555   6.698125   2.765481
    12  C    2.405366   5.607583   6.906511   8.048724   2.398938
    13  C    2.796406   6.057184   7.543895   8.754769   1.393562
    14  H    3.386288   6.413703   7.870198   9.002648   1.084154
    15  H    2.141861   4.807146   5.486594   6.325143   3.850441
    16  H    3.385756   6.197247   7.514961   8.690549   3.382995
    17  C    5.292381   1.383467   1.381753   4.020343   6.927214
    18  H    2.485672   2.139518   3.841134   5.700565   3.614537
    19  H    2.140470   5.052395   5.941140   6.737191   2.140398
    20  H    4.910468   1.084865   3.377920   5.937529   5.896821
    21  H    6.158832   3.373253   1.085576   2.264170   8.168715
    22  H    6.335353   2.148746   2.138705   4.632299   7.863437
    23  S    4.803753   4.553883   2.766996   1.342456   7.073076
    24  N    4.200207   7.172230   8.829182  10.141334   2.431427
    25  C    5.066251   8.174970   9.739413  10.943260   3.657534
    26  C    6.235692   8.878938  10.599522  11.981352   4.837849
    27  C    5.134139   8.723452  10.009381  10.900507   4.078995
    28  C    7.253925   9.992979  11.614560  12.888882   6.043033
    29  C    6.327958   9.845408  11.069338  11.883400   5.455034
    30  C    7.299911  10.440200  11.835588  12.847370   6.308589
    31  H    6.521210   8.706065  10.601310  12.185376   5.003796
    32  H    4.502211   8.427703   9.531607  10.225618   3.606038
    33  H    8.188719  10.642490  12.353284  13.740043   6.960324
    34  H    6.678909  10.399159  11.428940  12.015651   6.029745
    35  H    8.260897  11.384843  12.723490  13.670745   7.367939
    36  C    5.070155   7.572066   9.421306  10.902328   2.918696
    37  C    6.232796   8.919790  10.740722  12.132616   3.956153
    38  C    5.149386   6.849055   8.881405  10.604789   3.146260
    39  C    7.253815   9.548730  11.481508  12.992907   4.906999
    40  C    6.342850   7.652789   9.764224  11.575858   4.274024
    41  C    7.307668   8.988180  11.042480  12.741479   5.044565
    42  H    6.512021   9.586027  11.281794  12.506385   4.330449
    43  H    4.526526   5.810506   7.896366   9.727618   2.923467
    44  H    8.184836  10.617190  12.520313  13.966294   5.812882
    45  H    6.699841   7.376437   9.568193  11.527348   4.841476
    46  H    8.269440   9.701375  11.791996  13.545224   6.019707
                   11         12         13         14         15
    11  C    0.000000
    12  C    1.380043   0.000000
    13  C    2.409797   1.395077   0.000000
    14  H    3.849543   3.383515   2.147305   0.000000
    15  H    1.084964   2.139003   3.391890   4.934485   0.000000
    16  H    2.138045   1.084179   2.148165   4.281501   2.461509
    17  C    5.753701   6.735257   7.285688   7.622251   5.608680
    18  H    2.949423   3.645618   3.951342   4.360737   3.342640
    19  H    3.375103   3.849411   3.391271   2.463045   4.270118
    20  H    5.201009   5.797971   6.137774   6.489193   5.312207
    21  H    6.714789   7.921996   8.598227   8.913463   6.385897
    22  H    6.740274   7.654786   8.191378   8.518988   6.572048
    23  S    5.503750   6.870036   7.574658   7.868509   5.168467
    24  N    3.693905   2.430979   1.403804   2.659883   4.567716
    25  C    4.268431   2.918965   2.448344   3.957507   4.929910
    26  C    5.335257   3.961055   3.607888   5.062952   5.885780
    27  C    4.297305   3.140986   2.975181   4.479031   4.833377
    28  C    6.232634   4.911533   4.773264   6.309209   6.629534
    29  C    5.363991   4.270843   4.312878   5.854251   5.706399
    30  C    6.250129   5.045534   5.065052   6.651662   6.554418
    31  H    5.696572   4.337591   3.867954   5.135870   6.289465
    32  H    3.833851   2.912398   2.750306   4.056589   4.419832
    33  H    7.140426   5.819333   5.691214   7.188498   7.495308
    34  H    5.746850   4.835762   4.992317   6.462170   5.990851
    35  H    7.167833   6.020809   6.124502   7.718547   7.377043
    36  C    4.811702   3.662520   2.448862   2.645596   5.751776
    37  C    6.012585   4.837510   3.605098   3.437727   6.955695
    38  C    5.049819   4.093486   2.980263   2.834820   5.984685
    39  C    7.161430   6.045795   4.771340   4.199800   8.133398
    40  C    6.373469   5.469048   4.316522   3.712050   7.320511
    41  C    7.323433   6.317595   5.065954   4.319723   8.299864
    42  H    6.205547   4.997707   3.863100   3.896530   7.102332
    43  H    4.423124   3.626543   2.758923   2.914130   5.299287
    44  H    8.094879   6.960287   5.687888   5.055913   9.064724
    45  H    6.817247   6.047642   4.997648   4.325874   7.727559
    46  H    8.348640   7.377609   6.125401   5.234260   9.328916
                   16         17         18         19         20
    16  H    0.000000
    17  C    7.301248   0.000000
    18  H    4.399165   3.376255   0.000000
    19  H    4.933578   5.992192   3.263152   0.000000
    20  H    6.317854   2.147264   2.458607   5.481572   0.000000
    21  H    8.502009   2.137447   4.926689   6.902953   4.273489
    22  H    8.164312   1.084778   4.277184   6.977775   2.484404
    23  S    7.540734   4.054509   4.878530   5.628918   5.638636
    24  N    2.657671   8.460469   5.124092   4.569457   7.098941
    25  C    2.646297   9.421865   6.178930   5.744225   8.123124
    26  C    3.442972  10.154885   7.012146   6.957153   8.689696
    27  C    2.832403   9.875109   6.706670   5.959529   8.827183
    28  C    4.206078  11.222516   8.169999   8.128652   9.834841
    29  C    3.712376  10.959934   7.901669   7.293594   9.946370
    30  C    4.323716  11.598910   8.571642   8.282568  10.417383
    31  H    3.902588  10.024643   6.931833   7.114805   8.389850
    32  H    2.906906   9.520311   6.376529   5.262877   8.647707
    33  H    5.063713  11.881656   8.910130   9.065333  10.400656
    34  H    4.324379  11.440881   8.470777   7.691348  10.594131
    35  H    5.238694  12.512029   9.561081   9.309435  11.370264
    36  C    3.963175   8.917600   5.599136   4.935261   7.351112
    37  C    5.063159  10.261678   6.934455   5.882772   8.693848
    38  C    4.495599   8.221907   5.060195   4.851727   6.483858
    39  C    6.313756  10.905746   7.676137   6.629245   9.218123
    40  C    5.871435   9.014971   6.037381   5.724572   7.176410
    41  C    6.663620  10.345883   7.293754   6.563555   8.546161
    42  H    5.128819  10.899800   7.533757   6.279338   9.441092
    43  H    4.078568   7.189692   4.092226   4.448410   5.422768
    44  H    7.189934  11.968832   8.726942   7.490316  10.296064
    45  H    6.483872   8.712734   5.999106   6.016391   6.792729
    46  H    7.731637  11.043012   8.118135   7.386930   9.199597
                   21         22         23         24         25
    21  H    0.000000
    22  H    2.456134   0.000000
    23  S    2.908186   4.905669   0.000000
    24  N    9.894851   9.303202   8.971613   0.000000
    25  C   10.779759  10.264962   9.740385   1.416868   0.000000
    26  C   11.641288  10.913494  10.826576   2.433148   1.390277
    27  C   11.005512  10.787005   9.636851   2.438098   1.390617
    28  C   12.627707  11.980859  11.716921   3.699730   2.404391
    29  C   12.034582  11.854944  10.620729   3.702857   2.404430
    30  C   12.814371  12.423686  11.626526   4.201973   2.785132
    31  H   11.656905  10.711086  11.089535   2.649080   2.142190
    32  H   10.506146  10.486927   8.928974   2.658475   2.143411
    33  H   13.363536  12.580479  12.602853   4.568290   3.384134
    34  H   12.352171  12.371573  10.730864   4.572760   3.384155
    35  H   13.678304  13.327262  12.452485   5.286774   3.869935
    36  C   10.504183   9.689164   9.789705   1.416463   2.441470
    37  C   11.820977  11.036456  10.989186   2.433761   2.944622
    38  C    9.964350   8.899393   9.600937   2.437325   3.606371
    39  C   12.561671  11.611397  11.904564   3.700108   4.279099
    40  C   10.832581   9.606458  10.632488   3.702384   4.760492
    41  C   12.113272  10.963008  11.746741   4.202089   5.039490
    42  H   12.351817  11.724269  11.306212   2.650492   2.710202
    43  H    8.977121   7.849032   8.775227   2.656679   3.879967
    44  H   13.598149  12.682138  12.856133   4.568795   4.951623
    45  H   10.612026   9.206849  10.681424   4.572178   5.682110
    46  H   12.849085  11.602970  12.593389   5.286882   6.096276
                   26         27         28         29         30
    26  C    0.000000
    27  C    2.399528   0.000000
    28  C    1.383297   2.766236   0.000000
    29  C    2.766160   1.383134   2.391612   0.000000
    30  C    2.403206   2.403295   1.385090   1.385320   0.000000
    31  H    1.084866   3.380991   2.147299   3.851009   3.387913
    32  H    3.381509   1.084888   3.851082   2.146392   3.387529
    33  H    2.137097   3.851563   1.085346   3.378136   2.145604
    34  H    3.851475   2.136814   3.378139   1.085339   2.145894
    35  H    3.386803   3.386759   2.147644   2.147708   1.084803
    36  C    2.949877   3.601295   4.282266   4.756298   5.038565
    37  C    3.226786   3.930015   4.338533   4.890687   5.066765
    38  C    3.942803   4.827785   5.313552   5.998684   6.208934
    39  C    4.342886   5.301235   5.391449   6.195996   6.240495
    40  C    4.904768   5.996058   6.209466   7.103504   7.202243
    41  C    5.077388   6.201228   6.248743   7.195434   7.222469
    42  H    3.039585   3.399150   3.907445   4.203402   4.424024
    43  H    4.283233   5.055263   5.655072   6.256341   6.516900
    44  H    4.928793   5.838708   5.788896   6.589767   6.572193
    45  H    5.791537   6.937445   7.100993   8.061893   8.140654
    46  H    6.052360   7.251143   7.163288   8.205273   8.172673
                   31         32         33         34         35
    31  H    0.000000
    32  H    4.274139   0.000000
    33  H    2.466292   4.936399   0.000000
    34  H    4.936316   2.464722   4.279073   0.000000
    35  H    4.284831   4.284064   2.476820   2.476967   0.000000
    36  C    2.720658   3.872704   4.957033   5.676099   6.095314
    37  C    3.048239   4.269469   4.927655   5.774967   6.041077
    38  C    3.417516   5.050678   5.854429   6.937665   7.259440
    39  C    3.922349   5.639809   5.793549   7.083586   7.154152
    40  C    4.225866   6.248153   6.608520   8.058468   8.212763
    41  C    4.445039   6.504289   6.586164   8.129655   8.172592
    42  H    3.180866   3.769056   4.568894   5.011258   5.341821
    43  H    3.785030   5.214433   6.213183   7.171511   7.572730
    44  H    4.581101   6.195185   6.116178   7.419869   7.393934
    45  H    5.035346   7.164927   7.443262   9.024945   9.149131
    46  H    5.363873   7.558985   7.409660   9.136838   9.084862
                   36         37         38         39         40
    36  C    0.000000
    37  C    1.390281   0.000000
    38  C    1.390728   2.399183   0.000000
    39  C    2.404545   1.383371   2.765716   0.000000
    40  C    2.404851   2.766197   1.383009   2.391427   0.000000
    41  C    2.785651   2.403388   2.403130   1.385000   1.385385
    42  H    2.142216   1.084823   3.380779   2.147200   3.851006
    43  H    2.142981   3.380925   1.084843   3.850508   2.146352
    44  H    3.384168   2.137027   3.851039   1.085344   3.377984
    45  H    3.384636   3.851534   2.136952   3.377926   1.085361
    46  H    3.870446   3.386984   3.386646   2.147636   2.147824
                   41         42         43         44         45
    41  C    0.000000
    42  H    3.387903   0.000000
    43  H    3.387436   4.273672   0.000000
    44  H    2.145483   2.465934   4.935820   0.000000
    45  H    2.145839   4.936336   2.465113   4.278880   0.000000
    46  H    1.084795   4.284771   4.284092   2.476788   2.476933
                   46
    46  H    0.000000
 Stoichiometry    C24H19NS2(1+,2)
 Framework group  C1[X(C24H19NS2)]
 Deg. of freedom   132
 Full point group                 C1      NOp   1
 Largest Abelian subgroup         C1      NOp   1
 Largest concise Abelian subgroup C1      NOp   1
                         Standard orientation:                         
 ---------------------------------------------------------------------
 Center     Atomic      Atomic             Coordinates (Angstroms)
 Number     Number       Type             X           Y           Z
 ---------------------------------------------------------------------
      1          6           0       -3.352046    1.022081    0.901490
      2          6           0       -4.015603    0.124147    0.077833
      3         16           0       -3.193622   -0.833868   -1.176213
      4          6           0       -5.398593   -0.028228    0.207342
      5          6           0       -0.749106    0.373785   -1.531691
      6          6           0       -1.475477   -0.566990   -0.815552
      7          6           0       -4.041516    1.761821    1.844012
      8          6           0       -6.080951    0.720801    1.156415
      9          1           0       -7.475944   -0.835079   -0.458792
     10          6           0        0.601771    0.547170   -1.299188
     11          6           0       -0.823428   -1.336346    0.139234
     12          6           0        0.521569   -1.154920    0.389409
     13          6           0        1.255724   -0.212476   -0.331046
     14          1           0        1.160253    1.275483   -1.876291
     15          1           0       -1.383265   -2.076857    0.700814
     16          1           0        1.015474   -1.752114    1.147605
     17          6           0       -5.411167    1.613701    1.970885
     18          1           0       -2.279577    1.141824    0.800598
     19          1           0       -1.248138    0.967582   -2.290346
     20          1           0       -3.503227    2.458074    2.478369
     21          1           0       -7.154267    0.598627    1.263844
     22          1           0       -5.962434    2.189124    2.706912
     23         16           0       -6.238224   -1.192989   -0.835805
     24          7           0        2.627173   -0.037586   -0.087724
     25          6           0        3.438312   -1.140752    0.276409
     26          6           0        4.374889   -1.012928    1.295896
     27          6           0        3.317625   -2.356550   -0.387733
     28          6           0        5.179400   -2.084309    1.640010
     29          6           0        4.112866   -3.428755   -0.025756
     30          6           0        5.049979   -3.298472    0.986151
     31          1           0        4.470709   -0.064848    1.814448
     32          1           0        2.593785   -2.456724   -1.189607
     33          1           0        5.907450   -1.970366    2.436839
     34          1           0        4.006805   -4.372570   -0.551042
     35          1           0        5.677330   -4.139106    1.262850
     36          6           0        3.224517    1.239724   -0.221989
     37          6           0        4.446224    1.376745   -0.871250
     38          6           0        2.604731    2.367846    0.304633
     39          6           0        5.037460    2.622109   -0.986244
     40          6           0        3.193018    3.612223    0.169883
     41          6           0        4.413292    3.746533   -0.472133
     42          1           0        4.931907    0.498005   -1.282066
     43          1           0        1.656156    2.262505    0.820378
     44          1           0        5.992055    2.714270   -1.494403
     45          1           0        2.697309    4.484427    0.584059
     46          1           0        4.876004    4.722810   -0.569917
 ---------------------------------------------------------------------
 Rotational constants (GHZ):           0.3083654           0.0766714           0.0675965
 Leave Link  202 at Tue Jan 19 00:05:31 2021, MaxMem=  4026531840 cpu:               0.3 elap:               0.1
 (Enter /opt/ohpc/pub/libs/gaussian/g16-A.03/sandybridge/g16/l301.exe)
 Standard basis: TZVP (5D, 7F)
 Ernie: Thresh=  0.10000D-02 Tol=  0.10000D-05 Strict=F.
 There are   660 symmetry adapted cartesian basis functions of A   symmetry.
 There are   633 symmetry adapted basis functions of A   symmetry.
   633 basis functions,  1121 primitive gaussians,   660 cartesian basis functions
   101 alpha electrons      100 beta electrons
       nuclear repulsion energy      2474.6847673599 Hartrees.
 IExCor=33909 DFT=T Ex+Corr=LC-wHPBE ExCW=0 ScaHFX=  1.000000
 ScaDFX=  1.000000  1.000000  1.000000  1.000000 ScalE2=  1.000000  1.000000
 IRadAn=      5 IRanWt=     -1 IRanGd=            0 ICorTp=0 IEmpDi=  4
 HFx  wShort=  0.000000 wLong=  0.198600 cFull=  0.000000 cShort=  0.000000 cLong=  1.000000
 DFx  wShort=  0.000000 wLong=  0.198600 cFull=  0.000000 cShort=  1.000000 cLong=  0.000000
 NAtoms=   46 NActive=   46 NUniq=   46 SFac= 1.00D+00 NAtFMM=   60 NAOKFM=F Big=F
 Integral buffers will be    131072 words long.
 Raffenetti 2 integral format.
 Two-electron integral symmetry is turned on.
 Leave Link  301 at Tue Jan 19 00:05:31 2021, MaxMem=  4026531840 cpu:               0.4 elap:               0.1
 (Enter /opt/ohpc/pub/libs/gaussian/g16-A.03/sandybridge/g16/l302.exe)
 NPDir=0 NMtPBC=     1 NCelOv=     1 NCel=       1 NClECP=     1 NCelD=      1
         NCelK=      1 NCelE2=     1 NClLst=     1 CellRange=     0.0.
 One-electron integrals computed using PRISM.
 One-electron integral symmetry used in STVInt
 NBasis=   633 RedAO= T EigKep=  6.67D-06  NBF=   633
 NBsUse=   633 1.00D-06 EigRej= -1.00D+00 NBFU=   633
 Precomputing XC quadrature grid using
 IXCGrd= 4 IRadAn=           5 IRanWt=          -1 IRanGd=           0 AccXCQ= 0.00D+00.
 Generated NRdTot=       0 NPtTot=           0 NUsed=           0 NTot=          32
 NSgBfM=   625   625   625   625   625 MxSgAt=    46 MxSgA2=    46.
 Leave Link  302 at Tue Jan 19 00:05:32 2021, MaxMem=  4026531840 cpu:               9.7 elap:               1.2
 (Enter /opt/ohpc/pub/libs/gaussian/g16-A.03/sandybridge/g16/l303.exe)
 DipDrv:  MaxL=1.
 Leave Link  303 at Tue Jan 19 00:05:32 2021, MaxMem=  4026531840 cpu:               0.9 elap:               0.2
 (Enter /opt/ohpc/pub/libs/gaussian/g16-A.03/sandybridge/g16/l401.exe)
 ExpMin= 9.52D-02 ExpMax= 6.07D+04 ExpMxC= 2.07D+03 IAcc=3 IRadAn=         5 AccDes= 0.00D+00
 Harris functional with IExCor=33909 and IRadAn=       5 diagonalized for initial guess.
 HarFok:  IExCor=33909 AccDes= 0.00D+00 IRadAn=         5 IDoV= 1 UseB2=F ITyADJ=14
 ICtDFT=  3500011 ScaDFX=  1.000000  1.000000  1.000000  1.000000
 FoFCou: FMM=F IPFlag=           0 FMFlag=      100000 FMFlg1=           0
         NFxFlg=           0 DoJE=T BraDBF=F KetDBF=T FulRan=T
         wScrn=  0.000000 ICntrl=       500 IOpCl=  0 I1Cent=   200000004 NGrid=           0
         NMat0=    1 NMatS0=      1 NMatT0=    0 NMatD0=    1 NMtDS0=    0 NMtDT0=    0
 Petite list used in FoFCou.
 Harris En= -1754.65105225016    
 JPrj=0 DoOrth=F DoCkMO=F.
 Initial guess <Sx>= 0.0000 <Sy>= 0.0000 <Sz>= 0.5000 <S**2>= 0.7500 S= 0.5000
 Leave Link  401 at Tue Jan 19 00:05:40 2021, MaxMem=  4026531840 cpu:              58.0 elap:               7.3
 (Enter /opt/ohpc/pub/libs/gaussian/g16-A.03/sandybridge/g16/l502.exe)
 Integral symmetry usage will be decided dynamically.
 UHF open shell SCF:
 Using DIIS extrapolation, IDIIS=    10.
 NGot=  4026531840 LenX=  4025648940 LenY=  4025212680
 Requested convergence on RMS density matrix=1.00D-06 within  32 cycles.
 Requested convergence on MAX density matrix=1.00D-04.
 Requested convergence on             energy=1.00D-04.
 Virtual orbitals will be shifted by   0.500 hartree.
 No special actions if energy rises.
 Dynamic level shift is on during FON iterations.

 Cycle   1  Pass 1  IDiag  1:
 FoFJK:  IHMeth= 1 ICntrl=       0 DoSepK=T KAlg= 0 I1Cent=           0 FoldK=F
 IRaf=         1 NMat=       1 IRICut=       1 DoRegI=T DoRafI=F ISym2E= 0 IDoP0=0 IntGTp=1.
 FoFCou: FMM=F IPFlag=           0 FMFlag=      100000 FMFlg1=           0
         NFxFlg=           0 DoJE=T BraDBF=F KetDBF=F FulRan=T
         wScrn=  0.000000 ICntrl=       500 IOpCl=  0 I1Cent=           0 NGrid=           0
         NMat0=    1 NMatS0=      1 NMatT0=    0 NMatD0=    1 NMtDS0=    0 NMtDT0=    0
 Symmetry not used in FoFCou.
 E= -1775.37555184010    
 DIIS: error= 3.66D-02 at cycle   1 NSaved=   1.
 NSaved= 1 IEnMin= 1 EnMin= -1775.37555184010     IErMin= 1 ErrMin= 3.66D-02
 ErrMax= 3.66D-02  0.00D+00 EMaxC= 1.00D+00 BMatC= 2.28D+00 BMatP= 2.28D+00
 IDIUse=1 WtCom= 1.00D+00 WtEn= 0.00D+00
 Coeff-Com:  0.100D+01
 Coeff:      0.100D+01
 Gap=     0.573 Goal=   None    Shift=    0.500
 T= 1615. Gap= 0.548 NK=0 IS=  102 IE=  633 IFin=  101
          NO(<0.9)=   0  NV(>0.1)=   0    101.00e < EF      0.00e >EF  Err=0.0D+00
 Gap=     0.171 Goal=   None    Shift=    0.500
 T= 1615. Gap= 0.378 NK=0 IS=  101 IE=  633 IFin=  100
          NO(<0.9)=   0  NV(>0.1)=   0    100.00e < EF      0.00e >EF  Err=0.0D+00
 GapD=    0.171 DampG=1.000 DampE=0.500 DampFc=0.5000 IDamp=-1.
 Damping current iteration by 5.00D-01
 RMSDP=3.49D-03 MaxDP=3.05D-01              OVMax= 1.37D-01

 Cycle   2  Pass 1  IDiag  1:
 E= -1775.74711928548     Delta-E=       -0.371567445383 Rises=F Damp=T
 DIIS: error= 1.68D-02 at cycle   2 NSaved=   2.
 NSaved= 2 IEnMin= 2 EnMin= -1775.74711928548     IErMin= 2 ErrMin= 1.68D-02
 ErrMax= 1.68D-02  0.00D+00 EMaxC= 1.00D+00 BMatC= 3.29D-01 BMatP= 2.28D+00
 IDIUse=1 WtCom= 1.00D+00 WtEn= 0.00D+00
 Coeff-Com: -0.497D+00 0.150D+01
 Coeff:     -0.497D+00 0.150D+01
 Gap=     0.214 Goal=   None    Shift=    0.500
 T= 1496. Gap= 0.685 NK=0 IS=  102 IE=  633 IFin=  101
          NO(<0.9)=   0  NV(>0.1)=   0    101.00e < EF      0.00e >EF  Err=0.0D+00
 Gap=     0.047 Goal=   None    Shift=    0.500
 T= 1496. Gap= 0.524 NK=0 IS=  101 IE=  633 IFin=  100
          NO(<0.9)=   0  NV(>0.1)=   0    100.00e < EF      0.00e >EF  Err=0.0D+00
 GapD=    0.047 DampG=0.250 DampE=0.500 DampFc=0.1250 IDamp=-1.
 Damping current iteration by 1.25D-01
 RMSDP=2.02D-03 MaxDP=1.35D-01 DE=-3.72D-01 OVMax= 2.60D-02

 Cycle   3  Pass 1  IDiag  1:
 E= -1775.77947531271     Delta-E=       -0.032356027226 Rises=F Damp=T
 DIIS: error= 1.46D-02 at cycle   3 NSaved=   3.
 NSaved= 3 IEnMin= 3 EnMin= -1775.77947531271     IErMin= 3 ErrMin= 1.46D-02
 ErrMax= 1.46D-02  0.00D+00 EMaxC= 1.00D+00 BMatC= 2.38D-01 BMatP= 3.29D-01
 IDIUse=1 WtCom= 1.00D+00 WtEn= 0.00D+00
 Coeff-Com:  0.119D+00-0.671D+01 0.759D+01
 Coeff:      0.119D+00-0.671D+01 0.759D+01
 Gap=     0.224 Goal=   None    Shift=    0.500
 T= 1328. Gap= 0.720 NK=0 IS=  102 IE=  633 IFin=  101
          NO(<0.9)=   0  NV(>0.1)=   0    101.00e < EF      0.00e >EF  Err=0.0D+00
 Gap=     0.066 Goal=   None    Shift=    0.500
 T= 1328. Gap= 0.566 NK=0 IS=  101 IE=  633 IFin=  100
          NO(<0.9)=   0  NV(>0.1)=   0    100.00e < EF      0.00e >EF  Err=0.0D+00
 GapD=    0.066 DampG=0.500 DampE=0.500 DampFc=0.2500 IDamp=-1.
 Damping current iteration by 2.50D-01
 RMSDP=1.91D-03 MaxDP=1.31D-01 DE=-3.24D-02 OVMax= 1.47D-02

 Cycle   4  Pass 1  IDiag  1:
 E= -1775.83093123364     Delta-E=       -0.051455920931 Rises=F Damp=T
 DIIS: error= 1.11D-02 at cycle   4 NSaved=   4.
 NSaved= 4 IEnMin= 4 EnMin= -1775.83093123364     IErMin= 4 ErrMin= 1.11D-02
 ErrMax= 1.11D-02  0.00D+00 EMaxC= 1.00D+00 BMatC= 1.28D-01 BMatP= 2.38D-01
 IDIUse=1 WtCom= 1.00D+00 WtEn= 0.00D+00
 Coeff-Com:  0.802D-01-0.222D+00-0.299D+01 0.413D+01
 Coeff:      0.802D-01-0.222D+00-0.299D+01 0.413D+01
 Gap=     0.220 Goal=   None    Shift=    0.500
 T= 1047. Gap= 0.719 NK=0 IS=  102 IE=  633 IFin=  101
          NO(<0.9)=   0  NV(>0.1)=   0    101.00e < EF      0.00e >EF  Err=0.0D+00
 Gap=     0.065 Goal=   None    Shift=    0.500
 T= 1047. Gap= 0.565 NK=0 IS=  101 IE=  633 IFin=  100
          NO(<0.9)=   0  NV(>0.1)=   0    100.00e < EF      0.00e >EF  Err=0.0D+00
 GapD=    0.065 DampG=0.500 DampE=0.500 DampFc=0.2500 IDamp=-1.
 Damping current iteration by 2.50D-01
 RMSDP=1.47D-03 MaxDP=1.01D-01 DE=-5.15D-02 OVMax= 1.19D-02

 Cycle   5  Pass 1  IDiag  1:
 E= -1775.86682652877     Delta-E=       -0.035895295130 Rises=F Damp=T
 DIIS: error= 8.50D-03 at cycle   5 NSaved=   5.
 NSaved= 5 IEnMin= 5 EnMin= -1775.86682652877     IErMin= 5 ErrMin= 8.50D-03
 ErrMax= 8.50D-03  0.00D+00 EMaxC= 1.00D+00 BMatC= 7.10D-02 BMatP= 1.28D-01
 IDIUse=1 WtCom= 1.00D+00 WtEn= 0.00D+00
 Coeff-Com: -0.483D-02 0.120D+01-0.134D+01-0.362D+01 0.477D+01
 Coeff:     -0.483D-02 0.120D+01-0.134D+01-0.362D+01 0.477D+01
 Gap=     0.222 Goal=   None    Shift=    0.500
 T=  916. Gap= 0.722 NK=0 IS=  102 IE=  633 IFin=  101
          NO(<0.9)=   0  NV(>0.1)=   0    101.00e < EF      0.00e >EF  Err=0.0D+00
 Gap=     0.069 Goal=   None    Shift=    0.500
 T=  916. Gap= 0.569 NK=0 IS=  101 IE=  633 IFin=  100
          NO(<0.9)=   0  NV(>0.1)=   0    100.00e < EF      0.00e >EF  Err=0.0D+00
 GapD=    0.069 DampG=0.500 DampE=1.000 DampFc=0.5000 IDamp=-1.
 Damping current iteration by 5.00D-01
 RMSDP=1.10D-03 MaxDP=7.58D-02 DE=-3.59D-02 OVMax= 1.08D-02

 Cycle   6  Pass 1  IDiag  1:
 E= -1775.91767002539     Delta-E=       -0.050843496627 Rises=F Damp=T
 DIIS: error= 4.64D-03 at cycle   6 NSaved=   6.
 NSaved= 6 IEnMin= 6 EnMin= -1775.91767002539     IErMin= 6 ErrMin= 4.64D-03
 ErrMax= 4.64D-03  0.00D+00 EMaxC= 1.00D+00 BMatC= 1.79D-02 BMatP= 7.10D-02
 IDIUse=1 WtCom= 1.00D+00 WtEn= 0.00D+00
 Coeff-Com: -0.184D-01 0.932D-01 0.705D+00 0.693D+00-0.416D+01 0.369D+01
 Coeff:     -0.184D-01 0.932D-01 0.705D+00 0.693D+00-0.416D+01 0.369D+01
 Gap=     0.225 Goal=   None    Shift=    0.500
 T=  709. Gap= 0.725 NK=0 IS=  102 IE=  633 IFin=  101
          NO(<0.9)=   0  NV(>0.1)=   0    101.00e < EF      0.00e >EF  Err=0.0D+00
 Gap=     0.072 Goal=   None    Shift=    0.500
 T=  709. Gap= 0.572 NK=0 IS=  101 IE=  633 IFin=  100
          NO(<0.9)=   0  NV(>0.1)=   0    100.00e < EF      0.00e >EF  Err=0.0D+00
 GapD=    0.072 DampG=0.500 DampE=1.000 DampFc=0.5000 IDamp=-1.
 Damping current iteration by 5.00D-01
 RMSDP=5.52D-04 MaxDP=3.73D-02 DE=-5.08D-02 OVMax= 1.07D-02

 Cycle   7  Pass 1  IDiag  1:
 E= -1775.94207402594     Delta-E=       -0.024404000542 Rises=F Damp=T
 DIIS: error= 2.99D-03 at cycle   7 NSaved=   7.
 NSaved= 7 IEnMin= 7 EnMin= -1775.94207402594     IErMin= 7 ErrMin= 2.99D-03
 ErrMax= 2.99D-03  0.00D+00 EMaxC= 1.00D+00 BMatC= 4.73D-03 BMatP= 1.79D-02
 IDIUse=1 WtCom= 1.00D+00 WtEn= 0.00D+00
 Coeff-Com: -0.420D-02-0.374D+00 0.737D+00 0.145D+01-0.254D+01-0.149D+01
 Coeff-Com:  0.322D+01
 Coeff:     -0.420D-02-0.374D+00 0.737D+00 0.145D+01-0.254D+01-0.149D+01
 Coeff:      0.322D+01
 Gap=     0.224 Goal=   None    Shift=    0.500
 T=  464. Gap= 0.724 NK=0 IS=  102 IE=  633 IFin=  101
          NO(<0.9)=   0  NV(>0.1)=   0    101.00e < EF      0.00e >EF  Err=0.0D+00
 Gap=     0.072 Goal=   None    Shift=    0.500
 T=  464. Gap= 0.573 NK=0 IS=  101 IE=  633 IFin=  100
          NO(<0.9)=   0  NV(>0.1)=   0    100.00e < EF      0.00e >EF  Err=0.0D+00
 GapD=    0.072 DampG=0.500 DampE=1.000 DampFc=0.5000 IDamp=-1.
 Damping current iteration by 5.00D-01
 RMSDP=2.88D-04 MaxDP=1.84D-02 DE=-2.44D-02 OVMax= 1.03D-02

 Cycle   8  Pass 1  IDiag  1:
 E= -1775.95419575434     Delta-E=       -0.012121728408 Rises=F Damp=T
 DIIS: error= 2.04D-03 at cycle   8 NSaved=   8.
 NSaved= 8 IEnMin= 8 EnMin= -1775.95419575434     IErMin= 8 ErrMin= 2.04D-03
 ErrMax= 2.04D-03  0.00D+00 EMaxC= 1.00D+00 BMatC= 1.36D-03 BMatP= 4.73D-03
 IDIUse=1 WtCom= 1.00D+00 WtEn= 0.00D+00
 Coeff-Com:  0.419D-02-0.142D+00-0.157D+00 0.316D+00 0.118D+01-0.202D+01
 Coeff-Com: -0.214D+01 0.395D+01
 Coeff:      0.419D-02-0.142D+00-0.157D+00 0.316D+00 0.118D+01-0.202D+01
 Coeff:     -0.214D+01 0.395D+01
 Gap=     0.225 Goal=   None    Shift=    0.500
 T=  157. Gap= 0.725 NK=0 IS=  102 IE=  633 IFin=  101
          NO(<0.9)=   0  NV(>0.1)=   0    101.00e < EF      0.00e >EF  Err=0.0D+00
 Gap=     0.073 Goal=   None    Shift=    0.500
 T=  157. Gap= 0.574 NK=0 IS=  101 IE=  633 IFin=  100
          NO(<0.9)=   0  NV(>0.1)=   0    100.00e < EF      0.00e >EF  Err=0.0D+00
 GapD=    0.073 DampG=0.500 DampE=1.000 DampFc=0.5000 IDamp=-1.
 Damping current iteration by 5.00D-01
 RMSDP=1.61D-04 MaxDP=9.37D-03 DE=-1.21D-02 OVMax= 1.04D-02

 Cycle   9  Pass 1  IDiag  1:
 E= -1775.96034365718     Delta-E=       -0.006147902839 Rises=F Damp=T
 DIIS: error= 1.76D-03 at cycle   9 NSaved=   9.
 NSaved= 9 IEnMin= 9 EnMin= -1775.96034365718     IErMin= 9 ErrMin= 1.76D-03
 ErrMax= 1.76D-03  0.00D+00 EMaxC= 1.00D+00 BMatC= 4.51D-04 BMatP= 1.36D-03
 IDIUse=1 WtCom= 1.00D+00 WtEn= 0.00D+00
 Coeff-Com:  0.185D-02-0.160D-01-0.219D+00-0.548D-01 0.112D+01-0.906D+00
 Coeff-Com: -0.123D+01-0.202D+00 0.251D+01
 Coeff:      0.185D-02-0.160D-01-0.219D+00-0.548D-01 0.112D+01-0.906D+00
 Coeff:     -0.123D+01-0.202D+00 0.251D+01
 Gap=     0.225 Goal=   None    Shift=    0.500
 Gap=     0.074 Goal=   None    Shift=    0.500
 GapD=    0.074 DampG=0.500 DampE=1.000 DampFc=0.5000 IDamp=-1.
 Damping current iteration by 5.00D-01
 RMSDP=9.80D-05 MaxDP=5.01D-03 DE=-6.15D-03 OVMax= 9.65D-03

 Cycle  10  Pass 1  IDiag  1:
 E= -1775.96351603607     Delta-E=       -0.003172378884 Rises=F Damp=T
 DIIS: error= 1.73D-03 at cycle  10 NSaved=  10.
 NSaved=10 IEnMin=10 EnMin= -1775.96351603607     IErMin=10 ErrMin= 1.73D-03
 ErrMax= 1.73D-03  0.00D+00 EMaxC= 1.00D+00 BMatC= 1.87D-04 BMatP= 4.51D-04
 IDIUse=1 WtCom= 1.00D+00 WtEn= 0.00D+00
 Coeff-Com: -0.131D-02-0.536D-01 0.175D+00 0.314D+00-0.980D+00 0.523D+00
 Coeff-Com:  0.123D+01-0.240D+00-0.563D+01 0.566D+01
 Coeff:     -0.131D-02-0.536D-01 0.175D+00 0.314D+00-0.980D+00 0.523D+00
 Coeff:      0.123D+01-0.240D+00-0.563D+01 0.566D+01
 Gap=     0.226 Goal=   None    Shift=    0.500
 Gap=     0.075 Goal=   None    Shift=    0.500
 GapD=    0.075 DampG=0.500 DampE=1.000 DampFc=0.5000 IDamp=-1.
 Damping current iteration by 5.00D-01
 RMSDP=7.16D-05 MaxDP=4.78D-03 DE=-3.17D-03 OVMax= 1.06D-02

 Cycle  11  Pass 1  IDiag  1:
 E= -1775.96519035275     Delta-E=       -0.001674316687 Rises=F Damp=T
 DIIS: error= 1.73D-03 at cycle  11 NSaved=  11.
 NSaved=11 IEnMin=11 EnMin= -1775.96519035275     IErMin=10 ErrMin= 1.73D-03
 ErrMax= 1.73D-03  0.00D+00 EMaxC= 1.00D+00 BMatC= 1.08D-04 BMatP= 1.87D-04
 IDIUse=1 WtCom= 1.00D+00 WtEn= 0.00D+00
 Coeff-Com: -0.144D-02-0.871D-01 0.271D+00 0.274D+00-0.108D+01 0.523D+00
 Coeff-Com:  0.129D+01 0.279D+00-0.538D+01 0.330D+01 0.161D+01
 Coeff:     -0.144D-02-0.871D-01 0.271D+00 0.274D+00-0.108D+01 0.523D+00
 Coeff:      0.129D+01 0.279D+00-0.538D+01 0.330D+01 0.161D+01
 Gap=     0.227 Goal=   None    Shift=    0.500
 Gap=     0.075 Goal=   None    Shift=    0.500
 GapD=    0.075 DampG=0.500 DampE=1.000 DampFc=0.5000 IDamp=-1.
 Damping current iteration by 5.00D-01
 RMSDP=5.51D-05 MaxDP=3.86D-03 DE=-1.67D-03 OVMax= 9.90D-03

 Cycle  12  Pass 1  IDiag  1:
 E= -1775.96610481364     Delta-E=       -0.000914460880 Rises=F Damp=T
 DIIS: error= 1.74D-03 at cycle  12 NSaved=  12.
 NSaved=12 IEnMin=12 EnMin= -1775.96610481364     IErMin=10 ErrMin= 1.73D-03
 ErrMax= 1.74D-03  0.00D+00 EMaxC= 1.00D+00 BMatC= 7.91D-05 BMatP= 1.08D-04
 IDIUse=1 WtCom= 1.00D+00 WtEn= 0.00D+00
 Coeff-Com: -0.190D-03-0.896D-01 0.143D+00 0.248D+00-0.396D+00-0.301D+00
 Coeff-Com:  0.341D+00 0.138D+01-0.209D+01 0.200D+01-0.541D+01 0.518D+01
 Coeff:     -0.190D-03-0.896D-01 0.143D+00 0.248D+00-0.396D+00-0.301D+00
 Coeff:      0.341D+00 0.138D+01-0.209D+01 0.200D+01-0.541D+01 0.518D+01
 Gap=     0.228 Goal=   None    Shift=    0.500
 Gap=     0.075 Goal=   None    Shift=    0.500
 GapD=    0.075 DampG=0.500 DampE=1.000 DampFc=0.5000 IDamp=-1.
 Damping current iteration by 5.00D-01
 RMSDP=5.04D-05 MaxDP=4.26D-03 DE=-9.14D-04 OVMax= 1.07D-02

 Cycle  13  Pass 1  IDiag  1:
 E= -1775.96663551031     Delta-E=       -0.000530696677 Rises=F Damp=T
 DIIS: error= 1.77D-03 at cycle  13 NSaved=  13.
 NSaved=13 IEnMin=13 EnMin= -1775.96663551031     IErMin=10 ErrMin= 1.73D-03
 ErrMax= 1.77D-03  0.00D+00 EMaxC= 1.00D+00 BMatC= 6.81D-05 BMatP= 7.91D-05
 IDIUse=1 WtCom= 1.00D+00 WtEn= 0.00D+00
 Coeff-Com: -0.117D-03-0.826D-01 0.124D+00 0.235D+00-0.336D+00-0.318D+00
 Coeff-Com:  0.264D+00 0.125D+01-0.173D+01 0.199D+01-0.519D+01 0.412D+01
 Coeff-Com:  0.672D+00
 Coeff:     -0.117D-03-0.826D-01 0.124D+00 0.235D+00-0.336D+00-0.318D+00
 Coeff:      0.264D+00 0.125D+01-0.173D+01 0.199D+01-0.519D+01 0.412D+01
 Coeff:      0.672D+00
 Gap=     0.228 Goal=   None    Shift=    0.500
 Gap=     0.076 Goal=   None    Shift=    0.500
 GapD=    0.076 DampG=0.500 DampE=1.000 DampFc=0.5000 IDamp=-1.
 Damping current iteration by 5.00D-01
 RMSDP=4.26D-05 MaxDP=3.32D-03 DE=-5.31D-04 OVMax= 9.56D-03

 Cycle  14  Pass 1  IDiag  1:
 E= -1775.96696517753     Delta-E=       -0.000329667215 Rises=F Damp=T
 DIIS: error= 1.78D-03 at cycle  14 NSaved=  14.
 NSaved=14 IEnMin=14 EnMin= -1775.96696517753     IErMin=10 ErrMin= 1.73D-03
 ErrMax= 1.78D-03  0.00D+00 EMaxC= 1.00D+00 BMatC= 6.29D-05 BMatP= 6.81D-05
 IDIUse=1 WtCom= 1.00D+00 WtEn= 0.00D+00
 Coeff-Com: -0.117D-03-0.816D-01 0.121D+00 0.236D+00-0.335D+00-0.318D+00
 Coeff-Com:  0.265D+00 0.124D+01-0.172D+01 0.196D+01-0.509D+01 0.407D+01
 Coeff-Com:  0.578D+00 0.778D-01
 Coeff:     -0.117D-03-0.816D-01 0.121D+00 0.236D+00-0.335D+00-0.318D+00
 Coeff:      0.265D+00 0.124D+01-0.172D+01 0.196D+01-0.509D+01 0.407D+01
 Coeff:      0.578D+00 0.778D-01
 Gap=     0.228 Goal=   None    Shift=    0.500
 Gap=     0.076 Goal=   None    Shift=    0.500
 RMSDP=3.46D-05 MaxDP=2.40D-03 DE=-3.30D-04 OVMax= 8.30D-03

 Cycle  15  Pass 1  IDiag  1:
 E= -1775.96742508719     Delta-E=       -0.000459909665 Rises=F Damp=F
 DIIS: error= 1.79D-03 at cycle  15 NSaved=  15.
 NSaved=15 IEnMin=15 EnMin= -1775.96742508719     IErMin=10 ErrMin= 1.73D-03
 ErrMax= 1.79D-03  0.00D+00 EMaxC= 1.00D+00 BMatC= 6.16D-05 BMatP= 6.29D-05
 IDIUse=1 WtCom= 1.00D+00 WtEn= 0.00D+00
 Large coefficients: NSaved= 15 BigCof=   20.24 CofMax=   10.00 Det=-9.93D-10
 Inversion failed.  Reducing to 14 matrices.
 Large coefficients: NSaved= 14 BigCof=   20.15 CofMax=   10.00 Det=-7.13D-10
 Inversion failed.  Reducing to 13 matrices.
 Large coefficients: NSaved= 13 BigCof=   19.32 CofMax=   10.00 Det=-9.99D-10
 Inversion failed.  Reducing to 12 matrices.
 Large coefficients: NSaved= 12 BigCof=   13.06 CofMax=   10.00 Det=-1.11D-09
 Inversion failed.  Reducing to 11 matrices.
 Large coefficients: NSaved= 11 BigCof=   15.17 CofMax=   10.00 Det=-8.67D-10
 Inversion failed.  Reducing to 10 matrices.
 Large coefficients: NSaved= 10 BigCof=   11.81 CofMax=   10.00 Det=-1.26D-09
 Inversion failed.  Reducing to  9 matrices.
 Coeff-Com: -0.116D+00 0.635D+00-0.124D+01 0.218D+01-0.384D+01 0.362D+00
 Coeff-Com:  0.597D+01-0.380D+01 0.856D+00
 Coeff:     -0.116D+00 0.635D+00-0.124D+01 0.218D+01-0.384D+01 0.362D+00
 Coeff:      0.597D+01-0.380D+01 0.856D+00
 Gap=     0.228 Goal=   None    Shift=    0.500
 Gap=     0.076 Goal=   None    Shift=    0.500
 GapD=    0.076 DampG=0.500 DampE=1.000 DampFc=0.5000 IDamp=-1.
 Damping current iteration by 5.00D-01
 RMSDP=1.14D-05 MaxDP=7.67D-04 DE=-4.60D-04 OVMax= 7.19D-03

 Cycle  16  Pass 1  IDiag  1:
 E= -1775.96746498283     Delta-E=       -0.000039895639 Rises=F Damp=T
 DIIS: error= 1.79D-03 at cycle  16 NSaved=  10.
 NSaved=10 IEnMin=10 EnMin= -1775.96746498283     IErMin= 4 ErrMin= 1.73D-03
 ErrMax= 1.79D-03  0.00D+00 EMaxC= 1.00D+00 BMatC= 6.35D-05 BMatP= 6.16D-05
 IDIUse=1 WtCom= 1.00D+00 WtEn= 0.00D+00
 Coeff-Com: -0.132D+00 0.648D+00-0.115D+01 0.218D+01-0.386D+01-0.121D+01
 Coeff-Com:  0.925D+01-0.564D+01-0.384D+00 0.130D+01
 Coeff:     -0.132D+00 0.648D+00-0.115D+01 0.218D+01-0.386D+01-0.121D+01
 Coeff:      0.925D+01-0.564D+01-0.384D+00 0.130D+01
 Gap=     0.228 Goal=   None    Shift=    0.500
 Gap=     0.076 Goal=   None    Shift=    0.500
 GapD=    0.076 DampG=0.500 DampE=1.000 DampFc=0.5000 IDamp=-1.
 Damping current iteration by 5.00D-01
 RMSDP=1.55D-05 MaxDP=1.05D-03 DE=-3.99D-05 OVMax= 6.38D-03

 Cycle  17  Pass 1  IDiag  1:
 E= -1775.96751917530     Delta-E=       -0.000054192470 Rises=F Damp=T
 DIIS: error= 1.78D-03 at cycle  17 NSaved=  11.
 NSaved=11 IEnMin=11 EnMin= -1775.96751917530     IErMin= 4 ErrMin= 1.73D-03
 ErrMax= 1.78D-03  0.00D+00 EMaxC= 1.00D+00 BMatC= 6.76D-05 BMatP= 6.16D-05
 IDIUse=1 WtCom= 1.00D+00 WtEn= 0.00D+00
 Large coefficients: NSaved= 11 BigCof=   95.43 CofMax=   10.00 Det=-2.30D-10
 Inversion failed.  Reducing to 10 matrices.
 Large coefficients: NSaved= 10 BigCof=   65.21 CofMax=   10.00 Det=-3.40D-10
 Inversion failed.  Reducing to  9 matrices.
 Large coefficients: NSaved=  9 BigCof=   61.37 CofMax=   10.00 Det=-3.18D-10
 Inversion failed.  Reducing to  8 matrices.
 Large coefficients: NSaved=  8 BigCof=   59.35 CofMax=   10.00 Det=-3.56D-10
 Inversion failed.  Reducing to  7 matrices.
 Large coefficients: NSaved=  7 BigCof=   57.56 CofMax=   10.00 Det=-3.77D-10
 Inversion failed.  Reducing to  6 matrices.
 Large coefficients: NSaved=  6 BigCof=   37.88 CofMax=   10.00 Det=-8.18D-10
 Inversion failed.  Reducing to  5 matrices.
 Large coefficients: NSaved=  5 BigCof=   17.95 CofMax=   10.00 Det=-2.09D-09
 Inversion failed.  Reducing to  4 matrices.
 Coeff-Com: -0.403D+00-0.246D+01 0.896D+01-0.509D+01
 Coeff:     -0.403D+00-0.246D+01 0.896D+01-0.509D+01
 Gap=     0.228 Goal=   None    Shift=    0.500
 Gap=     0.076 Goal=   None    Shift=    0.500
 GapD=    0.076 DampG=0.500 DampE=1.000 DampFc=0.5000 IDamp=-1.
 Damping current iteration by 5.00D-01
 RMSDP=1.81D-05 MaxDP=1.29D-03 DE=-5.42D-05 OVMax= 6.14D-03

 Cycle  18  Pass 1  IDiag  1:
 E= -1775.96758042769     Delta-E=       -0.000061252393 Rises=F Damp=T
 DIIS: error= 1.77D-03 at cycle  18 NSaved=   5.
 NSaved= 5 IEnMin= 5 EnMin= -1775.96758042769     IErMin= 5 ErrMin= 1.77D-03
 ErrMax= 1.77D-03  0.00D+00 EMaxC= 1.00D+00 BMatC= 7.33D-05 BMatP= 6.16D-05
 IDIUse=1 WtCom= 1.00D+00 WtEn= 0.00D+00
 Large coefficients: NSaved=  5 BigCof=   12.74 CofMax=   10.00 Det=-2.78D-09
 Inversion failed.  Reducing to  4 matrices.
 Large coefficients: NSaved=  4 BigCof=   12.28 CofMax=   10.00 Det=-2.78D-09
 Inversion failed.  Reducing to  3 matrices.
 Coeff-Com:  0.281D+01-0.150D+01-0.305D+00
 Coeff:      0.281D+01-0.150D+01-0.305D+00
 Gap=     0.228 Goal=   None    Shift=    0.500
 Gap=     0.076 Goal=   None    Shift=    0.500
 GapD=    0.076 DampG=0.500 DampE=1.000 DampFc=0.5000 IDamp=-1.
 Damping current iteration by 5.00D-01
 RMSDP=1.60D-05 MaxDP=1.09D-03 DE=-6.13D-05 OVMax= 4.87D-03

 Cycle  19  Pass 1  IDiag  1:
 E= -1775.96763662974     Delta-E=       -0.000056202050 Rises=F Damp=T
 DIIS: error= 1.75D-03 at cycle  19 NSaved=   4.
 NSaved= 4 IEnMin= 4 EnMin= -1775.96763662974     IErMin= 4 ErrMin= 1.75D-03
 ErrMax= 1.75D-03  0.00D+00 EMaxC= 1.00D+00 BMatC= 8.19D-05 BMatP= 6.35D-05
 IDIUse=1 WtCom= 1.00D+00 WtEn= 0.00D+00
 Coeff-Com:  0.411D+01-0.901D+00-0.495D+01 0.274D+01
 Coeff:      0.411D+01-0.901D+00-0.495D+01 0.274D+01
 Gap=     0.228 Goal=   None    Shift=    0.500
 Gap=     0.076 Goal=   None    Shift=    0.500
 GapD=    0.076 DampG=0.500 DampE=1.000 DampFc=0.5000 IDamp=-1.
 Damping current iteration by 5.00D-01
 RMSDP=1.35D-05 MaxDP=8.19D-04 DE=-5.62D-05 OVMax= 3.82D-03

 Cycle  20  Pass 1  IDiag  1:
 E= -1775.96768282441     Delta-E=       -0.000046194668 Rises=F Damp=T
 DIIS: error= 1.73D-03 at cycle  20 NSaved=   5.
 NSaved= 5 IEnMin= 5 EnMin= -1775.96768282441     IErMin= 5 ErrMin= 1.73D-03
 ErrMax= 1.73D-03  0.00D+00 EMaxC= 1.00D+00 BMatC= 9.43D-05 BMatP= 6.35D-05
 IDIUse=1 WtCom= 1.00D+00 WtEn= 0.00D+00
 Coeff-Com:  0.343D+01-0.736D+00-0.451D+01 0.380D+01-0.983D+00
 Coeff:      0.343D+01-0.736D+00-0.451D+01 0.380D+01-0.983D+00
 Gap=     0.228 Goal=   None    Shift=    0.500
 Gap=     0.076 Goal=   None    Shift=    0.500
 GapD=    0.076 DampG=0.500 DampE=1.000 DampFc=0.5000 IDamp=-1.
 Damping current iteration by 5.00D-01
 RMSDP=1.21D-05 MaxDP=7.64D-04 DE=-4.62D-05 OVMax= 3.64D-03

 Cycle  21  Pass 1  IDiag  1:
 E= -1775.96772419578     Delta-E=       -0.000041371373 Rises=F Damp=T
 DIIS: error= 1.71D-03 at cycle  21 NSaved=   6.
 NSaved= 6 IEnMin= 6 EnMin= -1775.96772419578     IErMin= 6 ErrMin= 1.71D-03
 ErrMax= 1.71D-03  0.00D+00 EMaxC= 1.00D+00 BMatC= 1.06D-04 BMatP= 6.35D-05
 IDIUse=1 WtCom= 1.00D+00 WtEn= 0.00D+00
 Large coefficients: NSaved=  6 BigCof=   11.22 CofMax=   10.00 Det=-1.61D-09
 Inversion failed.  Reducing to  5 matrices.
 Coeff-Com: -0.202D+00 0.253D+01-0.276D+01 0.584D+01-0.440D+01
 Coeff:     -0.202D+00 0.253D+01-0.276D+01 0.584D+01-0.440D+01
 Gap=     0.229 Goal=   None    Shift=    0.500
 Gap=     0.077 Goal=   None    Shift=    0.500
 GapD=    0.077 DampG=0.500 DampE=1.000 DampFc=0.5000 IDamp=-1.
 Damping current iteration by 5.00D-01
 RMSDP=1.29D-05 MaxDP=9.04D-04 DE=-4.14D-05 OVMax= 3.88D-03

 Cycle  22  Pass 1  IDiag  1:
 E= -1775.96776679609     Delta-E=       -0.000042600304 Rises=F Damp=T
 DIIS: error= 1.70D-03 at cycle  22 NSaved=   6.
 NSaved= 6 IEnMin= 6 EnMin= -1775.96776679609     IErMin= 6 ErrMin= 1.70D-03
 ErrMax= 1.70D-03  0.00D+00 EMaxC= 1.00D+00 BMatC= 1.15D-04 BMatP= 6.76D-05
 IDIUse=1 WtCom= 1.00D+00 WtEn= 0.00D+00
 Large coefficients: NSaved=  6 BigCof=   37.70 CofMax=   10.00 Det=-8.67D-10
 Inversion failed.  Reducing to  5 matrices.
 Large coefficients: NSaved=  5 BigCof=   38.05 CofMax=   10.00 Det=-7.41D-10
 Inversion failed.  Reducing to  4 matrices.
 Coeff-Com:  0.307D+01 0.452D+00-0.272D+01 0.200D+00
 Coeff:      0.307D+01 0.452D+00-0.272D+01 0.200D+00
 Gap=     0.229 Goal=   None    Shift=    0.500
 Gap=     0.077 Goal=   None    Shift=    0.500
 GapD=    0.077 DampG=0.500 DampE=1.000 DampFc=0.5000 IDamp=-1.
 Damping current iteration by 5.00D-01
 RMSDP=1.41D-05 MaxDP=1.06D-03 DE=-4.26D-05 OVMax= 3.87D-03

 Cycle  23  Pass 1  IDiag  1:
 E= -1775.96781057054     Delta-E=       -0.000043774448 Rises=F Damp=T
 DIIS: error= 1.70D-03 at cycle  23 NSaved=   5.
 NSaved= 5 IEnMin= 5 EnMin= -1775.96781057054     IErMin= 5 ErrMin= 1.70D-03
 ErrMax= 1.70D-03  0.00D+00 EMaxC= 1.00D+00 BMatC= 1.22D-04 BMatP= 8.19D-05
 IDIUse=1 WtCom= 1.00D+00 WtEn= 0.00D+00
 Large coefficients: NSaved=  5 BigCof=   10.02 CofMax=   10.00 Det=-7.47D-10
 Inversion failed.  Reducing to  4 matrices.
 Coeff-Com:  0.796D+01-0.755D+01-0.353D+00 0.942D+00
 Coeff:      0.796D+01-0.755D+01-0.353D+00 0.942D+00
 Gap=     0.229 Goal=   None    Shift=    0.500
 Gap=     0.077 Goal=   None    Shift=    0.500
 GapD=    0.077 DampG=0.500 DampE=1.000 DampFc=0.5000 IDamp=-1.
 Damping current iteration by 5.00D-01
 RMSDP=1.35D-05 MaxDP=1.05D-03 DE=-4.38D-05 OVMax= 3.52D-03

 Cycle  24  Pass 1  IDiag  1:
 E= -1775.96785242815     Delta-E=       -0.000041857616 Rises=F Damp=T
 DIIS: error= 1.69D-03 at cycle  24 NSaved=   5.
 NSaved= 5 IEnMin= 5 EnMin= -1775.96785242815     IErMin= 5 ErrMin= 1.69D-03
 ErrMax= 1.69D-03  0.00D+00 EMaxC= 1.00D+00 BMatC= 1.29D-04 BMatP= 9.43D-05
 IDIUse=1 WtCom= 1.00D+00 WtEn= 0.00D+00
 Large coefficients: NSaved=  5 BigCof=   35.31 CofMax=   10.00 Det=-3.45D-10
 Inversion failed.  Reducing to  4 matrices.
 Large coefficients: NSaved=  4 BigCof=   83.68 CofMax=   10.00 Det=-1.63D-09
 Inversion failed.  Reducing to  3 matrices.
 Large coefficients: NSaved=  3 BigCof=   11.50 CofMax=   10.00 Det=-4.21D-09
 Inversion failed.  Reducing to  2 matrices.
 Large coefficients: NSaved=  2 BigCof=   13.13 CofMax=   10.00 Det=-2.86D-07
 Coeff-Com:  0.131D+02-0.121D+02
 Coeff:      0.131D+02-0.121D+02
 Gap=     0.228 Goal=   None    Shift=    0.500
 Gap=     0.077 Goal=   None    Shift=    0.500
 GapD=    0.077 DampG=0.500 DampE=1.000 DampFc=0.5000 IDamp=-1.
 Damping current iteration by 5.00D-01
 RMSDP=9.67D-06 MaxDP=4.84D-04 DE=-4.19D-05 OVMax= 1.16D-03

 Cycle  25  Pass 1  IDiag  1:
 E= -1775.96787385476     Delta-E=       -0.000021426607 Rises=F Damp=T
 DIIS: error= 1.67D-03 at cycle  25 NSaved=   3.
 NSaved= 3 IEnMin= 3 EnMin= -1775.96787385476     IErMin= 3 ErrMin= 1.67D-03
 ErrMax= 1.67D-03  0.00D+00 EMaxC= 1.00D+00 BMatC= 1.39D-04 BMatP= 1.22D-04
 IDIUse=1 WtCom= 1.00D+00 WtEn= 0.00D+00
 Large coefficients: NSaved=  3 BigCof=   20.87 CofMax=   10.00 Det=-8.42D-08
 Inversion failed.  Reducing to  2 matrices.
 Coeff-Com:  0.302D+01-0.202D+01
 Coeff:      0.302D+01-0.202D+01
 Gap=     0.234 Goal=   None    Shift=    0.500
 Gap=     0.079 Goal=   None    Shift=    0.500
 GapD=    0.079 DampG=0.500 DampE=1.000 DampFc=0.5000 IDamp=-1.
 Damping current iteration by 5.00D-01
 RMSDP=3.97D-05 MaxDP=6.31D-03 DE=-2.14D-05 OVMax= 6.72D-03

 Cycle  26  Pass 1  IDiag  1:
 E= -1775.96794073448     Delta-E=       -0.000066879717 Rises=F Damp=T
 DIIS: error= 1.77D-03 at cycle  26 NSaved=   3.
 NSaved= 3 IEnMin= 3 EnMin= -1775.96794073448     IErMin= 2 ErrMin= 1.67D-03
 ErrMax= 1.77D-03  0.00D+00 EMaxC= 1.00D+00 BMatC= 9.27D-05 BMatP= 1.29D-04
 IDIUse=1 WtCom= 1.00D+00 WtEn= 0.00D+00
 Coeff-Com:  0.233D+01-0.305D+01 0.172D+01
 Coeff:      0.233D+01-0.305D+01 0.172D+01
 Gap=     0.233 Goal=   None    Shift=    0.500
 Gap=     0.078 Goal=   None    Shift=    0.500
 GapD=    0.078 DampG=0.500 DampE=1.000 DampFc=0.5000 IDamp=-1.
 Damping current iteration by 5.00D-01
 RMSDP=4.02D-05 MaxDP=5.88D-03 DE=-6.69D-05 OVMax= 7.85D-03

 Cycle  27  Pass 1  IDiag  1:
 E= -1775.96802099951     Delta-E=       -0.000080265037 Rises=F Damp=T
 DIIS: error= 1.82D-03 at cycle  27 NSaved=   4.
 NSaved= 4 IEnMin= 4 EnMin= -1775.96802099951     IErMin= 2 ErrMin= 1.67D-03
 ErrMax= 1.82D-03  0.00D+00 EMaxC= 1.00D+00 BMatC= 8.25D-05 BMatP= 9.27D-05
 IDIUse=1 WtCom= 1.00D+00 WtEn= 0.00D+00
 Coeff-Com:  0.169D+01-0.209D+01-0.194D+00 0.160D+01
 Coeff:      0.169D+01-0.209D+01-0.194D+00 0.160D+01
 Gap=     0.234 Goal=   None    Shift=    0.500
 Gap=     0.078 Goal=   None    Shift=    0.500
 GapD=    0.078 DampG=0.500 DampE=1.000 DampFc=0.5000 IDamp=-1.
 Damping current iteration by 5.00D-01
 RMSDP=4.03D-05 MaxDP=5.35D-03 DE=-8.03D-05 OVMax= 8.37D-03

 Cycle  28  Pass 1  IDiag  1:
 E= -1775.96811273838     Delta-E=       -0.000091738869 Rises=F Damp=T
 DIIS: error= 1.86D-03 at cycle  28 NSaved=   5.
 NSaved= 5 IEnMin= 5 EnMin= -1775.96811273838     IErMin= 2 ErrMin= 1.67D-03
 ErrMax= 1.86D-03  0.00D+00 EMaxC= 1.00D+00 BMatC= 7.92D-05 BMatP= 8.25D-05
 IDIUse=1 WtCom= 1.00D+00 WtEn= 0.00D+00
 Large coefficients: NSaved=  5 BigCof=   10.12 CofMax=   10.00 Det=-2.03D-08
 Inversion failed.  Reducing to  4 matrices.
 Coeff-Com: -0.403D+00-0.123D+00-0.779D+00 0.230D+01
 Coeff:     -0.403D+00-0.123D+00-0.779D+00 0.230D+01
 Gap=     0.236 Goal=   None    Shift=    0.500
 Gap=     0.078 Goal=   None    Shift=    0.500
 GapD=    0.078 DampG=0.500 DampE=1.000 DampFc=0.5000 IDamp=-1.
 Damping current iteration by 5.00D-01
 RMSDP=4.88D-05 MaxDP=6.49D-03 DE=-9.17D-05 OVMax= 1.03D-02

 Cycle  29  Pass 1  IDiag  1:
 E= -1775.96822280269     Delta-E=       -0.000110064305 Rises=F Damp=T
 DIIS: error= 1.91D-03 at cycle  29 NSaved=   5.
 NSaved= 5 IEnMin= 5 EnMin= -1775.96822280269     IErMin= 1 ErrMin= 1.67D-03
 ErrMax= 1.91D-03  0.00D+00 EMaxC= 1.00D+00 BMatC= 7.49D-05 BMatP= 7.92D-05
 IDIUse=1 WtCom= 1.00D+00 WtEn= 0.00D+00
 Coeff-Com:  0.221D+00-0.293D+01 0.816D+01-0.761D+01 0.316D+01
 Coeff:      0.221D+00-0.293D+01 0.816D+01-0.761D+01 0.316D+01
 Gap=     0.235 Goal=   None    Shift=    0.500
 Gap=     0.078 Goal=   None    Shift=    0.500
 GapD=    0.078 DampG=0.500 DampE=1.000 DampFc=0.5000 IDamp=-1.
 Damping current iteration by 5.00D-01
 RMSDP=3.38D-05 MaxDP=3.56D-03 DE=-1.10D-04 OVMax= 7.23D-03

 Cycle  30  Pass 1  IDiag  1:
 E= -1775.96832389297     Delta-E=       -0.000101090280 Rises=F Damp=T
 DIIS: error= 1.92D-03 at cycle  30 NSaved=   6.
 NSaved= 6 IEnMin= 6 EnMin= -1775.96832389297     IErMin= 1 ErrMin= 1.67D-03
 ErrMax= 1.92D-03  0.00D+00 EMaxC= 1.00D+00 BMatC= 7.87D-05 BMatP= 7.49D-05
 IDIUse=1 WtCom= 1.00D+00 WtEn= 0.00D+00
 Large coefficients: NSaved=  6 BigCof=   11.99 CofMax=   10.00 Det=-9.04D-09
 Inversion failed.  Reducing to  5 matrices.
 Coeff-Com:  0.213D+01-0.550D+01 0.287D+01 0.662D+01-0.511D+01
 Coeff:      0.213D+01-0.550D+01 0.287D+01 0.662D+01-0.511D+01
 Gap=     0.233 Goal=   None    Shift=    0.500
 Gap=     0.078 Goal=   None    Shift=    0.500
 GapD=    0.078 DampG=0.500 DampE=1.000 DampFc=0.5000 IDamp=-1.
 Damping current iteration by 5.00D-01
 RMSDP=1.83D-05 MaxDP=1.04D-03 DE=-1.01D-04 OVMax= 3.33D-03

 Cycle  31  Pass 1  IDiag  1:
 E= -1775.96838972009     Delta-E=       -0.000065827127 Rises=F Damp=T
 DIIS: error= 1.86D-03 at cycle  31 NSaved=   6.
 NSaved= 6 IEnMin= 6 EnMin= -1775.96838972009     IErMin= 1 ErrMin= 1.77D-03
 ErrMax= 1.86D-03  0.00D+00 EMaxC= 1.00D+00 BMatC= 9.76D-05 BMatP= 7.49D-05
 IDIUse=1 WtCom= 1.00D+00 WtEn= 0.00D+00
 Large coefficients: NSaved=  6 BigCof=   15.13 CofMax=   10.00 Det=-1.45D-08
 Inversion failed.  Reducing to  5 matrices.
 Large coefficients: NSaved=  5 BigCof=   11.72 CofMax=   10.00 Det=-1.97D-08
 Inversion failed.  Reducing to  4 matrices.
 Large coefficients: NSaved=  4 BigCof=   11.77 CofMax=   10.00 Det=-2.02D-08
 Inversion failed.  Reducing to  3 matrices.
 Coeff-Com:  0.339D+01-0.214D+01-0.257D+00
 Coeff:      0.339D+01-0.214D+01-0.257D+00
 Gap=     0.233 Goal=   None    Shift=    0.500
 Gap=     0.078 Goal=   None    Shift=    0.500
 GapD=    0.078 DampG=0.500 DampE=1.000 DampFc=0.5000 IDamp=-1.
 Damping current iteration by 5.00D-01
 RMSDP=1.48D-05 MaxDP=1.20D-03 DE=-6.58D-05 OVMax= 3.47D-03

 Cycle  32  Pass 1  IDiag  1:
 E= -1775.96843834991     Delta-E=       -0.000048629818 Rises=F Damp=T
 DIIS: error= 1.82D-03 at cycle  32 NSaved=   4.
 NSaved= 4 IEnMin= 4 EnMin= -1775.96843834991     IErMin= 4 ErrMin= 1.82D-03
 ErrMax= 1.82D-03  0.00D+00 EMaxC= 1.00D+00 BMatC= 1.20D-04 BMatP= 7.49D-05
 IDIUse=1 WtCom= 1.00D+00 WtEn= 0.00D+00
 Coeff-Com:  0.362D+01-0.196D+01-0.126D+01 0.603D+00
 Coeff:      0.362D+01-0.196D+01-0.126D+01 0.603D+00
 Gap=     0.233 Goal=   None    Shift=    0.500
 Gap=     0.078 Goal=   None    Shift=    0.500
 GapD=    0.078 DampG=0.500 DampE=1.000 DampFc=0.5000 IDamp=-1.
 Damping current iteration by 5.00D-01
 RMSDP=1.21D-05 MaxDP=1.10D-03 DE=-4.86D-05 OVMax= 2.77D-03

 >>>>>>>>>> Convergence criterion not met.
 SCF Done:  E(ULC-wHPBE) =  -1775.96843835     A.U. after   33 cycles
            NFock= 32  Conv=0.12D-04     -V/T= 2.0037
 <Sx>= 0.0000 <Sy>= 0.0000 <Sz>= 0.5000 <S**2>= 0.7591 S= 0.5046
 <L.S>= 0.000000000000E+00
 KE= 1.769462811828D+03 PE=-9.093222705819D+03 EE= 3.073106688281D+03
 Annihilation of the first spin contaminant:
 S**2 before annihilation     0.7591,   after     0.7500
 Leave Link  502 at Tue Jan 19 00:37:39 2021, MaxMem=  4026531840 cpu:           15266.0 elap:            1919.9
 (Enter /opt/ohpc/pub/libs/gaussian/g16-A.03/sandybridge/g16/l508.exe)
 Integral symmetry usage will be decided dynamically.
 Tight linear equation convergence will be used.
 ULC-wHPBE wavefunction.
 Quadratic Convergence SCF Method.
 Line search only if initial step raises energy.
 FoFJK:  IHMeth= 1 ICntrl=       0 DoSepK=T KAlg= 0 I1Cent=           0 FoldK=F
 IRaf=         1 NMat=       1 IRICut=       1 DoRegI=T DoRafI=F ISym2E= 1 IDoP0=0 IntGTp=1.
 FoFCou: FMM=F IPFlag=           0 FMFlag=      100000 FMFlg1=           0
         NFxFlg=           0 DoJE=T BraDBF=F KetDBF=F FulRan=T
         wScrn=  0.000000 ICntrl=       500 IOpCl=  0 I1Cent=           0 NGrid=           0
         NMat0=    1 NMatS0=      1 NMatT0=    0 NMatD0=    1 NMtDS0=    0 NMtDT0=    0
 Petite list used in FoFCou.
 Iteration   1 EE= -1775.96851068556                                    Grad=9.245D-03 Max rot=    0.2643 deg.
 QCNR:  CnvC1=9.24D-08 CnvC2=9.24D-07
 LinEq1:  Iter=  0 NonCon=     1 RMS=1.83D-04 Max=5.74D-02 NDo=     1
 AX will form     1 AO Fock derivatives at one time.
 LinEq1:  Iter=  1 NonCon=     1 RMS=3.21D-05 Max=2.38D-03 NDo=     1
 LinEq1:  Iter=  2 NonCon=     1 RMS=2.10D-05 Max=3.56D-03 NDo=     1
 LinEq1:  Iter=  3 NonCon=     1 RMS=1.66D-05 Max=2.50D-03 NDo=     1
 LinEq1:  Iter=  4 NonCon=     1 RMS=8.63D-06 Max=1.00D-03 NDo=     1
 LinEq1:  Iter=  5 NonCon=     1 RMS=6.32D-06 Max=6.31D-04 NDo=     1
 LinEq1:  Iter=  6 NonCon=     1 RMS=3.88D-06 Max=5.38D-04 NDo=     1
 LinEq1:  Iter=  7 NonCon=     1 RMS=2.52D-06 Max=3.02D-04 NDo=     1
 LinEq1:  Iter=  8 NonCon=     1 RMS=1.29D-06 Max=7.07D-05 NDo=     1
 LinEq1:  Iter=  9 NonCon=     1 RMS=6.84D-07 Max=3.78D-05 NDo=     1
 LinEq1:  Iter= 10 NonCon=     1 RMS=4.20D-07 Max=2.23D-05 NDo=     1
 LinEq1:  Iter= 11 NonCon=     1 RMS=2.06D-07 Max=1.26D-05 NDo=     1
 LinEq1:  Iter= 12 NonCon=     1 RMS=1.27D-07 Max=9.27D-06 NDo=     1
 LinEq1:  Iter= 13 NonCon=     1 RMS=6.89D-08 Max=4.75D-06 NDo=     1
 LinEq1:  Iter= 14 NonCon=     1 RMS=4.30D-08 Max=2.82D-06 NDo=     1
 LinEq1:  Iter= 15 NonCon=     1 RMS=2.75D-08 Max=1.52D-06 NDo=     1
 LinEq1:  Iter= 16 NonCon=     0 RMS=1.24D-08 Max=6.98D-07 NDo=     1
 Linear equations converged to 9.245D-08 9.245D-07 after    16 iterations.
 Angle between quadratic step and gradient= 129.89 degrees.
 Incorrect curvature in search direction -- initial direction reversed.
     ILin= 1 X=0.000D+00 Y=-1.775968510686D+03 DE= 0.00D+00 F= -1.23D-02
     ILin= 2 X=8.000D-01 Y=-1.775976636262D+03 DE=-8.13D-03 F= -6.56D-03
     Reject lnstep minimum 1.796D+00 FVal=-1.775982912491D+03 Lims=  0.00D+00  8.00D-01
     ILin= 3 X=1.100D+00 Y=-1.775978976246D+03 DE=-1.05D-02 F= -7.75D-03
     Note:  rotation exceeds Pi/2.
     ILin= 4 X=1.600D+00 Y=-1.775970275062D+03 DE=-1.76D-03 F=  6.74D-02
     An  expanding polynomial of degree  4 produced  1.1194
     Minimum is close to point  3 DX=  1.94D-02 DF= -1.08D-05 DXR=  1.73D-02 DFR=  1.03D-03 which will be used.
 Iteration   2 EE= -1775.97897624599     Delta-E=       -0.010465560425 Grad=6.951D-02 Max rot=    0.3651 deg.
 Gradient too large for Newton-Raphson -- use scaled steepest descent instead.
     ILin= 1 X=0.000D+00 Y=-1.775978976246D+03 DE= 0.00D+00 F= -7.28D-03
     ILin= 2 X=3.000D-01 Y=-1.775980791868D+03 DE=-1.82D-03 F= -4.82D-03
     ILin= 3 X=6.000D-01 Y=-1.775981868840D+03 DE=-2.89D-03 F= -2.36D-03
     ILin= 4 X=1.200D+00 Y=-1.775981804902D+03 DE=-2.83D-03 F=  2.57D-03
     An  expanding polynomial of degree  4 produced  0.8871
 Iteration   3 EE= -1775.98220735143     Delta-E=       -0.003231105448 Grad=2.597D-02 Max rot=    0.1835 deg.
 Gradient too large for Newton-Raphson -- use scaled steepest descent instead.
     ILin= 1 X=0.000D+00 Y=-1.775982207351D+03 DE= 0.00D+00 F= -8.84D-04
     ILin= 2 X=5.000D-01 Y=-1.775982560334D+03 DE=-3.53D-04 F= -5.28D-04
     ILin= 3 X=1.000D+00 Y=-1.775982735774D+03 DE=-5.28D-04 F= -1.73D-04
     ILin= 4 X=2.100D+00 Y=-1.775982497584D+03 DE=-2.90D-04 F=  6.06D-04
     An  expanding polynomial of degree  4 produced  1.2445
 Iteration   4 EE= -1775.98275697501     Delta-E=       -0.000549623577 Grad=1.837D-02 Max rot=    0.1345 deg.
 Gradient too large for Newton-Raphson -- use scaled steepest descent instead.
     ILin= 1 X=0.000D+00 Y=-1.775982756975D+03 DE= 0.00D+00 F= -4.57D-04
     ILin= 2 X=1.100D+00 Y=-1.775982975674D+03 DE=-2.19D-04 F=  5.93D-05
     Accept linear search using points  1 and  2.
     An  expanding polynomial of degree  2 produced  0.9962
 Iteration   5 EE= -1775.98297929712     Delta-E=       -0.000222322109 Grad=1.108D-02 Max rot=    0.1431 deg.
 Gradient too large for Newton-Raphson -- use scaled steepest descent instead.
     ILin= 1 X=0.000D+00 Y=-1.775982979297D+03 DE= 0.00D+00 F= -1.94D-04
     ILin= 2 X=1.100D+00 Y=-1.775983096978D+03 DE=-1.18D-04 F= -1.96D-05
     Reject lnstep minimum 1.187D+00 FVal=-1.775983097760D+03 Lims=  0.00D+00  1.10D+00
     ILin= 3 X=2.200D+00 Y=-1.775983022693D+03 DE=-4.34D-05 F=  1.55D-04
     An  expanding polynomial of degree  3 produced  1.2243
 Iteration   6 EE= -1775.98309819407     Delta-E=       -0.000118896953 Grad=9.831D-03 Max rot=    0.0788 deg.
 QCNR:  CnvC1=9.83D-08 CnvC2=9.83D-07
 LinEq1:  Iter=  0 NonCon=     1 RMS=6.09D-05 Max=7.93D-03 NDo=     1
 LinEq1:  Iter=  1 NonCon=     1 RMS=6.12D-05 Max=6.11D-03 NDo=     1
 LinEq1:  Iter=  2 NonCon=     1 RMS=1.96D-05 Max=2.38D-03 NDo=     1
 LinEq1:  Iter=  3 NonCon=     1 RMS=1.82D-05 Max=1.60D-03 NDo=     1
 LinEq1:  Iter=  4 NonCon=     1 RMS=6.71D-06 Max=7.92D-04 NDo=     1
 LinEq1:  Iter=  5 NonCon=     1 RMS=4.74D-06 Max=3.86D-04 NDo=     1
 LinEq1:  Iter=  6 NonCon=     1 RMS=2.55D-06 Max=2.05D-04 NDo=     1
 LinEq1:  Iter=  7 NonCon=     1 RMS=1.68D-06 Max=1.18D-04 NDo=     1
 LinEq1:  Iter=  8 NonCon=     1 RMS=9.14D-07 Max=6.68D-05 NDo=     1
 LinEq1:  Iter=  9 NonCon=     1 RMS=4.95D-07 Max=3.10D-05 NDo=     1
 LinEq1:  Iter= 10 NonCon=     1 RMS=3.05D-07 Max=2.06D-05 NDo=     1
 LinEq1:  Iter= 11 NonCon=     1 RMS=1.71D-07 Max=1.03D-05 NDo=     1
 LinEq1:  Iter= 12 NonCon=     1 RMS=1.10D-07 Max=4.67D-06 NDo=     1
 LinEq1:  Iter= 13 NonCon=     1 RMS=5.48D-08 Max=2.62D-06 NDo=     1
 LinEq1:  Iter= 14 NonCon=     1 RMS=3.20D-08 Max=1.43D-06 NDo=     1
 LinEq1:  Iter= 15 NonCon=     0 RMS=1.59D-08 Max=9.47D-07 NDo=     1
 Linear equations converged to 9.831D-08 9.831D-07 after    15 iterations.
 Angle between quadratic step and gradient=  58.52 degrees.
     ILin= 1 X=0.000D+00 Y=-1.775983098194D+03 DE= 0.00D+00 F= -4.55D-04
     ILin= 2 X=1.000D+00 Y=-1.775983323552D+03 DE=-2.25D-04
 Iteration   7 EE= -1775.98332355242     Delta-E=       -0.000225358343 Grad=2.775D-04 Max rot=    0.0020 deg.
 Rotation gradient small -- convergence achieved.
 SCF Done:  E(ULC-wHPBE) =  -1775.98332355     a.u. after    7 cycles
            Convg  =    0.2775D-03                    49 Fock formations.
              S**2 =  0.7709                  -V/T =  2.0037
 <Sx>= 0.0000 <Sy>= 0.0000 <Sz>= 0.5000 <S**2>= 0.7709 S= 0.5104
 <L.S>= 0.000000000000E+00
 Annihilation of the first spin contaminant:
 S**2 before annihilation     0.7709,   after     0.7504
 Leave Link  508 at Tue Jan 19 01:24:30 2021, MaxMem=  4026531840 cpu:           22350.5 elap:            2810.7
 (Enter /opt/ohpc/pub/libs/gaussian/g16-A.03/sandybridge/g16/l601.exe)
 Copying SCF densities to generalized density rwf, IOpCl= 1 IROHF=0.

 **********************************************************************

            Population analysis using the SCF density.

 **********************************************************************

 Orbital symmetries:
 Alpha Orbitals:
       Occupied  (A) (A) (A) (A) (A) (A) (A) (A) (A) (A) (A) (A)
                 (A) (A) (A) (A) (A) (A) (A) (A) (A) (A) (A) (A)
                 (A) (A) (A) (A) (A) (A) (A) (A) (A) (A) (A) (A)
                 (A) (A) (A) (A) (A) (A) (A) (A) (A) (A) (A) (A)
                 (A) (A) (A) (A) (A) (A) (A) (A) (A) (A) (A) (A)
                 (A) (A) (A) (A) (A) (A) (A) (A) (A) (A) (A) (A)
                 (A) (A) (A) (A) (A) (A) (A) (A) (A) (A) (A) (A)
                 (A) (A) (A) (A) (A) (A) (A) (A) (A) (A) (A) (A)
                 (A) (A) (A) (A) (A)
       Virtual   (A) (A) (A) (A) (A) (A) (A) (A) (A) (A) (A) (A)
                 (A) (A) (A) (A) (A) (A) (A) (A) (A) (A) (A) (A)
                 (A) (A) (A) (A) (A) (A) (A) (A) (A) (A) (A) (A)
                 (A) (A) (A) (A) (A) (A) (A) (A) (A) (A) (A) (A)
                 (A) (A) (A) (A) (A) (A) (A) (A) (A) (A) (A) (A)
                 (A) (A) (A) (A) (A) (A) (A) (A) (A) (A) (A) (A)
                 (A) (A) (A) (A) (A) (A) (A) (A) (A) (A) (A) (A)
                 (A) (A) (A) (A) (A) (A) (A) (A) (A) (A) (A) (A)
                 (A) (A) (A) (A) (A) (A) (A) (A) (A) (A) (A) (A)
                 (A) (A) (A) (A) (A) (A) (A) (A) (A) (A) (A) (A)
                 (A) (A) (A) (A) (A) (A) (A) (A) (A) (A) (A) (A)
                 (A) (A) (A) (A) (A) (A) (A) (A) (A) (A) (A) (A)
                 (A) (A) (A) (A) (A) (A) (A) (A) (A) (A) (A) (A)
                 (A) (A) (A) (A) (A) (A) (A) (A) (A) (A) (A) (A)
                 (A) (A) (A) (A) (A) (A) (A) (A) (A) (A) (A) (A)
                 (A) (A) (A) (A) (A) (A) (A) (A) (A) (A) (A) (A)
                 (A) (A) (A) (A) (A) (A) (A) (A) (A) (A) (A) (A)
                 (A) (A) (A) (A) (A) (A) (A) (A) (A) (A) (A) (A)
                 (A) (A) (A) (A) (A) (A) (A) (A) (A) (A) (A) (A)
                 (A) (A) (A) (A) (A) (A) (A) (A) (A) (A) (A) (A)
[...]
     5   Atom        0.029834     -0.013845     -0.015989
     6   Atom       -0.074936      0.027782      0.047154
     7   Atom        0.000775     -0.000802      0.000027
     8   Atom        0.000874     -0.000732     -0.000141
     9   Atom        0.000561     -0.000320     -0.000241
    10   Atom       -0.052080      0.068708     -0.016628
    11   Atom        0.025149     -0.010748     -0.014401
    12   Atom       -0.063185      0.073353     -0.010169
    13   Atom        0.015123     -0.024586      0.009463
    14   Atom       -0.003029      0.002174      0.000855
    15   Atom        0.001792     -0.001565     -0.000226
    16   Atom       -0.004004      0.001151      0.002853
    17   Atom       -0.000988      0.000554      0.000435
    18   Atom        0.001135     -0.000450     -0.000685
    19   Atom        0.001907     -0.001119     -0.000788
    20   Atom        0.000314     -0.000143     -0.000171
    21   Atom        0.000432     -0.000247     -0.000185
    22   Atom        0.000175     -0.000160     -0.000015
    23   Atom       -0.004370     -0.006553      0.010923
    24   Atom       -0.475799     -0.480090      0.955889
    25   Atom       -0.013529      0.001511      0.012018
    26   Atom        0.063945     -0.040124     -0.023821
    27   Atom        0.023129     -0.003388     -0.019741
    28   Atom       -0.003633      0.015218     -0.011584
    29   Atom       -0.010088      0.019034     -0.008946
    30   Atom        0.017409     -0.049587      0.032178
    31   Atom       -0.001384      0.001340      0.000044
    32   Atom       -0.000916     -0.000810      0.001725
    33   Atom       -0.000768      0.001418     -0.000650
    34   Atom       -0.000236      0.000501     -0.000264
    35   Atom        0.000914      0.002788     -0.003702
    36   Atom       -0.013226      0.009514      0.003712
    37   Atom        0.032201     -0.053423      0.021223
    38   Atom        0.004629     -0.029176      0.024546
    39   Atom        0.008995      0.020624     -0.029619
    40   Atom        0.005945      0.022982     -0.028927
    41   Atom       -0.030815     -0.058035      0.088850
    42   Atom        0.002303      0.000009     -0.002312
    43   Atom        0.003474     -0.001926     -0.001548
    44   Atom       -0.000464      0.001906     -0.001442
    45   Atom        0.000209      0.001166     -0.001375
    46   Atom       -0.003637      0.006045     -0.002408
 --------------------------------------------------------
                        XY            XZ            YZ
 --------------------------------------------------------
     1   Atom       -0.001698      0.002439      0.000605
     2   Atom       -0.012345     -0.006524      0.009288
     3   Atom        0.032024     -0.005325     -0.016846
     4   Atom        0.001594     -0.002330     -0.002136
     5   Atom        0.010694      0.009520     -0.040203
     6   Atom       -0.031945     -0.034288      0.129414
     7   Atom       -0.000302     -0.000492      0.001041
     8   Atom       -0.000230     -0.000929      0.001326
     9   Atom       -0.000006     -0.000004      0.000009
    10   Atom       -0.054195     -0.029870      0.084593
    11   Atom        0.014632      0.016950     -0.038095
    12   Atom       -0.015484     -0.013484      0.086125
    13   Atom        0.007196      0.003363     -0.009683
    14   Atom        0.002236     -0.003395     -0.006298
    15   Atom       -0.000267      0.001587     -0.001815
    16   Atom       -0.001125      0.002532     -0.005926
    17   Atom        0.000005     -0.000669     -0.001821
    18   Atom       -0.001226     -0.001681      0.002173
    19   Atom        0.001691     -0.000167     -0.001688
    20   Atom       -0.000328     -0.000447      0.000401
    21   Atom       -0.000076     -0.000169      0.000108
    22   Atom       -0.000253     -0.000372      0.000165
    23   Atom       -0.001098      0.003193     -0.001085
    24   Atom       -0.054709     -0.291355      0.278738
    25   Atom       -0.018272      0.006448      0.005011
    26   Atom        0.042601     -0.052867     -0.022223
    27   Atom        0.060596     -0.054548     -0.038449
    28   Atom       -0.014699      0.027941      0.012768
    29   Atom       -0.012326      0.030303      0.008574
    30   Atom        0.028613     -0.087912     -0.035974
    31   Atom        0.002018      0.002989      0.004777
    32   Atom        0.002087      0.004582      0.002927
    33   Atom       -0.001351      0.001119      0.000548
    34   Atom       -0.001436      0.001714     -0.000013
    35   Atom       -0.006567     -0.000865     -0.004893
    36   Atom        0.010763     -0.016890      0.005804
    37   Atom       -0.011204      0.075758     -0.014248
    38   Atom       -0.038100      0.069969     -0.039003
    39   Atom        0.006803     -0.022861      0.009438
    40   Atom        0.004206     -0.026244      0.003733
    41   Atom       -0.006354      0.071867     -0.019632
    42   Atom       -0.003434     -0.003399      0.002973
    43   Atom       -0.002129     -0.004592      0.001011
    44   Atom        0.000566     -0.001136      0.000563
    45   Atom        0.001226     -0.001435      0.000015
    46   Atom        0.006370      0.002323     -0.002224
 --------------------------------------------------------


 ---------------------------------------------------------------------------------
              Anisotropic Spin Dipole Couplings in Principal Axis System
 ---------------------------------------------------------------------------------

       Atom             a.u.   MegaHertz   Gauss  10(-4) cm-1        Axes

              Baa    -0.0037    -0.497    -0.177    -0.166  0.3580  0.8318 -0.4243
     1 C(13)  Bbb    -0.0009    -0.118    -0.042    -0.039 -0.2681  0.5268  0.8066
              Bcc     0.0046     0.615     0.219     0.205  0.8944 -0.1751  0.4116
 
              Baa    -0.0117    -1.568    -0.559    -0.523 -0.0071 -0.4729  0.8811
     2 C(13)  Bbb    -0.0090    -1.202    -0.429    -0.401  0.8158  0.5068  0.2786
              Bcc     0.0206     2.770     0.988     0.924 -0.5783  0.7208  0.3822
 
              Baa    -0.0523    -2.146    -0.766    -0.716  0.9674 -0.2508  0.0339
     3 S(33)  Bbb    -0.0280    -1.147    -0.409    -0.383  0.0091  0.1684  0.9857
              Bcc     0.0803     3.293     1.175     1.098  0.2529  0.9533 -0.1652
 
              Baa    -0.0024    -0.321    -0.115    -0.107  0.2029  0.6820  0.7026
     4 C(13)  Bbb    -0.0017    -0.232    -0.083    -0.077  0.7776 -0.5483  0.3077
              Bcc     0.0041     0.553     0.197     0.185 -0.5951 -0.4839  0.6416
 
              Baa    -0.0575    -7.712    -2.752    -2.572 -0.1615  0.6899  0.7057
     5 C(13)  Bbb     0.0252     3.376     1.205     1.126  0.1399 -0.6918  0.7084
              Bcc     0.0323     4.336     1.547     1.446  0.9769  0.2131  0.0152
 
              Baa    -0.0923   -12.387    -4.420    -4.132  0.0105  0.7343 -0.6788
     6 C(13)  Bbb    -0.0837   -11.230    -4.007    -3.746  0.9829  0.1171  0.1418
              Bcc     0.1760    23.617     8.427     7.878 -0.1836  0.6687  0.7205
 
              Baa    -0.0015    -0.202    -0.072    -0.067 -0.0121  0.8258 -0.5639
     7 C(13)  Bbb     0.0002     0.024     0.008     0.008  0.6940  0.4129  0.5898
              Bcc     0.0013     0.179     0.064     0.060  0.7199 -0.3842 -0.5781
 
              Baa    -0.0019    -0.250    -0.089    -0.083 -0.1608  0.7376 -0.6558
     8 C(13)  Bbb     0.0001     0.010     0.003     0.003  0.6915  0.5583  0.4584
              Bcc     0.0018     0.240     0.086     0.080  0.7042 -0.3798 -0.5999
 
              Baa    -0.0003    -0.172    -0.061    -0.057  0.0063  0.9932 -0.1160
     9 H(1)   Bbb    -0.0002    -0.128    -0.046    -0.043  0.0063  0.1160  0.9932
              Bcc     0.0006     0.300     0.107     0.100  1.0000 -0.0069 -0.0055
 
              Baa    -0.0736    -9.871    -3.522    -3.293  0.8230  0.4872 -0.2921
    10 C(13)  Bbb    -0.0671    -8.998    -3.211    -3.001  0.4789 -0.3185  0.8180
              Bcc     0.1406    18.869     6.733     6.294 -0.3055  0.8131  0.4955
 
              Baa    -0.0568    -7.624    -2.721    -2.543 -0.2633  0.6631  0.7007
    11 C(13)  Bbb     0.0254     3.405     1.215     1.136  0.1710  0.7469 -0.6425
              Bcc     0.0314     4.220     1.506     1.408  0.9494  0.0493  0.3100
 
              Baa    -0.0680    -9.120    -3.254    -3.042  0.7654 -0.2717  0.5834
    12 C(13)  Bbb    -0.0615    -8.250    -2.944    -2.752  0.6349  0.4663 -0.6159
              Bcc     0.1294    17.370     6.198     5.794 -0.1047  0.8419  0.5294
 
              Baa    -0.0285    -3.831    -1.367    -1.278 -0.1764  0.9500  0.2576
    13 C(13)  Bbb     0.0116     1.561     0.557     0.521 -0.2679 -0.2982  0.9161
              Bcc     0.0169     2.270     0.810     0.757  0.9472  0.0926  0.3071
 
              Baa    -0.0056    -2.974    -1.061    -0.992  0.5845  0.4035  0.7040
    14 H(1)   Bbb    -0.0036    -1.896    -0.677    -0.632  0.7501 -0.5996 -0.2790
              Bcc     0.0091     4.870     1.738     1.624  0.3095  0.6911 -0.6531
 
              Baa    -0.0029    -1.570    -0.560    -0.524 -0.1613  0.7745  0.6117
    15 H(1)   Bbb    -0.0000    -0.014    -0.005    -0.005  0.5847  0.5743 -0.5730
              Bcc     0.0030     1.584     0.565     0.529  0.7951 -0.2652  0.5454
 
              Baa    -0.0051    -2.730    -0.974    -0.911  0.8031 -0.3269 -0.4982
    16 H(1)   Bbb    -0.0034    -1.832    -0.654    -0.611  0.5586  0.7039  0.4386
              Bcc     0.0085     4.562     1.628     1.522  0.2073 -0.6305  0.7480
 
              Baa    -0.0017    -0.226    -0.081    -0.075  0.5963  0.5060  0.6232
    17 C(13)  Bbb    -0.0007    -0.094    -0.033    -0.031  0.7904 -0.5056 -0.3458
              Bcc     0.0024     0.320     0.114     0.107 -0.1402 -0.6988  0.7015
 
              Baa    -0.0028    -1.490    -0.531    -0.497  0.1256 -0.6387  0.7591
    18 H(1)   Bbb    -0.0007    -0.347    -0.124    -0.116  0.7346  0.5741  0.3615
              Bcc     0.0034     1.836     0.655     0.613  0.6667 -0.5123 -0.5414
 
              Baa    -0.0029    -1.571    -0.561    -0.524 -0.2489  0.7718  0.5851
    19 H(1)   Bbb     0.0001     0.033     0.012     0.011  0.4669 -0.4336  0.7707
              Bcc     0.0029     1.538     0.549     0.513  0.8485  0.4650 -0.2525
 
              Baa    -0.0006    -0.307    -0.109    -0.102  0.1748 -0.5952  0.7843
    20 H(1)   Bbb    -0.0003    -0.136    -0.049    -0.045  0.6605  0.6617  0.3549
              Bcc     0.0008     0.443     0.158     0.148  0.7302 -0.4560 -0.5088
 
              Baa    -0.0003    -0.177    -0.063    -0.059 -0.0664  0.7639 -0.6418
    21 H(1)   Bbb    -0.0002    -0.085    -0.030    -0.028  0.2877  0.6306  0.7208
              Bcc     0.0005     0.261     0.093     0.087  0.9554 -0.1368 -0.2617
 
              Baa    -0.0003    -0.170    -0.061    -0.057  0.6704  0.4987  0.5495
    22 H(1)   Bbb    -0.0003    -0.143    -0.051    -0.048 -0.0735  0.7815 -0.6196
              Bcc     0.0006     0.312     0.111     0.104  0.7384 -0.3750 -0.5606
 
              Baa    -0.0070    -0.288    -0.103    -0.096  0.3996  0.9166 -0.0157
    23 S(33)  Bbb    -0.0046    -0.190    -0.068    -0.063  0.8947 -0.3937 -0.2110
              Bcc     0.0117     0.478     0.170     0.159  0.1996 -0.0703  0.9774
 
              Baa    -0.5329   -20.551    -7.333    -6.855  0.9556  0.2600  0.1383
    24 N(14)  Bbb    -0.5323   -20.528    -7.325    -6.848 -0.2260  0.9485 -0.2219
              Bcc     1.0651    41.080    14.658    13.703 -0.1889  0.1808  0.9652
 
              Baa    -0.0274    -3.683    -1.314    -1.229  0.8121  0.5474 -0.2022
    25 C(13)  Bbb     0.0132     1.766     0.630     0.589  0.5075 -0.4917  0.7076
              Bcc     0.0143     1.917     0.684     0.640 -0.2879  0.6772  0.6771
 
              Baa    -0.0565    -7.582    -2.705    -2.529 -0.1757  0.9227  0.3432
    26 C(13)  Bbb    -0.0482    -6.466    -2.307    -2.157  0.4837 -0.2227  0.8464
              Bcc     0.1047    14.048     5.013     4.686  0.8574  0.3147 -0.4072
 
              Baa    -0.0574    -7.709    -2.751    -2.571  0.6546 -0.2192  0.7235
    27 C(13)  Bbb    -0.0495    -6.642    -2.370    -2.216 -0.2923  0.8092  0.5097
              Bcc     0.1069    14.351     5.121     4.787  0.6971  0.5451 -0.4656
 
              Baa    -0.0423    -5.677    -2.026    -1.894 -0.6317 -0.3183  0.7068
    28 C(13)  Bbb     0.0185     2.484     0.886     0.828  0.4461  0.5964  0.6673
              Bcc     0.0238     3.193     1.139     1.065 -0.6340  0.7369 -0.2348
 
              Baa    -0.0433    -5.816    -2.075    -1.940  0.7007  0.2312 -0.6749
    29 C(13)  Bbb     0.0191     2.560     0.913     0.854  0.4724  0.5585  0.6818
              Bcc     0.0243     3.257     1.162     1.086 -0.5346  0.7966 -0.2821
 
              Baa    -0.0658    -8.834    -3.152    -2.947  0.4861  0.5838  0.6503
    30 C(13)  Bbb    -0.0592    -7.947    -2.836    -2.651 -0.5826  0.7711 -0.2568
              Bcc     0.1251    16.781     5.988     5.598 -0.6514 -0.2540  0.7150
 
              Baa    -0.0046    -2.434    -0.868    -0.812 -0.4199 -0.4799  0.7703
    31 H(1)   Bbb    -0.0024    -1.290    -0.460    -0.430  0.8206 -0.5633  0.0964
              Bcc     0.0070     3.724     1.329     1.242  0.3876  0.6726  0.6304
 
              Baa    -0.0044    -2.330    -0.832    -0.777  0.7888  0.0419 -0.6133
    32 H(1)   Bbb    -0.0025    -1.328    -0.474    -0.443 -0.2906  0.9045 -0.3120
              Bcc     0.0069     3.659     1.306     1.220  0.5417  0.4244  0.7256
 
              Baa    -0.0023    -1.245    -0.444    -0.415  0.7248  0.3479 -0.5946
    33 H(1)   Bbb     0.0003     0.145     0.052     0.048  0.5391  0.2510  0.8040
              Bcc     0.0021     1.101     0.393     0.367 -0.4289  0.9033  0.0056
 
              Baa    -0.0024    -1.256    -0.448    -0.419  0.7222  0.3607 -0.5902
    34 H(1)   Bbb     0.0002     0.086     0.031     0.029  0.1683  0.7360  0.6557
              Bcc     0.0022     1.170     0.417     0.390  0.6709 -0.5729  0.4709
 
              Baa    -0.0084    -4.482    -1.599    -1.495  0.4644  0.5693  0.6784
    35 H(1)   Bbb    -0.0009    -0.482    -0.172    -0.161 -0.6692 -0.2762  0.6898
              Bcc     0.0093     4.964     1.771     1.656 -0.5801  0.7744 -0.2527
 
              Baa    -0.0277    -3.712    -1.324    -1.238  0.8112 -0.3121  0.4945
    36 C(13)  Bbb     0.0131     1.756     0.627     0.586 -0.0589  0.7977  0.6001
              Bcc     0.0146     1.956     0.698     0.652 -0.5817 -0.5160  0.6288
 
              Baa    -0.0565    -7.584    -2.706    -2.530 -0.1671  0.9280  0.3329
    37 C(13)  Bbb    -0.0482    -6.465    -2.307    -2.157  0.6669  0.3550 -0.6551
              Bcc     0.1047    14.049     5.013     4.686  0.7262 -0.1126  0.6782
 
              Baa    -0.0575    -7.710    -2.751    -2.572  0.7840  0.3884 -0.4842
    38 C(13)  Bbb    -0.0496    -6.651    -2.373    -2.219 -0.0908  0.8434  0.5296
              Bcc     0.1070    14.362     5.125     4.790  0.6141 -0.3712  0.6965
 
              Baa    -0.0423    -5.678    -2.026    -1.894  0.4201 -0.1788  0.8897
    39 C(13)  Bbb     0.0185     2.483     0.886     0.828  0.7696 -0.4493 -0.4537
              Bcc     0.0238     3.195     1.140     1.066  0.4808  0.8753 -0.0511
 
              Baa    -0.0434    -5.826    -2.079    -1.943  0.4732 -0.0793  0.8774
    40 C(13)  Bbb     0.0191     2.568     0.916     0.857  0.7859 -0.4121 -0.4611
              Bcc     0.0243     3.258     1.163     1.087  0.3981  0.9077 -0.1327
 
              Baa    -0.0657    -8.818    -3.147    -2.941  0.7981 -0.4269 -0.4253
    41 C(13)  Bbb    -0.0591    -7.932    -2.830    -2.646  0.4318  0.8974 -0.0906
              Bcc     0.1248    16.750     5.977     5.587  0.4204 -0.1113  0.9005
 
              Baa    -0.0046    -2.435    -0.869    -0.812  0.2411 -0.3953  0.8863
    42 H(1)   Bbb    -0.0024    -1.279    -0.456    -0.427  0.6528  0.7418  0.1533
              Bcc     0.0070     3.714     1.325     1.239  0.7181 -0.5416 -0.4369
 
              Baa    -0.0043    -2.292    -0.818    -0.765  0.5287  0.1163  0.8408
    43 H(1)   Bbb    -0.0025    -1.350    -0.482    -0.450  0.1611  0.9588 -0.2340
              Bcc     0.0068     3.642     1.300     1.215  0.8334 -0.2592 -0.4882
 
              Baa    -0.0023    -1.245    -0.444    -0.415  0.5500 -0.1816  0.8152
    44 H(1)   Bbb     0.0003     0.144     0.051     0.048  0.8169 -0.0862 -0.5704
              Bcc     0.0021     1.101     0.393     0.367  0.1738  0.9796  0.1009
 
              Baa    -0.0023    -1.253    -0.447    -0.418  0.5495 -0.1952  0.8124
    45 H(1)   Bbb     0.0001     0.074     0.026     0.025 -0.5493  0.6483  0.5273
              Bcc     0.0022     1.179     0.421     0.393  0.6296  0.7360 -0.2490
 
              Baa    -0.0084    -4.475    -1.597    -1.493  0.7841 -0.4170 -0.4597
    46 H(1)   Bbb    -0.0009    -0.481    -0.172    -0.160  0.4495 -0.1292  0.8839
              Bcc     0.0093     4.956     1.768     1.653  0.4279  0.8997 -0.0861
 

 ---------------------------------------------------------------------------------

 No NMR shielding tensors so no spin-rotation constants.
 Leave Link  601 at Tue Jan 19 01:24:31 2021, MaxMem=  4026531840 cpu:               6.2 elap:               0.9
 (Enter /opt/ohpc/pub/libs/gaussian/g16-A.03/sandybridge/g16/l9999.exe)

 Test job not archived.
 1\1\GINC-CASCADEB058\SP\ULC-wHPBE\TZVP\C24H19N1S2(1+,2)\RDU230\19-Jan-
 2021\0\\#P LC-wHPBE/TZVP iop(3/107=0198600000, 3/108=0198600000) scf=(
 conver=6,fermi,ndamp=35,noincfock,novaracc,vshift=500,xqc)\\H19 C24 S2
  N1\\1,2\C,0,-3.352046,1.022081,0.90149\C,0,-4.015603,0.124147,0.07783
 3\S,0,-3.193622,-0.833868,-1.176213\C,0,-5.398593,-0.028228,0.207342\C
 ,0,-0.749106,0.373785,-1.531691\C,0,-1.475477,-0.56699,-0.815552\C,0,-
 4.041516,1.761821,1.844012\C,0,-6.080951,0.720801,1.156415\H,0,-7.4759
 44,-0.835079,-0.458792\C,0,0.601771,0.54717,-1.299188\C,0,-0.823428,-1
 .336346,0.139234\C,0,0.521569,-1.15492,0.389409\C,0,1.255724,-0.212476
 ,-0.331046\H,0,1.160253,1.275483,-1.876291\H,0,-1.383265,-2.076857,0.7
 00814\H,0,1.015474,-1.752114,1.147605\C,0,-5.411167,1.613701,1.970885\
 H,0,-2.279577,1.141824,0.800598\H,0,-1.248138,0.967582,-2.290346\H,0,-
 3.503227,2.458074,2.478369\H,0,-7.154267,0.598627,1.263844\H,0,-5.9624
 34,2.189124,2.706912\S,0,-6.238224,-1.192989,-0.835805\N,0,2.627173,-0
 .037586,-0.087724\C,0,3.438312,-1.140752,0.276409\C,0,4.374889,-1.0129
 28,1.295896\C,0,3.317625,-2.35655,-0.387733\C,0,5.1794,-2.084309,1.640
 01\C,0,4.112866,-3.428755,-0.025756\C,0,5.049979,-3.298472,0.986151\H,
 0,4.470709,-0.064848,1.814448\H,0,2.593785,-2.456724,-1.189607\H,0,5.9
 0745,-1.970366,2.436839\H,0,4.006805,-4.37257,-0.551042\H,0,5.67733,-4
 .139106,1.26285\C,0,3.224517,1.239724,-0.221989\C,0,4.446224,1.376745,
 -0.87125\C,0,2.604731,2.367846,0.304633\C,0,5.03746,2.622109,-0.986244
 \C,0,3.193018,3.612223,0.169883\C,0,4.413292,3.746533,-0.472133\H,0,4.
 931907,0.498005,-1.282066\H,0,1.656156,2.262505,0.820378\H,0,5.992055,
 2.71427,-1.494403\H,0,2.697309,4.484427,0.584059\H,0,4.876004,4.72281,
 -0.569917\\Version=EM64L-G16RevA.03\State=2-A\HF=-1775.9833236\S2=0.77
 0855\S2-1=0.\S2A=0.750398\RMSD=8.482e-07\Dipole=4.2212928,0.475482,0.5
 271612\Quadrupole=37.1068075,-7.2769507,-29.8298568,-4.2420017,-3.8442
 8,-1.2249841\PG=C01 [X(C24H19N1S2)]\\@


 "I COULD HAVE DONE IT IN A MUCH MORE COMPLICATED WAY"
 SAID THE RED QUEEN, IMMENSELY PROUD.

                                      -- LEWIS CARROLL
 Job cpu time:       0 days 10 hours 28 minutes 15.6 seconds.
 Elapsed time:       0 days  1 hours 19 minutes  1.0 seconds.
 File lengths (MBytes):  RWF=    244 Int=      0 D2E=      0 Chk=     36 Scr=      8
 Normal termination of Gaussian 16 at Tue Jan 19 01:24:32 2021.
