 Entering Gaussian System, Link 0=g16
 Input=mol_bp_NN_frag_tune_c1.gjf
 Output=mol_bp_NN_frag_tune_c1.log
 Initial command:
 /opt/ohpc/pub/libs/gaussian/g16-A.03/sandybridge/g16/l1.exe "/mnt/gpfs2_4m/scratch/rdu230/ondemand/projects/init_structures/wtuning/mol_bp_NN_frag/tuning_mol_bp_NN_frag_ocycle0/Gau-297256.inp" -scrdir="/mnt/gpfs2_4m/scratch/rdu230/ondemand/projects/init_structures/wtuning/mol_bp_NN_frag/tuning_mol_bp_NN_frag_ocycle0/"
 Entering Link 1 = /opt/ohpc/pub/libs/gaussian/g16-A.03/sandybridge/g16/l1.exe PID=    297257.
  
 Copyright (c) 1988,1990,1992,1993,1995,1998,2003,2009,2016,
            Gaussian, Inc.  All Rights Reserved.
  
 This is part of the Gaussian(R) 16 program.  It is based on
 the Gaussian(R) 09 system (copyright 2009, Gaussian, Inc.),
 the Gaussian(R) 03 system (copyright 2003, Gaussian, Inc.),
 the Gaussian(R) 98 system (copyright 1998, Gaussian, Inc.),
 the Gaussian(R) 94 system (copyright 1995, Gaussian, Inc.),
 the Gaussian 92(TM) system (copyright 1992, Gaussian, Inc.),
 the Gaussian 90(TM) system (copyright 1990, Gaussian, Inc.),
 the Gaussian 88(TM) system (copyright 1988, Gaussian, Inc.),
 the Gaussian 86(TM) system (copyright 1986, Carnegie Mellon
 University), and the Gaussian 82(TM) system (copyright 1983,
 Carnegie Mellon University). Gaussian is a federally registered
 trademark of Gaussian, Inc.
  
 This software contains proprietary and confidential information,
 including trade secrets, belonging to Gaussian, Inc.
  
 This software is provided under written license and may be
 used, copied, transmitted, or stored only in accord with that
 written license.
  
 The following legend is applicable only to US Government
 contracts under FAR:
  
                    RESTRICTED RIGHTS LEGEND
  
 Use, reproduction and disclosure by the US Government is
 subject to restrictions as set forth in subparagraphs (a)
 and (c) of the Commercial Computer Software - Restricted
 Rights clause in FAR 52.227-19.
  
 Gaussian, Inc.
 340 Quinnipiac St., Bldg. 40, Wallingford CT 06492
  
  
 ---------------------------------------------------------------
 Warning -- This program may not be used in any manner that
 competes with the business of Gaussian, Inc. or will provide
 assistance to any competitor of Gaussian, Inc.  The licensee
 of this program is prohibited from giving any competitor of
 Gaussian, Inc. access to this program.  By using this program,
 the user acknowledges that Gaussian, Inc. is engaged in the
 business of creating and licensing software in the field of
 computational chemistry and represents and warrants to the
 licensee that it is not a competitor of Gaussian, Inc. and that
 it will not use this program in any manner prohibited above.
 ---------------------------------------------------------------
  

 Cite this work as:
 Gaussian 16, Revision A.03,
 M. J. Frisch, G. W. Trucks, H. B. Schlegel, G. E. Scuseria, 
 M. A. Robb, J. R. Cheeseman, G. Scalmani, V. Barone, 
 G. A. Petersson, H. Nakatsuji, X. Li, M. Caricato, A. V. Marenich, 
 J. Bloino, B. G. Janesko, R. Gomperts, B. Mennucci, H. P. Hratchian, 
 J. V. Ortiz, A. F. Izmaylov, J. L. Sonnenberg, D. Williams-Young, 
 F. Ding, F. Lipparini, F. Egidi, J. Goings, B. Peng, A. Petrone, 
 T. Henderson, D. Ranasinghe, V. G. Zakrzewski, J. Gao, N. Rega, 
 G. Zheng, W. Liang, M. Hada, M. Ehara, K. Toyota, R. Fukuda, 
 J. Hasegawa, M. Ishida, T. Nakajima, Y. Honda, O. Kitao, H. Nakai, 
 T. Vreven, K. Throssell, J. A. Montgomery, Jr., J. E. Peralta, 
 F. Ogliaro, M. J. Bearpark, J. J. Heyd, E. N. Brothers, K. N. Kudin, 
 V. N. Staroverov, T. A. Keith, R. Kobayashi, J. Normand, 
 K. Raghavachari, A. P. Rendell, J. C. Burant, S. S. Iyengar, 
 J. Tomasi, M. Cossi, J. M. Millam, M. Klene, C. Adamo, R. Cammi, 
 J. W. Ochterski, R. L. Martin, K. Morokuma, O. Farkas, 
 J. B. Foresman, and D. J. Fox, Gaussian, Inc., Wallingford CT, 2016.
 
 ******************************************
 Gaussian 16:  EM64L-G16RevA.03 25-Dec-2016
                17-Jan-2021 
 ******************************************
 %mem=30GB
 %nproc=8
 Will use up to    8 processors via shared memory.
 ----------------------------------------------------------------------
 #P LC-wHPBE/TZVP iop(3/107=0328100000, 3/108=0328100000) scf=(conver=6
 ,fermi,ndamp=35,noincfock,novaracc,vshift=500,xqc)
 ----------------------------------------------------------------------
 1/38=1,172=1/1;
 2/12=2,17=6,18=5,40=1/2;
 3/5=19,7=101,11=2,25=1,30=1,74=-71,107=328100000,108=328100000/1,2,3;
 4//1;
 5/5=100002,6=6,8=3,10=500,13=1,18=-1,22=13,38=1,93=35/2,8;
 6/7=2,8=2,9=2,10=2,28=1/1;
 99/5=1,9=1/99;
 Leave Link    1 at Sun Jan 17 09:40:24 2021, MaxMem=  4026531840 cpu:               1.3 elap:               0.2
 (Enter /opt/ohpc/pub/libs/gaussian/g16-A.03/sandybridge/g16/l101.exe)
 -------
 H10 C12
 -------
 Symbolic Z-matrix:
 Charge =  1 Multiplicity = 2
 C                    -2.8585    1.13299   0.41369 
 C                    -3.56193  -0.00008  -0.00015 
 C                    -1.46369   1.13275   0.41353 
 C                    -2.85827  -1.13318  -0.41374 
 C                    -0.74238   0.00012   0.00009 
 C                    -1.46349  -1.13268  -0.41349 
 H                    -4.65317  -0.00016  -0.00026 
 H                    -0.92222   2.01421   0.7623 
 H                    -3.39879  -2.02099  -0.74713 
 H                    -0.92175  -2.01403  -0.7621 
 C                     0.74239   0.00014   0.0002 
 C                     1.46354  -1.13264   0.41358 
 C                     1.46364   1.13277  -0.41348 
 C                     2.85836  -1.13311   0.41366 
 C                     2.85841   1.13307  -0.41371 
 C                     3.56193  -0.0001   -0.00009 
 H                     0.92194  -2.01404   0.76226 
 H                     0.92202   2.01413  -0.76227 
 H                     3.39883  -2.021     0.74694 
 H                     3.39903   2.02081  -0.74717 
 H                     4.65318  -0.00012  -0.0002 
 H                    -3.39908   2.02081   0.74697 
 
 ITRead=  0  0  0  0  0  0  0  0  0  0  0  0  0  0  0  0  0  0  0  0
 ITRead=  0  0
 MicOpt= -1 -1 -1 -1 -1 -1 -1 -1 -1 -1 -1 -1 -1 -1 -1 -1 -1 -1 -1 -1
 MicOpt= -1 -1
 NAtoms=     22 NQM=       22 NQMF=       0 NMMI=      0 NMMIF=      0
                NMic=       0 NMicF=      0.
                    Isotopes and Nuclear Properties:
 (Nuclear quadrupole moments (NQMom) in fm**2, nuclear magnetic moments (NMagM)
  in nuclear magnetons)

  Atom         1           2           3           4           5           6           7           8           9          10
 IAtWgt=          12          12          12          12          12          12           1           1           1           1
 AtmWgt=  12.0000000  12.0000000  12.0000000  12.0000000  12.0000000  12.0000000   1.0078250   1.0078250   1.0078250   1.0078250
 NucSpn=           0           0           0           0           0           0           1           1           1           1
 AtZEff=  -0.0000000  -0.0000000  -0.0000000  -0.0000000  -0.0000000  -0.0000000  -0.0000000  -0.0000000  -0.0000000  -0.0000000
 NQMom=    0.0000000   0.0000000   0.0000000   0.0000000   0.0000000   0.0000000   0.0000000   0.0000000   0.0000000   0.0000000
 NMagM=    0.0000000   0.0000000   0.0000000   0.0000000   0.0000000   0.0000000   2.7928460   2.7928460   2.7928460   2.7928460
 AtZNuc=   6.0000000   6.0000000   6.0000000   6.0000000   6.0000000   6.0000000   1.0000000   1.0000000   1.0000000   1.0000000

  Atom        11          12          13          14          15          16          17          18          19          20
 IAtWgt=          12          12          12          12          12          12           1           1           1           1
 AtmWgt=  12.0000000  12.0000000  12.0000000  12.0000000  12.0000000  12.0000000   1.0078250   1.0078250   1.0078250   1.0078250
 NucSpn=           0           0           0           0           0           0           1           1           1           1
 AtZEff=  -0.0000000  -0.0000000  -0.0000000  -0.0000000  -0.0000000  -0.0000000  -0.0000000  -0.0000000  -0.0000000  -0.0000000
 NQMom=    0.0000000   0.0000000   0.0000000   0.0000000   0.0000000   0.0000000   0.0000000   0.0000000   0.0000000   0.0000000
 NMagM=    0.0000000   0.0000000   0.0000000   0.0000000   0.0000000   0.0000000   2.7928460   2.7928460   2.7928460   2.7928460
 AtZNuc=   6.0000000   6.0000000   6.0000000   6.0000000   6.0000000   6.0000000   1.0000000   1.0000000   1.0000000   1.0000000

  Atom        21          22
 IAtWgt=           1           1
 AtmWgt=   1.0078250   1.0078250
 NucSpn=           1           1
 AtZEff=  -0.0000000  -0.0000000
 NQMom=    0.0000000   0.0000000
 NMagM=    2.7928460   2.7928460
 AtZNuc=   1.0000000   1.0000000
 Leave Link  101 at Sun Jan 17 09:40:24 2021, MaxMem=  4026531840 cpu:               0.7 elap:               0.1
 (Enter /opt/ohpc/pub/libs/gaussian/g16-A.03/sandybridge/g16/l202.exe)
                          Input orientation:                          
 ---------------------------------------------------------------------
 Center     Atomic      Atomic             Coordinates (Angstroms)
 Number     Number       Type             X           Y           Z
 ---------------------------------------------------------------------
      1          6           0       -2.858500    1.132993    0.413690
      2          6           0       -3.561927   -0.000084   -0.000146
      3          6           0       -1.463685    1.132747    0.413534
      4          6           0       -2.858269   -1.133176   -0.413741
      5          6           0       -0.742381    0.000123    0.000091
      6          6           0       -1.463491   -1.132675   -0.413489
      7          1           0       -4.653174   -0.000160   -0.000261
      8          1           0       -0.922222    2.014213    0.762301
      9          1           0       -3.398792   -2.020986   -0.747134
     10          1           0       -0.921754   -2.014027   -0.762095
     11          6           0        0.742385    0.000142    0.000197
     12          6           0        1.463539   -1.132637    0.413582
     13          6           0        1.463636    1.132765   -0.413477
     14          6           0        2.858357   -1.133114    0.413660
     15          6           0        2.858412    1.133073   -0.413706
     16          6           0        3.561931   -0.000095   -0.000087
     17          1           0        0.921935   -2.014039    0.762261
     18          1           0        0.922017    2.014128   -0.762265
     19          1           0        3.398826   -2.021000    0.746938
     20          1           0        3.399026    2.020805   -0.747168
     21          1           0        4.653184   -0.000117   -0.000198
     22          1           0       -3.399078    2.020813    0.746974
 ---------------------------------------------------------------------
                    Distance matrix (angstroms):
                    1          2          3          4          5
     1  C    0.000000
     2  C    1.396400   0.000000
     3  C    1.394815   2.420136   0.000000
     4  C    2.412502   1.396457   2.786334   0.000000
     5  C    2.435656   2.819546   1.405010   2.435694   0.000000
     6  C    2.786311   2.420134   2.411660   1.394778   1.405091
     7  H    2.162463   1.091247   3.409919   2.162493   3.910793
     8  H    2.155748   3.406870   1.091697   3.877810   2.160987
     9  H    3.403970   2.160706   3.877863   1.091569   3.420489
    10  H    3.877782   3.406912   3.402643   2.155769   2.160996
    11  C    3.797460   4.304312   2.514038   3.797429   1.484766
    12  C    4.879867   5.168090   3.701433   4.400283   2.514001
    13  C    4.400576   5.168218   3.041900   4.879893   2.514046
    14  C    6.149609   6.532613   4.879977   5.776193   3.797444
    15  C    5.776475   6.532674   4.400551   6.149498   3.797435
    16  C    6.532766   7.123858   5.168291   6.532530   4.304312
    17  H    4.931227   4.974163   3.964222   4.055717   2.721709
    18  H    4.056054   4.974297   2.801947   4.931283   2.721695
    19  H    7.015187   7.286585   5.805281   6.425468   4.668224
    20  H    6.425919   7.286762   5.077582   7.015163   4.668276
    21  H    7.607933   8.215111   6.234632   7.607678   5.395565
    22  H    1.091571   2.160725   2.155363   3.404024   3.420389
                    6          7          8          9         10
     6  C    0.000000
     7  H    3.409901   0.000000
     8  H    3.402699   4.308039   0.000000
     9  H    2.155413   2.492996   4.969369   0.000000
    10  H    1.091690   4.308079   4.307029   2.477093   0.000000
    11  C    2.514021   5.395559   2.721801   4.668277   2.721640
    12  C    3.041636   6.234416   3.964357   5.077272   2.801551
    13  C    3.701390   6.234551   2.802093   5.805229   3.964079
    14  C    4.400289   7.607760   4.931531   6.425548   4.055570
    15  C    4.879801   7.607830   4.056180   7.015117   4.931051
    16  C    5.168027   8.215105   4.974565   7.286545   4.973933
    17  H    2.801687   5.976537   4.430319   4.576790   2.392248
    18  H    3.964172   5.976685   2.392806   5.912002   4.430070
    19  H    5.077188   8.335275   5.912245   6.959875   4.576532
    20  H    5.805157   8.335472   4.577305   7.908628   5.911788
    21  H    6.234357   9.306358   5.976963   8.335235   5.976308
    22  H    3.877842   2.493080   2.476912   4.309118   4.969342
                   11         12         13         14         15
    11  C    0.000000
    12  C    1.405040   0.000000
    13  C    1.405049   2.411654   0.000000
    14  C    2.435684   1.394818   2.786326   0.000000
    15  C    2.435656   2.786309   1.394776   2.412496   0.000000
    16  C    2.819546   2.420129   2.420146   1.396401   1.396456
    17  H    2.160996   1.091687   3.402672   2.155755   3.877777
    18  H    2.160962   3.402645   1.091698   3.877801   2.155778
    19  H    3.420426   2.155377   3.877855   1.091569   3.404015
    20  H    3.420435   3.877840   2.155388   3.403976   1.091572
    21  H    3.910799   3.409934   3.409903   2.162490   2.162479
    22  H    4.668244   5.805208   5.077525   7.015258   6.425842
                   16         17         18         19         20
    16  C    0.000000
    17  H    3.406864   0.000000
    18  H    3.406928   4.307007   0.000000
    19  H    2.160719   2.476948   4.969360   0.000000
    20  H    2.160719   4.969338   2.477064   4.309123   0.000000
    21  H    1.091253   4.308067   4.308078   2.493109   2.492991
    22  H    7.286825   5.911972   4.577085   7.908714   6.960365
                   21         22
    21  H    0.000000
    22  H    8.335547   0.000000
 Stoichiometry    C12H10(1+,2)
 Framework group  C1[X(C12H10)]
 Deg. of freedom    60
 Full point group                 C1      NOp   1
 Largest Abelian subgroup         C1      NOp   1
 Largest concise Abelian subgroup C1      NOp   1
                         Standard orientation:                         
 ---------------------------------------------------------------------
 Center     Atomic      Atomic             Coordinates (Angstroms)
 Number     Number       Type             X           Y           Z
 ---------------------------------------------------------------------
      1          6           0       -2.858500   -1.132993   -0.413690
      2          6           0       -3.561927    0.000084    0.000146
      3          6           0       -1.463685   -1.132747   -0.413534
      4          6           0       -2.858269    1.133176    0.413741
      5          6           0       -0.742381   -0.000123   -0.000091
      6          6           0       -1.463491    1.132675    0.413489
      7          1           0       -4.653174    0.000160    0.000261
      8          1           0       -0.922222   -2.014213   -0.762301
      9          1           0       -3.398792    2.020986    0.747134
     10          1           0       -0.921754    2.014027    0.762095
     11          6           0        0.742385   -0.000142   -0.000197
     12          6           0        1.463539    1.132637   -0.413582
     13          6           0        1.463636   -1.132765    0.413477
     14          6           0        2.858357    1.133114   -0.413660
     15          6           0        2.858412   -1.133073    0.413706
     16          6           0        3.561931    0.000095    0.000087
     17          1           0        0.921935    2.014039   -0.762261
     18          1           0        0.922017   -2.014128    0.762265
     19          1           0        3.398826    2.021000   -0.746938
     20          1           0        3.399026   -2.020805    0.747168
     21          1           0        4.653184    0.000117    0.000198
     22          1           0       -3.399078   -2.020813   -0.746974
 ---------------------------------------------------------------------
 Rotational constants (GHZ):           2.8545349           0.5449545           0.4756990
 Leave Link  202 at Sun Jan 17 09:40:25 2021, MaxMem=  4026531840 cpu:               0.2 elap:               0.1
 (Enter /opt/ohpc/pub/libs/gaussian/g16-A.03/sandybridge/g16/l301.exe)
 Standard basis: TZVP (5D, 7F)
 Ernie: Thresh=  0.10000D-02 Tol=  0.10000D-05 Strict=F.
 There are   300 symmetry adapted cartesian basis functions of A   symmetry.
 There are   288 symmetry adapted basis functions of A   symmetry.
   288 basis functions,   500 primitive gaussians,   300 cartesian basis functions
    41 alpha electrons       40 beta electrons
       nuclear repulsion energy       598.4723472889 Hartrees.
 IExCor=33909 DFT=T Ex+Corr=LC-wHPBE ExCW=0 ScaHFX=  1.000000
 ScaDFX=  1.000000  1.000000  1.000000  1.000000 ScalE2=  1.000000  1.000000
 IRadAn=      5 IRanWt=     -1 IRanGd=            0 ICorTp=0 IEmpDi=  4
 HFx  wShort=  0.000000 wLong=  0.328100 cFull=  0.000000 cShort=  0.000000 cLong=  1.000000
 DFx  wShort=  0.000000 wLong=  0.328100 cFull=  0.000000 cShort=  1.000000 cLong=  0.000000
 NAtoms=   22 NActive=   22 NUniq=   22 SFac= 1.00D+00 NAtFMM=   60 NAOKFM=F Big=F
 Integral buffers will be    131072 words long.
 Raffenetti 2 integral format.
 Two-electron integral symmetry is turned on.
 Leave Link  301 at Sun Jan 17 09:40:25 2021, MaxMem=  4026531840 cpu:               0.3 elap:               0.1
 (Enter /opt/ohpc/pub/libs/gaussian/g16-A.03/sandybridge/g16/l302.exe)
 NPDir=0 NMtPBC=     1 NCelOv=     1 NCel=       1 NClECP=     1 NCelD=      1
         NCelK=      1 NCelE2=     1 NClLst=     1 CellRange=     0.0.
 One-electron integrals computed using PRISM.
 One-electron integral symmetry used in STVInt
 NBasis=   288 RedAO= T EigKep=  9.18D-06  NBF=   288
 NBsUse=   288 1.00D-06 EigRej= -1.00D+00 NBFU=   288
 Precomputing XC quadrature grid using
 IXCGrd= 4 IRadAn=           5 IRanWt=          -1 IRanGd=           0 AccXCQ= 0.00D+00.
 Generated NRdTot=       0 NPtTot=           0 NUsed=           0 NTot=          32
 NSgBfM=   295   295   295   295   295 MxSgAt=    22 MxSgA2=    22.
 Leave Link  302 at Sun Jan 17 09:40:25 2021, MaxMem=  4026531840 cpu:               3.0 elap:               0.4
 (Enter /opt/ohpc/pub/libs/gaussian/g16-A.03/sandybridge/g16/l303.exe)
 DipDrv:  MaxL=1.
 Leave Link  303 at Sun Jan 17 09:40:25 2021, MaxMem=  4026531840 cpu:               0.7 elap:               0.2
 (Enter /opt/ohpc/pub/libs/gaussian/g16-A.03/sandybridge/g16/l401.exe)
 ExpMin= 9.52D-02 ExpMax= 1.36D+04 ExpMxC= 4.63D+02 IAcc=3 IRadAn=         5 AccDes= 0.00D+00
 Harris functional with IExCor=33909 and IRadAn=       5 diagonalized for initial guess.
 HarFok:  IExCor=33909 AccDes= 0.00D+00 IRadAn=         5 IDoV= 1 UseB2=F ITyADJ=14
 ICtDFT=  3500011 ScaDFX=  1.000000  1.000000  1.000000  1.000000
 FoFCou: FMM=F IPFlag=           0 FMFlag=      100000 FMFlg1=           0
         NFxFlg=           0 DoJE=T BraDBF=F KetDBF=T FulRan=T
         wScrn=  0.000000 ICntrl=       500 IOpCl=  0 I1Cent=   200000004 NGrid=           0
         NMat0=    1 NMatS0=      1 NMatT0=    0 NMatD0=    1 NMtDS0=    0 NMtDT0=    0
 Petite list used in FoFCou.
 Harris En= -449.304531290387    
 JPrj=0 DoOrth=F DoCkMO=F.
 Initial guess <Sx>= 0.0000 <Sy>= 0.0000 <Sz>= 0.5000 <S**2>= 0.7500 S= 0.5000
 Leave Link  401 at Sun Jan 17 09:40:27 2021, MaxMem=  4026531840 cpu:              13.8 elap:               1.7
 (Enter /opt/ohpc/pub/libs/gaussian/g16-A.03/sandybridge/g16/l502.exe)
 Integral symmetry usage will be decided dynamically.
 UHF open shell SCF:
 Using DIIS extrapolation, IDIIS=    10.
 NGot=  4026531840 LenX=  4026346394 LenY=  4026255953
 Requested convergence on RMS density matrix=1.00D-06 within  32 cycles.
 Requested convergence on MAX density matrix=1.00D-04.
 Requested convergence on             energy=1.00D-04.
 Virtual orbitals will be shifted by   0.500 hartree.
 No special actions if energy rises.
 Dynamic level shift is on during FON iterations.

 Cycle   1  Pass 1  IDiag  1:
 FoFJK:  IHMeth= 1 ICntrl=       0 DoSepK=T KAlg= 0 I1Cent=           0 FoldK=F
 IRaf=         1 NMat=       1 IRICut=       1 DoRegI=T DoRafI=F ISym2E= 0 IDoP0=0 IntGTp=1.
 FoFCou: FMM=F IPFlag=           0 FMFlag=      100000 FMFlg1=           0
         NFxFlg=           0 DoJE=T BraDBF=F KetDBF=F FulRan=T
         wScrn=  0.000000 ICntrl=       500 IOpCl=  0 I1Cent=           0 NGrid=           0
         NMat0=    1 NMatS0=      1 NMatT0=    0 NMatD0=    1 NMtDS0=    0 NMtDT0=    0
 Symmetry not used in FoFCou.
 E= -462.672237177192    
 DIIS: error= 1.97D-02 at cycle   1 NSaved=   1.
 NSaved= 1 IEnMin= 1 EnMin= -462.672237177192     IErMin= 1 ErrMin= 1.97D-02
 ErrMax= 1.97D-02  0.00D+00 EMaxC= 1.00D+00 BMatC= 3.63D-01 BMatP= 3.63D-01
 IDIUse=1 WtCom= 1.00D+00 WtEn= 0.00D+00
 Coeff-Com:  0.100D+01
 Coeff:      0.100D+01
 Gap=     0.359 Goal=   None    Shift=    0.500
 T= 1243. Gap= 0.852 NK=0 IS=   42 IE=  288 IFin=   41
          NO(<0.9)=   0  NV(>0.1)=   0     41.00e < EF      0.00e >EF  Err=0.0D+00
 Gap=     0.192 Goal=   None    Shift=    0.500
 T= 1243. Gap= 0.690 NK=0 IS=   41 IE=  288 IFin=   40
          NO(<0.9)=   0  NV(>0.1)=   0     40.00e < EF      0.00e >EF  Err=0.0D+00
 GapD=    0.192 DampG=1.000 DampE=0.500 DampFc=0.5000 IDamp=-1.
 Damping current iteration by 5.00D-01
 RMSDP=2.71D-03 MaxDP=7.21D-02              OVMax= 5.10D-02

 Cycle   2  Pass 1  IDiag  1:
 E= -462.719687147178     Delta-E=       -0.047449969986 Rises=F Damp=T
 DIIS: error= 9.00D-03 at cycle   2 NSaved=   2.
 NSaved= 2 IEnMin= 2 EnMin= -462.719687147178     IErMin= 2 ErrMin= 9.00D-03
 ErrMax= 9.00D-03  0.00D+00 EMaxC= 1.00D+00 BMatC= 8.10D-02 BMatP= 3.63D-01
 IDIUse=1 WtCom= 1.00D+00 WtEn= 0.00D+00
 Coeff-Com: -0.767D+00 0.177D+01
 Coeff:     -0.767D+00 0.177D+01
 Gap=     0.365 Goal=   None    Shift=    0.500
 T= 1124. Gap= 0.861 NK=0 IS=   42 IE=  288 IFin=   41
          NO(<0.9)=   0  NV(>0.1)=   0     41.00e < EF      0.00e >EF  Err=0.0D+00
 Gap=     0.214 Goal=   None    Shift=    0.500
 T= 1124. Gap= 0.701 NK=0 IS=   41 IE=  288 IFin=   40
          NO(<0.9)=   0  NV(>0.1)=   0     40.00e < EF      0.00e >EF  Err=0.0D+00
 GapD=    0.214 DampG=1.000 DampE=1.000 DampFc=1.0000 IDamp=-1.
 RMSDP=2.10D-03 MaxDP=7.18D-02 DE=-4.74D-02 OVMax= 1.78D-02

 Cycle   3  Pass 1  IDiag  1:
 E= -462.754859900589     Delta-E=       -0.035172753412 Rises=F Damp=F
 DIIS: error= 4.61D-03 at cycle   3 NSaved=   3.
 NSaved= 3 IEnMin= 3 EnMin= -462.754859900589     IErMin= 3 ErrMin= 4.61D-03
 ErrMax= 4.61D-03  0.00D+00 EMaxC= 1.00D+00 BMatC= 1.58D-03 BMatP= 8.10D-02
 IDIUse=1 WtCom= 1.00D+00 WtEn= 0.00D+00
 Coeff-Com:  0.323D-01-0.470D-01 0.101D+01
 Coeff:      0.323D-01-0.470D-01 0.101D+01
 Gap=     0.362 Goal=   None    Shift=    0.500
 T=  900. Gap= 0.862 NK=0 IS=   42 IE=  288 IFin=   41
          NO(<0.9)=   0  NV(>0.1)=   0     41.00e < EF      0.00e >EF  Err=0.0D+00
 Gap=     0.204 Goal=   None    Shift=    0.500
 T=  900. Gap= 0.704 NK=0 IS=   41 IE=  288 IFin=   40
          NO(<0.9)=   0  NV(>0.1)=   0     40.00e < EF      0.00e >EF  Err=0.0D+00
 GapD=    0.204 DampG=1.000 DampE=1.000 DampFc=1.0000 IDamp=-1.
 RMSDP=4.33D-04 MaxDP=1.47D-02 DE=-3.52D-02 OVMax= 1.53D-02

 Cycle   4  Pass 1  IDiag  1:
 E= -462.755877959227     Delta-E=       -0.001018058638 Rises=F Damp=F
 DIIS: error= 3.27D-03 at cycle   4 NSaved=   4.
 NSaved= 4 IEnMin= 4 EnMin= -462.755877959227     IErMin= 4 ErrMin= 3.27D-03
 ErrMax= 3.27D-03  0.00D+00 EMaxC= 1.00D+00 BMatC= 6.67D-04 BMatP= 1.58D-03
 IDIUse=1 WtCom= 1.00D+00 WtEn= 0.00D+00
 Coeff-Com:  0.680D-01-0.150D+00-0.286D+00 0.137D+01
 Coeff:      0.680D-01-0.150D+00-0.286D+00 0.137D+01
 Gap=     0.363 Goal=   None    Shift=    0.500
 T=  492. Gap= 0.864 NK=0 IS=   42 IE=  288 IFin=   41
          NO(<0.9)=   0  NV(>0.1)=   0     41.00e < EF      0.00e >EF  Err=0.0D+00
 Gap=     0.207 Goal=   None    Shift=    0.500
 T=  492. Gap= 0.708 NK=0 IS=   41 IE=  288 IFin=   40
          NO(<0.9)=   0  NV(>0.1)=   0     40.00e < EF      0.00e >EF  Err=0.0D+00
 GapD=    0.207 DampG=1.000 DampE=1.000 DampFc=1.0000 IDamp=-1.
 RMSDP=2.38D-04 MaxDP=8.01D-03 DE=-1.02D-03 OVMax= 1.24D-02

 Cycle   5  Pass 1  IDiag  1:
 E= -462.756497407083     Delta-E=       -0.000619447856 Rises=F Damp=F
 DIIS: error= 2.74D-03 at cycle   5 NSaved=   5.
 NSaved= 5 IEnMin= 5 EnMin= -462.756497407083     IErMin= 5 ErrMin= 2.74D-03
 ErrMax= 2.74D-03  0.00D+00 EMaxC= 1.00D+00 BMatC= 3.43D-04 BMatP= 6.67D-04
 IDIUse=1 WtCom= 1.00D+00 WtEn= 0.00D+00
 Coeff-Com: -0.222D-01 0.363D-01-0.328D+00-0.579D+00 0.189D+01
 Coeff:     -0.222D-01 0.363D-01-0.328D+00-0.579D+00 0.189D+01
 Gap=     0.365 Goal=   None    Shift=    0.500
 T=  214. Gap= 0.865 NK=0 IS=   42 IE=  288 IFin=   41
          NO(<0.9)=   0  NV(>0.1)=   0     41.00e < EF      0.00e >EF  Err=0.0D+00
 Gap=     0.211 Goal=   None    Shift=    0.500
 T=  214. Gap= 0.711 NK=0 IS=   41 IE=  288 IFin=   40
          NO(<0.9)=   0  NV(>0.1)=   0     40.00e < EF      0.00e >EF  Err=0.0D+00
 GapD=    0.211 DampG=1.000 DampE=1.000 DampFc=1.0000 IDamp=-1.
 RMSDP=1.64D-04 MaxDP=5.85D-03 DE=-6.19D-04 OVMax= 1.27D-02

 Cycle   6  Pass 1  IDiag  1:
 E= -462.756947964004     Delta-E=       -0.000450556920 Rises=F Damp=F
 DIIS: error= 1.97D-03 at cycle   6 NSaved=   6.
 NSaved= 6 IEnMin= 6 EnMin= -462.756947964004     IErMin= 6 ErrMin= 1.97D-03
 ErrMax= 1.97D-03  0.00D+00 EMaxC= 1.00D+00 BMatC= 1.78D-04 BMatP= 3.43D-04
 IDIUse=1 WtCom= 1.00D+00 WtEn= 0.00D+00
 Coeff-Com: -0.278D-01 0.589D-01 0.115D+00-0.415D+00-0.111D+01 0.238D+01
 Coeff:     -0.278D-01 0.589D-01 0.115D+00-0.415D+00-0.111D+01 0.238D+01
 Gap=     0.365 Goal=   None    Shift=    0.500
 T=   42. Gap= 0.865 NK=0 IS=   42 IE=  288 IFin=   41
          NO(<0.9)=   0  NV(>0.1)=   0     41.00e < EF      0.00e >EF  Err=0.0D+00
 Gap=     0.213 Goal=   None    Shift=    0.500
 T=   42. Gap= 0.713 NK=0 IS=   41 IE=  288 IFin=   40
          NO(<0.9)=   0  NV(>0.1)=   0     40.00e < EF      0.00e >EF  Err=0.0D+00
 GapD=    0.213 DampG=1.000 DampE=1.000 DampFc=1.0000 IDamp=-1.
 RMSDP=9.93D-05 MaxDP=2.93D-03 DE=-4.51D-04 OVMax= 1.10D-02

 Cycle   7  Pass 1  IDiag  1:
 E= -462.757252369170     Delta-E=       -0.000304405166 Rises=F Damp=F
 DIIS: error= 1.42D-03 at cycle   7 NSaved=   7.
 NSaved= 7 IEnMin= 7 EnMin= -462.757252369170     IErMin= 7 ErrMin= 1.42D-03
 ErrMax= 1.42D-03  0.00D+00 EMaxC= 1.00D+00 BMatC= 9.51D-05 BMatP= 1.78D-04
 IDIUse=1 WtCom= 1.00D+00 WtEn= 0.00D+00
 Coeff-Com: -0.353D-02 0.104D-01 0.932D-01 0.116D+00-0.911D+00-0.242D+00
 Coeff-Com:  0.194D+01
 Coeff:     -0.353D-02 0.104D-01 0.932D-01 0.116D+00-0.911D+00-0.242D+00
 Coeff:      0.194D+01
 Gap=     0.366 Goal=   None    Shift=    0.500
 Gap=     0.215 Goal=   None    Shift=    0.500
 GapD=    0.215 DampG=1.000 DampE=1.000 DampFc=1.0000 IDamp=-1.
 RMSDP=6.26D-05 MaxDP=1.49D-03 DE=-3.04D-04 OVMax= 8.56D-03

 Cycle   8  Pass 1  IDiag  1:
 E= -462.757434592402     Delta-E=       -0.000182223232 Rises=F Damp=F
 DIIS: error= 9.66D-04 at cycle   8 NSaved=   8.
 NSaved= 8 IEnMin= 8 EnMin= -462.757434592402     IErMin= 8 ErrMin= 9.66D-04
 ErrMax= 9.66D-04  0.00D+00 EMaxC= 1.00D+00 BMatC= 5.40D-05 BMatP= 9.51D-05
 IDIUse=1 WtCom= 1.00D+00 WtEn= 0.00D+00
 Coeff-Com:  0.139D-01-0.290D-01-0.807D-01 0.307D+00 0.495D+00-0.181D+01
 Coeff-Com: -0.174D+00 0.228D+01
 Coeff:      0.139D-01-0.290D-01-0.807D-01 0.307D+00 0.495D+00-0.181D+01
 Coeff:     -0.174D+00 0.228D+01
 Gap=     0.366 Goal=   None    Shift=    0.500
 Gap=     0.216 Goal=   None    Shift=    0.500
 RMSDP=4.76D-05 MaxDP=9.65D-04 DE=-1.82D-04 OVMax= 6.87D-03

 Cycle   9  Pass 1  IDiag  1:
 E= -462.757556373458     Delta-E=       -0.000121781056 Rises=F Damp=F
 DIIS: error= 6.57D-04 at cycle   9 NSaved=   9.
 NSaved= 9 IEnMin= 9 EnMin= -462.757556373458     IErMin= 9 ErrMin= 6.57D-04
 ErrMax= 6.57D-04  0.00D+00 EMaxC= 1.00D+00 BMatC= 2.97D-05 BMatP= 5.40D-05
 IDIUse=1 WtCom= 1.00D+00 WtEn= 0.00D+00
 Coeff-Com: -0.413D-02 0.620D-02-0.383D-01-0.213D+00 0.486D+00 0.534D+00
 Coeff-Com: -0.119D+01-0.171D+01 0.313D+01
 Coeff:     -0.413D-02 0.620D-02-0.383D-01-0.213D+00 0.486D+00 0.534D+00
 Coeff:     -0.119D+01-0.171D+01 0.313D+01
 Gap=     0.366 Goal=   None    Shift=    0.500
 Gap=     0.217 Goal=   None    Shift=    0.500
 RMSDP=4.00D-05 MaxDP=8.23D-04 DE=-1.22D-04 OVMax= 5.26D-03

 Cycle  10  Pass 1  IDiag  1:
 E= -462.757629296247     Delta-E=       -0.000072922788 Rises=F Damp=F
 DIIS: error= 4.30D-04 at cycle  10 NSaved=  10.
 NSaved=10 IEnMin=10 EnMin= -462.757629296247     IErMin=10 ErrMin= 4.30D-04
 ErrMax= 4.30D-04  0.00D+00 EMaxC= 1.00D+00 BMatC= 1.66D-05 BMatP= 2.97D-05
 IDIUse=1 WtCom= 1.00D+00 WtEn= 0.00D+00
 Coeff-Com: -0.426D-02 0.887D-02 0.336D-01-0.180D+00-0.702D-01 0.631D+00
 Coeff-Com: -0.843D-01-0.705D+00-0.106D+01 0.243D+01
 Coeff:     -0.426D-02 0.887D-02 0.336D-01-0.180D+00-0.702D-01 0.631D+00
 Coeff:     -0.843D-01-0.705D+00-0.106D+01 0.243D+01
 Gap=     0.366 Goal=   None    Shift=    0.500
 Gap=     0.217 Goal=   None    Shift=    0.500
 RMSDP=2.75D-05 MaxDP=5.73D-04 DE=-7.29D-05 OVMax= 3.71D-03

 Cycle  11  Pass 1  IDiag  1:
 E= -462.757662918924     Delta-E=       -0.000033622677 Rises=F Damp=F
 DIIS: error= 3.04D-04 at cycle  11 NSaved=  11.
 NSaved=11 IEnMin=11 EnMin= -462.757662918924     IErMin=11 ErrMin= 3.04D-04
 ErrMax= 3.04D-04  0.00D+00 EMaxC= 1.00D+00 BMatC= 8.92D-06 BMatP= 1.66D-05
 IDIUse=1 WtCom= 1.00D+00 WtEn= 0.00D+00
 Coeff-Com:  0.323D-02-0.530D-02 0.120D-01 0.899D-01-0.119D+00-0.392D+00
 Coeff-Com:  0.445D+00 0.107D+01-0.160D+01-0.162D+01 0.312D+01
 Coeff:      0.323D-02-0.530D-02 0.120D-01 0.899D-01-0.119D+00-0.392D+00
 Coeff:      0.445D+00 0.107D+01-0.160D+01-0.162D+01 0.312D+01
 Gap=     0.366 Goal=   None    Shift=    0.500
 Gap=     0.218 Goal=   None    Shift=    0.500
 RMSDP=2.28D-05 MaxDP=4.61D-04 DE=-3.36D-05 OVMax= 3.04D-03

 Cycle  12  Pass 1  IDiag  1:
 E= -462.757680161294     Delta-E=       -0.000017242370 Rises=F Damp=F
 DIIS: error= 2.05D-04 at cycle  12 NSaved=  12.
 NSaved=12 IEnMin=12 EnMin= -462.757680161294     IErMin=12 ErrMin= 2.05D-04
 ErrMax= 2.05D-04  0.00D+00 EMaxC= 1.00D+00 BMatC= 4.72D-06 BMatP= 8.92D-06
 IDIUse=1 WtCom= 1.00D+00 WtEn= 0.00D+00
 Coeff-Com:  0.430D-02-0.829D-02-0.268D-01 0.116D+00 0.115D+00-0.608D+00
 Coeff-Com:  0.101D+00 0.863D+00 0.432D+00-0.292D+01 0.118D+01 0.175D+01
 Coeff:      0.430D-02-0.829D-02-0.268D-01 0.116D+00 0.115D+00-0.608D+00
 Coeff:      0.101D+00 0.863D+00 0.432D+00-0.292D+01 0.118D+01 0.175D+01
 Gap=     0.366 Goal=   None    Shift=    0.500
 Gap=     0.218 Goal=   None    Shift=    0.500
 RMSDP=1.52D-05 MaxDP=3.38D-04 DE=-1.72D-05 OVMax= 1.91D-03

 Cycle  13  Pass 1  IDiag  1:
 E= -462.757687018804     Delta-E=       -0.000006857511 Rises=F Damp=F
 DIIS: error= 1.45D-04 at cycle  13 NSaved=  13.
 NSaved=13 IEnMin=13 EnMin= -462.757687018804     IErMin=13 ErrMin= 1.45D-04
 ErrMax= 1.45D-04  0.00D+00 EMaxC= 1.00D+00 BMatC= 1.79D-06 BMatP= 4.72D-06
 IDIUse=1 WtCom= 1.00D+00 WtEn= 0.00D+00
 Coeff-Com: -0.638D-03 0.112D-02 0.377D-03-0.524D-01 0.474D-01 0.172D+00
 Coeff-Com: -0.156D+00-0.427D+00 0.577D+00 0.469D+00-0.891D+00-0.149D+01
 Coeff-Com:  0.275D+01
 Coeff:     -0.638D-03 0.112D-02 0.377D-03-0.524D-01 0.474D-01 0.172D+00
 Coeff:     -0.156D+00-0.427D+00 0.577D+00 0.469D+00-0.891D+00-0.149D+01
 Coeff:      0.275D+01
 Gap=     0.366 Goal=   None    Shift=    0.500
 Gap=     0.218 Goal=   None    Shift=    0.500
 RMSDP=9.08D-06 MaxDP=2.40D-04 DE=-6.86D-06 OVMax= 1.13D-03

 Cycle  14  Pass 1  IDiag  1:
 E= -462.757689494809     Delta-E=       -0.000002476005 Rises=F Damp=F
 DIIS: error= 9.94D-05 at cycle  14 NSaved=  14.
 NSaved=14 IEnMin=14 EnMin= -462.757689494809     IErMin=14 ErrMin= 9.94D-05
 ErrMax= 9.94D-05  0.00D+00 EMaxC= 1.00D+00 BMatC= 6.34D-07 BMatP= 1.79D-06
 IDIUse=1 WtCom= 1.00D+00 WtEn= 0.00D+00
 Coeff-Com: -0.153D-03 0.232D-03 0.158D-02 0.155D-01-0.291D-01-0.477D-01
 Coeff-Com:  0.829D-01 0.146D+00-0.329D+00 0.194D-01 0.284D+00 0.408D+00
 Coeff-Com: -0.258D+01 0.303D+01
 Coeff:     -0.153D-03 0.232D-03 0.158D-02 0.155D-01-0.291D-01-0.477D-01
 Coeff:      0.829D-01 0.146D+00-0.329D+00 0.194D-01 0.284D+00 0.408D+00
 Coeff:     -0.258D+01 0.303D+01
 Gap=     0.366 Goal=   None    Shift=    0.500
 Gap=     0.218 Goal=   None    Shift=    0.500
 RMSDP=5.15D-06 MaxDP=1.70D-04 DE=-2.48D-06 OVMax= 6.55D-04

 Cycle  15  Pass 1  IDiag  1:
 E= -462.757690330261     Delta-E=       -0.000000835452 Rises=F Damp=F
 DIIS: error= 7.06D-05 at cycle  15 NSaved=  15.
 NSaved=15 IEnMin=15 EnMin= -462.757690330261     IErMin=15 ErrMin= 7.06D-05
 ErrMax= 7.06D-05  0.00D+00 EMaxC= 1.00D+00 BMatC= 2.34D-07 BMatP= 6.34D-07
 IDIUse=1 WtCom= 1.00D+00 WtEn= 0.00D+00
 Coeff-Com:  0.604D-03-0.112D-02-0.235D-02 0.103D-01 0.203D-01-0.919D-01
 Coeff-Com:  0.391D-01 0.115D+00 0.140D-01-0.379D+00 0.281D+00 0.174D+00
 Coeff-Com:  0.220D+00-0.231D+01 0.291D+01
 Coeff:      0.604D-03-0.112D-02-0.235D-02 0.103D-01 0.203D-01-0.919D-01
 Coeff:      0.391D-01 0.115D+00 0.140D-01-0.379D+00 0.281D+00 0.174D+00
 Coeff:      0.220D+00-0.231D+01 0.291D+01
 Gap=     0.366 Goal=   None    Shift=    0.500
 Gap=     0.218 Goal=   None    Shift=    0.500
 RMSDP=2.87D-06 MaxDP=1.08D-04 DE=-8.35D-07 OVMax= 3.50D-04

 Cycle  16  Pass 1  IDiag  1:
 E= -462.757690610053     Delta-E=       -0.000000279792 Rises=F Damp=F
 DIIS: error= 4.86D-05 at cycle  16 NSaved=  16.
 NSaved=16 IEnMin=16 EnMin= -462.757690610053     IErMin=16 ErrMin= 4.86D-05
 ErrMax= 4.86D-05  0.00D+00 EMaxC= 1.00D+00 BMatC= 7.87D-08 BMatP= 2.34D-07
 IDIUse=1 WtCom= 1.00D+00 WtEn= 0.00D+00
 Coeff-Com: -0.395D-03 0.798D-03 0.150D-02-0.115D-01-0.817D-02 0.655D-01
 Coeff-Com: -0.248D-01-0.120D+00 0.756D-01 0.227D+00-0.257D+00-0.262D+00
 Coeff-Com:  0.458D+00 0.762D+00-0.319D+01 0.329D+01
 Coeff:     -0.395D-03 0.798D-03 0.150D-02-0.115D-01-0.817D-02 0.655D-01
 Coeff:     -0.248D-01-0.120D+00 0.756D-01 0.227D+00-0.257D+00-0.262D+00
 Coeff:      0.458D+00 0.762D+00-0.319D+01 0.329D+01
 Gap=     0.366 Goal=   None    Shift=    0.500
 Gap=     0.218 Goal=   None    Shift=    0.500
 RMSDP=1.61D-06 MaxDP=7.42D-05 DE=-2.80D-07 OVMax= 2.33D-04

 Cycle  17  Pass 1  IDiag  1:
 E= -462.757690706417     Delta-E=       -0.000000096363 Rises=F Damp=F
 DIIS: error= 3.40D-05 at cycle  17 NSaved=  17.
 NSaved=17 IEnMin=17 EnMin= -462.757690706417     IErMin=17 ErrMin= 3.40D-05
 ErrMax= 3.40D-05  0.00D+00 EMaxC= 1.00D+00 BMatC= 2.78D-08 BMatP= 7.87D-08
 IDIUse=1 WtCom= 1.00D+00 WtEn= 0.00D+00
 Coeff-Com:  0.214D-03-0.444D-03-0.696D-04 0.768D-02-0.155D-02-0.416D-01
 Coeff-Com:  0.330D-01 0.745D-01-0.875D-01-0.890D-01 0.144D+00 0.200D+00
 Coeff-Com: -0.584D+00 0.628D-01 0.172D+01-0.404D+01 0.361D+01
 Coeff:      0.214D-03-0.444D-03-0.696D-04 0.768D-02-0.155D-02-0.416D-01
 Coeff:      0.330D-01 0.745D-01-0.875D-01-0.890D-01 0.144D+00 0.200D+00
 Coeff:     -0.584D+00 0.628D-01 0.172D+01-0.404D+01 0.361D+01
 Gap=     0.366 Goal=   None    Shift=    0.500
 Gap=     0.218 Goal=   None    Shift=    0.500
 RMSDP=9.12D-07 MaxDP=4.68D-05 DE=-9.64D-08 OVMax= 1.64D-04

 SCF Done:  E(ULC-wHPBE) =  -462.757690706     A.U. after   17 cycles
            NFock= 17  Conv=0.91D-06     -V/T= 2.0056
 <Sx>= 0.0000 <Sy>= 0.0000 <Sz>= 0.5000 <S**2>= 0.8065 S= 0.5278
 <L.S>= 0.000000000000E+00
 KE= 4.601796920473D+02 PE=-2.256496666782D+03 EE= 7.350869367394D+02
 Annihilation of the first spin contaminant:
 S**2 before annihilation     0.8065,   after     0.7525
 Leave Link  502 at Sun Jan 17 09:42:50 2021, MaxMem=  4026531840 cpu:            1138.2 elap:             142.7
 (Enter /opt/ohpc/pub/libs/gaussian/g16-A.03/sandybridge/g16/l508.exe)
 QCSCF skips out because SCF is already converged.
 Leave Link  508 at Sun Jan 17 09:42:50 2021, MaxMem=  4026531840 cpu:               0.1 elap:               0.0
 (Enter /opt/ohpc/pub/libs/gaussian/g16-A.03/sandybridge/g16/l601.exe)
 Copying SCF densities to generalized density rwf, IOpCl= 1 IROHF=0.

 **********************************************************************

            Population analysis using the SCF density.

 **********************************************************************

 Orbital symmetries:
 Alpha Orbitals:
       Occupied  (A) (A) (A) (A) (A) (A) (A) (A) (A) (A) (A) (A)
                 (A) (A) (A) (A) (A) (A) (A) (A) (A) (A) (A) (A)
                 (A) (A) (A) (A) (A) (A) (A) (A) (A) (A) (A) (A)
                 (A) (A) (A) (A) (A)
       Virtual   (A) (A) (A) (A) (A) (A) (A) (A) (A) (A) (A) (A)
                 (A) (A) (A) (A) (A) (A) (A) (A) (A) (A) (A) (A)
                 (A) (A) (A) (A) (A) (A) (A) (A) (A) (A) (A) (A)
                 (A) (A) (A) (A) (A) (A) (A) (A) (A) (A) (A) (A)
                 (A) (A) (A) (A) (A) (A) (A) (A) (A) (A) (A) (A)
                 (A) (A) (A) (A) (A) (A) (A) (A) (A) (A) (A) (A)
                 (A) (A) (A) (A) (A) (A) (A) (A) (A) (A) (A) (A)
                 (A) (A) (A) (A) (A) (A) (A) (A) (A) (A) (A) (A)
                 (A) (A) (A) (A) (A) (A) (A) (A) (A) (A) (A) (A)
                 (A) (A) (A) (A) (A) (A) (A) (A) (A) (A) (A) (A)
                 (A) (A) (A) (A) (A) (A) (A) (A) (A) (A) (A) (A)
                 (A) (A) (A) (A) (A) (A) (A) (A) (A) (A) (A) (A)
                 (A) (A) (A) (A) (A) (A) (A) (A) (A) (A) (A) (A)
                 (A) (A) (A) (A) (A) (A) (A) (A) (A) (A) (A) (A)
                 (A) (A) (A) (A) (A) (A) (A) (A) (A) (A) (A) (A)
                 (A) (A) (A) (A) (A) (A) (A) (A) (A) (A) (A) (A)
                 (A) (A) (A) (A) (A) (A) (A) (A) (A) (A) (A) (A)
                 (A) (A) (A) (A) (A) (A) (A) (A) (A) (A) (A) (A)
                 (A) (A) (A) (A) (A) (A) (A) (A) (A) (A) (A) (A)
                 (A) (A) (A) (A) (A) (A) (A) (A) (A) (A) (A) (A)
                 (A) (A) (A) (A) (A) (A) (A)
 Beta  Orbitals:
       Occupied  (A) (A) (A) (A) (A) (A) (A) (A) (A) (A) (A) (A)
                 (A) (A) (A) (A) (A) (A) (A) (A) (A) (A) (A) (A)
                 (A) (A) (A) (A) (A) (A) (A) (A) (A) (A) (A) (A)
                 (A) (A) (A) (A)
       Virtual   (A) (A) (A) (A) (A) (A) (A) (A) (A) (A) (A) (A)
                 (A) (A) (A) (A) (A) (A) (A) (A) (A) (A) (A) (A)
                 (A) (A) (A) (A) (A) (A) (A) (A) (A) (A) (A) (A)
                 (A) (A) (A) (A) (A) (A) (A) (A) (A) (A) (A) (A)
                 (A) (A) (A) (A) (A) (A) (A) (A) (A) (A) (A) (A)
                 (A) (A) (A) (A) (A) (A) (A) (A) (A) (A) (A) (A)
                 (A) (A) (A) (A) (A) (A) (A) (A) (A) (A) (A) (A)
                 (A) (A) (A) (A) (A) (A) (A) (A) (A) (A) (A) (A)
                 (A) (A) (A) (A) (A) (A) (A) (A) (A) (A) (A) (A)
                 (A) (A) (A) (A) (A) (A) (A) (A) (A) (A) (A) (A)
                 (A) (A) (A) (A) (A) (A) (A) (A) (A) (A) (A) (A)
                 (A) (A) (A) (A) (A) (A) (A) (A) (A) (A) (A) (A)
                 (A) (A) (A) (A) (A) (A) (A) (A) (A) (A) (A) (A)
                 (A) (A) (A) (A) (A) (A) (A) (A) (A) (A) (A) (A)
                 (A) (A) (A) (A) (A) (A) (A) (A) (A) (A) (A) (A)
                 (A) (A) (A) (A) (A) (A) (A) (A) (A) (A) (A) (A)
                 (A) (A) (A) (A) (A) (A) (A) (A) (A) (A) (A) (A)
                 (A) (A) (A) (A) (A) (A) (A) (A) (A) (A) (A) (A)
                 (A) (A) (A) (A) (A) (A) (A) (A) (A) (A) (A) (A)
                 (A) (A) (A) (A) (A) (A) (A) (A) (A) (A) (A) (A)
                 (A) (A) (A) (A) (A) (A) (A) (A)
 The electronic state is 2-A.
 Alpha  occ. eigenvalues --  -10.28324 -10.28311 -10.25969 -10.25969 -10.25610
 Alpha  occ. eigenvalues --  -10.25609 -10.25608 -10.25606 -10.24150 -10.24150
 Alpha  occ. eigenvalues --  -10.24148 -10.24148  -1.17040  -1.14266  -1.07397
 Alpha  occ. eigenvalues --   -1.03744  -1.02761  -1.01771  -0.91107  -0.90473
 Alpha  occ. eigenvalues --   -0.87499  -0.85945  -0.81606  -0.77823  -0.74784
 Alpha  occ. eigenvalues --   -0.74117  -0.72444  -0.70875  -0.69908  -0.69544
 Alpha  occ. eigenvalues --   -0.68919  -0.67426  -0.65573  -0.63415  -0.61798
 Alpha  occ. eigenvalues --   -0.60677  -0.60343  -0.56232  -0.52309  -0.52240
 Alpha  occ. eigenvalues --   -0.51235
 Alpha virt. eigenvalues --   -0.14665  -0.10554  -0.10346  -0.08360  -0.00356
 Alpha virt. eigenvalues --    0.00539   0.01666   0.03457   0.03986   0.05174
 Alpha virt. eigenvalues --    0.05684   0.06077   0.06620   0.06649   0.07615
 Alpha virt. eigenvalues --    0.08402   0.08461   0.09820   0.13579   0.13893
 Alpha virt. eigenvalues --    0.14294   0.14342   0.16261   0.16344   0.16434
 Alpha virt. eigenvalues --    0.16620   0.16757   0.17971   0.18921   0.18927
 Alpha virt. eigenvalues --    0.19856   0.20708   0.21075   0.22248   0.22960
 Alpha virt. eigenvalues --    0.23406   0.24978   0.25683   0.27180   0.27919
 Alpha virt. eigenvalues --    0.28473   0.28763   0.30208   0.30456   0.31000
 Alpha virt. eigenvalues --    0.32249   0.32721   0.33750   0.34627   0.35607
 Alpha virt. eigenvalues --    0.35730   0.35888   0.36502   0.36908   0.37853
 Alpha virt. eigenvalues --    0.39756   0.39912   0.40855   0.41147   0.42301
 Alpha virt. eigenvalues --    0.42685   0.43240   0.43514   0.44622   0.46238
 Alpha virt. eigenvalues --    0.46471   0.46663   0.46737   0.48241   0.52136
 Alpha virt. eigenvalues --    0.52877   0.55363   0.56610   0.59021   0.60443
 Alpha virt. eigenvalues --    0.62317   0.62328   0.62833   0.63732   0.63740
 Alpha virt. eigenvalues --    0.64917   0.69169   0.70878   0.74447   0.75734
 Alpha virt. eigenvalues --    0.83048   0.84155   1.01320   1.11797   1.12755
 Alpha virt. eigenvalues --    1.15276   1.16024   1.16197   1.17338   1.17592
 Alpha virt. eigenvalues --    1.17800   1.18426   1.20957   1.21135   1.22176
 Alpha virt. eigenvalues --    1.22324   1.22657   1.23574   1.24375   1.24458
 Alpha virt. eigenvalues --    1.24789   1.25175   1.25496   1.27706   1.31936
 Alpha virt. eigenvalues --    1.32614   1.34265   1.34354   1.36543   1.37024
 Alpha virt. eigenvalues --    1.37471   1.37825   1.38368   1.38697   1.39071
 Alpha virt. eigenvalues --    1.39414   1.40649   1.41479   1.41496   1.41933
 Alpha virt. eigenvalues --    1.43726   1.43733   1.45052   1.45168   1.46152
 Alpha virt. eigenvalues --    1.48134   1.48658   1.49114   1.49136   1.51051
 Alpha virt. eigenvalues --    1.51071   1.57064   1.57786   1.60796   1.64798
 Alpha virt. eigenvalues --    1.69541   1.70464   1.70716   1.70863   1.71248
 Alpha virt. eigenvalues --    1.73420   1.73875   1.74312   1.79789   1.79840
 Alpha virt. eigenvalues --    1.80242   1.80688   1.80738   1.80921   1.83049
 Alpha virt. eigenvalues --    1.83090   1.83159   1.83300   1.84192   1.85676
 Alpha virt. eigenvalues --    1.86973   1.87252   1.90139   1.90518   1.91803
 Alpha virt. eigenvalues --    1.92426   1.94152   1.94401   2.00586   2.00918
 Alpha virt. eigenvalues --    2.03473   2.15125   2.17787   2.18030   2.19688
 Alpha virt. eigenvalues --    2.19695   2.21165   2.21603   2.21667   2.24346
 Alpha virt. eigenvalues --    2.25194   2.25273   2.25694   2.26018   2.27961
 Alpha virt. eigenvalues --    2.28243   2.35280   2.39994   2.41229   2.41295
 Alpha virt. eigenvalues --    2.43315   2.44447   2.44791   2.45764   2.49744
 Alpha virt. eigenvalues --    2.52773   2.54558   2.54869   2.55295   2.56484
 Alpha virt. eigenvalues --    2.58439   2.60605   2.60663   2.61451   2.63193
 Alpha virt. eigenvalues --    2.66980   2.72126   2.72249   2.72631   2.75152
 Alpha virt. eigenvalues --    2.89250   2.90085   2.92958   2.95219   2.95813
 Alpha virt. eigenvalues --    2.96226   2.96814   2.99281   3.01357   3.03048
 Alpha virt. eigenvalues --    3.06119   3.06479   3.08349   3.08931   3.10954
 Alpha virt. eigenvalues --    3.12946   3.22157   3.23911   3.25317   3.30973
 Alpha virt. eigenvalues --    3.31499   3.42487   3.45654   3.64198   3.73159
 Alpha virt. eigenvalues --   20.91235  21.19621  21.46264  21.56866  21.60088
 Alpha virt. eigenvalues --   21.65963  21.78531  21.81805  21.84332  21.86062
 Alpha virt. eigenvalues --   21.95320  21.98701
  Beta  occ. eigenvalues --  -10.28150 -10.28133 -10.25564 -10.25564 -10.25406
  Beta  occ. eigenvalues --  -10.25406 -10.25403 -10.25402 -10.24279 -10.24278
  Beta  occ. eigenvalues --  -10.24276 -10.24276  -1.16428  -1.13714  -1.06729
  Beta  occ. eigenvalues --   -1.03529  -1.02627  -1.00474  -0.90622  -0.90249
  Beta  occ. eigenvalues --   -0.87092  -0.85636  -0.81459  -0.77524  -0.74571
  Beta  occ. eigenvalues --   -0.73939  -0.71800  -0.70709  -0.69616  -0.69467
  Beta  occ. eigenvalues --   -0.68675  -0.66028  -0.63229  -0.62814  -0.61634
  Beta  occ. eigenvalues --   -0.60582  -0.60073  -0.52028  -0.51947  -0.51437
  Beta virt. eigenvalues --   -0.29629  -0.12090  -0.09615  -0.08967  -0.05842
  Beta virt. eigenvalues --   -0.00275   0.00643   0.01748   0.03580   0.04180
  Beta virt. eigenvalues --    0.05423   0.06083   0.06104   0.06769   0.06948
  Beta virt. eigenvalues --    0.08670   0.08688   0.08944   0.09935   0.13891
  Beta virt. eigenvalues --    0.14262   0.14499   0.14599   0.16381   0.16586
  Beta virt. eigenvalues --    0.16647   0.16708   0.17012   0.18217   0.18990
  Beta virt. eigenvalues --    0.19154   0.19988   0.21135   0.21338   0.22221
  Beta virt. eigenvalues --    0.23096   0.23642   0.25176   0.26440   0.27460
  Beta virt. eigenvalues --    0.28346   0.28648   0.29022   0.30551   0.30892
  Beta virt. eigenvalues --    0.31401   0.32497   0.33002   0.34239   0.35242
  Beta virt. eigenvalues --    0.35910   0.35988   0.36098   0.36569   0.37248
  Beta virt. eigenvalues --    0.37872   0.40016   0.40119   0.40848   0.41446
  Beta virt. eigenvalues --    0.42436   0.42961   0.43389   0.43829   0.44746
  Beta virt. eigenvalues --    0.46391   0.46604   0.46899   0.46921   0.48579
  Beta virt. eigenvalues --    0.52292   0.53151   0.55619   0.56745   0.59164
  Beta virt. eigenvalues --    0.60528   0.62568   0.62671   0.62966   0.63939
  Beta virt. eigenvalues --    0.64112   0.65214   0.69288   0.71082   0.74643
  Beta virt. eigenvalues --    0.75787   0.83128   0.84241   1.01521   1.12030
  Beta virt. eigenvalues --    1.13156   1.15811   1.16511   1.16713   1.17518
  Beta virt. eigenvalues --    1.17865   1.18116   1.18813   1.21286   1.21510
  Beta virt. eigenvalues --    1.22478   1.22743   1.23233   1.23950   1.24585
  Beta virt. eigenvalues --    1.24765   1.25155   1.25169   1.26008   1.28311
  Beta virt. eigenvalues --    1.32556   1.33456   1.34920   1.35043   1.37204
  Beta virt. eigenvalues --    1.37472   1.37861   1.37985   1.39088   1.39275
  Beta virt. eigenvalues --    1.39906   1.39918   1.40997   1.41714   1.41866
  Beta virt. eigenvalues --    1.42296   1.43875   1.44342   1.45356   1.45389
  Beta virt. eigenvalues --    1.46178   1.48355   1.49165   1.49361   1.49588
  Beta virt. eigenvalues --    1.51253   1.51506   1.57245   1.58301   1.61363
  Beta virt. eigenvalues --    1.65867   1.69921   1.70898   1.70911   1.71004
  Beta virt. eigenvalues --    1.71966   1.73427   1.74107   1.74751   1.79868
  Beta virt. eigenvalues --    1.80398   1.80439   1.80853   1.81068   1.81190
  Beta virt. eigenvalues --    1.83405   1.83430   1.83434   1.83723   1.84558
  Beta virt. eigenvalues --    1.86337   1.87405   1.87472   1.90881   1.90942
  Beta virt. eigenvalues --    1.92333   1.93060   1.94373   1.94612   2.00926
  Beta virt. eigenvalues --    2.01631   2.03691   2.15600   2.18090   2.18318
  Beta virt. eigenvalues --    2.20150   2.20558   2.21429   2.22327   2.22454
  Beta virt. eigenvalues --    2.25342   2.25827   2.25862   2.26112   2.26635
  Beta virt. eigenvalues --    2.28284   2.28572   2.36051   2.40126   2.41482
  Beta virt. eigenvalues --    2.41662   2.43319   2.44814   2.45050   2.46057
  Beta virt. eigenvalues --    2.50314   2.52863   2.55338   2.55532   2.56026
  Beta virt. eigenvalues --    2.56657   2.58727   2.60775   2.60943   2.61658
  Beta virt. eigenvalues --    2.63226   2.67032   2.72260   2.72354   2.72728
  Beta virt. eigenvalues --    2.75231   2.89689   2.90419   2.93080   2.95616
  Beta virt. eigenvalues --    2.95875   2.96261   2.97269   2.99998   3.01885
  Beta virt. eigenvalues --    3.03194   3.06321   3.06681   3.08683   3.09128
  Beta virt. eigenvalues --    3.11251   3.13206   3.22249   3.24189   3.25404
  Beta virt. eigenvalues --    3.31448   3.32026   3.42735   3.45912   3.64355
  Beta virt. eigenvalues --    3.73345  20.91462  21.19816  21.46572  21.56967
  Beta virt. eigenvalues --   21.60081  21.66436  21.78918  21.81856  21.84492
  Beta virt. eigenvalues --   21.86288  21.95558  21.98907
          Condensed to atoms (all electrons):
               1          2          3          4          5          6
     1  C    4.953720   0.480926   0.387326  -0.054649  -0.027752  -0.029401
     2  C    0.480926   4.866620  -0.047613   0.480574  -0.026352  -0.046912
     3  C    0.387326  -0.047613   5.249051  -0.029013   0.388516  -0.157126
     4  C   -0.054649   0.480574  -0.029013   4.954616  -0.027237   0.385987
     5  C   -0.027752  -0.026352   0.388516  -0.027237   5.341703   0.387141
     6  C   -0.029401  -0.046912  -0.157126   0.385987   0.387141   5.251005
     7  H   -0.033980   0.403145   0.010918  -0.033998  -0.002548   0.010941
     8  H   -0.004803   0.004996   0.392080  -0.000574  -0.040430   0.007419
     9  H    0.006143  -0.031186   0.001189   0.401523   0.009044  -0.029872
    10  H   -0.000571   0.004996   0.007410  -0.004805  -0.040453   0.392113
    11  C    0.019422  -0.000368  -0.075437   0.019322   0.149499  -0.075226
    12  C   -0.002217   0.000085   0.025888   0.006260  -0.075135  -0.018474
    13  C    0.006188   0.000125  -0.018432  -0.002301  -0.075537   0.026230
    14  C    0.000322   0.000004  -0.002230  -0.000927   0.019347   0.006204
    15  C   -0.000926   0.000002   0.006244   0.000329   0.019400  -0.002292
    16  C    0.000004  -0.000003   0.000092   0.000002  -0.000370   0.000119
    17  H   -0.000034   0.000047   0.000544   0.000623  -0.010590  -0.001710
    18  H    0.000631   0.000047  -0.001746  -0.000036  -0.010569   0.000557
    19  H    0.000001   0.000000  -0.000011  -0.000008  -0.000987   0.000052
    20  H   -0.000008   0.000000   0.000052   0.000001  -0.000987  -0.000011
    21  H    0.000000  -0.000000  -0.000001   0.000000  -0.000136  -0.000001
    22  H    0.401461  -0.031158  -0.029801   0.006138   0.009023   0.001182
               7          8          9         10         11         12
     1  C   -0.033980  -0.004803   0.006143  -0.000571   0.019422  -0.002217
     2  C    0.403145   0.004996  -0.031186   0.004996  -0.000368   0.000085
     3  C    0.010918   0.392080   0.001189   0.007410  -0.075437   0.025888
     4  C   -0.033998  -0.000574   0.401523  -0.004805   0.019322   0.006260
     5  C   -0.002548  -0.040430   0.009044  -0.040453   0.149499  -0.075135
     6  C    0.010941   0.007419  -0.029872   0.392113  -0.075226  -0.018474
     7  H    0.460507  -0.000062  -0.003376  -0.000062  -0.000136  -0.000001
     8  H   -0.000062   0.455306   0.000010  -0.000051  -0.010585   0.000544
     9  H   -0.003376   0.000010   0.466222  -0.002541  -0.000989   0.000053
    10  H   -0.000062  -0.000051  -0.002541   0.455304  -0.010578  -0.001742
    11  C   -0.000136  -0.010585  -0.000989  -0.010578   5.341693   0.388453
    12  C   -0.000001   0.000544   0.000053  -0.001742   0.388453   5.248869
    13  C   -0.000001  -0.001709  -0.000011   0.000555   0.387215  -0.157149
    14  C    0.000000  -0.000034  -0.000008   0.000629  -0.027774   0.387351
    15  C    0.000000   0.000624   0.000001  -0.000036  -0.027206  -0.029069
    16  C   -0.000000   0.000047   0.000000   0.000047  -0.026347  -0.047591
    17  H   -0.000001   0.000004  -0.000002  -0.001346  -0.040426   0.392068
    18  H   -0.000001  -0.001345  -0.000001   0.000004  -0.040456   0.007404
    19  H   -0.000000  -0.000001  -0.000000  -0.000002   0.009023  -0.029804
    20  H   -0.000000  -0.000002   0.000000  -0.000001   0.009046   0.001188
    21  H   -0.000000  -0.000001  -0.000000  -0.000001  -0.002548   0.010920
    22  H   -0.003374  -0.002540  -0.000085   0.000010  -0.000985  -0.000010
              13         14         15         16         17         18
     1  C    0.006188   0.000322  -0.000926   0.000004  -0.000034   0.000631
     2  C    0.000125   0.000004   0.000002  -0.000003   0.000047   0.000047
     3  C   -0.018432  -0.002230   0.006244   0.000092   0.000544  -0.001746
     4  C   -0.002301  -0.000927   0.000329   0.000002   0.000623  -0.000036
     5  C   -0.075537   0.019347   0.019400  -0.000370  -0.010590  -0.010569
     6  C    0.026230   0.006204  -0.002292   0.000119  -0.001710   0.000557
     7  H   -0.000001   0.000000   0.000000  -0.000000  -0.000001  -0.000001
     8  H   -0.001709  -0.000034   0.000624   0.000047   0.000004  -0.001345
     9  H   -0.000011  -0.000008   0.000001   0.000000  -0.000002  -0.000001
    10  H    0.000555   0.000629  -0.000036   0.000047  -0.001346   0.000004
    11  C    0.387215  -0.027774  -0.027206  -0.026347  -0.040426  -0.040456
    12  C   -0.157149   0.387351  -0.029069  -0.047591   0.392068   0.007404
    13  C    5.251238  -0.029315   0.385911  -0.046938   0.007424   0.392129
    14  C   -0.029315   4.953732  -0.054658   0.480918  -0.004791  -0.000569
    15  C    0.385911  -0.054658   4.954645   0.480587  -0.000575  -0.004821
    16  C   -0.046938   0.480918   0.480587   4.866608   0.004997   0.004995
    17  H    0.007424  -0.004791  -0.000575   0.004997   0.455308  -0.000051
    18  H    0.392129  -0.000569  -0.004821   0.004995  -0.000051   0.455300
    19  H    0.001186   0.401463   0.006137  -0.031158  -0.002539   0.000010
    20  H   -0.029879   0.006143   0.401526  -0.031183   0.000010  -0.002542
    21  H    0.010939  -0.033979  -0.033998   0.403144  -0.000062  -0.000062
    22  H    0.000051   0.000001  -0.000008   0.000000  -0.000001  -0.000002
              19         20         21         22
     1  C    0.000001  -0.000008   0.000000   0.401461
     2  C    0.000000   0.000000  -0.000000  -0.031158
     3  C   -0.000011   0.000052  -0.000001  -0.029801
     4  C   -0.000008   0.000001   0.000000   0.006138
     5  C   -0.000987  -0.000987  -0.000136   0.009023
     6  C    0.000052  -0.000011  -0.000001   0.001182
     7  H   -0.000000  -0.000000  -0.000000  -0.003374
     8  H   -0.000001  -0.000002  -0.000001  -0.002540
     9  H   -0.000000   0.000000  -0.000000  -0.000085
    10  H   -0.000002  -0.000001  -0.000001   0.000010
    11  C    0.009023   0.009046  -0.002548  -0.000985
    12  C   -0.029804   0.001188   0.010920  -0.000010
    13  C    0.001186  -0.029879   0.010939   0.000051
    14  C    0.401463   0.006143  -0.033979   0.000001
    15  C    0.006137   0.401526  -0.033998  -0.000008
    16  C   -0.031158  -0.031183   0.403144   0.000000
    17  H   -0.002539   0.000010  -0.000062  -0.000001
    18  H    0.000010  -0.002542  -0.000062  -0.000002
    19  H    0.466208  -0.000085  -0.003374   0.000000
    20  H   -0.000085   0.466222  -0.003376  -0.000000
    21  H   -0.003374  -0.003376   0.460506  -0.000000
    22  H    0.000000  -0.000000  -0.000000   0.466205
          Atomic-Atomic Spin Densities.
               1          2          3          4          5          6
     1  C   -0.148301   0.013799   0.039748   0.007319  -0.019954  -0.028133
     2  C    0.013799   0.333466  -0.001709   0.013910  -0.015098  -0.001933
     3  C    0.039748  -0.001709   0.054905  -0.028236   0.061232   0.049896
     4  C    0.007319   0.013910  -0.028236  -0.148668  -0.020162   0.040215
     5  C   -0.019954  -0.015098   0.061232  -0.020162   0.198233   0.061664
     6  C   -0.028133  -0.001933   0.049896   0.040215   0.061664   0.054341
     7  H    0.000331   0.002395  -0.000655   0.000334   0.000036  -0.000662
     8  H    0.000822   0.000045  -0.001316  -0.000345   0.003547   0.000576
     9  H    0.000549  -0.000235  -0.000682  -0.001350   0.000187   0.002167
    10  H   -0.000345   0.000044   0.000577   0.000834   0.003560  -0.001332
    11  C    0.006023  -0.000468  -0.014039   0.006077  -0.138188  -0.014127
    12  C    0.000954   0.000043  -0.002392  -0.001491  -0.014162   0.004604
    13  C   -0.001484   0.000034   0.004605   0.000980  -0.014000  -0.002492
    14  C   -0.000304   0.000005   0.000956   0.000660   0.006069  -0.001485
    15  C    0.000660   0.000006  -0.001491  -0.000308   0.006030   0.000978
    16  C    0.000005  -0.000000   0.000042   0.000006  -0.000468   0.000035
    17  H    0.000058   0.000001  -0.000180  -0.000296  -0.002697  -0.000164
    18  H   -0.000299   0.000001  -0.000152   0.000060  -0.002701  -0.000185
    19  H   -0.000001   0.000000   0.000003   0.000005   0.000038  -0.000007
    20  H    0.000005   0.000000  -0.000007  -0.000001   0.000038   0.000003
    21  H    0.000000   0.000000   0.000000   0.000000   0.000001   0.000000
    22  H   -0.001324  -0.000241   0.002136   0.000550   0.000194  -0.000679
               7          8          9         10         11         12
     1  C    0.000331   0.000822   0.000549  -0.000345   0.006023   0.000954
     2  C    0.002395   0.000045  -0.000235   0.000044  -0.000468   0.000043
     3  C   -0.000655  -0.001316  -0.000682   0.000577  -0.014039  -0.002392
     4  C    0.000334  -0.000345  -0.001350   0.000834   0.006077  -0.001491
     5  C    0.000036   0.003547   0.000187   0.003560  -0.138188  -0.014162
     6  C   -0.000662   0.000576   0.002167  -0.001332  -0.014127   0.004604
     7  H   -0.017354   0.000006   0.000065   0.000006   0.000001   0.000000
     8  H    0.000006  -0.009251  -0.000004   0.000019  -0.002695  -0.000180
     9  H    0.000065  -0.000004   0.003903   0.000100   0.000038  -0.000007
    10  H    0.000006   0.000019   0.000100  -0.009252  -0.002702  -0.000156
    11  C    0.000001  -0.002695   0.000038  -0.002702   0.198227   0.061179
    12  C    0.000000  -0.000180  -0.000007  -0.000156   0.061179   0.055199
    13  C    0.000000  -0.000161   0.000003  -0.000185   0.061713   0.049902
    14  C    0.000000   0.000058   0.000005  -0.000298  -0.019913   0.039640
    15  C    0.000000  -0.000297  -0.000001   0.000060  -0.020204  -0.028226
    16  C    0.000000   0.000001   0.000000   0.000001  -0.015099  -0.001686
    17  H    0.000000  -0.000004  -0.000004  -0.000044   0.003540  -0.001300
    18  H    0.000000  -0.000044   0.000000  -0.000004   0.003568   0.000580
    19  H   -0.000000   0.000000   0.000000  -0.000004   0.000195   0.002137
    20  H   -0.000000  -0.000004  -0.000000   0.000000   0.000186  -0.000681
    21  H    0.000000   0.000000  -0.000000   0.000000   0.000036  -0.000654
    22  H    0.000065   0.000099   0.000009  -0.000004   0.000037   0.000003
              13         14         15         16         17         18
     1  C   -0.001484  -0.000304   0.000660   0.000005   0.000058  -0.000299
     2  C    0.000034   0.000005   0.000006  -0.000000   0.000001   0.000001
     3  C    0.004605   0.000956  -0.001491   0.000042  -0.000180  -0.000152
     4  C    0.000980   0.000660  -0.000308   0.000006  -0.000296   0.000060
     5  C   -0.014000   0.006069   0.006030  -0.000468  -0.002697  -0.002701
     6  C   -0.002492  -0.001485   0.000978   0.000035  -0.000164  -0.000185
     7  H    0.000000   0.000000   0.000000   0.000000   0.000000   0.000000
     8  H   -0.000161   0.000058  -0.000297   0.000001  -0.000004  -0.000044
     9  H    0.000003   0.000005  -0.000001   0.000000  -0.000004   0.000000
    10  H   -0.000185  -0.000298   0.000060   0.000001  -0.000044  -0.000004
    11  C    0.061713  -0.019913  -0.020204  -0.015099   0.003540   0.003568
    12  C    0.049902   0.039640  -0.028226  -0.001686  -0.001300   0.000580
    13  C    0.054031  -0.028152   0.040339  -0.001954   0.000573  -0.001352
    14  C   -0.028152  -0.148265   0.007323   0.013773   0.000814  -0.000346
    15  C    0.040339   0.007323  -0.148717   0.013932  -0.000344   0.000844
    16  C   -0.001954   0.013773   0.013932   0.333467   0.000045   0.000044
    17  H    0.000573   0.000814  -0.000344   0.000045  -0.009252   0.000019
    18  H   -0.001352  -0.000346   0.000844   0.000044   0.000019  -0.009252
    19  H   -0.000681  -0.001326   0.000551  -0.000242   0.000099  -0.000004
    20  H    0.002168   0.000549  -0.001351  -0.000235  -0.000004   0.000100
    21  H   -0.000662   0.000330   0.000334   0.002395   0.000006   0.000006
    22  H   -0.000007  -0.000001   0.000005   0.000000   0.000000  -0.000004
              19         20         21         22
     1  C   -0.000001   0.000005   0.000000  -0.001324
     2  C    0.000000   0.000000   0.000000  -0.000241
     3  C    0.000003  -0.000007   0.000000   0.002136
     4  C    0.000005  -0.000001   0.000000   0.000550
     5  C    0.000038   0.000038   0.000001   0.000194
     6  C   -0.000007   0.000003   0.000000  -0.000679
     7  H   -0.000000  -0.000000   0.000000   0.000065
     8  H    0.000000  -0.000004   0.000000   0.000099
     9  H    0.000000  -0.000000  -0.000000   0.000009
    10  H   -0.000004   0.000000   0.000000  -0.000004
    11  C    0.000195   0.000186   0.000036   0.000037
    12  C    0.002137  -0.000681  -0.000654   0.000003
    13  C   -0.000681   0.002168  -0.000662  -0.000007
    14  C   -0.001326   0.000549   0.000330  -0.000001
    15  C    0.000551  -0.001351   0.000334   0.000005
    16  C   -0.000242  -0.000235   0.002395   0.000000
    17  H    0.000099  -0.000004   0.000006   0.000000
    18  H   -0.000004   0.000100   0.000006  -0.000004
    19  H    0.003909   0.000009   0.000065  -0.000000
    20  H    0.000009   0.003903   0.000065   0.000000
    21  H    0.000065   0.000065  -0.017353  -0.000000
    22  H   -0.000000   0.000000  -0.000000   0.003910
 Mulliken charges and spin densities:
               1          2
     1  C   -0.101803  -0.129873
     2  C   -0.057977   0.344063
     3  C   -0.107902   0.163242
     4  C   -0.101829  -0.129907
     5  C    0.015409   0.113397
     6  C   -0.107925   0.163279
     7  H    0.192028  -0.015432
     8  H    0.201103  -0.009129
     9  H    0.183886   0.004744
    10  H    0.201120  -0.009127
    11  C    0.015390   0.113385
    12  C   -0.107892   0.163306
    13  C   -0.107919   0.163220
    14  C   -0.101828  -0.129907
    15  C   -0.101816  -0.129877
    16  C   -0.057969   0.344062
    17  H    0.201104  -0.009133
    18  H    0.201123  -0.009123
    19  H    0.183889   0.004747
    20  H    0.183886   0.004744
    21  H    0.192029  -0.015431
    22  H    0.183892   0.004748
 Sum of Mulliken charges =   1.00000   1.00000
 Mulliken charges and spin densities with hydrogens summed into heavy atoms:
               1          2
     1  C    0.082090  -0.125125
     2  C    0.134051   0.328632
     3  C    0.093201   0.154114
     4  C    0.082057  -0.125164
     5  C    0.015409   0.113397
     6  C    0.093195   0.154152
    11  C    0.015390   0.113385
    12  C    0.093213   0.154173
    13  C    0.093204   0.154096
    14  C    0.082061  -0.125160
    15  C    0.082070  -0.125133
    16  C    0.134059   0.328631
 Electronic spatial extent (au):  <R**2>=           2268.7591
 Charge=              1.0000 electrons
 Dipole moment (field-independent basis, Debye):
    X=             -0.0001    Y=              0.0001    Z=              0.0003  Tot=              0.0003
 Quadrupole moment (field-independent basis, Debye-Ang):
   XX=            -18.2446   YY=            -52.1318   ZZ=            -69.4216
   XY=              0.0008   XZ=              0.0005   YZ=             -0.0002
 Traceless Quadrupole moment (field-independent basis, Debye-Ang):
   XX=             28.3548   YY=             -5.5325   ZZ=            -22.8223
   XY=              0.0008   XZ=              0.0005   YZ=             -0.0002
 Octapole moment (field-independent basis, Debye-Ang**2):
  XXX=             -0.0002  YYY=              0.0012  ZZZ=              0.0003  XYY=             -0.0005
  XXY=              0.0013  XXZ=              0.0109  XZZ=              0.0001  YZZ=             -0.0010
  YYZ=              0.0003  XYZ=            -17.1792
 Hexadecapole moment (field-independent basis, Debye-Ang**3):
 XXXX=          -1599.1326 YYYY=           -435.4840 ZZZZ=           -141.3410 XXXY=             -0.0037
 XXXZ=              0.0065 YYYX=              0.0095 YYYZ=             -0.0007 ZZZX=              0.0015
 ZZZY=             -0.0007 XXYY=           -395.3665 XXZZ=           -449.9923 YYZZ=            -99.6760
 XXYZ=             -0.0003 YYXZ=              0.0024 ZZXY=             -0.0022
 N-N= 5.984723472889D+02 E-N=-2.256496542354D+03  KE= 4.601796920473D+02
                          Isotropic Fermi Contact Couplings
        Atom                 a.u.       MegaHertz       Gauss      10(-4) cm-1
     1  C(13)             -0.01150     -12.92852      -4.61322      -4.31249
     2  C(13)              0.00869       9.77415       3.48766       3.26031
     3  C(13)              0.00346       3.89464       1.38970       1.29911
     4  C(13)             -0.01150     -12.93017      -4.61380      -4.31304
     5  C(13)             -0.00798      -8.97441      -3.20229      -2.99354
     6  C(13)              0.00347       3.90303       1.39270       1.30191
     7  H(1)              -0.00450     -20.11003      -7.17576      -6.70798
     8  H(1)              -0.00241     -10.75980      -3.83936      -3.58908
     9  H(1)               0.00127       5.68706       2.02928       1.89700
    10  H(1)              -0.00241     -10.76009      -3.83947      -3.58918
    11  C(13)             -0.00798      -8.97505      -3.20252      -2.99376
    12  C(13)              0.00347       3.89742       1.39070       1.30004
    13  C(13)              0.00347       3.90185       1.39228       1.30152
    14  C(13)             -0.01150     -12.93112      -4.61414      -4.31336
    15  C(13)             -0.01150     -12.92963      -4.61361      -4.31286
    16  C(13)              0.00869       9.77430       3.48771       3.26036
    17  H(1)              -0.00241     -10.76285      -3.84045      -3.59010
    18  H(1)              -0.00241     -10.75741      -3.83851      -3.58829
    19  H(1)               0.00127       5.68783       2.02956       1.89726
    20  H(1)               0.00127       5.68734       2.02938       1.89709
    21  H(1)              -0.00450     -20.10992      -7.17572      -6.70795
    22  H(1)               0.00127       5.68771       2.02952       1.89722
 --------------------------------------------------------
       Center         ----  Spin Dipole Couplings  ----
                      3XX-RR        3YY-RR        3ZZ-RR
 --------------------------------------------------------
     1   Atom        0.049142      0.030725     -0.079868
     2   Atom       -0.161954     -0.115913      0.277867
     3   Atom       -0.086896     -0.037132      0.124028
     4   Atom        0.049159      0.030735     -0.079894
     5   Atom       -0.084588     -0.081760      0.166348
     6   Atom       -0.086895     -0.037136      0.124031
     7   Atom        0.022895     -0.018571     -0.004323
     8   Atom       -0.007662      0.011491     -0.003829
     9   Atom        0.001261      0.001610     -0.002870
    10   Atom       -0.007656      0.011487     -0.003831
    11   Atom       -0.084584     -0.081758      0.166341
    12   Atom       -0.086929     -0.037167      0.124096
    13   Atom       -0.086869     -0.037080      0.123948
    14   Atom        0.049154      0.030737     -0.079891
    15   Atom        0.049146      0.030727     -0.079872
    16   Atom       -0.161952     -0.115932      0.277883
    17   Atom       -0.007661      0.011490     -0.003829
    18   Atom       -0.007657      0.011486     -0.003829
    19   Atom        0.001262      0.001608     -0.002870
    20   Atom        0.001258      0.001611     -0.002869
    21   Atom        0.022894     -0.018572     -0.004323
    22   Atom        0.001259      0.001609     -0.002869
 --------------------------------------------------------
                        XY            XZ            YZ
 --------------------------------------------------------
     1   Atom        0.001845     -0.011216      0.042090
     2   Atom       -0.000023      0.000064     -0.160749
     3   Atom        0.013709     -0.026530     -0.097306
     4   Atom       -0.001841      0.011198      0.042097
     5   Atom        0.000001      0.000014     -0.044238
     6   Atom       -0.013702      0.026525     -0.097301
     7   Atom       -0.000004     -0.000004     -0.006101
     8   Atom       -0.005895     -0.001362      0.004202
     9   Atom        0.003088      0.001317      0.002602
    10   Atom        0.005900      0.001361      0.004199
    11   Atom        0.000003     -0.000001      0.044236
    12   Atom        0.013687      0.026496      0.097316
    13   Atom       -0.013717     -0.026535      0.097311
    14   Atom        0.001846      0.011218     -0.042097
    15   Atom       -0.001841     -0.011196     -0.042087
    16   Atom       -0.000022     -0.000066      0.160724
    17   Atom       -0.005900      0.001362     -0.004201
    18   Atom        0.005895     -0.001362     -0.004202
    19   Atom       -0.003088      0.001318     -0.002603
    20   Atom        0.003088     -0.001317     -0.002603
    21   Atom        0.000001      0.000002      0.006100
    22   Atom       -0.003087     -0.001317      0.002604
 --------------------------------------------------------


 ---------------------------------------------------------------------------------
              Anisotropic Spin Dipole Couplings in Principal Axis System
 ---------------------------------------------------------------------------------

       Atom             a.u.   MegaHertz   Gauss  10(-4) cm-1        Axes

              Baa    -0.0949   -12.740    -4.546    -4.250  0.0776 -0.3177  0.9450
     1 C(13)  Bbb     0.0443     5.949     2.123     1.984  0.3056  0.9098  0.2807
              Bcc     0.0506     6.791     2.423     2.265  0.9490 -0.2670 -0.1677
 
              Baa    -0.1732   -23.242    -8.293    -7.753  0.0001  0.9420  0.3357
     2 C(13)  Bbb    -0.1620   -21.733    -7.755    -7.249  1.0000 -0.0000 -0.0001
              Bcc     0.3352    44.974    16.048    15.002  0.0001 -0.3357  0.9420
 
              Baa    -0.0905   -12.142    -4.332    -4.050  0.9831 -0.1787  0.0405
     3 C(13)  Bbb    -0.0827   -11.102    -3.961    -3.703  0.1435  0.8882  0.4364
              Bcc     0.1732    23.243     8.294     7.753 -0.1140 -0.4232  0.8988
 
              Baa    -0.0950   -12.743    -4.547    -4.251 -0.0775 -0.3176  0.9450
     4 C(13)  Bbb     0.0443     5.951     2.123     1.985 -0.3052  0.9099  0.2808
              Bcc     0.0506     6.792     2.424     2.266  0.9491  0.2666  0.1674
 
              Baa    -0.0894   -11.998    -4.281    -4.002 -0.0007  0.9854  0.1704
     5 C(13)  Bbb    -0.0846   -11.351    -4.050    -3.786  1.0000  0.0007  0.0001
              Bcc     0.1740    23.349     8.332     7.788  0.0001 -0.1704  0.9854
 
              Baa    -0.0905   -12.141    -4.332    -4.050  0.9831  0.1784 -0.0407
     6 C(13)  Bbb    -0.0827   -11.101    -3.961    -3.703 -0.1431  0.8883  0.4364
              Bcc     0.1732    23.243     8.294     7.753  0.1140 -0.4232  0.8988
 
              Baa    -0.0208   -11.112    -3.965    -3.707  0.0001  0.9380  0.3467
     7 H(1)   Bbb    -0.0021    -1.103    -0.394    -0.368  0.0001 -0.3467  0.9380
              Bcc     0.0229    12.216     4.359     4.075  1.0000 -0.0001 -0.0001
 
              Baa    -0.0093    -4.982    -1.778    -1.662  0.9635  0.2655  0.0357
     8 H(1)   Bbb    -0.0049    -2.615    -0.933    -0.872  0.0296 -0.2382  0.9708
              Bcc     0.0142     7.597     2.711     2.534 -0.2662  0.9342  0.2373
 
              Baa    -0.0041    -2.169    -0.774    -0.724  0.0244 -0.4275  0.9037
     9 H(1)   Bbb    -0.0014    -0.752    -0.269    -0.251  0.7819 -0.5552 -0.2837
              Bcc     0.0055     2.922     1.043     0.975  0.6230  0.7135  0.3207
 
              Baa    -0.0093    -4.980    -1.777    -1.661  0.9634 -0.2658 -0.0355
    10 H(1)   Bbb    -0.0049    -2.615    -0.933    -0.872 -0.0299 -0.2380  0.9708
              Bcc     0.0142     7.596     2.710     2.534  0.2665  0.9342  0.2372
 
              Baa    -0.0894   -11.998    -4.281    -4.002 -0.0006  0.9854 -0.1704
    11 C(13)  Bbb    -0.0846   -11.350    -4.050    -3.786  1.0000  0.0006 -0.0001
              Bcc     0.1740    23.348     8.331     7.788 -0.0000  0.1704  0.9854
 
              Baa    -0.0905   -12.145    -4.334    -4.051  0.9831 -0.1785 -0.0404
    12 C(13)  Bbb    -0.0828   -11.105    -3.962    -3.704  0.1433  0.8883 -0.4363
              Bcc     0.1733    23.250     8.296     7.755  0.1138  0.4231  0.8989
 
              Baa    -0.0905   -12.138    -4.331    -4.049  0.9831  0.1786  0.0406
    13 C(13)  Bbb    -0.0827   -11.098    -3.960    -3.702 -0.1434  0.8881 -0.4366
              Bcc     0.1732    23.237     8.291     7.751 -0.1140  0.4234  0.8987
 
              Baa    -0.0950   -12.743    -4.547    -4.251 -0.0776  0.3176  0.9450
    14 C(13)  Bbb     0.0443     5.951     2.123     1.985  0.3056  0.9098 -0.2807
              Bcc     0.0506     6.792     2.424     2.266  0.9490 -0.2670  0.1677
 
              Baa    -0.0949   -12.740    -4.546    -4.249  0.0775  0.3176  0.9450
    15 C(13)  Bbb     0.0443     5.949     2.123     1.984 -0.3052  0.9100 -0.2808
              Bcc     0.0506     6.790     2.423     2.265  0.9491  0.2666 -0.1674
 
              Baa    -0.1732   -23.242    -8.293    -7.753 -0.0001  0.9420 -0.3356
    16 C(13)  Bbb    -0.1620   -21.732    -7.755    -7.249  1.0000  0.0002  0.0001
              Bcc     0.3352    44.974    16.048    15.002 -0.0001  0.3356  0.9420
 
              Baa    -0.0093    -4.982    -1.778    -1.662  0.9634  0.2658 -0.0354
    17 H(1)   Bbb    -0.0049    -2.615    -0.933    -0.872 -0.0300  0.2380  0.9708
              Bcc     0.0142     7.598     2.711     2.534 -0.2664  0.9342 -0.2373
 
              Baa    -0.0093    -4.980    -1.777    -1.661  0.9634 -0.2656  0.0358
    18 H(1)   Bbb    -0.0049    -2.615    -0.933    -0.872  0.0296  0.2382  0.9708
              Bcc     0.0142     7.595     2.710     2.533  0.2663  0.9342 -0.2374
 
              Baa    -0.0041    -2.170    -0.774    -0.724  0.0244  0.4277  0.9036
    19 H(1)   Bbb    -0.0014    -0.752    -0.268    -0.251  0.7818  0.5552 -0.2839
              Bcc     0.0055     2.921     1.042     0.975 -0.6231  0.7133 -0.3208
 
              Baa    -0.0041    -2.169    -0.774    -0.724 -0.0246  0.4277  0.9036
    20 H(1)   Bbb    -0.0014    -0.752    -0.268    -0.251  0.7821 -0.5548  0.2839
              Bcc     0.0055     2.921     1.042     0.974  0.6227  0.7136 -0.3209
 
              Baa    -0.0208   -11.112    -3.965    -3.707  0.0000  0.9380 -0.3467
    21 H(1)   Bbb    -0.0021    -1.104    -0.394    -0.368 -0.0001  0.3467  0.9380
              Bcc     0.0229    12.215     4.359     4.075  1.0000  0.0000  0.0001
 
              Baa    -0.0041    -2.170    -0.774    -0.724 -0.0247 -0.4280  0.9035
    22 H(1)   Bbb    -0.0014    -0.752    -0.268    -0.251  0.7820  0.5547  0.2841
              Bcc     0.0055     2.921     1.042     0.974 -0.6228  0.7135  0.3210
 

 ---------------------------------------------------------------------------------

 No NMR shielding tensors so no spin-rotation constants.
 Leave Link  601 at Sun Jan 17 09:42:50 2021, MaxMem=  4026531840 cpu:               2.1 elap:               0.3
 (Enter /opt/ohpc/pub/libs/gaussian/g16-A.03/sandybridge/g16/l9999.exe)

 Test job not archived.
 1\1\GINC-CASCADEB028\SP\ULC-wHPBE\TZVP\C12H10(1+,2)\RDU230\17-Jan-2021
 \0\\#P LC-wHPBE/TZVP iop(3/107=0328100000, 3/108=0328100000) scf=(conv
 er=6,fermi,ndamp=35,noincfock,novaracc,vshift=500,xqc)\\H10 C12\\1,2\C
 ,0,-2.8585,1.132993,0.41369\C,0,-3.561927,-0.000084,-0.000146\C,0,-1.4
 63685,1.132747,0.413534\C,0,-2.858269,-1.133176,-0.413741\C,0,-0.74238
 1,0.000123,0.000091\C,0,-1.463491,-1.132675,-0.413489\H,0,-4.653174,-0
 .00016,-0.000261\H,0,-0.922222,2.014213,0.762301\H,0,-3.398792,-2.0209
 86,-0.747134\H,0,-0.921754,-2.014027,-0.762095\C,0,0.742385,0.000142,0
 .000197\C,0,1.463539,-1.132637,0.413582\C,0,1.463636,1.132765,-0.41347
 7\C,0,2.858357,-1.133114,0.41366\C,0,2.858412,1.133073,-0.413706\C,0,3
 .561931,-0.000095,-0.000087\H,0,0.921935,-2.014039,0.762261\H,0,0.9220
 17,2.014128,-0.762265\H,0,3.398826,-2.021,0.746938\H,0,3.399026,2.0208
 05,-0.747168\H,0,4.653184,-0.000117,-0.000198\H,0,-3.399078,2.020813,0
 .746974\\Version=EM64L-G16RevA.03\State=2-A\HF=-462.7576907\S2=0.80647
 \S2-1=0.\S2A=0.752456\RMSD=9.118e-07\Dipole=-0.0000269,-0.0000361,-0.0
 001091\Quadrupole=21.0810703,-4.1132673,-16.967803,-0.0005691,-0.00036
 55,-0.0001489\PG=C01 [X(C12H10)]\\@


 WHAT THE SLIME CONTAINS, THE GLOWING REVEALS
 BY THE FLAME'S BRIGHT HUE WHEN YOU IGNITE IT.
   --  LEONARD THURNEYSSER, 1531-1596
 DESCRIBING HIS FLAME PHOTOLYSIS ANALYTIC METHOD
 Job cpu time:       0 days  0 hours 19 minutes 20.9 seconds.
 Elapsed time:       0 days  0 hours  2 minutes 25.9 seconds.
 File lengths (MBytes):  RWF=    100 Int=      0 D2E=      0 Chk=     12 Scr=      8
 Normal termination of Gaussian 16 at Sun Jan 17 09:42:50 2021.
