 Entering Gaussian System, Link 0=g16
 Input=mol_bp_NN_frag_tune_c8.gjf
 Output=mol_bp_NN_frag_tune_c8.log
 Initial command:
 /opt/ohpc/pub/libs/gaussian/g16-A.03/sandybridge/g16/l1.exe "/mnt/gpfs2_4m/scratch/rdu230/ondemand/projects/init_structures/wtuning/mol_bp_NN_frag/tuning_mol_bp_NN_frag_ocycle0/Gau-302709.inp" -scrdir="/mnt/gpfs2_4m/scratch/rdu230/ondemand/projects/init_structures/wtuning/mol_bp_NN_frag/tuning_mol_bp_NN_frag_ocycle0/"
 Entering Link 1 = /opt/ohpc/pub/libs/gaussian/g16-A.03/sandybridge/g16/l1.exe PID=    302710.
  
 Copyright (c) 1988,1990,1992,1993,1995,1998,2003,2009,2016,
            Gaussian, Inc.  All Rights Reserved.
  
 This is part of the Gaussian(R) 16 program.  It is based on
 the Gaussian(R) 09 system (copyright 2009, Gaussian, Inc.),
 the Gaussian(R) 03 system (copyright 2003, Gaussian, Inc.),
 the Gaussian(R) 98 system (copyright 1998, Gaussian, Inc.),
 the Gaussian(R) 94 system (copyright 1995, Gaussian, Inc.),
 the Gaussian 92(TM) system (copyright 1992, Gaussian, Inc.),
 the Gaussian 90(TM) system (copyright 1990, Gaussian, Inc.),
 the Gaussian 88(TM) system (copyright 1988, Gaussian, Inc.),
 the Gaussian 86(TM) system (copyright 1986, Carnegie Mellon
 University), and the Gaussian 82(TM) system (copyright 1983,
 Carnegie Mellon University). Gaussian is a federally registered
 trademark of Gaussian, Inc.
  
 This software contains proprietary and confidential information,
 including trade secrets, belonging to Gaussian, Inc.
  
 This software is provided under written license and may be
 used, copied, transmitted, or stored only in accord with that
 written license.
  
 The following legend is applicable only to US Government
 contracts under FAR:
  
                    RESTRICTED RIGHTS LEGEND
  
 Use, reproduction and disclosure by the US Government is
 subject to restrictions as set forth in subparagraphs (a)
 and (c) of the Commercial Computer Software - Restricted
 Rights clause in FAR 52.227-19.
  
 Gaussian, Inc.
 340 Quinnipiac St., Bldg. 40, Wallingford CT 06492
  
  
 ---------------------------------------------------------------
 Warning -- This program may not be used in any manner that
 competes with the business of Gaussian, Inc. or will provide
 assistance to any competitor of Gaussian, Inc.  The licensee
 of this program is prohibited from giving any competitor of
 Gaussian, Inc. access to this program.  By using this program,
 the user acknowledges that Gaussian, Inc. is engaged in the
 business of creating and licensing software in the field of
 computational chemistry and represents and warrants to the
 licensee that it is not a competitor of Gaussian, Inc. and that
 it will not use this program in any manner prohibited above.
 ---------------------------------------------------------------
  

 Cite this work as:
 Gaussian 16, Revision A.03,
 M. J. Frisch, G. W. Trucks, H. B. Schlegel, G. E. Scuseria, 
 M. A. Robb, J. R. Cheeseman, G. Scalmani, V. Barone, 
 G. A. Petersson, H. Nakatsuji, X. Li, M. Caricato, A. V. Marenich, 
 J. Bloino, B. G. Janesko, R. Gomperts, B. Mennucci, H. P. Hratchian, 
 J. V. Ortiz, A. F. Izmaylov, J. L. Sonnenberg, D. Williams-Young, 
 F. Ding, F. Lipparini, F. Egidi, J. Goings, B. Peng, A. Petrone, 
 T. Henderson, D. Ranasinghe, V. G. Zakrzewski, J. Gao, N. Rega, 
 G. Zheng, W. Liang, M. Hada, M. Ehara, K. Toyota, R. Fukuda, 
 J. Hasegawa, M. Ishida, T. Nakajima, Y. Honda, O. Kitao, H. Nakai, 
 T. Vreven, K. Throssell, J. A. Montgomery, Jr., J. E. Peralta, 
 F. Ogliaro, M. J. Bearpark, J. J. Heyd, E. N. Brothers, K. N. Kudin, 
 V. N. Staroverov, T. A. Keith, R. Kobayashi, J. Normand, 
 K. Raghavachari, A. P. Rendell, J. C. Burant, S. S. Iyengar, 
 J. Tomasi, M. Cossi, J. M. Millam, M. Klene, C. Adamo, R. Cammi, 
 J. W. Ochterski, R. L. Martin, K. Morokuma, O. Farkas, 
 J. B. Foresman, and D. J. Fox, Gaussian, Inc., Wallingford CT, 2016.
 
 ******************************************
 Gaussian 16:  EM64L-G16RevA.03 25-Dec-2016
                17-Jan-2021 
 ******************************************
 %mem=30GB
 %nproc=8
 Will use up to    8 processors via shared memory.
 ----------------------------------------------------------------------
 #P LC-wHPBE/TZVP iop(3/107=0235700000, 3/108=0235700000) scf=(conver=6
 ,fermi,ndamp=35,noincfock,novaracc,vshift=500,xqc)
 ----------------------------------------------------------------------
 1/38=1,172=1/1;
 2/12=2,17=6,18=5,40=1/2;
 3/5=19,7=101,11=2,25=1,30=1,74=-71,107=235700000,108=235700000/1,2,3;
 4//1;
 5/5=100002,6=6,8=3,10=500,13=1,18=-1,22=13,38=1,93=35/2,8;
 6/7=2,8=2,9=2,10=2,28=1/1;
 99/5=1,9=1/99;
 Leave Link    1 at Sun Jan 17 10:05:51 2021, MaxMem=  4026531840 cpu:               1.3 elap:               0.2
 (Enter /opt/ohpc/pub/libs/gaussian/g16-A.03/sandybridge/g16/l101.exe)
 -------
 H10 C12
 -------
 Symbolic Z-matrix:
 Charge =  1 Multiplicity = 2
 C                    -2.8585    1.13299   0.41369 
 C                    -3.56193  -0.00008  -0.00015 
 C                    -1.46369   1.13275   0.41353 
 C                    -2.85827  -1.13318  -0.41374 
 C                    -0.74238   0.00012   0.00009 
 C                    -1.46349  -1.13268  -0.41349 
 H                    -4.65317  -0.00016  -0.00026 
 H                    -0.92222   2.01421   0.7623 
 H                    -3.39879  -2.02099  -0.74713 
 H                    -0.92175  -2.01403  -0.7621 
 C                     0.74239   0.00014   0.0002 
 C                     1.46354  -1.13264   0.41358 
 C                     1.46364   1.13277  -0.41348 
 C                     2.85836  -1.13311   0.41366 
 C                     2.85841   1.13307  -0.41371 
 C                     3.56193  -0.0001   -0.00009 
 H                     0.92194  -2.01404   0.76226 
 H                     0.92202   2.01413  -0.76227 
 H                     3.39883  -2.021     0.74694 
 H                     3.39903   2.02081  -0.74717 
 H                     4.65318  -0.00012  -0.0002 
 H                    -3.39908   2.02081   0.74697 
 
 ITRead=  0  0  0  0  0  0  0  0  0  0  0  0  0  0  0  0  0  0  0  0
 ITRead=  0  0
 MicOpt= -1 -1 -1 -1 -1 -1 -1 -1 -1 -1 -1 -1 -1 -1 -1 -1 -1 -1 -1 -1
 MicOpt= -1 -1
 NAtoms=     22 NQM=       22 NQMF=       0 NMMI=      0 NMMIF=      0
                NMic=       0 NMicF=      0.
                    Isotopes and Nuclear Properties:
 (Nuclear quadrupole moments (NQMom) in fm**2, nuclear magnetic moments (NMagM)
  in nuclear magnetons)

  Atom         1           2           3           4           5           6           7           8           9          10
 IAtWgt=          12          12          12          12          12          12           1           1           1           1
 AtmWgt=  12.0000000  12.0000000  12.0000000  12.0000000  12.0000000  12.0000000   1.0078250   1.0078250   1.0078250   1.0078250
 NucSpn=           0           0           0           0           0           0           1           1           1           1
 AtZEff=  -0.0000000  -0.0000000  -0.0000000  -0.0000000  -0.0000000  -0.0000000  -0.0000000  -0.0000000  -0.0000000  -0.0000000
 NQMom=    0.0000000   0.0000000   0.0000000   0.0000000   0.0000000   0.0000000   0.0000000   0.0000000   0.0000000   0.0000000
 NMagM=    0.0000000   0.0000000   0.0000000   0.0000000   0.0000000   0.0000000   2.7928460   2.7928460   2.7928460   2.7928460
 AtZNuc=   6.0000000   6.0000000   6.0000000   6.0000000   6.0000000   6.0000000   1.0000000   1.0000000   1.0000000   1.0000000

  Atom        11          12          13          14          15          16          17          18          19          20
 IAtWgt=          12          12          12          12          12          12           1           1           1           1
 AtmWgt=  12.0000000  12.0000000  12.0000000  12.0000000  12.0000000  12.0000000   1.0078250   1.0078250   1.0078250   1.0078250
 NucSpn=           0           0           0           0           0           0           1           1           1           1
 AtZEff=  -0.0000000  -0.0000000  -0.0000000  -0.0000000  -0.0000000  -0.0000000  -0.0000000  -0.0000000  -0.0000000  -0.0000000
 NQMom=    0.0000000   0.0000000   0.0000000   0.0000000   0.0000000   0.0000000   0.0000000   0.0000000   0.0000000   0.0000000
 NMagM=    0.0000000   0.0000000   0.0000000   0.0000000   0.0000000   0.0000000   2.7928460   2.7928460   2.7928460   2.7928460
 AtZNuc=   6.0000000   6.0000000   6.0000000   6.0000000   6.0000000   6.0000000   1.0000000   1.0000000   1.0000000   1.0000000

  Atom        21          22
 IAtWgt=           1           1
 AtmWgt=   1.0078250   1.0078250
 NucSpn=           1           1
 AtZEff=  -0.0000000  -0.0000000
 NQMom=    0.0000000   0.0000000
 NMagM=    2.7928460   2.7928460
 AtZNuc=   1.0000000   1.0000000
 Leave Link  101 at Sun Jan 17 10:05:51 2021, MaxMem=  4026531840 cpu:               0.7 elap:               0.1
 (Enter /opt/ohpc/pub/libs/gaussian/g16-A.03/sandybridge/g16/l202.exe)
                          Input orientation:                          
 ---------------------------------------------------------------------
 Center     Atomic      Atomic             Coordinates (Angstroms)
 Number     Number       Type             X           Y           Z
 ---------------------------------------------------------------------
      1          6           0       -2.858500    1.132993    0.413690
      2          6           0       -3.561927   -0.000084   -0.000146
      3          6           0       -1.463685    1.132747    0.413534
      4          6           0       -2.858269   -1.133176   -0.413741
      5          6           0       -0.742381    0.000123    0.000091
      6          6           0       -1.463491   -1.132675   -0.413489
      7          1           0       -4.653174   -0.000160   -0.000261
      8          1           0       -0.922222    2.014213    0.762301
      9          1           0       -3.398792   -2.020986   -0.747134
     10          1           0       -0.921754   -2.014027   -0.762095
     11          6           0        0.742385    0.000142    0.000197
     12          6           0        1.463539   -1.132637    0.413582
     13          6           0        1.463636    1.132765   -0.413477
     14          6           0        2.858357   -1.133114    0.413660
     15          6           0        2.858412    1.133073   -0.413706
     16          6           0        3.561931   -0.000095   -0.000087
     17          1           0        0.921935   -2.014039    0.762261
     18          1           0        0.922017    2.014128   -0.762265
     19          1           0        3.398826   -2.021000    0.746938
     20          1           0        3.399026    2.020805   -0.747168
     21          1           0        4.653184   -0.000117   -0.000198
     22          1           0       -3.399078    2.020813    0.746974
 ---------------------------------------------------------------------
                    Distance matrix (angstroms):
                    1          2          3          4          5
     1  C    0.000000
     2  C    1.396400   0.000000
     3  C    1.394815   2.420136   0.000000
     4  C    2.412502   1.396457   2.786334   0.000000
     5  C    2.435656   2.819546   1.405010   2.435694   0.000000
     6  C    2.786311   2.420134   2.411660   1.394778   1.405091
     7  H    2.162463   1.091247   3.409919   2.162493   3.910793
     8  H    2.155748   3.406870   1.091697   3.877810   2.160987
     9  H    3.403970   2.160706   3.877863   1.091569   3.420489
    10  H    3.877782   3.406912   3.402643   2.155769   2.160996
    11  C    3.797460   4.304312   2.514038   3.797429   1.484766
    12  C    4.879867   5.168090   3.701433   4.400283   2.514001
    13  C    4.400576   5.168218   3.041900   4.879893   2.514046
    14  C    6.149609   6.532613   4.879977   5.776193   3.797444
    15  C    5.776475   6.532674   4.400551   6.149498   3.797435
    16  C    6.532766   7.123858   5.168291   6.532530   4.304312
    17  H    4.931227   4.974163   3.964222   4.055717   2.721709
    18  H    4.056054   4.974297   2.801947   4.931283   2.721695
    19  H    7.015187   7.286585   5.805281   6.425468   4.668224
    20  H    6.425919   7.286762   5.077582   7.015163   4.668276
    21  H    7.607933   8.215111   6.234632   7.607678   5.395565
    22  H    1.091571   2.160725   2.155363   3.404024   3.420389
                    6          7          8          9         10
     6  C    0.000000
     7  H    3.409901   0.000000
     8  H    3.402699   4.308039   0.000000
     9  H    2.155413   2.492996   4.969369   0.000000
    10  H    1.091690   4.308079   4.307029   2.477093   0.000000
    11  C    2.514021   5.395559   2.721801   4.668277   2.721640
    12  C    3.041636   6.234416   3.964357   5.077272   2.801551
    13  C    3.701390   6.234551   2.802093   5.805229   3.964079
    14  C    4.400289   7.607760   4.931531   6.425548   4.055570
    15  C    4.879801   7.607830   4.056180   7.015117   4.931051
    16  C    5.168027   8.215105   4.974565   7.286545   4.973933
    17  H    2.801687   5.976537   4.430319   4.576790   2.392248
    18  H    3.964172   5.976685   2.392806   5.912002   4.430070
    19  H    5.077188   8.335275   5.912245   6.959875   4.576532
    20  H    5.805157   8.335472   4.577305   7.908628   5.911788
    21  H    6.234357   9.306358   5.976963   8.335235   5.976308
    22  H    3.877842   2.493080   2.476912   4.309118   4.969342
                   11         12         13         14         15
    11  C    0.000000
    12  C    1.405040   0.000000
    13  C    1.405049   2.411654   0.000000
    14  C    2.435684   1.394818   2.786326   0.000000
    15  C    2.435656   2.786309   1.394776   2.412496   0.000000
    16  C    2.819546   2.420129   2.420146   1.396401   1.396456
    17  H    2.160996   1.091687   3.402672   2.155755   3.877777
    18  H    2.160962   3.402645   1.091698   3.877801   2.155778
    19  H    3.420426   2.155377   3.877855   1.091569   3.404015
    20  H    3.420435   3.877840   2.155388   3.403976   1.091572
    21  H    3.910799   3.409934   3.409903   2.162490   2.162479
    22  H    4.668244   5.805208   5.077525   7.015258   6.425842
                   16         17         18         19         20
    16  C    0.000000
    17  H    3.406864   0.000000
    18  H    3.406928   4.307007   0.000000
    19  H    2.160719   2.476948   4.969360   0.000000
    20  H    2.160719   4.969338   2.477064   4.309123   0.000000
    21  H    1.091253   4.308067   4.308078   2.493109   2.492991
    22  H    7.286825   5.911972   4.577085   7.908714   6.960365
                   21         22
    21  H    0.000000
    22  H    8.335547   0.000000
 Stoichiometry    C12H10(1+,2)
 Framework group  C1[X(C12H10)]
 Deg. of freedom    60
 Full point group                 C1      NOp   1
 Largest Abelian subgroup         C1      NOp   1
 Largest concise Abelian subgroup C1      NOp   1
                         Standard orientation:                         
 ---------------------------------------------------------------------
 Center     Atomic      Atomic             Coordinates (Angstroms)
 Number     Number       Type             X           Y           Z
 ---------------------------------------------------------------------
      1          6           0       -2.858500   -1.132993   -0.413690
      2          6           0       -3.561927    0.000084    0.000146
      3          6           0       -1.463685   -1.132747   -0.413534
      4          6           0       -2.858269    1.133176    0.413741
      5          6           0       -0.742381   -0.000123   -0.000091
      6          6           0       -1.463491    1.132675    0.413489
      7          1           0       -4.653174    0.000160    0.000261
      8          1           0       -0.922222   -2.014213   -0.762301
      9          1           0       -3.398792    2.020986    0.747134
     10          1           0       -0.921754    2.014027    0.762095
     11          6           0        0.742385   -0.000142   -0.000197
     12          6           0        1.463539    1.132637   -0.413582
     13          6           0        1.463636   -1.132765    0.413477
     14          6           0        2.858357    1.133114   -0.413660
     15          6           0        2.858412   -1.133073    0.413706
     16          6           0        3.561931    0.000095    0.000087
     17          1           0        0.921935    2.014039   -0.762261
     18          1           0        0.922017   -2.014128    0.762265
     19          1           0        3.398826    2.021000   -0.746938
     20          1           0        3.399026   -2.020805    0.747168
     21          1           0        4.653184    0.000117    0.000198
     22          1           0       -3.399078   -2.020813   -0.746974
 ---------------------------------------------------------------------
 Rotational constants (GHZ):           2.8545349           0.5449545           0.4756990
 Leave Link  202 at Sun Jan 17 10:05:51 2021, MaxMem=  4026531840 cpu:               0.1 elap:               0.0
 (Enter /opt/ohpc/pub/libs/gaussian/g16-A.03/sandybridge/g16/l301.exe)
 Standard basis: TZVP (5D, 7F)
 Ernie: Thresh=  0.10000D-02 Tol=  0.10000D-05 Strict=F.
 There are   300 symmetry adapted cartesian basis functions of A   symmetry.
 There are   288 symmetry adapted basis functions of A   symmetry.
   288 basis functions,   500 primitive gaussians,   300 cartesian basis functions
    41 alpha electrons       40 beta electrons
       nuclear repulsion energy       598.4723472889 Hartrees.
 IExCor=33909 DFT=T Ex+Corr=LC-wHPBE ExCW=0 ScaHFX=  1.000000
 ScaDFX=  1.000000  1.000000  1.000000  1.000000 ScalE2=  1.000000  1.000000
 IRadAn=      5 IRanWt=     -1 IRanGd=            0 ICorTp=0 IEmpDi=  4
 HFx  wShort=  0.000000 wLong=  0.235700 cFull=  0.000000 cShort=  0.000000 cLong=  1.000000
 DFx  wShort=  0.000000 wLong=  0.235700 cFull=  0.000000 cShort=  1.000000 cLong=  0.000000
 NAtoms=   22 NActive=   22 NUniq=   22 SFac= 1.00D+00 NAtFMM=   60 NAOKFM=F Big=F
 Integral buffers will be    131072 words long.
 Raffenetti 2 integral format.
 Two-electron integral symmetry is turned on.
 Leave Link  301 at Sun Jan 17 10:05:51 2021, MaxMem=  4026531840 cpu:               0.4 elap:               0.1
 (Enter /opt/ohpc/pub/libs/gaussian/g16-A.03/sandybridge/g16/l302.exe)
 NPDir=0 NMtPBC=     1 NCelOv=     1 NCel=       1 NClECP=     1 NCelD=      1
         NCelK=      1 NCelE2=     1 NClLst=     1 CellRange=     0.0.
 One-electron integrals computed using PRISM.
 One-electron integral symmetry used in STVInt
 NBasis=   288 RedAO= T EigKep=  9.18D-06  NBF=   288
 NBsUse=   288 1.00D-06 EigRej= -1.00D+00 NBFU=   288
 Precomputing XC quadrature grid using
 IXCGrd= 4 IRadAn=           5 IRanWt=          -1 IRanGd=           0 AccXCQ= 0.00D+00.
 Generated NRdTot=       0 NPtTot=           0 NUsed=           0 NTot=          32
 NSgBfM=   295   295   295   295   295 MxSgAt=    22 MxSgA2=    22.
 Leave Link  302 at Sun Jan 17 10:05:51 2021, MaxMem=  4026531840 cpu:               2.3 elap:               0.3
 (Enter /opt/ohpc/pub/libs/gaussian/g16-A.03/sandybridge/g16/l303.exe)
 DipDrv:  MaxL=1.
 Leave Link  303 at Sun Jan 17 10:05:51 2021, MaxMem=  4026531840 cpu:               0.6 elap:               0.1
 (Enter /opt/ohpc/pub/libs/gaussian/g16-A.03/sandybridge/g16/l401.exe)
 ExpMin= 9.52D-02 ExpMax= 1.36D+04 ExpMxC= 4.63D+02 IAcc=3 IRadAn=         5 AccDes= 0.00D+00
 Harris functional with IExCor=33909 and IRadAn=       5 diagonalized for initial guess.
 HarFok:  IExCor=33909 AccDes= 0.00D+00 IRadAn=         5 IDoV= 1 UseB2=F ITyADJ=14
 ICtDFT=  3500011 ScaDFX=  1.000000  1.000000  1.000000  1.000000
 FoFCou: FMM=F IPFlag=           0 FMFlag=      100000 FMFlg1=           0
         NFxFlg=           0 DoJE=T BraDBF=F KetDBF=T FulRan=T
         wScrn=  0.000000 ICntrl=       500 IOpCl=  0 I1Cent=   200000004 NGrid=           0
         NMat0=    1 NMatS0=      1 NMatT0=    0 NMatD0=    1 NMtDS0=    0 NMtDT0=    0
 Petite list used in FoFCou.
 Harris En= -452.700959368163    
 JPrj=0 DoOrth=F DoCkMO=F.
 Initial guess <Sx>= 0.0000 <Sy>= 0.0000 <Sz>= 0.5000 <S**2>= 0.7500 S= 0.5000
 Leave Link  401 at Sun Jan 17 10:05:53 2021, MaxMem=  4026531840 cpu:              14.1 elap:               1.8
 (Enter /opt/ohpc/pub/libs/gaussian/g16-A.03/sandybridge/g16/l502.exe)
 Integral symmetry usage will be decided dynamically.
 UHF open shell SCF:
 Using DIIS extrapolation, IDIIS=    10.
 NGot=  4026531840 LenX=  4026346394 LenY=  4026255953
 Requested convergence on RMS density matrix=1.00D-06 within  32 cycles.
 Requested convergence on MAX density matrix=1.00D-04.
 Requested convergence on             energy=1.00D-04.
 Virtual orbitals will be shifted by   0.500 hartree.
 No special actions if energy rises.
 Dynamic level shift is on during FON iterations.

 Cycle   1  Pass 1  IDiag  1:
 FoFJK:  IHMeth= 1 ICntrl=       0 DoSepK=T KAlg= 0 I1Cent=           0 FoldK=F
 IRaf=         1 NMat=       1 IRICut=       1 DoRegI=T DoRafI=F ISym2E= 0 IDoP0=0 IntGTp=1.
 FoFCou: FMM=F IPFlag=           0 FMFlag=      100000 FMFlg1=           0
         NFxFlg=           0 DoJE=T BraDBF=F KetDBF=F FulRan=T
         wScrn=  0.000000 ICntrl=       500 IOpCl=  0 I1Cent=           0 NGrid=           0
         NMat0=    1 NMatS0=      1 NMatT0=    0 NMatD0=    1 NMtDS0=    0 NMtDT0=    0
 Symmetry not used in FoFCou.
 E= -462.609311225809    
 DIIS: error= 2.38D-02 at cycle   1 NSaved=   1.
 NSaved= 1 IEnMin= 1 EnMin= -462.609311225809     IErMin= 1 ErrMin= 2.38D-02
 ErrMax= 2.38D-02  0.00D+00 EMaxC= 1.00D+00 BMatC= 4.49D-01 BMatP= 4.49D-01
 IDIUse=1 WtCom= 1.00D+00 WtEn= 0.00D+00
 Coeff-Com:  0.100D+01
 Coeff:      0.100D+01
 Gap=     0.332 Goal=   None    Shift=    0.500
 T= 1358. Gap= 0.824 NK=0 IS=   42 IE=  288 IFin=   41
          NO(<0.9)=   0  NV(>0.1)=   0     41.00e < EF      0.00e >EF  Err=0.0D+00
 Gap=     0.171 Goal=   None    Shift=    0.500
 T= 1358. Gap= 0.668 NK=0 IS=   41 IE=  288 IFin=   40
          NO(<0.9)=   0  NV(>0.1)=   0     40.00e < EF      0.00e >EF  Err=0.0D+00
 GapD=    0.171 DampG=1.000 DampE=0.500 DampFc=0.5000 IDamp=-1.
 Damping current iteration by 5.00D-01
 RMSDP=2.47D-03 MaxDP=6.13D-02              OVMax= 5.25D-02

 Cycle   2  Pass 1  IDiag  1:
 E= -462.673053091975     Delta-E=       -0.063741866167 Rises=F Damp=T
 DIIS: error= 1.10D-02 at cycle   2 NSaved=   2.
 NSaved= 2 IEnMin= 2 EnMin= -462.673053091975     IErMin= 2 ErrMin= 1.10D-02
 ErrMax= 1.10D-02  0.00D+00 EMaxC= 1.00D+00 BMatC= 9.14D-02 BMatP= 4.49D-01
 IDIUse=1 WtCom= 1.00D+00 WtEn= 0.00D+00
 Coeff-Com: -0.698D+00 0.170D+01
 Coeff:     -0.698D+00 0.170D+01
 Gap=     0.339 Goal=   None    Shift=    0.500
 T= 1240. Gap= 0.833 NK=0 IS=   42 IE=  288 IFin=   41
          NO(<0.9)=   0  NV(>0.1)=   0     41.00e < EF      0.00e >EF  Err=0.0D+00
 Gap=     0.193 Goal=   None    Shift=    0.500
 T= 1240. Gap= 0.687 NK=0 IS=   41 IE=  288 IFin=   40
          NO(<0.9)=   0  NV(>0.1)=   0     40.00e < EF      0.00e >EF  Err=0.0D+00
 GapD=    0.193 DampG=1.000 DampE=0.500 DampFc=0.5000 IDamp=-1.
 Damping current iteration by 5.00D-01
 RMSDP=1.73D-03 MaxDP=4.93D-02 DE=-6.37D-02 OVMax= 1.62D-02

 Cycle   3  Pass 1  IDiag  1:
 E= -462.696616119223     Delta-E=       -0.023563027248 Rises=F Damp=T
 DIIS: error= 5.43D-03 at cycle   3 NSaved=   3.
 NSaved= 3 IEnMin= 3 EnMin= -462.696616119223     IErMin= 3 ErrMin= 5.43D-03
 ErrMax= 5.43D-03  0.00D+00 EMaxC= 1.00D+00 BMatC= 2.10D-02 BMatP= 9.14D-02
 IDIUse=1 WtCom= 1.00D+00 WtEn= 0.00D+00
 Coeff-Com:  0.438D-01-0.102D+01 0.197D+01
 Coeff:      0.438D-01-0.102D+01 0.197D+01
 Gap=     0.334 Goal=   None    Shift=    0.500
 T= 1014. Gap= 0.834 NK=0 IS=   42 IE=  288 IFin=   41
          NO(<0.9)=   0  NV(>0.1)=   0     41.00e < EF      0.00e >EF  Err=0.0D+00
 Gap=     0.189 Goal=   None    Shift=    0.500
 T= 1014. Gap= 0.688 NK=0 IS=   41 IE=  288 IFin=   40
          NO(<0.9)=   0  NV(>0.1)=   0     40.00e < EF      0.00e >EF  Err=0.0D+00
 GapD=    0.189 DampG=1.000 DampE=1.000 DampFc=1.0000 IDamp=-1.
 RMSDP=1.07D-03 MaxDP=3.07D-02 DE=-2.36D-02 OVMax= 1.23D-02

 Cycle   4  Pass 1  IDiag  1:
 E= -462.717302191390     Delta-E=       -0.020686072168 Rises=F Damp=F
 DIIS: error= 2.36D-03 at cycle   4 NSaved=   4.
 NSaved= 4 IEnMin= 4 EnMin= -462.717302191390     IErMin= 4 ErrMin= 2.36D-03
 ErrMax= 2.36D-03  0.00D+00 EMaxC= 1.00D+00 BMatC= 4.85D-04 BMatP= 2.10D-02
 IDIUse=1 WtCom= 1.00D+00 WtEn= 0.00D+00
 Coeff-Com:  0.608D-01-0.659D-01-0.106D+00 0.111D+01
 Coeff:      0.608D-01-0.659D-01-0.106D+00 0.111D+01
 Gap=     0.335 Goal=   None    Shift=    0.500
 T=  558. Gap= 0.835 NK=0 IS=   42 IE=  288 IFin=   41
          NO(<0.9)=   0  NV(>0.1)=   0     41.00e < EF      0.00e >EF  Err=0.0D+00
 Gap=     0.190 Goal=   None    Shift=    0.500
 T=  558. Gap= 0.690 NK=0 IS=   41 IE=  288 IFin=   40
          NO(<0.9)=   0  NV(>0.1)=   0     40.00e < EF      0.00e >EF  Err=0.0D+00
 GapD=    0.190 DampG=1.000 DampE=1.000 DampFc=1.0000 IDamp=-1.
 RMSDP=1.30D-04 MaxDP=3.86D-03 DE=-2.07D-02 OVMax= 8.77D-03

 Cycle   5  Pass 1  IDiag  1:
 E= -462.717662907821     Delta-E=       -0.000360716431 Rises=F Damp=F
 DIIS: error= 2.04D-03 at cycle   5 NSaved=   5.
 NSaved= 5 IEnMin= 5 EnMin= -462.717662907821     IErMin= 5 ErrMin= 2.04D-03
 ErrMax= 2.04D-03  0.00D+00 EMaxC= 1.00D+00 BMatC= 2.08D-04 BMatP= 4.85D-04
 IDIUse=1 WtCom= 1.00D+00 WtEn= 0.00D+00
 Coeff-Com: -0.217D-01 0.240D+00-0.423D+00-0.687D+00 0.189D+01
 Coeff:     -0.217D-01 0.240D+00-0.423D+00-0.687D+00 0.189D+01
 Gap=     0.336 Goal=   None    Shift=    0.500
 T=  167. Gap= 0.836 NK=0 IS=   42 IE=  288 IFin=   41
          NO(<0.9)=   0  NV(>0.1)=   0     41.00e < EF      0.00e >EF  Err=0.0D+00
 Gap=     0.192 Goal=   None    Shift=    0.500
 T=  167. Gap= 0.692 NK=0 IS=   41 IE=  288 IFin=   40
          NO(<0.9)=   0  NV(>0.1)=   0     40.00e < EF      0.00e >EF  Err=0.0D+00
 GapD=    0.192 DampG=1.000 DampE=1.000 DampFc=1.0000 IDamp=-1.
 RMSDP=1.02D-04 MaxDP=3.27D-03 DE=-3.61D-04 OVMax= 9.13D-03

 Cycle   6  Pass 1  IDiag  1:
 E= -462.717917379007     Delta-E=       -0.000254471186 Rises=F Damp=F
 DIIS: error= 1.49D-03 at cycle   6 NSaved=   6.
 NSaved= 6 IEnMin= 6 EnMin= -462.717917379007     IErMin= 6 ErrMin= 1.49D-03
 ErrMax= 1.49D-03  0.00D+00 EMaxC= 1.00D+00 BMatC= 1.05D-04 BMatP= 2.08D-04
 IDIUse=1 WtCom= 1.00D+00 WtEn= 0.00D+00
 Coeff-Com: -0.264D-01 0.273D-01 0.385D-01-0.353D+00-0.894D+00 0.221D+01
 Coeff:     -0.264D-01 0.273D-01 0.385D-01-0.353D+00-0.894D+00 0.221D+01
 Gap=     0.336 Goal=   None    Shift=    0.500
 Gap=     0.194 Goal=   None    Shift=    0.500
 GapD=    0.194 DampG=1.000 DampE=1.000 DampFc=1.0000 IDamp=-1.
 RMSDP=7.01D-05 MaxDP=1.73D-03 DE=-2.54D-04 OVMax= 7.91D-03

 Cycle   7  Pass 1  IDiag  1:
 E= -462.718083444362     Delta-E=       -0.000166065355 Rises=F Damp=F
 DIIS: error= 1.07D-03 at cycle   7 NSaved=   7.
 NSaved= 7 IEnMin= 7 EnMin= -462.718083444362     IErMin= 7 ErrMin= 1.07D-03
 ErrMax= 1.07D-03  0.00D+00 EMaxC= 1.00D+00 BMatC= 5.40D-05 BMatP= 1.05D-04
 IDIUse=1 WtCom= 1.00D+00 WtEn= 0.00D+00
 Coeff-Com: -0.574D-02-0.398D-01 0.103D+00 0.112D+00-0.980D+00 0.996D-01
 Coeff-Com:  0.171D+01
 Coeff:     -0.574D-02-0.398D-01 0.103D+00 0.112D+00-0.980D+00 0.996D-01
 Coeff:      0.171D+01
 Gap=     0.336 Goal=   None    Shift=    0.500
 Gap=     0.195 Goal=   None    Shift=    0.500
 GapD=    0.195 DampG=1.000 DampE=1.000 DampFc=1.0000 IDamp=-1.
 RMSDP=4.30D-05 MaxDP=1.01D-03 DE=-1.66D-04 OVMax= 6.06D-03

 Cycle   8  Pass 1  IDiag  1:
 E= -462.718176408572     Delta-E=       -0.000092964210 Rises=F Damp=F
 DIIS: error= 7.22D-04 at cycle   8 NSaved=   8.
 NSaved= 8 IEnMin= 8 EnMin= -462.718176408572     IErMin= 8 ErrMin= 7.22D-04
 ErrMax= 7.22D-04  0.00D+00 EMaxC= 1.00D+00 BMatC= 2.84D-05 BMatP= 5.40D-05
 IDIUse=1 WtCom= 1.00D+00 WtEn= 0.00D+00
 Coeff-Com:  0.106D-01 0.193D-02-0.408D-01 0.235D+00 0.249D+00-0.144D+01
 Coeff-Com: -0.191D+00 0.218D+01
 Coeff:      0.106D-01 0.193D-02-0.408D-01 0.235D+00 0.249D+00-0.144D+01
 Coeff:     -0.191D+00 0.218D+01
 Gap=     0.336 Goal=   None    Shift=    0.500
 Gap=     0.195 Goal=   None    Shift=    0.500
 RMSDP=2.93D-05 MaxDP=5.86D-04 DE=-9.30D-05 OVMax= 4.70D-03

 Cycle   9  Pass 1  IDiag  1:
 E= -462.718232902810     Delta-E=       -0.000056494239 Rises=F Damp=F
 DIIS: error= 4.85D-04 at cycle   9 NSaved=   9.
 NSaved= 9 IEnMin= 9 EnMin= -462.718232902810     IErMin= 9 ErrMin= 4.85D-04
 ErrMax= 4.85D-04  0.00D+00 EMaxC= 1.00D+00 BMatC= 1.46D-05 BMatP= 2.84D-05
 IDIUse=1 WtCom= 1.00D+00 WtEn= 0.00D+00
 Coeff-Com: -0.311D-02 0.357D-01-0.607D-01-0.159D+00 0.513D+00 0.115D+00
 Coeff-Com: -0.855D+00-0.154D+01 0.295D+01
 Coeff:     -0.311D-02 0.357D-01-0.607D-01-0.159D+00 0.513D+00 0.115D+00
 Coeff:     -0.855D+00-0.154D+01 0.295D+01
 Gap=     0.336 Goal=   None    Shift=    0.500
 Gap=     0.196 Goal=   None    Shift=    0.500
 RMSDP=2.30D-05 MaxDP=4.78D-04 DE=-5.65D-05 OVMax= 3.49D-03

 Cycle  10  Pass 1  IDiag  1:
 E= -462.718264266855     Delta-E=       -0.000031364045 Rises=F Damp=F
 DIIS: error= 3.31D-04 at cycle  10 NSaved=  10.
 NSaved=10 IEnMin=10 EnMin= -462.718264266855     IErMin=10 ErrMin= 3.31D-04
 ErrMax= 3.31D-04  0.00D+00 EMaxC= 1.00D+00 BMatC= 7.57D-06 BMatP= 1.46D-05
 IDIUse=1 WtCom= 1.00D+00 WtEn= 0.00D+00
 Coeff-Com: -0.414D-02-0.390D-02 0.220D-01-0.150D+00 0.483D-02 0.545D+00
 Coeff-Com: -0.933D-01-0.942D+00-0.764D+00 0.239D+01
 Coeff:     -0.414D-02-0.390D-02 0.220D-01-0.150D+00 0.483D-02 0.545D+00
 Coeff:     -0.933D-01-0.942D+00-0.764D+00 0.239D+01
 Gap=     0.336 Goal=   None    Shift=    0.500
 Gap=     0.196 Goal=   None    Shift=    0.500
 RMSDP=1.62D-05 MaxDP=3.29D-04 DE=-3.14D-05 OVMax= 2.27D-03

 Cycle  11  Pass 1  IDiag  1:
 E= -462.718279042727     Delta-E=       -0.000014775872 Rises=F Damp=F
 DIIS: error= 2.39D-04 at cycle  11 NSaved=  11.
 NSaved=11 IEnMin=11 EnMin= -462.718279042727     IErMin=11 ErrMin= 2.39D-04
 ErrMax= 2.39D-04  0.00D+00 EMaxC= 1.00D+00 BMatC= 3.89D-06 BMatP= 7.57D-06
 IDIUse=1 WtCom= 1.00D+00 WtEn= 0.00D+00
 Coeff-Com:  0.116D-02-0.166D-01 0.285D-01 0.233D-01-0.142D+00-0.171D-01
 Coeff-Com:  0.265D+00 0.567D+00-0.147D+01-0.751D+00 0.251D+01
 Coeff:      0.116D-02-0.166D-01 0.285D-01 0.233D-01-0.142D+00-0.171D-01
 Coeff:      0.265D+00 0.567D+00-0.147D+01-0.751D+00 0.251D+01
 Gap=     0.336 Goal=   None    Shift=    0.500
 Gap=     0.196 Goal=   None    Shift=    0.500
 RMSDP=1.21D-05 MaxDP=2.79D-04 DE=-1.48D-05 OVMax= 1.69D-03

 Cycle  12  Pass 1  IDiag  1:
 E= -462.718285963521     Delta-E=       -0.000006920794 Rises=F Damp=F
 DIIS: error= 1.84D-04 at cycle  12 NSaved=  12.
 NSaved=12 IEnMin=12 EnMin= -462.718285963521     IErMin=12 ErrMin= 1.84D-04
 ErrMax= 1.84D-04  0.00D+00 EMaxC= 1.00D+00 BMatC= 2.02D-06 BMatP= 3.89D-06
 IDIUse=1 WtCom= 1.00D+00 WtEn= 0.00D+00
 Coeff-Com:  0.335D-02 0.239D-02-0.169D-01 0.963D-01 0.427D-01-0.505D+00
 Coeff-Com:  0.102D+00 0.914D+00 0.355D+00-0.282D+01 0.732D+00 0.209D+01
 Coeff:      0.335D-02 0.239D-02-0.169D-01 0.963D-01 0.427D-01-0.505D+00
 Coeff:      0.102D+00 0.914D+00 0.355D+00-0.282D+01 0.732D+00 0.209D+01
 Gap=     0.336 Goal=   None    Shift=    0.500
 Gap=     0.196 Goal=   None    Shift=    0.500
 RMSDP=8.57D-06 MaxDP=2.34D-04 DE=-6.92D-06 OVMax= 1.14D-03

 Cycle  13  Pass 1  IDiag  1:
 E= -462.718288960537     Delta-E=       -0.000002997017 Rises=F Damp=F
 DIIS: error= 1.33D-04 at cycle  13 NSaved=  13.
 NSaved=13 IEnMin=13 EnMin= -462.718288960537     IErMin=13 ErrMin= 1.33D-04
 ErrMax= 1.33D-04  0.00D+00 EMaxC= 1.00D+00 BMatC= 8.07D-07 BMatP= 2.02D-06
 IDIUse=1 WtCom= 1.00D+00 WtEn= 0.00D+00
 Coeff-Com: -0.104D-02 0.313D-02-0.226D-02-0.459D-01 0.557D-01 0.106D+00
 Coeff-Com: -0.717D-01-0.447D+00 0.439D+00 0.696D+00-0.788D+00-0.201D+01
 Coeff-Com:  0.306D+01
 Coeff:     -0.104D-02 0.313D-02-0.226D-02-0.459D-01 0.557D-01 0.106D+00
 Coeff:     -0.717D-01-0.447D+00 0.439D+00 0.696D+00-0.788D+00-0.201D+01
 Coeff:      0.306D+01
 Gap=     0.336 Goal=   None    Shift=    0.500
 Gap=     0.196 Goal=   None    Shift=    0.500
 RMSDP=5.14D-06 MaxDP=1.47D-04 DE=-3.00D-06 OVMax= 6.98D-04

 Cycle  14  Pass 1  IDiag  1:
 E= -462.718290101567     Delta-E=       -0.000001141030 Rises=F Damp=F
 DIIS: error= 9.26D-05 at cycle  14 NSaved=  14.
 NSaved=14 IEnMin=14 EnMin= -462.718290101567     IErMin=14 ErrMin= 9.26D-05
 ErrMax= 9.26D-05  0.00D+00 EMaxC= 1.00D+00 BMatC= 2.99D-07 BMatP= 8.07D-07
 IDIUse=1 WtCom= 1.00D+00 WtEn= 0.00D+00
 Coeff-Com: -0.125D-04-0.215D-02 0.430D-02 0.122D-02-0.257D-01 0.269D-01
 Coeff-Com:  0.221D-01 0.153D-01-0.193D+00 0.179D+00 0.481D-01 0.343D+00
 Coeff-Com: -0.235D+01 0.293D+01
 Coeff:     -0.125D-04-0.215D-02 0.430D-02 0.122D-02-0.257D-01 0.269D-01
 Coeff:      0.221D-01 0.153D-01-0.193D+00 0.179D+00 0.481D-01 0.343D+00
 Coeff:     -0.235D+01 0.293D+01
 Gap=     0.336 Goal=   None    Shift=    0.500
 Gap=     0.196 Goal=   None    Shift=    0.500
 RMSDP=2.98D-06 MaxDP=1.08D-04 DE=-1.14D-06 OVMax= 4.72D-04

 Cycle  15  Pass 1  IDiag  1:
 E= -462.718290521534     Delta-E=       -0.000000419967 Rises=F Damp=F
 DIIS: error= 6.68D-05 at cycle  15 NSaved=  15.
 NSaved=15 IEnMin=15 EnMin= -462.718290521534     IErMin=15 ErrMin= 6.68D-05
 ErrMax= 6.68D-05  0.00D+00 EMaxC= 1.00D+00 BMatC= 1.20D-07 BMatP= 2.99D-07
 IDIUse=1 WtCom= 1.00D+00 WtEn= 0.00D+00
 Coeff-Com:  0.553D-03-0.113D-02 0.148D-03 0.152D-01 0.232D-03-0.895D-01
 Coeff-Com:  0.468D-01 0.189D+00-0.646D-01-0.486D+00 0.360D+00 0.551D+00
 Coeff-Com: -0.481D+00-0.198D+01 0.294D+01
 Coeff:      0.553D-03-0.113D-02 0.148D-03 0.152D-01 0.232D-03-0.895D-01
 Coeff:      0.468D-01 0.189D+00-0.646D-01-0.486D+00 0.360D+00 0.551D+00
 Coeff:     -0.481D+00-0.198D+01 0.294D+01
 Gap=     0.336 Goal=   None    Shift=    0.500
 Gap=     0.196 Goal=   None    Shift=    0.500
 RMSDP=1.73D-06 MaxDP=7.27D-05 DE=-4.20D-07 OVMax= 3.30D-04

 Cycle  16  Pass 1  IDiag  1:
 E= -462.718290684623     Delta-E=       -0.000000163089 Rises=F Damp=F
 DIIS: error= 4.71D-05 at cycle  16 NSaved=  16.
 NSaved=16 IEnMin=16 EnMin= -462.718290684623     IErMin=16 ErrMin= 4.71D-05
 ErrMax= 4.71D-05  0.00D+00 EMaxC= 1.00D+00 BMatC= 4.77D-08 BMatP= 1.20D-07
 IDIUse=1 WtCom= 1.00D+00 WtEn= 0.00D+00
 Coeff-Com: -0.380D-03 0.102D-02-0.572D-03-0.112D-01 0.660D-02 0.420D-01
 Coeff-Com: -0.118D-01-0.144D+00 0.864D-01 0.276D+00-0.212D+00-0.571D+00
 Coeff-Com:  0.931D+00 0.435D+00-0.341D+01 0.359D+01
 Coeff:     -0.380D-03 0.102D-02-0.572D-03-0.112D-01 0.660D-02 0.420D-01
 Coeff:     -0.118D-01-0.144D+00 0.864D-01 0.276D+00-0.212D+00-0.571D+00
 Coeff:      0.931D+00 0.435D+00-0.341D+01 0.359D+01
 Gap=     0.336 Goal=   None    Shift=    0.500
 Gap=     0.196 Goal=   None    Shift=    0.500
 RMSDP=1.04D-06 MaxDP=5.16D-05 DE=-1.63D-07 OVMax= 2.35D-04

 Cycle  17  Pass 1  IDiag  1:
 E= -462.718290752387     Delta-E=       -0.000000067763 Rises=F Damp=F
 DIIS: error= 3.34D-05 at cycle  17 NSaved=  17.
 NSaved=17 IEnMin=17 EnMin= -462.718290752387     IErMin=17 ErrMin= 3.34D-05
 ErrMax= 3.34D-05  0.00D+00 EMaxC= 1.00D+00 BMatC= 2.00D-08 BMatP= 4.77D-08
 IDIUse=1 WtCom= 1.00D+00 WtEn= 0.00D+00
 Coeff-Com:  0.101D-03-0.103D-02 0.170D-02 0.861D-03-0.731D-02 0.171D-02
 Coeff-Com:  0.101D-01 0.859D-02-0.355D-01 0.141D-01 0.874D-03 0.178D+00
 Coeff-Com: -0.547D+00 0.627D+00 0.460D+00-0.325D+01 0.353D+01
 Coeff:      0.101D-03-0.103D-02 0.170D-02 0.861D-03-0.731D-02 0.171D-02
 Coeff:      0.101D-01 0.859D-02-0.355D-01 0.141D-01 0.874D-03 0.178D+00
 Coeff:     -0.547D+00 0.627D+00 0.460D+00-0.325D+01 0.353D+01
 Gap=     0.336 Goal=   None    Shift=    0.500
 Gap=     0.196 Goal=   None    Shift=    0.500
 RMSDP=6.10D-07 MaxDP=3.00D-05 DE=-6.78D-08 OVMax= 1.71D-04

 SCF Done:  E(ULC-wHPBE) =  -462.718290752     A.U. after   17 cycles
            NFock= 17  Conv=0.61D-06     -V/T= 2.0052
 <Sx>= 0.0000 <Sy>= 0.0000 <Sz>= 0.5000 <S**2>= 0.7781 S= 0.5140
 <L.S>= 0.000000000000E+00
 KE= 4.603222075173D+02 PE=-2.256679084751D+03 EE= 7.351662391927D+02
 Annihilation of the first spin contaminant:
 S**2 before annihilation     0.7781,   after     0.7506
 Leave Link  502 at Sun Jan 17 10:08:17 2021, MaxMem=  4026531840 cpu:            1147.6 elap:             143.9
 (Enter /opt/ohpc/pub/libs/gaussian/g16-A.03/sandybridge/g16/l508.exe)
 QCSCF skips out because SCF is already converged.
 Leave Link  508 at Sun Jan 17 10:08:17 2021, MaxMem=  4026531840 cpu:               0.0 elap:               0.0
 (Enter /opt/ohpc/pub/libs/gaussian/g16-A.03/sandybridge/g16/l601.exe)
 Copying SCF densities to generalized density rwf, IOpCl= 1 IROHF=0.

 **********************************************************************

            Population analysis using the SCF density.

 **********************************************************************

 Orbital symmetries:
 Alpha Orbitals:
       Occupied  (A) (A) (A) (A) (A) (A) (A) (A) (A) (A) (A) (A)
                 (A) (A) (A) (A) (A) (A) (A) (A) (A) (A) (A) (A)
                 (A) (A) (A) (A) (A) (A) (A) (A) (A) (A) (A) (A)
                 (A) (A) (A) (A) (A)
       Virtual   (A) (A) (A) (A) (A) (A) (A) (A) (A) (A) (A) (A)
                 (A) (A) (A) (A) (A) (A) (A) (A) (A) (A) (A) (A)
                 (A) (A) (A) (A) (A) (A) (A) (A) (A) (A) (A) (A)
                 (A) (A) (A) (A) (A) (A) (A) (A) (A) (A) (A) (A)
                 (A) (A) (A) (A) (A) (A) (A) (A) (A) (A) (A) (A)
                 (A) (A) (A) (A) (A) (A) (A) (A) (A) (A) (A) (A)
                 (A) (A) (A) (A) (A) (A) (A) (A) (A) (A) (A) (A)
                 (A) (A) (A) (A) (A) (A) (A) (A) (A) (A) (A) (A)
                 (A) (A) (A) (A) (A) (A) (A) (A) (A) (A) (A) (A)
                 (A) (A) (A) (A) (A) (A) (A) (A) (A) (A) (A) (A)
                 (A) (A) (A) (A) (A) (A) (A) (A) (A) (A) (A) (A)
                 (A) (A) (A) (A) (A) (A) (A) (A) (A) (A) (A) (A)
                 (A) (A) (A) (A) (A) (A) (A) (A) (A) (A) (A) (A)
                 (A) (A) (A) (A) (A) (A) (A) (A) (A) (A) (A) (A)
                 (A) (A) (A) (A) (A) (A) (A) (A) (A) (A) (A) (A)
                 (A) (A) (A) (A) (A) (A) (A) (A) (A) (A) (A) (A)
                 (A) (A) (A) (A) (A) (A) (A) (A) (A) (A) (A) (A)
                 (A) (A) (A) (A) (A) (A) (A) (A) (A) (A) (A) (A)
                 (A) (A) (A) (A) (A) (A) (A) (A) (A) (A) (A) (A)
                 (A) (A) (A) (A) (A) (A) (A) (A) (A) (A) (A) (A)
                 (A) (A) (A) (A) (A) (A) (A)
 Beta  Orbitals:
       Occupied  (A) (A) (A) (A) (A) (A) (A) (A) (A) (A) (A) (A)
                 (A) (A) (A) (A) (A) (A) (A) (A) (A) (A) (A) (A)
                 (A) (A) (A) (A) (A) (A) (A) (A) (A) (A) (A) (A)
                 (A) (A) (A) (A)
       Virtual   (A) (A) (A) (A) (A) (A) (A) (A) (A) (A) (A) (A)
                 (A) (A) (A) (A) (A) (A) (A) (A) (A) (A) (A) (A)
                 (A) (A) (A) (A) (A) (A) (A) (A) (A) (A) (A) (A)
                 (A) (A) (A) (A) (A) (A) (A) (A) (A) (A) (A) (A)
                 (A) (A) (A) (A) (A) (A) (A) (A) (A) (A) (A) (A)
                 (A) (A) (A) (A) (A) (A) (A) (A) (A) (A) (A) (A)
                 (A) (A) (A) (A) (A) (A) (A) (A) (A) (A) (A) (A)
                 (A) (A) (A) (A) (A) (A) (A) (A) (A) (A) (A) (A)
                 (A) (A) (A) (A) (A) (A) (A) (A) (A) (A) (A) (A)
                 (A) (A) (A) (A) (A) (A) (A) (A) (A) (A) (A) (A)
                 (A) (A) (A) (A) (A) (A) (A) (A) (A) (A) (A) (A)
                 (A) (A) (A) (A) (A) (A) (A) (A) (A) (A) (A) (A)
                 (A) (A) (A) (A) (A) (A) (A) (A) (A) (A) (A) (A)
                 (A) (A) (A) (A) (A) (A) (A) (A) (A) (A) (A) (A)
                 (A) (A) (A) (A) (A) (A) (A) (A) (A) (A) (A) (A)
                 (A) (A) (A) (A) (A) (A) (A) (A) (A) (A) (A) (A)
                 (A) (A) (A) (A) (A) (A) (A) (A) (A) (A) (A) (A)
                 (A) (A) (A) (A) (A) (A) (A) (A) (A) (A) (A) (A)
                 (A) (A) (A) (A) (A) (A) (A) (A) (A) (A) (A) (A)
                 (A) (A) (A) (A) (A) (A) (A) (A) (A) (A) (A) (A)
                 (A) (A) (A) (A) (A) (A) (A) (A)
 The electronic state is 2-A.
 Alpha  occ. eigenvalues --  -10.22949 -10.22936 -10.20670 -10.20669 -10.20290
 Alpha  occ. eigenvalues --  -10.20290 -10.20288 -10.20287 -10.19023 -10.19023
 Alpha  occ. eigenvalues --  -10.19022 -10.19021  -1.11550  -1.08912  -1.02341
 Alpha  occ. eigenvalues --   -0.98811  -0.97907  -0.96925  -0.86816  -0.86213
 Alpha  occ. eigenvalues --   -0.83376  -0.81920  -0.77750  -0.74128  -0.71327
 Alpha  occ. eigenvalues --   -0.70616  -0.69059  -0.67517  -0.66606  -0.66244
 Alpha  occ. eigenvalues --   -0.65638  -0.64135  -0.62394  -0.60429  -0.58896
 Alpha  occ. eigenvalues --   -0.57858  -0.57518  -0.54056  -0.50462  -0.50405
 Alpha  occ. eigenvalues --   -0.49278
 Alpha virt. eigenvalues --   -0.15666  -0.11945  -0.11754  -0.09801  -0.01675
 Alpha virt. eigenvalues --   -0.00867   0.00389   0.02158   0.02216   0.03861
 Alpha virt. eigenvalues --    0.03905   0.04716   0.05193   0.05334   0.05392
 Alpha virt. eigenvalues --    0.06871   0.07229   0.08554   0.11721   0.12468
 Alpha virt. eigenvalues --    0.12856   0.12869   0.14833   0.14936   0.14976
 Alpha virt. eigenvalues --    0.15041   0.15111   0.16553   0.17296   0.17396
 Alpha virt. eigenvalues --    0.17994   0.19086   0.19267   0.20562   0.21125
 Alpha virt. eigenvalues --    0.21535   0.23133   0.23949   0.25211   0.26209
 Alpha virt. eigenvalues --    0.26698   0.26886   0.28143   0.28603   0.28804
 Alpha virt. eigenvalues --    0.30113   0.30804   0.31831   0.32707   0.33594
 Alpha virt. eigenvalues --    0.33870   0.34136   0.34634   0.35027   0.35858
 Alpha virt. eigenvalues --    0.37647   0.38203   0.38545   0.39338   0.40468
 Alpha virt. eigenvalues --    0.40726   0.40971   0.41688   0.42268   0.44138
 Alpha virt. eigenvalues --    0.44257   0.44493   0.44651   0.46059   0.49662
 Alpha virt. eigenvalues --    0.50707   0.53019   0.54220   0.56881   0.58140
 Alpha virt. eigenvalues --    0.59443   0.60018   0.60316   0.60553   0.60772
 Alpha virt. eigenvalues --    0.62585   0.67126   0.68822   0.72374   0.73669
 Alpha virt. eigenvalues --    0.80851   0.81938   0.98360   1.08453   1.09341
 Alpha virt. eigenvalues --    1.11926   1.12647   1.12785   1.14072   1.14129
 Alpha virt. eigenvalues --    1.14596   1.15084   1.17654   1.17714   1.18690
 Alpha virt. eigenvalues --    1.18792   1.19299   1.20218   1.21081   1.21169
 Alpha virt. eigenvalues --    1.21502   1.21901   1.22158   1.24265   1.28571
 Alpha virt. eigenvalues --    1.29047   1.30717   1.30785   1.32969   1.33391
 Alpha virt. eigenvalues --    1.33699   1.34024   1.34904   1.35125   1.35559
 Alpha virt. eigenvalues --    1.35946   1.37181   1.37940   1.37959   1.38411
 Alpha virt. eigenvalues --    1.40285   1.40355   1.41442   1.41521   1.42528
 Alpha virt. eigenvalues --    1.44498   1.45200   1.45732   1.45750   1.47638
 Alpha virt. eigenvalues --    1.47672   1.53501   1.54476   1.57350   1.61045
 Alpha virt. eigenvalues --    1.65818   1.66773   1.67037   1.67111   1.67551
 Alpha virt. eigenvalues --    1.69613   1.70105   1.70571   1.76010   1.76158
 Alpha virt. eigenvalues --    1.76446   1.76898   1.77008   1.77127   1.79278
 Alpha virt. eigenvalues --    1.79316   1.79419   1.79540   1.80431   1.81941
 Alpha virt. eigenvalues --    1.83149   1.83492   1.86398   1.86641   1.87927
 Alpha virt. eigenvalues --    1.88502   1.90273   1.90511   1.96658   1.97015
 Alpha virt. eigenvalues --    1.99500   2.11096   2.13641   2.14020   2.15665
 Alpha virt. eigenvalues --    2.15725   2.17020   2.17549   2.17711   2.20285
 Alpha virt. eigenvalues --    2.21141   2.21255   2.21548   2.21968   2.23828
 Alpha virt. eigenvalues --    2.24119   2.31179   2.35824   2.37095   2.37241
 Alpha virt. eigenvalues --    2.39285   2.40554   2.40871   2.41807   2.45634
 Alpha virt. eigenvalues --    2.48633   2.50331   2.50645   2.51148   2.52441
 Alpha virt. eigenvalues --    2.54328   2.56584   2.56793   2.57668   2.59145
 Alpha virt. eigenvalues --    2.62837   2.68081   2.68197   2.68552   2.71174
 Alpha virt. eigenvalues --    2.85496   2.86307   2.89013   2.91283   2.91847
 Alpha virt. eigenvalues --    2.92294   2.92952   2.95350   2.97452   2.99021
 Alpha virt. eigenvalues --    3.02080   3.02350   3.04385   3.04851   3.06885
 Alpha virt. eigenvalues --    3.08917   3.17979   3.19782   3.21130   3.27063
 Alpha virt. eigenvalues --    3.27582   3.38378   3.41471   3.59829   3.68799
 Alpha virt. eigenvalues --   20.86217  21.14568  21.41249  21.51800  21.54984
 Alpha virt. eigenvalues --   21.60982  21.73519  21.76711  21.79282  21.81036
 Alpha virt. eigenvalues --   21.90291  21.93656
  Beta  occ. eigenvalues --  -10.22752 -10.22738 -10.20311 -10.20311 -10.20125
  Beta  occ. eigenvalues --  -10.20124 -10.20123 -10.20121 -10.19102 -10.19102
  Beta  occ. eigenvalues --  -10.19100 -10.19100  -1.10997  -1.08434  -1.01737
  Beta  occ. eigenvalues --   -0.98603  -0.97755  -0.95884  -0.86391  -0.85973
  Beta  occ. eigenvalues --   -0.83017  -0.81613  -0.77605  -0.73876  -0.71113
  Beta  occ. eigenvalues --   -0.70432  -0.68527  -0.67350  -0.66337  -0.66168
  Beta  occ. eigenvalues --   -0.65439  -0.63115  -0.60357  -0.60259  -0.58745
  Beta  occ. eigenvalues --   -0.57754  -0.57250  -0.50110  -0.50100  -0.50050
  Beta virt. eigenvalues --   -0.30455  -0.13494  -0.11205  -0.10665  -0.07781
  Beta virt. eigenvalues --   -0.01598  -0.00770   0.00470   0.02339   0.02587
  Beta virt. eigenvalues --    0.04077   0.04227   0.04781   0.05513   0.05677
  Beta virt. eigenvalues --    0.06130   0.07205   0.07446   0.08691   0.12059
  Beta virt. eigenvalues --    0.12776   0.13064   0.13102   0.15024   0.15047
  Beta virt. eigenvalues --    0.15175   0.15285   0.15357   0.16782   0.17472
  Beta virt. eigenvalues --    0.17504   0.18149   0.19339   0.19658   0.20595
  Beta virt. eigenvalues --    0.21319   0.21778   0.23381   0.24607   0.25476
  Beta virt. eigenvalues --    0.26631   0.26889   0.27183   0.28498   0.29025
  Beta virt. eigenvalues --    0.29181   0.30391   0.31095   0.32311   0.33244
  Beta virt. eigenvalues --    0.33941   0.34183   0.34228   0.34699   0.35323
  Beta virt. eigenvalues --    0.35904   0.37978   0.38324   0.38568   0.39647
  Beta virt. eigenvalues --    0.40724   0.40873   0.41110   0.41981   0.42401
  Beta virt. eigenvalues --    0.44290   0.44510   0.44651   0.44816   0.46332
  Beta virt. eigenvalues --    0.49832   0.50951   0.53319   0.54365   0.57032
  Beta virt. eigenvalues --    0.58228   0.59791   0.60291   0.60446   0.60897
  Beta virt. eigenvalues --    0.60962   0.62913   0.67281   0.69051   0.72598
  Beta virt. eigenvalues --    0.73753   0.80937   0.82042   0.98554   1.08679
  Beta virt. eigenvalues --    1.09751   1.12438   1.13094   1.13290   1.14236
  Beta virt. eigenvalues --    1.14410   1.14875   1.15498   1.17981   1.18105
  Beta virt. eigenvalues --    1.18955   1.19168   1.19837   1.20601   1.21386
  Beta virt. eigenvalues --    1.21391   1.21838   1.21933   1.22663   1.24846
  Beta virt. eigenvalues --    1.29157   1.29915   1.31322   1.31485   1.33614
  Beta virt. eigenvalues --    1.33875   1.34206   1.34335   1.35480   1.35701
  Beta virt. eigenvalues --    1.36276   1.36415   1.37441   1.38262   1.38360
  Beta virt. eigenvalues --    1.38759   1.40449   1.40947   1.41712   1.41781
  Beta virt. eigenvalues --    1.42555   1.44695   1.45685   1.45990   1.46250
  Beta virt. eigenvalues --    1.47849   1.48141   1.53688   1.55021   1.57951
  Beta virt. eigenvalues --    1.62119   1.66198   1.67187   1.67221   1.67278
  Beta virt. eigenvalues --    1.68199   1.69668   1.70332   1.70994   1.76090
  Beta virt. eigenvalues --    1.76641   1.76754   1.77072   1.77304   1.77508
  Beta virt. eigenvalues --    1.79648   1.79662   1.79707   1.79997   1.80803
  Beta virt. eigenvalues --    1.82606   1.83590   1.83723   1.87075   1.87153
  Beta virt. eigenvalues --    1.88459   1.89176   1.90507   1.90732   1.97006
  Beta virt. eigenvalues --    1.97727   1.99739   2.11561   2.13928   2.14342
  Beta virt. eigenvalues --    2.16196   2.16509   2.17284   2.18342   2.18402
  Beta virt. eigenvalues --    2.21286   2.21793   2.21810   2.22002   2.22597
  Beta virt. eigenvalues --    2.24181   2.24474   2.31976   2.35964   2.37350
  Beta virt. eigenvalues --    2.37590   2.39332   2.40925   2.41171   2.42115
  Beta virt. eigenvalues --    2.46223   2.48740   2.51143   2.51342   2.51914
  Beta virt. eigenvalues --    2.52627   2.54617   2.56877   2.56977   2.57884
  Beta virt. eigenvalues --    2.59205   2.62888   2.68227   2.68300   2.68664
  Beta virt. eigenvalues --    2.71265   2.85964   2.86680   2.89138   2.91699
  Beta virt. eigenvalues --    2.91912   2.92335   2.93433   2.96081   2.97978
  Beta virt. eigenvalues --    2.99189   3.02298   3.02557   3.04712   3.05052
  Beta virt. eigenvalues --    3.07191   3.09153   3.18078   3.20076   3.21224
  Beta virt. eigenvalues --    3.27568   3.28144   3.38625   3.41726   3.59987
  Beta virt. eigenvalues --    3.68987  20.86448  21.14771  21.41570  21.51906
  Beta virt. eigenvalues --   21.55008  21.61417  21.73897  21.76781  21.79435
  Beta virt. eigenvalues --   21.81298  21.90540  21.93869
          Condensed to atoms (all electrons):
               1          2          3          4          5          6
     1  C    4.966168   0.457538   0.375192  -0.036568  -0.011861  -0.049487
     2  C    0.457538   4.901817  -0.034399   0.457259  -0.043139  -0.033807
     3  C    0.375192  -0.034399   5.259062  -0.049142   0.362387  -0.136135
     4  C   -0.036568   0.457259  -0.049142   4.966877  -0.011443   0.374081
     5  C   -0.011861  -0.043139   0.362387  -0.011443   5.429383   0.361221
     6  C   -0.049487  -0.033807  -0.136135   0.374081   0.361221   5.260720
     7  H   -0.042318   0.410129   0.013592  -0.042333  -0.003310   0.013610
     8  H   -0.010959   0.007191   0.398195  -0.001126  -0.049493   0.009809
     9  H    0.008577  -0.039626   0.000658   0.407323   0.011377  -0.036840
    10  H   -0.001124   0.007190   0.009802  -0.010952  -0.049506   0.398213
    11  C    0.020368   0.001320  -0.079374   0.020285   0.121413  -0.079188
    12  C   -0.002044   0.000083   0.027215   0.005636  -0.079112  -0.018460
    13  C    0.005569   0.000120  -0.018422  -0.002117  -0.079473   0.027512
    14  C    0.000288   0.000003  -0.002057  -0.000795   0.020314   0.005582
    15  C   -0.000795   0.000002   0.005621   0.000293   0.020353  -0.002109
    16  C    0.000003  -0.000003   0.000090   0.000002   0.001315   0.000115
    17  H   -0.000057   0.000068   0.000465   0.000543  -0.013357  -0.000100
    18  H    0.000550   0.000068  -0.000132  -0.000058  -0.013337   0.000475
    19  H    0.000000   0.000000  -0.000008  -0.000008  -0.001182   0.000047
    20  H   -0.000008   0.000000   0.000048   0.000001  -0.001182  -0.000008
    21  H    0.000000  -0.000000  -0.000001   0.000000  -0.000149  -0.000001
    22  H    0.407271  -0.039601  -0.036781   0.008572   0.011359   0.000652
               7          8          9         10         11         12
     1  C   -0.042318  -0.010959   0.008577  -0.001124   0.020368  -0.002044
     2  C    0.410129   0.007191  -0.039626   0.007190   0.001320   0.000083
     3  C    0.013592   0.398195   0.000658   0.009802  -0.079374   0.027215
     4  C   -0.042333  -0.001126   0.407323  -0.010952   0.020285   0.005636
     5  C   -0.003310  -0.049493   0.011377  -0.049506   0.121413  -0.079112
     6  C    0.013610   0.009809  -0.036840   0.398213  -0.079188  -0.018460
     7  H    0.480074  -0.000076  -0.004716  -0.000076  -0.000149  -0.000001
     8  H   -0.000076   0.475777   0.000012  -0.000059  -0.013349   0.000466
     9  H   -0.004716   0.000012   0.486473  -0.003800  -0.001184   0.000048
    10  H   -0.000076  -0.000059  -0.003800   0.475772  -0.013348  -0.000127
    11  C   -0.000149  -0.013349  -0.001184  -0.013348   5.429350   0.362333
    12  C   -0.000001   0.000466   0.000048  -0.000127   0.362333   5.258909
    13  C   -0.000001  -0.000100  -0.000008   0.000474   0.361304  -0.136156
    14  C    0.000000  -0.000057  -0.000008   0.000548  -0.011886   0.375215
    15  C    0.000000   0.000543   0.000001  -0.000058  -0.011416  -0.049191
    16  C   -0.000000   0.000068   0.000000   0.000068  -0.043133  -0.034387
    17  H   -0.000001   0.000002  -0.000004  -0.000667  -0.049489   0.398183
    18  H   -0.000001  -0.000666  -0.000001   0.000002  -0.049507   0.009796
    19  H   -0.000000  -0.000001  -0.000000  -0.000004   0.011359  -0.036781
    20  H   -0.000000  -0.000004   0.000000  -0.000001   0.011379   0.000657
    21  H   -0.000000  -0.000001  -0.000000  -0.000001  -0.003310   0.013593
    22  H   -0.004715  -0.003799  -0.000098   0.000012  -0.001180  -0.000007
              13         14         15         16         17         18
     1  C    0.005569   0.000288  -0.000795   0.000003  -0.000057   0.000550
     2  C    0.000120   0.000003   0.000002  -0.000003   0.000068   0.000068
     3  C   -0.018422  -0.002057   0.005621   0.000090   0.000465  -0.000132
     4  C   -0.002117  -0.000795   0.000293   0.000002   0.000543  -0.000058
     5  C   -0.079473   0.020314   0.020353   0.001315  -0.013357  -0.013337
     6  C    0.027512   0.005582  -0.002109   0.000115  -0.000100   0.000475
     7  H   -0.000001   0.000000   0.000000  -0.000000  -0.000001  -0.000001
     8  H   -0.000100  -0.000057   0.000543   0.000068   0.000002  -0.000666
     9  H   -0.000008  -0.000008   0.000001   0.000000  -0.000004  -0.000001
    10  H    0.000474   0.000548  -0.000058   0.000068  -0.000667   0.000002
    11  C    0.361304  -0.011886  -0.011416  -0.043133  -0.049489  -0.049507
    12  C   -0.136156   0.375215  -0.049191  -0.034387   0.398183   0.009796
    13  C    5.260911  -0.049413   0.374013  -0.033825   0.009813   0.398227
    14  C   -0.049413   4.966174  -0.036576   0.457535  -0.010947  -0.001122
    15  C    0.374013  -0.036576   4.966908   0.457267  -0.001127  -0.010966
    16  C   -0.033825   0.457535   0.457267   4.901805   0.007191   0.007188
    17  H    0.009813  -0.010947  -0.001127   0.007191   0.475777  -0.000059
    18  H    0.398227  -0.001122  -0.010966   0.007188  -0.000059   0.475767
    19  H    0.000655   0.407272   0.008570  -0.039602  -0.003798   0.000012
    20  H   -0.036847   0.008577   0.407326  -0.039623   0.000012  -0.003800
    21  H    0.013609  -0.042317  -0.042334   0.410129  -0.000076  -0.000076
    22  H    0.000047   0.000000  -0.000008   0.000000  -0.000001  -0.000004
              19         20         21         22
     1  C    0.000000  -0.000008   0.000000   0.407271
     2  C    0.000000   0.000000  -0.000000  -0.039601
     3  C   -0.000008   0.000048  -0.000001  -0.036781
     4  C   -0.000008   0.000001   0.000000   0.008572
     5  C   -0.001182  -0.001182  -0.000149   0.011359
     6  C    0.000047  -0.000008  -0.000001   0.000652
     7  H   -0.000000  -0.000000  -0.000000  -0.004715
     8  H   -0.000001  -0.000004  -0.000001  -0.003799
     9  H   -0.000000   0.000000  -0.000000  -0.000098
    10  H   -0.000004  -0.000001  -0.000001   0.000012
    11  C    0.011359   0.011379  -0.003310  -0.001180
    12  C   -0.036781   0.000657   0.013593  -0.000007
    13  C    0.000655  -0.036847   0.013609   0.000047
    14  C    0.407272   0.008577  -0.042317   0.000000
    15  C    0.008570   0.407326  -0.042334  -0.000008
    16  C   -0.039602  -0.039623   0.410129   0.000000
    17  H   -0.003798   0.000012  -0.000076  -0.000001
    18  H    0.000012  -0.003800  -0.000076  -0.000004
    19  H    0.486461  -0.000098  -0.004715   0.000000
    20  H   -0.000098   0.486472  -0.004716  -0.000000
    21  H   -0.004715  -0.004716   0.480074  -0.000000
    22  H    0.000000  -0.000000  -0.000000   0.486458
          Atomic-Atomic Spin Densities.
               1          2          3          4          5          6
     1  C   -0.094608   0.012718   0.028184   0.003721  -0.016520  -0.019705
     2  C    0.012718   0.287888  -0.002756   0.012784  -0.013866  -0.002904
     3  C    0.028184  -0.002756   0.045368  -0.019776   0.051753   0.036449
     4  C    0.003721   0.012784  -0.019776  -0.094852  -0.016662   0.028488
     5  C   -0.016520  -0.013866   0.051753  -0.016662   0.203830   0.052049
     6  C   -0.019705  -0.002904   0.036449   0.028488   0.052049   0.045008
     7  H    0.000495   0.002259  -0.000703   0.000497   0.000104  -0.000707
     8  H    0.000785   0.000022  -0.000652  -0.000278   0.002742   0.000396
     9  H    0.000465  -0.000202  -0.000553  -0.000716   0.000186   0.001594
    10  H   -0.000278   0.000021   0.000397   0.000793   0.002751  -0.000662
    11  C    0.004392  -0.000301  -0.012121   0.004433  -0.112556  -0.012190
    12  C    0.000657   0.000043  -0.001926  -0.000966  -0.012211   0.003018
    13  C   -0.000963   0.000037   0.003019   0.000675  -0.012098  -0.001993
    14  C   -0.000237   0.000002   0.000659   0.000523   0.004427  -0.000964
    15  C    0.000523   0.000002  -0.000966  -0.000240   0.004398   0.000673
    16  C    0.000002   0.000000   0.000042   0.000002  -0.000300   0.000038
    17  H    0.000040   0.000003  -0.000125  -0.000215  -0.001955  -0.000140
    18  H   -0.000218   0.000002  -0.000133   0.000041  -0.001958  -0.000130
    19  H   -0.000001   0.000000   0.000002   0.000003   0.000021  -0.000005
    20  H    0.000003   0.000000  -0.000005  -0.000001   0.000021   0.000002
    21  H    0.000000  -0.000000   0.000000   0.000000   0.000009   0.000000
    22  H   -0.000696  -0.000208   0.001571   0.000466   0.000191  -0.000552
               7          8          9         10         11         12
     1  C    0.000495   0.000785   0.000465  -0.000278   0.004392   0.000657
     2  C    0.002259   0.000022  -0.000202   0.000021  -0.000301   0.000043
     3  C   -0.000703  -0.000652  -0.000553   0.000397  -0.012121  -0.001926
     4  C    0.000497  -0.000278  -0.000716   0.000793   0.004433  -0.000966
     5  C    0.000104   0.002742   0.000186   0.002751  -0.112556  -0.012211
     6  C   -0.000707   0.000396   0.001594  -0.000662  -0.012190   0.003018
     7  H   -0.015831   0.000006   0.000081   0.000006   0.000009   0.000000
     8  H    0.000006  -0.008146  -0.000004   0.000017  -0.001954  -0.000126
     9  H    0.000081  -0.000004   0.001869   0.000130   0.000021  -0.000005
    10  H    0.000006   0.000017   0.000130  -0.008147  -0.001959  -0.000135
    11  C    0.000009  -0.001954   0.000021  -0.001959   0.203827   0.051713
    12  C    0.000000  -0.000126  -0.000005  -0.000135   0.051713   0.045600
    13  C    0.000000  -0.000138   0.000002  -0.000129   0.052085   0.036453
    14  C    0.000000   0.000040   0.000003  -0.000217  -0.016487   0.028096
    15  C    0.000000  -0.000216  -0.000001   0.000041  -0.016693  -0.019769
    16  C   -0.000000   0.000003   0.000000   0.000002  -0.013867  -0.002735
    17  H    0.000000  -0.000002  -0.000003  -0.000083   0.002737  -0.000639
    18  H    0.000000  -0.000083   0.000000  -0.000002   0.002757   0.000400
    19  H    0.000000   0.000000   0.000000  -0.000003   0.000192   0.001572
    20  H    0.000000  -0.000003  -0.000000   0.000000   0.000185  -0.000553
    21  H    0.000000   0.000000   0.000000   0.000000   0.000104  -0.000702
    22  H    0.000080   0.000129   0.000009  -0.000004   0.000021   0.000002
              13         14         15         16         17         18
     1  C   -0.000963  -0.000237   0.000523   0.000002   0.000040  -0.000218
     2  C    0.000037   0.000002   0.000002   0.000000   0.000003   0.000002
     3  C    0.003019   0.000659  -0.000966   0.000042  -0.000125  -0.000133
     4  C    0.000675   0.000523  -0.000240   0.000002  -0.000215   0.000041
     5  C   -0.012098   0.004427   0.004398  -0.000300  -0.001955  -0.001958
     6  C   -0.001993  -0.000964   0.000673   0.000038  -0.000140  -0.000130
     7  H    0.000000   0.000000   0.000000  -0.000000   0.000000   0.000000
     8  H   -0.000138   0.000040  -0.000216   0.000003  -0.000002  -0.000083
     9  H    0.000002   0.000003  -0.000001   0.000000  -0.000003   0.000000
    10  H   -0.000129  -0.000217   0.000041   0.000002  -0.000083  -0.000002
    11  C    0.052085  -0.016487  -0.016693  -0.013867   0.002737   0.002757
    12  C    0.036453   0.028096  -0.019769  -0.002735  -0.000639   0.000400
    13  C    0.044769  -0.019719   0.028586  -0.002921   0.000394  -0.000676
    14  C   -0.019719  -0.094578   0.003724   0.012694   0.000779  -0.000279
    15  C    0.028586   0.003724  -0.094889   0.012804  -0.000277   0.000801
    16  C   -0.002921   0.012694   0.012804   0.287890   0.000022   0.000021
    17  H    0.000394   0.000779  -0.000277   0.000022  -0.008147   0.000017
    18  H   -0.000676  -0.000279   0.000801   0.000021   0.000017  -0.008147
    19  H   -0.000552  -0.000697   0.000466  -0.000208   0.000129  -0.000004
    20  H    0.001595   0.000465  -0.000716  -0.000202  -0.000004   0.000130
    21  H   -0.000708   0.000495   0.000497   0.002259   0.000006   0.000006
    22  H   -0.000005  -0.000001   0.000003   0.000000   0.000000  -0.000003
              19         20         21         22
     1  C   -0.000001   0.000003   0.000000  -0.000696
     2  C    0.000000   0.000000  -0.000000  -0.000208
     3  C    0.000002  -0.000005   0.000000   0.001571
     4  C    0.000003  -0.000001   0.000000   0.000466
     5  C    0.000021   0.000021   0.000009   0.000191
     6  C   -0.000005   0.000002   0.000000  -0.000552
     7  H    0.000000   0.000000   0.000000   0.000080
     8  H    0.000000  -0.000003   0.000000   0.000129
     9  H    0.000000  -0.000000   0.000000   0.000009
    10  H   -0.000003   0.000000   0.000000  -0.000004
    11  C    0.000192   0.000185   0.000104   0.000021
    12  C    0.001572  -0.000553  -0.000702   0.000002
    13  C   -0.000552   0.001595  -0.000708  -0.000005
    14  C   -0.000697   0.000465   0.000495  -0.000001
    15  C    0.000466  -0.000716   0.000497   0.000003
    16  C   -0.000208  -0.000202   0.002259   0.000000
    17  H    0.000129  -0.000004   0.000006   0.000000
    18  H   -0.000004   0.000130   0.000006  -0.000003
    19  H    0.001874   0.000009   0.000080  -0.000000
    20  H    0.000009   0.001869   0.000081   0.000000
    21  H    0.000080   0.000081  -0.015831   0.000000
    22  H   -0.000000   0.000000   0.000000   0.001875
 Mulliken charges and spin densities:
               1          2
     1  C   -0.086304  -0.081240
     2  C   -0.052213   0.295546
     3  C   -0.095875   0.127727
     4  C   -0.086328  -0.081279
     5  C    0.017424   0.134358
     6  C   -0.095904   0.127764
     7  H    0.180293  -0.013704
     8  H    0.187625  -0.007462
     9  H    0.171817   0.002876
    10  H    0.187643  -0.007461
    11  C    0.017402   0.134348
    12  C   -0.095867   0.127784
    13  C   -0.095892   0.127710
    14  C   -0.086331  -0.081273
    15  C   -0.086317  -0.081249
    16  C   -0.052204   0.295546
    17  H    0.187628  -0.007465
    18  H    0.187645  -0.007458
    19  H    0.171820   0.002879
    20  H    0.171818   0.002877
    21  H    0.180294  -0.013704
    22  H    0.171823   0.002880
 Sum of Mulliken charges =   1.00000   1.00000
 Mulliken charges and spin densities with hydrogens summed into heavy atoms:
               1          2
     1  C    0.085519  -0.078360
     2  C    0.128080   0.281842
     3  C    0.091750   0.120266
     4  C    0.085490  -0.078402
     5  C    0.017424   0.134358
     6  C    0.091739   0.120303
    11  C    0.017402   0.134348
    12  C    0.091761   0.120319
    13  C    0.091753   0.120252
    14  C    0.085490  -0.078394
    15  C    0.085502  -0.078373
    16  C    0.128090   0.281842
 Electronic spatial extent (au):  <R**2>=           2269.1193
 Charge=              1.0000 electrons
 Dipole moment (field-independent basis, Debye):
    X=             -0.0000    Y=              0.0001    Z=              0.0003  Tot=              0.0003
 Quadrupole moment (field-independent basis, Debye-Ang):
   XX=            -18.4993   YY=            -52.3814   ZZ=            -69.4017
   XY=              0.0007   XZ=              0.0005   YZ=             -0.0002
 Traceless Quadrupole moment (field-independent basis, Debye-Ang):
   XX=             28.2615   YY=             -5.6206   ZZ=            -22.6409
   XY=              0.0007   XZ=              0.0005   YZ=             -0.0002
 Octapole moment (field-independent basis, Debye-Ang**2):
  XXX=              0.0001  YYY=              0.0013  ZZZ=              0.0003  XYY=             -0.0005
  XXY=              0.0014  XXZ=              0.0107  XZZ=              0.0002  YZZ=             -0.0010
  YYZ=              0.0003  XYZ=            -16.9782
 Hexadecapole moment (field-independent basis, Debye-Ang**3):
 XXXX=          -1614.5490 YYYY=           -438.7484 ZZZZ=           -141.5025 XXXY=             -0.0035
 XXXZ=              0.0062 YYYX=              0.0092 YYYZ=             -0.0007 ZZZX=              0.0015
 ZZZY=             -0.0007 XXYY=           -396.9636 XXZZ=           -450.1311 YYZZ=           -100.1817
 XXYZ=             -0.0003 YYXZ=              0.0023 ZZXY=             -0.0022
 N-N= 5.984723472889D+02 E-N=-2.256678979667D+03  KE= 4.603222075173D+02
                          Isotropic Fermi Contact Couplings
        Atom                 a.u.       MegaHertz       Gauss      10(-4) cm-1
     1  C(13)             -0.00906     -10.18391      -3.63387      -3.39699
     2  C(13)              0.00655       7.35929       2.62598       2.45480
     3  C(13)              0.00210       2.35642       0.84083       0.78602
     4  C(13)             -0.00906     -10.18528      -3.63436      -3.39744
     5  C(13)             -0.00640      -7.19286      -2.56659      -2.39928
     6  C(13)              0.00210       2.36510       0.84393       0.78891
     7  H(1)              -0.00385     -17.21346      -6.14219      -5.74179
     8  H(1)              -0.00192      -8.57000      -3.05799      -2.85864
     9  H(1)               0.00071       3.16168       1.12816       1.05462
    10  H(1)              -0.00192      -8.57044      -3.05815      -2.85879
    11  C(13)             -0.00640      -7.19340      -2.56679      -2.39946
    12  C(13)              0.00210       2.35938       0.84189       0.78701
    13  C(13)              0.00210       2.36357       0.84338       0.78840
    14  C(13)             -0.00906     -10.18624      -3.63470      -3.39776
    15  C(13)             -0.00906     -10.18491      -3.63423      -3.39732
    16  C(13)              0.00655       7.35940       2.62602       2.45483
    17  H(1)              -0.00192      -8.57276      -3.05897      -2.85956
    18  H(1)              -0.00192      -8.56803      -3.05729      -2.85799
    19  H(1)               0.00071       3.16219       1.12835       1.05479
    20  H(1)               0.00071       3.16216       1.12834       1.05478
    21  H(1)              -0.00385     -17.21340      -6.14217      -5.74177
    22  H(1)               0.00071       3.16216       1.12834       1.05478
 --------------------------------------------------------
       Center         ----  Spin Dipole Couplings  ----
                      3XX-RR        3YY-RR        3ZZ-RR
 --------------------------------------------------------
     1   Atom        0.029284      0.018658     -0.047942
     2   Atom       -0.145350     -0.103408      0.248758
     3   Atom       -0.070749     -0.029068      0.099817
     4   Atom        0.029302      0.018667     -0.047969
     5   Atom       -0.091456     -0.086171      0.177626
     6   Atom       -0.070751     -0.029072      0.099823
     7   Atom        0.020904     -0.016674     -0.004230
     8   Atom       -0.006424      0.010507     -0.004084
     9   Atom        0.000112      0.002470     -0.002581
    10   Atom       -0.006419      0.010504     -0.004085
    11   Atom       -0.091453     -0.086169      0.177621
    12   Atom       -0.070780     -0.029098      0.099879
    13   Atom       -0.070725     -0.029022      0.099747
    14   Atom        0.029296      0.018668     -0.047963
    15   Atom        0.029289      0.018661     -0.047950
    16   Atom       -0.145349     -0.103425      0.248775
    17   Atom       -0.006422      0.010506     -0.004084
    18   Atom       -0.006420      0.010503     -0.004084
    19   Atom        0.000112      0.002469     -0.002581
    20   Atom        0.000110      0.002470     -0.002580
    21   Atom        0.020904     -0.016674     -0.004230
    22   Atom        0.000110      0.002470     -0.002580
 --------------------------------------------------------
                        XY            XZ            YZ
 --------------------------------------------------------
     1   Atom        0.002022     -0.010429      0.023065
     2   Atom       -0.000022      0.000058     -0.143475
     3   Atom        0.014200     -0.025551     -0.081870
     4   Atom       -0.002019      0.010415      0.023076
     5   Atom       -0.000001      0.000017     -0.054096
     6   Atom       -0.014194      0.025545     -0.081868
     7   Atom       -0.000004     -0.000004     -0.005366
     8   Atom       -0.004656     -0.000949      0.003824
     9   Atom        0.001231      0.000606      0.002845
    10   Atom        0.004661      0.000948      0.003822
    11   Atom        0.000003     -0.000000      0.054095
    12   Atom        0.014181      0.025522      0.081883
    13   Atom       -0.014207     -0.025552      0.081873
    14   Atom        0.002020      0.010427     -0.023074
    15   Atom       -0.002020     -0.010416     -0.023064
    16   Atom       -0.000020     -0.000060      0.143451
    17   Atom       -0.004661      0.000948     -0.003824
    18   Atom        0.004656     -0.000949     -0.003824
    19   Atom       -0.001230      0.000606     -0.002846
    20   Atom        0.001230     -0.000605     -0.002846
    21   Atom        0.000000      0.000002      0.005365
    22   Atom       -0.001229     -0.000605      0.002847
 --------------------------------------------------------


 ---------------------------------------------------------------------------------
              Anisotropic Spin Dipole Couplings in Principal Axis System
 ---------------------------------------------------------------------------------

       Atom             a.u.   MegaHertz   Gauss  10(-4) cm-1        Axes

              Baa    -0.0565    -7.575    -2.703    -2.527  0.1222 -0.2944  0.9478
     1 C(13)  Bbb     0.0256     3.434     1.225     1.145  0.2265  0.9381  0.2621
              Bcc     0.0309     4.141     1.478     1.381  0.9663 -0.1827 -0.1814
 
              Baa    -0.1545   -20.727    -7.396    -6.914  0.0001  0.9421  0.3352
     2 C(13)  Bbb    -0.1454   -19.505    -6.960    -6.506  1.0000 -0.0000 -0.0002
              Bcc     0.2998    40.232    14.356    13.420  0.0001 -0.3352  0.9421
 
              Baa    -0.0751   -10.082    -3.597    -3.363  0.9605 -0.2781  0.0102
     3 C(13)  Bbb    -0.0684    -9.180    -3.276    -3.062  0.2433  0.8571  0.4541
              Bcc     0.1435    19.262     6.873     6.425 -0.1350 -0.4337  0.8909
 
              Baa    -0.0565    -7.579    -2.704    -2.528 -0.1220 -0.2944  0.9479
     4 C(13)  Bbb     0.0256     3.436     1.226     1.146 -0.2263  0.9381  0.2622
              Bcc     0.0309     4.143     1.478     1.382  0.9664  0.1825  0.1811
 
              Baa    -0.0968   -12.994    -4.637    -4.334 -0.0005  0.9811  0.1934
     5 C(13)  Bbb    -0.0915   -12.272    -4.379    -4.094  1.0000  0.0005  0.0000
              Bcc     0.1883    25.267     9.016     8.428  0.0001 -0.1934  0.9811
 
              Baa    -0.0751   -10.082    -3.597    -3.363  0.9606  0.2778 -0.0103
     6 C(13)  Bbb    -0.0684    -9.180    -3.276    -3.062 -0.2430  0.8572  0.4540
              Bcc     0.1435    19.262     6.873     6.425  0.1349 -0.4337  0.8909
 
              Baa    -0.0187    -9.960    -3.554    -3.322  0.0001  0.9374  0.3484
     7 H(1)   Bbb    -0.0022    -1.193    -0.426    -0.398  0.0001 -0.3484  0.9374
              Bcc     0.0209    11.154     3.980     3.720  1.0000 -0.0001 -0.0001
 
              Baa    -0.0076    -4.066    -1.451    -1.356  0.9679  0.2511 -0.0119
     8 H(1)   Bbb    -0.0050    -2.674    -0.954    -0.892  0.0689 -0.2192  0.9733
              Bcc     0.0126     6.740     2.405     2.248 -0.2418  0.9428  0.2294
 
              Baa    -0.0039    -2.060    -0.735    -0.687 -0.0129 -0.4078  0.9130
     9 H(1)   Bbb    -0.0003    -0.185    -0.066    -0.062  0.9482 -0.2949 -0.1183
              Bcc     0.0042     2.245     0.801     0.749  0.3175  0.8641  0.3905
 
              Baa    -0.0076    -4.065    -1.450    -1.356  0.9678 -0.2515  0.0125
    10 H(1)   Bbb    -0.0050    -2.674    -0.954    -0.892 -0.0694 -0.2189  0.9733
              Bcc     0.0126     6.739     2.405     2.248  0.2421  0.9428  0.2293
 
              Baa    -0.0968   -12.994    -4.637    -4.334 -0.0005  0.9811 -0.1934
    11 C(13)  Bbb    -0.0915   -12.272    -4.379    -4.094  1.0000  0.0005 -0.0001
              Bcc     0.1883    25.266     9.015     8.428  0.0000  0.1934  0.9811
 
              Baa    -0.0752   -10.084    -3.598    -3.364  0.9605 -0.2779 -0.0100
    12 C(13)  Bbb    -0.0684    -9.183    -3.277    -3.063  0.2433  0.8572 -0.4539
              Bcc     0.1436    19.268     6.875     6.427  0.1348  0.4336  0.8910
 
              Baa    -0.0751   -10.079    -3.596    -3.362  0.9605  0.2780  0.0102
    13 C(13)  Bbb    -0.0684    -9.177    -3.275    -3.061 -0.2432  0.8570 -0.4543
              Bcc     0.1435    19.256     6.871     6.423 -0.1350  0.4339  0.8908
 
              Baa    -0.0565    -7.578    -2.704    -2.528 -0.1222  0.2944  0.9479
    14 C(13)  Bbb     0.0256     3.436     1.226     1.146  0.2267  0.9380 -0.2621
              Bcc     0.0309     4.142     1.478     1.382  0.9663 -0.1829  0.1813
 
              Baa    -0.0565    -7.575    -2.703    -2.527  0.1221  0.2943  0.9479
    15 C(13)  Bbb     0.0256     3.434     1.225     1.146 -0.2261  0.9382 -0.2622
              Bcc     0.0309     4.141     1.478     1.381  0.9664  0.1823 -0.1811
 
              Baa    -0.1545   -20.727    -7.396    -6.914 -0.0001  0.9422 -0.3352
    16 C(13)  Bbb    -0.1453   -19.504    -6.960    -6.506  1.0000  0.0001  0.0001
              Bcc     0.2998    40.231    14.356    13.420 -0.0001  0.3352  0.9422
 
              Baa    -0.0076    -4.066    -1.451    -1.356  0.9678  0.2515  0.0124
    17 H(1)   Bbb    -0.0050    -2.674    -0.954    -0.892 -0.0694  0.2190  0.9733
              Bcc     0.0126     6.741     2.405     2.248 -0.2420  0.9428 -0.2294
 
              Baa    -0.0076    -4.064    -1.450    -1.356  0.9678 -0.2512 -0.0120
    18 H(1)   Bbb    -0.0050    -2.674    -0.954    -0.892  0.0690  0.2192  0.9732
              Bcc     0.0126     6.738     2.404     2.248  0.2419  0.9428 -0.2295
 
              Baa    -0.0039    -2.060    -0.735    -0.687 -0.0129  0.4079  0.9129
    19 H(1)   Bbb    -0.0003    -0.185    -0.066    -0.062  0.9482  0.2949 -0.1183
              Bcc     0.0042     2.245     0.801     0.749 -0.3175  0.8641 -0.3906
 
              Baa    -0.0039    -2.060    -0.735    -0.687  0.0128  0.4080  0.9129
    20 H(1)   Bbb    -0.0003    -0.186    -0.066    -0.062  0.9483 -0.2944  0.1183
              Bcc     0.0042     2.245     0.801     0.749  0.3170  0.8642 -0.3906
 
              Baa    -0.0187    -9.960    -3.554    -3.322  0.0000  0.9374 -0.3483
    21 H(1)   Bbb    -0.0022    -1.193    -0.426    -0.398 -0.0001  0.3483  0.9374
              Bcc     0.0209    11.153     3.980     3.720  1.0000  0.0000  0.0001
 
              Baa    -0.0039    -2.060    -0.735    -0.687  0.0128 -0.4081  0.9129
    22 H(1)   Bbb    -0.0003    -0.185    -0.066    -0.062  0.9483  0.2944  0.1183
              Bcc     0.0042     2.245     0.801     0.749 -0.3170  0.8642  0.3907
 

 ---------------------------------------------------------------------------------

 No NMR shielding tensors so no spin-rotation constants.
 Leave Link  601 at Sun Jan 17 10:08:17 2021, MaxMem=  4026531840 cpu:               2.7 elap:               0.4
 (Enter /opt/ohpc/pub/libs/gaussian/g16-A.03/sandybridge/g16/l9999.exe)

 Test job not archived.
 1\1\GINC-CASCADEB028\SP\ULC-wHPBE\TZVP\C12H10(1+,2)\RDU230\17-Jan-2021
 \0\\#P LC-wHPBE/TZVP iop(3/107=0235700000, 3/108=0235700000) scf=(conv
 er=6,fermi,ndamp=35,noincfock,novaracc,vshift=500,xqc)\\H10 C12\\1,2\C
 ,0,-2.8585,1.132993,0.41369\C,0,-3.561927,-0.000084,-0.000146\C,0,-1.4
 63685,1.132747,0.413534\C,0,-2.858269,-1.133176,-0.413741\C,0,-0.74238
 1,0.000123,0.000091\C,0,-1.463491,-1.132675,-0.413489\H,0,-4.653174,-0
 .00016,-0.000261\H,0,-0.922222,2.014213,0.762301\H,0,-3.398792,-2.0209
 86,-0.747134\H,0,-0.921754,-2.014027,-0.762095\C,0,0.742385,0.000142,0
 .000197\C,0,1.463539,-1.132637,0.413582\C,0,1.463636,1.132765,-0.41347
 7\C,0,2.858357,-1.133114,0.41366\C,0,2.858412,1.133073,-0.413706\C,0,3
 .561931,-0.000095,-0.000087\H,0,0.921935,-2.014039,0.762261\H,0,0.9220
 17,2.014128,-0.762265\H,0,3.398826,-2.021,0.746938\H,0,3.399026,2.0208
 05,-0.747168\H,0,4.653184,-0.000117,-0.000198\H,0,-3.399078,2.020813,0
 .746974\\Version=EM64L-G16RevA.03\State=2-A\HF=-462.7182908\S2=0.77810
 8\S2-1=0.\S2A=0.75056\RMSD=6.103e-07\Dipole=-0.000019,-0.0000295,-0.00
 01102\Quadrupole=21.0117292,-4.1787565,-16.8329727,-0.0005269,-0.00035
 52,-0.0001445\PG=C01 [X(C12H10)]\\@


 NEVER TEACH A PIG TO SING.
 IT WASTES YOUR TIME AND ANNOYS THE PIG.
     -- SEEN ON A GREETING CARD
 Job cpu time:       0 days  0 hours 19 minutes 30.3 seconds.
 Elapsed time:       0 days  0 hours  2 minutes 27.2 seconds.
 File lengths (MBytes):  RWF=    100 Int=      0 D2E=      0 Chk=     12 Scr=      8
 Normal termination of Gaussian 16 at Sun Jan 17 10:08:18 2021.
