 Entering Gaussian System, Link 0=g16
 Input=mol_bp_NN_frag_tune_n0.gjf
 Output=mol_bp_NN_frag_tune_n0.log
 Initial command:
 /opt/ohpc/pub/libs/gaussian/g16-A.03/sandybridge/g16/l1.exe "/mnt/gpfs2_4m/scratch/rdu230/ondemand/projects/init_structures/wtuning/mol_bp_NN_frag/tuning_mol_bp_NN_frag_ocycle0/Gau-296156.inp" -scrdir="/mnt/gpfs2_4m/scratch/rdu230/ondemand/projects/init_structures/wtuning/mol_bp_NN_frag/tuning_mol_bp_NN_frag_ocycle0/"
 Entering Link 1 = /opt/ohpc/pub/libs/gaussian/g16-A.03/sandybridge/g16/l1.exe PID=    296157.
  
 Copyright (c) 1988,1990,1992,1993,1995,1998,2003,2009,2016,
            Gaussian, Inc.  All Rights Reserved.
  
 This is part of the Gaussian(R) 16 program.  It is based on
 the Gaussian(R) 09 system (copyright 2009, Gaussian, Inc.),
 the Gaussian(R) 03 system (copyright 2003, Gaussian, Inc.),
 the Gaussian(R) 98 system (copyright 1998, Gaussian, Inc.),
 the Gaussian(R) 94 system (copyright 1995, Gaussian, Inc.),
 the Gaussian 92(TM) system (copyright 1992, Gaussian, Inc.),
 the Gaussian 90(TM) system (copyright 1990, Gaussian, Inc.),
 the Gaussian 88(TM) system (copyright 1988, Gaussian, Inc.),
 the Gaussian 86(TM) system (copyright 1986, Carnegie Mellon
 University), and the Gaussian 82(TM) system (copyright 1983,
 Carnegie Mellon University). Gaussian is a federally registered
 trademark of Gaussian, Inc.
  
 This software contains proprietary and confidential information,
 including trade secrets, belonging to Gaussian, Inc.
  
 This software is provided under written license and may be
 used, copied, transmitted, or stored only in accord with that
 written license.
  
 The following legend is applicable only to US Government
 contracts under FAR:
  
                    RESTRICTED RIGHTS LEGEND
  
 Use, reproduction and disclosure by the US Government is
 subject to restrictions as set forth in subparagraphs (a)
 and (c) of the Commercial Computer Software - Restricted
 Rights clause in FAR 52.227-19.
  
 Gaussian, Inc.
 340 Quinnipiac St., Bldg. 40, Wallingford CT 06492
  
  
 ---------------------------------------------------------------
 Warning -- This program may not be used in any manner that
 competes with the business of Gaussian, Inc. or will provide
 assistance to any competitor of Gaussian, Inc.  The licensee
 of this program is prohibited from giving any competitor of
 Gaussian, Inc. access to this program.  By using this program,
 the user acknowledges that Gaussian, Inc. is engaged in the
 business of creating and licensing software in the field of
 computational chemistry and represents and warrants to the
 licensee that it is not a competitor of Gaussian, Inc. and that
 it will not use this program in any manner prohibited above.
 ---------------------------------------------------------------
  

 Cite this work as:
 Gaussian 16, Revision A.03,
 M. J. Frisch, G. W. Trucks, H. B. Schlegel, G. E. Scuseria, 
 M. A. Robb, J. R. Cheeseman, G. Scalmani, V. Barone, 
 G. A. Petersson, H. Nakatsuji, X. Li, M. Caricato, A. V. Marenich, 
 J. Bloino, B. G. Janesko, R. Gomperts, B. Mennucci, H. P. Hratchian, 
 J. V. Ortiz, A. F. Izmaylov, J. L. Sonnenberg, D. Williams-Young, 
 F. Ding, F. Lipparini, F. Egidi, J. Goings, B. Peng, A. Petrone, 
 T. Henderson, D. Ranasinghe, V. G. Zakrzewski, J. Gao, N. Rega, 
 G. Zheng, W. Liang, M. Hada, M. Ehara, K. Toyota, R. Fukuda, 
 J. Hasegawa, M. Ishida, T. Nakajima, Y. Honda, O. Kitao, H. Nakai, 
 T. Vreven, K. Throssell, J. A. Montgomery, Jr., J. E. Peralta, 
 F. Ogliaro, M. J. Bearpark, J. J. Heyd, E. N. Brothers, K. N. Kudin, 
 V. N. Staroverov, T. A. Keith, R. Kobayashi, J. Normand, 
 K. Raghavachari, A. P. Rendell, J. C. Burant, S. S. Iyengar, 
 J. Tomasi, M. Cossi, J. M. Millam, M. Klene, C. Adamo, R. Cammi, 
 J. W. Ochterski, R. L. Martin, K. Morokuma, O. Farkas, 
 J. B. Foresman, and D. J. Fox, Gaussian, Inc., Wallingford CT, 2016.
 
 ******************************************
 Gaussian 16:  EM64L-G16RevA.03 25-Dec-2016
                17-Jan-2021 
 ******************************************
 %mem=30GB
 %nproc=8
 Will use up to    8 processors via shared memory.
 ----------------------------------------------------------------------
 #P LC-wHPBE/TZVP iop(3/107=0221900000, 3/108=0221900000) scf=(conver=6
 ,fermi,ndamp=35,noincfock,novaracc,vshift=500,xqc)
 ----------------------------------------------------------------------
 1/38=1,172=1/1;
 2/12=2,17=6,18=5,40=1/2;
 3/5=19,7=101,11=2,25=1,30=1,74=-71,107=221900000,108=221900000/1,2,3;
 4//1;
 5/5=100002,6=6,8=3,10=500,13=1,18=-1,22=13,38=1,93=35/2,8;
 6/7=2,8=2,9=2,10=2,28=1/1;
 99/5=1,9=1/99;
 Leave Link    1 at Sun Jan 17 09:35:29 2021, MaxMem=  4026531840 cpu:               1.4 elap:               0.2
 (Enter /opt/ohpc/pub/libs/gaussian/g16-A.03/sandybridge/g16/l101.exe)
 -------
 H10 C12
 -------
 Symbolic Z-matrix:
 Charge =  0 Multiplicity = 1
 C                    -2.8585    1.13299   0.41369 
 C                    -3.56193  -0.00008  -0.00015 
 C                    -1.46369   1.13275   0.41353 
 C                    -2.85827  -1.13318  -0.41374 
 C                    -0.74238   0.00012   0.00009 
 C                    -1.46349  -1.13268  -0.41349 
 H                    -4.65317  -0.00016  -0.00026 
 H                    -0.92222   2.01421   0.7623 
 H                    -3.39879  -2.02099  -0.74713 
 H                    -0.92175  -2.01403  -0.7621 
 C                     0.74239   0.00014   0.0002 
 C                     1.46354  -1.13264   0.41358 
 C                     1.46364   1.13277  -0.41348 
 C                     2.85836  -1.13311   0.41366 
 C                     2.85841   1.13307  -0.41371 
 C                     3.56193  -0.0001   -0.00009 
 H                     0.92194  -2.01404   0.76226 
 H                     0.92202   2.01413  -0.76227 
 H                     3.39883  -2.021     0.74694 
 H                     3.39903   2.02081  -0.74717 
 H                     4.65318  -0.00012  -0.0002 
 H                    -3.39908   2.02081   0.74697 
 
 ITRead=  0  0  0  0  0  0  0  0  0  0  0  0  0  0  0  0  0  0  0  0
 ITRead=  0  0
 MicOpt= -1 -1 -1 -1 -1 -1 -1 -1 -1 -1 -1 -1 -1 -1 -1 -1 -1 -1 -1 -1
 MicOpt= -1 -1
 NAtoms=     22 NQM=       22 NQMF=       0 NMMI=      0 NMMIF=      0
                NMic=       0 NMicF=      0.
                    Isotopes and Nuclear Properties:
 (Nuclear quadrupole moments (NQMom) in fm**2, nuclear magnetic moments (NMagM)
  in nuclear magnetons)

  Atom         1           2           3           4           5           6           7           8           9          10
 IAtWgt=          12          12          12          12          12          12           1           1           1           1
 AtmWgt=  12.0000000  12.0000000  12.0000000  12.0000000  12.0000000  12.0000000   1.0078250   1.0078250   1.0078250   1.0078250
 NucSpn=           0           0           0           0           0           0           1           1           1           1
 AtZEff=  -0.0000000  -0.0000000  -0.0000000  -0.0000000  -0.0000000  -0.0000000  -0.0000000  -0.0000000  -0.0000000  -0.0000000
 NQMom=    0.0000000   0.0000000   0.0000000   0.0000000   0.0000000   0.0000000   0.0000000   0.0000000   0.0000000   0.0000000
 NMagM=    0.0000000   0.0000000   0.0000000   0.0000000   0.0000000   0.0000000   2.7928460   2.7928460   2.7928460   2.7928460
 AtZNuc=   6.0000000   6.0000000   6.0000000   6.0000000   6.0000000   6.0000000   1.0000000   1.0000000   1.0000000   1.0000000

  Atom        11          12          13          14          15          16          17          18          19          20
 IAtWgt=          12          12          12          12          12          12           1           1           1           1
 AtmWgt=  12.0000000  12.0000000  12.0000000  12.0000000  12.0000000  12.0000000   1.0078250   1.0078250   1.0078250   1.0078250
 NucSpn=           0           0           0           0           0           0           1           1           1           1
 AtZEff=  -0.0000000  -0.0000000  -0.0000000  -0.0000000  -0.0000000  -0.0000000  -0.0000000  -0.0000000  -0.0000000  -0.0000000
 NQMom=    0.0000000   0.0000000   0.0000000   0.0000000   0.0000000   0.0000000   0.0000000   0.0000000   0.0000000   0.0000000
 NMagM=    0.0000000   0.0000000   0.0000000   0.0000000   0.0000000   0.0000000   2.7928460   2.7928460   2.7928460   2.7928460
 AtZNuc=   6.0000000   6.0000000   6.0000000   6.0000000   6.0000000   6.0000000   1.0000000   1.0000000   1.0000000   1.0000000

  Atom        21          22
 IAtWgt=           1           1
 AtmWgt=   1.0078250   1.0078250
 NucSpn=           1           1
 AtZEff=  -0.0000000  -0.0000000
 NQMom=    0.0000000   0.0000000
 NMagM=    2.7928460   2.7928460
 AtZNuc=   1.0000000   1.0000000
 Leave Link  101 at Sun Jan 17 09:35:29 2021, MaxMem=  4026531840 cpu:               0.7 elap:               0.1
 (Enter /opt/ohpc/pub/libs/gaussian/g16-A.03/sandybridge/g16/l202.exe)
                          Input orientation:                          
 ---------------------------------------------------------------------
 Center     Atomic      Atomic             Coordinates (Angstroms)
 Number     Number       Type             X           Y           Z
 ---------------------------------------------------------------------
      1          6           0       -2.858500    1.132993    0.413690
      2          6           0       -3.561927   -0.000084   -0.000146
      3          6           0       -1.463685    1.132747    0.413534
      4          6           0       -2.858269   -1.133176   -0.413741
      5          6           0       -0.742381    0.000123    0.000091
      6          6           0       -1.463491   -1.132675   -0.413489
      7          1           0       -4.653174   -0.000160   -0.000261
      8          1           0       -0.922222    2.014213    0.762301
      9          1           0       -3.398792   -2.020986   -0.747134
     10          1           0       -0.921754   -2.014027   -0.762095
     11          6           0        0.742385    0.000142    0.000197
     12          6           0        1.463539   -1.132637    0.413582
     13          6           0        1.463636    1.132765   -0.413477
     14          6           0        2.858357   -1.133114    0.413660
     15          6           0        2.858412    1.133073   -0.413706
     16          6           0        3.561931   -0.000095   -0.000087
     17          1           0        0.921935   -2.014039    0.762261
     18          1           0        0.922017    2.014128   -0.762265
     19          1           0        3.398826   -2.021000    0.746938
     20          1           0        3.399026    2.020805   -0.747168
     21          1           0        4.653184   -0.000117   -0.000198
     22          1           0       -3.399078    2.020813    0.746974
 ---------------------------------------------------------------------
                    Distance matrix (angstroms):
                    1          2          3          4          5
     1  C    0.000000
     2  C    1.396400   0.000000
     3  C    1.394815   2.420136   0.000000
     4  C    2.412502   1.396457   2.786334   0.000000
     5  C    2.435656   2.819546   1.405010   2.435694   0.000000
     6  C    2.786311   2.420134   2.411660   1.394778   1.405091
     7  H    2.162463   1.091247   3.409919   2.162493   3.910793
     8  H    2.155748   3.406870   1.091697   3.877810   2.160987
     9  H    3.403970   2.160706   3.877863   1.091569   3.420489
    10  H    3.877782   3.406912   3.402643   2.155769   2.160996
    11  C    3.797460   4.304312   2.514038   3.797429   1.484766
    12  C    4.879867   5.168090   3.701433   4.400283   2.514001
    13  C    4.400576   5.168218   3.041900   4.879893   2.514046
    14  C    6.149609   6.532613   4.879977   5.776193   3.797444
    15  C    5.776475   6.532674   4.400551   6.149498   3.797435
    16  C    6.532766   7.123858   5.168291   6.532530   4.304312
    17  H    4.931227   4.974163   3.964222   4.055717   2.721709
    18  H    4.056054   4.974297   2.801947   4.931283   2.721695
    19  H    7.015187   7.286585   5.805281   6.425468   4.668224
    20  H    6.425919   7.286762   5.077582   7.015163   4.668276
    21  H    7.607933   8.215111   6.234632   7.607678   5.395565
    22  H    1.091571   2.160725   2.155363   3.404024   3.420389
                    6          7          8          9         10
     6  C    0.000000
     7  H    3.409901   0.000000
     8  H    3.402699   4.308039   0.000000
     9  H    2.155413   2.492996   4.969369   0.000000
    10  H    1.091690   4.308079   4.307029   2.477093   0.000000
    11  C    2.514021   5.395559   2.721801   4.668277   2.721640
    12  C    3.041636   6.234416   3.964357   5.077272   2.801551
    13  C    3.701390   6.234551   2.802093   5.805229   3.964079
    14  C    4.400289   7.607760   4.931531   6.425548   4.055570
    15  C    4.879801   7.607830   4.056180   7.015117   4.931051
    16  C    5.168027   8.215105   4.974565   7.286545   4.973933
    17  H    2.801687   5.976537   4.430319   4.576790   2.392248
    18  H    3.964172   5.976685   2.392806   5.912002   4.430070
    19  H    5.077188   8.335275   5.912245   6.959875   4.576532
    20  H    5.805157   8.335472   4.577305   7.908628   5.911788
    21  H    6.234357   9.306358   5.976963   8.335235   5.976308
    22  H    3.877842   2.493080   2.476912   4.309118   4.969342
                   11         12         13         14         15
    11  C    0.000000
    12  C    1.405040   0.000000
    13  C    1.405049   2.411654   0.000000
    14  C    2.435684   1.394818   2.786326   0.000000
    15  C    2.435656   2.786309   1.394776   2.412496   0.000000
    16  C    2.819546   2.420129   2.420146   1.396401   1.396456
    17  H    2.160996   1.091687   3.402672   2.155755   3.877777
    18  H    2.160962   3.402645   1.091698   3.877801   2.155778
    19  H    3.420426   2.155377   3.877855   1.091569   3.404015
    20  H    3.420435   3.877840   2.155388   3.403976   1.091572
    21  H    3.910799   3.409934   3.409903   2.162490   2.162479
    22  H    4.668244   5.805208   5.077525   7.015258   6.425842
                   16         17         18         19         20
    16  C    0.000000
    17  H    3.406864   0.000000
    18  H    3.406928   4.307007   0.000000
    19  H    2.160719   2.476948   4.969360   0.000000
    20  H    2.160719   4.969338   2.477064   4.309123   0.000000
    21  H    1.091253   4.308067   4.308078   2.493109   2.492991
    22  H    7.286825   5.911972   4.577085   7.908714   6.960365
                   21         22
    21  H    0.000000
    22  H    8.335547   0.000000
 Stoichiometry    C12H10
 Framework group  C1[X(C12H10)]
 Deg. of freedom    60
 Full point group                 C1      NOp   1
 Largest Abelian subgroup         C1      NOp   1
 Largest concise Abelian subgroup C1      NOp   1
                         Standard orientation:                         
 ---------------------------------------------------------------------
 Center     Atomic      Atomic             Coordinates (Angstroms)
 Number     Number       Type             X           Y           Z
 ---------------------------------------------------------------------
      1          6           0       -2.858500   -1.132993   -0.413690
      2          6           0       -3.561927    0.000084    0.000146
      3          6           0       -1.463685   -1.132747   -0.413534
      4          6           0       -2.858269    1.133176    0.413741
      5          6           0       -0.742381   -0.000123   -0.000091
      6          6           0       -1.463491    1.132675    0.413489
      7          1           0       -4.653174    0.000160    0.000261
      8          1           0       -0.922222   -2.014213   -0.762301
      9          1           0       -3.398792    2.020986    0.747134
     10          1           0       -0.921754    2.014027    0.762095
     11          6           0        0.742385   -0.000142   -0.000197
     12          6           0        1.463539    1.132637   -0.413582
     13          6           0        1.463636   -1.132765    0.413477
     14          6           0        2.858357    1.133114   -0.413660
     15          6           0        2.858412   -1.133073    0.413706
     16          6           0        3.561931    0.000095    0.000087
     17          1           0        0.921935    2.014039   -0.762261
     18          1           0        0.922017   -2.014128    0.762265
     19          1           0        3.398826    2.021000   -0.746938
     20          1           0        3.399026   -2.020805    0.747168
     21          1           0        4.653184    0.000117    0.000198
     22          1           0       -3.399078   -2.020813   -0.746974
 ---------------------------------------------------------------------
 Rotational constants (GHZ):           2.8545349           0.5449545           0.4756990
 Leave Link  202 at Sun Jan 17 09:35:29 2021, MaxMem=  4026531840 cpu:               0.3 elap:               0.1
 (Enter /opt/ohpc/pub/libs/gaussian/g16-A.03/sandybridge/g16/l301.exe)
 Standard basis: TZVP (5D, 7F)
 Ernie: Thresh=  0.10000D-02 Tol=  0.10000D-05 Strict=F.
 There are   300 symmetry adapted cartesian basis functions of A   symmetry.
 There are   288 symmetry adapted basis functions of A   symmetry.
   288 basis functions,   500 primitive gaussians,   300 cartesian basis functions
    41 alpha electrons       41 beta electrons
       nuclear repulsion energy       598.4723472889 Hartrees.
 IExCor=33909 DFT=T Ex+Corr=LC-wHPBE ExCW=0 ScaHFX=  1.000000
 ScaDFX=  1.000000  1.000000  1.000000  1.000000 ScalE2=  1.000000  1.000000
 IRadAn=      5 IRanWt=     -1 IRanGd=            0 ICorTp=0 IEmpDi=  4
 HFx  wShort=  0.000000 wLong=  0.221900 cFull=  0.000000 cShort=  0.000000 cLong=  1.000000
 DFx  wShort=  0.000000 wLong=  0.221900 cFull=  0.000000 cShort=  1.000000 cLong=  0.000000
 NAtoms=   22 NActive=   22 NUniq=   22 SFac= 1.00D+00 NAtFMM=   60 NAOKFM=F Big=F
 Integral buffers will be    131072 words long.
 Raffenetti 2 integral format.
 Two-electron integral symmetry is turned on.
 Leave Link  301 at Sun Jan 17 09:35:30 2021, MaxMem=  4026531840 cpu:               0.4 elap:               0.1
 (Enter /opt/ohpc/pub/libs/gaussian/g16-A.03/sandybridge/g16/l302.exe)
 NPDir=0 NMtPBC=     1 NCelOv=     1 NCel=       1 NClECP=     1 NCelD=      1
         NCelK=      1 NCelE2=     1 NClLst=     1 CellRange=     0.0.
 One-electron integrals computed using PRISM.
 One-electron integral symmetry used in STVInt
 NBasis=   288 RedAO= T EigKep=  9.18D-06  NBF=   288
 NBsUse=   288 1.00D-06 EigRej= -1.00D+00 NBFU=   288
 Precomputing XC quadrature grid using
 IXCGrd= 4 IRadAn=           5 IRanWt=          -1 IRanGd=           0 AccXCQ= 0.00D+00.
 Generated NRdTot=       0 NPtTot=           0 NUsed=           0 NTot=          32
 NSgBfM=   295   295   295   295   295 MxSgAt=    22 MxSgA2=    22.
 Leave Link  302 at Sun Jan 17 09:35:30 2021, MaxMem=  4026531840 cpu:               2.3 elap:               0.3
 (Enter /opt/ohpc/pub/libs/gaussian/g16-A.03/sandybridge/g16/l303.exe)
 DipDrv:  MaxL=1.
 Leave Link  303 at Sun Jan 17 09:35:30 2021, MaxMem=  4026531840 cpu:               0.3 elap:               0.1
 (Enter /opt/ohpc/pub/libs/gaussian/g16-A.03/sandybridge/g16/l401.exe)
 ExpMin= 9.52D-02 ExpMax= 1.36D+04 ExpMxC= 4.63D+02 IAcc=3 IRadAn=         5 AccDes= 0.00D+00
 Harris functional with IExCor=33909 and IRadAn=       5 diagonalized for initial guess.
 HarFok:  IExCor=33909 AccDes= 0.00D+00 IRadAn=         5 IDoV= 1 UseB2=F ITyADJ=14
 ICtDFT=  3500011 ScaDFX=  1.000000  1.000000  1.000000  1.000000
 FoFCou: FMM=F IPFlag=           0 FMFlag=      100000 FMFlg1=           0
         NFxFlg=           0 DoJE=T BraDBF=F KetDBF=T FulRan=T
         wScrn=  0.000000 ICntrl=       500 IOpCl=  0 I1Cent=   200000004 NGrid=           0
         NMat0=    1 NMatS0=      1 NMatT0=    0 NMatD0=    1 NMtDS0=    0 NMtDT0=    0
 Petite list used in FoFCou.
 Harris En= -453.453931501101    
 JPrj=0 DoOrth=F DoCkMO=F.
 Leave Link  401 at Sun Jan 17 09:35:32 2021, MaxMem=  4026531840 cpu:              13.9 elap:               1.8
 (Enter /opt/ohpc/pub/libs/gaussian/g16-A.03/sandybridge/g16/l502.exe)
 Integral symmetry usage will be decided dynamically.
 Closed shell SCF:
 Using DIIS extrapolation, IDIIS=    10.
 NGot=  4026531840 LenX=  4026346394 LenY=  4026255953
 Requested convergence on RMS density matrix=1.00D-06 within  32 cycles.
 Requested convergence on MAX density matrix=1.00D-04.
 Requested convergence on             energy=1.00D-04.
 Virtual orbitals will be shifted by   0.500 hartree.
 No special actions if energy rises.
 Dynamic level shift is on during FON iterations.

 Cycle   1  Pass 1  IDiag  1:
 FoFJK:  IHMeth= 1 ICntrl=       0 DoSepK=T KAlg= 0 I1Cent=           0 FoldK=F
 IRaf=         1 NMat=       1 IRICut=       1 DoRegI=T DoRafI=F ISym2E= 0 IDoP0=0 IntGTp=1.
 FoFCou: FMM=F IPFlag=           0 FMFlag=      100000 FMFlg1=           0
         NFxFlg=           0 DoJE=T BraDBF=F KetDBF=F FulRan=T
         wScrn=  0.000000 ICntrl=       500 IOpCl=  0 I1Cent=           0 NGrid=           0
         NMat0=    1 NMatS0=      1 NMatT0=    0 NMatD0=    1 NMtDS0=    0 NMtDT0=    0
 Symmetry not used in FoFCou.
 E= -462.828109969685    
 DIIS: error= 3.02D-02 at cycle   1 NSaved=   1.
 NSaved= 1 IEnMin= 1 EnMin= -462.828109969685     IErMin= 1 ErrMin= 3.02D-02
 ErrMax= 3.02D-02  0.00D+00 EMaxC= 1.00D+00 BMatC= 1.75D-01 BMatP= 1.75D-01
 IDIUse=1 WtCom= 1.00D+00 WtEn= 0.00D+00
 Coeff-Com:  0.100D+01
 Coeff:      0.100D+01
 Gap=     0.319 Goal=   None    Shift=    0.500
 T= 1501. Gap= 0.807 NK=0 IS=   42 IE=  288 IFin=   41
          NO(<0.9)=   0  NV(>0.1)=   0     41.00e < EF      0.00e >EF  Err=0.0D+00
 GapD=    0.319 DampG=1.000 DampE=0.500 DampFc=0.5000 IDamp=-1.
 Damping current iteration by 5.00D-01
 RMSDP=2.94D-03 MaxDP=9.13D-02              OVMax= 6.38D-02

 Cycle   2  Pass 1  IDiag  1:
 E= -462.940050131433     Delta-E=       -0.111940161748 Rises=F Damp=T
 DIIS: error= 1.43D-02 at cycle   2 NSaved=   2.
 NSaved= 2 IEnMin= 2 EnMin= -462.940050131433     IErMin= 2 ErrMin= 1.43D-02
 ErrMax= 1.43D-02  0.00D+00 EMaxC= 1.00D+00 BMatC= 3.46D-02 BMatP= 1.75D-01
 IDIUse=1 WtCom= 1.00D+00 WtEn= 0.00D+00
 Coeff-Com: -0.695D+00 0.169D+01
 Coeff:     -0.695D+00 0.169D+01
 Gap=     0.325 Goal=   None    Shift=    0.500
 T= 1385. Gap= 0.821 NK=0 IS=   42 IE=  288 IFin=   41
          NO(<0.9)=   0  NV(>0.1)=   0     41.00e < EF      0.00e >EF  Err=0.0D+00
 GapD=    0.325 DampG=1.000 DampE=0.500 DampFc=0.5000 IDamp=-1.
 Damping current iteration by 5.00D-01
 RMSDP=1.79D-03 MaxDP=5.89D-02 DE=-1.12D-01 OVMax= 9.30D-03

 Cycle   3  Pass 1  IDiag  1:
 E= -462.981010031921     Delta-E=       -0.040959900488 Rises=F Damp=T
 DIIS: error= 6.85D-03 at cycle   3 NSaved=   3.
 NSaved= 3 IEnMin= 3 EnMin= -462.981010031921     IErMin= 3 ErrMin= 6.85D-03
 ErrMax= 6.85D-03  0.00D+00 EMaxC= 1.00D+00 BMatC= 7.43D-03 BMatP= 3.46D-02
 IDIUse=1 WtCom= 1.00D+00 WtEn= 0.00D+00
 Coeff-Com:  0.126D+00-0.123D+01 0.211D+01
 Coeff:      0.126D+00-0.123D+01 0.211D+01
 Gap=     0.321 Goal=   None    Shift=    0.500
 T= 1160. Gap= 0.821 NK=0 IS=   42 IE=  288 IFin=   41
          NO(<0.9)=   0  NV(>0.1)=   0     41.00e < EF      0.00e >EF  Err=0.0D+00
 GapD=    0.321 DampG=1.000 DampE=1.000 DampFc=1.0000 IDamp=-1.
 RMSDP=9.35D-04 MaxDP=2.99D-02 DE=-4.10D-02 OVMax= 4.99D-03

 Cycle   4  Pass 1  IDiag  1:
 E= -463.014992320551     Delta-E=       -0.033982288630 Rises=F Damp=F
 DIIS: error= 7.86D-04 at cycle   4 NSaved=   4.
 NSaved= 4 IEnMin= 4 EnMin= -463.014992320551     IErMin= 4 ErrMin= 7.86D-04
 ErrMax= 7.86D-04  0.00D+00 EMaxC= 1.00D+00 BMatC= 1.19D-04 BMatP= 7.43D-03
 IDIUse=1 WtCom= 1.00D+00 WtEn= 0.00D+00
 Coeff-Com:  0.739D-01-0.179D+00 0.952D-01 0.101D+01
 Coeff:      0.739D-01-0.179D+00 0.952D-01 0.101D+01
 Gap=     0.321 Goal=   None    Shift=    0.500
 RMSDP=1.77D-04 MaxDP=2.95D-03 DE=-3.40D-02 OVMax= 2.33D-03

 Cycle   5  Pass 1  IDiag  1:
 E= -463.015147288485     Delta-E=       -0.000154967934 Rises=F Damp=F
 DIIS: error= 3.87D-04 at cycle   5 NSaved=   5.
 NSaved= 5 IEnMin= 5 EnMin= -463.015147288485     IErMin= 5 ErrMin= 3.87D-04
 ErrMax= 3.87D-04  0.00D+00 EMaxC= 1.00D+00 BMatC= 1.51D-05 BMatP= 1.19D-04
 IDIUse=1 WtCom= 1.00D+00 WtEn= 0.00D+00
 Coeff-Com: -0.660D-02 0.144D+00-0.271D+00-0.104D+00 0.124D+01
 Coeff:     -0.660D-02 0.144D+00-0.271D+00-0.104D+00 0.124D+01
 Gap=     0.322 Goal=   None    Shift=    0.500
 RMSDP=1.30D-04 MaxDP=3.12D-03 DE=-1.55D-04 OVMax= 1.60D-03

 Cycle   6  Pass 1  IDiag  1:
 E= -463.015181601079     Delta-E=       -0.000034312594 Rises=F Damp=F
 DIIS: error= 2.48D-04 at cycle   6 NSaved=   6.
 NSaved= 6 IEnMin= 6 EnMin= -463.015181601079     IErMin= 6 ErrMin= 2.48D-04
 ErrMax= 2.48D-04  0.00D+00 EMaxC= 1.00D+00 BMatC= 2.96D-06 BMatP= 1.51D-05
 IDIUse=1 WtCom= 1.00D+00 WtEn= 0.00D+00
 Coeff-Com: -0.983D-02 0.733D-02 0.175D-01-0.122D+00-0.588D+00 0.169D+01
 Coeff:     -0.983D-02 0.733D-02 0.175D-01-0.122D+00-0.588D+00 0.169D+01
 Gap=     0.322 Goal=   None    Shift=    0.500
 RMSDP=8.57D-05 MaxDP=2.09D-03 DE=-3.43D-05 OVMax= 1.14D-03

 Cycle   7  Pass 1  IDiag  1:
 E= -463.015191799732     Delta-E=       -0.000010198652 Rises=F Damp=F
 DIIS: error= 1.66D-04 at cycle   7 NSaved=   7.
 NSaved= 7 IEnMin= 7 EnMin= -463.015191799732     IErMin= 7 ErrMin= 1.66D-04
 ErrMax= 1.66D-04  0.00D+00 EMaxC= 1.00D+00 BMatC= 8.58D-07 BMatP= 2.96D-06
 IDIUse=1 WtCom= 1.00D+00 WtEn= 0.00D+00
 Coeff-Com:  0.186D-02-0.236D-01 0.389D-01 0.150D-01-0.144D+00-0.738D+00
 Coeff-Com:  0.185D+01
 Coeff:      0.186D-02-0.236D-01 0.389D-01 0.150D-01-0.144D+00-0.738D+00
 Coeff:      0.185D+01
 Gap=     0.322 Goal=   None    Shift=    0.500
 RMSDP=4.39D-05 MaxDP=1.10D-03 DE=-1.02D-05 OVMax= 7.57D-04

 Cycle   8  Pass 1  IDiag  1:
 E= -463.015195258154     Delta-E=       -0.000003458422 Rises=F Damp=F
 DIIS: error= 1.16D-04 at cycle   8 NSaved=   8.
 NSaved= 8 IEnMin= 8 EnMin= -463.015195258154     IErMin= 8 ErrMin= 1.16D-04
 ErrMax= 1.16D-04  0.00D+00 EMaxC= 1.00D+00 BMatC= 2.88D-07 BMatP= 8.58D-07
 IDIUse=1 WtCom= 1.00D+00 WtEn= 0.00D+00
 Coeff-Com:  0.277D-02-0.589D-02 0.151D-02 0.428D-01 0.978D-01-0.637D+00
 Coeff-Com: -0.194D+00 0.169D+01
 Coeff:      0.277D-02-0.589D-02 0.151D-02 0.428D-01 0.978D-01-0.637D+00
 Coeff:     -0.194D+00 0.169D+01
 Gap=     0.322 Goal=   None    Shift=    0.500
 RMSDP=1.90D-05 MaxDP=4.92D-04 DE=-3.46D-06 OVMax= 5.39D-04

 Cycle   9  Pass 1  IDiag  1:
 E= -463.015196531817     Delta-E=       -0.000001273663 Rises=F Damp=F
 DIIS: error= 7.27D-05 at cycle   9 NSaved=   9.
 NSaved= 9 IEnMin= 9 EnMin= -463.015196531817     IErMin= 9 ErrMin= 7.27D-05
 ErrMax= 7.27D-05  0.00D+00 EMaxC= 1.00D+00 BMatC= 1.02D-07 BMatP= 2.88D-07
 IDIUse=1 WtCom= 1.00D+00 WtEn= 0.00D+00
 Coeff-Com:  0.270D-03 0.590D-02-0.124D-01 0.155D-01 0.614D-01 0.476D-01
 Coeff-Com: -0.813D+00 0.608D-01 0.163D+01
 Coeff:      0.270D-03 0.590D-02-0.124D-01 0.155D-01 0.614D-01 0.476D-01
 Coeff:     -0.813D+00 0.608D-01 0.163D+01
 Gap=     0.322 Goal=   None    Shift=    0.500
 RMSDP=6.78D-06 MaxDP=1.87D-04 DE=-1.27D-06 OVMax= 3.51D-04

 Cycle  10  Pass 1  IDiag  1:
 E= -463.015197017862     Delta-E=       -0.000000486046 Rises=F Damp=F
 DIIS: error= 4.60D-05 at cycle  10 NSaved=  10.
 NSaved=10 IEnMin=10 EnMin= -463.015197017862     IErMin=10 ErrMin= 4.60D-05
 ErrMax= 4.60D-05  0.00D+00 EMaxC= 1.00D+00 BMatC= 3.55D-08 BMatP= 1.02D-07
 IDIUse=1 WtCom= 1.00D+00 WtEn= 0.00D+00
 Coeff-Com: -0.707D-03 0.876D-03 0.101D-02-0.122D-01-0.342D-01 0.239D+00
 Coeff-Com: -0.516D-01-0.718D+00-0.686D+00 0.226D+01
 Coeff:     -0.707D-03 0.876D-03 0.101D-02-0.122D-01-0.342D-01 0.239D+00
 Coeff:     -0.516D-01-0.718D+00-0.686D+00 0.226D+01
 Gap=     0.322 Goal=   None    Shift=    0.500
 RMSDP=2.14D-06 MaxDP=4.71D-05 DE=-4.86D-07 OVMax= 2.34D-04

 Cycle  11  Pass 1  IDiag  1:
 E= -463.015197203243     Delta-E=       -0.000000185380 Rises=F Damp=F
 DIIS: error= 2.69D-05 at cycle  11 NSaved=  11.
 NSaved=11 IEnMin=11 EnMin= -463.015197203243     IErMin=11 ErrMin= 2.69D-05
 ErrMax= 2.69D-05  0.00D+00 EMaxC= 1.00D+00 BMatC= 1.17D-08 BMatP= 3.55D-08
 IDIUse=1 WtCom= 1.00D+00 WtEn= 0.00D+00
 Coeff-Com:  0.252D-04-0.117D-02 0.228D-02-0.147D-02-0.503D-02-0.159D-01
 Coeff-Com:  0.109D+00-0.517D-01-0.146D+00-0.128D+01 0.239D+01
 Coeff:      0.252D-04-0.117D-02 0.228D-02-0.147D-02-0.503D-02-0.159D-01
 Coeff:      0.109D+00-0.517D-01-0.146D+00-0.128D+01 0.239D+01
 Gap=     0.322 Goal=   None    Shift=    0.500
 RMSDP=1.01D-06 MaxDP=2.58D-05 DE=-1.85D-07 OVMax= 1.37D-04

 Cycle  12  Pass 1  IDiag  1:
 E= -463.015197265377     Delta-E=       -0.000000062134 Rises=F Damp=F
 DIIS: error= 1.59D-05 at cycle  12 NSaved=  12.
 NSaved=12 IEnMin=12 EnMin= -463.015197265377     IErMin=12 ErrMin= 1.59D-05
 ErrMax= 1.59D-05  0.00D+00 EMaxC= 1.00D+00 BMatC= 3.93D-09 BMatP= 1.17D-08
 IDIUse=1 WtCom= 1.00D+00 WtEn= 0.00D+00
 Coeff-Com:  0.116D-03-0.660D-03 0.906D-03 0.172D-02 0.240D-02-0.457D-01
 Coeff-Com:  0.624D-01 0.953D-01 0.181D-01-0.103D+01 0.474D+00 0.142D+01
 Coeff:      0.116D-03-0.660D-03 0.906D-03 0.172D-02 0.240D-02-0.457D-01
 Coeff:      0.624D-01 0.953D-01 0.181D-01-0.103D+01 0.474D+00 0.142D+01
 Gap=     0.322 Goal=   None    Shift=    0.500
 RMSDP=5.32D-07 MaxDP=1.41D-05 DE=-6.21D-08 OVMax= 7.96D-05

 SCF Done:  E(RLC-wHPBE) =  -463.015197265     A.U. after   12 cycles
            NFock= 12  Conv=0.53D-06     -V/T= 2.0055
 KE= 4.604984807760D+02 PE=-2.271013771555D+03 EE= 7.490277462248D+02
 Leave Link  502 at Sun Jan 17 09:36:47 2021, MaxMem=  4026531840 cpu:             600.2 elap:              75.2
 (Enter /opt/ohpc/pub/libs/gaussian/g16-A.03/sandybridge/g16/l508.exe)
 QCSCF skips out because SCF is already converged.
 Leave Link  508 at Sun Jan 17 09:36:47 2021, MaxMem=  4026531840 cpu:               0.1 elap:               0.0
 (Enter /opt/ohpc/pub/libs/gaussian/g16-A.03/sandybridge/g16/l601.exe)
 Copying SCF densities to generalized density rwf, IOpCl= 0 IROHF=0.

 **********************************************************************

            Population analysis using the SCF density.

 **********************************************************************

 Orbital symmetries:
       Occupied  (A) (A) (A) (A) (A) (A) (A) (A) (A) (A) (A) (A)
                 (A) (A) (A) (A) (A) (A) (A) (A) (A) (A) (A) (A)
                 (A) (A) (A) (A) (A) (A) (A) (A) (A) (A) (A) (A)
                 (A) (A) (A) (A) (A)
       Virtual   (A) (A) (A) (A) (A) (A) (A) (A) (A) (A) (A) (A)
                 (A) (A) (A) (A) (A) (A) (A) (A) (A) (A) (A) (A)
                 (A) (A) (A) (A) (A) (A) (A) (A) (A) (A) (A) (A)
                 (A) (A) (A) (A) (A) (A) (A) (A) (A) (A) (A) (A)
                 (A) (A) (A) (A) (A) (A) (A) (A) (A) (A) (A) (A)
                 (A) (A) (A) (A) (A) (A) (A) (A) (A) (A) (A) (A)
                 (A) (A) (A) (A) (A) (A) (A) (A) (A) (A) (A) (A)
                 (A) (A) (A) (A) (A) (A) (A) (A) (A) (A) (A) (A)
                 (A) (A) (A) (A) (A) (A) (A) (A) (A) (A) (A) (A)
                 (A) (A) (A) (A) (A) (A) (A) (A) (A) (A) (A) (A)
                 (A) (A) (A) (A) (A) (A) (A) (A) (A) (A) (A) (A)
                 (A) (A) (A) (A) (A) (A) (A) (A) (A) (A) (A) (A)
                 (A) (A) (A) (A) (A) (A) (A) (A) (A) (A) (A) (A)
                 (A) (A) (A) (A) (A) (A) (A) (A) (A) (A) (A) (A)
                 (A) (A) (A) (A) (A) (A) (A) (A) (A) (A) (A) (A)
                 (A) (A) (A) (A) (A) (A) (A) (A) (A) (A) (A) (A)
                 (A) (A) (A) (A) (A) (A) (A) (A) (A) (A) (A) (A)
                 (A) (A) (A) (A) (A) (A) (A) (A) (A) (A) (A) (A)
                 (A) (A) (A) (A) (A) (A) (A) (A) (A) (A) (A) (A)
                 (A) (A) (A) (A) (A) (A) (A) (A) (A) (A) (A) (A)
                 (A) (A) (A) (A) (A) (A) (A)
 The electronic state is 1-A.
 Alpha  occ. eigenvalues --  -10.02735 -10.02722 -10.01626 -10.01625 -10.01623
 Alpha  occ. eigenvalues --  -10.01623 -10.01566 -10.01565 -10.01564 -10.01564
 Alpha  occ. eigenvalues --  -10.01521 -10.01521  -0.92437  -0.90291  -0.83587
 Alpha  occ. eigenvalues --   -0.80889  -0.80141  -0.77996  -0.68777  -0.68252
 Alpha  occ. eigenvalues --   -0.65483  -0.64241  -0.60248  -0.56731  -0.53573
 Alpha  occ. eigenvalues --   -0.53278  -0.50689  -0.50662  -0.49132  -0.48748
 Alpha  occ. eigenvalues --   -0.48453  -0.45750  -0.44163  -0.43200  -0.41747
 Alpha  occ. eigenvalues --   -0.40313  -0.40119  -0.35414  -0.33123  -0.33078
 Alpha  occ. eigenvalues --   -0.30195
 Alpha virt. eigenvalues --    0.02002   0.04440   0.04680   0.07627   0.11581
 Alpha virt. eigenvalues --    0.12114   0.13739   0.15038   0.15550   0.17068
 Alpha virt. eigenvalues --    0.17367   0.18232   0.18515   0.19157   0.21244
 Alpha virt. eigenvalues --    0.21633   0.21791   0.22189   0.26756   0.26986
 Alpha virt. eigenvalues --    0.27067   0.27245   0.29018   0.29199   0.29397
 Alpha virt. eigenvalues --    0.29416   0.30402   0.30461   0.31598   0.31620
 Alpha virt. eigenvalues --    0.32696   0.33610   0.34821   0.34866   0.35673
 Alpha virt. eigenvalues --    0.36339   0.37847   0.38747   0.40387   0.41085
 Alpha virt. eigenvalues --    0.41353   0.41881   0.42833   0.43394   0.43540
 Alpha virt. eigenvalues --    0.44276   0.45504   0.47092   0.47404   0.47838
 Alpha virt. eigenvalues --    0.47863   0.48348   0.48488   0.48756   0.49388
 Alpha virt. eigenvalues --    0.51712   0.52331   0.52414   0.54337   0.54372
 Alpha virt. eigenvalues --    0.55282   0.55642   0.56074   0.57210   0.58714
 Alpha virt. eigenvalues --    0.58984   0.59139   0.59332   0.61252   0.64887
 Alpha virt. eigenvalues --    0.65333   0.68281   0.69838   0.71907   0.72765
 Alpha virt. eigenvalues --    0.75034   0.75174   0.75644   0.76512   0.76837
 Alpha virt. eigenvalues --    0.77489   0.80978   0.83334   0.86551   0.88688
 Alpha virt. eigenvalues --    0.94485   0.95779   1.14913   1.24325   1.25186
 Alpha virt. eigenvalues --    1.28538   1.28764   1.29223   1.29597   1.30047
 Alpha virt. eigenvalues --    1.30215   1.31607   1.33334   1.33918   1.34741
 Alpha virt. eigenvalues --    1.34872   1.35653   1.36158   1.36713   1.36773
 Alpha virt. eigenvalues --    1.37178   1.37814   1.38940   1.40789   1.45735
 Alpha virt. eigenvalues --    1.45857   1.47152   1.47373   1.49047   1.49268
 Alpha virt. eigenvalues --    1.49320   1.49441   1.51022   1.51531   1.52090
 Alpha virt. eigenvalues --    1.52620   1.52667   1.54132   1.54157   1.54252
 Alpha virt. eigenvalues --    1.56345   1.56648   1.57058   1.58216   1.58432
 Alpha virt. eigenvalues --    1.60669   1.61511   1.61970   1.62388   1.63540
 Alpha virt. eigenvalues --    1.63611   1.69724   1.70637   1.74167   1.78412
 Alpha virt. eigenvalues --    1.81062   1.82130   1.82285   1.82362   1.83649
 Alpha virt. eigenvalues --    1.84703   1.85511   1.86059   1.90829   1.91936
 Alpha virt. eigenvalues --    1.91966   1.92538   1.92555   1.92936   1.94777
 Alpha virt. eigenvalues --    1.95120   1.95357   1.95858   1.96345   1.98545
 Alpha virt. eigenvalues --    1.99025   1.99362   2.02150   2.03202   2.04102
 Alpha virt. eigenvalues --    2.05233   2.05981   2.06206   2.13143   2.14003
 Alpha virt. eigenvalues --    2.15942   2.28425   2.30242   2.30527   2.32665
 Alpha virt. eigenvalues --    2.32984   2.33371   2.34896   2.34934   2.37828
 Alpha virt. eigenvalues --    2.38158   2.38280   2.38308   2.39263   2.40224
 Alpha virt. eigenvalues --    2.40597   2.48435   2.51749   2.52785   2.52909
 Alpha virt. eigenvalues --    2.54587   2.56080   2.56890   2.57343   2.62085
 Alpha virt. eigenvalues --    2.64020   2.67231   2.67510   2.68074   2.68221
 Alpha virt. eigenvalues --    2.70245   2.72183   2.72583   2.73141   2.74213
 Alpha virt. eigenvalues --    2.77761   2.83374   2.83407   2.83843   2.86683
 Alpha virt. eigenvalues --    3.01320   3.01994   3.03992   3.06885   3.07084
 Alpha virt. eigenvalues --    3.07396   3.09715   3.12192   3.14011   3.15098
 Alpha virt. eigenvalues --    3.18240   3.18713   3.21012   3.21366   3.23643
 Alpha virt. eigenvalues --    3.24898   3.33623   3.36327   3.36906   3.43004
 Alpha virt. eigenvalues --    3.43666   3.54898   3.58247   3.75887   3.85219
 Alpha virt. eigenvalues --   21.03431  21.31336  21.58690  21.68317  21.71227
 Alpha virt. eigenvalues --   21.78461  21.90958  21.93136  21.95977  21.98529
 Alpha virt. eigenvalues --   22.07672  22.10690
          Condensed to atoms (all electrons):
               1          2          3          4          5          6
     1  C    4.987103   0.470431   0.405088  -0.007565  -0.008274  -0.106961
     2  C    0.470431   4.974524  -0.024185   0.470385  -0.073306  -0.024116
     3  C    0.405088  -0.024185   5.169822  -0.106886   0.428370  -0.035112
     4  C   -0.007565   0.470385  -0.106886   4.987147  -0.008276   0.405000
     5  C   -0.008274  -0.073306   0.428370  -0.008276   5.318567   0.428237
     6  C   -0.106961  -0.024116  -0.035112   0.405000   0.428237   5.170046
     7  H   -0.058725   0.419458   0.017863  -0.058732  -0.004327   0.017867
     8  H   -0.032907   0.010209   0.399820  -0.001601  -0.051040   0.014577
     9  H    0.012973  -0.056226  -0.000626   0.412642   0.014454  -0.050802
    10  H   -0.001598   0.010201   0.014574  -0.032872  -0.051014   0.399790
    11  C    0.021332   0.004395  -0.089517   0.021331   0.160673  -0.089489
    12  C   -0.000068  -0.000219   0.022380   0.002880  -0.089484  -0.018670
    13  C    0.002846  -0.000205  -0.018641  -0.000083  -0.089562   0.022442
    14  C    0.000072   0.000004  -0.000078  -0.000271   0.021346   0.002849
    15  C   -0.000272   0.000005   0.002872   0.000069   0.021345  -0.000080
    16  C    0.000005  -0.000007  -0.000214   0.000005   0.004386  -0.000206
    17  H   -0.000037   0.000019  -0.000405   0.000726  -0.016969   0.004190
    18  H    0.000728   0.000018   0.004176  -0.000036  -0.016960  -0.000408
    19  H   -0.000001   0.000000   0.000018  -0.000006  -0.001344   0.000002
    20  H   -0.000006   0.000000   0.000002  -0.000001  -0.001343   0.000018
    21  H    0.000000  -0.000000  -0.000004   0.000000  -0.000137  -0.000004
    22  H    0.412640  -0.056222  -0.050805   0.012972   0.014456  -0.000627
               7          8          9         10         11         12
     1  C   -0.058725  -0.032907   0.012973  -0.001598   0.021332  -0.000068
     2  C    0.419458   0.010209  -0.056226   0.010201   0.004395  -0.000219
     3  C    0.017863   0.399820  -0.000626   0.014574  -0.089517   0.022380
     4  C   -0.058732  -0.001601   0.412642  -0.032872   0.021331   0.002880
     5  C   -0.004327  -0.051040   0.014454  -0.051014   0.160673  -0.089484
     6  C    0.017867   0.014577  -0.050802   0.399790  -0.089489  -0.018670
     7  H    0.572173  -0.000199  -0.007815  -0.000199  -0.000136  -0.000004
     8  H   -0.000199   0.545254   0.000033  -0.000161  -0.016956  -0.000404
     9  H   -0.007815   0.000033   0.574783  -0.006311  -0.001344   0.000002
    10  H   -0.000199  -0.000161  -0.006311   0.545233  -0.016975   0.004182
    11  C   -0.000136  -0.016956  -0.001344  -0.016975   5.318447   0.428432
    12  C   -0.000004  -0.000404   0.000002   0.004182   0.428432   5.169731
    13  C   -0.000004   0.004189   0.000018  -0.000408   0.428321  -0.035154
    14  C    0.000000  -0.000037  -0.000006   0.000726  -0.008323   0.405159
    15  C    0.000000   0.000724  -0.000001  -0.000036  -0.008306  -0.106869
    16  C   -0.000000   0.000019   0.000000   0.000019  -0.073268  -0.024241
    17  H   -0.000002  -0.000029   0.000007   0.000748  -0.051034   0.399812
    18  H   -0.000002   0.000748   0.000000  -0.000029  -0.051003   0.014571
    19  H   -0.000000   0.000000  -0.000000   0.000007   0.014452  -0.050793
    20  H   -0.000000   0.000007   0.000000   0.000000   0.014455  -0.000625
    21  H   -0.000000  -0.000002  -0.000000  -0.000002  -0.004326   0.017864
    22  H   -0.007816  -0.006313  -0.000229   0.000033  -0.001343   0.000018
              13         14         15         16         17         18
     1  C    0.002846   0.000072  -0.000272   0.000005  -0.000037   0.000728
     2  C   -0.000205   0.000004   0.000005  -0.000007   0.000019   0.000018
     3  C   -0.018641  -0.000078   0.002872  -0.000214  -0.000405   0.004176
     4  C   -0.000083  -0.000271   0.000069   0.000005   0.000726  -0.000036
     5  C   -0.089562   0.021346   0.021345   0.004386  -0.016969  -0.016960
     6  C    0.022442   0.002849  -0.000080  -0.000206   0.004190  -0.000408
     7  H   -0.000004   0.000000   0.000000  -0.000000  -0.000002  -0.000002
     8  H    0.004189  -0.000037   0.000724   0.000019  -0.000029   0.000748
     9  H    0.000018  -0.000006  -0.000001   0.000000   0.000007   0.000000
    10  H   -0.000408   0.000726  -0.000036   0.000019   0.000748  -0.000029
    11  C    0.428321  -0.008323  -0.008306  -0.073268  -0.051034  -0.051003
    12  C   -0.035154   0.405159  -0.106869  -0.024241   0.399812   0.014571
    13  C    5.170021  -0.106915   0.405003  -0.024130   0.014575   0.399784
    14  C   -0.106915   4.987050  -0.007600   0.470467  -0.032892  -0.001596
    15  C    0.405003  -0.007600   4.987129   0.470432  -0.001599  -0.032879
    16  C   -0.024130   0.470467   0.470432   4.974471   0.010206   0.010199
    17  H    0.014575  -0.032892  -0.001599   0.010206   0.545246  -0.000161
    18  H    0.399784  -0.001596  -0.032879   0.010199  -0.000161   0.545232
    19  H   -0.000626   0.412632   0.012970  -0.056220  -0.006312   0.000034
    20  H   -0.050811   0.012972   0.412644  -0.056222   0.000033  -0.006311
    21  H    0.017865  -0.058723  -0.058730   0.419456  -0.000199  -0.000199
    22  H    0.000002  -0.000001  -0.000006   0.000000   0.000000   0.000007
              19         20         21         22
     1  C   -0.000001  -0.000006   0.000000   0.412640
     2  C    0.000000   0.000000  -0.000000  -0.056222
     3  C    0.000018   0.000002  -0.000004  -0.050805
     4  C   -0.000006  -0.000001   0.000000   0.012972
     5  C   -0.001344  -0.001343  -0.000137   0.014456
     6  C    0.000002   0.000018  -0.000004  -0.000627
     7  H   -0.000000  -0.000000  -0.000000  -0.007816
     8  H    0.000000   0.000007  -0.000002  -0.006313
     9  H   -0.000000   0.000000  -0.000000  -0.000229
    10  H    0.000007   0.000000  -0.000002   0.000033
    11  C    0.014452   0.014455  -0.004326  -0.001343
    12  C   -0.050793  -0.000625   0.017864   0.000018
    13  C   -0.000626  -0.050811   0.017865   0.000002
    14  C    0.412632   0.012972  -0.058723  -0.000001
    15  C    0.012970   0.412644  -0.058730  -0.000006
    16  C   -0.056220  -0.056222   0.419456   0.000000
    17  H   -0.006312   0.000033  -0.000199   0.000000
    18  H    0.000034  -0.006311  -0.000199   0.000007
    19  H    0.574784  -0.000229  -0.007815   0.000000
    20  H   -0.000229   0.574785  -0.007815  -0.000000
    21  H   -0.007815  -0.007815   0.572173  -0.000000
    22  H    0.000000  -0.000000  -0.000000   0.574787
 Mulliken charges:
               1
     1  C   -0.096803
     2  C   -0.125165
     3  C   -0.138511
     4  C   -0.096829
     5  C    0.000200
     6  C   -0.138543
     7  H    0.110600
     8  H    0.134067
     9  H    0.108445
    10  H    0.134091
    11  C    0.000183
    12  C   -0.138500
    13  C   -0.138528
    14  C   -0.096835
    15  C   -0.096816
    16  C   -0.125156
    17  H    0.134076
    18  H    0.134088
    19  H    0.108444
    20  H    0.108444
    21  H    0.110600
    22  H    0.108445
 Sum of Mulliken charges =  -0.00000
 Mulliken charges with hydrogens summed into heavy atoms:
               1
     1  C    0.011642
     2  C   -0.014565
     3  C   -0.004444
     4  C    0.011617
     5  C    0.000200
     6  C   -0.004452
    11  C    0.000183
    12  C   -0.004423
    13  C   -0.004440
    14  C    0.011610
    15  C    0.011628
    16  C   -0.014556
 Electronic spatial extent (au):  <R**2>=           2313.9252
 Charge=             -0.0000 electrons
 Dipole moment (field-independent basis, Debye):
    X=             -0.0000    Y=              0.0001    Z=              0.0003  Tot=              0.0003
 Quadrupole moment (field-independent basis, Debye-Ang):
   XX=            -61.8429   YY=            -63.5145   ZZ=            -75.1905
   XY=              0.0005   XZ=              0.0005   YZ=             -0.0002
 Traceless Quadrupole moment (field-independent basis, Debye-Ang):
   XX=              5.0064   YY=              3.3348   ZZ=             -8.3412
   XY=              0.0005   XZ=              0.0005   YZ=             -0.0002
 Octapole moment (field-independent basis, Debye-Ang**2):
  XXX=             -0.0002  YYY=              0.0015  ZZZ=              0.0005  XYY=             -0.0004
  XXY=              0.0009  XXZ=              0.0077  XZZ=              0.0002  YZZ=             -0.0009
  YYZ=              0.0003  XYZ=            -11.8926
 Hexadecapole moment (field-independent basis, Debye-Ang**3):
 XXXX=          -2315.8715 YYYY=           -503.6168 ZZZZ=           -156.8421 XXXY=             -0.0038
 XXXZ=              0.0048 YYYX=              0.0081 YYYZ=             -0.0007 ZZZX=              0.0017
 ZZZY=             -0.0007 XXYY=           -479.6183 XXZZ=           -495.9073 YYZZ=           -112.7246
 XXYZ=             -0.0004 YYXZ=              0.0020 ZZXY=             -0.0020
 N-N= 5.984723472889D+02 E-N=-2.271013719442D+03  KE= 4.604984807760D+02
 No NMR shielding tensors so no spin-rotation constants.
 Leave Link  601 at Sun Jan 17 09:36:48 2021, MaxMem=  4026531840 cpu:               2.9 elap:               0.5
 (Enter /opt/ohpc/pub/libs/gaussian/g16-A.03/sandybridge/g16/l9999.exe)

 Test job not archived.
 1\1\GINC-CASCADEB028\SP\RLC-wHPBE\TZVP\C12H10\RDU230\17-Jan-2021\0\\#P
  LC-wHPBE/TZVP iop(3/107=0221900000, 3/108=0221900000) scf=(conver=6,f
 ermi,ndamp=35,noincfock,novaracc,vshift=500,xqc)\\H10 C12\\0,1\C,0,-2.
 8585,1.132993,0.41369\C,0,-3.561927,-0.000084,-0.000146\C,0,-1.463685,
 1.132747,0.413534\C,0,-2.858269,-1.133176,-0.413741\C,0,-0.742381,0.00
 0123,0.000091\C,0,-1.463491,-1.132675,-0.413489\H,0,-4.653174,-0.00016
 ,-0.000261\H,0,-0.922222,2.014213,0.762301\H,0,-3.398792,-2.020986,-0.
 747134\H,0,-0.921754,-2.014027,-0.762095\C,0,0.742385,0.000142,0.00019
 7\C,0,1.463539,-1.132637,0.413582\C,0,1.463636,1.132765,-0.413477\C,0,
 2.858357,-1.133114,0.41366\C,0,2.858412,1.133073,-0.413706\C,0,3.56193
 1,-0.000095,-0.000087\H,0,0.921935,-2.014039,0.762261\H,0,0.922017,2.0
 14128,-0.762265\H,0,3.398826,-2.021,0.746938\H,0,3.399026,2.020805,-0.
 747168\H,0,4.653184,-0.000117,-0.000198\H,0,-3.399078,2.020813,0.74697
 4\\Version=EM64L-G16RevA.03\State=1-A\HF=-463.0151973\RMSD=5.317e-07\D
 ipole=-0.0000099,-0.0000426,-0.0001183\Quadrupole=3.7221169,2.4793694,
 -6.2014863,-0.0003668,-0.0004027,-0.0001374\PG=C01 [X(C12H10)]\\@


 WE TEND TO MEET ANY NEW SITUATION BY REORGANIZING. IT CAN BE A
 WONDERFUL METHOD FOR CREATING THE ILLUSION OF PROGRESS WHILE PRODUCING
 CONFUSION, INEFFICIENCY, AND DEMORALIZATION.
     -- PETRONIUS ARBITER, 210 B.C.
 Job cpu time:       0 days  0 hours 10 minutes 22.8 seconds.
 Elapsed time:       0 days  0 hours  1 minutes 18.4 seconds.
 File lengths (MBytes):  RWF=     88 Int=      0 D2E=      0 Chk=     12 Scr=      8
 Normal termination of Gaussian 16 at Sun Jan 17 09:36:48 2021.
