 Entering Gaussian System, Link 0=g16
 Input=mol_bp_NN_frag_tune_c5.gjf
 Output=mol_bp_NN_frag_tune_c5.log
 Initial command:
 /opt/ohpc/pub/libs/gaussian/g16-A.03/sandybridge/g16/l1.exe "/mnt/gpfs2_4m/scratch/rdu230/ondemand/projects/init_structures/wtuning/mol_bp_NN_frag/tuning_mol_bp_NN_frag_ocycle0/Gau-300318.inp" -scrdir="/mnt/gpfs2_4m/scratch/rdu230/ondemand/projects/init_structures/wtuning/mol_bp_NN_frag/tuning_mol_bp_NN_frag_ocycle0/"
 Entering Link 1 = /opt/ohpc/pub/libs/gaussian/g16-A.03/sandybridge/g16/l1.exe PID=    300319.
  
 Copyright (c) 1988,1990,1992,1993,1995,1998,2003,2009,2016,
            Gaussian, Inc.  All Rights Reserved.
  
 This is part of the Gaussian(R) 16 program.  It is based on
 the Gaussian(R) 09 system (copyright 2009, Gaussian, Inc.),
 the Gaussian(R) 03 system (copyright 2003, Gaussian, Inc.),
 the Gaussian(R) 98 system (copyright 1998, Gaussian, Inc.),
 the Gaussian(R) 94 system (copyright 1995, Gaussian, Inc.),
 the Gaussian 92(TM) system (copyright 1992, Gaussian, Inc.),
 the Gaussian 90(TM) system (copyright 1990, Gaussian, Inc.),
 the Gaussian 88(TM) system (copyright 1988, Gaussian, Inc.),
 the Gaussian 86(TM) system (copyright 1986, Carnegie Mellon
 University), and the Gaussian 82(TM) system (copyright 1983,
 Carnegie Mellon University). Gaussian is a federally registered
 trademark of Gaussian, Inc.
  
 This software contains proprietary and confidential information,
 including trade secrets, belonging to Gaussian, Inc.
  
 This software is provided under written license and may be
 used, copied, transmitted, or stored only in accord with that
 written license.
  
 The following legend is applicable only to US Government
 contracts under FAR:
  
                    RESTRICTED RIGHTS LEGEND
  
 Use, reproduction and disclosure by the US Government is
 subject to restrictions as set forth in subparagraphs (a)
 and (c) of the Commercial Computer Software - Restricted
 Rights clause in FAR 52.227-19.
  
 Gaussian, Inc.
 340 Quinnipiac St., Bldg. 40, Wallingford CT 06492
  
  
 ---------------------------------------------------------------
 Warning -- This program may not be used in any manner that
 competes with the business of Gaussian, Inc. or will provide
 assistance to any competitor of Gaussian, Inc.  The licensee
 of this program is prohibited from giving any competitor of
 Gaussian, Inc. access to this program.  By using this program,
 the user acknowledges that Gaussian, Inc. is engaged in the
 business of creating and licensing software in the field of
 computational chemistry and represents and warrants to the
 licensee that it is not a competitor of Gaussian, Inc. and that
 it will not use this program in any manner prohibited above.
 ---------------------------------------------------------------
  

 Cite this work as:
 Gaussian 16, Revision A.03,
 M. J. Frisch, G. W. Trucks, H. B. Schlegel, G. E. Scuseria, 
 M. A. Robb, J. R. Cheeseman, G. Scalmani, V. Barone, 
 G. A. Petersson, H. Nakatsuji, X. Li, M. Caricato, A. V. Marenich, 
 J. Bloino, B. G. Janesko, R. Gomperts, B. Mennucci, H. P. Hratchian, 
 J. V. Ortiz, A. F. Izmaylov, J. L. Sonnenberg, D. Williams-Young, 
 F. Ding, F. Lipparini, F. Egidi, J. Goings, B. Peng, A. Petrone, 
 T. Henderson, D. Ranasinghe, V. G. Zakrzewski, J. Gao, N. Rega, 
 G. Zheng, W. Liang, M. Hada, M. Ehara, K. Toyota, R. Fukuda, 
 J. Hasegawa, M. Ishida, T. Nakajima, Y. Honda, O. Kitao, H. Nakai, 
 T. Vreven, K. Throssell, J. A. Montgomery, Jr., J. E. Peralta, 
 F. Ogliaro, M. J. Bearpark, J. J. Heyd, E. N. Brothers, K. N. Kudin, 
 V. N. Staroverov, T. A. Keith, R. Kobayashi, J. Normand, 
 K. Raghavachari, A. P. Rendell, J. C. Burant, S. S. Iyengar, 
 J. Tomasi, M. Cossi, J. M. Millam, M. Klene, C. Adamo, R. Cammi, 
 J. W. Ochterski, R. L. Martin, K. Morokuma, O. Farkas, 
 J. B. Foresman, and D. J. Fox, Gaussian, Inc., Wallingford CT, 2016.
 
 ******************************************
 Gaussian 16:  EM64L-G16RevA.03 25-Dec-2016
                17-Jan-2021 
 ******************************************
 %mem=30GB
 %nproc=8
 Will use up to    8 processors via shared memory.
 ----------------------------------------------------------------------
 #P LC-wHPBE/TZVP iop(3/107=0236000000, 3/108=0236000000) scf=(conver=6
 ,fermi,ndamp=35,noincfock,novaracc,vshift=500,xqc)
 ----------------------------------------------------------------------
 1/38=1,172=1/1;
 2/12=2,17=6,18=5,40=1/2;
 3/5=19,7=101,11=2,25=1,30=1,74=-71,107=236000000,108=236000000/1,2,3;
 4//1;
 5/5=100002,6=6,8=3,10=500,13=1,18=-1,22=13,38=1,93=35/2,8;
 6/7=2,8=2,9=2,10=2,28=1/1;
 99/5=1,9=1/99;
 Leave Link    1 at Sun Jan 17 09:54:55 2021, MaxMem=  4026531840 cpu:               1.1 elap:               0.2
 (Enter /opt/ohpc/pub/libs/gaussian/g16-A.03/sandybridge/g16/l101.exe)
 -------
 H10 C12
 -------
 Symbolic Z-matrix:
 Charge =  1 Multiplicity = 2
 C                    -2.8585    1.13299   0.41369 
 C                    -3.56193  -0.00008  -0.00015 
 C                    -1.46369   1.13275   0.41353 
 C                    -2.85827  -1.13318  -0.41374 
 C                    -0.74238   0.00012   0.00009 
 C                    -1.46349  -1.13268  -0.41349 
 H                    -4.65317  -0.00016  -0.00026 
 H                    -0.92222   2.01421   0.7623 
 H                    -3.39879  -2.02099  -0.74713 
 H                    -0.92175  -2.01403  -0.7621 
 C                     0.74239   0.00014   0.0002 
 C                     1.46354  -1.13264   0.41358 
 C                     1.46364   1.13277  -0.41348 
 C                     2.85836  -1.13311   0.41366 
 C                     2.85841   1.13307  -0.41371 
 C                     3.56193  -0.0001   -0.00009 
 H                     0.92194  -2.01404   0.76226 
 H                     0.92202   2.01413  -0.76227 
 H                     3.39883  -2.021     0.74694 
 H                     3.39903   2.02081  -0.74717 
 H                     4.65318  -0.00012  -0.0002 
 H                    -3.39908   2.02081   0.74697 
 
 ITRead=  0  0  0  0  0  0  0  0  0  0  0  0  0  0  0  0  0  0  0  0
 ITRead=  0  0
 MicOpt= -1 -1 -1 -1 -1 -1 -1 -1 -1 -1 -1 -1 -1 -1 -1 -1 -1 -1 -1 -1
 MicOpt= -1 -1
 NAtoms=     22 NQM=       22 NQMF=       0 NMMI=      0 NMMIF=      0
                NMic=       0 NMicF=      0.
                    Isotopes and Nuclear Properties:
 (Nuclear quadrupole moments (NQMom) in fm**2, nuclear magnetic moments (NMagM)
  in nuclear magnetons)

  Atom         1           2           3           4           5           6           7           8           9          10
 IAtWgt=          12          12          12          12          12          12           1           1           1           1
 AtmWgt=  12.0000000  12.0000000  12.0000000  12.0000000  12.0000000  12.0000000   1.0078250   1.0078250   1.0078250   1.0078250
 NucSpn=           0           0           0           0           0           0           1           1           1           1
 AtZEff=  -0.0000000  -0.0000000  -0.0000000  -0.0000000  -0.0000000  -0.0000000  -0.0000000  -0.0000000  -0.0000000  -0.0000000
 NQMom=    0.0000000   0.0000000   0.0000000   0.0000000   0.0000000   0.0000000   0.0000000   0.0000000   0.0000000   0.0000000
 NMagM=    0.0000000   0.0000000   0.0000000   0.0000000   0.0000000   0.0000000   2.7928460   2.7928460   2.7928460   2.7928460
 AtZNuc=   6.0000000   6.0000000   6.0000000   6.0000000   6.0000000   6.0000000   1.0000000   1.0000000   1.0000000   1.0000000

  Atom        11          12          13          14          15          16          17          18          19          20
 IAtWgt=          12          12          12          12          12          12           1           1           1           1
 AtmWgt=  12.0000000  12.0000000  12.0000000  12.0000000  12.0000000  12.0000000   1.0078250   1.0078250   1.0078250   1.0078250
 NucSpn=           0           0           0           0           0           0           1           1           1           1
 AtZEff=  -0.0000000  -0.0000000  -0.0000000  -0.0000000  -0.0000000  -0.0000000  -0.0000000  -0.0000000  -0.0000000  -0.0000000
 NQMom=    0.0000000   0.0000000   0.0000000   0.0000000   0.0000000   0.0000000   0.0000000   0.0000000   0.0000000   0.0000000
 NMagM=    0.0000000   0.0000000   0.0000000   0.0000000   0.0000000   0.0000000   2.7928460   2.7928460   2.7928460   2.7928460
 AtZNuc=   6.0000000   6.0000000   6.0000000   6.0000000   6.0000000   6.0000000   1.0000000   1.0000000   1.0000000   1.0000000

  Atom        21          22
 IAtWgt=           1           1
 AtmWgt=   1.0078250   1.0078250
 NucSpn=           1           1
 AtZEff=  -0.0000000  -0.0000000
 NQMom=    0.0000000   0.0000000
 NMagM=    2.7928460   2.7928460
 AtZNuc=   1.0000000   1.0000000
 Leave Link  101 at Sun Jan 17 09:54:55 2021, MaxMem=  4026531840 cpu:               0.7 elap:               0.1
 (Enter /opt/ohpc/pub/libs/gaussian/g16-A.03/sandybridge/g16/l202.exe)
                          Input orientation:                          
 ---------------------------------------------------------------------
 Center     Atomic      Atomic             Coordinates (Angstroms)
 Number     Number       Type             X           Y           Z
 ---------------------------------------------------------------------
      1          6           0       -2.858500    1.132993    0.413690
      2          6           0       -3.561927   -0.000084   -0.000146
      3          6           0       -1.463685    1.132747    0.413534
      4          6           0       -2.858269   -1.133176   -0.413741
      5          6           0       -0.742381    0.000123    0.000091
      6          6           0       -1.463491   -1.132675   -0.413489
      7          1           0       -4.653174   -0.000160   -0.000261
      8          1           0       -0.922222    2.014213    0.762301
      9          1           0       -3.398792   -2.020986   -0.747134
     10          1           0       -0.921754   -2.014027   -0.762095
     11          6           0        0.742385    0.000142    0.000197
     12          6           0        1.463539   -1.132637    0.413582
     13          6           0        1.463636    1.132765   -0.413477
     14          6           0        2.858357   -1.133114    0.413660
     15          6           0        2.858412    1.133073   -0.413706
     16          6           0        3.561931   -0.000095   -0.000087
     17          1           0        0.921935   -2.014039    0.762261
     18          1           0        0.922017    2.014128   -0.762265
     19          1           0        3.398826   -2.021000    0.746938
     20          1           0        3.399026    2.020805   -0.747168
     21          1           0        4.653184   -0.000117   -0.000198
     22          1           0       -3.399078    2.020813    0.746974
 ---------------------------------------------------------------------
                    Distance matrix (angstroms):
                    1          2          3          4          5
     1  C    0.000000
     2  C    1.396400   0.000000
     3  C    1.394815   2.420136   0.000000
     4  C    2.412502   1.396457   2.786334   0.000000
     5  C    2.435656   2.819546   1.405010   2.435694   0.000000
     6  C    2.786311   2.420134   2.411660   1.394778   1.405091
     7  H    2.162463   1.091247   3.409919   2.162493   3.910793
     8  H    2.155748   3.406870   1.091697   3.877810   2.160987
     9  H    3.403970   2.160706   3.877863   1.091569   3.420489
    10  H    3.877782   3.406912   3.402643   2.155769   2.160996
    11  C    3.797460   4.304312   2.514038   3.797429   1.484766
    12  C    4.879867   5.168090   3.701433   4.400283   2.514001
    13  C    4.400576   5.168218   3.041900   4.879893   2.514046
    14  C    6.149609   6.532613   4.879977   5.776193   3.797444
    15  C    5.776475   6.532674   4.400551   6.149498   3.797435
    16  C    6.532766   7.123858   5.168291   6.532530   4.304312
    17  H    4.931227   4.974163   3.964222   4.055717   2.721709
    18  H    4.056054   4.974297   2.801947   4.931283   2.721695
    19  H    7.015187   7.286585   5.805281   6.425468   4.668224
    20  H    6.425919   7.286762   5.077582   7.015163   4.668276
    21  H    7.607933   8.215111   6.234632   7.607678   5.395565
    22  H    1.091571   2.160725   2.155363   3.404024   3.420389
                    6          7          8          9         10
     6  C    0.000000
     7  H    3.409901   0.000000
     8  H    3.402699   4.308039   0.000000
     9  H    2.155413   2.492996   4.969369   0.000000
    10  H    1.091690   4.308079   4.307029   2.477093   0.000000
    11  C    2.514021   5.395559   2.721801   4.668277   2.721640
    12  C    3.041636   6.234416   3.964357   5.077272   2.801551
    13  C    3.701390   6.234551   2.802093   5.805229   3.964079
    14  C    4.400289   7.607760   4.931531   6.425548   4.055570
    15  C    4.879801   7.607830   4.056180   7.015117   4.931051
    16  C    5.168027   8.215105   4.974565   7.286545   4.973933
    17  H    2.801687   5.976537   4.430319   4.576790   2.392248
    18  H    3.964172   5.976685   2.392806   5.912002   4.430070
    19  H    5.077188   8.335275   5.912245   6.959875   4.576532
    20  H    5.805157   8.335472   4.577305   7.908628   5.911788
    21  H    6.234357   9.306358   5.976963   8.335235   5.976308
    22  H    3.877842   2.493080   2.476912   4.309118   4.969342
                   11         12         13         14         15
    11  C    0.000000
    12  C    1.405040   0.000000
    13  C    1.405049   2.411654   0.000000
    14  C    2.435684   1.394818   2.786326   0.000000
    15  C    2.435656   2.786309   1.394776   2.412496   0.000000
    16  C    2.819546   2.420129   2.420146   1.396401   1.396456
    17  H    2.160996   1.091687   3.402672   2.155755   3.877777
    18  H    2.160962   3.402645   1.091698   3.877801   2.155778
    19  H    3.420426   2.155377   3.877855   1.091569   3.404015
    20  H    3.420435   3.877840   2.155388   3.403976   1.091572
    21  H    3.910799   3.409934   3.409903   2.162490   2.162479
    22  H    4.668244   5.805208   5.077525   7.015258   6.425842
                   16         17         18         19         20
    16  C    0.000000
    17  H    3.406864   0.000000
    18  H    3.406928   4.307007   0.000000
    19  H    2.160719   2.476948   4.969360   0.000000
    20  H    2.160719   4.969338   2.477064   4.309123   0.000000
    21  H    1.091253   4.308067   4.308078   2.493109   2.492991
    22  H    7.286825   5.911972   4.577085   7.908714   6.960365
                   21         22
    21  H    0.000000
    22  H    8.335547   0.000000
 Stoichiometry    C12H10(1+,2)
 Framework group  C1[X(C12H10)]
 Deg. of freedom    60
 Full point group                 C1      NOp   1
 Largest Abelian subgroup         C1      NOp   1
 Largest concise Abelian subgroup C1      NOp   1
                         Standard orientation:                         
 ---------------------------------------------------------------------
 Center     Atomic      Atomic             Coordinates (Angstroms)
 Number     Number       Type             X           Y           Z
 ---------------------------------------------------------------------
      1          6           0       -2.858500   -1.132993   -0.413690
      2          6           0       -3.561927    0.000084    0.000146
      3          6           0       -1.463685   -1.132747   -0.413534
      4          6           0       -2.858269    1.133176    0.413741
      5          6           0       -0.742381   -0.000123   -0.000091
      6          6           0       -1.463491    1.132675    0.413489
      7          1           0       -4.653174    0.000160    0.000261
      8          1           0       -0.922222   -2.014213   -0.762301
      9          1           0       -3.398792    2.020986    0.747134
     10          1           0       -0.921754    2.014027    0.762095
     11          6           0        0.742385   -0.000142   -0.000197
     12          6           0        1.463539    1.132637   -0.413582
     13          6           0        1.463636   -1.132765    0.413477
     14          6           0        2.858357    1.133114   -0.413660
     15          6           0        2.858412   -1.133073    0.413706
     16          6           0        3.561931    0.000095    0.000087
     17          1           0        0.921935    2.014039   -0.762261
     18          1           0        0.922017   -2.014128    0.762265
     19          1           0        3.398826    2.021000   -0.746938
     20          1           0        3.399026   -2.020805    0.747168
     21          1           0        4.653184    0.000117    0.000198
     22          1           0       -3.399078   -2.020813   -0.746974
 ---------------------------------------------------------------------
 Rotational constants (GHZ):           2.8545349           0.5449545           0.4756990
 Leave Link  202 at Sun Jan 17 09:54:55 2021, MaxMem=  4026531840 cpu:               0.1 elap:               0.0
 (Enter /opt/ohpc/pub/libs/gaussian/g16-A.03/sandybridge/g16/l301.exe)
 Standard basis: TZVP (5D, 7F)
 Ernie: Thresh=  0.10000D-02 Tol=  0.10000D-05 Strict=F.
 There are   300 symmetry adapted cartesian basis functions of A   symmetry.
 There are   288 symmetry adapted basis functions of A   symmetry.
   288 basis functions,   500 primitive gaussians,   300 cartesian basis functions
    41 alpha electrons       40 beta electrons
       nuclear repulsion energy       598.4723472889 Hartrees.
 IExCor=33909 DFT=T Ex+Corr=LC-wHPBE ExCW=0 ScaHFX=  1.000000
 ScaDFX=  1.000000  1.000000  1.000000  1.000000 ScalE2=  1.000000  1.000000
 IRadAn=      5 IRanWt=     -1 IRanGd=            0 ICorTp=0 IEmpDi=  4
 HFx  wShort=  0.000000 wLong=  0.236000 cFull=  0.000000 cShort=  0.000000 cLong=  1.000000
 DFx  wShort=  0.000000 wLong=  0.236000 cFull=  0.000000 cShort=  1.000000 cLong=  0.000000
 NAtoms=   22 NActive=   22 NUniq=   22 SFac= 1.00D+00 NAtFMM=   60 NAOKFM=F Big=F
 Integral buffers will be    131072 words long.
 Raffenetti 2 integral format.
 Two-electron integral symmetry is turned on.
 Leave Link  301 at Sun Jan 17 09:54:55 2021, MaxMem=  4026531840 cpu:               0.4 elap:               0.1
 (Enter /opt/ohpc/pub/libs/gaussian/g16-A.03/sandybridge/g16/l302.exe)
 NPDir=0 NMtPBC=     1 NCelOv=     1 NCel=       1 NClECP=     1 NCelD=      1
         NCelK=      1 NCelE2=     1 NClLst=     1 CellRange=     0.0.
 One-electron integrals computed using PRISM.
 One-electron integral symmetry used in STVInt
 NBasis=   288 RedAO= T EigKep=  9.18D-06  NBF=   288
 NBsUse=   288 1.00D-06 EigRej= -1.00D+00 NBFU=   288
 Precomputing XC quadrature grid using
 IXCGrd= 4 IRadAn=           5 IRanWt=          -1 IRanGd=           0 AccXCQ= 0.00D+00.
 Generated NRdTot=       0 NPtTot=           0 NUsed=           0 NTot=          32
 NSgBfM=   295   295   295   295   295 MxSgAt=    22 MxSgA2=    22.
 Leave Link  302 at Sun Jan 17 09:54:55 2021, MaxMem=  4026531840 cpu:               2.1 elap:               0.3
 (Enter /opt/ohpc/pub/libs/gaussian/g16-A.03/sandybridge/g16/l303.exe)
 DipDrv:  MaxL=1.
 Leave Link  303 at Sun Jan 17 09:54:55 2021, MaxMem=  4026531840 cpu:               0.3 elap:               0.1
 (Enter /opt/ohpc/pub/libs/gaussian/g16-A.03/sandybridge/g16/l401.exe)
 ExpMin= 9.52D-02 ExpMax= 1.36D+04 ExpMxC= 4.63D+02 IAcc=3 IRadAn=         5 AccDes= 0.00D+00
 Harris functional with IExCor=33909 and IRadAn=       5 diagonalized for initial guess.
 HarFok:  IExCor=33909 AccDes= 0.00D+00 IRadAn=         5 IDoV= 1 UseB2=F ITyADJ=14
 ICtDFT=  3500011 ScaDFX=  1.000000  1.000000  1.000000  1.000000
 FoFCou: FMM=F IPFlag=           0 FMFlag=      100000 FMFlg1=           0
         NFxFlg=           0 DoJE=T BraDBF=F KetDBF=T FulRan=T
         wScrn=  0.000000 ICntrl=       500 IOpCl=  0 I1Cent=   200000004 NGrid=           0
         NMat0=    1 NMatS0=      1 NMatT0=    0 NMatD0=    1 NMtDS0=    0 NMtDT0=    0
 Petite list used in FoFCou.
 Harris En= -452.689384761890    
 JPrj=0 DoOrth=F DoCkMO=F.
 Initial guess <Sx>= 0.0000 <Sy>= 0.0000 <Sz>= 0.5000 <S**2>= 0.7500 S= 0.5000
 Leave Link  401 at Sun Jan 17 09:54:57 2021, MaxMem=  4026531840 cpu:              13.8 elap:               1.8
 (Enter /opt/ohpc/pub/libs/gaussian/g16-A.03/sandybridge/g16/l502.exe)
 Integral symmetry usage will be decided dynamically.
 UHF open shell SCF:
 Using DIIS extrapolation, IDIIS=    10.
 NGot=  4026531840 LenX=  4026346394 LenY=  4026255953
 Requested convergence on RMS density matrix=1.00D-06 within  32 cycles.
 Requested convergence on MAX density matrix=1.00D-04.
 Requested convergence on             energy=1.00D-04.
 Virtual orbitals will be shifted by   0.500 hartree.
 No special actions if energy rises.
 Dynamic level shift is on during FON iterations.

 Cycle   1  Pass 1  IDiag  1:
 FoFJK:  IHMeth= 1 ICntrl=       0 DoSepK=T KAlg= 0 I1Cent=           0 FoldK=F
 IRaf=         1 NMat=       1 IRICut=       1 DoRegI=T DoRafI=F ISym2E= 0 IDoP0=0 IntGTp=1.
 FoFCou: FMM=F IPFlag=           0 FMFlag=      100000 FMFlg1=           0
         NFxFlg=           0 DoJE=T BraDBF=F KetDBF=F FulRan=T
         wScrn=  0.000000 ICntrl=       500 IOpCl=  0 I1Cent=           0 NGrid=           0
         NMat0=    1 NMatS0=      1 NMatT0=    0 NMatD0=    1 NMtDS0=    0 NMtDT0=    0
 Symmetry not used in FoFCou.
 E= -462.609546628513    
 DIIS: error= 2.38D-02 at cycle   1 NSaved=   1.
 NSaved= 1 IEnMin= 1 EnMin= -462.609546628513     IErMin= 1 ErrMin= 2.38D-02
 ErrMax= 2.38D-02  0.00D+00 EMaxC= 1.00D+00 BMatC= 4.48D-01 BMatP= 4.48D-01
 IDIUse=1 WtCom= 1.00D+00 WtEn= 0.00D+00
 Coeff-Com:  0.100D+01
 Coeff:      0.100D+01
 Gap=     0.332 Goal=   None    Shift=    0.500
 T= 1358. Gap= 0.824 NK=0 IS=   42 IE=  288 IFin=   41
          NO(<0.9)=   0  NV(>0.1)=   0     41.00e < EF      0.00e >EF  Err=0.0D+00
 Gap=     0.171 Goal=   None    Shift=    0.500
 T= 1358. Gap= 0.668 NK=0 IS=   41 IE=  288 IFin=   40
          NO(<0.9)=   0  NV(>0.1)=   0     40.00e < EF      0.00e >EF  Err=0.0D+00
 GapD=    0.171 DampG=1.000 DampE=0.500 DampFc=0.5000 IDamp=-1.
 Damping current iteration by 5.00D-01
 RMSDP=2.47D-03 MaxDP=6.13D-02              OVMax= 5.25D-02

 Cycle   2  Pass 1  IDiag  1:
 E= -462.673234484341     Delta-E=       -0.063687855828 Rises=F Damp=T
 DIIS: error= 1.10D-02 at cycle   2 NSaved=   2.
 NSaved= 2 IEnMin= 2 EnMin= -462.673234484341     IErMin= 2 ErrMin= 1.10D-02
 ErrMax= 1.10D-02  0.00D+00 EMaxC= 1.00D+00 BMatC= 9.13D-02 BMatP= 4.48D-01
 IDIUse=1 WtCom= 1.00D+00 WtEn= 0.00D+00
 Coeff-Com: -0.699D+00 0.170D+01
 Coeff:     -0.699D+00 0.170D+01
 Gap=     0.339 Goal=   None    Shift=    0.500
 T= 1240. Gap= 0.833 NK=0 IS=   42 IE=  288 IFin=   41
          NO(<0.9)=   0  NV(>0.1)=   0     41.00e < EF      0.00e >EF  Err=0.0D+00
 Gap=     0.193 Goal=   None    Shift=    0.500
 T= 1240. Gap= 0.687 NK=0 IS=   41 IE=  288 IFin=   40
          NO(<0.9)=   0  NV(>0.1)=   0     40.00e < EF      0.00e >EF  Err=0.0D+00
 GapD=    0.193 DampG=1.000 DampE=0.500 DampFc=0.5000 IDamp=-1.
 Damping current iteration by 5.00D-01
 RMSDP=1.73D-03 MaxDP=4.94D-02 DE=-6.37D-02 OVMax= 1.62D-02

 Cycle   3  Pass 1  IDiag  1:
 E= -462.696781540946     Delta-E=       -0.023547056606 Rises=F Damp=T
 DIIS: error= 5.43D-03 at cycle   3 NSaved=   3.
 NSaved= 3 IEnMin= 3 EnMin= -462.696781540946     IErMin= 3 ErrMin= 5.43D-03
 ErrMax= 5.43D-03  0.00D+00 EMaxC= 1.00D+00 BMatC= 2.10D-02 BMatP= 9.13D-02
 IDIUse=1 WtCom= 1.00D+00 WtEn= 0.00D+00
 Coeff-Com:  0.437D-01-0.102D+01 0.197D+01
 Coeff:      0.437D-01-0.102D+01 0.197D+01
 Gap=     0.335 Goal=   None    Shift=    0.500
 T= 1014. Gap= 0.834 NK=0 IS=   42 IE=  288 IFin=   41
          NO(<0.9)=   0  NV(>0.1)=   0     41.00e < EF      0.00e >EF  Err=0.0D+00
 Gap=     0.189 Goal=   None    Shift=    0.500
 T= 1014. Gap= 0.688 NK=0 IS=   41 IE=  288 IFin=   40
          NO(<0.9)=   0  NV(>0.1)=   0     40.00e < EF      0.00e >EF  Err=0.0D+00
 GapD=    0.189 DampG=1.000 DampE=1.000 DampFc=1.0000 IDamp=-1.
 RMSDP=1.07D-03 MaxDP=3.07D-02 DE=-2.35D-02 OVMax= 1.23D-02

 Cycle   4  Pass 1  IDiag  1:
 E= -462.717457163112     Delta-E=       -0.020675622165 Rises=F Damp=F
 DIIS: error= 2.37D-03 at cycle   4 NSaved=   4.
 NSaved= 4 IEnMin= 4 EnMin= -462.717457163112     IErMin= 4 ErrMin= 2.37D-03
 ErrMax= 2.37D-03  0.00D+00 EMaxC= 1.00D+00 BMatC= 4.85D-04 BMatP= 2.10D-02
 IDIUse=1 WtCom= 1.00D+00 WtEn= 0.00D+00
 Coeff-Com:  0.608D-01-0.654D-01-0.108D+00 0.111D+01
 Coeff:      0.608D-01-0.654D-01-0.108D+00 0.111D+01
 Gap=     0.335 Goal=   None    Shift=    0.500
 T=  558. Gap= 0.835 NK=0 IS=   42 IE=  288 IFin=   41
          NO(<0.9)=   0  NV(>0.1)=   0     41.00e < EF      0.00e >EF  Err=0.0D+00
 Gap=     0.190 Goal=   None    Shift=    0.500
 T=  558. Gap= 0.690 NK=0 IS=   41 IE=  288 IFin=   40
          NO(<0.9)=   0  NV(>0.1)=   0     40.00e < EF      0.00e >EF  Err=0.0D+00
 GapD=    0.190 DampG=1.000 DampE=1.000 DampFc=1.0000 IDamp=-1.
 RMSDP=1.30D-04 MaxDP=3.86D-03 DE=-2.07D-02 OVMax= 8.78D-03

 Cycle   5  Pass 1  IDiag  1:
 E= -462.717818526795     Delta-E=       -0.000361363683 Rises=F Damp=F
 DIIS: error= 2.04D-03 at cycle   5 NSaved=   5.
 NSaved= 5 IEnMin= 5 EnMin= -462.717818526795     IErMin= 5 ErrMin= 2.04D-03
 ErrMax= 2.04D-03  0.00D+00 EMaxC= 1.00D+00 BMatC= 2.08D-04 BMatP= 4.85D-04
 IDIUse=1 WtCom= 1.00D+00 WtEn= 0.00D+00
 Coeff-Com: -0.217D-01 0.241D+00-0.424D+00-0.687D+00 0.189D+01
 Coeff:     -0.217D-01 0.241D+00-0.424D+00-0.687D+00 0.189D+01
 Gap=     0.336 Goal=   None    Shift=    0.500
 T=  168. Gap= 0.836 NK=0 IS=   42 IE=  288 IFin=   41
          NO(<0.9)=   0  NV(>0.1)=   0     41.00e < EF      0.00e >EF  Err=0.0D+00
 Gap=     0.192 Goal=   None    Shift=    0.500
 T=  168. Gap= 0.692 NK=0 IS=   41 IE=  288 IFin=   40
          NO(<0.9)=   0  NV(>0.1)=   0     40.00e < EF      0.00e >EF  Err=0.0D+00
 GapD=    0.192 DampG=1.000 DampE=1.000 DampFc=1.0000 IDamp=-1.
 RMSDP=1.02D-04 MaxDP=3.27D-03 DE=-3.61D-04 OVMax= 9.14D-03

 Cycle   6  Pass 1  IDiag  1:
 E= -462.718073633496     Delta-E=       -0.000255106701 Rises=F Damp=F
 DIIS: error= 1.49D-03 at cycle   6 NSaved=   6.
 NSaved= 6 IEnMin= 6 EnMin= -462.718073633496     IErMin= 6 ErrMin= 1.49D-03
 ErrMax= 1.49D-03  0.00D+00 EMaxC= 1.00D+00 BMatC= 1.06D-04 BMatP= 2.08D-04
 IDIUse=1 WtCom= 1.00D+00 WtEn= 0.00D+00
 Coeff-Com: -0.264D-01 0.272D-01 0.387D-01-0.354D+00-0.894D+00 0.221D+01
 Coeff:     -0.264D-01 0.272D-01 0.387D-01-0.354D+00-0.894D+00 0.221D+01
 Gap=     0.336 Goal=   None    Shift=    0.500
 Gap=     0.194 Goal=   None    Shift=    0.500
 GapD=    0.194 DampG=1.000 DampE=1.000 DampFc=1.0000 IDamp=-1.
 RMSDP=7.02D-05 MaxDP=1.73D-03 DE=-2.55D-04 OVMax= 7.92D-03

 Cycle   7  Pass 1  IDiag  1:
 E= -462.718240101766     Delta-E=       -0.000166468271 Rises=F Damp=F
 DIIS: error= 1.07D-03 at cycle   7 NSaved=   7.
 NSaved= 7 IEnMin= 7 EnMin= -462.718240101766     IErMin= 7 ErrMin= 1.07D-03
 ErrMax= 1.07D-03  0.00D+00 EMaxC= 1.00D+00 BMatC= 5.41D-05 BMatP= 1.06D-04
 IDIUse=1 WtCom= 1.00D+00 WtEn= 0.00D+00
 Coeff-Com: -0.574D-02-0.399D-01 0.104D+00 0.112D+00-0.980D+00 0.987D-01
 Coeff-Com:  0.171D+01
 Coeff:     -0.574D-02-0.399D-01 0.104D+00 0.112D+00-0.980D+00 0.987D-01
 Coeff:      0.171D+01
 Gap=     0.336 Goal=   None    Shift=    0.500
 Gap=     0.195 Goal=   None    Shift=    0.500
 GapD=    0.195 DampG=1.000 DampE=1.000 DampFc=1.0000 IDamp=-1.
 RMSDP=4.30D-05 MaxDP=1.01D-03 DE=-1.66D-04 OVMax= 6.07D-03

 Cycle   8  Pass 1  IDiag  1:
 E= -462.718333290630     Delta-E=       -0.000093188863 Rises=F Damp=F
 DIIS: error= 7.23D-04 at cycle   8 NSaved=   8.
 NSaved= 8 IEnMin= 8 EnMin= -462.718333290630     IErMin= 8 ErrMin= 7.23D-04
 ErrMax= 7.23D-04  0.00D+00 EMaxC= 1.00D+00 BMatC= 2.85D-05 BMatP= 5.41D-05
 IDIUse=1 WtCom= 1.00D+00 WtEn= 0.00D+00
 Coeff-Com:  0.106D-01 0.204D-02-0.411D-01 0.236D+00 0.250D+00-0.145D+01
 Coeff-Com: -0.192D+00 0.218D+01
 Coeff:      0.106D-01 0.204D-02-0.411D-01 0.236D+00 0.250D+00-0.145D+01
 Coeff:     -0.192D+00 0.218D+01
 Gap=     0.336 Goal=   None    Shift=    0.500
 Gap=     0.196 Goal=   None    Shift=    0.500
 RMSDP=2.93D-05 MaxDP=5.87D-04 DE=-9.32D-05 OVMax= 4.71D-03

 Cycle   9  Pass 1  IDiag  1:
 E= -462.718389940371     Delta-E=       -0.000056649741 Rises=F Damp=F
 DIIS: error= 4.86D-04 at cycle   9 NSaved=   9.
 NSaved= 9 IEnMin= 9 EnMin= -462.718389940371     IErMin= 9 ErrMin= 4.86D-04
 ErrMax= 4.86D-04  0.00D+00 EMaxC= 1.00D+00 BMatC= 1.46D-05 BMatP= 2.85D-05
 IDIUse=1 WtCom= 1.00D+00 WtEn= 0.00D+00
 Coeff-Com: -0.312D-02 0.358D-01-0.608D-01-0.160D+00 0.514D+00 0.116D+00
 Coeff-Com: -0.856D+00-0.153D+01 0.295D+01
 Coeff:     -0.312D-02 0.358D-01-0.608D-01-0.160D+00 0.514D+00 0.116D+00
 Coeff:     -0.856D+00-0.153D+01 0.295D+01
 Gap=     0.336 Goal=   None    Shift=    0.500
 Gap=     0.196 Goal=   None    Shift=    0.500
 RMSDP=2.30D-05 MaxDP=4.79D-04 DE=-5.66D-05 OVMax= 3.49D-03

 Cycle  10  Pass 1  IDiag  1:
 E= -462.718421393388     Delta-E=       -0.000031453018 Rises=F Damp=F
 DIIS: error= 3.31D-04 at cycle  10 NSaved=  10.
 NSaved=10 IEnMin=10 EnMin= -462.718421393388     IErMin=10 ErrMin= 3.31D-04
 ErrMax= 3.31D-04  0.00D+00 EMaxC= 1.00D+00 BMatC= 7.59D-06 BMatP= 1.46D-05
 IDIUse=1 WtCom= 1.00D+00 WtEn= 0.00D+00
 Coeff-Com: -0.414D-02-0.393D-02 0.221D-01-0.150D+00 0.487D-02 0.545D+00
 Coeff-Com: -0.934D-01-0.941D+00-0.764D+00 0.239D+01
 Coeff:     -0.414D-02-0.393D-02 0.221D-01-0.150D+00 0.487D-02 0.545D+00
 Coeff:     -0.934D-01-0.941D+00-0.764D+00 0.239D+01
 Gap=     0.336 Goal=   None    Shift=    0.500
 Gap=     0.196 Goal=   None    Shift=    0.500
 RMSDP=1.62D-05 MaxDP=3.29D-04 DE=-3.15D-05 OVMax= 2.28D-03

 Cycle  11  Pass 1  IDiag  1:
 E= -462.718436208255     Delta-E=       -0.000014814867 Rises=F Damp=F
 DIIS: error= 2.39D-04 at cycle  11 NSaved=  11.
 NSaved=11 IEnMin=11 EnMin= -462.718436208255     IErMin=11 ErrMin= 2.39D-04
 ErrMax= 2.39D-04  0.00D+00 EMaxC= 1.00D+00 BMatC= 3.90D-06 BMatP= 7.59D-06
 IDIUse=1 WtCom= 1.00D+00 WtEn= 0.00D+00
 Coeff-Com:  0.117D-02-0.166D-01 0.285D-01 0.235D-01-0.142D+00-0.180D-01
 Coeff-Com:  0.266D+00 0.569D+00-0.147D+01-0.753D+00 0.251D+01
 Coeff:      0.117D-02-0.166D-01 0.285D-01 0.235D-01-0.142D+00-0.180D-01
 Coeff:      0.266D+00 0.569D+00-0.147D+01-0.753D+00 0.251D+01
 Gap=     0.336 Goal=   None    Shift=    0.500
 Gap=     0.196 Goal=   None    Shift=    0.500
 RMSDP=1.22D-05 MaxDP=2.79D-04 DE=-1.48D-05 OVMax= 1.69D-03

 Cycle  12  Pass 1  IDiag  1:
 E= -462.718443148675     Delta-E=       -0.000006940420 Rises=F Damp=F
 DIIS: error= 1.85D-04 at cycle  12 NSaved=  12.
 NSaved=12 IEnMin=12 EnMin= -462.718443148675     IErMin=12 ErrMin= 1.85D-04
 ErrMax= 1.85D-04  0.00D+00 EMaxC= 1.00D+00 BMatC= 2.02D-06 BMatP= 3.90D-06
 IDIUse=1 WtCom= 1.00D+00 WtEn= 0.00D+00
 Coeff-Com:  0.336D-02 0.242D-02-0.170D-01 0.964D-01 0.428D-01-0.505D+00
 Coeff-Com:  0.102D+00 0.914D+00 0.355D+00-0.282D+01 0.733D+00 0.209D+01
 Coeff:      0.336D-02 0.242D-02-0.170D-01 0.964D-01 0.428D-01-0.505D+00
 Coeff:      0.102D+00 0.914D+00 0.355D+00-0.282D+01 0.733D+00 0.209D+01
 Gap=     0.336 Goal=   None    Shift=    0.500
 Gap=     0.196 Goal=   None    Shift=    0.500
 RMSDP=8.59D-06 MaxDP=2.34D-04 DE=-6.94D-06 OVMax= 1.14D-03

 Cycle  13  Pass 1  IDiag  1:
 E= -462.718446152960     Delta-E=       -0.000003004285 Rises=F Damp=F
 DIIS: error= 1.33D-04 at cycle  13 NSaved=  13.
 NSaved=13 IEnMin=13 EnMin= -462.718446152960     IErMin=13 ErrMin= 1.33D-04
 ErrMax= 1.33D-04  0.00D+00 EMaxC= 1.00D+00 BMatC= 8.09D-07 BMatP= 2.02D-06
 IDIUse=1 WtCom= 1.00D+00 WtEn= 0.00D+00
 Coeff-Com: -0.104D-02 0.313D-02-0.225D-02-0.460D-01 0.557D-01 0.106D+00
 Coeff-Com: -0.719D-01-0.447D+00 0.439D+00 0.695D+00-0.788D+00-0.201D+01
 Coeff-Com:  0.306D+01
 Coeff:     -0.104D-02 0.313D-02-0.225D-02-0.460D-01 0.557D-01 0.106D+00
 Coeff:     -0.719D-01-0.447D+00 0.439D+00 0.695D+00-0.788D+00-0.201D+01
 Coeff:      0.306D+01
 Gap=     0.336 Goal=   None    Shift=    0.500
 Gap=     0.196 Goal=   None    Shift=    0.500
 RMSDP=5.14D-06 MaxDP=1.47D-04 DE=-3.00D-06 OVMax= 6.98D-04

 Cycle  14  Pass 1  IDiag  1:
 E= -462.718447296395     Delta-E=       -0.000001143435 Rises=F Damp=F
 DIIS: error= 9.26D-05 at cycle  14 NSaved=  14.
 NSaved=14 IEnMin=14 EnMin= -462.718447296395     IErMin=14 ErrMin= 9.26D-05
 ErrMax= 9.26D-05  0.00D+00 EMaxC= 1.00D+00 BMatC= 3.00D-07 BMatP= 8.09D-07
 IDIUse=1 WtCom= 1.00D+00 WtEn= 0.00D+00
 Coeff-Com: -0.112D-04-0.215D-02 0.430D-02 0.128D-02-0.257D-01 0.267D-01
 Coeff-Com:  0.222D-01 0.159D-01-0.193D+00 0.178D+00 0.489D-01 0.344D+00
 Coeff-Com: -0.235D+01 0.293D+01
 Coeff:     -0.112D-04-0.215D-02 0.430D-02 0.128D-02-0.257D-01 0.267D-01
 Coeff:      0.222D-01 0.159D-01-0.193D+00 0.178D+00 0.489D-01 0.344D+00
 Coeff:     -0.235D+01 0.293D+01
 Gap=     0.336 Goal=   None    Shift=    0.500
 Gap=     0.196 Goal=   None    Shift=    0.500
 RMSDP=2.98D-06 MaxDP=1.08D-04 DE=-1.14D-06 OVMax= 4.73D-04

 Cycle  15  Pass 1  IDiag  1:
 E= -462.718447717062     Delta-E=       -0.000000420667 Rises=F Damp=F
 DIIS: error= 6.68D-05 at cycle  15 NSaved=  15.
 NSaved=15 IEnMin=15 EnMin= -462.718447717062     IErMin=15 ErrMin= 6.68D-05
 ErrMax= 6.68D-05  0.00D+00 EMaxC= 1.00D+00 BMatC= 1.20D-07 BMatP= 3.00D-07
 IDIUse=1 WtCom= 1.00D+00 WtEn= 0.00D+00
 Coeff-Com:  0.553D-03-0.112D-02 0.133D-03 0.152D-01 0.283D-03-0.895D-01
 Coeff-Com:  0.468D-01 0.189D+00-0.645D-01-0.486D+00 0.360D+00 0.550D+00
 Coeff-Com: -0.479D+00-0.199D+01 0.294D+01
 Coeff:      0.553D-03-0.112D-02 0.133D-03 0.152D-01 0.283D-03-0.895D-01
 Coeff:      0.468D-01 0.189D+00-0.645D-01-0.486D+00 0.360D+00 0.550D+00
 Coeff:     -0.479D+00-0.199D+01 0.294D+01
 Gap=     0.336 Goal=   None    Shift=    0.500
 Gap=     0.196 Goal=   None    Shift=    0.500
 RMSDP=1.73D-06 MaxDP=7.28D-05 DE=-4.21D-07 OVMax= 3.30D-04

 Cycle  16  Pass 1  IDiag  1:
 E= -462.718447880336     Delta-E=       -0.000000163275 Rises=F Damp=F
 DIIS: error= 4.71D-05 at cycle  16 NSaved=  16.
 NSaved=16 IEnMin=16 EnMin= -462.718447880336     IErMin=16 ErrMin= 4.71D-05
 ErrMax= 4.71D-05  0.00D+00 EMaxC= 1.00D+00 BMatC= 4.78D-08 BMatP= 1.20D-07
 IDIUse=1 WtCom= 1.00D+00 WtEn= 0.00D+00
 Coeff-Com: -0.381D-03 0.102D-02-0.563D-03-0.112D-01 0.657D-02 0.421D-01
 Coeff-Com: -0.118D-01-0.144D+00 0.864D-01 0.276D+00-0.213D+00-0.570D+00
 Coeff-Com:  0.929D+00 0.436D+00-0.341D+01 0.358D+01
 Coeff:     -0.381D-03 0.102D-02-0.563D-03-0.112D-01 0.657D-02 0.421D-01
 Coeff:     -0.118D-01-0.144D+00 0.864D-01 0.276D+00-0.213D+00-0.570D+00
 Coeff:      0.929D+00 0.436D+00-0.341D+01 0.358D+01
 Gap=     0.336 Goal=   None    Shift=    0.500
 Gap=     0.196 Goal=   None    Shift=    0.500
 RMSDP=1.04D-06 MaxDP=5.16D-05 DE=-1.63D-07 OVMax= 2.35D-04

 Cycle  17  Pass 1  IDiag  1:
 E= -462.718447948141     Delta-E=       -0.000000067805 Rises=F Damp=F
 DIIS: error= 3.34D-05 at cycle  17 NSaved=  17.
 NSaved=17 IEnMin=17 EnMin= -462.718447948141     IErMin=17 ErrMin= 3.34D-05
 ErrMax= 3.34D-05  0.00D+00 EMaxC= 1.00D+00 BMatC= 2.00D-08 BMatP= 4.78D-08
 IDIUse=1 WtCom= 1.00D+00 WtEn= 0.00D+00
 Coeff-Com:  0.102D-03-0.104D-02 0.171D-02 0.901D-03-0.734D-02 0.156D-02
 Coeff-Com:  0.102D-01 0.906D-02-0.359D-01 0.132D-01 0.168D-02 0.180D+00
 Coeff-Com: -0.550D+00 0.626D+00 0.469D+00-0.326D+01 0.354D+01
 Coeff:      0.102D-03-0.104D-02 0.171D-02 0.901D-03-0.734D-02 0.156D-02
 Coeff:      0.102D-01 0.906D-02-0.359D-01 0.132D-01 0.168D-02 0.180D+00
 Coeff:     -0.550D+00 0.626D+00 0.469D+00-0.326D+01 0.354D+01
 Gap=     0.336 Goal=   None    Shift=    0.500
 Gap=     0.196 Goal=   None    Shift=    0.500
 RMSDP=6.11D-07 MaxDP=3.00D-05 DE=-6.78D-08 OVMax= 1.71D-04

 SCF Done:  E(ULC-wHPBE) =  -462.718447948     A.U. after   17 cycles
            NFock= 17  Conv=0.61D-06     -V/T= 2.0052
 <Sx>= 0.0000 <Sy>= 0.0000 <Sz>= 0.5000 <S**2>= 0.7782 S= 0.5140
 <L.S>= 0.000000000000E+00
 KE= 4.603217334745D+02 PE=-2.256678518524D+03 EE= 7.351659898123D+02
 Annihilation of the first spin contaminant:
 S**2 before annihilation     0.7782,   after     0.7506
 Leave Link  502 at Sun Jan 17 09:57:20 2021, MaxMem=  4026531840 cpu:            1138.3 elap:             142.8
 (Enter /opt/ohpc/pub/libs/gaussian/g16-A.03/sandybridge/g16/l508.exe)
 QCSCF skips out because SCF is already converged.
 Leave Link  508 at Sun Jan 17 09:57:20 2021, MaxMem=  4026531840 cpu:               0.1 elap:               0.0
 (Enter /opt/ohpc/pub/libs/gaussian/g16-A.03/sandybridge/g16/l601.exe)
 Copying SCF densities to generalized density rwf, IOpCl= 1 IROHF=0.

 **********************************************************************

            Population analysis using the SCF density.

 **********************************************************************

 Orbital symmetries:
 Alpha Orbitals:
       Occupied  (A) (A) (A) (A) (A) (A) (A) (A) (A) (A) (A) (A)
                 (A) (A) (A) (A) (A) (A) (A) (A) (A) (A) (A) (A)
                 (A) (A) (A) (A) (A) (A) (A) (A) (A) (A) (A) (A)
                 (A) (A) (A) (A) (A)
       Virtual   (A) (A) (A) (A) (A) (A) (A) (A) (A) (A) (A) (A)
                 (A) (A) (A) (A) (A) (A) (A) (A) (A) (A) (A) (A)
                 (A) (A) (A) (A) (A) (A) (A) (A) (A) (A) (A) (A)
                 (A) (A) (A) (A) (A) (A) (A) (A) (A) (A) (A) (A)
                 (A) (A) (A) (A) (A) (A) (A) (A) (A) (A) (A) (A)
                 (A) (A) (A) (A) (A) (A) (A) (A) (A) (A) (A) (A)
                 (A) (A) (A) (A) (A) (A) (A) (A) (A) (A) (A) (A)
                 (A) (A) (A) (A) (A) (A) (A) (A) (A) (A) (A) (A)
                 (A) (A) (A) (A) (A) (A) (A) (A) (A) (A) (A) (A)
                 (A) (A) (A) (A) (A) (A) (A) (A) (A) (A) (A) (A)
                 (A) (A) (A) (A) (A) (A) (A) (A) (A) (A) (A) (A)
                 (A) (A) (A) (A) (A) (A) (A) (A) (A) (A) (A) (A)
                 (A) (A) (A) (A) (A) (A) (A) (A) (A) (A) (A) (A)
                 (A) (A) (A) (A) (A) (A) (A) (A) (A) (A) (A) (A)
                 (A) (A) (A) (A) (A) (A) (A) (A) (A) (A) (A) (A)
                 (A) (A) (A) (A) (A) (A) (A) (A) (A) (A) (A) (A)
                 (A) (A) (A) (A) (A) (A) (A) (A) (A) (A) (A) (A)
                 (A) (A) (A) (A) (A) (A) (A) (A) (A) (A) (A) (A)
                 (A) (A) (A) (A) (A) (A) (A) (A) (A) (A) (A) (A)
                 (A) (A) (A) (A) (A) (A) (A) (A) (A) (A) (A) (A)
                 (A) (A) (A) (A) (A) (A) (A)
 Beta  Orbitals:
       Occupied  (A) (A) (A) (A) (A) (A) (A) (A) (A) (A) (A) (A)
                 (A) (A) (A) (A) (A) (A) (A) (A) (A) (A) (A) (A)
                 (A) (A) (A) (A) (A) (A) (A) (A) (A) (A) (A) (A)
                 (A) (A) (A) (A)
       Virtual   (A) (A) (A) (A) (A) (A) (A) (A) (A) (A) (A) (A)
                 (A) (A) (A) (A) (A) (A) (A) (A) (A) (A) (A) (A)
                 (A) (A) (A) (A) (A) (A) (A) (A) (A) (A) (A) (A)
                 (A) (A) (A) (A) (A) (A) (A) (A) (A) (A) (A) (A)
                 (A) (A) (A) (A) (A) (A) (A) (A) (A) (A) (A) (A)
                 (A) (A) (A) (A) (A) (A) (A) (A) (A) (A) (A) (A)
                 (A) (A) (A) (A) (A) (A) (A) (A) (A) (A) (A) (A)
                 (A) (A) (A) (A) (A) (A) (A) (A) (A) (A) (A) (A)
                 (A) (A) (A) (A) (A) (A) (A) (A) (A) (A) (A) (A)
                 (A) (A) (A) (A) (A) (A) (A) (A) (A) (A) (A) (A)
                 (A) (A) (A) (A) (A) (A) (A) (A) (A) (A) (A) (A)
                 (A) (A) (A) (A) (A) (A) (A) (A) (A) (A) (A) (A)
                 (A) (A) (A) (A) (A) (A) (A) (A) (A) (A) (A) (A)
                 (A) (A) (A) (A) (A) (A) (A) (A) (A) (A) (A) (A)
                 (A) (A) (A) (A) (A) (A) (A) (A) (A) (A) (A) (A)
                 (A) (A) (A) (A) (A) (A) (A) (A) (A) (A) (A) (A)
                 (A) (A) (A) (A) (A) (A) (A) (A) (A) (A) (A) (A)
                 (A) (A) (A) (A) (A) (A) (A) (A) (A) (A) (A) (A)
                 (A) (A) (A) (A) (A) (A) (A) (A) (A) (A) (A) (A)
                 (A) (A) (A) (A) (A) (A) (A) (A) (A) (A) (A) (A)
                 (A) (A) (A) (A) (A) (A) (A) (A)
 The electronic state is 2-A.
 Alpha  occ. eigenvalues --  -10.22966 -10.22954 -10.20687 -10.20687 -10.20308
 Alpha  occ. eigenvalues --  -10.20307 -10.20306 -10.20304 -10.19040 -10.19040
 Alpha  occ. eigenvalues --  -10.19039 -10.19038  -1.11568  -1.08930  -1.02359
 Alpha  occ. eigenvalues --   -0.98828  -0.97923  -0.96942  -0.86831  -0.86228
 Alpha  occ. eigenvalues --   -0.83391  -0.81934  -0.77764  -0.74141  -0.71339
 Alpha  occ. eigenvalues --   -0.70628  -0.69072  -0.67529  -0.66618  -0.66256
 Alpha  occ. eigenvalues --   -0.65651  -0.64147  -0.62406  -0.60440  -0.58907
 Alpha  occ. eigenvalues --   -0.57869  -0.57529  -0.54065  -0.50469  -0.50412
 Alpha  occ. eigenvalues --   -0.49286
 Alpha virt. eigenvalues --   -0.15661  -0.11939  -0.11748  -0.09794  -0.01669
 Alpha virt. eigenvalues --   -0.00861   0.00394   0.02166   0.02222   0.03867
 Alpha virt. eigenvalues --    0.03912   0.04723   0.05203   0.05340   0.05397
 Alpha virt. eigenvalues --    0.06877   0.07235   0.08559   0.11728   0.12474
 Alpha virt. eigenvalues --    0.12863   0.12875   0.14839   0.14943   0.14982
 Alpha virt. eigenvalues --    0.15047   0.15118   0.16559   0.17303   0.17403
 Alpha virt. eigenvalues --    0.18002   0.19094   0.19274   0.20569   0.21133
 Alpha virt. eigenvalues --    0.21543   0.23140   0.23956   0.25219   0.26216
 Alpha virt. eigenvalues --    0.26705   0.26893   0.28152   0.28611   0.28812
 Alpha virt. eigenvalues --    0.30122   0.30812   0.31839   0.32714   0.33602
 Alpha virt. eigenvalues --    0.33877   0.34143   0.34641   0.35034   0.35866
 Alpha virt. eigenvalues --    0.37655   0.38210   0.38553   0.39345   0.40477
 Alpha virt. eigenvalues --    0.40732   0.40980   0.41696   0.42277   0.44146
 Alpha virt. eigenvalues --    0.44266   0.44501   0.44659   0.46068   0.49671
 Alpha virt. eigenvalues --    0.50716   0.53028   0.54230   0.56889   0.58149
 Alpha virt. eigenvalues --    0.59454   0.60028   0.60325   0.60564   0.60783
 Alpha virt. eigenvalues --    0.62594   0.67134   0.68831   0.72382   0.73677
 Alpha virt. eigenvalues --    0.80860   0.81946   0.98370   1.08465   1.09353
 Alpha virt. eigenvalues --    1.11938   1.12659   1.12797   1.14084   1.14141
 Alpha virt. eigenvalues --    1.14608   1.15096   1.17666   1.17727   1.18702
 Alpha virt. eigenvalues --    1.18805   1.19311   1.20230   1.21093   1.21180
 Alpha virt. eigenvalues --    1.21514   1.21913   1.22169   1.24277   1.28583
 Alpha virt. eigenvalues --    1.29059   1.30730   1.30798   1.32982   1.33403
 Alpha virt. eigenvalues --    1.33712   1.34037   1.34917   1.35138   1.35571
 Alpha virt. eigenvalues --    1.35958   1.37194   1.37952   1.37972   1.38424
 Alpha virt. eigenvalues --    1.40297   1.40367   1.41454   1.41534   1.42540
 Alpha virt. eigenvalues --    1.44511   1.45212   1.45744   1.45762   1.47650
 Alpha virt. eigenvalues --    1.47684   1.53513   1.54488   1.57362   1.61058
 Alpha virt. eigenvalues --    1.65831   1.66786   1.67050   1.67125   1.67564
 Alpha virt. eigenvalues --    1.69627   1.70118   1.70584   1.76023   1.76171
 Alpha virt. eigenvalues --    1.76460   1.76912   1.77021   1.77140   1.79292
 Alpha virt. eigenvalues --    1.79329   1.79432   1.79553   1.80444   1.81954
 Alpha virt. eigenvalues --    1.83163   1.83505   1.86411   1.86654   1.87940
 Alpha virt. eigenvalues --    1.88516   1.90287   1.90525   1.96672   1.97029
 Alpha virt. eigenvalues --    1.99514   2.11110   2.13655   2.14034   2.15679
 Alpha virt. eigenvalues --    2.15739   2.17035   2.17563   2.17725   2.20298
 Alpha virt. eigenvalues --    2.21155   2.21269   2.21563   2.21982   2.23842
 Alpha virt. eigenvalues --    2.24133   2.31193   2.35838   2.37109   2.37255
 Alpha virt. eigenvalues --    2.39299   2.40568   2.40884   2.41821   2.45648
 Alpha virt. eigenvalues --    2.48647   2.50346   2.50659   2.51162   2.52455
 Alpha virt. eigenvalues --    2.54342   2.56598   2.56806   2.57681   2.59159
 Alpha virt. eigenvalues --    2.62851   2.68095   2.68211   2.68566   2.71188
 Alpha virt. eigenvalues --    2.85509   2.86320   2.89026   2.91297   2.91861
 Alpha virt. eigenvalues --    2.92308   2.92966   2.95363   2.97465   2.99035
 Alpha virt. eigenvalues --    3.02094   3.02364   3.04399   3.04865   3.06899
 Alpha virt. eigenvalues --    3.08931   3.17994   3.19796   3.21145   3.27076
 Alpha virt. eigenvalues --    3.27596   3.38393   3.41485   3.59844   3.68814
 Alpha virt. eigenvalues --   20.86233  21.14584  21.41265  21.51817  21.55001
 Alpha virt. eigenvalues --   21.60998  21.73535  21.76727  21.79298  21.81053
 Alpha virt. eigenvalues --   21.90307  21.93673
  Beta  occ. eigenvalues --  -10.22770 -10.22755 -10.20328 -10.20328 -10.20142
  Beta  occ. eigenvalues --  -10.20141 -10.20140 -10.20139 -10.19119 -10.19118
  Beta  occ. eigenvalues --  -10.19117 -10.19116  -1.11015  -1.08452  -1.01754
  Beta  occ. eigenvalues --   -0.98620  -0.97772  -0.95900  -0.86405  -0.85988
  Beta  occ. eigenvalues --   -0.83031  -0.81627  -0.77619  -0.73889  -0.71125
  Beta  occ. eigenvalues --   -0.70445  -0.68539  -0.67362  -0.66349  -0.66180
  Beta  occ. eigenvalues --   -0.65451  -0.63127  -0.60367  -0.60270  -0.58755
  Beta  occ. eigenvalues --   -0.57765  -0.57261  -0.50118  -0.50105  -0.50058
  Beta virt. eigenvalues --   -0.30451  -0.13488  -0.11199  -0.10658  -0.07773
  Beta virt. eigenvalues --   -0.01592  -0.00764   0.00475   0.02344   0.02594
  Beta virt. eigenvalues --    0.04083   0.04235   0.04787   0.05519   0.05682
  Beta virt. eigenvalues --    0.06140   0.07212   0.07451   0.08696   0.12067
  Beta virt. eigenvalues --    0.12782   0.13070   0.13109   0.15031   0.15053
  Beta virt. eigenvalues --    0.15181   0.15291   0.15363   0.16788   0.17479
  Beta virt. eigenvalues --    0.17511   0.18156   0.19347   0.19664   0.20602
  Beta virt. eigenvalues --    0.21327   0.21785   0.23388   0.24614   0.25484
  Beta virt. eigenvalues --    0.26638   0.26897   0.27190   0.28507   0.29033
  Beta virt. eigenvalues --    0.29189   0.30399   0.31103   0.32319   0.33251
  Beta virt. eigenvalues --    0.33949   0.34190   0.34236   0.34706   0.35330
  Beta virt. eigenvalues --    0.35912   0.37987   0.38331   0.38576   0.39654
  Beta virt. eigenvalues --    0.40733   0.40880   0.41119   0.41988   0.42410
  Beta virt. eigenvalues --    0.44299   0.44519   0.44659   0.44824   0.46341
  Beta virt. eigenvalues --    0.49842   0.50959   0.53327   0.54374   0.57040
  Beta virt. eigenvalues --    0.58237   0.59802   0.60301   0.60455   0.60908
  Beta virt. eigenvalues --    0.60972   0.62922   0.67289   0.69059   0.72606
  Beta virt. eigenvalues --    0.73761   0.80945   0.82050   0.98565   1.08691
  Beta virt. eigenvalues --    1.09763   1.12450   1.13106   1.13302   1.14248
  Beta virt. eigenvalues --    1.14422   1.14887   1.15510   1.17993   1.18117
  Beta virt. eigenvalues --    1.18968   1.19180   1.19849   1.20613   1.21398
  Beta virt. eigenvalues --    1.21403   1.21850   1.21944   1.22675   1.24859
  Beta virt. eigenvalues --    1.29170   1.29928   1.31334   1.31497   1.33627
  Beta virt. eigenvalues --    1.33888   1.34219   1.34347   1.35493   1.35714
  Beta virt. eigenvalues --    1.36289   1.36427   1.37454   1.38274   1.38372
  Beta virt. eigenvalues --    1.38771   1.40461   1.40959   1.41725   1.41793
  Beta virt. eigenvalues --    1.42567   1.44708   1.45698   1.46001   1.46262
  Beta virt. eigenvalues --    1.47861   1.48153   1.53700   1.55033   1.57963
  Beta virt. eigenvalues --    1.62132   1.66211   1.67200   1.67234   1.67291
  Beta virt. eigenvalues --    1.68212   1.69681   1.70345   1.71007   1.76103
  Beta virt. eigenvalues --    1.76654   1.76767   1.77086   1.77317   1.77521
  Beta virt. eigenvalues --    1.79661   1.79675   1.79720   1.80011   1.80816
  Beta virt. eigenvalues --    1.82619   1.83603   1.83736   1.87089   1.87166
  Beta virt. eigenvalues --    1.88473   1.89190   1.90520   1.90745   1.97020
  Beta virt. eigenvalues --    1.97741   1.99752   2.11575   2.13943   2.14356
  Beta virt. eigenvalues --    2.16210   2.16523   2.17298   2.18356   2.18416
  Beta virt. eigenvalues --    2.21300   2.21807   2.21824   2.22016   2.22611
  Beta virt. eigenvalues --    2.24195   2.24488   2.31990   2.35979   2.37364
  Beta virt. eigenvalues --    2.37604   2.39345   2.40938   2.41185   2.42129
  Beta virt. eigenvalues --    2.46237   2.48754   2.51157   2.51357   2.51928
  Beta virt. eigenvalues --    2.52641   2.54631   2.56891   2.56990   2.57897
  Beta virt. eigenvalues --    2.59219   2.62902   2.68240   2.68314   2.68678
  Beta virt. eigenvalues --    2.71279   2.85977   2.86693   2.89152   2.91713
  Beta virt. eigenvalues --    2.91926   2.92349   2.93447   2.96094   2.97992
  Beta virt. eigenvalues --    2.99203   3.02312   3.02571   3.04726   3.05066
  Beta virt. eigenvalues --    3.07205   3.09167   3.18092   3.20090   3.21238
  Beta virt. eigenvalues --    3.27581   3.28157   3.38639   3.41740   3.60002
  Beta virt. eigenvalues --    3.69002  20.86465  21.14788  21.41587  21.51923
  Beta virt. eigenvalues --   21.55025  21.61434  21.73913  21.76798  21.79452
  Beta virt. eigenvalues --   21.81314  21.90556  21.93885
          Condensed to atoms (all electrons):
               1          2          3          4          5          6
     1  C    4.966087   0.457634   0.375256  -0.036637  -0.011924  -0.049412
     2  C    0.457634   4.901666  -0.034450   0.457354  -0.043075  -0.033857
     3  C    0.375256  -0.034450   5.258969  -0.049067   0.362494  -0.136197
     4  C   -0.036637   0.457354  -0.049067   4.966797  -0.011506   0.374144
     5  C   -0.011924  -0.043075   0.362494  -0.011506   5.429038   0.361328
     6  C   -0.049412  -0.033857  -0.136197   0.374144   0.361328   5.260629
     7  H   -0.042292   0.410110   0.013583  -0.042307  -0.003308   0.013602
     8  H   -0.010937   0.007184   0.398178  -0.001124  -0.049462   0.009801
     9  H    0.008569  -0.039599   0.000659   0.407308   0.011370  -0.036818
    10  H   -0.001122   0.007182   0.009793  -0.010931  -0.049476   0.398196
    11  C    0.020364   0.001315  -0.079362   0.020281   0.121532  -0.079176
    12  C   -0.002044   0.000083   0.027206   0.005638  -0.079099  -0.018456
    13  C    0.005570   0.000120  -0.018418  -0.002117  -0.079461   0.027504
    14  C    0.000288   0.000003  -0.002057  -0.000795   0.020309   0.005584
    15  C   -0.000795   0.000002   0.005623   0.000293   0.020348  -0.002109
    16  C    0.000003  -0.000003   0.000090   0.000002   0.001310   0.000115
    17  H   -0.000057   0.000068   0.000466   0.000543  -0.013348  -0.000105
    18  H    0.000551   0.000068  -0.000138  -0.000058  -0.013328   0.000476
    19  H    0.000000   0.000000  -0.000008  -0.000008  -0.001181   0.000047
    20  H   -0.000008   0.000000   0.000048   0.000001  -0.001181  -0.000008
    21  H    0.000000  -0.000000  -0.000001   0.000000  -0.000149  -0.000001
    22  H    0.407256  -0.039574  -0.036759   0.008563   0.011351   0.000653
               7          8          9         10         11         12
     1  C   -0.042292  -0.010937   0.008569  -0.001122   0.020364  -0.002044
     2  C    0.410110   0.007184  -0.039599   0.007182   0.001315   0.000083
     3  C    0.013583   0.398178   0.000659   0.009793  -0.079362   0.027206
     4  C   -0.042307  -0.001124   0.407308  -0.010931   0.020281   0.005638
     5  C   -0.003308  -0.049462   0.011370  -0.049476   0.121532  -0.079099
     6  C    0.013602   0.009801  -0.036818   0.398196  -0.079176  -0.018456
     7  H    0.480013  -0.000076  -0.004712  -0.000076  -0.000149  -0.000001
     8  H   -0.000076   0.475712   0.000012  -0.000059  -0.013340   0.000466
     9  H   -0.004712   0.000012   0.486410  -0.003796  -0.001183   0.000048
    10  H   -0.000076  -0.000059  -0.003796   0.475707  -0.013339  -0.000132
    11  C   -0.000149  -0.013340  -0.001183  -0.013339   5.429005   0.362441
    12  C   -0.000001   0.000466   0.000048  -0.000132   0.362441   5.258816
    13  C   -0.000001  -0.000106  -0.000008   0.000474   0.361411  -0.136219
    14  C    0.000000  -0.000057  -0.000008   0.000548  -0.011948   0.375279
    15  C    0.000000   0.000544   0.000001  -0.000058  -0.011479  -0.049116
    16  C   -0.000000   0.000068   0.000000   0.000068  -0.043069  -0.034437
    17  H   -0.000001   0.000002  -0.000004  -0.000669  -0.049458   0.398165
    18  H   -0.000001  -0.000668  -0.000001   0.000002  -0.049477   0.009787
    19  H   -0.000000  -0.000001  -0.000000  -0.000004   0.011351  -0.036759
    20  H   -0.000000  -0.000004   0.000000  -0.000001   0.011371   0.000658
    21  H   -0.000000  -0.000001  -0.000000  -0.000001  -0.003308   0.013584
    22  H   -0.004711  -0.003795  -0.000098   0.000012  -0.001180  -0.000008
              13         14         15         16         17         18
     1  C    0.005570   0.000288  -0.000795   0.000003  -0.000057   0.000551
     2  C    0.000120   0.000003   0.000002  -0.000003   0.000068   0.000068
     3  C   -0.018418  -0.002057   0.005623   0.000090   0.000466  -0.000138
     4  C   -0.002117  -0.000795   0.000293   0.000002   0.000543  -0.000058
     5  C   -0.079461   0.020309   0.020348   0.001310  -0.013348  -0.013328
     6  C    0.027504   0.005584  -0.002109   0.000115  -0.000105   0.000476
     7  H   -0.000001   0.000000   0.000000  -0.000000  -0.000001  -0.000001
     8  H   -0.000106  -0.000057   0.000544   0.000068   0.000002  -0.000668
     9  H   -0.000008  -0.000008   0.000001   0.000000  -0.000004  -0.000001
    10  H    0.000474   0.000548  -0.000058   0.000068  -0.000669   0.000002
    11  C    0.361411  -0.011948  -0.011479  -0.043069  -0.049458  -0.049477
    12  C   -0.136219   0.375279  -0.049116  -0.034437   0.398165   0.009787
    13  C    5.260820  -0.049338   0.374077  -0.033875   0.009804   0.398209
    14  C   -0.049338   4.966093  -0.036645   0.457630  -0.010926  -0.001120
    15  C    0.374077  -0.036645   4.966828   0.457362  -0.001126  -0.010945
    16  C   -0.033875   0.457630   0.457362   4.901654   0.007184   0.007181
    17  H    0.009804  -0.010926  -0.001126   0.007184   0.475712  -0.000059
    18  H    0.398209  -0.001120  -0.010945   0.007181  -0.000059   0.475702
    19  H    0.000657   0.407257   0.008562  -0.039575  -0.003794   0.000012
    20  H   -0.036825   0.008568   0.407311  -0.039596   0.000012  -0.003796
    21  H    0.013600  -0.042291  -0.042307   0.410110  -0.000076  -0.000076
    22  H    0.000047   0.000000  -0.000008   0.000000  -0.000001  -0.000004
              19         20         21         22
     1  C    0.000000  -0.000008   0.000000   0.407256
     2  C    0.000000   0.000000  -0.000000  -0.039574
     3  C   -0.000008   0.000048  -0.000001  -0.036759
     4  C   -0.000008   0.000001   0.000000   0.008563
     5  C   -0.001181  -0.001181  -0.000149   0.011351
     6  C    0.000047  -0.000008  -0.000001   0.000653
     7  H   -0.000000  -0.000000  -0.000000  -0.004711
     8  H   -0.000001  -0.000004  -0.000001  -0.003795
     9  H   -0.000000   0.000000  -0.000000  -0.000098
    10  H   -0.000004  -0.000001  -0.000001   0.000012
    11  C    0.011351   0.011371  -0.003308  -0.001180
    12  C   -0.036759   0.000658   0.013584  -0.000008
    13  C    0.000657  -0.036825   0.013600   0.000047
    14  C    0.407257   0.008568  -0.042291   0.000000
    15  C    0.008562   0.407311  -0.042307  -0.000008
    16  C   -0.039575  -0.039596   0.410110   0.000000
    17  H   -0.003794   0.000012  -0.000076  -0.000001
    18  H    0.000012  -0.003796  -0.000076  -0.000004
    19  H    0.486398  -0.000098  -0.004710   0.000000
    20  H   -0.000098   0.486410  -0.004712  -0.000000
    21  H   -0.004710  -0.004712   0.480013  -0.000000
    22  H    0.000000  -0.000000  -0.000000   0.486395
          Atomic-Atomic Spin Densities.
               1          2          3          4          5          6
     1  C   -0.094771   0.012722   0.028230   0.003735  -0.016533  -0.019736
     2  C    0.012722   0.288015  -0.002753   0.012788  -0.013869  -0.002902
     3  C    0.028230  -0.002753   0.045373  -0.019807   0.051788   0.036499
     4  C    0.003735   0.012788  -0.019807  -0.095015  -0.016674   0.028534
     5  C   -0.016533  -0.013869   0.051788  -0.016674   0.203815   0.052085
     6  C   -0.019736  -0.002902   0.036499   0.028534   0.052085   0.045012
     7  H    0.000495   0.002258  -0.000703   0.000497   0.000104  -0.000707
     8  H    0.000786   0.000022  -0.000655  -0.000278   0.002745   0.000397
     9  H    0.000465  -0.000202  -0.000553  -0.000718   0.000186   0.001596
    10  H   -0.000278   0.000021   0.000398   0.000793   0.002754  -0.000665
    11  C    0.004397  -0.000301  -0.012127   0.004438  -0.112641  -0.012196
    12  C    0.000658   0.000043  -0.001927  -0.000968  -0.012217   0.003023
    13  C   -0.000965   0.000037   0.003024   0.000676  -0.012104  -0.001995
    14  C   -0.000237   0.000002   0.000660   0.000523   0.004432  -0.000965
    15  C    0.000523   0.000002  -0.000968  -0.000240   0.004403   0.000674
    16  C    0.000002   0.000000   0.000042   0.000002  -0.000301   0.000038
    17  H    0.000040   0.000003  -0.000126  -0.000215  -0.001957  -0.000140
    18  H   -0.000218   0.000002  -0.000133   0.000041  -0.001960  -0.000130
    19  H   -0.000001   0.000000   0.000002   0.000003   0.000021  -0.000005
    20  H    0.000003   0.000000  -0.000005  -0.000001   0.000021   0.000002
    21  H    0.000000  -0.000000   0.000000   0.000000   0.000009   0.000000
    22  H   -0.000698  -0.000208   0.001573   0.000466   0.000191  -0.000552
               7          8          9         10         11         12
     1  C    0.000495   0.000786   0.000465  -0.000278   0.004397   0.000658
     2  C    0.002258   0.000022  -0.000202   0.000021  -0.000301   0.000043
     3  C   -0.000703  -0.000655  -0.000553   0.000398  -0.012127  -0.001927
     4  C    0.000497  -0.000278  -0.000718   0.000793   0.004438  -0.000968
     5  C    0.000104   0.002745   0.000186   0.002754  -0.112641  -0.012217
     6  C   -0.000707   0.000397   0.001596  -0.000665  -0.012196   0.003023
     7  H   -0.015835   0.000006   0.000081   0.000006   0.000009   0.000000
     8  H    0.000006  -0.008150  -0.000004   0.000017  -0.001956  -0.000126
     9  H    0.000081  -0.000004   0.001875   0.000130   0.000021  -0.000005
    10  H    0.000006   0.000017   0.000130  -0.008151  -0.001961  -0.000135
    11  C    0.000009  -0.001956   0.000021  -0.001961   0.203812   0.051748
    12  C    0.000000  -0.000126  -0.000005  -0.000135   0.051748   0.045605
    13  C    0.000000  -0.000138   0.000002  -0.000129   0.052120   0.036503
    14  C    0.000000   0.000040   0.000003  -0.000217  -0.016499   0.028141
    15  C    0.000000  -0.000216  -0.000001   0.000041  -0.016706  -0.019800
    16  C   -0.000000   0.000003   0.000000   0.000002  -0.013870  -0.002733
    17  H    0.000000  -0.000002  -0.000003  -0.000083   0.002740  -0.000642
    18  H    0.000000  -0.000083   0.000000  -0.000002   0.002760   0.000400
    19  H    0.000000   0.000000   0.000000  -0.000003   0.000191   0.001574
    20  H    0.000000  -0.000003  -0.000000   0.000000   0.000185  -0.000553
    21  H    0.000000   0.000000   0.000000   0.000000   0.000104  -0.000702
    22  H    0.000080   0.000129   0.000009  -0.000004   0.000021   0.000002
              13         14         15         16         17         18
     1  C   -0.000965  -0.000237   0.000523   0.000002   0.000040  -0.000218
     2  C    0.000037   0.000002   0.000002   0.000000   0.000003   0.000002
     3  C    0.003024   0.000660  -0.000968   0.000042  -0.000126  -0.000133
     4  C    0.000676   0.000523  -0.000240   0.000002  -0.000215   0.000041
     5  C   -0.012104   0.004432   0.004403  -0.000301  -0.001957  -0.001960
     6  C   -0.001995  -0.000965   0.000674   0.000038  -0.000140  -0.000130
     7  H    0.000000   0.000000   0.000000  -0.000000   0.000000   0.000000
     8  H   -0.000138   0.000040  -0.000216   0.000003  -0.000002  -0.000083
     9  H    0.000002   0.000003  -0.000001   0.000000  -0.000003   0.000000
    10  H   -0.000129  -0.000217   0.000041   0.000002  -0.000083  -0.000002
    11  C    0.052120  -0.016499  -0.016706  -0.013870   0.002740   0.002760
    12  C    0.036503   0.028141  -0.019800  -0.002733  -0.000642   0.000400
    13  C    0.044772  -0.019750   0.028632  -0.002919   0.000395  -0.000679
    14  C   -0.019750  -0.094740   0.003738   0.012697   0.000780  -0.000279
    15  C    0.028632   0.003738  -0.095052   0.012808  -0.000277   0.000801
    16  C   -0.002919   0.012697   0.012808   0.288017   0.000022   0.000021
    17  H    0.000395   0.000780  -0.000277   0.000022  -0.008151   0.000017
    18  H   -0.000679  -0.000279   0.000801   0.000021   0.000017  -0.008150
    19  H   -0.000553  -0.000699   0.000466  -0.000208   0.000129  -0.000004
    20  H    0.001597   0.000465  -0.000718  -0.000202  -0.000004   0.000130
    21  H   -0.000707   0.000494   0.000497   0.002259   0.000006   0.000006
    22  H   -0.000005  -0.000001   0.000003   0.000000   0.000000  -0.000003
              19         20         21         22
     1  C   -0.000001   0.000003   0.000000  -0.000698
     2  C    0.000000   0.000000  -0.000000  -0.000208
     3  C    0.000002  -0.000005   0.000000   0.001573
     4  C    0.000003  -0.000001   0.000000   0.000466
     5  C    0.000021   0.000021   0.000009   0.000191
     6  C   -0.000005   0.000002   0.000000  -0.000552
     7  H    0.000000   0.000000   0.000000   0.000080
     8  H    0.000000  -0.000003   0.000000   0.000129
     9  H    0.000000  -0.000000   0.000000   0.000009
    10  H   -0.000003   0.000000   0.000000  -0.000004
    11  C    0.000191   0.000185   0.000104   0.000021
    12  C    0.001574  -0.000553  -0.000702   0.000002
    13  C   -0.000553   0.001597  -0.000707  -0.000005
    14  C   -0.000699   0.000465   0.000494  -0.000001
    15  C    0.000466  -0.000718   0.000497   0.000003
    16  C   -0.000208  -0.000202   0.002259   0.000000
    17  H    0.000129  -0.000004   0.000006   0.000000
    18  H   -0.000004   0.000130   0.000006  -0.000003
    19  H    0.001880   0.000009   0.000080  -0.000000
    20  H    0.000009   0.001875   0.000081   0.000000
    21  H    0.000080   0.000081  -0.015835   0.000000
    22  H   -0.000000   0.000000   0.000000   0.001881
 Mulliken charges and spin densities:
               1          2
     1  C   -0.086350  -0.081381
     2  C   -0.052231   0.295681
     3  C   -0.095909   0.127831
     4  C   -0.086374  -0.081419
     5  C    0.017420   0.134299
     6  C   -0.095938   0.127868
     7  H    0.180327  -0.013709
     8  H    0.187665  -0.007467
     9  H    0.171852   0.002882
    10  H    0.187683  -0.007466
    11  C    0.017398   0.134290
    12  C   -0.095902   0.127888
    13  C   -0.095926   0.127813
    14  C   -0.086377  -0.081413
    15  C   -0.086362  -0.081389
    16  C   -0.052222   0.295681
    17  H    0.187668  -0.007470
    18  H    0.187685  -0.007463
    19  H    0.171855   0.002885
    20  H    0.171853   0.002882
    21  H    0.180328  -0.013709
    22  H    0.171858   0.002886
 Sum of Mulliken charges =   1.00000   1.00000
 Mulliken charges and spin densities with hydrogens summed into heavy atoms:
               1          2
     1  C    0.085508  -0.078495
     2  C    0.128096   0.281972
     3  C    0.091756   0.120364
     4  C    0.085479  -0.078537
     5  C    0.017420   0.134299
     6  C    0.091745   0.120402
    11  C    0.017398   0.134290
    12  C    0.091767   0.120418
    13  C    0.091758   0.120351
    14  C    0.085479  -0.078528
    15  C    0.085491  -0.078508
    16  C    0.128106   0.281972
 Electronic spatial extent (au):  <R**2>=           2269.1182
 Charge=              1.0000 electrons
 Dipole moment (field-independent basis, Debye):
    X=             -0.0000    Y=              0.0001    Z=              0.0003  Tot=              0.0003
 Quadrupole moment (field-independent basis, Debye-Ang):
   XX=            -18.4987   YY=            -52.3806   ZZ=            -69.4017
   XY=              0.0007   XZ=              0.0005   YZ=             -0.0002
 Traceless Quadrupole moment (field-independent basis, Debye-Ang):
   XX=             28.2616   YY=             -5.6203   ZZ=            -22.6414
   XY=              0.0007   XZ=              0.0005   YZ=             -0.0002
 Octapole moment (field-independent basis, Debye-Ang**2):
  XXX=              0.0001  YYY=              0.0013  ZZZ=              0.0003  XYY=             -0.0005
  XXY=              0.0014  XXZ=              0.0107  XZZ=              0.0002  YZZ=             -0.0010
  YYZ=              0.0003  XYZ=            -16.9787
 Hexadecapole moment (field-independent basis, Debye-Ang**3):
 XXXX=          -1614.5035 YYYY=           -438.7385 ZZZZ=           -141.5015 XXXY=             -0.0035
 XXXZ=              0.0062 YYYX=              0.0092 YYYZ=             -0.0007 ZZZX=              0.0015
 ZZZY=             -0.0007 XXYY=           -396.9595 XXZZ=           -450.1304 YYZZ=           -100.1801
 XXYZ=             -0.0003 YYXZ=              0.0023 ZZXY=             -0.0022
 N-N= 5.984723472889D+02 E-N=-2.256678413451D+03  KE= 4.603217334745D+02
                          Isotropic Fermi Contact Couplings
        Atom                 a.u.       MegaHertz       Gauss      10(-4) cm-1
     1  C(13)             -0.00907     -10.19117      -3.63646      -3.39941
     2  C(13)              0.00655       7.36437       2.62779       2.45649
     3  C(13)              0.00210       2.35969       0.84200       0.78711
     4  C(13)             -0.00907     -10.19254      -3.63695      -3.39987
     5  C(13)             -0.00640      -7.19871      -2.56868      -2.40123
     6  C(13)              0.00211       2.36837       0.84509       0.79000
     7  H(1)              -0.00385     -17.22125      -6.14497      -5.74439
     8  H(1)              -0.00192      -8.57617      -3.06019      -2.86070
     9  H(1)               0.00071       3.16872       1.13068       1.05697
    10  H(1)              -0.00192      -8.57661      -3.06035      -2.86085
    11  C(13)             -0.00640      -7.19926      -2.56887      -2.40141
    12  C(13)              0.00210       2.36265       0.84305       0.78810
    13  C(13)              0.00211       2.36684       0.84455       0.78949
    14  C(13)             -0.00907     -10.19351      -3.63730      -3.40019
    15  C(13)             -0.00907     -10.19218      -3.63682      -3.39974
    16  C(13)              0.00655       7.36448       2.62783       2.45652
    17  H(1)              -0.00192      -8.57893      -3.06118      -2.86162
    18  H(1)              -0.00192      -8.57420      -3.05949      -2.86005
    19  H(1)               0.00071       3.16924       1.13086       1.05714
    20  H(1)               0.00071       3.16921       1.13085       1.05713
    21  H(1)              -0.00385     -17.22119      -6.14495      -5.74437
    22  H(1)               0.00071       3.16921       1.13085       1.05713
 --------------------------------------------------------
       Center         ----  Spin Dipole Couplings  ----
                      3XX-RR        3YY-RR        3ZZ-RR
 --------------------------------------------------------
     1   Atom        0.029343      0.018693     -0.048036
     2   Atom       -0.145397     -0.103444      0.248841
     3   Atom       -0.070797     -0.029091      0.099888
     4   Atom        0.029360      0.018703     -0.048063
     5   Atom       -0.091438     -0.086160      0.177598
     6   Atom       -0.070799     -0.029095      0.099894
     7   Atom        0.020910     -0.016679     -0.004230
     8   Atom       -0.006428      0.010511     -0.004083
     9   Atom        0.000115      0.002467     -0.002582
    10   Atom       -0.006423      0.010507     -0.004084
    11   Atom       -0.091435     -0.086158      0.177593
    12   Atom       -0.070829     -0.029121      0.099950
    13   Atom       -0.070773     -0.029045      0.099818
    14   Atom        0.029354      0.018703     -0.048057
    15   Atom        0.029348      0.018697     -0.048044
    16   Atom       -0.145396     -0.103461      0.248857
    17   Atom       -0.006426      0.010510     -0.004083
    18   Atom       -0.006423      0.010506     -0.004083
    19   Atom        0.000116      0.002466     -0.002582
    20   Atom        0.000113      0.002468     -0.002581
    21   Atom        0.020910     -0.016680     -0.004230
    22   Atom        0.000114      0.002467     -0.002581
 --------------------------------------------------------
                        XY            XZ            YZ
 --------------------------------------------------------
     1   Atom        0.002022     -0.010432      0.023121
     2   Atom       -0.000022      0.000058     -0.143523
     3   Atom        0.014200     -0.025555     -0.081917
     4   Atom       -0.002018      0.010417      0.023133
     5   Atom       -0.000001      0.000017     -0.054066
     6   Atom       -0.014193      0.025549     -0.081915
     7   Atom       -0.000004     -0.000004     -0.005368
     8   Atom       -0.004660     -0.000950      0.003826
     9   Atom        0.001236      0.000608      0.002844
    10   Atom        0.004665      0.000949      0.003823
    11   Atom        0.000003     -0.000000      0.054065
    12   Atom        0.014181      0.025527      0.081930
    13   Atom       -0.014207     -0.025557      0.081920
    14   Atom        0.002020      0.010429     -0.023130
    15   Atom       -0.002020     -0.010418     -0.023120
    16   Atom       -0.000020     -0.000060      0.143500
    17   Atom       -0.004665      0.000949     -0.003825
    18   Atom        0.004660     -0.000950     -0.003826
    19   Atom       -0.001236      0.000608     -0.002845
    20   Atom        0.001235     -0.000607     -0.002846
    21   Atom        0.000000      0.000002      0.005367
    22   Atom       -0.001235     -0.000607      0.002846
 --------------------------------------------------------


 ---------------------------------------------------------------------------------
              Anisotropic Spin Dipole Couplings in Principal Axis System
 ---------------------------------------------------------------------------------

       Atom             a.u.   MegaHertz   Gauss  10(-4) cm-1        Axes

              Baa    -0.0566    -7.590    -2.708    -2.532  0.1220 -0.2945  0.9478
     1 C(13)  Bbb     0.0256     3.441     1.228     1.148  0.2269  0.9380  0.2622
              Bcc     0.0309     4.149     1.480     1.384  0.9662 -0.1831 -0.1813
 
              Baa    -0.1545   -20.734    -7.398    -6.916  0.0001  0.9421  0.3352
     2 C(13)  Bbb    -0.1454   -19.511    -6.962    -6.508  1.0000 -0.0000 -0.0002
              Bcc     0.2999    40.245    14.360    13.424  0.0001 -0.3352  0.9421
 
              Baa    -0.0752   -10.088    -3.600    -3.365  0.9606 -0.2777  0.0103
     3 C(13)  Bbb    -0.0685    -9.186    -3.278    -3.064  0.2430  0.8572  0.4540
              Bcc     0.1436    19.274     6.877     6.429 -0.1349 -0.4336  0.8909
 
              Baa    -0.0566    -7.594    -2.710    -2.533 -0.1218 -0.2945  0.9479
     4 C(13)  Bbb     0.0257     3.443     1.229     1.149 -0.2267  0.9380  0.2623
              Bcc     0.0309     4.150     1.481     1.384  0.9663  0.1829  0.1810
 
              Baa    -0.0968   -12.991    -4.636    -4.333 -0.0005  0.9811  0.1933
     5 C(13)  Bbb    -0.0914   -12.270    -4.378    -4.093  1.0000  0.0005  0.0000
              Bcc     0.1883    25.261     9.014     8.426  0.0001 -0.1933  0.9811
 
              Baa    -0.0752   -10.088    -3.600    -3.365  0.9607  0.2775 -0.0104
     6 C(13)  Bbb    -0.0685    -9.186    -3.278    -3.064 -0.2427  0.8573  0.4540
              Bcc     0.1436    19.274     6.877     6.429  0.1349 -0.4336  0.8909
 
              Baa    -0.0187    -9.964    -3.555    -3.324  0.0001  0.9374  0.3484
     7 H(1)   Bbb    -0.0022    -1.193    -0.426    -0.398  0.0001 -0.3484  0.9374
              Bcc     0.0209    11.157     3.981     3.721  1.0000 -0.0001 -0.0001
 
              Baa    -0.0076    -4.068    -1.452    -1.357  0.9679  0.2512 -0.0117
     8 H(1)   Bbb    -0.0050    -2.674    -0.954    -0.892  0.0686 -0.2193  0.9733
              Bcc     0.0126     6.743     2.406     2.249 -0.2419  0.9428  0.2295
 
              Baa    -0.0039    -2.060    -0.735    -0.687 -0.0128 -0.4078  0.9130
     9 H(1)   Bbb    -0.0003    -0.185    -0.066    -0.062  0.9477 -0.2961 -0.1189
              Bcc     0.0042     2.246     0.801     0.749  0.3188  0.8637  0.3903
 
              Baa    -0.0076    -4.067    -1.451    -1.357  0.9678 -0.2516  0.0122
    10 H(1)   Bbb    -0.0050    -2.674    -0.954    -0.892 -0.0692 -0.2190  0.9733
              Bcc     0.0126     6.742     2.406     2.249  0.2422  0.9427  0.2293
 
              Baa    -0.0968   -12.991    -4.636    -4.333 -0.0005  0.9811 -0.1933
    11 C(13)  Bbb    -0.0914   -12.270    -4.378    -4.093  1.0000  0.0005 -0.0001
              Bcc     0.1882    25.261     9.014     8.426  0.0000  0.1933  0.9811
 
              Baa    -0.0752   -10.091    -3.601    -3.366  0.9606 -0.2776 -0.0101
    12 C(13)  Bbb    -0.0685    -9.189    -3.279    -3.065  0.2430  0.8573 -0.4539
              Bcc     0.1437    19.279     6.879     6.431  0.1347  0.4335  0.8910
 
              Baa    -0.0752   -10.085    -3.599    -3.364  0.9606  0.2777  0.0103
    13 C(13)  Bbb    -0.0684    -9.183    -3.277    -3.063 -0.2429  0.8571 -0.4542
              Bcc     0.1436    19.268     6.875     6.427 -0.1350  0.4338  0.8908
 
              Baa    -0.0566    -7.593    -2.709    -2.533 -0.1220  0.2945  0.9478
    14 C(13)  Bbb     0.0257     3.443     1.229     1.148  0.2271  0.9379 -0.2622
              Bcc     0.0309     4.150     1.481     1.384  0.9662 -0.1833  0.1813
 
              Baa    -0.0566    -7.591    -2.709    -2.532  0.1219  0.2944  0.9479
    15 C(13)  Bbb     0.0256     3.442     1.228     1.148 -0.2265  0.9380 -0.2623
              Bcc     0.0309     4.149     1.480     1.384  0.9664  0.1827 -0.1810
 
              Baa    -0.1545   -20.734    -7.398    -6.916 -0.0001  0.9422 -0.3352
    16 C(13)  Bbb    -0.1454   -19.511    -6.962    -6.508  1.0000  0.0001  0.0001
              Bcc     0.2999    40.245    14.360    13.424 -0.0001  0.3352  0.9422
 
              Baa    -0.0076    -4.069    -1.452    -1.357  0.9678  0.2515  0.0122
    17 H(1)   Bbb    -0.0050    -2.674    -0.954    -0.892 -0.0692  0.2190  0.9733
              Bcc     0.0126     6.743     2.406     2.249 -0.2421  0.9427 -0.2294
 
              Baa    -0.0076    -4.067    -1.451    -1.356  0.9678 -0.2513 -0.0118
    18 H(1)   Bbb    -0.0050    -2.674    -0.954    -0.892  0.0688  0.2193  0.9732
              Bcc     0.0126     6.741     2.405     2.248  0.2420  0.9428 -0.2295
 
              Baa    -0.0039    -2.060    -0.735    -0.687 -0.0129  0.4079  0.9129
    19 H(1)   Bbb    -0.0003    -0.185    -0.066    -0.062  0.9477  0.2961 -0.1189
              Bcc     0.0042     2.245     0.801     0.749 -0.3188  0.8637 -0.3904
 
              Baa    -0.0039    -2.060    -0.735    -0.687  0.0127  0.4080  0.9129
    20 H(1)   Bbb    -0.0003    -0.186    -0.066    -0.062  0.9479 -0.2956  0.1189
              Bcc     0.0042     2.246     0.801     0.749  0.3184  0.8638 -0.3905
 
              Baa    -0.0187    -9.963    -3.555    -3.323  0.0000  0.9374 -0.3483
    21 H(1)   Bbb    -0.0022    -1.193    -0.426    -0.398 -0.0001  0.3483  0.9374
              Bcc     0.0209    11.156     3.981     3.721  1.0000  0.0000  0.0001
 
              Baa    -0.0039    -2.061    -0.735    -0.687  0.0127 -0.4081  0.9129
    22 H(1)   Bbb    -0.0003    -0.185    -0.066    -0.062  0.9479  0.2956  0.1189
              Bcc     0.0042     2.246     0.801     0.749 -0.3183  0.8638  0.3906
 

 ---------------------------------------------------------------------------------

 No NMR shielding tensors so no spin-rotation constants.
 Leave Link  601 at Sun Jan 17 09:57:20 2021, MaxMem=  4026531840 cpu:               1.9 elap:               0.3
 (Enter /opt/ohpc/pub/libs/gaussian/g16-A.03/sandybridge/g16/l9999.exe)

 Test job not archived.
 1\1\GINC-CASCADEB028\SP\ULC-wHPBE\TZVP\C12H10(1+,2)\RDU230\17-Jan-2021
 \0\\#P LC-wHPBE/TZVP iop(3/107=0236000000, 3/108=0236000000) scf=(conv
 er=6,fermi,ndamp=35,noincfock,novaracc,vshift=500,xqc)\\H10 C12\\1,2\C
 ,0,-2.8585,1.132993,0.41369\C,0,-3.561927,-0.000084,-0.000146\C,0,-1.4
 63685,1.132747,0.413534\C,0,-2.858269,-1.133176,-0.413741\C,0,-0.74238
 1,0.000123,0.000091\C,0,-1.463491,-1.132675,-0.413489\H,0,-4.653174,-0
 .00016,-0.000261\H,0,-0.922222,2.014213,0.762301\H,0,-3.398792,-2.0209
 86,-0.747134\H,0,-0.921754,-2.014027,-0.762095\C,0,0.742385,0.000142,0
 .000197\C,0,1.463539,-1.132637,0.413582\C,0,1.463636,1.132765,-0.41347
 7\C,0,2.858357,-1.133114,0.41366\C,0,2.858412,1.133073,-0.413706\C,0,3
 .561931,-0.000095,-0.000087\H,0,0.921935,-2.014039,0.762261\H,0,0.9220
 17,2.014128,-0.762265\H,0,3.398826,-2.021,0.746938\H,0,3.399026,2.0208
 05,-0.747168\H,0,4.653184,-0.000117,-0.000198\H,0,-3.399078,2.020813,0
 .746974\\Version=EM64L-G16RevA.03\State=2-A\HF=-462.7184479\S2=0.77818
 1\S2-1=0.\S2A=0.750563\RMSD=6.109e-07\Dipole=-0.000019,-0.0000296,-0.0
 001101\Quadrupole=21.0118296,-4.1785239,-16.8333057,-0.0005271,-0.0003
 553,-0.0001445\PG=C01 [X(C12H10)]\\@


 WE DON'T KNOW ONE MILLIONTH OF ONE PERCENT ABOUT
 ANYTHING.
                                     T. A. EDISON.
 Job cpu time:       0 days  0 hours 19 minutes 19.2 seconds.
 Elapsed time:       0 days  0 hours  2 minutes 25.6 seconds.
 File lengths (MBytes):  RWF=    100 Int=      0 D2E=      0 Chk=     12 Scr=      8
 Normal termination of Gaussian 16 at Sun Jan 17 09:57:20 2021.
