 Entering Gaussian System, Link 0=g16
 Input=mol_bp_NN_frag_tune_n2.gjf
 Output=mol_bp_NN_frag_tune_n2.log
 Initial command:
 /opt/ohpc/pub/libs/gaussian/g16-A.03/sandybridge/g16/l1.exe "/mnt/gpfs2_4m/scratch/rdu230/ondemand/projects/init_structures/wtuning/mol_bp_NN_frag/tuning_mol_bp_NN_frag_ocycle0/Gau-297701.inp" -scrdir="/mnt/gpfs2_4m/scratch/rdu230/ondemand/projects/init_structures/wtuning/mol_bp_NN_frag/tuning_mol_bp_NN_frag_ocycle0/"
 Entering Link 1 = /opt/ohpc/pub/libs/gaussian/g16-A.03/sandybridge/g16/l1.exe PID=    297702.
  
 Copyright (c) 1988,1990,1992,1993,1995,1998,2003,2009,2016,
            Gaussian, Inc.  All Rights Reserved.
  
 This is part of the Gaussian(R) 16 program.  It is based on
 the Gaussian(R) 09 system (copyright 2009, Gaussian, Inc.),
 the Gaussian(R) 03 system (copyright 2003, Gaussian, Inc.),
 the Gaussian(R) 98 system (copyright 1998, Gaussian, Inc.),
 the Gaussian(R) 94 system (copyright 1995, Gaussian, Inc.),
 the Gaussian 92(TM) system (copyright 1992, Gaussian, Inc.),
 the Gaussian 90(TM) system (copyright 1990, Gaussian, Inc.),
 the Gaussian 88(TM) system (copyright 1988, Gaussian, Inc.),
 the Gaussian 86(TM) system (copyright 1986, Carnegie Mellon
 University), and the Gaussian 82(TM) system (copyright 1983,
 Carnegie Mellon University). Gaussian is a federally registered
 trademark of Gaussian, Inc.
  
 This software contains proprietary and confidential information,
 including trade secrets, belonging to Gaussian, Inc.
  
 This software is provided under written license and may be
 used, copied, transmitted, or stored only in accord with that
 written license.
  
 The following legend is applicable only to US Government
 contracts under FAR:
  
                    RESTRICTED RIGHTS LEGEND
  
 Use, reproduction and disclosure by the US Government is
 subject to restrictions as set forth in subparagraphs (a)
 and (c) of the Commercial Computer Software - Restricted
 Rights clause in FAR 52.227-19.
  
 Gaussian, Inc.
 340 Quinnipiac St., Bldg. 40, Wallingford CT 06492
  
  
 ---------------------------------------------------------------
 Warning -- This program may not be used in any manner that
 competes with the business of Gaussian, Inc. or will provide
 assistance to any competitor of Gaussian, Inc.  The licensee
 of this program is prohibited from giving any competitor of
 Gaussian, Inc. access to this program.  By using this program,
 the user acknowledges that Gaussian, Inc. is engaged in the
 business of creating and licensing software in the field of
 computational chemistry and represents and warrants to the
 licensee that it is not a competitor of Gaussian, Inc. and that
 it will not use this program in any manner prohibited above.
 ---------------------------------------------------------------
  

 Cite this work as:
 Gaussian 16, Revision A.03,
 M. J. Frisch, G. W. Trucks, H. B. Schlegel, G. E. Scuseria, 
 M. A. Robb, J. R. Cheeseman, G. Scalmani, V. Barone, 
 G. A. Petersson, H. Nakatsuji, X. Li, M. Caricato, A. V. Marenich, 
 J. Bloino, B. G. Janesko, R. Gomperts, B. Mennucci, H. P. Hratchian, 
 J. V. Ortiz, A. F. Izmaylov, J. L. Sonnenberg, D. Williams-Young, 
 F. Ding, F. Lipparini, F. Egidi, J. Goings, B. Peng, A. Petrone, 
 T. Henderson, D. Ranasinghe, V. G. Zakrzewski, J. Gao, N. Rega, 
 G. Zheng, W. Liang, M. Hada, M. Ehara, K. Toyota, R. Fukuda, 
 J. Hasegawa, M. Ishida, T. Nakajima, Y. Honda, O. Kitao, H. Nakai, 
 T. Vreven, K. Throssell, J. A. Montgomery, Jr., J. E. Peralta, 
 F. Ogliaro, M. J. Bearpark, J. J. Heyd, E. N. Brothers, K. N. Kudin, 
 V. N. Staroverov, T. A. Keith, R. Kobayashi, J. Normand, 
 K. Raghavachari, A. P. Rendell, J. C. Burant, S. S. Iyengar, 
 J. Tomasi, M. Cossi, J. M. Millam, M. Klene, C. Adamo, R. Cammi, 
 J. W. Ochterski, R. L. Martin, K. Morokuma, O. Farkas, 
 J. B. Foresman, and D. J. Fox, Gaussian, Inc., Wallingford CT, 2016.
 
 ******************************************
 Gaussian 16:  EM64L-G16RevA.03 25-Dec-2016
                17-Jan-2021 
 ******************************************
 %mem=30GB
 %nproc=8
 Will use up to    8 processors via shared memory.
 ----------------------------------------------------------------------
 #P LC-wHPBE/TZVP iop(3/107=0156200000, 3/108=0156200000) scf=(conver=6
 ,fermi,ndamp=35,noincfock,novaracc,vshift=500,xqc)
 ----------------------------------------------------------------------
 1/38=1,172=1/1;
 2/12=2,17=6,18=5,40=1/2;
 3/5=19,7=101,11=2,25=1,30=1,74=-71,107=156200000,108=156200000/1,2,3;
 4//1;
 5/5=100002,6=6,8=3,10=500,13=1,18=-1,22=13,38=1,93=35/2,8;
 6/7=2,8=2,9=2,10=2,28=1/1;
 99/5=1,9=1/99;
 Leave Link    1 at Sun Jan 17 09:42:50 2021, MaxMem=  4026531840 cpu:               1.3 elap:               0.2
 (Enter /opt/ohpc/pub/libs/gaussian/g16-A.03/sandybridge/g16/l101.exe)
 -------
 H10 C12
 -------
 Symbolic Z-matrix:
 Charge =  0 Multiplicity = 1
 C                    -2.8585    1.13299   0.41369 
 C                    -3.56193  -0.00008  -0.00015 
 C                    -1.46369   1.13275   0.41353 
 C                    -2.85827  -1.13318  -0.41374 
 C                    -0.74238   0.00012   0.00009 
 C                    -1.46349  -1.13268  -0.41349 
 H                    -4.65317  -0.00016  -0.00026 
 H                    -0.92222   2.01421   0.7623 
 H                    -3.39879  -2.02099  -0.74713 
 H                    -0.92175  -2.01403  -0.7621 
 C                     0.74239   0.00014   0.0002 
 C                     1.46354  -1.13264   0.41358 
 C                     1.46364   1.13277  -0.41348 
 C                     2.85836  -1.13311   0.41366 
 C                     2.85841   1.13307  -0.41371 
 C                     3.56193  -0.0001   -0.00009 
 H                     0.92194  -2.01404   0.76226 
 H                     0.92202   2.01413  -0.76227 
 H                     3.39883  -2.021     0.74694 
 H                     3.39903   2.02081  -0.74717 
 H                     4.65318  -0.00012  -0.0002 
 H                    -3.39908   2.02081   0.74697 
 
 ITRead=  0  0  0  0  0  0  0  0  0  0  0  0  0  0  0  0  0  0  0  0
 ITRead=  0  0
 MicOpt= -1 -1 -1 -1 -1 -1 -1 -1 -1 -1 -1 -1 -1 -1 -1 -1 -1 -1 -1 -1
 MicOpt= -1 -1
 NAtoms=     22 NQM=       22 NQMF=       0 NMMI=      0 NMMIF=      0
                NMic=       0 NMicF=      0.
                    Isotopes and Nuclear Properties:
 (Nuclear quadrupole moments (NQMom) in fm**2, nuclear magnetic moments (NMagM)
  in nuclear magnetons)

  Atom         1           2           3           4           5           6           7           8           9          10
 IAtWgt=          12          12          12          12          12          12           1           1           1           1
 AtmWgt=  12.0000000  12.0000000  12.0000000  12.0000000  12.0000000  12.0000000   1.0078250   1.0078250   1.0078250   1.0078250
 NucSpn=           0           0           0           0           0           0           1           1           1           1
 AtZEff=  -0.0000000  -0.0000000  -0.0000000  -0.0000000  -0.0000000  -0.0000000  -0.0000000  -0.0000000  -0.0000000  -0.0000000
 NQMom=    0.0000000   0.0000000   0.0000000   0.0000000   0.0000000   0.0000000   0.0000000   0.0000000   0.0000000   0.0000000
 NMagM=    0.0000000   0.0000000   0.0000000   0.0000000   0.0000000   0.0000000   2.7928460   2.7928460   2.7928460   2.7928460
 AtZNuc=   6.0000000   6.0000000   6.0000000   6.0000000   6.0000000   6.0000000   1.0000000   1.0000000   1.0000000   1.0000000

  Atom        11          12          13          14          15          16          17          18          19          20
 IAtWgt=          12          12          12          12          12          12           1           1           1           1
 AtmWgt=  12.0000000  12.0000000  12.0000000  12.0000000  12.0000000  12.0000000   1.0078250   1.0078250   1.0078250   1.0078250
 NucSpn=           0           0           0           0           0           0           1           1           1           1
 AtZEff=  -0.0000000  -0.0000000  -0.0000000  -0.0000000  -0.0000000  -0.0000000  -0.0000000  -0.0000000  -0.0000000  -0.0000000
 NQMom=    0.0000000   0.0000000   0.0000000   0.0000000   0.0000000   0.0000000   0.0000000   0.0000000   0.0000000   0.0000000
 NMagM=    0.0000000   0.0000000   0.0000000   0.0000000   0.0000000   0.0000000   2.7928460   2.7928460   2.7928460   2.7928460
 AtZNuc=   6.0000000   6.0000000   6.0000000   6.0000000   6.0000000   6.0000000   1.0000000   1.0000000   1.0000000   1.0000000

  Atom        21          22
 IAtWgt=           1           1
 AtmWgt=   1.0078250   1.0078250
 NucSpn=           1           1
 AtZEff=  -0.0000000  -0.0000000
 NQMom=    0.0000000   0.0000000
 NMagM=    2.7928460   2.7928460
 AtZNuc=   1.0000000   1.0000000
 Leave Link  101 at Sun Jan 17 09:42:50 2021, MaxMem=  4026531840 cpu:               0.7 elap:               0.1
 (Enter /opt/ohpc/pub/libs/gaussian/g16-A.03/sandybridge/g16/l202.exe)
                          Input orientation:                          
 ---------------------------------------------------------------------
 Center     Atomic      Atomic             Coordinates (Angstroms)
 Number     Number       Type             X           Y           Z
 ---------------------------------------------------------------------
      1          6           0       -2.858500    1.132993    0.413690
      2          6           0       -3.561927   -0.000084   -0.000146
      3          6           0       -1.463685    1.132747    0.413534
      4          6           0       -2.858269   -1.133176   -0.413741
      5          6           0       -0.742381    0.000123    0.000091
      6          6           0       -1.463491   -1.132675   -0.413489
      7          1           0       -4.653174   -0.000160   -0.000261
      8          1           0       -0.922222    2.014213    0.762301
      9          1           0       -3.398792   -2.020986   -0.747134
     10          1           0       -0.921754   -2.014027   -0.762095
     11          6           0        0.742385    0.000142    0.000197
     12          6           0        1.463539   -1.132637    0.413582
     13          6           0        1.463636    1.132765   -0.413477
     14          6           0        2.858357   -1.133114    0.413660
     15          6           0        2.858412    1.133073   -0.413706
     16          6           0        3.561931   -0.000095   -0.000087
     17          1           0        0.921935   -2.014039    0.762261
     18          1           0        0.922017    2.014128   -0.762265
     19          1           0        3.398826   -2.021000    0.746938
     20          1           0        3.399026    2.020805   -0.747168
     21          1           0        4.653184   -0.000117   -0.000198
     22          1           0       -3.399078    2.020813    0.746974
 ---------------------------------------------------------------------
                    Distance matrix (angstroms):
                    1          2          3          4          5
     1  C    0.000000
     2  C    1.396400   0.000000
     3  C    1.394815   2.420136   0.000000
     4  C    2.412502   1.396457   2.786334   0.000000
     5  C    2.435656   2.819546   1.405010   2.435694   0.000000
     6  C    2.786311   2.420134   2.411660   1.394778   1.405091
     7  H    2.162463   1.091247   3.409919   2.162493   3.910793
     8  H    2.155748   3.406870   1.091697   3.877810   2.160987
     9  H    3.403970   2.160706   3.877863   1.091569   3.420489
    10  H    3.877782   3.406912   3.402643   2.155769   2.160996
    11  C    3.797460   4.304312   2.514038   3.797429   1.484766
    12  C    4.879867   5.168090   3.701433   4.400283   2.514001
    13  C    4.400576   5.168218   3.041900   4.879893   2.514046
    14  C    6.149609   6.532613   4.879977   5.776193   3.797444
    15  C    5.776475   6.532674   4.400551   6.149498   3.797435
    16  C    6.532766   7.123858   5.168291   6.532530   4.304312
    17  H    4.931227   4.974163   3.964222   4.055717   2.721709
    18  H    4.056054   4.974297   2.801947   4.931283   2.721695
    19  H    7.015187   7.286585   5.805281   6.425468   4.668224
    20  H    6.425919   7.286762   5.077582   7.015163   4.668276
    21  H    7.607933   8.215111   6.234632   7.607678   5.395565
    22  H    1.091571   2.160725   2.155363   3.404024   3.420389
                    6          7          8          9         10
     6  C    0.000000
     7  H    3.409901   0.000000
     8  H    3.402699   4.308039   0.000000
     9  H    2.155413   2.492996   4.969369   0.000000
    10  H    1.091690   4.308079   4.307029   2.477093   0.000000
    11  C    2.514021   5.395559   2.721801   4.668277   2.721640
    12  C    3.041636   6.234416   3.964357   5.077272   2.801551
    13  C    3.701390   6.234551   2.802093   5.805229   3.964079
    14  C    4.400289   7.607760   4.931531   6.425548   4.055570
    15  C    4.879801   7.607830   4.056180   7.015117   4.931051
    16  C    5.168027   8.215105   4.974565   7.286545   4.973933
    17  H    2.801687   5.976537   4.430319   4.576790   2.392248
    18  H    3.964172   5.976685   2.392806   5.912002   4.430070
    19  H    5.077188   8.335275   5.912245   6.959875   4.576532
    20  H    5.805157   8.335472   4.577305   7.908628   5.911788
    21  H    6.234357   9.306358   5.976963   8.335235   5.976308
    22  H    3.877842   2.493080   2.476912   4.309118   4.969342
                   11         12         13         14         15
    11  C    0.000000
    12  C    1.405040   0.000000
    13  C    1.405049   2.411654   0.000000
    14  C    2.435684   1.394818   2.786326   0.000000
    15  C    2.435656   2.786309   1.394776   2.412496   0.000000
    16  C    2.819546   2.420129   2.420146   1.396401   1.396456
    17  H    2.160996   1.091687   3.402672   2.155755   3.877777
    18  H    2.160962   3.402645   1.091698   3.877801   2.155778
    19  H    3.420426   2.155377   3.877855   1.091569   3.404015
    20  H    3.420435   3.877840   2.155388   3.403976   1.091572
    21  H    3.910799   3.409934   3.409903   2.162490   2.162479
    22  H    4.668244   5.805208   5.077525   7.015258   6.425842
                   16         17         18         19         20
    16  C    0.000000
    17  H    3.406864   0.000000
    18  H    3.406928   4.307007   0.000000
    19  H    2.160719   2.476948   4.969360   0.000000
    20  H    2.160719   4.969338   2.477064   4.309123   0.000000
    21  H    1.091253   4.308067   4.308078   2.493109   2.492991
    22  H    7.286825   5.911972   4.577085   7.908714   6.960365
                   21         22
    21  H    0.000000
    22  H    8.335547   0.000000
 Stoichiometry    C12H10
 Framework group  C1[X(C12H10)]
 Deg. of freedom    60
 Full point group                 C1      NOp   1
 Largest Abelian subgroup         C1      NOp   1
 Largest concise Abelian subgroup C1      NOp   1
                         Standard orientation:                         
 ---------------------------------------------------------------------
 Center     Atomic      Atomic             Coordinates (Angstroms)
 Number     Number       Type             X           Y           Z
 ---------------------------------------------------------------------
      1          6           0       -2.858500   -1.132993   -0.413690
      2          6           0       -3.561927    0.000084    0.000146
      3          6           0       -1.463685   -1.132747   -0.413534
      4          6           0       -2.858269    1.133176    0.413741
      5          6           0       -0.742381   -0.000123   -0.000091
      6          6           0       -1.463491    1.132675    0.413489
      7          1           0       -4.653174    0.000160    0.000261
      8          1           0       -0.922222   -2.014213   -0.762301
      9          1           0       -3.398792    2.020986    0.747134
     10          1           0       -0.921754    2.014027    0.762095
     11          6           0        0.742385   -0.000142   -0.000197
     12          6           0        1.463539    1.132637   -0.413582
     13          6           0        1.463636   -1.132765    0.413477
     14          6           0        2.858357    1.133114   -0.413660
     15          6           0        2.858412   -1.133073    0.413706
     16          6           0        3.561931    0.000095    0.000087
     17          1           0        0.921935    2.014039   -0.762261
     18          1           0        0.922017   -2.014128    0.762265
     19          1           0        3.398826    2.021000   -0.746938
     20          1           0        3.399026   -2.020805    0.747168
     21          1           0        4.653184    0.000117    0.000198
     22          1           0       -3.399078   -2.020813   -0.746974
 ---------------------------------------------------------------------
 Rotational constants (GHZ):           2.8545349           0.5449545           0.4756990
 Leave Link  202 at Sun Jan 17 09:42:51 2021, MaxMem=  4026531840 cpu:               0.5 elap:               0.1
 (Enter /opt/ohpc/pub/libs/gaussian/g16-A.03/sandybridge/g16/l301.exe)
 Standard basis: TZVP (5D, 7F)
 Ernie: Thresh=  0.10000D-02 Tol=  0.10000D-05 Strict=F.
 There are   300 symmetry adapted cartesian basis functions of A   symmetry.
 There are   288 symmetry adapted basis functions of A   symmetry.
   288 basis functions,   500 primitive gaussians,   300 cartesian basis functions
    41 alpha electrons       41 beta electrons
       nuclear repulsion energy       598.4723472889 Hartrees.
 IExCor=33909 DFT=T Ex+Corr=LC-wHPBE ExCW=0 ScaHFX=  1.000000
 ScaDFX=  1.000000  1.000000  1.000000  1.000000 ScalE2=  1.000000  1.000000
 IRadAn=      5 IRanWt=     -1 IRanGd=            0 ICorTp=0 IEmpDi=  4
 HFx  wShort=  0.000000 wLong=  0.156200 cFull=  0.000000 cShort=  0.000000 cLong=  1.000000
 DFx  wShort=  0.000000 wLong=  0.156200 cFull=  0.000000 cShort=  1.000000 cLong=  0.000000
 NAtoms=   22 NActive=   22 NUniq=   22 SFac= 1.00D+00 NAtFMM=   60 NAOKFM=F Big=F
 Integral buffers will be    131072 words long.
 Raffenetti 2 integral format.
 Two-electron integral symmetry is turned on.
 Leave Link  301 at Sun Jan 17 09:42:51 2021, MaxMem=  4026531840 cpu:               0.4 elap:               0.1
 (Enter /opt/ohpc/pub/libs/gaussian/g16-A.03/sandybridge/g16/l302.exe)
 NPDir=0 NMtPBC=     1 NCelOv=     1 NCel=       1 NClECP=     1 NCelD=      1
         NCelK=      1 NCelE2=     1 NClLst=     1 CellRange=     0.0.
 One-electron integrals computed using PRISM.
 One-electron integral symmetry used in STVInt
 NBasis=   288 RedAO= T EigKep=  9.18D-06  NBF=   288
 NBsUse=   288 1.00D-06 EigRej= -1.00D+00 NBFU=   288
 Precomputing XC quadrature grid using
 IXCGrd= 4 IRadAn=           5 IRanWt=          -1 IRanGd=           0 AccXCQ= 0.00D+00.
 Generated NRdTot=       0 NPtTot=           0 NUsed=           0 NTot=          32
 NSgBfM=   295   295   295   295   295 MxSgAt=    22 MxSgA2=    22.
 Leave Link  302 at Sun Jan 17 09:42:51 2021, MaxMem=  4026531840 cpu:               2.2 elap:               0.3
 (Enter /opt/ohpc/pub/libs/gaussian/g16-A.03/sandybridge/g16/l303.exe)
 DipDrv:  MaxL=1.
 Leave Link  303 at Sun Jan 17 09:42:51 2021, MaxMem=  4026531840 cpu:               0.6 elap:               0.1
 (Enter /opt/ohpc/pub/libs/gaussian/g16-A.03/sandybridge/g16/l401.exe)
 ExpMin= 9.52D-02 ExpMax= 1.36D+04 ExpMxC= 4.63D+02 IAcc=3 IRadAn=         5 AccDes= 0.00D+00
 Harris functional with IExCor=33909 and IRadAn=       5 diagonalized for initial guess.
 HarFok:  IExCor=33909 AccDes= 0.00D+00 IRadAn=         5 IDoV= 1 UseB2=F ITyADJ=14
 ICtDFT=  3500011 ScaDFX=  1.000000  1.000000  1.000000  1.000000
 FoFCou: FMM=F IPFlag=           0 FMFlag=      100000 FMFlg1=           0
         NFxFlg=           0 DoJE=T BraDBF=F KetDBF=T FulRan=T
         wScrn=  0.000000 ICntrl=       500 IOpCl=  0 I1Cent=   200000004 NGrid=           0
         NMat0=    1 NMatS0=      1 NMatT0=    0 NMatD0=    1 NMtDS0=    0 NMtDT0=    0
 Petite list used in FoFCou.
 Harris En= -456.141192756702    
 JPrj=0 DoOrth=F DoCkMO=F.
 Leave Link  401 at Sun Jan 17 09:42:53 2021, MaxMem=  4026531840 cpu:              13.7 elap:               1.8
 (Enter /opt/ohpc/pub/libs/gaussian/g16-A.03/sandybridge/g16/l502.exe)
 Integral symmetry usage will be decided dynamically.
 Closed shell SCF:
 Using DIIS extrapolation, IDIIS=    10.
 NGot=  4026531840 LenX=  4026346394 LenY=  4026255953
 Requested convergence on RMS density matrix=1.00D-06 within  32 cycles.
 Requested convergence on MAX density matrix=1.00D-04.
 Requested convergence on             energy=1.00D-04.
 Virtual orbitals will be shifted by   0.500 hartree.
 No special actions if energy rises.
 Dynamic level shift is on during FON iterations.

 Cycle   1  Pass 1  IDiag  1:
 FoFJK:  IHMeth= 1 ICntrl=       0 DoSepK=T KAlg= 0 I1Cent=           0 FoldK=F
 IRaf=         1 NMat=       1 IRICut=       1 DoRegI=T DoRafI=F ISym2E= 0 IDoP0=0 IntGTp=1.
 FoFCou: FMM=F IPFlag=           0 FMFlag=      100000 FMFlg1=           0
         NFxFlg=           0 DoJE=T BraDBF=F KetDBF=F FulRan=T
         wScrn=  0.000000 ICntrl=       500 IOpCl=  0 I1Cent=           0 NGrid=           0
         NMat0=    1 NMatS0=      1 NMatT0=    0 NMatD0=    1 NMtDS0=    0 NMtDT0=    0
 Symmetry not used in FoFCou.
 E= -462.760300488399    
 DIIS: error= 3.25D-02 at cycle   1 NSaved=   1.
 NSaved= 1 IEnMin= 1 EnMin= -462.760300488399     IErMin= 1 ErrMin= 3.25D-02
 ErrMax= 3.25D-02  0.00D+00 EMaxC= 1.00D+00 BMatC= 1.93D-01 BMatP= 1.93D-01
 IDIUse=1 WtCom= 1.00D+00 WtEn= 0.00D+00
 Coeff-Com:  0.100D+01
 Coeff:      0.100D+01
 Gap=     0.285 Goal=   None    Shift=    0.500
 T= 1544. Gap= 0.773 NK=0 IS=   42 IE=  288 IFin=   41
          NO(<0.9)=   0  NV(>0.1)=   0     41.00e < EF      0.00e >EF  Err=0.0D+00
 GapD=    0.285 DampG=1.000 DampE=0.500 DampFc=0.5000 IDamp=-1.
 Damping current iteration by 5.00D-01
 RMSDP=2.84D-03 MaxDP=8.09D-02              OVMax= 7.05D-02

 Cycle   2  Pass 1  IDiag  1:
 E= -462.889589899561     Delta-E=       -0.129289411162 Rises=F Damp=T
 DIIS: error= 1.54D-02 at cycle   2 NSaved=   2.
 NSaved= 2 IEnMin= 2 EnMin= -462.889589899561     IErMin= 2 ErrMin= 1.54D-02
 ErrMax= 1.54D-02  0.00D+00 EMaxC= 1.00D+00 BMatC= 3.52D-02 BMatP= 1.93D-01
 IDIUse=1 WtCom= 1.00D+00 WtEn= 0.00D+00
 Coeff-Com: -0.635D+00 0.163D+01
 Coeff:     -0.635D+00 0.163D+01
 Gap=     0.293 Goal=   None    Shift=    0.500
 T= 1428. Gap= 0.787 NK=0 IS=   42 IE=  288 IFin=   41
          NO(<0.9)=   0  NV(>0.1)=   0     41.00e < EF      0.00e >EF  Err=0.0D+00
 GapD=    0.293 DampG=1.000 DampE=0.500 DampFc=0.5000 IDamp=-1.
 Damping current iteration by 5.00D-01
 RMSDP=1.57D-03 MaxDP=4.89D-02 DE=-1.29D-01 OVMax= 1.04D-02

 Cycle   3  Pass 1  IDiag  1:
 E= -462.935027158878     Delta-E=       -0.045437259316 Rises=F Damp=T
 DIIS: error= 7.33D-03 at cycle   3 NSaved=   3.
 NSaved= 3 IEnMin= 3 EnMin= -462.935027158878     IErMin= 3 ErrMin= 7.33D-03
 ErrMax= 7.33D-03  0.00D+00 EMaxC= 1.00D+00 BMatC= 7.06D-03 BMatP= 3.52D-02
 IDIUse=1 WtCom= 1.00D+00 WtEn= 0.00D+00
 Coeff-Com:  0.141D+00-0.123D+01 0.209D+01
 Coeff:      0.141D+00-0.123D+01 0.209D+01
 Gap=     0.288 Goal=   None    Shift=    0.500
 T= 1202. Gap= 0.788 NK=0 IS=   42 IE=  288 IFin=   41
          NO(<0.9)=   0  NV(>0.1)=   0     41.00e < EF      0.00e >EF  Err=0.0D+00
 GapD=    0.288 DampG=1.000 DampE=1.000 DampFc=1.0000 IDamp=-1.
 RMSDP=7.45D-04 MaxDP=2.05D-02 DE=-4.54D-02 OVMax= 4.44D-03

 Cycle   4  Pass 1  IDiag  1:
 E= -462.972069013124     Delta-E=       -0.037041854246 Rises=F Damp=F
 DIIS: error= 8.28D-04 at cycle   4 NSaved=   4.
 NSaved= 4 IEnMin= 4 EnMin= -462.972069013124     IErMin= 4 ErrMin= 8.28D-04
 ErrMax= 8.28D-04  0.00D+00 EMaxC= 1.00D+00 BMatC= 1.85D-04 BMatP= 7.06D-03
 IDIUse=1 WtCom= 1.00D+00 WtEn= 0.00D+00
 Coeff-Com:  0.829D-01-0.232D+00 0.188D+00 0.962D+00
 Coeff:      0.829D-01-0.232D+00 0.188D+00 0.962D+00
 Gap=     0.288 Goal=   None    Shift=    0.500
 RMSDP=2.71D-04 MaxDP=7.44D-03 DE=-3.70D-02 OVMax= 2.07D-03

 Cycle   5  Pass 1  IDiag  1:
 E= -462.972278451010     Delta-E=       -0.000209437886 Rises=F Damp=F
 DIIS: error= 2.82D-04 at cycle   5 NSaved=   5.
 NSaved= 5 IEnMin= 5 EnMin= -462.972278451010     IErMin= 5 ErrMin= 2.82D-04
 ErrMax= 2.82D-04  0.00D+00 EMaxC= 1.00D+00 BMatC= 1.99D-05 BMatP= 1.85D-04
 IDIUse=1 WtCom= 1.00D+00 WtEn= 0.00D+00
 Coeff-Com: -0.425D-02 0.129D+00-0.249D+00-0.843D-01 0.121D+01
 Coeff:     -0.425D-02 0.129D+00-0.249D+00-0.843D-01 0.121D+01
 Gap=     0.288 Goal=   None    Shift=    0.500
 RMSDP=1.87D-04 MaxDP=6.02D-03 DE=-2.09D-04 OVMax= 1.02D-03

 Cycle   6  Pass 1  IDiag  1:
 E= -462.972314214159     Delta-E=       -0.000035763148 Rises=F Damp=F
 DIIS: error= 1.20D-04 at cycle   6 NSaved=   6.
 NSaved= 6 IEnMin= 6 EnMin= -462.972314214159     IErMin= 6 ErrMin= 1.20D-04
 ErrMax= 1.20D-04  0.00D+00 EMaxC= 1.00D+00 BMatC= 2.84D-06 BMatP= 1.99D-05
 IDIUse=1 WtCom= 1.00D+00 WtEn= 0.00D+00
 Coeff-Com: -0.944D-02 0.239D-01-0.184D-01-0.970D-01-0.439D+00 0.154D+01
 Coeff:     -0.944D-02 0.239D-01-0.184D-01-0.970D-01-0.439D+00 0.154D+01
 Gap=     0.288 Goal=   None    Shift=    0.500
 RMSDP=1.10D-04 MaxDP=3.57D-03 DE=-3.58D-05 OVMax= 7.10D-04

 Cycle   7  Pass 1  IDiag  1:
 E= -462.972322296479     Delta-E=       -0.000008082320 Rises=F Damp=F
 DIIS: error= 9.35D-05 at cycle   7 NSaved=   7.
 NSaved= 7 IEnMin= 7 EnMin= -462.972322296479     IErMin= 7 ErrMin= 9.35D-05
 ErrMax= 9.35D-05  0.00D+00 EMaxC= 1.00D+00 BMatC= 6.74D-07 BMatP= 2.84D-06
 IDIUse=1 WtCom= 1.00D+00 WtEn= 0.00D+00
 Coeff-Com:  0.325D-03-0.165D-01 0.296D-01-0.362D-02-0.158D+00-0.467D+00
 Coeff-Com:  0.162D+01
 Coeff:      0.325D-03-0.165D-01 0.296D-01-0.362D-02-0.158D+00-0.467D+00
 Coeff:      0.162D+01
 Gap=     0.288 Goal=   None    Shift=    0.500
 RMSDP=5.30D-05 MaxDP=1.78D-03 DE=-8.08D-06 OVMax= 4.57D-04

 Cycle   8  Pass 1  IDiag  1:
 E= -462.972324654866     Delta-E=       -0.000002358387 Rises=F Damp=F
 DIIS: error= 6.45D-05 at cycle   8 NSaved=   8.
 NSaved= 8 IEnMin= 8 EnMin= -462.972324654866     IErMin= 8 ErrMin= 6.45D-05
 ErrMax= 6.45D-05  0.00D+00 EMaxC= 1.00D+00 BMatC= 2.01D-07 BMatP= 6.74D-07
 IDIUse=1 WtCom= 1.00D+00 WtEn= 0.00D+00
 Coeff-Com:  0.188D-02-0.818D-02 0.905D-02 0.216D-01 0.477D-01-0.476D+00
 Coeff-Com: -0.129D+00 0.153D+01
 Coeff:      0.188D-02-0.818D-02 0.905D-02 0.216D-01 0.477D-01-0.476D+00
 Coeff:     -0.129D+00 0.153D+01
 Gap=     0.288 Goal=   None    Shift=    0.500
 RMSDP=2.28D-05 MaxDP=8.12D-04 DE=-2.36D-06 OVMax= 3.40D-04

 Cycle   9  Pass 1  IDiag  1:
 E= -462.972325452276     Delta-E=       -0.000000797410 Rises=F Damp=F
 DIIS: error= 4.29D-05 at cycle   9 NSaved=   9.
 NSaved= 9 IEnMin= 9 EnMin= -462.972325452276     IErMin= 9 ErrMin= 4.29D-05
 ErrMax= 4.29D-05  0.00D+00 EMaxC= 1.00D+00 BMatC= 6.88D-08 BMatP= 2.01D-07
 IDIUse=1 WtCom= 1.00D+00 WtEn= 0.00D+00
 Coeff-Com:  0.419D-03 0.328D-02-0.781D-02 0.120D-01 0.615D-01-0.238D-02
 Coeff-Com: -0.704D+00 0.929D-01 0.154D+01
 Coeff:      0.419D-03 0.328D-02-0.781D-02 0.120D-01 0.615D-01-0.238D-02
 Coeff:     -0.704D+00 0.929D-01 0.154D+01
 Gap=     0.288 Goal=   None    Shift=    0.500
 RMSDP=8.92D-06 MaxDP=3.49D-04 DE=-7.97D-07 OVMax= 2.30D-04

 Cycle  10  Pass 1  IDiag  1:
 E= -462.972325754880     Delta-E=       -0.000000302603 Rises=F Damp=F
 DIIS: error= 2.98D-05 at cycle  10 NSaved=  10.
 NSaved=10 IEnMin=10 EnMin= -462.972325754880     IErMin=10 ErrMin= 2.98D-05
 ErrMax= 2.98D-05  0.00D+00 EMaxC= 1.00D+00 BMatC= 2.43D-08 BMatP= 6.88D-08
 IDIUse=1 WtCom= 1.00D+00 WtEn= 0.00D+00
 Coeff-Com: -0.536D-03 0.182D-02-0.153D-02-0.669D-02-0.210D-01 0.185D+00
 Coeff-Com:  0.167D-01-0.675D+00-0.994D+00 0.250D+01
 Coeff:     -0.536D-03 0.182D-02-0.153D-02-0.669D-02-0.210D-01 0.185D+00
 Coeff:      0.167D-01-0.675D+00-0.994D+00 0.250D+01
 Gap=     0.288 Goal=   None    Shift=    0.500
 RMSDP=3.32D-06 MaxDP=1.31D-04 DE=-3.03D-07 OVMax= 1.68D-04

 Cycle  11  Pass 1  IDiag  1:
 E= -462.972325878180     Delta-E=       -0.000000123300 Rises=F Damp=F
 DIIS: error= 1.86D-05 at cycle  11 NSaved=  11.
 NSaved=11 IEnMin=11 EnMin= -462.972325878180     IErMin=11 ErrMin= 1.86D-05
 ErrMax= 1.86D-05  0.00D+00 EMaxC= 1.00D+00 BMatC= 8.51D-09 BMatP= 2.43D-08
 IDIUse=1 WtCom= 1.00D+00 WtEn= 0.00D+00
 Coeff-Com: -0.618D-04-0.809D-03 0.185D-02-0.267D-02-0.757D-02 0.772D-02
 Coeff-Com:  0.118D+00-0.102D+00-0.233D+00-0.120D+01 0.242D+01
 Coeff:     -0.618D-04-0.809D-03 0.185D-02-0.267D-02-0.757D-02 0.772D-02
 Coeff:      0.118D+00-0.102D+00-0.233D+00-0.120D+01 0.242D+01
 Gap=     0.288 Goal=   None    Shift=    0.500
 RMSDP=1.59D-06 MaxDP=5.86D-05 DE=-1.23D-07 OVMax= 1.04D-04

 Cycle  12  Pass 1  IDiag  1:
 E= -462.972325923136     Delta-E=       -0.000000044956 Rises=F Damp=F
 DIIS: error= 1.20D-05 at cycle  12 NSaved=  12.
 NSaved=12 IEnMin=12 EnMin= -462.972325923136     IErMin=12 ErrMin= 1.20D-05
 ErrMax= 1.20D-05  0.00D+00 EMaxC= 1.00D+00 BMatC= 3.10D-09 BMatP= 8.51D-09
 IDIUse=1 WtCom= 1.00D+00 WtEn= 0.00D+00
 Coeff-Com:  0.897D-04-0.963D-03 0.158D-02 0.217D-03-0.121D-03-0.396D-01
 Coeff-Com:  0.717D-01 0.116D+00 0.814D-01-0.146D+01 0.871D+00 0.136D+01
 Coeff:      0.897D-04-0.963D-03 0.158D-02 0.217D-03-0.121D-03-0.396D-01
 Coeff:      0.717D-01 0.116D+00 0.814D-01-0.146D+01 0.871D+00 0.136D+01
 Gap=     0.288 Goal=   None    Shift=    0.500
 RMSDP=8.05D-07 MaxDP=2.91D-05 DE=-4.50D-08 OVMax= 6.47D-05

 SCF Done:  E(RLC-wHPBE) =  -462.972325923     A.U. after   12 cycles
            NFock= 12  Conv=0.80D-06     -V/T= 2.0052
 KE= 4.605999504256D+02 PE=-2.271095153507D+03 EE= 7.490505298690D+02
 Leave Link  502 at Sun Jan 17 09:44:08 2021, MaxMem=  4026531840 cpu:             597.4 elap:              74.9
 (Enter /opt/ohpc/pub/libs/gaussian/g16-A.03/sandybridge/g16/l508.exe)
 QCSCF skips out because SCF is already converged.
 Leave Link  508 at Sun Jan 17 09:44:08 2021, MaxMem=  4026531840 cpu:               0.1 elap:               0.0
 (Enter /opt/ohpc/pub/libs/gaussian/g16-A.03/sandybridge/g16/l601.exe)
 Copying SCF densities to generalized density rwf, IOpCl= 0 IROHF=0.

 **********************************************************************

            Population analysis using the SCF density.

 **********************************************************************

 Orbital symmetries:
       Occupied  (A) (A) (A) (A) (A) (A) (A) (A) (A) (A) (A) (A)
                 (A) (A) (A) (A) (A) (A) (A) (A) (A) (A) (A) (A)
                 (A) (A) (A) (A) (A) (A) (A) (A) (A) (A) (A) (A)
                 (A) (A) (A) (A) (A)
       Virtual   (A) (A) (A) (A) (A) (A) (A) (A) (A) (A) (A) (A)
                 (A) (A) (A) (A) (A) (A) (A) (A) (A) (A) (A) (A)
                 (A) (A) (A) (A) (A) (A) (A) (A) (A) (A) (A) (A)
                 (A) (A) (A) (A) (A) (A) (A) (A) (A) (A) (A) (A)
                 (A) (A) (A) (A) (A) (A) (A) (A) (A) (A) (A) (A)
                 (A) (A) (A) (A) (A) (A) (A) (A) (A) (A) (A) (A)
                 (A) (A) (A) (A) (A) (A) (A) (A) (A) (A) (A) (A)
                 (A) (A) (A) (A) (A) (A) (A) (A) (A) (A) (A) (A)
                 (A) (A) (A) (A) (A) (A) (A) (A) (A) (A) (A) (A)
                 (A) (A) (A) (A) (A) (A) (A) (A) (A) (A) (A) (A)
                 (A) (A) (A) (A) (A) (A) (A) (A) (A) (A) (A) (A)
                 (A) (A) (A) (A) (A) (A) (A) (A) (A) (A) (A) (A)
                 (A) (A) (A) (A) (A) (A) (A) (A) (A) (A) (A) (A)
                 (A) (A) (A) (A) (A) (A) (A) (A) (A) (A) (A) (A)
                 (A) (A) (A) (A) (A) (A) (A) (A) (A) (A) (A) (A)
                 (A) (A) (A) (A) (A) (A) (A) (A) (A) (A) (A) (A)
                 (A) (A) (A) (A) (A) (A) (A) (A) (A) (A) (A) (A)
                 (A) (A) (A) (A) (A) (A) (A) (A) (A) (A) (A) (A)
                 (A) (A) (A) (A) (A) (A) (A) (A) (A) (A) (A) (A)
                 (A) (A) (A) (A) (A) (A) (A) (A) (A) (A) (A) (A)
                 (A) (A) (A) (A) (A) (A) (A)
 The electronic state is 1-A.
 Alpha  occ. eigenvalues --   -9.99022  -9.99009  -9.97928  -9.97927  -9.97924
 Alpha  occ. eigenvalues --   -9.97924  -9.97867  -9.97866  -9.97866  -9.97865
 Alpha  occ. eigenvalues --   -9.97825  -9.97825  -0.88493  -0.86383  -0.79780
 Alpha  occ. eigenvalues --   -0.77128  -0.76407  -0.74322  -0.65320  -0.64782
 Alpha  occ. eigenvalues --   -0.62120  -0.60899  -0.56943  -0.53568  -0.50498
 Alpha  occ. eigenvalues --   -0.50266  -0.47735  -0.47713  -0.46236  -0.45891
 Alpha  occ. eigenvalues --   -0.45574  -0.42684  -0.41137  -0.40531  -0.39120
 Alpha  occ. eigenvalues --   -0.37766  -0.37568  -0.33177  -0.31005  -0.30991
 Alpha  occ. eigenvalues --   -0.28329
 Alpha virt. eigenvalues --    0.00456   0.02713   0.02958   0.05768   0.09919
 Alpha virt. eigenvalues --    0.10437   0.12105   0.13447   0.13896   0.15425
 Alpha virt. eigenvalues --    0.15757   0.16316   0.16696   0.17534   0.19095
 Alpha virt. eigenvalues --    0.19204   0.20071   0.20507   0.24768   0.25074
 Alpha virt. eigenvalues --    0.25231   0.25365   0.27214   0.27297   0.27518
 Alpha virt. eigenvalues --    0.27581   0.28467   0.28564   0.29684   0.29695
 Alpha virt. eigenvalues --    0.30667   0.31787   0.32694   0.32798   0.33641
 Alpha virt. eigenvalues --    0.34229   0.35761   0.36614   0.38239   0.39035
 Alpha virt. eigenvalues --    0.39314   0.39754   0.40604   0.41154   0.41438
 Alpha virt. eigenvalues --    0.42118   0.43327   0.44969   0.45470   0.45642
 Alpha virt. eigenvalues --    0.45726   0.46267   0.46466   0.46731   0.47202
 Alpha virt. eigenvalues --    0.49519   0.50129   0.50351   0.52310   0.52333
 Alpha virt. eigenvalues --    0.52916   0.53305   0.54019   0.54791   0.56442
 Alpha virt. eigenvalues --    0.56795   0.56860   0.56868   0.58917   0.62396
 Alpha virt. eigenvalues --    0.63018   0.65863   0.67419   0.69629   0.70322
 Alpha virt. eigenvalues --    0.72465   0.72583   0.73331   0.73707   0.73953
 Alpha virt. eigenvalues --    0.75085   0.78795   0.81078   0.84337   0.86470
 Alpha virt. eigenvalues --    0.92279   0.93554   1.12189   1.21408   1.22244
 Alpha virt. eigenvalues --    1.25599   1.25824   1.26222   1.26730   1.27046
 Alpha virt. eigenvalues --    1.27405   1.28652   1.30458   1.30951   1.31729
 Alpha virt. eigenvalues --    1.31842   1.32694   1.33254   1.33795   1.33966
 Alpha virt. eigenvalues --    1.34345   1.34914   1.36025   1.37822   1.42742
 Alpha virt. eigenvalues --    1.42861   1.44166   1.44348   1.46009   1.46253
 Alpha virt. eigenvalues --    1.46282   1.46444   1.47997   1.48543   1.49075
 Alpha virt. eigenvalues --    1.49644   1.49674   1.51153   1.51170   1.51295
 Alpha virt. eigenvalues --    1.53453   1.53716   1.54073   1.55134   1.55342
 Alpha virt. eigenvalues --    1.57620   1.58597   1.58991   1.59473   1.60622
 Alpha virt. eigenvalues --    1.60697   1.66722   1.67787   1.71216   1.75275
 Alpha virt. eigenvalues --    1.77959   1.79025   1.79183   1.79275   1.80524
 Alpha virt. eigenvalues --    1.81560   1.82366   1.82937   1.87711   1.88802
 Alpha virt. eigenvalues --    1.88868   1.89409   1.89447   1.89813   1.91670
 Alpha virt. eigenvalues --    1.91984   1.92233   1.92718   1.93209   1.95418
 Alpha virt. eigenvalues --    1.95899   1.96198   1.98971   2.00098   2.00919
 Alpha virt. eigenvalues --    2.02035   2.02797   2.03017   2.09947   2.10813
 Alpha virt. eigenvalues --    2.12736   2.25173   2.26931   2.27314   2.29404
 Alpha virt. eigenvalues --    2.29780   2.30066   2.31638   2.31713   2.34561
 Alpha virt. eigenvalues --    2.34895   2.35027   2.35029   2.36029   2.36944
 Alpha virt. eigenvalues --    2.37321   2.45155   2.48438   2.49533   2.49620
 Alpha virt. eigenvalues --    2.51362   2.52892   2.53706   2.54124   2.58816
 Alpha virt. eigenvalues --    2.60730   2.63940   2.64193   2.64827   2.64939
 Alpha virt. eigenvalues --    2.66966   2.68928   2.69438   2.70016   2.70990
 Alpha virt. eigenvalues --    2.74485   2.80133   2.80160   2.80587   2.83469
 Alpha virt. eigenvalues --    2.98229   2.98890   3.00795   3.03683   3.03867
 Alpha virt. eigenvalues --    3.04197   3.06546   3.08991   3.10819   3.11869
 Alpha virt. eigenvalues --    3.15007   3.15420   3.17796   3.18097   3.20369
 Alpha virt. eigenvalues --    3.21634   3.30295   3.33021   3.33575   3.39844
 Alpha virt. eigenvalues --    3.40501   3.51611   3.54916   3.72472   3.81804
 Alpha virt. eigenvalues --   20.99755  21.27663  21.55018  21.64638  21.67550
 Alpha virt. eigenvalues --   21.74783  21.87280  21.89454  21.92296  21.94854
 Alpha virt. eigenvalues --   22.03995  22.07011
          Condensed to atoms (all electrons):
               1          2          3          4          5          6
     1  C    5.026114   0.445708   0.373605   0.006408   0.011169  -0.119315
     2  C    0.445708   5.011647  -0.011148   0.445677  -0.089320  -0.011098
     3  C    0.373605  -0.011148   5.228250  -0.119245   0.392185  -0.035113
     4  C    0.006408   0.445677  -0.119245   5.026125   0.011146   0.373560
     5  C    0.011169  -0.089320   0.392185   0.011146   5.398328   0.392079
     6  C   -0.119315  -0.011098  -0.035113   0.373560   0.392079   5.228412
     7  H   -0.064568   0.420710   0.019960  -0.064574  -0.004543   0.019964
     8  H   -0.038304   0.012210   0.401906  -0.001864  -0.058809   0.016839
     9  H    0.014826  -0.062204  -0.000604   0.413580   0.016308  -0.055966
    10  H   -0.001861   0.012202   0.016836  -0.038267  -0.058780   0.401872
    11  C    0.022123   0.005236  -0.090836   0.022118   0.147590  -0.090800
    12  C   -0.000236  -0.000267   0.025493   0.002952  -0.090791  -0.022622
    13  C    0.002912  -0.000251  -0.022590  -0.000251  -0.090894   0.025562
    14  C    0.000115   0.000003  -0.000247  -0.000283   0.022139   0.002914
    15  C   -0.000285   0.000004   0.002943   0.000112   0.022136  -0.000248
    16  C    0.000003  -0.000009  -0.000261   0.000004   0.005225  -0.000252
    17  H   -0.000048   0.000004  -0.000544   0.000704  -0.018707   0.005469
    18  H    0.000706   0.000003   0.005454  -0.000046  -0.018697  -0.000547
    19  H   -0.000002   0.000001   0.000022  -0.000007  -0.001505   0.000005
    20  H   -0.000007   0.000001   0.000005  -0.000002  -0.001504   0.000022
    21  H    0.000000  -0.000000  -0.000005   0.000000  -0.000135  -0.000005
    22  H    0.413580  -0.062202  -0.055971   0.014825   0.016310  -0.000605
               7          8          9         10         11         12
     1  C   -0.064568  -0.038304   0.014826  -0.001861   0.022123  -0.000236
     2  C    0.420710   0.012210  -0.062204   0.012202   0.005236  -0.000267
     3  C    0.019960   0.401906  -0.000604   0.016836  -0.090836   0.025493
     4  C   -0.064574  -0.001864   0.413580  -0.038267   0.022118   0.002952
     5  C   -0.004543  -0.058809   0.016308  -0.058780   0.147590  -0.090791
     6  C    0.019964   0.016839  -0.055966   0.401872  -0.090800  -0.022622
     7  H    0.586631  -0.000253  -0.008800  -0.000253  -0.000135  -0.000005
     8  H   -0.000253   0.560605   0.000046  -0.000190  -0.018694  -0.000542
     9  H   -0.008800   0.000046   0.589434  -0.007294  -0.001505   0.000005
    10  H   -0.000253  -0.000190  -0.007294   0.560583  -0.018712   0.005461
    11  C   -0.000135  -0.018694  -0.001505  -0.018712   5.398151   0.392288
    12  C   -0.000005  -0.000542   0.000005   0.005461   0.392288   5.228097
    13  C   -0.000005   0.005469   0.000022  -0.000546   0.392199  -0.035179
    14  C    0.000000  -0.000048  -0.000007   0.000704   0.011088   0.373720
    15  C    0.000000   0.000703  -0.000002  -0.000047   0.011101  -0.119208
    16  C   -0.000000   0.000005   0.000001   0.000004  -0.089261  -0.011233
    17  H   -0.000003  -0.000043   0.000014   0.001347  -0.058799   0.401893
    18  H   -0.000003   0.001347   0.000001  -0.000043  -0.058767   0.016832
    19  H   -0.000000   0.000001  -0.000000   0.000014   0.016306  -0.055956
    20  H   -0.000000   0.000014   0.000000   0.000001   0.016308  -0.000603
    21  H   -0.000000  -0.000003  -0.000000  -0.000003  -0.004543   0.019960
    22  H   -0.008801  -0.007295  -0.000288   0.000046  -0.001504   0.000022
              13         14         15         16         17         18
     1  C    0.002912   0.000115  -0.000285   0.000003  -0.000048   0.000706
     2  C   -0.000251   0.000003   0.000004  -0.000009   0.000004   0.000003
     3  C   -0.022590  -0.000247   0.002943  -0.000261  -0.000544   0.005454
     4  C   -0.000251  -0.000283   0.000112   0.000004   0.000704  -0.000046
     5  C   -0.090894   0.022139   0.022136   0.005225  -0.018707  -0.018697
     6  C    0.025562   0.002914  -0.000248  -0.000252   0.005469  -0.000547
     7  H   -0.000005   0.000000   0.000000  -0.000000  -0.000003  -0.000003
     8  H    0.005469  -0.000048   0.000703   0.000005  -0.000043   0.001347
     9  H    0.000022  -0.000007  -0.000002   0.000001   0.000014   0.000001
    10  H   -0.000546   0.000704  -0.000047   0.000004   0.001347  -0.000043
    11  C    0.392199   0.011088   0.011101  -0.089261  -0.058799  -0.058767
    12  C   -0.035179   0.373720  -0.119208  -0.011233   0.401893   0.016832
    13  C    5.228383  -0.119254   0.373568  -0.011123   0.016836   0.401865
    14  C   -0.119254   5.026024   0.006354   0.445773  -0.038285  -0.001860
    15  C    0.373568   0.006354   5.026094   0.445743  -0.001862  -0.038272
    16  C   -0.011123   0.445773   0.445743   5.011566   0.012206   0.012198
    17  H    0.016836  -0.038285  -0.001862   0.012206   0.560595  -0.000190
    18  H    0.401865  -0.001860  -0.038272   0.012198  -0.000190   0.560581
    19  H   -0.000604   0.413570   0.014823  -0.062199  -0.007294   0.000046
    20  H   -0.055974   0.014825   0.413581  -0.062199   0.000046  -0.007294
    21  H    0.019961  -0.064565  -0.064572   0.420707  -0.000253  -0.000253
    22  H    0.000004  -0.000002  -0.000007   0.000001   0.000001   0.000014
              19         20         21         22
     1  C   -0.000002  -0.000007   0.000000   0.413580
     2  C    0.000001   0.000001  -0.000000  -0.062202
     3  C    0.000022   0.000005  -0.000005  -0.055971
     4  C   -0.000007  -0.000002   0.000000   0.014825
     5  C   -0.001505  -0.001504  -0.000135   0.016310
     6  C    0.000005   0.000022  -0.000005  -0.000605
     7  H   -0.000000  -0.000000  -0.000000  -0.008801
     8  H    0.000001   0.000014  -0.000003  -0.007295
     9  H   -0.000000   0.000000  -0.000000  -0.000288
    10  H    0.000014   0.000001  -0.000003   0.000046
    11  C    0.016306   0.016308  -0.004543  -0.001504
    12  C   -0.055956  -0.000603   0.019960   0.000022
    13  C   -0.000604  -0.055974   0.019961   0.000004
    14  C    0.413570   0.014825  -0.064565  -0.000002
    15  C    0.014823   0.413581  -0.064572  -0.000007
    16  C   -0.062199  -0.062199   0.420707   0.000001
    17  H   -0.007294   0.000046  -0.000253   0.000001
    18  H    0.000046  -0.007294  -0.000253   0.000014
    19  H    0.589435  -0.000288  -0.008800   0.000000
    20  H   -0.000288   0.589435  -0.008799  -0.000000
    21  H   -0.008800  -0.008799   0.586629  -0.000000
    22  H    0.000000  -0.000000  -0.000000   0.589439
 Mulliken charges:
               1
     1  C   -0.092645
     2  C   -0.116907
     3  C   -0.130095
     4  C   -0.092672
     5  C   -0.000932
     6  C   -0.130125
     7  H    0.104678
     8  H    0.126904
     9  H    0.102434
    10  H    0.126927
    11  C   -0.000952
    12  C   -0.130081
    13  C   -0.130110
    14  C   -0.092679
    15  C   -0.092659
    16  C   -0.116898
    17  H    0.126912
    18  H    0.126924
    19  H    0.102433
    20  H    0.102433
    21  H    0.104678
    22  H    0.102433
 Sum of Mulliken charges =  -0.00000
 Mulliken charges with hydrogens summed into heavy atoms:
               1
     1  C    0.009789
     2  C   -0.012229
     3  C   -0.003192
     4  C    0.009761
     5  C   -0.000932
     6  C   -0.003199
    11  C   -0.000952
    12  C   -0.003168
    13  C   -0.003186
    14  C    0.009754
    15  C    0.009774
    16  C   -0.012220
 Electronic spatial extent (au):  <R**2>=           2314.3684
 Charge=             -0.0000 electrons
 Dipole moment (field-independent basis, Debye):
    X=             -0.0000    Y=              0.0001    Z=              0.0003  Tot=              0.0003
 Quadrupole moment (field-independent basis, Debye-Ang):
   XX=            -62.0954   YY=            -63.7848   ZZ=            -75.2639
   XY=              0.0005   XZ=              0.0005   YZ=             -0.0002
 Traceless Quadrupole moment (field-independent basis, Debye-Ang):
   XX=              4.9527   YY=              3.2632   ZZ=             -8.2159
   XY=              0.0005   XZ=              0.0005   YZ=             -0.0002
 Octapole moment (field-independent basis, Debye-Ang**2):
  XXX=             -0.0002  YYY=              0.0015  ZZZ=              0.0005  XYY=             -0.0004
  XXY=              0.0009  XXZ=              0.0076  XZZ=              0.0002  YZZ=             -0.0009
  YYZ=              0.0003  XYZ=            -11.7195
 Hexadecapole moment (field-independent basis, Debye-Ang**3):
 XXXX=          -2326.3964 YYYY=           -506.3263 ZZZZ=           -157.4171 XXXY=             -0.0035
 XXXZ=              0.0047 YYYX=              0.0079 YYYZ=             -0.0007 ZZZX=              0.0017
 ZZZY=             -0.0007 XXYY=           -481.7156 XXZZ=           -496.6057 YYZZ=           -113.2387
 XXYZ=             -0.0003 YYXZ=              0.0020 ZZXY=             -0.0020
 N-N= 5.984723472889D+02 E-N=-2.271095027604D+03  KE= 4.605999504256D+02
 No NMR shielding tensors so no spin-rotation constants.
 Leave Link  601 at Sun Jan 17 09:44:08 2021, MaxMem=  4026531840 cpu:               1.7 elap:               0.3
 (Enter /opt/ohpc/pub/libs/gaussian/g16-A.03/sandybridge/g16/l9999.exe)

 Test job not archived.
 1\1\GINC-CASCADEB028\SP\RLC-wHPBE\TZVP\C12H10\RDU230\17-Jan-2021\0\\#P
  LC-wHPBE/TZVP iop(3/107=0156200000, 3/108=0156200000) scf=(conver=6,f
 ermi,ndamp=35,noincfock,novaracc,vshift=500,xqc)\\H10 C12\\0,1\C,0,-2.
 8585,1.132993,0.41369\C,0,-3.561927,-0.000084,-0.000146\C,0,-1.463685,
 1.132747,0.413534\C,0,-2.858269,-1.133176,-0.413741\C,0,-0.742381,0.00
 0123,0.000091\C,0,-1.463491,-1.132675,-0.413489\H,0,-4.653174,-0.00016
 ,-0.000261\H,0,-0.922222,2.014213,0.762301\H,0,-3.398792,-2.020986,-0.
 747134\H,0,-0.921754,-2.014027,-0.762095\C,0,0.742385,0.000142,0.00019
 7\C,0,1.463539,-1.132637,0.413582\C,0,1.463636,1.132765,-0.413477\C,0,
 2.858357,-1.133114,0.41366\C,0,2.858412,1.133073,-0.413706\C,0,3.56193
 1,-0.000095,-0.000087\H,0,0.921935,-2.014039,0.762261\H,0,0.922017,2.0
 14128,-0.762265\H,0,3.398826,-2.021,0.746938\H,0,3.399026,2.020805,-0.
 747168\H,0,4.653184,-0.000117,-0.000198\H,0,-3.399078,2.020813,0.74697
 4\\Version=EM64L-G16RevA.03\State=1-A\HF=-462.9723259\RMSD=8.046e-07\D
 ipole=-0.0000101,-0.0000421,-0.0001175\Quadrupole=3.6821811,2.4261267,
 -6.1083078,-0.0003587,-0.0003963,-0.0001354\PG=C01 [X(C12H10)]\\@


 GOORD'S AXIOM:  A MEETING IS AN EVENT AT WHICH
 THE MINUTES ARE KEPT AND THE HOURS ARE LOST.
 Job cpu time:       0 days  0 hours 10 minutes 19.2 seconds.
 Elapsed time:       0 days  0 hours  1 minutes 18.1 seconds.
 File lengths (MBytes):  RWF=     88 Int=      0 D2E=      0 Chk=     12 Scr=      8
 Normal termination of Gaussian 16 at Sun Jan 17 09:44:08 2021.
