 Entering Gaussian System, Link 0=g16
 Input=mol_bp_NN_frag_tune_n7.gjf
 Output=mol_bp_NN_frag_tune_n7.log
 Initial command:
 /opt/ohpc/pub/libs/gaussian/g16-A.03/sandybridge/g16/l1.exe "/mnt/gpfs2_4m/scratch/rdu230/ondemand/projects/init_structures/wtuning/mol_bp_NN_frag/tuning_mol_bp_NN_frag_ocycle0/Gau-301606.inp" -scrdir="/mnt/gpfs2_4m/scratch/rdu230/ondemand/projects/init_structures/wtuning/mol_bp_NN_frag/tuning_mol_bp_NN_frag_ocycle0/"
 Entering Link 1 = /opt/ohpc/pub/libs/gaussian/g16-A.03/sandybridge/g16/l1.exe PID=    301607.
  
 Copyright (c) 1988,1990,1992,1993,1995,1998,2003,2009,2016,
            Gaussian, Inc.  All Rights Reserved.
  
 This is part of the Gaussian(R) 16 program.  It is based on
 the Gaussian(R) 09 system (copyright 2009, Gaussian, Inc.),
 the Gaussian(R) 03 system (copyright 2003, Gaussian, Inc.),
 the Gaussian(R) 98 system (copyright 1998, Gaussian, Inc.),
 the Gaussian(R) 94 system (copyright 1995, Gaussian, Inc.),
 the Gaussian 92(TM) system (copyright 1992, Gaussian, Inc.),
 the Gaussian 90(TM) system (copyright 1990, Gaussian, Inc.),
 the Gaussian 88(TM) system (copyright 1988, Gaussian, Inc.),
 the Gaussian 86(TM) system (copyright 1986, Carnegie Mellon
 University), and the Gaussian 82(TM) system (copyright 1983,
 Carnegie Mellon University). Gaussian is a federally registered
 trademark of Gaussian, Inc.
  
 This software contains proprietary and confidential information,
 including trade secrets, belonging to Gaussian, Inc.
  
 This software is provided under written license and may be
 used, copied, transmitted, or stored only in accord with that
 written license.
  
 The following legend is applicable only to US Government
 contracts under FAR:
  
                    RESTRICTED RIGHTS LEGEND
  
 Use, reproduction and disclosure by the US Government is
 subject to restrictions as set forth in subparagraphs (a)
 and (c) of the Commercial Computer Software - Restricted
 Rights clause in FAR 52.227-19.
  
 Gaussian, Inc.
 340 Quinnipiac St., Bldg. 40, Wallingford CT 06492
  
  
 ---------------------------------------------------------------
 Warning -- This program may not be used in any manner that
 competes with the business of Gaussian, Inc. or will provide
 assistance to any competitor of Gaussian, Inc.  The licensee
 of this program is prohibited from giving any competitor of
 Gaussian, Inc. access to this program.  By using this program,
 the user acknowledges that Gaussian, Inc. is engaged in the
 business of creating and licensing software in the field of
 computational chemistry and represents and warrants to the
 licensee that it is not a competitor of Gaussian, Inc. and that
 it will not use this program in any manner prohibited above.
 ---------------------------------------------------------------
  

 Cite this work as:
 Gaussian 16, Revision A.03,
 M. J. Frisch, G. W. Trucks, H. B. Schlegel, G. E. Scuseria, 
 M. A. Robb, J. R. Cheeseman, G. Scalmani, V. Barone, 
 G. A. Petersson, H. Nakatsuji, X. Li, M. Caricato, A. V. Marenich, 
 J. Bloino, B. G. Janesko, R. Gomperts, B. Mennucci, H. P. Hratchian, 
 J. V. Ortiz, A. F. Izmaylov, J. L. Sonnenberg, D. Williams-Young, 
 F. Ding, F. Lipparini, F. Egidi, J. Goings, B. Peng, A. Petrone, 
 T. Henderson, D. Ranasinghe, V. G. Zakrzewski, J. Gao, N. Rega, 
 G. Zheng, W. Liang, M. Hada, M. Ehara, K. Toyota, R. Fukuda, 
 J. Hasegawa, M. Ishida, T. Nakajima, Y. Honda, O. Kitao, H. Nakai, 
 T. Vreven, K. Throssell, J. A. Montgomery, Jr., J. E. Peralta, 
 F. Ogliaro, M. J. Bearpark, J. J. Heyd, E. N. Brothers, K. N. Kudin, 
 V. N. Staroverov, T. A. Keith, R. Kobayashi, J. Normand, 
 K. Raghavachari, A. P. Rendell, J. C. Burant, S. S. Iyengar, 
 J. Tomasi, M. Cossi, J. M. Millam, M. Klene, C. Adamo, R. Cammi, 
 J. W. Ochterski, R. L. Martin, K. Morokuma, O. Farkas, 
 J. B. Foresman, and D. J. Fox, Gaussian, Inc., Wallingford CT, 2016.
 
 ******************************************
 Gaussian 16:  EM64L-G16RevA.03 25-Dec-2016
                17-Jan-2021 
 ******************************************
 %mem=30GB
 %nproc=8
 Will use up to    8 processors via shared memory.
 ----------------------------------------------------------------------
 #P LC-wHPBE/TZVP iop(3/107=0235000000, 3/108=0235000000) scf=(conver=6
 ,fermi,ndamp=35,noincfock,novaracc,vshift=500,xqc)
 ----------------------------------------------------------------------
 1/38=1,172=1/1;
 2/12=2,17=6,18=5,40=1/2;
 3/5=19,7=101,11=2,25=1,30=1,74=-71,107=235000000,108=235000000/1,2,3;
 4//1;
 5/5=100002,6=6,8=3,10=500,13=1,18=-1,22=13,38=1,93=35/2,8;
 6/7=2,8=2,9=2,10=2,28=1/1;
 99/5=1,9=1/99;
 Leave Link    1 at Sun Jan 17 10:00:58 2021, MaxMem=  4026531840 cpu:               1.6 elap:               0.3
 (Enter /opt/ohpc/pub/libs/gaussian/g16-A.03/sandybridge/g16/l101.exe)
 -------
 H10 C12
 -------
 Symbolic Z-matrix:
 Charge =  0 Multiplicity = 1
 C                    -2.8585    1.13299   0.41369 
 C                    -3.56193  -0.00008  -0.00015 
 C                    -1.46369   1.13275   0.41353 
 C                    -2.85827  -1.13318  -0.41374 
 C                    -0.74238   0.00012   0.00009 
 C                    -1.46349  -1.13268  -0.41349 
 H                    -4.65317  -0.00016  -0.00026 
 H                    -0.92222   2.01421   0.7623 
 H                    -3.39879  -2.02099  -0.74713 
 H                    -0.92175  -2.01403  -0.7621 
 C                     0.74239   0.00014   0.0002 
 C                     1.46354  -1.13264   0.41358 
 C                     1.46364   1.13277  -0.41348 
 C                     2.85836  -1.13311   0.41366 
 C                     2.85841   1.13307  -0.41371 
 C                     3.56193  -0.0001   -0.00009 
 H                     0.92194  -2.01404   0.76226 
 H                     0.92202   2.01413  -0.76227 
 H                     3.39883  -2.021     0.74694 
 H                     3.39903   2.02081  -0.74717 
 H                     4.65318  -0.00012  -0.0002 
 H                    -3.39908   2.02081   0.74697 
 
 ITRead=  0  0  0  0  0  0  0  0  0  0  0  0  0  0  0  0  0  0  0  0
 ITRead=  0  0
 MicOpt= -1 -1 -1 -1 -1 -1 -1 -1 -1 -1 -1 -1 -1 -1 -1 -1 -1 -1 -1 -1
 MicOpt= -1 -1
 NAtoms=     22 NQM=       22 NQMF=       0 NMMI=      0 NMMIF=      0
                NMic=       0 NMicF=      0.
                    Isotopes and Nuclear Properties:
 (Nuclear quadrupole moments (NQMom) in fm**2, nuclear magnetic moments (NMagM)
  in nuclear magnetons)

  Atom         1           2           3           4           5           6           7           8           9          10
 IAtWgt=          12          12          12          12          12          12           1           1           1           1
 AtmWgt=  12.0000000  12.0000000  12.0000000  12.0000000  12.0000000  12.0000000   1.0078250   1.0078250   1.0078250   1.0078250
 NucSpn=           0           0           0           0           0           0           1           1           1           1
 AtZEff=  -0.0000000  -0.0000000  -0.0000000  -0.0000000  -0.0000000  -0.0000000  -0.0000000  -0.0000000  -0.0000000  -0.0000000
 NQMom=    0.0000000   0.0000000   0.0000000   0.0000000   0.0000000   0.0000000   0.0000000   0.0000000   0.0000000   0.0000000
 NMagM=    0.0000000   0.0000000   0.0000000   0.0000000   0.0000000   0.0000000   2.7928460   2.7928460   2.7928460   2.7928460
 AtZNuc=   6.0000000   6.0000000   6.0000000   6.0000000   6.0000000   6.0000000   1.0000000   1.0000000   1.0000000   1.0000000

  Atom        11          12          13          14          15          16          17          18          19          20
 IAtWgt=          12          12          12          12          12          12           1           1           1           1
 AtmWgt=  12.0000000  12.0000000  12.0000000  12.0000000  12.0000000  12.0000000   1.0078250   1.0078250   1.0078250   1.0078250
 NucSpn=           0           0           0           0           0           0           1           1           1           1
 AtZEff=  -0.0000000  -0.0000000  -0.0000000  -0.0000000  -0.0000000  -0.0000000  -0.0000000  -0.0000000  -0.0000000  -0.0000000
 NQMom=    0.0000000   0.0000000   0.0000000   0.0000000   0.0000000   0.0000000   0.0000000   0.0000000   0.0000000   0.0000000
 NMagM=    0.0000000   0.0000000   0.0000000   0.0000000   0.0000000   0.0000000   2.7928460   2.7928460   2.7928460   2.7928460
 AtZNuc=   6.0000000   6.0000000   6.0000000   6.0000000   6.0000000   6.0000000   1.0000000   1.0000000   1.0000000   1.0000000

  Atom        21          22
 IAtWgt=           1           1
 AtmWgt=   1.0078250   1.0078250
 NucSpn=           1           1
 AtZEff=  -0.0000000  -0.0000000
 NQMom=    0.0000000   0.0000000
 NMagM=    2.7928460   2.7928460
 AtZNuc=   1.0000000   1.0000000
 Leave Link  101 at Sun Jan 17 10:00:58 2021, MaxMem=  4026531840 cpu:               0.7 elap:               0.1
 (Enter /opt/ohpc/pub/libs/gaussian/g16-A.03/sandybridge/g16/l202.exe)
                          Input orientation:                          
 ---------------------------------------------------------------------
 Center     Atomic      Atomic             Coordinates (Angstroms)
 Number     Number       Type             X           Y           Z
 ---------------------------------------------------------------------
      1          6           0       -2.858500    1.132993    0.413690
      2          6           0       -3.561927   -0.000084   -0.000146
      3          6           0       -1.463685    1.132747    0.413534
      4          6           0       -2.858269   -1.133176   -0.413741
      5          6           0       -0.742381    0.000123    0.000091
      6          6           0       -1.463491   -1.132675   -0.413489
      7          1           0       -4.653174   -0.000160   -0.000261
      8          1           0       -0.922222    2.014213    0.762301
      9          1           0       -3.398792   -2.020986   -0.747134
     10          1           0       -0.921754   -2.014027   -0.762095
     11          6           0        0.742385    0.000142    0.000197
     12          6           0        1.463539   -1.132637    0.413582
     13          6           0        1.463636    1.132765   -0.413477
     14          6           0        2.858357   -1.133114    0.413660
     15          6           0        2.858412    1.133073   -0.413706
     16          6           0        3.561931   -0.000095   -0.000087
     17          1           0        0.921935   -2.014039    0.762261
     18          1           0        0.922017    2.014128   -0.762265
     19          1           0        3.398826   -2.021000    0.746938
     20          1           0        3.399026    2.020805   -0.747168
     21          1           0        4.653184   -0.000117   -0.000198
     22          1           0       -3.399078    2.020813    0.746974
 ---------------------------------------------------------------------
                    Distance matrix (angstroms):
                    1          2          3          4          5
     1  C    0.000000
     2  C    1.396400   0.000000
     3  C    1.394815   2.420136   0.000000
     4  C    2.412502   1.396457   2.786334   0.000000
     5  C    2.435656   2.819546   1.405010   2.435694   0.000000
     6  C    2.786311   2.420134   2.411660   1.394778   1.405091
     7  H    2.162463   1.091247   3.409919   2.162493   3.910793
     8  H    2.155748   3.406870   1.091697   3.877810   2.160987
     9  H    3.403970   2.160706   3.877863   1.091569   3.420489
    10  H    3.877782   3.406912   3.402643   2.155769   2.160996
    11  C    3.797460   4.304312   2.514038   3.797429   1.484766
    12  C    4.879867   5.168090   3.701433   4.400283   2.514001
    13  C    4.400576   5.168218   3.041900   4.879893   2.514046
    14  C    6.149609   6.532613   4.879977   5.776193   3.797444
    15  C    5.776475   6.532674   4.400551   6.149498   3.797435
    16  C    6.532766   7.123858   5.168291   6.532530   4.304312
    17  H    4.931227   4.974163   3.964222   4.055717   2.721709
    18  H    4.056054   4.974297   2.801947   4.931283   2.721695
    19  H    7.015187   7.286585   5.805281   6.425468   4.668224
    20  H    6.425919   7.286762   5.077582   7.015163   4.668276
    21  H    7.607933   8.215111   6.234632   7.607678   5.395565
    22  H    1.091571   2.160725   2.155363   3.404024   3.420389
                    6          7          8          9         10
     6  C    0.000000
     7  H    3.409901   0.000000
     8  H    3.402699   4.308039   0.000000
     9  H    2.155413   2.492996   4.969369   0.000000
    10  H    1.091690   4.308079   4.307029   2.477093   0.000000
    11  C    2.514021   5.395559   2.721801   4.668277   2.721640
    12  C    3.041636   6.234416   3.964357   5.077272   2.801551
    13  C    3.701390   6.234551   2.802093   5.805229   3.964079
    14  C    4.400289   7.607760   4.931531   6.425548   4.055570
    15  C    4.879801   7.607830   4.056180   7.015117   4.931051
    16  C    5.168027   8.215105   4.974565   7.286545   4.973933
    17  H    2.801687   5.976537   4.430319   4.576790   2.392248
    18  H    3.964172   5.976685   2.392806   5.912002   4.430070
    19  H    5.077188   8.335275   5.912245   6.959875   4.576532
    20  H    5.805157   8.335472   4.577305   7.908628   5.911788
    21  H    6.234357   9.306358   5.976963   8.335235   5.976308
    22  H    3.877842   2.493080   2.476912   4.309118   4.969342
                   11         12         13         14         15
    11  C    0.000000
    12  C    1.405040   0.000000
    13  C    1.405049   2.411654   0.000000
    14  C    2.435684   1.394818   2.786326   0.000000
    15  C    2.435656   2.786309   1.394776   2.412496   0.000000
    16  C    2.819546   2.420129   2.420146   1.396401   1.396456
    17  H    2.160996   1.091687   3.402672   2.155755   3.877777
    18  H    2.160962   3.402645   1.091698   3.877801   2.155778
    19  H    3.420426   2.155377   3.877855   1.091569   3.404015
    20  H    3.420435   3.877840   2.155388   3.403976   1.091572
    21  H    3.910799   3.409934   3.409903   2.162490   2.162479
    22  H    4.668244   5.805208   5.077525   7.015258   6.425842
                   16         17         18         19         20
    16  C    0.000000
    17  H    3.406864   0.000000
    18  H    3.406928   4.307007   0.000000
    19  H    2.160719   2.476948   4.969360   0.000000
    20  H    2.160719   4.969338   2.477064   4.309123   0.000000
    21  H    1.091253   4.308067   4.308078   2.493109   2.492991
    22  H    7.286825   5.911972   4.577085   7.908714   6.960365
                   21         22
    21  H    0.000000
    22  H    8.335547   0.000000
 Stoichiometry    C12H10
 Framework group  C1[X(C12H10)]
 Deg. of freedom    60
 Full point group                 C1      NOp   1
 Largest Abelian subgroup         C1      NOp   1
 Largest concise Abelian subgroup C1      NOp   1
                         Standard orientation:                         
 ---------------------------------------------------------------------
 Center     Atomic      Atomic             Coordinates (Angstroms)
 Number     Number       Type             X           Y           Z
 ---------------------------------------------------------------------
      1          6           0       -2.858500   -1.132993   -0.413690
      2          6           0       -3.561927    0.000084    0.000146
      3          6           0       -1.463685   -1.132747   -0.413534
      4          6           0       -2.858269    1.133176    0.413741
      5          6           0       -0.742381   -0.000123   -0.000091
      6          6           0       -1.463491    1.132675    0.413489
      7          1           0       -4.653174    0.000160    0.000261
      8          1           0       -0.922222   -2.014213   -0.762301
      9          1           0       -3.398792    2.020986    0.747134
     10          1           0       -0.921754    2.014027    0.762095
     11          6           0        0.742385   -0.000142   -0.000197
     12          6           0        1.463539    1.132637   -0.413582
     13          6           0        1.463636   -1.132765    0.413477
     14          6           0        2.858357    1.133114   -0.413660
     15          6           0        2.858412   -1.133073    0.413706
     16          6           0        3.561931    0.000095    0.000087
     17          1           0        0.921935    2.014039   -0.762261
     18          1           0        0.922017   -2.014128    0.762265
     19          1           0        3.398826    2.021000   -0.746938
     20          1           0        3.399026   -2.020805    0.747168
     21          1           0        4.653184    0.000117    0.000198
     22          1           0       -3.399078   -2.020813   -0.746974
 ---------------------------------------------------------------------
 Rotational constants (GHZ):           2.8545349           0.5449545           0.4756990
 Leave Link  202 at Sun Jan 17 10:00:59 2021, MaxMem=  4026531840 cpu:               0.2 elap:               0.1
 (Enter /opt/ohpc/pub/libs/gaussian/g16-A.03/sandybridge/g16/l301.exe)
 Standard basis: TZVP (5D, 7F)
 Ernie: Thresh=  0.10000D-02 Tol=  0.10000D-05 Strict=F.
 There are   300 symmetry adapted cartesian basis functions of A   symmetry.
 There are   288 symmetry adapted basis functions of A   symmetry.
   288 basis functions,   500 primitive gaussians,   300 cartesian basis functions
    41 alpha electrons       41 beta electrons
       nuclear repulsion energy       598.4723472889 Hartrees.
 IExCor=33909 DFT=T Ex+Corr=LC-wHPBE ExCW=0 ScaHFX=  1.000000
 ScaDFX=  1.000000  1.000000  1.000000  1.000000 ScalE2=  1.000000  1.000000
 IRadAn=      5 IRanWt=     -1 IRanGd=            0 ICorTp=0 IEmpDi=  4
 HFx  wShort=  0.000000 wLong=  0.235000 cFull=  0.000000 cShort=  0.000000 cLong=  1.000000
 DFx  wShort=  0.000000 wLong=  0.235000 cFull=  0.000000 cShort=  1.000000 cLong=  0.000000
 NAtoms=   22 NActive=   22 NUniq=   22 SFac= 1.00D+00 NAtFMM=   60 NAOKFM=F Big=F
 Integral buffers will be    131072 words long.
 Raffenetti 2 integral format.
 Two-electron integral symmetry is turned on.
 Leave Link  301 at Sun Jan 17 10:00:59 2021, MaxMem=  4026531840 cpu:               0.4 elap:               0.1
 (Enter /opt/ohpc/pub/libs/gaussian/g16-A.03/sandybridge/g16/l302.exe)
 NPDir=0 NMtPBC=     1 NCelOv=     1 NCel=       1 NClECP=     1 NCelD=      1
         NCelK=      1 NCelE2=     1 NClLst=     1 CellRange=     0.0.
 One-electron integrals computed using PRISM.
 One-electron integral symmetry used in STVInt
 NBasis=   288 RedAO= T EigKep=  9.18D-06  NBF=   288
 NBsUse=   288 1.00D-06 EigRej= -1.00D+00 NBFU=   288
 Precomputing XC quadrature grid using
 IXCGrd= 4 IRadAn=           5 IRanWt=          -1 IRanGd=           0 AccXCQ= 0.00D+00.
 Generated NRdTot=       0 NPtTot=           0 NUsed=           0 NTot=          32
 NSgBfM=   295   295   295   295   295 MxSgAt=    22 MxSgA2=    22.
 Leave Link  302 at Sun Jan 17 10:00:59 2021, MaxMem=  4026531840 cpu:               4.0 elap:               0.6
 (Enter /opt/ohpc/pub/libs/gaussian/g16-A.03/sandybridge/g16/l303.exe)
 DipDrv:  MaxL=1.
 Leave Link  303 at Sun Jan 17 10:00:59 2021, MaxMem=  4026531840 cpu:               0.3 elap:               0.1
 (Enter /opt/ohpc/pub/libs/gaussian/g16-A.03/sandybridge/g16/l401.exe)
 ExpMin= 9.52D-02 ExpMax= 1.36D+04 ExpMxC= 4.63D+02 IAcc=3 IRadAn=         5 AccDes= 0.00D+00
 Harris functional with IExCor=33909 and IRadAn=       5 diagonalized for initial guess.
 HarFok:  IExCor=33909 AccDes= 0.00D+00 IRadAn=         5 IDoV= 1 UseB2=F ITyADJ=14
 ICtDFT=  3500011 ScaDFX=  1.000000  1.000000  1.000000  1.000000
 FoFCou: FMM=F IPFlag=           0 FMFlag=      100000 FMFlg1=           0
         NFxFlg=           0 DoJE=T BraDBF=F KetDBF=T FulRan=T
         wScrn=  0.000000 ICntrl=       500 IOpCl=  0 I1Cent=   200000004 NGrid=           0
         NMat0=    1 NMatS0=      1 NMatT0=    0 NMatD0=    1 NMtDS0=    0 NMtDT0=    0
 Petite list used in FoFCou.
 Harris En= -452.938595429690    
 JPrj=0 DoOrth=F DoCkMO=F.
 Leave Link  401 at Sun Jan 17 10:01:01 2021, MaxMem=  4026531840 cpu:              13.9 elap:               1.8
 (Enter /opt/ohpc/pub/libs/gaussian/g16-A.03/sandybridge/g16/l502.exe)
 Integral symmetry usage will be decided dynamically.
 Closed shell SCF:
 Using DIIS extrapolation, IDIIS=    10.
 NGot=  4026531840 LenX=  4026346394 LenY=  4026255953
 Requested convergence on RMS density matrix=1.00D-06 within  32 cycles.
 Requested convergence on MAX density matrix=1.00D-04.
 Requested convergence on             energy=1.00D-04.
 Virtual orbitals will be shifted by   0.500 hartree.
 No special actions if energy rises.
 Dynamic level shift is on during FON iterations.

 Cycle   1  Pass 1  IDiag  1:
 FoFJK:  IHMeth= 1 ICntrl=       0 DoSepK=T KAlg= 0 I1Cent=           0 FoldK=F
 IRaf=         1 NMat=       1 IRICut=       1 DoRegI=T DoRafI=F ISym2E= 0 IDoP0=0 IntGTp=1.
 FoFCou: FMM=F IPFlag=           0 FMFlag=      100000 FMFlg1=           0
         NFxFlg=           0 DoJE=T BraDBF=F KetDBF=F FulRan=T
         wScrn=  0.000000 ICntrl=       500 IOpCl=  0 I1Cent=           0 NGrid=           0
         NMat0=    1 NMatS0=      1 NMatT0=    0 NMatD0=    1 NMtDS0=    0 NMtDT0=    0
 Symmetry not used in FoFCou.
 E= -462.841498260449    
 DIIS: error= 2.97D-02 at cycle   1 NSaved=   1.
 NSaved= 1 IEnMin= 1 EnMin= -462.841498260449     IErMin= 1 ErrMin= 2.97D-02
 ErrMax= 2.97D-02  0.00D+00 EMaxC= 1.00D+00 BMatC= 1.71D-01 BMatP= 1.71D-01
 IDIUse=1 WtCom= 1.00D+00 WtEn= 0.00D+00
 Coeff-Com:  0.100D+01
 Coeff:      0.100D+01
 Gap=     0.324 Goal=   None    Shift=    0.500
 T= 1490. Gap= 0.812 NK=0 IS=   42 IE=  288 IFin=   41
          NO(<0.9)=   0  NV(>0.1)=   0     41.00e < EF      0.00e >EF  Err=0.0D+00
 GapD=    0.324 DampG=1.000 DampE=0.500 DampFc=0.5000 IDamp=-1.
 Damping current iteration by 5.00D-01
 RMSDP=2.96D-03 MaxDP=9.32D-02              OVMax= 6.24D-02

 Cycle   2  Pass 1  IDiag  1:
 E= -462.949762698312     Delta-E=       -0.108264437863 Rises=F Damp=T
 DIIS: error= 1.41D-02 at cycle   2 NSaved=   2.
 NSaved= 2 IEnMin= 2 EnMin= -462.949762698312     IErMin= 2 ErrMin= 1.41D-02
 ErrMax= 1.41D-02  0.00D+00 EMaxC= 1.00D+00 BMatC= 3.42D-02 BMatP= 1.71D-01
 IDIUse=1 WtCom= 1.00D+00 WtEn= 0.00D+00
 Coeff-Com: -0.706D+00 0.171D+01
 Coeff:     -0.706D+00 0.171D+01
 Gap=     0.330 Goal=   None    Shift=    0.500
 T= 1375. Gap= 0.826 NK=0 IS=   42 IE=  288 IFin=   41
          NO(<0.9)=   0  NV(>0.1)=   0     41.00e < EF      0.00e >EF  Err=0.0D+00
 GapD=    0.330 DampG=1.000 DampE=0.500 DampFc=0.5000 IDamp=-1.
 Damping current iteration by 5.00D-01
 RMSDP=1.84D-03 MaxDP=6.07D-02 DE=-1.08D-01 OVMax= 9.24D-03

 Cycle   3  Pass 1  IDiag  1:
 E= -462.989630481747     Delta-E=       -0.039867783434 Rises=F Damp=T
 DIIS: error= 6.76D-03 at cycle   3 NSaved=   3.
 NSaved= 3 IEnMin= 3 EnMin= -462.989630481747     IErMin= 3 ErrMin= 6.76D-03
 ErrMax= 6.76D-03  0.00D+00 EMaxC= 1.00D+00 BMatC= 7.44D-03 BMatP= 3.42D-02
 IDIUse=1 WtCom= 1.00D+00 WtEn= 0.00D+00
 Coeff-Com:  0.123D+00-0.123D+01 0.211D+01
 Coeff:      0.123D+00-0.123D+01 0.211D+01
 Gap=     0.327 Goal=   None    Shift=    0.500
 T= 1151. Gap= 0.826 NK=0 IS=   42 IE=  288 IFin=   41
          NO(<0.9)=   0  NV(>0.1)=   0     41.00e < EF      0.00e >EF  Err=0.0D+00
 GapD=    0.327 DampG=1.000 DampE=1.000 DampFc=1.0000 IDamp=-1.
 RMSDP=9.82D-04 MaxDP=3.16D-02 DE=-3.99D-02 OVMax= 5.08D-03

 Cycle   4  Pass 1  IDiag  1:
 E= -463.022808669506     Delta-E=       -0.033178187759 Rises=F Damp=F
 DIIS: error= 8.00D-04 at cycle   4 NSaved=   4.
 NSaved= 4 IEnMin= 4 EnMin= -463.022808669506     IErMin= 4 ErrMin= 8.00D-04
 ErrMax= 8.00D-04  0.00D+00 EMaxC= 1.00D+00 BMatC= 1.09D-04 BMatP= 7.44D-03
 IDIUse=1 WtCom= 1.00D+00 WtEn= 0.00D+00
 Coeff-Com:  0.721D-01-0.168D+00 0.780D-01 0.102D+01
 Coeff:      0.721D-01-0.168D+00 0.780D-01 0.102D+01
 Gap=     0.327 Goal=   None    Shift=    0.500
 RMSDP=1.60D-04 MaxDP=2.25D-03 DE=-3.32D-02 OVMax= 2.36D-03

 Cycle   5  Pass 1  IDiag  1:
 E= -463.022955619933     Delta-E=       -0.000146950427 Rises=F Damp=F
 DIIS: error= 4.19D-04 at cycle   5 NSaved=   5.
 NSaved= 5 IEnMin= 5 EnMin= -463.022955619933     IErMin= 5 ErrMin= 4.19D-04
 ErrMax= 4.19D-04  0.00D+00 EMaxC= 1.00D+00 BMatC= 1.45D-05 BMatP= 1.09D-04
 IDIUse=1 WtCom= 1.00D+00 WtEn= 0.00D+00
 Coeff-Com: -0.712D-02 0.147D+00-0.275D+00-0.111D+00 0.125D+01
 Coeff:     -0.712D-02 0.147D+00-0.275D+00-0.111D+00 0.125D+01
 Gap=     0.327 Goal=   None    Shift=    0.500
 RMSDP=1.18D-04 MaxDP=2.52D-03 DE=-1.47D-04 OVMax= 1.70D-03

 Cycle   6  Pass 1  IDiag  1:
 E= -463.022989901374     Delta-E=       -0.000034281442 Rises=F Damp=F
 DIIS: error= 2.69D-04 at cycle   6 NSaved=   6.
 NSaved= 6 IEnMin= 6 EnMin= -463.022989901374     IErMin= 6 ErrMin= 2.69D-04
 ErrMax= 2.69D-04  0.00D+00 EMaxC= 1.00D+00 BMatC= 3.01D-06 BMatP= 1.45D-05
 IDIUse=1 WtCom= 1.00D+00 WtEn= 0.00D+00
 Coeff-Com: -0.989D-02 0.333D-02 0.260D-01-0.128D+00-0.621D+00 0.173D+01
 Coeff:     -0.989D-02 0.333D-02 0.260D-01-0.128D+00-0.621D+00 0.173D+01
 Gap=     0.327 Goal=   None    Shift=    0.500
 RMSDP=7.93D-05 MaxDP=1.75D-03 DE=-3.43D-05 OVMax= 1.22D-03

 Cycle   7  Pass 1  IDiag  1:
 E= -463.023000556175     Delta-E=       -0.000010654800 Rises=F Damp=F
 DIIS: error= 1.79D-04 at cycle   7 NSaved=   7.
 NSaved= 7 IEnMin= 7 EnMin= -463.023000556175     IErMin= 7 ErrMin= 1.79D-04
 ErrMax= 1.79D-04  0.00D+00 EMaxC= 1.00D+00 BMatC= 8.92D-07 BMatP= 3.01D-06
 IDIUse=1 WtCom= 1.00D+00 WtEn= 0.00D+00
 Coeff-Com:  0.220D-02-0.246D-01 0.398D-01 0.205D-01-0.141D+00-0.792D+00
 Coeff-Com:  0.190D+01
 Coeff:      0.220D-02-0.246D-01 0.398D-01 0.205D-01-0.141D+00-0.792D+00
 Coeff:      0.190D+01
 Gap=     0.327 Goal=   None    Shift=    0.500
 RMSDP=4.12D-05 MaxDP=9.35D-04 DE=-1.07D-05 OVMax= 8.08D-04

 Cycle   8  Pass 1  IDiag  1:
 E= -463.023004221742     Delta-E=       -0.000003665568 Rises=F Damp=F
 DIIS: error= 1.23D-04 at cycle   8 NSaved=   8.
 NSaved= 8 IEnMin= 8 EnMin= -463.023004221742     IErMin= 8 ErrMin= 1.23D-04
 ErrMax= 1.23D-04  0.00D+00 EMaxC= 1.00D+00 BMatC= 3.01D-07 BMatP= 8.92D-07
 IDIUse=1 WtCom= 1.00D+00 WtEn= 0.00D+00
 Coeff-Com:  0.292D-02-0.510D-02-0.555D-03 0.475D-01 0.104D+00-0.663D+00
 Coeff-Com: -0.188D+00 0.170D+01
 Coeff:      0.292D-02-0.510D-02-0.555D-03 0.475D-01 0.104D+00-0.663D+00
 Coeff:     -0.188D+00 0.170D+01
 Gap=     0.327 Goal=   None    Shift=    0.500
 RMSDP=1.79D-05 MaxDP=4.17D-04 DE=-3.67D-06 OVMax= 5.68D-04

 Cycle   9  Pass 1  IDiag  1:
 E= -463.023005570716     Delta-E=       -0.000001348973 Rises=F Damp=F
 DIIS: error= 7.66D-05 at cycle   9 NSaved=   9.
 NSaved= 9 IEnMin= 9 EnMin= -463.023005570716     IErMin= 9 ErrMin= 7.66D-05
 ErrMax= 7.66D-05  0.00D+00 EMaxC= 1.00D+00 BMatC= 1.06D-07 BMatP= 3.01D-07
 IDIUse=1 WtCom= 1.00D+00 WtEn= 0.00D+00
 Coeff-Com:  0.211D-03 0.631D-02-0.130D-01 0.155D-01 0.587D-01 0.600D-01
 Coeff-Com: -0.816D+00 0.370D-01 0.165D+01
 Coeff:      0.211D-03 0.631D-02-0.130D-01 0.155D-01 0.587D-01 0.600D-01
 Coeff:     -0.816D+00 0.370D-01 0.165D+01
 Gap=     0.327 Goal=   None    Shift=    0.500
 RMSDP=6.35D-06 MaxDP=1.54D-04 DE=-1.35D-06 OVMax= 3.67D-04

 Cycle  10  Pass 1  IDiag  1:
 E= -463.023006079418     Delta-E=       -0.000000508703 Rises=F Damp=F
 DIIS: error= 4.77D-05 at cycle  10 NSaved=  10.
 NSaved=10 IEnMin=10 EnMin= -463.023006079418     IErMin=10 ErrMin= 4.77D-05
 ErrMax= 4.77D-05  0.00D+00 EMaxC= 1.00D+00 BMatC= 3.65D-08 BMatP= 1.06D-07
 IDIUse=1 WtCom= 1.00D+00 WtEn= 0.00D+00
 Coeff-Com: -0.731D-03 0.608D-03 0.163D-02-0.133D-01-0.355D-01 0.245D+00
 Coeff-Com: -0.638D-01-0.711D+00-0.640D+00 0.222D+01
 Coeff:     -0.731D-03 0.608D-03 0.163D-02-0.133D-01-0.355D-01 0.245D+00
 Coeff:     -0.638D-01-0.711D+00-0.640D+00 0.222D+01
 Gap=     0.327 Goal=   None    Shift=    0.500
 RMSDP=2.01D-06 MaxDP=4.76D-05 DE=-5.09D-07 OVMax= 2.41D-04

 Cycle  11  Pass 1  IDiag  1:
 E= -463.023006269713     Delta-E=       -0.000000190295 Rises=F Damp=F
 DIIS: error= 2.76D-05 at cycle  11 NSaved=  11.
 NSaved=11 IEnMin=11 EnMin= -463.023006269713     IErMin=11 ErrMin= 2.76D-05
 ErrMax= 2.76D-05  0.00D+00 EMaxC= 1.00D+00 BMatC= 1.19D-08 BMatP= 3.65D-08
 IDIUse=1 WtCom= 1.00D+00 WtEn= 0.00D+00
 Coeff-Com:  0.463D-04-0.120D-02 0.227D-02-0.102D-02-0.413D-02-0.232D-01
 Coeff-Com:  0.111D+00-0.349D-01-0.136D+00-0.132D+01 0.241D+01
 Coeff:      0.463D-04-0.120D-02 0.227D-02-0.102D-02-0.413D-02-0.232D-01
 Coeff:      0.111D+00-0.349D-01-0.136D+00-0.132D+01 0.241D+01
 Gap=     0.327 Goal=   None    Shift=    0.500
 RMSDP=9.66D-07 MaxDP=2.63D-05 DE=-1.90D-07 OVMax= 1.39D-04

 SCF Done:  E(RLC-wHPBE) =  -463.023006270     A.U. after   11 cycles
            NFock= 11  Conv=0.97D-06     -V/T= 2.0055
 KE= 4.604773330712D+02 PE=-2.270995506442D+03 EE= 7.490228198118D+02
 Leave Link  502 at Sun Jan 17 10:02:10 2021, MaxMem=  4026531840 cpu:             549.8 elap:              68.9
 (Enter /opt/ohpc/pub/libs/gaussian/g16-A.03/sandybridge/g16/l508.exe)
 QCSCF skips out because SCF is already converged.
 Leave Link  508 at Sun Jan 17 10:02:10 2021, MaxMem=  4026531840 cpu:               0.1 elap:               0.0
 (Enter /opt/ohpc/pub/libs/gaussian/g16-A.03/sandybridge/g16/l601.exe)
 Copying SCF densities to generalized density rwf, IOpCl= 0 IROHF=0.

 **********************************************************************

            Population analysis using the SCF density.

 **********************************************************************

 Orbital symmetries:
       Occupied  (A) (A) (A) (A) (A) (A) (A) (A) (A) (A) (A) (A)
                 (A) (A) (A) (A) (A) (A) (A) (A) (A) (A) (A) (A)
                 (A) (A) (A) (A) (A) (A) (A) (A) (A) (A) (A) (A)
                 (A) (A) (A) (A) (A)
       Virtual   (A) (A) (A) (A) (A) (A) (A) (A) (A) (A) (A) (A)
                 (A) (A) (A) (A) (A) (A) (A) (A) (A) (A) (A) (A)
                 (A) (A) (A) (A) (A) (A) (A) (A) (A) (A) (A) (A)
                 (A) (A) (A) (A) (A) (A) (A) (A) (A) (A) (A) (A)
                 (A) (A) (A) (A) (A) (A) (A) (A) (A) (A) (A) (A)
                 (A) (A) (A) (A) (A) (A) (A) (A) (A) (A) (A) (A)
                 (A) (A) (A) (A) (A) (A) (A) (A) (A) (A) (A) (A)
                 (A) (A) (A) (A) (A) (A) (A) (A) (A) (A) (A) (A)
                 (A) (A) (A) (A) (A) (A) (A) (A) (A) (A) (A) (A)
                 (A) (A) (A) (A) (A) (A) (A) (A) (A) (A) (A) (A)
                 (A) (A) (A) (A) (A) (A) (A) (A) (A) (A) (A) (A)
                 (A) (A) (A) (A) (A) (A) (A) (A) (A) (A) (A) (A)
                 (A) (A) (A) (A) (A) (A) (A) (A) (A) (A) (A) (A)
                 (A) (A) (A) (A) (A) (A) (A) (A) (A) (A) (A) (A)
                 (A) (A) (A) (A) (A) (A) (A) (A) (A) (A) (A) (A)
                 (A) (A) (A) (A) (A) (A) (A) (A) (A) (A) (A) (A)
                 (A) (A) (A) (A) (A) (A) (A) (A) (A) (A) (A) (A)
                 (A) (A) (A) (A) (A) (A) (A) (A) (A) (A) (A) (A)
                 (A) (A) (A) (A) (A) (A) (A) (A) (A) (A) (A) (A)
                 (A) (A) (A) (A) (A) (A) (A) (A) (A) (A) (A) (A)
                 (A) (A) (A) (A) (A) (A) (A)
 The electronic state is 1-A.
 Alpha  occ. eigenvalues --  -10.03476 -10.03463 -10.02364 -10.02363 -10.02360
 Alpha  occ. eigenvalues --  -10.02360 -10.02303 -10.02302 -10.02301 -10.02301
 Alpha  occ. eigenvalues --  -10.02258 -10.02258  -0.93223  -0.91066  -0.84332
 Alpha  occ. eigenvalues --   -0.81622  -0.80868  -0.78708  -0.69432  -0.68909
 Alpha  occ. eigenvalues --   -0.66117  -0.64868  -0.60858  -0.57312  -0.54133
 Alpha  occ. eigenvalues --   -0.53828  -0.51226  -0.51199  -0.49658  -0.49266
 Alpha  occ. eigenvalues --   -0.48976  -0.46297  -0.44697  -0.43678  -0.42216
 Alpha  occ. eigenvalues --   -0.40767  -0.40573  -0.35783  -0.33467  -0.33418
 Alpha  occ. eigenvalues --   -0.30497
 Alpha virt. eigenvalues --    0.02233   0.04700   0.04941   0.07912   0.11835
 Alpha virt. eigenvalues --    0.12372   0.13985   0.15277   0.15798   0.17317
 Alpha virt. eigenvalues --    0.17610   0.18463   0.18859   0.19401   0.21590
 Alpha virt. eigenvalues --    0.22048   0.22063   0.22443   0.27074   0.27283
 Alpha virt. eigenvalues --    0.27349   0.27539   0.29292   0.29496   0.29691
 Alpha virt. eigenvalues --    0.29698   0.30685   0.30787   0.31899   0.31924
 Alpha virt. eigenvalues --    0.33022   0.33893   0.35150   0.35226   0.36004
 Alpha virt. eigenvalues --    0.36685   0.38190   0.39098   0.40753   0.41415
 Alpha virt. eigenvalues --    0.41683   0.42225   0.43205   0.43787   0.43877
 Alpha virt. eigenvalues --    0.44649   0.45869   0.47435   0.47726   0.48210
 Alpha virt. eigenvalues --    0.48230   0.48706   0.48818   0.49104   0.49772
 Alpha virt. eigenvalues --    0.52088   0.52655   0.52815   0.54660   0.54706
 Alpha virt. eigenvalues --    0.55693   0.56044   0.56416   0.57635   0.59099
 Alpha virt. eigenvalues --    0.59346   0.59522   0.59767   0.61650   0.65318
 Alpha virt. eigenvalues --    0.65729   0.68701   0.70253   0.72294   0.73190
 Alpha virt. eigenvalues --    0.75473   0.75661   0.76037   0.77027   0.77369
 Alpha virt. eigenvalues --    0.77906   0.81346   0.83715   0.86927   0.89063
 Alpha virt. eigenvalues --    0.94873   0.96171   1.15406   1.24863   1.25730
 Alpha virt. eigenvalues --    1.29080   1.29305   1.29778   1.30124   1.30603
 Alpha virt. eigenvalues --    1.30728   1.32152   1.33862   1.34467   1.35301
 Alpha virt. eigenvalues --    1.35436   1.36200   1.36694   1.37254   1.37286
 Alpha virt. eigenvalues --    1.37698   1.38349   1.39478   1.41341   1.46295
 Alpha virt. eigenvalues --    1.46414   1.47710   1.47941   1.49618   1.49834
 Alpha virt. eigenvalues --    1.49891   1.50003   1.51590   1.52090   1.52656
 Alpha virt. eigenvalues --    1.53176   1.53226   1.54690   1.54716   1.54802
 Alpha virt. eigenvalues --    1.56882   1.57191   1.57617   1.58795   1.59013
 Alpha virt. eigenvalues --    1.61241   1.62055   1.62522   1.62931   1.64084
 Alpha virt. eigenvalues --    1.64155   1.70287   1.71165   1.74718   1.79004
 Alpha virt. eigenvalues --    1.81647   1.82715   1.82870   1.82943   1.84238
 Alpha virt. eigenvalues --    1.85296   1.86105   1.86647   1.91416   1.92527
 Alpha virt. eigenvalues --    1.92547   1.93128   1.93138   1.93525   1.95362
 Alpha virt. eigenvalues --    1.95712   1.95948   1.96450   1.96936   1.99135
 Alpha virt. eigenvalues --    1.99614   1.99961   2.02752   2.03787   2.04705
 Alpha virt. eigenvalues --    2.05840   2.06584   2.06811   2.13750   2.14609
 Alpha virt. eigenvalues --    2.16553   2.29046   2.30876   2.31140   2.33289
 Alpha virt. eigenvalues --    2.33595   2.34005   2.35520   2.35549   2.38454
 Alpha virt. eigenvalues --    2.38782   2.38903   2.38937   2.39881   2.40853
 Alpha virt. eigenvalues --    2.41226   2.49064   2.52385   2.53407   2.53539
 Alpha virt. eigenvalues --    2.55201   2.56685   2.57494   2.57956   2.62712
 Alpha virt. eigenvalues --    2.64650   2.67862   2.68149   2.68696   2.68850
 Alpha virt. eigenvalues --    2.70874   2.72805   2.73176   2.73732   2.74828
 Alpha virt. eigenvalues --    2.78388   2.83993   2.84026   2.84465   2.87295
 Alpha virt. eigenvalues --    3.01903   3.02580   3.04599   3.07492   3.07695
 Alpha virt. eigenvalues --    3.08002   3.10317   3.12801   3.14618   3.15713
 Alpha virt. eigenvalues --    3.18856   3.19343   3.21624   3.21990   3.24269
 Alpha virt. eigenvalues --    3.25521   3.34261   3.36960   3.37544   3.43605
 Alpha virt. eigenvalues --    3.44269   3.55526   3.58886   3.76545   3.85878
 Alpha virt. eigenvalues --   21.04159  21.32064  21.59418  21.69046  21.71956
 Alpha virt. eigenvalues --   21.79190  21.91687  21.93867  21.96707  21.99257
 Alpha virt. eigenvalues --   22.08402  22.11420
          Condensed to atoms (all electrons):
               1          2          3          4          5          6
     1  C    4.979530   0.476179   0.411647  -0.011087  -0.012763  -0.104019
     2  C    0.476179   4.966891  -0.027500   0.476129  -0.069666  -0.027427
     3  C    0.411647  -0.027500   5.159294  -0.103943   0.436057  -0.036324
     4  C   -0.011087   0.476129  -0.103943   4.979582  -0.012761   0.411549
     5  C   -0.012763  -0.069666   0.436057  -0.012761   5.302576   0.435916
     6  C   -0.104019  -0.027427  -0.036324   0.411549   0.435916   5.159533
     7  H   -0.057174   0.418673   0.017331  -0.057181  -0.004206   0.017336
     8  H   -0.031596   0.009749   0.398953  -0.001507  -0.049219   0.014076
     9  H    0.012499  -0.054651  -0.000564   0.411939   0.013977  -0.049396
    10  H   -0.001504   0.009741   0.014072  -0.031562  -0.049194   0.398924
    11  C    0.021167   0.004213  -0.089026   0.021166   0.162515  -0.088999
    12  C   -0.000052  -0.000211   0.021878   0.002878  -0.088994  -0.018049
    13  C    0.002845  -0.000197  -0.018021  -0.000067  -0.089070   0.021940
    14  C    0.000066   0.000004  -0.000061  -0.000267   0.021180   0.002848
    15  C   -0.000268   0.000005   0.002870   0.000064   0.021180  -0.000064
    16  C    0.000004  -0.000007  -0.000207   0.000005   0.004204  -0.000199
    17  H   -0.000035   0.000020  -0.000384   0.000727  -0.016532   0.003935
    18  H    0.000730   0.000019   0.003921  -0.000033  -0.016524  -0.000387
    19  H   -0.000001   0.000000   0.000018  -0.000006  -0.001309   0.000002
    20  H   -0.000006   0.000000   0.000002  -0.000001  -0.001309   0.000017
    21  H    0.000000  -0.000000  -0.000004   0.000000  -0.000135  -0.000004
    22  H    0.411937  -0.054647  -0.049399   0.012498   0.013979  -0.000565
               7          8          9         10         11         12
     1  C   -0.057174  -0.031596   0.012499  -0.001504   0.021167  -0.000052
     2  C    0.418673   0.009749  -0.054651   0.009741   0.004213  -0.000211
     3  C    0.017331   0.398953  -0.000564   0.014072  -0.089026   0.021878
     4  C   -0.057181  -0.001507   0.411939  -0.031562   0.021166   0.002878
     5  C   -0.004206  -0.049219   0.013977  -0.049194   0.162515  -0.088994
     6  C    0.017336   0.014076  -0.049396   0.398924  -0.088999  -0.018049
     7  H    0.568546  -0.000192  -0.007552  -0.000192  -0.000135  -0.000004
     8  H   -0.000192   0.541601   0.000032  -0.000158  -0.016520  -0.000383
     9  H   -0.007552   0.000032   0.571105  -0.006062  -0.001309   0.000002
    10  H   -0.000192  -0.000158  -0.006062   0.541580  -0.016538   0.003927
    11  C   -0.000135  -0.016520  -0.001309  -0.016538   5.302464   0.436113
    12  C   -0.000004  -0.000383   0.000002   0.003927   0.436113   5.159214
    13  C   -0.000004   0.003934   0.000017  -0.000386   0.435994  -0.036362
    14  C    0.000000  -0.000035  -0.000006   0.000728  -0.012808   0.411711
    15  C    0.000000   0.000726  -0.000001  -0.000034  -0.012788  -0.103929
    16  C   -0.000000   0.000020   0.000000   0.000020  -0.069632  -0.027552
    17  H   -0.000002  -0.000027   0.000007   0.000604  -0.049214   0.398946
    18  H   -0.000002   0.000604   0.000000  -0.000027  -0.049184   0.014070
    19  H   -0.000000   0.000000  -0.000000   0.000007   0.013975  -0.049387
    20  H   -0.000000   0.000007   0.000000   0.000000   0.013978  -0.000563
    21  H   -0.000000  -0.000002  -0.000000  -0.000002  -0.004205   0.017332
    22  H   -0.007553  -0.006063  -0.000221   0.000032  -0.001309   0.000018
              13         14         15         16         17         18
     1  C    0.002845   0.000066  -0.000268   0.000004  -0.000035   0.000730
     2  C   -0.000197   0.000004   0.000005  -0.000007   0.000020   0.000019
     3  C   -0.018021  -0.000061   0.002870  -0.000207  -0.000384   0.003921
     4  C   -0.000067  -0.000267   0.000064   0.000005   0.000727  -0.000033
     5  C   -0.089070   0.021180   0.021180   0.004204  -0.016532  -0.016524
     6  C    0.021940   0.002848  -0.000064  -0.000199   0.003935  -0.000387
     7  H   -0.000004   0.000000   0.000000  -0.000000  -0.000002  -0.000002
     8  H    0.003934  -0.000035   0.000726   0.000020  -0.000027   0.000604
     9  H    0.000017  -0.000006  -0.000001   0.000000   0.000007   0.000000
    10  H   -0.000386   0.000728  -0.000034   0.000020   0.000604  -0.000027
    11  C    0.435994  -0.012808  -0.012788  -0.069632  -0.049214  -0.049184
    12  C   -0.036362   0.411711  -0.103929  -0.027552   0.398946   0.014070
    13  C    5.159509  -0.103975   0.411552  -0.027439   0.014074   0.398919
    14  C   -0.103975   4.979483  -0.011119   0.476211  -0.031581  -0.001503
    15  C    0.411552  -0.011119   4.979566   0.476174  -0.001506  -0.031568
    16  C   -0.027439   0.476211   0.476174   4.966842   0.009746   0.009739
    17  H    0.014074  -0.031581  -0.001506   0.009746   0.541593  -0.000158
    18  H    0.398919  -0.001503  -0.031568   0.009739  -0.000158   0.541579
    19  H   -0.000564   0.411929   0.012496  -0.054645  -0.006062   0.000032
    20  H   -0.049405   0.012498   0.411942  -0.054647   0.000032  -0.006062
    21  H    0.017334  -0.057172  -0.057179   0.418671  -0.000192  -0.000192
    22  H    0.000001  -0.000001  -0.000006   0.000000   0.000000   0.000007
              19         20         21         22
     1  C   -0.000001  -0.000006   0.000000   0.411937
     2  C    0.000000   0.000000  -0.000000  -0.054647
     3  C    0.000018   0.000002  -0.000004  -0.049399
     4  C   -0.000006  -0.000001   0.000000   0.012498
     5  C   -0.001309  -0.001309  -0.000135   0.013979
     6  C    0.000002   0.000017  -0.000004  -0.000565
     7  H   -0.000000  -0.000000  -0.000000  -0.007553
     8  H    0.000000   0.000007  -0.000002  -0.006063
     9  H   -0.000000   0.000000  -0.000000  -0.000221
    10  H    0.000007   0.000000  -0.000002   0.000032
    11  C    0.013975   0.013978  -0.004205  -0.001309
    12  C   -0.049387  -0.000563   0.017332   0.000018
    13  C   -0.000564  -0.049405   0.017334   0.000001
    14  C    0.411929   0.012498  -0.057172  -0.000001
    15  C    0.012496   0.411942  -0.057179  -0.000006
    16  C   -0.054645  -0.054647   0.418671   0.000000
    17  H   -0.006062   0.000032  -0.000192   0.000000
    18  H    0.000032  -0.006062  -0.000192   0.000007
    19  H    0.571106  -0.000221  -0.007552   0.000000
    20  H   -0.000221   0.571108  -0.007552  -0.000000
    21  H   -0.007552  -0.007552   0.568545  -0.000000
    22  H    0.000000  -0.000000  -0.000000   0.571109
 Mulliken charges:
               1
     1  C   -0.098099
     2  C   -0.127318
     3  C   -0.140611
     4  C   -0.098123
     5  C    0.000099
     6  C   -0.140644
     7  H    0.112309
     8  H    0.135999
     9  H    0.110181
    10  H    0.136023
    11  C    0.000083
    12  C   -0.140601
    13  C   -0.140628
    14  C   -0.098129
    15  C   -0.098112
    16  C   -0.127309
    17  H    0.136008
    18  H    0.136019
    19  H    0.110181
    20  H    0.110180
    21  H    0.112310
    22  H    0.110181
 Sum of Mulliken charges =  -0.00000
 Mulliken charges with hydrogens summed into heavy atoms:
               1
     1  C    0.012083
     2  C   -0.015009
     3  C   -0.004612
     4  C    0.012058
     5  C    0.000099
     6  C   -0.004621
    11  C    0.000083
    12  C   -0.004593
    13  C   -0.004609
    14  C    0.012051
    15  C    0.012069
    16  C   -0.015000
 Electronic spatial extent (au):  <R**2>=           2313.8314
 Charge=             -0.0000 electrons
 Dipole moment (field-independent basis, Debye):
    X=             -0.0000    Y=              0.0001    Z=              0.0003  Tot=              0.0003
 Quadrupole moment (field-independent basis, Debye-Ang):
   XX=            -61.7857   YY=            -63.4561   ZZ=            -75.1801
   XY=              0.0005   XZ=              0.0005   YZ=             -0.0002
 Traceless Quadrupole moment (field-independent basis, Debye-Ang):
   XX=              5.0216   YY=              3.3512   ZZ=             -8.3729
   XY=              0.0005   XZ=              0.0005   YZ=             -0.0002
 Octapole moment (field-independent basis, Debye-Ang**2):
  XXX=             -0.0002  YYY=              0.0015  ZZZ=              0.0005  XYY=             -0.0005
  XXY=              0.0009  XXZ=              0.0077  XZZ=              0.0002  YZZ=             -0.0009
  YYZ=              0.0003  XYZ=            -11.9366
 Hexadecapole moment (field-independent basis, Debye-Ang**3):
 XXXX=          -2313.4829 YYYY=           -503.0086 ZZZZ=           -156.7469 XXXY=             -0.0038
 XXXZ=              0.0048 YYYX=              0.0082 YYYZ=             -0.0007 ZZZX=              0.0017
 ZZZY=             -0.0007 XXYY=           -479.1430 XXZZ=           -495.7863 YYZZ=           -112.6162
 XXYZ=             -0.0004 YYXZ=              0.0021 ZZXY=             -0.0020
 N-N= 5.984723472889D+02 E-N=-2.270995374974D+03  KE= 4.604773330712D+02
 No NMR shielding tensors so no spin-rotation constants.
 Leave Link  601 at Sun Jan 17 10:02:10 2021, MaxMem=  4026531840 cpu:               2.1 elap:               0.4
 (Enter /opt/ohpc/pub/libs/gaussian/g16-A.03/sandybridge/g16/l9999.exe)

 Test job not archived.
 1\1\GINC-CASCADEB028\SP\RLC-wHPBE\TZVP\C12H10\RDU230\17-Jan-2021\0\\#P
  LC-wHPBE/TZVP iop(3/107=0235000000, 3/108=0235000000) scf=(conver=6,f
 ermi,ndamp=35,noincfock,novaracc,vshift=500,xqc)\\H10 C12\\0,1\C,0,-2.
 8585,1.132993,0.41369\C,0,-3.561927,-0.000084,-0.000146\C,0,-1.463685,
 1.132747,0.413534\C,0,-2.858269,-1.133176,-0.413741\C,0,-0.742381,0.00
 0123,0.000091\C,0,-1.463491,-1.132675,-0.413489\H,0,-4.653174,-0.00016
 ,-0.000261\H,0,-0.922222,2.014213,0.762301\H,0,-3.398792,-2.020986,-0.
 747134\H,0,-0.921754,-2.014027,-0.762095\C,0,0.742385,0.000142,0.00019
 7\C,0,1.463539,-1.132637,0.413582\C,0,1.463636,1.132765,-0.413477\C,0,
 2.858357,-1.133114,0.41366\C,0,2.858412,1.133073,-0.413706\C,0,3.56193
 1,-0.000095,-0.000087\H,0,0.921935,-2.014039,0.762261\H,0,0.922017,2.0
 14128,-0.762265\H,0,3.398826,-2.021,0.746938\H,0,3.399026,2.020805,-0.
 747168\H,0,4.653184,-0.000117,-0.000198\H,0,-3.399078,2.020813,0.74697
 4\\Version=EM64L-G16RevA.03\State=1-A\HF=-463.0230063\RMSD=9.664e-07\D
 ipole=-0.0000098,-0.0000428,-0.0001185\Quadrupole=3.733458,2.4915538,-
 6.2250117,-0.0003684,-0.0004039,-0.0001379\PG=C01 [X(C12H10)]\\@


 REFRAIN FROM ILLUSIONS, INSIST ON WORK AND NOT WORDS,
 PATIENTLY SEEK DIVINE AND SCIENTIFIC TRUTH.
 LAST WORDS OF MARIA MENDELEEVA TO HER SON DMITRI, C. 1850
 Job cpu time:       0 days  0 hours  9 minutes 33.5 seconds.
 Elapsed time:       0 days  0 hours  1 minutes 12.4 seconds.
 File lengths (MBytes):  RWF=     88 Int=      0 D2E=      0 Chk=     12 Scr=      8
 Normal termination of Gaussian 16 at Sun Jan 17 10:02:11 2021.
