 Entering Gaussian System, Link 0=g16
 Input=mol_bp_NN_frag_tune_c4.gjf
 Output=mol_bp_NN_frag_tune_c4.log
 Initial command:
 /opt/ohpc/pub/libs/gaussian/g16-A.03/sandybridge/g16/l1.exe "/mnt/gpfs2_4m/scratch/rdu230/ondemand/projects/init_structures/wtuning/mol_bp_NN_frag/tuning_mol_bp_NN_frag_ocycle0/Gau-299512.inp" -scrdir="/mnt/gpfs2_4m/scratch/rdu230/ondemand/projects/init_structures/wtuning/mol_bp_NN_frag/tuning_mol_bp_NN_frag_ocycle0/"
 Entering Link 1 = /opt/ohpc/pub/libs/gaussian/g16-A.03/sandybridge/g16/l1.exe PID=    299513.
  
 Copyright (c) 1988,1990,1992,1993,1995,1998,2003,2009,2016,
            Gaussian, Inc.  All Rights Reserved.
  
 This is part of the Gaussian(R) 16 program.  It is based on
 the Gaussian(R) 09 system (copyright 2009, Gaussian, Inc.),
 the Gaussian(R) 03 system (copyright 2003, Gaussian, Inc.),
 the Gaussian(R) 98 system (copyright 1998, Gaussian, Inc.),
 the Gaussian(R) 94 system (copyright 1995, Gaussian, Inc.),
 the Gaussian 92(TM) system (copyright 1992, Gaussian, Inc.),
 the Gaussian 90(TM) system (copyright 1990, Gaussian, Inc.),
 the Gaussian 88(TM) system (copyright 1988, Gaussian, Inc.),
 the Gaussian 86(TM) system (copyright 1986, Carnegie Mellon
 University), and the Gaussian 82(TM) system (copyright 1983,
 Carnegie Mellon University). Gaussian is a federally registered
 trademark of Gaussian, Inc.
  
 This software contains proprietary and confidential information,
 including trade secrets, belonging to Gaussian, Inc.
  
 This software is provided under written license and may be
 used, copied, transmitted, or stored only in accord with that
 written license.
  
 The following legend is applicable only to US Government
 contracts under FAR:
  
                    RESTRICTED RIGHTS LEGEND
  
 Use, reproduction and disclosure by the US Government is
 subject to restrictions as set forth in subparagraphs (a)
 and (c) of the Commercial Computer Software - Restricted
 Rights clause in FAR 52.227-19.
  
 Gaussian, Inc.
 340 Quinnipiac St., Bldg. 40, Wallingford CT 06492
  
  
 ---------------------------------------------------------------
 Warning -- This program may not be used in any manner that
 competes with the business of Gaussian, Inc. or will provide
 assistance to any competitor of Gaussian, Inc.  The licensee
 of this program is prohibited from giving any competitor of
 Gaussian, Inc. access to this program.  By using this program,
 the user acknowledges that Gaussian, Inc. is engaged in the
 business of creating and licensing software in the field of
 computational chemistry and represents and warrants to the
 licensee that it is not a competitor of Gaussian, Inc. and that
 it will not use this program in any manner prohibited above.
 ---------------------------------------------------------------
  

 Cite this work as:
 Gaussian 16, Revision A.03,
 M. J. Frisch, G. W. Trucks, H. B. Schlegel, G. E. Scuseria, 
 M. A. Robb, J. R. Cheeseman, G. Scalmani, V. Barone, 
 G. A. Petersson, H. Nakatsuji, X. Li, M. Caricato, A. V. Marenich, 
 J. Bloino, B. G. Janesko, R. Gomperts, B. Mennucci, H. P. Hratchian, 
 J. V. Ortiz, A. F. Izmaylov, J. L. Sonnenberg, D. Williams-Young, 
 F. Ding, F. Lipparini, F. Egidi, J. Goings, B. Peng, A. Petrone, 
 T. Henderson, D. Ranasinghe, V. G. Zakrzewski, J. Gao, N. Rega, 
 G. Zheng, W. Liang, M. Hada, M. Ehara, K. Toyota, R. Fukuda, 
 J. Hasegawa, M. Ishida, T. Nakajima, Y. Honda, O. Kitao, H. Nakai, 
 T. Vreven, K. Throssell, J. A. Montgomery, Jr., J. E. Peralta, 
 F. Ogliaro, M. J. Bearpark, J. J. Heyd, E. N. Brothers, K. N. Kudin, 
 V. N. Staroverov, T. A. Keith, R. Kobayashi, J. Normand, 
 K. Raghavachari, A. P. Rendell, J. C. Burant, S. S. Iyengar, 
 J. Tomasi, M. Cossi, J. M. Millam, M. Klene, C. Adamo, R. Cammi, 
 J. W. Ochterski, R. L. Martin, K. Morokuma, O. Farkas, 
 J. B. Foresman, and D. J. Fox, Gaussian, Inc., Wallingford CT, 2016.
 
 ******************************************
 Gaussian 16:  EM64L-G16RevA.03 25-Dec-2016
                17-Jan-2021 
 ******************************************
 %mem=30GB
 %nproc=8
 Will use up to    8 processors via shared memory.
 ----------------------------------------------------------------------
 #P LC-wHPBE/TZVP iop(3/107=0237800000, 3/108=0237800000) scf=(conver=6
 ,fermi,ndamp=35,noincfock,novaracc,vshift=500,xqc)
 ----------------------------------------------------------------------
 1/38=1,172=1/1;
 2/12=2,17=6,18=5,40=1/2;
 3/5=19,7=101,11=2,25=1,30=1,74=-71,107=237800000,108=237800000/1,2,3;
 4//1;
 5/5=100002,6=6,8=3,10=500,13=1,18=-1,22=13,38=1,93=35/2,8;
 6/7=2,8=2,9=2,10=2,28=1/1;
 99/5=1,9=1/99;
 Leave Link    1 at Sun Jan 17 09:51:17 2021, MaxMem=  4026531840 cpu:               0.8 elap:               0.1
 (Enter /opt/ohpc/pub/libs/gaussian/g16-A.03/sandybridge/g16/l101.exe)
 -------
 H10 C12
 -------
 Symbolic Z-matrix:
 Charge =  1 Multiplicity = 2
 C                    -2.8585    1.13299   0.41369 
 C                    -3.56193  -0.00008  -0.00015 
 C                    -1.46369   1.13275   0.41353 
 C                    -2.85827  -1.13318  -0.41374 
 C                    -0.74238   0.00012   0.00009 
 C                    -1.46349  -1.13268  -0.41349 
 H                    -4.65317  -0.00016  -0.00026 
 H                    -0.92222   2.01421   0.7623 
 H                    -3.39879  -2.02099  -0.74713 
 H                    -0.92175  -2.01403  -0.7621 
 C                     0.74239   0.00014   0.0002 
 C                     1.46354  -1.13264   0.41358 
 C                     1.46364   1.13277  -0.41348 
 C                     2.85836  -1.13311   0.41366 
 C                     2.85841   1.13307  -0.41371 
 C                     3.56193  -0.0001   -0.00009 
 H                     0.92194  -2.01404   0.76226 
 H                     0.92202   2.01413  -0.76227 
 H                     3.39883  -2.021     0.74694 
 H                     3.39903   2.02081  -0.74717 
 H                     4.65318  -0.00012  -0.0002 
 H                    -3.39908   2.02081   0.74697 
 
 ITRead=  0  0  0  0  0  0  0  0  0  0  0  0  0  0  0  0  0  0  0  0
 ITRead=  0  0
 MicOpt= -1 -1 -1 -1 -1 -1 -1 -1 -1 -1 -1 -1 -1 -1 -1 -1 -1 -1 -1 -1
 MicOpt= -1 -1
 NAtoms=     22 NQM=       22 NQMF=       0 NMMI=      0 NMMIF=      0
                NMic=       0 NMicF=      0.
                    Isotopes and Nuclear Properties:
 (Nuclear quadrupole moments (NQMom) in fm**2, nuclear magnetic moments (NMagM)
  in nuclear magnetons)

  Atom         1           2           3           4           5           6           7           8           9          10
 IAtWgt=          12          12          12          12          12          12           1           1           1           1
 AtmWgt=  12.0000000  12.0000000  12.0000000  12.0000000  12.0000000  12.0000000   1.0078250   1.0078250   1.0078250   1.0078250
 NucSpn=           0           0           0           0           0           0           1           1           1           1
 AtZEff=  -0.0000000  -0.0000000  -0.0000000  -0.0000000  -0.0000000  -0.0000000  -0.0000000  -0.0000000  -0.0000000  -0.0000000
 NQMom=    0.0000000   0.0000000   0.0000000   0.0000000   0.0000000   0.0000000   0.0000000   0.0000000   0.0000000   0.0000000
 NMagM=    0.0000000   0.0000000   0.0000000   0.0000000   0.0000000   0.0000000   2.7928460   2.7928460   2.7928460   2.7928460
 AtZNuc=   6.0000000   6.0000000   6.0000000   6.0000000   6.0000000   6.0000000   1.0000000   1.0000000   1.0000000   1.0000000

  Atom        11          12          13          14          15          16          17          18          19          20
 IAtWgt=          12          12          12          12          12          12           1           1           1           1
 AtmWgt=  12.0000000  12.0000000  12.0000000  12.0000000  12.0000000  12.0000000   1.0078250   1.0078250   1.0078250   1.0078250
 NucSpn=           0           0           0           0           0           0           1           1           1           1
 AtZEff=  -0.0000000  -0.0000000  -0.0000000  -0.0000000  -0.0000000  -0.0000000  -0.0000000  -0.0000000  -0.0000000  -0.0000000
 NQMom=    0.0000000   0.0000000   0.0000000   0.0000000   0.0000000   0.0000000   0.0000000   0.0000000   0.0000000   0.0000000
 NMagM=    0.0000000   0.0000000   0.0000000   0.0000000   0.0000000   0.0000000   2.7928460   2.7928460   2.7928460   2.7928460
 AtZNuc=   6.0000000   6.0000000   6.0000000   6.0000000   6.0000000   6.0000000   1.0000000   1.0000000   1.0000000   1.0000000

  Atom        21          22
 IAtWgt=           1           1
 AtmWgt=   1.0078250   1.0078250
 NucSpn=           1           1
 AtZEff=  -0.0000000  -0.0000000
 NQMom=    0.0000000   0.0000000
 NMagM=    2.7928460   2.7928460
 AtZNuc=   1.0000000   1.0000000
 Leave Link  101 at Sun Jan 17 09:51:17 2021, MaxMem=  4026531840 cpu:               0.6 elap:               0.1
 (Enter /opt/ohpc/pub/libs/gaussian/g16-A.03/sandybridge/g16/l202.exe)
                          Input orientation:                          
 ---------------------------------------------------------------------
 Center     Atomic      Atomic             Coordinates (Angstroms)
 Number     Number       Type             X           Y           Z
 ---------------------------------------------------------------------
      1          6           0       -2.858500    1.132993    0.413690
      2          6           0       -3.561927   -0.000084   -0.000146
      3          6           0       -1.463685    1.132747    0.413534
      4          6           0       -2.858269   -1.133176   -0.413741
      5          6           0       -0.742381    0.000123    0.000091
      6          6           0       -1.463491   -1.132675   -0.413489
      7          1           0       -4.653174   -0.000160   -0.000261
      8          1           0       -0.922222    2.014213    0.762301
      9          1           0       -3.398792   -2.020986   -0.747134
     10          1           0       -0.921754   -2.014027   -0.762095
     11          6           0        0.742385    0.000142    0.000197
     12          6           0        1.463539   -1.132637    0.413582
     13          6           0        1.463636    1.132765   -0.413477
     14          6           0        2.858357   -1.133114    0.413660
     15          6           0        2.858412    1.133073   -0.413706
     16          6           0        3.561931   -0.000095   -0.000087
     17          1           0        0.921935   -2.014039    0.762261
     18          1           0        0.922017    2.014128   -0.762265
     19          1           0        3.398826   -2.021000    0.746938
     20          1           0        3.399026    2.020805   -0.747168
     21          1           0        4.653184   -0.000117   -0.000198
     22          1           0       -3.399078    2.020813    0.746974
 ---------------------------------------------------------------------
                    Distance matrix (angstroms):
                    1          2          3          4          5
     1  C    0.000000
     2  C    1.396400   0.000000
     3  C    1.394815   2.420136   0.000000
     4  C    2.412502   1.396457   2.786334   0.000000
     5  C    2.435656   2.819546   1.405010   2.435694   0.000000
     6  C    2.786311   2.420134   2.411660   1.394778   1.405091
     7  H    2.162463   1.091247   3.409919   2.162493   3.910793
     8  H    2.155748   3.406870   1.091697   3.877810   2.160987
     9  H    3.403970   2.160706   3.877863   1.091569   3.420489
    10  H    3.877782   3.406912   3.402643   2.155769   2.160996
    11  C    3.797460   4.304312   2.514038   3.797429   1.484766
    12  C    4.879867   5.168090   3.701433   4.400283   2.514001
    13  C    4.400576   5.168218   3.041900   4.879893   2.514046
    14  C    6.149609   6.532613   4.879977   5.776193   3.797444
    15  C    5.776475   6.532674   4.400551   6.149498   3.797435
    16  C    6.532766   7.123858   5.168291   6.532530   4.304312
    17  H    4.931227   4.974163   3.964222   4.055717   2.721709
    18  H    4.056054   4.974297   2.801947   4.931283   2.721695
    19  H    7.015187   7.286585   5.805281   6.425468   4.668224
    20  H    6.425919   7.286762   5.077582   7.015163   4.668276
    21  H    7.607933   8.215111   6.234632   7.607678   5.395565
    22  H    1.091571   2.160725   2.155363   3.404024   3.420389
                    6          7          8          9         10
     6  C    0.000000
     7  H    3.409901   0.000000
     8  H    3.402699   4.308039   0.000000
     9  H    2.155413   2.492996   4.969369   0.000000
    10  H    1.091690   4.308079   4.307029   2.477093   0.000000
    11  C    2.514021   5.395559   2.721801   4.668277   2.721640
    12  C    3.041636   6.234416   3.964357   5.077272   2.801551
    13  C    3.701390   6.234551   2.802093   5.805229   3.964079
    14  C    4.400289   7.607760   4.931531   6.425548   4.055570
    15  C    4.879801   7.607830   4.056180   7.015117   4.931051
    16  C    5.168027   8.215105   4.974565   7.286545   4.973933
    17  H    2.801687   5.976537   4.430319   4.576790   2.392248
    18  H    3.964172   5.976685   2.392806   5.912002   4.430070
    19  H    5.077188   8.335275   5.912245   6.959875   4.576532
    20  H    5.805157   8.335472   4.577305   7.908628   5.911788
    21  H    6.234357   9.306358   5.976963   8.335235   5.976308
    22  H    3.877842   2.493080   2.476912   4.309118   4.969342
                   11         12         13         14         15
    11  C    0.000000
    12  C    1.405040   0.000000
    13  C    1.405049   2.411654   0.000000
    14  C    2.435684   1.394818   2.786326   0.000000
    15  C    2.435656   2.786309   1.394776   2.412496   0.000000
    16  C    2.819546   2.420129   2.420146   1.396401   1.396456
    17  H    2.160996   1.091687   3.402672   2.155755   3.877777
    18  H    2.160962   3.402645   1.091698   3.877801   2.155778
    19  H    3.420426   2.155377   3.877855   1.091569   3.404015
    20  H    3.420435   3.877840   2.155388   3.403976   1.091572
    21  H    3.910799   3.409934   3.409903   2.162490   2.162479
    22  H    4.668244   5.805208   5.077525   7.015258   6.425842
                   16         17         18         19         20
    16  C    0.000000
    17  H    3.406864   0.000000
    18  H    3.406928   4.307007   0.000000
    19  H    2.160719   2.476948   4.969360   0.000000
    20  H    2.160719   4.969338   2.477064   4.309123   0.000000
    21  H    1.091253   4.308067   4.308078   2.493109   2.492991
    22  H    7.286825   5.911972   4.577085   7.908714   6.960365
                   21         22
    21  H    0.000000
    22  H    8.335547   0.000000
 Stoichiometry    C12H10(1+,2)
 Framework group  C1[X(C12H10)]
 Deg. of freedom    60
 Full point group                 C1      NOp   1
 Largest Abelian subgroup         C1      NOp   1
 Largest concise Abelian subgroup C1      NOp   1
                         Standard orientation:                         
 ---------------------------------------------------------------------
 Center     Atomic      Atomic             Coordinates (Angstroms)
 Number     Number       Type             X           Y           Z
 ---------------------------------------------------------------------
      1          6           0       -2.858500   -1.132993   -0.413690
      2          6           0       -3.561927    0.000084    0.000146
      3          6           0       -1.463685   -1.132747   -0.413534
      4          6           0       -2.858269    1.133176    0.413741
      5          6           0       -0.742381   -0.000123   -0.000091
      6          6           0       -1.463491    1.132675    0.413489
      7          1           0       -4.653174    0.000160    0.000261
      8          1           0       -0.922222   -2.014213   -0.762301
      9          1           0       -3.398792    2.020986    0.747134
     10          1           0       -0.921754    2.014027    0.762095
     11          6           0        0.742385   -0.000142   -0.000197
     12          6           0        1.463539    1.132637   -0.413582
     13          6           0        1.463636   -1.132765    0.413477
     14          6           0        2.858357    1.133114   -0.413660
     15          6           0        2.858412   -1.133073    0.413706
     16          6           0        3.561931    0.000095    0.000087
     17          1           0        0.921935    2.014039   -0.762261
     18          1           0        0.922017   -2.014128    0.762265
     19          1           0        3.398826    2.021000   -0.746938
     20          1           0        3.399026   -2.020805    0.747168
     21          1           0        4.653184    0.000117    0.000198
     22          1           0       -3.399078   -2.020813   -0.746974
 ---------------------------------------------------------------------
 Rotational constants (GHZ):           2.8545349           0.5449545           0.4756990
 Leave Link  202 at Sun Jan 17 09:51:17 2021, MaxMem=  4026531840 cpu:               0.2 elap:               0.0
 (Enter /opt/ohpc/pub/libs/gaussian/g16-A.03/sandybridge/g16/l301.exe)
 Standard basis: TZVP (5D, 7F)
 Ernie: Thresh=  0.10000D-02 Tol=  0.10000D-05 Strict=F.
 There are   300 symmetry adapted cartesian basis functions of A   symmetry.
 There are   288 symmetry adapted basis functions of A   symmetry.
   288 basis functions,   500 primitive gaussians,   300 cartesian basis functions
    41 alpha electrons       40 beta electrons
       nuclear repulsion energy       598.4723472889 Hartrees.
 IExCor=33909 DFT=T Ex+Corr=LC-wHPBE ExCW=0 ScaHFX=  1.000000
 ScaDFX=  1.000000  1.000000  1.000000  1.000000 ScalE2=  1.000000  1.000000
 IRadAn=      5 IRanWt=     -1 IRanGd=            0 ICorTp=0 IEmpDi=  4
 HFx  wShort=  0.000000 wLong=  0.237800 cFull=  0.000000 cShort=  0.000000 cLong=  1.000000
 DFx  wShort=  0.000000 wLong=  0.237800 cFull=  0.000000 cShort=  1.000000 cLong=  0.000000
 NAtoms=   22 NActive=   22 NUniq=   22 SFac= 1.00D+00 NAtFMM=   60 NAOKFM=F Big=F
 Integral buffers will be    131072 words long.
 Raffenetti 2 integral format.
 Two-electron integral symmetry is turned on.
 Leave Link  301 at Sun Jan 17 09:51:17 2021, MaxMem=  4026531840 cpu:               0.4 elap:               0.1
 (Enter /opt/ohpc/pub/libs/gaussian/g16-A.03/sandybridge/g16/l302.exe)
 NPDir=0 NMtPBC=     1 NCelOv=     1 NCel=       1 NClECP=     1 NCelD=      1
         NCelK=      1 NCelE2=     1 NClLst=     1 CellRange=     0.0.
 One-electron integrals computed using PRISM.
 One-electron integral symmetry used in STVInt
 NBasis=   288 RedAO= T EigKep=  9.18D-06  NBF=   288
 NBsUse=   288 1.00D-06 EigRej= -1.00D+00 NBFU=   288
 Precomputing XC quadrature grid using
 IXCGrd= 4 IRadAn=           5 IRanWt=          -1 IRanGd=           0 AccXCQ= 0.00D+00.
 Generated NRdTot=       0 NPtTot=           0 NUsed=           0 NTot=          32
 NSgBfM=   295   295   295   295   295 MxSgAt=    22 MxSgA2=    22.
 Leave Link  302 at Sun Jan 17 09:51:17 2021, MaxMem=  4026531840 cpu:               2.2 elap:               0.3
 (Enter /opt/ohpc/pub/libs/gaussian/g16-A.03/sandybridge/g16/l303.exe)
 DipDrv:  MaxL=1.
 Leave Link  303 at Sun Jan 17 09:51:17 2021, MaxMem=  4026531840 cpu:               0.5 elap:               0.1
 (Enter /opt/ohpc/pub/libs/gaussian/g16-A.03/sandybridge/g16/l401.exe)
 ExpMin= 9.52D-02 ExpMax= 1.36D+04 ExpMxC= 4.63D+02 IAcc=3 IRadAn=         5 AccDes= 0.00D+00
 Harris functional with IExCor=33909 and IRadAn=       5 diagonalized for initial guess.
 HarFok:  IExCor=33909 AccDes= 0.00D+00 IRadAn=         5 IDoV= 1 UseB2=F ITyADJ=14
 ICtDFT=  3500011 ScaDFX=  1.000000  1.000000  1.000000  1.000000
 FoFCou: FMM=F IPFlag=           0 FMFlag=      100000 FMFlg1=           0
         NFxFlg=           0 DoJE=T BraDBF=F KetDBF=T FulRan=T
         wScrn=  0.000000 ICntrl=       500 IOpCl=  0 I1Cent=   200000004 NGrid=           0
         NMat0=    1 NMatS0=      1 NMatT0=    0 NMatD0=    1 NMtDS0=    0 NMtDT0=    0
 Petite list used in FoFCou.
 Harris En= -452.620012166910    
 JPrj=0 DoOrth=F DoCkMO=F.
 Initial guess <Sx>= 0.0000 <Sy>= 0.0000 <Sz>= 0.5000 <S**2>= 0.7500 S= 0.5000
 Leave Link  401 at Sun Jan 17 09:51:19 2021, MaxMem=  4026531840 cpu:              13.8 elap:               1.8
 (Enter /opt/ohpc/pub/libs/gaussian/g16-A.03/sandybridge/g16/l502.exe)
 Integral symmetry usage will be decided dynamically.
 UHF open shell SCF:
 Using DIIS extrapolation, IDIIS=    10.
 NGot=  4026531840 LenX=  4026346394 LenY=  4026255953
 Requested convergence on RMS density matrix=1.00D-06 within  32 cycles.
 Requested convergence on MAX density matrix=1.00D-04.
 Requested convergence on             energy=1.00D-04.
 Virtual orbitals will be shifted by   0.500 hartree.
 No special actions if energy rises.
 Dynamic level shift is on during FON iterations.

 Cycle   1  Pass 1  IDiag  1:
 FoFJK:  IHMeth= 1 ICntrl=       0 DoSepK=T KAlg= 0 I1Cent=           0 FoldK=F
 IRaf=         1 NMat=       1 IRICut=       1 DoRegI=T DoRafI=F ISym2E= 0 IDoP0=0 IntGTp=1.
 FoFCou: FMM=F IPFlag=           0 FMFlag=      100000 FMFlg1=           0
         NFxFlg=           0 DoJE=T BraDBF=F KetDBF=F FulRan=T
         wScrn=  0.000000 ICntrl=       500 IOpCl=  0 I1Cent=           0 NGrid=           0
         NMat0=    1 NMatS0=      1 NMatT0=    0 NMatD0=    1 NMtDS0=    0 NMtDT0=    0
 Symmetry not used in FoFCou.
 E= -462.610955895449    
 DIIS: error= 2.38D-02 at cycle   1 NSaved=   1.
 NSaved= 1 IEnMin= 1 EnMin= -462.610955895449     IErMin= 1 ErrMin= 2.38D-02
 ErrMax= 2.38D-02  0.00D+00 EMaxC= 1.00D+00 BMatC= 4.47D-01 BMatP= 4.47D-01
 IDIUse=1 WtCom= 1.00D+00 WtEn= 0.00D+00
 Coeff-Com:  0.100D+01
 Coeff:      0.100D+01
 Gap=     0.333 Goal=   None    Shift=    0.500
 T= 1356. Gap= 0.825 NK=0 IS=   42 IE=  288 IFin=   41
          NO(<0.9)=   0  NV(>0.1)=   0     41.00e < EF      0.00e >EF  Err=0.0D+00
 Gap=     0.171 Goal=   None    Shift=    0.500
 T= 1356. Gap= 0.669 NK=0 IS=   41 IE=  288 IFin=   40
          NO(<0.9)=   0  NV(>0.1)=   0     40.00e < EF      0.00e >EF  Err=0.0D+00
 GapD=    0.171 DampG=1.000 DampE=0.500 DampFc=0.5000 IDamp=-1.
 Damping current iteration by 5.00D-01
 RMSDP=2.47D-03 MaxDP=6.16D-02              OVMax= 5.25D-02

 Cycle   2  Pass 1  IDiag  1:
 E= -462.674319582062     Delta-E=       -0.063363686613 Rises=F Damp=T
 DIIS: error= 1.10D-02 at cycle   2 NSaved=   2.
 NSaved= 2 IEnMin= 2 EnMin= -462.674319582062     IErMin= 2 ErrMin= 1.10D-02
 ErrMax= 1.10D-02  0.00D+00 EMaxC= 1.00D+00 BMatC= 9.12D-02 BMatP= 4.47D-01
 IDIUse=1 WtCom= 1.00D+00 WtEn= 0.00D+00
 Coeff-Com: -0.700D+00 0.170D+01
 Coeff:     -0.700D+00 0.170D+01
 Gap=     0.340 Goal=   None    Shift=    0.500
 T= 1238. Gap= 0.834 NK=0 IS=   42 IE=  288 IFin=   41
          NO(<0.9)=   0  NV(>0.1)=   0     41.00e < EF      0.00e >EF  Err=0.0D+00
 Gap=     0.194 Goal=   None    Shift=    0.500
 T= 1238. Gap= 0.687 NK=0 IS=   41 IE=  288 IFin=   40
          NO(<0.9)=   0  NV(>0.1)=   0     40.00e < EF      0.00e >EF  Err=0.0D+00
 GapD=    0.194 DampG=1.000 DampE=0.500 DampFc=0.5000 IDamp=-1.
 Damping current iteration by 5.00D-01
 RMSDP=1.74D-03 MaxDP=4.98D-02 DE=-6.34D-02 OVMax= 1.62D-02

 Cycle   3  Pass 1  IDiag  1:
 E= -462.697770645476     Delta-E=       -0.023451063415 Rises=F Damp=T
 DIIS: error= 5.46D-03 at cycle   3 NSaved=   3.
 NSaved= 3 IEnMin= 3 EnMin= -462.697770645476     IErMin= 3 ErrMin= 5.46D-03
 ErrMax= 5.46D-03  0.00D+00 EMaxC= 1.00D+00 BMatC= 2.10D-02 BMatP= 9.12D-02
 IDIUse=1 WtCom= 1.00D+00 WtEn= 0.00D+00
 Coeff-Com:  0.434D-01-0.102D+01 0.197D+01
 Coeff:      0.434D-01-0.102D+01 0.197D+01
 Gap=     0.335 Goal=   None    Shift=    0.500
 T= 1013. Gap= 0.835 NK=0 IS=   42 IE=  288 IFin=   41
          NO(<0.9)=   0  NV(>0.1)=   0     41.00e < EF      0.00e >EF  Err=0.0D+00
 Gap=     0.189 Goal=   None    Shift=    0.500
 T= 1013. Gap= 0.689 NK=0 IS=   41 IE=  288 IFin=   40
          NO(<0.9)=   0  NV(>0.1)=   0     40.00e < EF      0.00e >EF  Err=0.0D+00
 GapD=    0.189 DampG=1.000 DampE=1.000 DampFc=1.0000 IDamp=-1.
 RMSDP=1.08D-03 MaxDP=3.09D-02 DE=-2.35D-02 OVMax= 1.24D-02

 Cycle   4  Pass 1  IDiag  1:
 E= -462.718383454684     Delta-E=       -0.020612809208 Rises=F Damp=F
 DIIS: error= 2.39D-03 at cycle   4 NSaved=   4.
 NSaved= 4 IEnMin= 4 EnMin= -462.718383454684     IErMin= 4 ErrMin= 2.39D-03
 ErrMax= 2.39D-03  0.00D+00 EMaxC= 1.00D+00 BMatC= 4.87D-04 BMatP= 2.10D-02
 IDIUse=1 WtCom= 1.00D+00 WtEn= 0.00D+00
 Coeff-Com:  0.607D-01-0.624D-01-0.114D+00 0.112D+01
 Coeff:      0.607D-01-0.624D-01-0.114D+00 0.112D+01
 Gap=     0.336 Goal=   None    Shift=    0.500
 T=  558. Gap= 0.836 NK=0 IS=   42 IE=  288 IFin=   41
          NO(<0.9)=   0  NV(>0.1)=   0     41.00e < EF      0.00e >EF  Err=0.0D+00
 Gap=     0.191 Goal=   None    Shift=    0.500
 T=  558. Gap= 0.691 NK=0 IS=   41 IE=  288 IFin=   40
          NO(<0.9)=   0  NV(>0.1)=   0     40.00e < EF      0.00e >EF  Err=0.0D+00
 GapD=    0.191 DampG=1.000 DampE=1.000 DampFc=1.0000 IDamp=-1.
 RMSDP=1.32D-04 MaxDP=3.90D-03 DE=-2.06D-02 OVMax= 8.85D-03

 Cycle   5  Pass 1  IDiag  1:
 E= -462.718748725394     Delta-E=       -0.000365270709 Rises=F Damp=F
 DIIS: error= 2.05D-03 at cycle   5 NSaved=   5.
 NSaved= 5 IEnMin= 5 EnMin= -462.718748725394     IErMin= 5 ErrMin= 2.05D-03
 ErrMax= 2.05D-03  0.00D+00 EMaxC= 1.00D+00 BMatC= 2.11D-04 BMatP= 4.87D-04
 IDIUse=1 WtCom= 1.00D+00 WtEn= 0.00D+00
 Coeff-Com: -0.219D-01 0.244D+00-0.429D+00-0.691D+00 0.190D+01
 Coeff:     -0.219D-01 0.244D+00-0.429D+00-0.691D+00 0.190D+01
 Gap=     0.336 Goal=   None    Shift=    0.500
 T=  172. Gap= 0.836 NK=0 IS=   42 IE=  288 IFin=   41
          NO(<0.9)=   0  NV(>0.1)=   0     41.00e < EF      0.00e >EF  Err=0.0D+00
 Gap=     0.193 Goal=   None    Shift=    0.500
 T=  172. Gap= 0.693 NK=0 IS=   41 IE=  288 IFin=   40
          NO(<0.9)=   0  NV(>0.1)=   0     40.00e < EF      0.00e >EF  Err=0.0D+00
 GapD=    0.193 DampG=1.000 DampE=1.000 DampFc=1.0000 IDamp=-1.
 RMSDP=1.03D-04 MaxDP=3.29D-03 DE=-3.65D-04 OVMax= 9.23D-03

 Cycle   6  Pass 1  IDiag  1:
 E= -462.719007656161     Delta-E=       -0.000258930768 Rises=F Damp=F
 DIIS: error= 1.50D-03 at cycle   6 NSaved=   6.
 NSaved= 6 IEnMin= 6 EnMin= -462.719007656161     IErMin= 6 ErrMin= 1.50D-03
 ErrMax= 1.50D-03  0.00D+00 EMaxC= 1.00D+00 BMatC= 1.07D-04 BMatP= 2.11D-04
 IDIUse=1 WtCom= 1.00D+00 WtEn= 0.00D+00
 Coeff-Com: -0.265D-01 0.267D-01 0.404D-01-0.356D+00-0.893D+00 0.221D+01
 Coeff:     -0.265D-01 0.267D-01 0.404D-01-0.356D+00-0.893D+00 0.221D+01
 Gap=     0.337 Goal=   None    Shift=    0.500
 Gap=     0.195 Goal=   None    Shift=    0.500
 GapD=    0.195 DampG=1.000 DampE=1.000 DampFc=1.0000 IDamp=-1.
 RMSDP=7.06D-05 MaxDP=1.75D-03 DE=-2.59D-04 OVMax= 7.99D-03

 Cycle   7  Pass 1  IDiag  1:
 E= -462.719176545851     Delta-E=       -0.000168889689 Rises=F Damp=F
 DIIS: error= 1.08D-03 at cycle   7 NSaved=   7.
 NSaved= 7 IEnMin= 7 EnMin= -462.719176545851     IErMin= 7 ErrMin= 1.08D-03
 ErrMax= 1.08D-03  0.00D+00 EMaxC= 1.00D+00 BMatC= 5.48D-05 BMatP= 1.07D-04
 IDIUse=1 WtCom= 1.00D+00 WtEn= 0.00D+00
 Coeff-Com: -0.570D-02-0.404D-01 0.105D+00 0.112D+00-0.977D+00 0.929D-01
 Coeff-Com:  0.171D+01
 Coeff:     -0.570D-02-0.404D-01 0.105D+00 0.112D+00-0.977D+00 0.929D-01
 Coeff:      0.171D+01
 Gap=     0.337 Goal=   None    Shift=    0.500
 Gap=     0.195 Goal=   None    Shift=    0.500
 GapD=    0.195 DampG=1.000 DampE=1.000 DampFc=1.0000 IDamp=-1.
 RMSDP=4.33D-05 MaxDP=1.02D-03 DE=-1.69D-04 OVMax= 6.12D-03

 Cycle   8  Pass 1  IDiag  1:
 E= -462.719271088894     Delta-E=       -0.000094543043 Rises=F Damp=F
 DIIS: error= 7.28D-04 at cycle   8 NSaved=   8.
 NSaved= 8 IEnMin= 8 EnMin= -462.719271088894     IErMin= 8 ErrMin= 7.28D-04
 ErrMax= 7.28D-04  0.00D+00 EMaxC= 1.00D+00 BMatC= 2.89D-05 BMatP= 5.48D-05
 IDIUse=1 WtCom= 1.00D+00 WtEn= 0.00D+00
 Coeff-Com:  0.108D-01 0.268D-02-0.428D-01 0.238D+00 0.256D+00-0.146D+01
 Coeff-Com: -0.196D+00 0.219D+01
 Coeff:      0.108D-01 0.268D-02-0.428D-01 0.238D+00 0.256D+00-0.146D+01
 Coeff:     -0.196D+00 0.219D+01
 Gap=     0.337 Goal=   None    Shift=    0.500
 Gap=     0.196 Goal=   None    Shift=    0.500
 RMSDP=2.96D-05 MaxDP=5.93D-04 DE=-9.45D-05 OVMax= 4.75D-03

 Cycle   9  Pass 1  IDiag  1:
 E= -462.719328679063     Delta-E=       -0.000057590169 Rises=F Damp=F
 DIIS: error= 4.89D-04 at cycle   9 NSaved=   9.
 NSaved= 9 IEnMin= 9 EnMin= -462.719328679063     IErMin= 9 ErrMin= 4.89D-04
 ErrMax= 4.89D-04  0.00D+00 EMaxC= 1.00D+00 BMatC= 1.48D-05 BMatP= 2.89D-05
 IDIUse=1 WtCom= 1.00D+00 WtEn= 0.00D+00
 Coeff-Com: -0.314D-02 0.361D-01-0.613D-01-0.161D+00 0.516D+00 0.119D+00
 Coeff-Com: -0.860D+00-0.153D+01 0.295D+01
 Coeff:     -0.314D-02 0.361D-01-0.613D-01-0.161D+00 0.516D+00 0.119D+00
 Coeff:     -0.860D+00-0.153D+01 0.295D+01
 Gap=     0.337 Goal=   None    Shift=    0.500
 Gap=     0.196 Goal=   None    Shift=    0.500
 RMSDP=2.33D-05 MaxDP=4.84D-04 DE=-5.76D-05 OVMax= 3.52D-03

 Cycle  10  Pass 1  IDiag  1:
 E= -462.719360669930     Delta-E=       -0.000031990867 Rises=F Damp=F
 DIIS: error= 3.32D-04 at cycle  10 NSaved=  10.
 NSaved=10 IEnMin=10 EnMin= -462.719360669930     IErMin=10 ErrMin= 3.32D-04
 ErrMax= 3.32D-04  0.00D+00 EMaxC= 1.00D+00 BMatC= 7.71D-06 BMatP= 1.48D-05
 IDIUse=1 WtCom= 1.00D+00 WtEn= 0.00D+00
 Coeff-Com: -0.416D-02-0.414D-02 0.225D-01-0.151D+00 0.511D-02 0.545D+00
 Coeff-Com: -0.937D-01-0.935D+00-0.767D+00 0.238D+01
 Coeff:     -0.416D-02-0.414D-02 0.225D-01-0.151D+00 0.511D-02 0.545D+00
 Coeff:     -0.937D-01-0.935D+00-0.767D+00 0.238D+01
 Gap=     0.337 Goal=   None    Shift=    0.500
 Gap=     0.197 Goal=   None    Shift=    0.500
 RMSDP=1.64D-05 MaxDP=3.33D-04 DE=-3.20D-05 OVMax= 2.30D-03

 Cycle  11  Pass 1  IDiag  1:
 E= -462.719375721168     Delta-E=       -0.000015051237 Rises=F Damp=F
 DIIS: error= 2.39D-04 at cycle  11 NSaved=  11.
 NSaved=11 IEnMin=11 EnMin= -462.719375721168     IErMin=11 ErrMin= 2.39D-04
 ErrMax= 2.39D-04  0.00D+00 EMaxC= 1.00D+00 BMatC= 3.96D-06 BMatP= 7.71D-06
 IDIUse=1 WtCom= 1.00D+00 WtEn= 0.00D+00
 Coeff-Com:  0.122D-02-0.168D-01 0.287D-01 0.250D-01-0.143D+00-0.231D-01
 Coeff-Com:  0.268D+00 0.581D+00-0.148D+01-0.766D+00 0.253D+01
 Coeff:      0.122D-02-0.168D-01 0.287D-01 0.250D-01-0.143D+00-0.231D-01
 Coeff:      0.268D+00 0.581D+00-0.148D+01-0.766D+00 0.253D+01
 Gap=     0.337 Goal=   None    Shift=    0.500
 Gap=     0.197 Goal=   None    Shift=    0.500
 RMSDP=1.23D-05 MaxDP=2.81D-04 DE=-1.51D-05 OVMax= 1.71D-03

 Cycle  12  Pass 1  IDiag  1:
 E= -462.719382780602     Delta-E=       -0.000007059434 Rises=F Damp=F
 DIIS: error= 1.85D-04 at cycle  12 NSaved=  12.
 NSaved=12 IEnMin=12 EnMin= -462.719382780602     IErMin=12 ErrMin= 1.85D-04
 ErrMax= 1.85D-04  0.00D+00 EMaxC= 1.00D+00 BMatC= 2.06D-06 BMatP= 3.96D-06
 IDIUse=1 WtCom= 1.00D+00 WtEn= 0.00D+00
 Coeff-Com:  0.337D-02 0.265D-02-0.175D-01 0.970D-01 0.434D-01-0.505D+00
 Coeff-Com:  0.101D+00 0.912D+00 0.351D+00-0.281D+01 0.740D+00 0.208D+01
 Coeff:      0.337D-02 0.265D-02-0.175D-01 0.970D-01 0.434D-01-0.505D+00
 Coeff:      0.101D+00 0.912D+00 0.351D+00-0.281D+01 0.740D+00 0.208D+01
 Gap=     0.337 Goal=   None    Shift=    0.500
 Gap=     0.197 Goal=   None    Shift=    0.500
 RMSDP=8.68D-06 MaxDP=2.35D-04 DE=-7.06D-06 OVMax= 1.15D-03

 Cycle  13  Pass 1  IDiag  1:
 E= -462.719385828931     Delta-E=       -0.000003048330 Rises=F Damp=F
 DIIS: error= 1.33D-04 at cycle  13 NSaved=  13.
 NSaved=13 IEnMin=13 EnMin= -462.719385828931     IErMin=13 ErrMin= 1.33D-04
 ErrMax= 1.33D-04  0.00D+00 EMaxC= 1.00D+00 BMatC= 8.20D-07 BMatP= 2.06D-06
 IDIUse=1 WtCom= 1.00D+00 WtEn= 0.00D+00
 Coeff-Com: -0.104D-02 0.310D-02-0.218D-02-0.464D-01 0.559D-01 0.107D+00
 Coeff-Com: -0.728D-01-0.447D+00 0.442D+00 0.692D+00-0.790D+00-0.200D+01
 Coeff-Com:  0.306D+01
 Coeff:     -0.104D-02 0.310D-02-0.218D-02-0.464D-01 0.559D-01 0.107D+00
 Coeff:     -0.728D-01-0.447D+00 0.442D+00 0.692D+00-0.790D+00-0.200D+01
 Coeff:      0.306D+01
 Gap=     0.337 Goal=   None    Shift=    0.500
 Gap=     0.197 Goal=   None    Shift=    0.500
 RMSDP=5.20D-06 MaxDP=1.49D-04 DE=-3.05D-06 OVMax= 7.00D-04

 Cycle  14  Pass 1  IDiag  1:
 E= -462.719386986931     Delta-E=       -0.000001157999 Rises=F Damp=F
 DIIS: error= 9.28D-05 at cycle  14 NSaved=  14.
 NSaved=14 IEnMin=14 EnMin= -462.719386986931     IErMin=14 ErrMin= 9.28D-05
 ErrMax= 9.28D-05  0.00D+00 EMaxC= 1.00D+00 BMatC= 3.03D-07 BMatP= 8.20D-07
 IDIUse=1 WtCom= 1.00D+00 WtEn= 0.00D+00
 Coeff-Com: -0.328D-05-0.217D-02 0.431D-02 0.164D-02-0.258D-01 0.252D-01
 Coeff-Com:  0.228D-01 0.195D-01-0.195D+00 0.171D+00 0.540D-01 0.351D+00
 Coeff-Com: -0.236D+01 0.294D+01
 Coeff:     -0.328D-05-0.217D-02 0.431D-02 0.164D-02-0.258D-01 0.252D-01
 Coeff:      0.228D-01 0.195D-01-0.195D+00 0.171D+00 0.540D-01 0.351D+00
 Coeff:     -0.236D+01 0.294D+01
 Gap=     0.337 Goal=   None    Shift=    0.500
 Gap=     0.197 Goal=   None    Shift=    0.500
 RMSDP=3.01D-06 MaxDP=1.09D-04 DE=-1.16D-06 OVMax= 4.74D-04

 Cycle  15  Pass 1  IDiag  1:
 E= -462.719387411858     Delta-E=       -0.000000424928 Rises=F Damp=F
 DIIS: error= 6.69D-05 at cycle  15 NSaved=  15.
 NSaved=15 IEnMin=15 EnMin= -462.719387411858     IErMin=15 ErrMin= 6.69D-05
 ErrMax= 6.69D-05  0.00D+00 EMaxC= 1.00D+00 BMatC= 1.21D-07 BMatP= 3.03D-07
 IDIUse=1 WtCom= 1.00D+00 WtEn= 0.00D+00
 Coeff-Com:  0.554D-03-0.108D-02 0.427D-04 0.152D-01 0.593D-03-0.896D-01
 Coeff-Com:  0.466D-01 0.188D+00-0.640D-01-0.482D+00 0.358D+00 0.542D+00
 Coeff-Com: -0.465D+00-0.199D+01 0.294D+01
 Coeff:      0.554D-03-0.108D-02 0.427D-04 0.152D-01 0.593D-03-0.896D-01
 Coeff:      0.466D-01 0.188D+00-0.640D-01-0.482D+00 0.358D+00 0.542D+00
 Coeff:     -0.465D+00-0.199D+01 0.294D+01
 Gap=     0.337 Goal=   None    Shift=    0.500
 Gap=     0.197 Goal=   None    Shift=    0.500
 RMSDP=1.75D-06 MaxDP=7.32D-05 DE=-4.25D-07 OVMax= 3.31D-04

 Cycle  16  Pass 1  IDiag  1:
 E= -462.719387576275     Delta-E=       -0.000000164417 Rises=F Damp=F
 DIIS: error= 4.71D-05 at cycle  16 NSaved=  16.
 NSaved=16 IEnMin=16 EnMin= -462.719387576275     IErMin=16 ErrMin= 4.71D-05
 ErrMax= 4.71D-05  0.00D+00 EMaxC= 1.00D+00 BMatC= 4.80D-08 BMatP= 1.21D-07
 IDIUse=1 WtCom= 1.00D+00 WtEn= 0.00D+00
 Coeff-Com: -0.385D-03 0.100D-02-0.512D-03-0.114D-01 0.635D-02 0.427D-01
 Coeff-Com: -0.120D-01-0.144D+00 0.867D-01 0.276D+00-0.215D+00-0.565D+00
 Coeff-Com:  0.921D+00 0.446D+00-0.341D+01 0.358D+01
 Coeff:     -0.385D-03 0.100D-02-0.512D-03-0.114D-01 0.635D-02 0.427D-01
 Coeff:     -0.120D-01-0.144D+00 0.867D-01 0.276D+00-0.215D+00-0.565D+00
 Coeff:      0.921D+00 0.446D+00-0.341D+01 0.358D+01
 Gap=     0.337 Goal=   None    Shift=    0.500
 Gap=     0.197 Goal=   None    Shift=    0.500
 RMSDP=1.05D-06 MaxDP=5.19D-05 DE=-1.64D-07 OVMax= 2.35D-04

 Cycle  17  Pass 1  IDiag  1:
 E= -462.719387644313     Delta-E=       -0.000000068038 Rises=F Damp=F
 DIIS: error= 3.34D-05 at cycle  17 NSaved=  17.
 NSaved=17 IEnMin=17 EnMin= -462.719387644313     IErMin=17 ErrMin= 3.34D-05
 ErrMax= 3.34D-05  0.00D+00 EMaxC= 1.00D+00 BMatC= 2.01D-08 BMatP= 4.80D-08
 IDIUse=1 WtCom= 1.00D+00 WtEn= 0.00D+00
 Coeff-Com:  0.110D-03-0.106D-02 0.173D-02 0.114D-02-0.748D-02 0.657D-03
 Coeff-Com:  0.105D-01 0.119D-01-0.378D-01 0.816D-02 0.648D-02 0.188D+00
 Coeff-Com: -0.566D+00 0.619D+00 0.518D+00-0.331D+01 0.356D+01
 Coeff:      0.110D-03-0.106D-02 0.173D-02 0.114D-02-0.748D-02 0.657D-03
 Coeff:      0.105D-01 0.119D-01-0.378D-01 0.816D-02 0.648D-02 0.188D+00
 Coeff:     -0.566D+00 0.619D+00 0.518D+00-0.331D+01 0.356D+01
 Gap=     0.337 Goal=   None    Shift=    0.500
 Gap=     0.197 Goal=   None    Shift=    0.500
 RMSDP=6.15D-07 MaxDP=3.02D-05 DE=-6.80D-08 OVMax= 1.71D-04

 SCF Done:  E(ULC-wHPBE) =  -462.719387644     A.U. after   17 cycles
            NFock= 17  Conv=0.61D-06     -V/T= 2.0052
 <Sx>= 0.0000 <Sy>= 0.0000 <Sz>= 0.5000 <S**2>= 0.7786 S= 0.5142
 <L.S>= 0.000000000000E+00
 KE= 4.603188889512D+02 PE=-2.256675116182D+03 EE= 7.351644922975D+02
 Annihilation of the first spin contaminant:
 S**2 before annihilation     0.7786,   after     0.7506
 Leave Link  502 at Sun Jan 17 09:53:42 2021, MaxMem=  4026531840 cpu:            1139.5 elap:             142.9
 (Enter /opt/ohpc/pub/libs/gaussian/g16-A.03/sandybridge/g16/l508.exe)
 QCSCF skips out because SCF is already converged.
 Leave Link  508 at Sun Jan 17 09:53:42 2021, MaxMem=  4026531840 cpu:               0.0 elap:               0.0
 (Enter /opt/ohpc/pub/libs/gaussian/g16-A.03/sandybridge/g16/l601.exe)
 Copying SCF densities to generalized density rwf, IOpCl= 1 IROHF=0.

 **********************************************************************

            Population analysis using the SCF density.

 **********************************************************************

 Orbital symmetries:
 Alpha Orbitals:
       Occupied  (A) (A) (A) (A) (A) (A) (A) (A) (A) (A) (A) (A)
                 (A) (A) (A) (A) (A) (A) (A) (A) (A) (A) (A) (A)
                 (A) (A) (A) (A) (A) (A) (A) (A) (A) (A) (A) (A)
                 (A) (A) (A) (A) (A)
       Virtual   (A) (A) (A) (A) (A) (A) (A) (A) (A) (A) (A) (A)
                 (A) (A) (A) (A) (A) (A) (A) (A) (A) (A) (A) (A)
                 (A) (A) (A) (A) (A) (A) (A) (A) (A) (A) (A) (A)
                 (A) (A) (A) (A) (A) (A) (A) (A) (A) (A) (A) (A)
                 (A) (A) (A) (A) (A) (A) (A) (A) (A) (A) (A) (A)
                 (A) (A) (A) (A) (A) (A) (A) (A) (A) (A) (A) (A)
                 (A) (A) (A) (A) (A) (A) (A) (A) (A) (A) (A) (A)
                 (A) (A) (A) (A) (A) (A) (A) (A) (A) (A) (A) (A)
                 (A) (A) (A) (A) (A) (A) (A) (A) (A) (A) (A) (A)
                 (A) (A) (A) (A) (A) (A) (A) (A) (A) (A) (A) (A)
                 (A) (A) (A) (A) (A) (A) (A) (A) (A) (A) (A) (A)
                 (A) (A) (A) (A) (A) (A) (A) (A) (A) (A) (A) (A)
                 (A) (A) (A) (A) (A) (A) (A) (A) (A) (A) (A) (A)
                 (A) (A) (A) (A) (A) (A) (A) (A) (A) (A) (A) (A)
                 (A) (A) (A) (A) (A) (A) (A) (A) (A) (A) (A) (A)
                 (A) (A) (A) (A) (A) (A) (A) (A) (A) (A) (A) (A)
                 (A) (A) (A) (A) (A) (A) (A) (A) (A) (A) (A) (A)
                 (A) (A) (A) (A) (A) (A) (A) (A) (A) (A) (A) (A)
                 (A) (A) (A) (A) (A) (A) (A) (A) (A) (A) (A) (A)
                 (A) (A) (A) (A) (A) (A) (A) (A) (A) (A) (A) (A)
                 (A) (A) (A) (A) (A) (A) (A)
 Beta  Orbitals:
       Occupied  (A) (A) (A) (A) (A) (A) (A) (A) (A) (A) (A) (A)
                 (A) (A) (A) (A) (A) (A) (A) (A) (A) (A) (A) (A)
                 (A) (A) (A) (A) (A) (A) (A) (A) (A) (A) (A) (A)
                 (A) (A) (A) (A)
       Virtual   (A) (A) (A) (A) (A) (A) (A) (A) (A) (A) (A) (A)
                 (A) (A) (A) (A) (A) (A) (A) (A) (A) (A) (A) (A)
                 (A) (A) (A) (A) (A) (A) (A) (A) (A) (A) (A) (A)
                 (A) (A) (A) (A) (A) (A) (A) (A) (A) (A) (A) (A)
                 (A) (A) (A) (A) (A) (A) (A) (A) (A) (A) (A) (A)
                 (A) (A) (A) (A) (A) (A) (A) (A) (A) (A) (A) (A)
                 (A) (A) (A) (A) (A) (A) (A) (A) (A) (A) (A) (A)
                 (A) (A) (A) (A) (A) (A) (A) (A) (A) (A) (A) (A)
                 (A) (A) (A) (A) (A) (A) (A) (A) (A) (A) (A) (A)
                 (A) (A) (A) (A) (A) (A) (A) (A) (A) (A) (A) (A)
                 (A) (A) (A) (A) (A) (A) (A) (A) (A) (A) (A) (A)
                 (A) (A) (A) (A) (A) (A) (A) (A) (A) (A) (A) (A)
                 (A) (A) (A) (A) (A) (A) (A) (A) (A) (A) (A) (A)
                 (A) (A) (A) (A) (A) (A) (A) (A) (A) (A) (A) (A)
                 (A) (A) (A) (A) (A) (A) (A) (A) (A) (A) (A) (A)
                 (A) (A) (A) (A) (A) (A) (A) (A) (A) (A) (A) (A)
                 (A) (A) (A) (A) (A) (A) (A) (A) (A) (A) (A) (A)
                 (A) (A) (A) (A) (A) (A) (A) (A) (A) (A) (A) (A)
                 (A) (A) (A) (A) (A) (A) (A) (A) (A) (A) (A) (A)
                 (A) (A) (A) (A) (A) (A) (A) (A) (A) (A) (A) (A)
                 (A) (A) (A) (A) (A) (A) (A) (A)
 The electronic state is 2-A.
 Alpha  occ. eigenvalues --  -10.23071 -10.23058 -10.20790 -10.20790 -10.20411
 Alpha  occ. eigenvalues --  -10.20411 -10.20410 -10.20408 -10.19140 -10.19140
 Alpha  occ. eigenvalues --  -10.19138 -10.19138  -1.11678  -1.09037  -1.02461
 Alpha  occ. eigenvalues --   -0.98929  -0.98023  -0.97042  -0.86921  -0.86318
 Alpha  occ. eigenvalues --   -0.83478  -0.82020  -0.77848  -0.74222  -0.71415
 Alpha  occ. eigenvalues --   -0.70704  -0.69146  -0.67603  -0.66690  -0.66328
 Alpha  occ. eigenvalues --   -0.65723  -0.64221  -0.62479  -0.60505  -0.58971
 Alpha  occ. eigenvalues --   -0.57931  -0.57591  -0.54117  -0.50515  -0.50457
 Alpha  occ. eigenvalues --   -0.49332
 Alpha virt. eigenvalues --   -0.15634  -0.11903  -0.11712  -0.09757  -0.01635
 Alpha virt. eigenvalues --   -0.00825   0.00428   0.02215   0.02254   0.03901
 Alpha virt. eigenvalues --    0.03954   0.04760   0.05258   0.05374   0.05431
 Alpha virt. eigenvalues --    0.06915   0.07268   0.08592   0.11773   0.12511
 Alpha virt. eigenvalues --    0.12901   0.12912   0.14877   0.14983   0.15018
 Alpha virt. eigenvalues --    0.15085   0.15158   0.16596   0.17344   0.17442
 Alpha virt. eigenvalues --    0.18047   0.19141   0.19311   0.20611   0.21178
 Alpha virt. eigenvalues --    0.21588   0.23185   0.23999   0.25264   0.26258
 Alpha virt. eigenvalues --    0.26749   0.26940   0.28200   0.28657   0.28862
 Alpha virt. eigenvalues --    0.30172   0.30856   0.31886   0.32758   0.33648
 Alpha virt. eigenvalues --    0.33922   0.34185   0.34685   0.35077   0.35911
 Alpha virt. eigenvalues --    0.37704   0.38251   0.38605   0.39390   0.40527
 Alpha virt. eigenvalues --    0.40772   0.41032   0.41740   0.42330   0.44196
 Alpha virt. eigenvalues --    0.44320   0.44548   0.44708   0.46119   0.49728
 Alpha virt. eigenvalues --    0.50766   0.53082   0.54285   0.56939   0.58202
 Alpha virt. eigenvalues --    0.59517   0.60085   0.60380   0.60630   0.60846
 Alpha virt. eigenvalues --    0.62647   0.67182   0.68879   0.72431   0.73726
 Alpha virt. eigenvalues --    0.80909   0.81995   0.98435   1.08537   1.09426
 Alpha virt. eigenvalues --    1.12010   1.12732   1.12870   1.14154   1.14215
 Alpha virt. eigenvalues --    1.14679   1.15166   1.17737   1.17800   1.18777
 Alpha virt. eigenvalues --    1.18880   1.19383   1.20302   1.21165   1.21249
 Alpha virt. eigenvalues --    1.21584   1.21983   1.22241   1.24350   1.28655
 Alpha virt. eigenvalues --    1.29134   1.30804   1.30873   1.33056   1.33479
 Alpha virt. eigenvalues --    1.33791   1.34116   1.34989   1.35213   1.35645
 Alpha virt. eigenvalues --    1.36031   1.37267   1.38027   1.38045   1.38498
 Alpha virt. eigenvalues --    1.40369   1.40439   1.41530   1.41610   1.42616
 Alpha virt. eigenvalues --    1.44587   1.45286   1.45815   1.45833   1.47722
 Alpha virt. eigenvalues --    1.47756   1.53588   1.54558   1.57435   1.61137
 Alpha virt. eigenvalues --    1.65909   1.66863   1.67127   1.67203   1.67641
 Alpha virt. eigenvalues --    1.69706   1.70197   1.70662   1.76102   1.76249
 Alpha virt. eigenvalues --    1.76539   1.76991   1.77099   1.77219   1.79371
 Alpha virt. eigenvalues --    1.79408   1.79511   1.79632   1.80523   1.82032
 Alpha virt. eigenvalues --    1.83243   1.83583   1.86489   1.86735   1.88021
 Alpha virt. eigenvalues --    1.88597   1.90368   1.90606   1.96753   1.97109
 Alpha virt. eigenvalues --    1.99596   2.11193   2.13740   2.14116   2.15762
 Alpha virt. eigenvalues --    2.15820   2.17120   2.17646   2.17806   2.20382
 Alpha virt. eigenvalues --    2.21238   2.21351   2.21648   2.22065   2.23927
 Alpha virt. eigenvalues --    2.24218   2.31277   2.35923   2.37194   2.37339
 Alpha virt. eigenvalues --    2.39382   2.40649   2.40966   2.41903   2.45732
 Alpha virt. eigenvalues --    2.48732   2.50432   2.50745   2.51247   2.52538
 Alpha virt. eigenvalues --    2.54426   2.56681   2.56886   2.57760   2.59242
 Alpha virt. eigenvalues --    2.62936   2.68178   2.68294   2.68650   2.71270
 Alpha virt. eigenvalues --    2.85587   2.86399   2.89108   2.91378   2.91943
 Alpha virt. eigenvalues --    2.92390   2.93046   2.95445   2.97546   2.99118
 Alpha virt. eigenvalues --    3.02178   3.02449   3.04481   3.04948   3.06983
 Alpha virt. eigenvalues --    3.09014   3.18080   3.19881   3.21231   3.27157
 Alpha virt. eigenvalues --    3.27677   3.38477   3.41571   3.59933   3.68903
 Alpha virt. eigenvalues --   20.86332  21.14684  21.41364  21.51916  21.55101
 Alpha virt. eigenvalues --   21.61096  21.73634  21.76827  21.79397  21.81152
 Alpha virt. eigenvalues --   21.90406  21.93772
  Beta  occ. eigenvalues --  -10.22875 -10.22860 -10.20431 -10.20431 -10.20245
  Beta  occ. eigenvalues --  -10.20245 -10.20243 -10.20242 -10.19219 -10.19219
  Beta  occ. eigenvalues --  -10.19217 -10.19217  -1.11124  -1.08558  -1.01855
  Beta  occ. eigenvalues --   -0.98721  -0.97872  -0.95995  -0.86495  -0.86078
  Beta  occ. eigenvalues --   -0.83118  -0.81713  -0.77703  -0.73969  -0.71200
  Beta  occ. eigenvalues --   -0.70521  -0.68611  -0.67435  -0.66421  -0.66252
  Beta  occ. eigenvalues --   -0.65522  -0.63195  -0.60425  -0.60335  -0.58819
  Beta  occ. eigenvalues --   -0.57827  -0.57323  -0.50164  -0.50137  -0.50104
  Beta virt. eigenvalues --   -0.30431  -0.13453  -0.11159  -0.10615  -0.07726
  Beta virt. eigenvalues --   -0.01558  -0.00728   0.00509   0.02377   0.02638
  Beta virt. eigenvalues --    0.04118   0.04279   0.04822   0.05552   0.05716
  Beta virt. eigenvalues --    0.06199   0.07253   0.07484   0.08729   0.12111
  Beta virt. eigenvalues --    0.12821   0.13107   0.13147   0.15071   0.15088
  Beta virt. eigenvalues --    0.15218   0.15328   0.15404   0.16825   0.17518
  Beta virt. eigenvalues --    0.17552   0.18201   0.19395   0.19702   0.20642
  Beta virt. eigenvalues --    0.21370   0.21830   0.23432   0.24658   0.25530
  Beta virt. eigenvalues --    0.26680   0.26940   0.27236   0.28555   0.29079
  Beta virt. eigenvalues --    0.29239   0.30448   0.31148   0.32366   0.33297
  Beta virt. eigenvalues --    0.33996   0.34231   0.34281   0.34750   0.35374
  Beta virt. eigenvalues --    0.35956   0.38036   0.38372   0.38628   0.39699
  Beta virt. eigenvalues --    0.40784   0.40919   0.41172   0.42033   0.42462
  Beta virt. eigenvalues --    0.44348   0.44574   0.44706   0.44873   0.46393
  Beta virt. eigenvalues --    0.49899   0.51010   0.53380   0.54429   0.57090
  Beta virt. eigenvalues --    0.58290   0.59865   0.60356   0.60510   0.60975
  Beta virt. eigenvalues --    0.61036   0.62975   0.67336   0.69107   0.72654
  Beta virt. eigenvalues --    0.73808   0.80994   0.82099   0.98630   1.08763
  Beta virt. eigenvalues --    1.09837   1.12523   1.13179   1.13376   1.14318
  Beta virt. eigenvalues --    1.14496   1.14958   1.15580   1.18064   1.18190
  Beta virt. eigenvalues --    1.19043   1.19257   1.19922   1.20684   1.21470
  Beta virt. eigenvalues --    1.21471   1.21921   1.22014   1.22746   1.24932
  Beta virt. eigenvalues --    1.29242   1.30002   1.31410   1.31572   1.33702
  Beta virt. eigenvalues --    1.33963   1.34295   1.34424   1.35568   1.35788
  Beta virt. eigenvalues --    1.36365   1.36501   1.37529   1.38347   1.38446
  Beta virt. eigenvalues --    1.38845   1.40533   1.41031   1.41801   1.41869
  Beta virt. eigenvalues --    1.42643   1.44784   1.45771   1.46073   1.46332
  Beta virt. eigenvalues --    1.47933   1.48224   1.53775   1.55103   1.58036
  Beta virt. eigenvalues --    1.62211   1.66290   1.67278   1.67311   1.67369
  Beta virt. eigenvalues --    1.68291   1.69760   1.70424   1.71086   1.76182
  Beta virt. eigenvalues --    1.76733   1.76844   1.77165   1.77396   1.77599
  Beta virt. eigenvalues --    1.79740   1.79754   1.79798   1.80089   1.80895
  Beta virt. eigenvalues --    1.82697   1.83683   1.83815   1.87170   1.87244
  Beta virt. eigenvalues --    1.88553   1.89271   1.90601   1.90826   1.97101
  Beta virt. eigenvalues --    1.97822   1.99834   2.11658   2.14028   2.14438
  Beta virt. eigenvalues --    2.16291   2.16607   2.17383   2.18438   2.18499
  Beta virt. eigenvalues --    2.21384   2.21890   2.21907   2.22101   2.22694
  Beta virt. eigenvalues --    2.24279   2.24572   2.32074   2.36064   2.37449
  Beta virt. eigenvalues --    2.37688   2.39428   2.41019   2.41266   2.42211
  Beta virt. eigenvalues --    2.46321   2.48839   2.51243   2.51442   2.52013
  Beta virt. eigenvalues --    2.52724   2.54715   2.56974   2.57069   2.57976
  Beta virt. eigenvalues --    2.59301   2.62987   2.68323   2.68397   2.68761
  Beta virt. eigenvalues --    2.71361   2.86054   2.86771   2.89234   2.91794
  Beta virt. eigenvalues --    2.92008   2.92430   2.93526   2.96175   2.98073
  Beta virt. eigenvalues --    2.99285   3.02395   3.02656   3.04808   3.05150
  Beta virt. eigenvalues --    3.07288   3.09251   3.18178   3.20175   3.21324
  Beta virt. eigenvalues --    3.27662   3.28237   3.38724   3.41826   3.60091
  Beta virt. eigenvalues --    3.69091  20.86563  21.14887  21.41685  21.52022
  Beta virt. eigenvalues --   21.55125  21.61532  21.74012  21.76897  21.79551
  Beta virt. eigenvalues --   21.81412  21.90655  21.93984
          Condensed to atoms (all electrons):
               1          2          3          4          5          6
     1  C    4.965606   0.458208   0.375640  -0.037051  -0.012299  -0.048964
     2  C    0.458208   4.900764  -0.034753   0.457926  -0.042690  -0.034159
     3  C    0.375640  -0.034753   5.258423  -0.048618   0.363140  -0.136574
     4  C   -0.037051   0.457926  -0.048618   4.966320  -0.011879   0.374524
     5  C   -0.012299  -0.042690   0.363140  -0.011879   5.426973   0.361970
     6  C   -0.048964  -0.034159  -0.136574   0.374524   0.361970   5.260088
     7  H   -0.042132   0.409996   0.013529  -0.042147  -0.003295   0.013548
     8  H   -0.010810   0.007136   0.398072  -0.001113  -0.049281   0.009750
     9  H    0.008520  -0.039436   0.000668   0.407215   0.011322  -0.036686
    10  H   -0.001111   0.007135   0.009742  -0.010804  -0.049295   0.398091
    11  C    0.020338   0.001285  -0.079288   0.020254   0.122241  -0.079102
    12  C   -0.002045   0.000083   0.027154   0.005648  -0.079025  -0.018431
    13  C    0.005580   0.000121  -0.018393  -0.002118  -0.079387   0.027451
    14  C    0.000288   0.000003  -0.002058  -0.000798   0.020283   0.005594
    15  C   -0.000798   0.000002   0.005633   0.000294   0.020322  -0.002110
    16  C    0.000003  -0.000003   0.000090   0.000002   0.001279   0.000115
    17  H   -0.000056   0.000067   0.000467   0.000546  -0.013295  -0.000139
    18  H    0.000553   0.000067  -0.000172  -0.000058  -0.013275   0.000477
    19  H    0.000000   0.000000  -0.000008  -0.000008  -0.001178   0.000047
    20  H   -0.000008   0.000000   0.000048   0.000001  -0.001177  -0.000008
    21  H    0.000000  -0.000000  -0.000001   0.000000  -0.000149  -0.000001
    22  H    0.407163  -0.039411  -0.036627   0.008515   0.011304   0.000662
               7          8          9         10         11         12
     1  C   -0.042132  -0.010810   0.008520  -0.001111   0.020338  -0.002045
     2  C    0.409996   0.007136  -0.039436   0.007135   0.001285   0.000083
     3  C    0.013529   0.398072   0.000668   0.009742  -0.079288   0.027154
     4  C   -0.042147  -0.001113   0.407215  -0.010804   0.020254   0.005648
     5  C   -0.003295  -0.049281   0.011322  -0.049295   0.122241  -0.079025
     6  C    0.013548   0.009750  -0.036686   0.398091  -0.079102  -0.018431
     7  H    0.479647  -0.000076  -0.004687  -0.000076  -0.000149  -0.000001
     8  H   -0.000076   0.475322   0.000012  -0.000058  -0.013286   0.000468
     9  H   -0.004687   0.000012   0.486034  -0.003772  -0.001179   0.000048
    10  H   -0.000076  -0.000058  -0.003772   0.475317  -0.013286  -0.000166
    11  C   -0.000149  -0.013286  -0.001179  -0.013286   5.426940   0.363087
    12  C   -0.000001   0.000468   0.000048  -0.000166   0.363087   5.258269
    13  C   -0.000001  -0.000139  -0.000008   0.000476   0.362052  -0.136595
    14  C    0.000000  -0.000056  -0.000008   0.000550  -0.012323   0.375662
    15  C    0.000000   0.000546   0.000001  -0.000058  -0.011852  -0.048667
    16  C   -0.000000   0.000068   0.000000   0.000068  -0.042684  -0.034740
    17  H   -0.000001   0.000002  -0.000004  -0.000683  -0.049277   0.398060
    18  H   -0.000001  -0.000682  -0.000001   0.000002  -0.049296   0.009737
    19  H   -0.000000  -0.000001  -0.000000  -0.000004   0.011304  -0.036627
    20  H   -0.000000  -0.000004   0.000000  -0.000001   0.011324   0.000666
    21  H   -0.000000  -0.000001  -0.000000  -0.000001  -0.003295   0.013531
    22  H   -0.004686  -0.003771  -0.000098   0.000012  -0.001176  -0.000008
              13         14         15         16         17         18
     1  C    0.005580   0.000288  -0.000798   0.000003  -0.000056   0.000553
     2  C    0.000121   0.000003   0.000002  -0.000003   0.000067   0.000067
     3  C   -0.018393  -0.002058   0.005633   0.000090   0.000467  -0.000172
     4  C   -0.002118  -0.000798   0.000294   0.000002   0.000546  -0.000058
     5  C   -0.079387   0.020283   0.020322   0.001279  -0.013295  -0.013275
     6  C    0.027451   0.005594  -0.002110   0.000115  -0.000139   0.000477
     7  H   -0.000001   0.000000   0.000000  -0.000000  -0.000001  -0.000001
     8  H   -0.000139  -0.000056   0.000546   0.000068   0.000002  -0.000682
     9  H   -0.000008  -0.000008   0.000001   0.000000  -0.000004  -0.000001
    10  H    0.000476   0.000550  -0.000058   0.000068  -0.000683   0.000002
    11  C    0.362052  -0.012323  -0.011852  -0.042684  -0.049277  -0.049296
    12  C   -0.136595   0.375662  -0.048667  -0.034740   0.398060   0.009737
    13  C    5.260280  -0.048889   0.374456  -0.034176   0.009754   0.398104
    14  C   -0.048889   4.965613  -0.037059   0.458204  -0.010798  -0.001109
    15  C    0.374456  -0.037059   4.966351   0.457934  -0.001114  -0.010818
    16  C   -0.034176   0.458204   0.457934   4.900752   0.007137   0.007133
    17  H    0.009754  -0.010798  -0.001114   0.007137   0.475322  -0.000058
    18  H    0.398104  -0.001109  -0.010818   0.007133  -0.000058   0.475312
    19  H    0.000665   0.407164   0.008513  -0.039412  -0.003770   0.000012
    20  H   -0.036693   0.008520   0.407218  -0.039433   0.000012  -0.003772
    21  H    0.013546  -0.042131  -0.042148   0.409996  -0.000076  -0.000076
    22  H    0.000047   0.000000  -0.000008   0.000000  -0.000001  -0.000004
              19         20         21         22
     1  C    0.000000  -0.000008   0.000000   0.407163
     2  C    0.000000   0.000000  -0.000000  -0.039411
     3  C   -0.000008   0.000048  -0.000001  -0.036627
     4  C   -0.000008   0.000001   0.000000   0.008515
     5  C   -0.001178  -0.001177  -0.000149   0.011304
     6  C    0.000047  -0.000008  -0.000001   0.000662
     7  H   -0.000000  -0.000000  -0.000000  -0.004686
     8  H   -0.000001  -0.000004  -0.000001  -0.003771
     9  H   -0.000000   0.000000  -0.000000  -0.000098
    10  H   -0.000004  -0.000001  -0.000001   0.000012
    11  C    0.011304   0.011324  -0.003295  -0.001176
    12  C   -0.036627   0.000666   0.013531  -0.000008
    13  C    0.000665  -0.036693   0.013546   0.000047
    14  C    0.407164   0.008520  -0.042131   0.000000
    15  C    0.008513   0.407218  -0.042148  -0.000008
    16  C   -0.039412  -0.039433   0.409996   0.000000
    17  H   -0.003770   0.000012  -0.000076  -0.000001
    18  H    0.000012  -0.003772  -0.000076  -0.000004
    19  H    0.486022  -0.000098  -0.004686   0.000000
    20  H   -0.000098   0.486034  -0.004687  -0.000000
    21  H   -0.004686  -0.004687   0.479646  -0.000000
    22  H    0.000000  -0.000000  -0.000000   0.486019
          Atomic-Atomic Spin Densities.
               1          2          3          4          5          6
     1  C   -0.095747   0.012744   0.028501   0.003816  -0.016607  -0.019920
     2  C    0.012744   0.288780  -0.002738   0.012812  -0.013890  -0.002888
     3  C    0.028501  -0.002738   0.045406  -0.019993   0.052000   0.036802
     4  C    0.003816   0.012812  -0.019993  -0.095994  -0.016750   0.028809
     5  C   -0.016607  -0.013890   0.052000  -0.016750   0.203725   0.052299
     6  C   -0.019920  -0.002888   0.036802   0.028809   0.052299   0.045041
     7  H    0.000493   0.002257  -0.000702   0.000495   0.000103  -0.000706
     8  H    0.000790   0.000022  -0.000672  -0.000279   0.002761   0.000400
     9  H    0.000467  -0.000203  -0.000556  -0.000732   0.000185   0.001609
    10  H   -0.000280   0.000022   0.000401   0.000797   0.002771  -0.000682
    11  C    0.004428  -0.000302  -0.012162   0.004469  -0.113151  -0.012231
    12  C    0.000664   0.000043  -0.001934  -0.000979  -0.012253   0.003050
    13  C   -0.000976   0.000037   0.003051   0.000682  -0.012139  -0.002002
    14  C   -0.000239   0.000002   0.000666   0.000527   0.004463  -0.000976
    15  C    0.000527   0.000002  -0.000979  -0.000242   0.004434   0.000680
    16  C    0.000002   0.000000   0.000042   0.000002  -0.000302   0.000037
    17  H    0.000040   0.000003  -0.000127  -0.000217  -0.001970  -0.000140
    18  H   -0.000220   0.000002  -0.000132   0.000041  -0.001973  -0.000131
    19  H   -0.000001   0.000000   0.000002   0.000003   0.000021  -0.000005
    20  H    0.000003   0.000000  -0.000005  -0.000001   0.000021   0.000002
    21  H    0.000000  -0.000000   0.000000   0.000000   0.000009   0.000000
    22  H   -0.000712  -0.000209   0.001586   0.000468   0.000191  -0.000555
               7          8          9         10         11         12
     1  C    0.000493   0.000790   0.000467  -0.000280   0.004428   0.000664
     2  C    0.002257   0.000022  -0.000203   0.000022  -0.000302   0.000043
     3  C   -0.000702  -0.000672  -0.000556   0.000401  -0.012162  -0.001934
     4  C    0.000495  -0.000279  -0.000732   0.000797   0.004469  -0.000979
     5  C    0.000103   0.002761   0.000185   0.002771  -0.113151  -0.012253
     6  C   -0.000706   0.000400   0.001609  -0.000682  -0.012231   0.003050
     7  H   -0.015859   0.000006   0.000080   0.000006   0.000009   0.000000
     8  H    0.000006  -0.008170  -0.000004   0.000017  -0.001969  -0.000127
     9  H    0.000080  -0.000004   0.001911   0.000129   0.000022  -0.000005
    10  H    0.000006   0.000017   0.000129  -0.008171  -0.001974  -0.000135
    11  C    0.000009  -0.001969   0.000022  -0.001974   0.203722   0.051959
    12  C    0.000000  -0.000127  -0.000005  -0.000135   0.051959   0.045639
    13  C    0.000000  -0.000138   0.000002  -0.000130   0.052335   0.036806
    14  C    0.000000   0.000040   0.000003  -0.000219  -0.016573   0.028412
    15  C    0.000000  -0.000218  -0.000001   0.000041  -0.016782  -0.019985
    16  C   -0.000000   0.000003   0.000000   0.000002  -0.013892  -0.002717
    17  H    0.000000  -0.000002  -0.000003  -0.000082   0.002756  -0.000659
    18  H    0.000000  -0.000082   0.000000  -0.000002   0.002776   0.000403
    19  H    0.000000   0.000000   0.000000  -0.000003   0.000191   0.001587
    20  H    0.000000  -0.000003  -0.000000   0.000000   0.000184  -0.000556
    21  H    0.000000   0.000000   0.000000   0.000000   0.000103  -0.000701
    22  H    0.000080   0.000129   0.000009  -0.000004   0.000021   0.000002
              13         14         15         16         17         18
     1  C   -0.000976  -0.000239   0.000527   0.000002   0.000040  -0.000220
     2  C    0.000037   0.000002   0.000002   0.000000   0.000003   0.000002
     3  C    0.003051   0.000666  -0.000979   0.000042  -0.000127  -0.000132
     4  C    0.000682   0.000527  -0.000242   0.000002  -0.000217   0.000041
     5  C   -0.012139   0.004463   0.004434  -0.000302  -0.001970  -0.001973
     6  C   -0.002002  -0.000976   0.000680   0.000037  -0.000140  -0.000131
     7  H    0.000000   0.000000   0.000000  -0.000000   0.000000   0.000000
     8  H   -0.000138   0.000040  -0.000218   0.000003  -0.000002  -0.000082
     9  H    0.000002   0.000003  -0.000001   0.000000  -0.000003   0.000000
    10  H   -0.000130  -0.000219   0.000041   0.000002  -0.000082  -0.000002
    11  C    0.052335  -0.016573  -0.016782  -0.013892   0.002756   0.002776
    12  C    0.036806   0.028412  -0.019985  -0.002717  -0.000659   0.000403
    13  C    0.044800  -0.019935   0.028907  -0.002905   0.000398  -0.000697
    14  C   -0.019935  -0.095716   0.003819   0.012720   0.000783  -0.000280
    15  C    0.028907   0.003819  -0.096031   0.012831  -0.000278   0.000805
    16  C   -0.002905   0.012720   0.012831   0.288782   0.000022   0.000021
    17  H    0.000398   0.000783  -0.000278   0.000022  -0.008171   0.000017
    18  H   -0.000697  -0.000280   0.000805   0.000021   0.000017  -0.008170
    19  H   -0.000555  -0.000713   0.000468  -0.000209   0.000129  -0.000004
    20  H    0.001610   0.000467  -0.000732  -0.000203  -0.000004   0.000130
    21  H   -0.000707   0.000493   0.000495   0.002258   0.000006   0.000006
    22  H   -0.000005  -0.000001   0.000003   0.000000   0.000000  -0.000003
              19         20         21         22
     1  C   -0.000001   0.000003   0.000000  -0.000712
     2  C    0.000000   0.000000  -0.000000  -0.000209
     3  C    0.000002  -0.000005   0.000000   0.001586
     4  C    0.000003  -0.000001   0.000000   0.000468
     5  C    0.000021   0.000021   0.000009   0.000191
     6  C   -0.000005   0.000002   0.000000  -0.000555
     7  H    0.000000   0.000000   0.000000   0.000080
     8  H    0.000000  -0.000003   0.000000   0.000129
     9  H    0.000000  -0.000000   0.000000   0.000009
    10  H   -0.000003   0.000000   0.000000  -0.000004
    11  C    0.000191   0.000184   0.000103   0.000021
    12  C    0.001587  -0.000556  -0.000701   0.000002
    13  C   -0.000555   0.001610  -0.000707  -0.000005
    14  C   -0.000713   0.000467   0.000493  -0.000001
    15  C    0.000468  -0.000732   0.000495   0.000003
    16  C   -0.000209  -0.000203   0.002258   0.000000
    17  H    0.000129  -0.000004   0.000006   0.000000
    18  H   -0.000004   0.000130   0.000006  -0.000003
    19  H    0.001917   0.000009   0.000080  -0.000000
    20  H    0.000009   0.001912   0.000080   0.000000
    21  H    0.000080   0.000080  -0.015859   0.000000
    22  H   -0.000000   0.000000   0.000000   0.001918
 Mulliken charges and spin densities:
               1          2
     1  C   -0.086625  -0.082226
     2  C   -0.052341   0.296497
     3  C   -0.096116   0.128455
     4  C   -0.086649  -0.082264
     5  C    0.017390   0.133948
     6  C   -0.096144   0.128492
     7  H    0.180532  -0.013738
     8  H    0.187905  -0.007496
     9  H    0.172061   0.002914
    10  H    0.187923  -0.007496
    11  C    0.017368   0.133939
    12  C   -0.096108   0.128512
    13  C   -0.096133   0.128438
    14  C   -0.086652  -0.082258
    15  C   -0.086638  -0.082234
    16  C   -0.052332   0.296496
    17  H    0.187908  -0.007500
    18  H    0.187924  -0.007493
    19  H    0.172064   0.002917
    20  H    0.172062   0.002915
    21  H    0.180533  -0.013737
    22  H    0.172067   0.002918
 Sum of Mulliken charges =   1.00000   1.00000
 Mulliken charges and spin densities with hydrogens summed into heavy atoms:
               1          2
     1  C    0.085442  -0.079308
     2  C    0.128191   0.282759
     3  C    0.091789   0.120959
     4  C    0.085412  -0.079350
     5  C    0.017390   0.133948
     6  C    0.091778   0.120996
    11  C    0.017368   0.133939
    12  C    0.091800   0.121012
    13  C    0.091792   0.120945
    14  C    0.085412  -0.079341
    15  C    0.085424  -0.079320
    16  C    0.128200   0.282759
 Electronic spatial extent (au):  <R**2>=           2269.1118
 Charge=              1.0000 electrons
 Dipole moment (field-independent basis, Debye):
    X=             -0.0000    Y=              0.0001    Z=              0.0003  Tot=              0.0003
 Quadrupole moment (field-independent basis, Debye-Ang):
   XX=            -18.4950   YY=            -52.3758   ZZ=            -69.4015
   XY=              0.0007   XZ=              0.0005   YZ=             -0.0002
 Traceless Quadrupole moment (field-independent basis, Debye-Ang):
   XX=             28.2625   YY=             -5.6184   ZZ=            -22.6441
   XY=              0.0007   XZ=              0.0005   YZ=             -0.0002
 Octapole moment (field-independent basis, Debye-Ang**2):
  XXX=              0.0001  YYY=              0.0013  ZZZ=              0.0003  XYY=             -0.0005
  XXY=              0.0014  XXZ=              0.0107  XZZ=              0.0002  YZZ=             -0.0010
  YYZ=              0.0003  XYZ=            -16.9817
 Hexadecapole moment (field-independent basis, Debye-Ang**3):
 XXXX=          -1614.2295 YYYY=           -438.6789 ZZZZ=           -141.4957 XXXY=             -0.0035
 XXXZ=              0.0062 YYYX=              0.0092 YYYZ=             -0.0007 ZZZX=              0.0015
 ZZZY=             -0.0007 XXYY=           -396.9344 XXZZ=           -450.1266 YYZZ=           -100.1703
 XXYZ=             -0.0003 YYXZ=              0.0023 ZZXY=             -0.0022
 N-N= 5.984723472889D+02 E-N=-2.256675011182D+03  KE= 4.603188889512D+02
                          Isotropic Fermi Contact Couplings
        Atom                 a.u.       MegaHertz       Gauss      10(-4) cm-1
     1  C(13)             -0.00910     -10.23497      -3.65209      -3.41402
     2  C(13)              0.00658       7.39515       2.63877       2.46676
     3  C(13)              0.00212       2.37950       0.84907       0.79372
     4  C(13)             -0.00911     -10.23634      -3.65258      -3.41448
     5  C(13)             -0.00643      -7.23382      -2.58121      -2.41294
     6  C(13)              0.00212       2.38818       0.85216       0.79661
     7  H(1)              -0.00386     -17.26828      -6.16175      -5.76008
     8  H(1)              -0.00193      -8.61333      -3.07345      -2.87310
     9  H(1)               0.00072       3.21117       1.14582       1.07113
    10  H(1)              -0.00193      -8.61377      -3.07361      -2.87324
    11  C(13)             -0.00644      -7.23437      -2.58140      -2.41313
    12  C(13)              0.00212       2.38246       0.85012       0.79470
    13  C(13)              0.00212       2.38666       0.85162       0.79610
    14  C(13)             -0.00911     -10.23731      -3.65293      -3.41480
    15  C(13)             -0.00911     -10.23598      -3.65245      -3.41435
    16  C(13)              0.00658       7.39526       2.63881       2.46679
    17  H(1)              -0.00193      -8.61609      -3.07444      -2.87402
    18  H(1)              -0.00193      -8.61135      -3.07275      -2.87244
    19  H(1)               0.00072       3.21168       1.14601       1.07130
    20  H(1)               0.00072       3.21165       1.14600       1.07129
    21  H(1)              -0.00386     -17.26822      -6.16173      -5.76006
    22  H(1)               0.00072       3.21166       1.14600       1.07129
 --------------------------------------------------------
       Center         ----  Spin Dipole Couplings  ----
                      3XX-RR        3YY-RR        3ZZ-RR
 --------------------------------------------------------
     1   Atom        0.029696      0.018906     -0.048601
     2   Atom       -0.145679     -0.103660      0.249339
     3   Atom       -0.071088     -0.029226      0.100315
     4   Atom        0.029713      0.018915     -0.048628
     5   Atom       -0.091330     -0.086094      0.177424
     6   Atom       -0.071090     -0.029230      0.100321
     7   Atom        0.020943     -0.016712     -0.004232
     8   Atom       -0.006450      0.010529     -0.004079
     9   Atom        0.000136      0.002452     -0.002587
    10   Atom       -0.006445      0.010526     -0.004080
    11   Atom       -0.091327     -0.086092      0.177419
    12   Atom       -0.071120     -0.029257      0.100377
    13   Atom       -0.071064     -0.029180      0.100244
    14   Atom        0.029707      0.018916     -0.048623
    15   Atom        0.029700      0.018909     -0.048609
    16   Atom       -0.145678     -0.103677      0.249356
    17   Atom       -0.006449      0.010528     -0.004079
    18   Atom       -0.006446      0.010525     -0.004079
    19   Atom        0.000137      0.002451     -0.002587
    20   Atom        0.000134      0.002452     -0.002586
    21   Atom        0.020943     -0.016712     -0.004231
    22   Atom        0.000135      0.002452     -0.002586
 --------------------------------------------------------
                        XY            XZ            YZ
 --------------------------------------------------------
     1   Atom        0.002019     -0.010446      0.023460
     2   Atom       -0.000022      0.000059     -0.143816
     3   Atom        0.014197     -0.025580     -0.082199
     4   Atom       -0.002015      0.010431      0.023471
     5   Atom       -0.000001      0.000017     -0.053886
     6   Atom       -0.014190      0.025574     -0.082197
     7   Atom       -0.000004     -0.000004     -0.005380
     8   Atom       -0.004682     -0.000957      0.003832
     9   Atom        0.001269      0.000621      0.002840
    10   Atom        0.004686      0.000957      0.003830
    11   Atom        0.000003     -0.000000      0.053884
    12   Atom        0.014178      0.025552      0.082212
    13   Atom       -0.014204     -0.025582      0.082203
    14   Atom        0.002017      0.010444     -0.023469
    15   Atom       -0.002017     -0.010432     -0.023459
    16   Atom       -0.000020     -0.000060      0.143792
    17   Atom       -0.004687      0.000957     -0.003832
    18   Atom        0.004682     -0.000957     -0.003832
    19   Atom       -0.001268      0.000621     -0.002840
    20   Atom        0.001268     -0.000620     -0.002841
    21   Atom        0.000000      0.000002      0.005379
    22   Atom       -0.001267     -0.000620      0.002842
 --------------------------------------------------------


 ---------------------------------------------------------------------------------
              Anisotropic Spin Dipole Couplings in Principal Axis System
 ---------------------------------------------------------------------------------

       Atom             a.u.   MegaHertz   Gauss  10(-4) cm-1        Axes

              Baa    -0.0572    -7.681    -2.741    -2.562  0.1207 -0.2952  0.9478
     1 C(13)  Bbb     0.0260     3.486     1.244     1.163  0.2292  0.9373  0.2627
              Bcc     0.0313     4.195     1.497     1.399  0.9659 -0.1855 -0.1808
 
              Baa    -0.1548   -20.777    -7.414    -6.931  0.0001  0.9421  0.3352
     2 C(13)  Bbb    -0.1457   -19.549    -6.975    -6.521  1.0000 -0.0000 -0.0002
              Bcc     0.3005    40.326    14.389    13.451  0.0001 -0.3352  0.9421
 
              Baa    -0.0755   -10.125    -3.613    -3.377  0.9611 -0.2758  0.0109
     3 C(13)  Bbb    -0.0687    -9.220    -3.290    -3.075  0.2411  0.8579  0.4537
              Bcc     0.1442    19.345     6.903     6.453 -0.1345 -0.4335  0.8911
 
              Baa    -0.0573    -7.684    -2.742    -2.563 -0.1205 -0.2952  0.9478
     4 C(13)  Bbb     0.0260     3.487     1.244     1.163 -0.2290  0.9373  0.2628
              Bcc     0.0313     4.197     1.498     1.400  0.9659  0.1854  0.1805
 
              Baa    -0.0967   -12.975    -4.630    -4.328 -0.0005  0.9812  0.1929
     5 C(13)  Bbb    -0.0913   -12.256    -4.373    -4.088  1.0000  0.0005  0.0000
              Bcc     0.1880    25.230     9.003     8.416  0.0001 -0.1929  0.9812
 
              Baa    -0.0755   -10.125    -3.613    -3.377  0.9612  0.2756 -0.0110
     6 C(13)  Bbb    -0.0687    -9.220    -3.290    -3.076 -0.2408  0.8580  0.4537
              Bcc     0.1442    19.345     6.903     6.453  0.1344 -0.4334  0.8911
 
              Baa    -0.0187    -9.983    -3.562    -3.330  0.0001  0.9374  0.3483
     7 H(1)   Bbb    -0.0022    -1.191    -0.425    -0.397  0.0001 -0.3483  0.9374
              Bcc     0.0209    11.174     3.987     3.727  1.0000 -0.0001 -0.0001
 
              Baa    -0.0077    -4.085    -1.458    -1.363  0.9678  0.2513 -0.0103
     8 H(1)   Bbb    -0.0050    -2.673    -0.954    -0.892  0.0674 -0.2197  0.9732
              Bcc     0.0127     6.758     2.411     2.254 -0.2423  0.9426  0.2296
 
              Baa    -0.0039    -2.062    -0.736    -0.688 -0.0123 -0.4080  0.9129
     9 H(1)   Bbb    -0.0004    -0.188    -0.067    -0.063  0.9450 -0.3032 -0.1228
              Bcc     0.0042     2.250     0.803     0.751  0.3269  0.8612  0.3892
 
              Baa    -0.0077    -4.084    -1.457    -1.362  0.9677 -0.2517  0.0108
    10 H(1)   Bbb    -0.0050    -2.673    -0.954    -0.892 -0.0679 -0.2194  0.9733
              Bcc     0.0127     6.757     2.411     2.254  0.2426  0.9426  0.2295
 
              Baa    -0.0967   -12.974    -4.630    -4.328 -0.0005  0.9812 -0.1929
    11 C(13)  Bbb    -0.0913   -12.255    -4.373    -4.088  1.0000  0.0005 -0.0001
              Bcc     0.1880    25.229     9.002     8.416  0.0000  0.1929  0.9812
 
              Baa    -0.0755   -10.128    -3.614    -3.378  0.9612 -0.2757 -0.0108
    12 C(13)  Bbb    -0.0687    -9.223    -3.291    -3.076  0.2410  0.8580 -0.4535
              Bcc     0.1442    19.351     6.905     6.455  0.1343  0.4333  0.8912
 
              Baa    -0.0754   -10.122    -3.612    -3.376  0.9612  0.2757  0.0109
    13 C(13)  Bbb    -0.0687    -9.217    -3.289    -3.075 -0.2409  0.8579 -0.4539
              Bcc     0.1441    19.339     6.901     6.451 -0.1346  0.4337  0.8910
 
              Baa    -0.0573    -7.684    -2.742    -2.563 -0.1207  0.2952  0.9478
    14 C(13)  Bbb     0.0260     3.487     1.244     1.163  0.2294  0.9372 -0.2627
              Bcc     0.0313     4.197     1.497     1.400  0.9658 -0.1857  0.1808
 
              Baa    -0.0572    -7.681    -2.741    -2.562  0.1206  0.2952  0.9478
    15 C(13)  Bbb     0.0260     3.486     1.244     1.163 -0.2288  0.9373 -0.2628
              Bcc     0.0313     4.195     1.497     1.399  0.9660  0.1851 -0.1805
 
              Baa    -0.1548   -20.777    -7.414    -6.930 -0.0001  0.9422 -0.3352
    16 C(13)  Bbb    -0.1457   -19.549    -6.975    -6.521  1.0000  0.0001  0.0001
              Bcc     0.3005    40.326    14.389    13.451 -0.0001  0.3352  0.9422
 
              Baa    -0.0077    -4.085    -1.458    -1.363  0.9678  0.2517  0.0107
    17 H(1)   Bbb    -0.0050    -2.673    -0.954    -0.892 -0.0679  0.2195  0.9732
              Bcc     0.0127     6.759     2.412     2.254 -0.2426  0.9426 -0.2295
 
              Baa    -0.0077    -4.083    -1.457    -1.362  0.9678 -0.2514 -0.0104
    18 H(1)   Bbb    -0.0050    -2.673    -0.954    -0.892  0.0675  0.2197  0.9732
              Bcc     0.0127     6.756     2.411     2.254  0.2424  0.9426 -0.2296
 
              Baa    -0.0039    -2.062    -0.736    -0.688 -0.0123  0.4081  0.9129
    19 H(1)   Bbb    -0.0004    -0.187    -0.067    -0.062  0.9450  0.3032 -0.1228
              Bcc     0.0042     2.250     0.803     0.750 -0.3269  0.8611 -0.3893
 
              Baa    -0.0039    -2.062    -0.736    -0.688  0.0121  0.4081  0.9128
    20 H(1)   Bbb    -0.0004    -0.188    -0.067    -0.063  0.9451 -0.3027  0.1228
              Bcc     0.0042     2.250     0.803     0.751  0.3265  0.8613 -0.3894
 
              Baa    -0.0187    -9.983    -3.562    -3.330  0.0000  0.9374 -0.3483
    21 H(1)   Bbb    -0.0022    -1.191    -0.425    -0.397 -0.0001  0.3483  0.9374
              Bcc     0.0209    11.174     3.987     3.727  1.0000  0.0000  0.0001
 
              Baa    -0.0039    -2.062    -0.736    -0.688  0.0121 -0.4082  0.9128
    22 H(1)   Bbb    -0.0004    -0.188    -0.067    -0.063  0.9451  0.3027  0.1228
              Bcc     0.0042     2.250     0.803     0.751 -0.3264  0.8612  0.3895
 

 ---------------------------------------------------------------------------------

 No NMR shielding tensors so no spin-rotation constants.
 Leave Link  601 at Sun Jan 17 09:53:42 2021, MaxMem=  4026531840 cpu:               3.0 elap:               0.4
 (Enter /opt/ohpc/pub/libs/gaussian/g16-A.03/sandybridge/g16/l9999.exe)

 Test job not archived.
 1\1\GINC-CASCADEB028\SP\ULC-wHPBE\TZVP\C12H10(1+,2)\RDU230\17-Jan-2021
 \0\\#P LC-wHPBE/TZVP iop(3/107=0237800000, 3/108=0237800000) scf=(conv
 er=6,fermi,ndamp=35,noincfock,novaracc,vshift=500,xqc)\\H10 C12\\1,2\C
 ,0,-2.8585,1.132993,0.41369\C,0,-3.561927,-0.000084,-0.000146\C,0,-1.4
 63685,1.132747,0.413534\C,0,-2.858269,-1.133176,-0.413741\C,0,-0.74238
 1,0.000123,0.000091\C,0,-1.463491,-1.132675,-0.413489\H,0,-4.653174,-0
 .00016,-0.000261\H,0,-0.922222,2.014213,0.762301\H,0,-3.398792,-2.0209
 86,-0.747134\H,0,-0.921754,-2.014027,-0.762095\C,0,0.742385,0.000142,0
 .000197\C,0,1.463539,-1.132637,0.413582\C,0,1.463636,1.132765,-0.41347
 7\C,0,2.858357,-1.133114,0.41366\C,0,2.858412,1.133073,-0.413706\C,0,3
 .561931,-0.000095,-0.000087\H,0,0.921935,-2.014039,0.762261\H,0,0.9220
 17,2.014128,-0.762265\H,0,3.398826,-2.021,0.746938\H,0,3.399026,2.0208
 05,-0.747168\H,0,4.653184,-0.000117,-0.000198\H,0,-3.399078,2.020813,0
 .746974\\Version=EM64L-G16RevA.03\State=2-A\HF=-462.7193876\S2=0.77862
 \S2-1=0.\S2A=0.750582\RMSD=6.147e-07\Dipole=-0.0000193,-0.0000299,-0.0
 001101\Quadrupole=21.0124583,-4.1771348,-16.8353235,-0.000528,-0.00035
 55,-0.0001447\PG=C01 [X(C12H10)]\\@


 SATCHEL PAIGE'S GUIDE TO LONGEVITY

    1.  AVOID FRIED MEATS, WHICH ANGRY UP THE BLOOD.

    2.  IF YOUR STOMACH DISPUTES YOU, LIE DOWN AND PACIFY IT WITH COOL
        THOUGHTS.

    3.  KEEP THE JUICES FLOWING BY JANGLING AROUND GENTLY AS YOU MOVE.

    4.  GO VERY LIGHT ON THE VICES, SUCH AS CARRYING ON IN SOCIETY.
        THE SOCIAL RUMBLE AIN'T RESTFUL.

    5.  AVOID RUNNING AT ALL TIMES.

    6.  DON'T LOOK BACK.  SOMETHING MAY BE GAINING ON YOU.
 Job cpu time:       0 days  0 hours 19 minutes 21.4 seconds.
 Elapsed time:       0 days  0 hours  2 minutes 25.9 seconds.
 File lengths (MBytes):  RWF=    100 Int=      0 D2E=      0 Chk=     12 Scr=      8
 Normal termination of Gaussian 16 at Sun Jan 17 09:53:43 2021.
