 Entering Gaussian System, Link 0=g16
 Input=mol_bp_NN_frag_tune_n5.gjf
 Output=mol_bp_NN_frag_tune_n5.log
 Initial command:
 /opt/ohpc/pub/libs/gaussian/g16-A.03/sandybridge/g16/l1.exe "/mnt/gpfs2_4m/scratch/rdu230/ondemand/projects/init_structures/wtuning/mol_bp_NN_frag/tuning_mol_bp_NN_frag_ocycle0/Gau-300063.inp" -scrdir="/mnt/gpfs2_4m/scratch/rdu230/ondemand/projects/init_structures/wtuning/mol_bp_NN_frag/tuning_mol_bp_NN_frag_ocycle0/"
 Entering Link 1 = /opt/ohpc/pub/libs/gaussian/g16-A.03/sandybridge/g16/l1.exe PID=    300064.
  
 Copyright (c) 1988,1990,1992,1993,1995,1998,2003,2009,2016,
            Gaussian, Inc.  All Rights Reserved.
  
 This is part of the Gaussian(R) 16 program.  It is based on
 the Gaussian(R) 09 system (copyright 2009, Gaussian, Inc.),
 the Gaussian(R) 03 system (copyright 2003, Gaussian, Inc.),
 the Gaussian(R) 98 system (copyright 1998, Gaussian, Inc.),
 the Gaussian(R) 94 system (copyright 1995, Gaussian, Inc.),
 the Gaussian 92(TM) system (copyright 1992, Gaussian, Inc.),
 the Gaussian 90(TM) system (copyright 1990, Gaussian, Inc.),
 the Gaussian 88(TM) system (copyright 1988, Gaussian, Inc.),
 the Gaussian 86(TM) system (copyright 1986, Carnegie Mellon
 University), and the Gaussian 82(TM) system (copyright 1983,
 Carnegie Mellon University). Gaussian is a federally registered
 trademark of Gaussian, Inc.
  
 This software contains proprietary and confidential information,
 including trade secrets, belonging to Gaussian, Inc.
  
 This software is provided under written license and may be
 used, copied, transmitted, or stored only in accord with that
 written license.
  
 The following legend is applicable only to US Government
 contracts under FAR:
  
                    RESTRICTED RIGHTS LEGEND
  
 Use, reproduction and disclosure by the US Government is
 subject to restrictions as set forth in subparagraphs (a)
 and (c) of the Commercial Computer Software - Restricted
 Rights clause in FAR 52.227-19.
  
 Gaussian, Inc.
 340 Quinnipiac St., Bldg. 40, Wallingford CT 06492
  
  
 ---------------------------------------------------------------
 Warning -- This program may not be used in any manner that
 competes with the business of Gaussian, Inc. or will provide
 assistance to any competitor of Gaussian, Inc.  The licensee
 of this program is prohibited from giving any competitor of
 Gaussian, Inc. access to this program.  By using this program,
 the user acknowledges that Gaussian, Inc. is engaged in the
 business of creating and licensing software in the field of
 computational chemistry and represents and warrants to the
 licensee that it is not a competitor of Gaussian, Inc. and that
 it will not use this program in any manner prohibited above.
 ---------------------------------------------------------------
  

 Cite this work as:
 Gaussian 16, Revision A.03,
 M. J. Frisch, G. W. Trucks, H. B. Schlegel, G. E. Scuseria, 
 M. A. Robb, J. R. Cheeseman, G. Scalmani, V. Barone, 
 G. A. Petersson, H. Nakatsuji, X. Li, M. Caricato, A. V. Marenich, 
 J. Bloino, B. G. Janesko, R. Gomperts, B. Mennucci, H. P. Hratchian, 
 J. V. Ortiz, A. F. Izmaylov, J. L. Sonnenberg, D. Williams-Young, 
 F. Ding, F. Lipparini, F. Egidi, J. Goings, B. Peng, A. Petrone, 
 T. Henderson, D. Ranasinghe, V. G. Zakrzewski, J. Gao, N. Rega, 
 G. Zheng, W. Liang, M. Hada, M. Ehara, K. Toyota, R. Fukuda, 
 J. Hasegawa, M. Ishida, T. Nakajima, Y. Honda, O. Kitao, H. Nakai, 
 T. Vreven, K. Throssell, J. A. Montgomery, Jr., J. E. Peralta, 
 F. Ogliaro, M. J. Bearpark, J. J. Heyd, E. N. Brothers, K. N. Kudin, 
 V. N. Staroverov, T. A. Keith, R. Kobayashi, J. Normand, 
 K. Raghavachari, A. P. Rendell, J. C. Burant, S. S. Iyengar, 
 J. Tomasi, M. Cossi, J. M. Millam, M. Klene, C. Adamo, R. Cammi, 
 J. W. Ochterski, R. L. Martin, K. Morokuma, O. Farkas, 
 J. B. Foresman, and D. J. Fox, Gaussian, Inc., Wallingford CT, 2016.
 
 ******************************************
 Gaussian 16:  EM64L-G16RevA.03 25-Dec-2016
                17-Jan-2021 
 ******************************************
 %mem=30GB
 %nproc=8
 Will use up to    8 processors via shared memory.
 ----------------------------------------------------------------------
 #P LC-wHPBE/TZVP iop(3/107=0236000000, 3/108=0236000000) scf=(conver=6
 ,fermi,ndamp=35,noincfock,novaracc,vshift=500,xqc)
 ----------------------------------------------------------------------
 1/38=1,172=1/1;
 2/12=2,17=6,18=5,40=1/2;
 3/5=19,7=101,11=2,25=1,30=1,74=-71,107=236000000,108=236000000/1,2,3;
 4//1;
 5/5=100002,6=6,8=3,10=500,13=1,18=-1,22=13,38=1,93=35/2,8;
 6/7=2,8=2,9=2,10=2,28=1/1;
 99/5=1,9=1/99;
 Leave Link    1 at Sun Jan 17 09:53:43 2021, MaxMem=  4026531840 cpu:               1.0 elap:               0.2
 (Enter /opt/ohpc/pub/libs/gaussian/g16-A.03/sandybridge/g16/l101.exe)
 -------
 H10 C12
 -------
 Symbolic Z-matrix:
 Charge =  0 Multiplicity = 1
 C                    -2.8585    1.13299   0.41369 
 C                    -3.56193  -0.00008  -0.00015 
 C                    -1.46369   1.13275   0.41353 
 C                    -2.85827  -1.13318  -0.41374 
 C                    -0.74238   0.00012   0.00009 
 C                    -1.46349  -1.13268  -0.41349 
 H                    -4.65317  -0.00016  -0.00026 
 H                    -0.92222   2.01421   0.7623 
 H                    -3.39879  -2.02099  -0.74713 
 H                    -0.92175  -2.01403  -0.7621 
 C                     0.74239   0.00014   0.0002 
 C                     1.46354  -1.13264   0.41358 
 C                     1.46364   1.13277  -0.41348 
 C                     2.85836  -1.13311   0.41366 
 C                     2.85841   1.13307  -0.41371 
 C                     3.56193  -0.0001   -0.00009 
 H                     0.92194  -2.01404   0.76226 
 H                     0.92202   2.01413  -0.76227 
 H                     3.39883  -2.021     0.74694 
 H                     3.39903   2.02081  -0.74717 
 H                     4.65318  -0.00012  -0.0002 
 H                    -3.39908   2.02081   0.74697 
 
 ITRead=  0  0  0  0  0  0  0  0  0  0  0  0  0  0  0  0  0  0  0  0
 ITRead=  0  0
 MicOpt= -1 -1 -1 -1 -1 -1 -1 -1 -1 -1 -1 -1 -1 -1 -1 -1 -1 -1 -1 -1
 MicOpt= -1 -1
 NAtoms=     22 NQM=       22 NQMF=       0 NMMI=      0 NMMIF=      0
                NMic=       0 NMicF=      0.
                    Isotopes and Nuclear Properties:
 (Nuclear quadrupole moments (NQMom) in fm**2, nuclear magnetic moments (NMagM)
  in nuclear magnetons)

  Atom         1           2           3           4           5           6           7           8           9          10
 IAtWgt=          12          12          12          12          12          12           1           1           1           1
 AtmWgt=  12.0000000  12.0000000  12.0000000  12.0000000  12.0000000  12.0000000   1.0078250   1.0078250   1.0078250   1.0078250
 NucSpn=           0           0           0           0           0           0           1           1           1           1
 AtZEff=  -0.0000000  -0.0000000  -0.0000000  -0.0000000  -0.0000000  -0.0000000  -0.0000000  -0.0000000  -0.0000000  -0.0000000
 NQMom=    0.0000000   0.0000000   0.0000000   0.0000000   0.0000000   0.0000000   0.0000000   0.0000000   0.0000000   0.0000000
 NMagM=    0.0000000   0.0000000   0.0000000   0.0000000   0.0000000   0.0000000   2.7928460   2.7928460   2.7928460   2.7928460
 AtZNuc=   6.0000000   6.0000000   6.0000000   6.0000000   6.0000000   6.0000000   1.0000000   1.0000000   1.0000000   1.0000000

  Atom        11          12          13          14          15          16          17          18          19          20
 IAtWgt=          12          12          12          12          12          12           1           1           1           1
 AtmWgt=  12.0000000  12.0000000  12.0000000  12.0000000  12.0000000  12.0000000   1.0078250   1.0078250   1.0078250   1.0078250
 NucSpn=           0           0           0           0           0           0           1           1           1           1
 AtZEff=  -0.0000000  -0.0000000  -0.0000000  -0.0000000  -0.0000000  -0.0000000  -0.0000000  -0.0000000  -0.0000000  -0.0000000
 NQMom=    0.0000000   0.0000000   0.0000000   0.0000000   0.0000000   0.0000000   0.0000000   0.0000000   0.0000000   0.0000000
 NMagM=    0.0000000   0.0000000   0.0000000   0.0000000   0.0000000   0.0000000   2.7928460   2.7928460   2.7928460   2.7928460
 AtZNuc=   6.0000000   6.0000000   6.0000000   6.0000000   6.0000000   6.0000000   1.0000000   1.0000000   1.0000000   1.0000000

  Atom        21          22
 IAtWgt=           1           1
 AtmWgt=   1.0078250   1.0078250
 NucSpn=           1           1
 AtZEff=  -0.0000000  -0.0000000
 NQMom=    0.0000000   0.0000000
 NMagM=    2.7928460   2.7928460
 AtZNuc=   1.0000000   1.0000000
 Leave Link  101 at Sun Jan 17 09:53:43 2021, MaxMem=  4026531840 cpu:               0.7 elap:               0.1
 (Enter /opt/ohpc/pub/libs/gaussian/g16-A.03/sandybridge/g16/l202.exe)
                          Input orientation:                          
 ---------------------------------------------------------------------
 Center     Atomic      Atomic             Coordinates (Angstroms)
 Number     Number       Type             X           Y           Z
 ---------------------------------------------------------------------
      1          6           0       -2.858500    1.132993    0.413690
      2          6           0       -3.561927   -0.000084   -0.000146
      3          6           0       -1.463685    1.132747    0.413534
      4          6           0       -2.858269   -1.133176   -0.413741
      5          6           0       -0.742381    0.000123    0.000091
      6          6           0       -1.463491   -1.132675   -0.413489
      7          1           0       -4.653174   -0.000160   -0.000261
      8          1           0       -0.922222    2.014213    0.762301
      9          1           0       -3.398792   -2.020986   -0.747134
     10          1           0       -0.921754   -2.014027   -0.762095
     11          6           0        0.742385    0.000142    0.000197
     12          6           0        1.463539   -1.132637    0.413582
     13          6           0        1.463636    1.132765   -0.413477
     14          6           0        2.858357   -1.133114    0.413660
     15          6           0        2.858412    1.133073   -0.413706
     16          6           0        3.561931   -0.000095   -0.000087
     17          1           0        0.921935   -2.014039    0.762261
     18          1           0        0.922017    2.014128   -0.762265
     19          1           0        3.398826   -2.021000    0.746938
     20          1           0        3.399026    2.020805   -0.747168
     21          1           0        4.653184   -0.000117   -0.000198
     22          1           0       -3.399078    2.020813    0.746974
 ---------------------------------------------------------------------
                    Distance matrix (angstroms):
                    1          2          3          4          5
     1  C    0.000000
     2  C    1.396400   0.000000
     3  C    1.394815   2.420136   0.000000
     4  C    2.412502   1.396457   2.786334   0.000000
     5  C    2.435656   2.819546   1.405010   2.435694   0.000000
     6  C    2.786311   2.420134   2.411660   1.394778   1.405091
     7  H    2.162463   1.091247   3.409919   2.162493   3.910793
     8  H    2.155748   3.406870   1.091697   3.877810   2.160987
     9  H    3.403970   2.160706   3.877863   1.091569   3.420489
    10  H    3.877782   3.406912   3.402643   2.155769   2.160996
    11  C    3.797460   4.304312   2.514038   3.797429   1.484766
    12  C    4.879867   5.168090   3.701433   4.400283   2.514001
    13  C    4.400576   5.168218   3.041900   4.879893   2.514046
    14  C    6.149609   6.532613   4.879977   5.776193   3.797444
    15  C    5.776475   6.532674   4.400551   6.149498   3.797435
    16  C    6.532766   7.123858   5.168291   6.532530   4.304312
    17  H    4.931227   4.974163   3.964222   4.055717   2.721709
    18  H    4.056054   4.974297   2.801947   4.931283   2.721695
    19  H    7.015187   7.286585   5.805281   6.425468   4.668224
    20  H    6.425919   7.286762   5.077582   7.015163   4.668276
    21  H    7.607933   8.215111   6.234632   7.607678   5.395565
    22  H    1.091571   2.160725   2.155363   3.404024   3.420389
                    6          7          8          9         10
     6  C    0.000000
     7  H    3.409901   0.000000
     8  H    3.402699   4.308039   0.000000
     9  H    2.155413   2.492996   4.969369   0.000000
    10  H    1.091690   4.308079   4.307029   2.477093   0.000000
    11  C    2.514021   5.395559   2.721801   4.668277   2.721640
    12  C    3.041636   6.234416   3.964357   5.077272   2.801551
    13  C    3.701390   6.234551   2.802093   5.805229   3.964079
    14  C    4.400289   7.607760   4.931531   6.425548   4.055570
    15  C    4.879801   7.607830   4.056180   7.015117   4.931051
    16  C    5.168027   8.215105   4.974565   7.286545   4.973933
    17  H    2.801687   5.976537   4.430319   4.576790   2.392248
    18  H    3.964172   5.976685   2.392806   5.912002   4.430070
    19  H    5.077188   8.335275   5.912245   6.959875   4.576532
    20  H    5.805157   8.335472   4.577305   7.908628   5.911788
    21  H    6.234357   9.306358   5.976963   8.335235   5.976308
    22  H    3.877842   2.493080   2.476912   4.309118   4.969342
                   11         12         13         14         15
    11  C    0.000000
    12  C    1.405040   0.000000
    13  C    1.405049   2.411654   0.000000
    14  C    2.435684   1.394818   2.786326   0.000000
    15  C    2.435656   2.786309   1.394776   2.412496   0.000000
    16  C    2.819546   2.420129   2.420146   1.396401   1.396456
    17  H    2.160996   1.091687   3.402672   2.155755   3.877777
    18  H    2.160962   3.402645   1.091698   3.877801   2.155778
    19  H    3.420426   2.155377   3.877855   1.091569   3.404015
    20  H    3.420435   3.877840   2.155388   3.403976   1.091572
    21  H    3.910799   3.409934   3.409903   2.162490   2.162479
    22  H    4.668244   5.805208   5.077525   7.015258   6.425842
                   16         17         18         19         20
    16  C    0.000000
    17  H    3.406864   0.000000
    18  H    3.406928   4.307007   0.000000
    19  H    2.160719   2.476948   4.969360   0.000000
    20  H    2.160719   4.969338   2.477064   4.309123   0.000000
    21  H    1.091253   4.308067   4.308078   2.493109   2.492991
    22  H    7.286825   5.911972   4.577085   7.908714   6.960365
                   21         22
    21  H    0.000000
    22  H    8.335547   0.000000
 Stoichiometry    C12H10
 Framework group  C1[X(C12H10)]
 Deg. of freedom    60
 Full point group                 C1      NOp   1
 Largest Abelian subgroup         C1      NOp   1
 Largest concise Abelian subgroup C1      NOp   1
                         Standard orientation:                         
 ---------------------------------------------------------------------
 Center     Atomic      Atomic             Coordinates (Angstroms)
 Number     Number       Type             X           Y           Z
 ---------------------------------------------------------------------
      1          6           0       -2.858500   -1.132993   -0.413690
      2          6           0       -3.561927    0.000084    0.000146
      3          6           0       -1.463685   -1.132747   -0.413534
      4          6           0       -2.858269    1.133176    0.413741
      5          6           0       -0.742381   -0.000123   -0.000091
      6          6           0       -1.463491    1.132675    0.413489
      7          1           0       -4.653174    0.000160    0.000261
      8          1           0       -0.922222   -2.014213   -0.762301
      9          1           0       -3.398792    2.020986    0.747134
     10          1           0       -0.921754    2.014027    0.762095
     11          6           0        0.742385   -0.000142   -0.000197
     12          6           0        1.463539    1.132637   -0.413582
     13          6           0        1.463636   -1.132765    0.413477
     14          6           0        2.858357    1.133114   -0.413660
     15          6           0        2.858412   -1.133073    0.413706
     16          6           0        3.561931    0.000095    0.000087
     17          1           0        0.921935    2.014039   -0.762261
     18          1           0        0.922017   -2.014128    0.762265
     19          1           0        3.398826    2.021000   -0.746938
     20          1           0        3.399026   -2.020805    0.747168
     21          1           0        4.653184    0.000117    0.000198
     22          1           0       -3.399078   -2.020813   -0.746974
 ---------------------------------------------------------------------
 Rotational constants (GHZ):           2.8545349           0.5449545           0.4756990
 Leave Link  202 at Sun Jan 17 09:53:43 2021, MaxMem=  4026531840 cpu:               0.3 elap:               0.1
 (Enter /opt/ohpc/pub/libs/gaussian/g16-A.03/sandybridge/g16/l301.exe)
 Standard basis: TZVP (5D, 7F)
 Ernie: Thresh=  0.10000D-02 Tol=  0.10000D-05 Strict=F.
 There are   300 symmetry adapted cartesian basis functions of A   symmetry.
 There are   288 symmetry adapted basis functions of A   symmetry.
   288 basis functions,   500 primitive gaussians,   300 cartesian basis functions
    41 alpha electrons       41 beta electrons
       nuclear repulsion energy       598.4723472889 Hartrees.
 IExCor=33909 DFT=T Ex+Corr=LC-wHPBE ExCW=0 ScaHFX=  1.000000
 ScaDFX=  1.000000  1.000000  1.000000  1.000000 ScalE2=  1.000000  1.000000
 IRadAn=      5 IRanWt=     -1 IRanGd=            0 ICorTp=0 IEmpDi=  4
 HFx  wShort=  0.000000 wLong=  0.236000 cFull=  0.000000 cShort=  0.000000 cLong=  1.000000
 DFx  wShort=  0.000000 wLong=  0.236000 cFull=  0.000000 cShort=  1.000000 cLong=  0.000000
 NAtoms=   22 NActive=   22 NUniq=   22 SFac= 1.00D+00 NAtFMM=   60 NAOKFM=F Big=F
 Integral buffers will be    131072 words long.
 Raffenetti 2 integral format.
 Two-electron integral symmetry is turned on.
 Leave Link  301 at Sun Jan 17 09:53:43 2021, MaxMem=  4026531840 cpu:               0.3 elap:               0.1
 (Enter /opt/ohpc/pub/libs/gaussian/g16-A.03/sandybridge/g16/l302.exe)
 NPDir=0 NMtPBC=     1 NCelOv=     1 NCel=       1 NClECP=     1 NCelD=      1
         NCelK=      1 NCelE2=     1 NClLst=     1 CellRange=     0.0.
 One-electron integrals computed using PRISM.
 One-electron integral symmetry used in STVInt
 NBasis=   288 RedAO= T EigKep=  9.18D-06  NBF=   288
 NBsUse=   288 1.00D-06 EigRej= -1.00D+00 NBFU=   288
 Precomputing XC quadrature grid using
 IXCGrd= 4 IRadAn=           5 IRanWt=          -1 IRanGd=           0 AccXCQ= 0.00D+00.
 Generated NRdTot=       0 NPtTot=           0 NUsed=           0 NTot=          32
 NSgBfM=   295   295   295   295   295 MxSgAt=    22 MxSgA2=    22.
 Leave Link  302 at Sun Jan 17 09:53:43 2021, MaxMem=  4026531840 cpu:               2.1 elap:               0.3
 (Enter /opt/ohpc/pub/libs/gaussian/g16-A.03/sandybridge/g16/l303.exe)
 DipDrv:  MaxL=1.
 Leave Link  303 at Sun Jan 17 09:53:44 2021, MaxMem=  4026531840 cpu:               0.7 elap:               0.2
 (Enter /opt/ohpc/pub/libs/gaussian/g16-A.03/sandybridge/g16/l401.exe)
 ExpMin= 9.52D-02 ExpMax= 1.36D+04 ExpMxC= 4.63D+02 IAcc=3 IRadAn=         5 AccDes= 0.00D+00
 Harris functional with IExCor=33909 and IRadAn=       5 diagonalized for initial guess.
 HarFok:  IExCor=33909 AccDes= 0.00D+00 IRadAn=         5 IDoV= 1 UseB2=F ITyADJ=14
 ICtDFT=  3500011 ScaDFX=  1.000000  1.000000  1.000000  1.000000
 FoFCou: FMM=F IPFlag=           0 FMFlag=      100000 FMFlg1=           0
         NFxFlg=           0 DoJE=T BraDBF=F KetDBF=T FulRan=T
         wScrn=  0.000000 ICntrl=       500 IOpCl=  0 I1Cent=   200000004 NGrid=           0
         NMat0=    1 NMatS0=      1 NMatT0=    0 NMatD0=    1 NMtDS0=    0 NMtDT0=    0
 Petite list used in FoFCou.
 Harris En= -452.899540185697    
 JPrj=0 DoOrth=F DoCkMO=F.
 Leave Link  401 at Sun Jan 17 09:53:45 2021, MaxMem=  4026531840 cpu:              13.7 elap:               1.7
 (Enter /opt/ohpc/pub/libs/gaussian/g16-A.03/sandybridge/g16/l502.exe)
 Integral symmetry usage will be decided dynamically.
 Closed shell SCF:
 Using DIIS extrapolation, IDIIS=    10.
 NGot=  4026531840 LenX=  4026346394 LenY=  4026255953
 Requested convergence on RMS density matrix=1.00D-06 within  32 cycles.
 Requested convergence on MAX density matrix=1.00D-04.
 Requested convergence on             energy=1.00D-04.
 Virtual orbitals will be shifted by   0.500 hartree.
 No special actions if energy rises.
 Dynamic level shift is on during FON iterations.

 Cycle   1  Pass 1  IDiag  1:
 FoFJK:  IHMeth= 1 ICntrl=       0 DoSepK=T KAlg= 0 I1Cent=           0 FoldK=F
 IRaf=         1 NMat=       1 IRICut=       1 DoRegI=T DoRafI=F ISym2E= 0 IDoP0=0 IntGTp=1.
 FoFCou: FMM=F IPFlag=           0 FMFlag=      100000 FMFlg1=           0
         NFxFlg=           0 DoJE=T BraDBF=F KetDBF=F FulRan=T
         wScrn=  0.000000 ICntrl=       500 IOpCl=  0 I1Cent=           0 NGrid=           0
         NMat0=    1 NMatS0=      1 NMatT0=    0 NMatD0=    1 NMtDS0=    0 NMtDT0=    0
 Symmetry not used in FoFCou.
 E= -462.842512274143    
 DIIS: error= 2.97D-02 at cycle   1 NSaved=   1.
 NSaved= 1 IEnMin= 1 EnMin= -462.842512274143     IErMin= 1 ErrMin= 2.97D-02
 ErrMax= 2.97D-02  0.00D+00 EMaxC= 1.00D+00 BMatC= 1.71D-01 BMatP= 1.71D-01
 IDIUse=1 WtCom= 1.00D+00 WtEn= 0.00D+00
 Coeff-Com:  0.100D+01
 Coeff:      0.100D+01
 Gap=     0.324 Goal=   None    Shift=    0.500
 T= 1490. Gap= 0.813 NK=0 IS=   42 IE=  288 IFin=   41
          NO(<0.9)=   0  NV(>0.1)=   0     41.00e < EF      0.00e >EF  Err=0.0D+00
 GapD=    0.324 DampG=1.000 DampE=0.500 DampFc=0.5000 IDamp=-1.
 Damping current iteration by 5.00D-01
 RMSDP=2.96D-03 MaxDP=9.34D-02              OVMax= 6.23D-02

 Cycle   2  Pass 1  IDiag  1:
 E= -462.950494104404     Delta-E=       -0.107981830262 Rises=F Damp=T
 DIIS: error= 1.41D-02 at cycle   2 NSaved=   2.
 NSaved= 2 IEnMin= 2 EnMin= -462.950494104404     IErMin= 2 ErrMin= 1.41D-02
 ErrMax= 1.41D-02  0.00D+00 EMaxC= 1.00D+00 BMatC= 3.42D-02 BMatP= 1.71D-01
 IDIUse=1 WtCom= 1.00D+00 WtEn= 0.00D+00
 Coeff-Com: -0.706D+00 0.171D+01
 Coeff:     -0.706D+00 0.171D+01
 Gap=     0.331 Goal=   None    Shift=    0.500
 T= 1374. Gap= 0.826 NK=0 IS=   42 IE=  288 IFin=   41
          NO(<0.9)=   0  NV(>0.1)=   0     41.00e < EF      0.00e >EF  Err=0.0D+00
 GapD=    0.331 DampG=1.000 DampE=0.500 DampFc=0.5000 IDamp=-1.
 Damping current iteration by 5.00D-01
 RMSDP=1.85D-03 MaxDP=6.08D-02 DE=-1.08D-01 OVMax= 9.24D-03

 Cycle   3  Pass 1  IDiag  1:
 E= -462.990276437967     Delta-E=       -0.039782333562 Rises=F Damp=T
 DIIS: error= 6.75D-03 at cycle   3 NSaved=   3.
 NSaved= 3 IEnMin= 3 EnMin= -462.990276437967     IErMin= 3 ErrMin= 6.75D-03
 ErrMax= 6.75D-03  0.00D+00 EMaxC= 1.00D+00 BMatC= 7.44D-03 BMatP= 3.42D-02
 IDIUse=1 WtCom= 1.00D+00 WtEn= 0.00D+00
 Coeff-Com:  0.123D+00-0.123D+01 0.211D+01
 Coeff:      0.123D+00-0.123D+01 0.211D+01
 Gap=     0.327 Goal=   None    Shift=    0.500
 T= 1150. Gap= 0.827 NK=0 IS=   42 IE=  288 IFin=   41
          NO(<0.9)=   0  NV(>0.1)=   0     41.00e < EF      0.00e >EF  Err=0.0D+00
 GapD=    0.327 DampG=1.000 DampE=1.000 DampFc=1.0000 IDamp=-1.
 RMSDP=9.85D-04 MaxDP=3.17D-02 DE=-3.98D-02 OVMax= 5.09D-03

 Cycle   4  Pass 1  IDiag  1:
 E= -463.023391240109     Delta-E=       -0.033114802142 Rises=F Damp=F
 DIIS: error= 8.01D-04 at cycle   4 NSaved=   4.
 NSaved= 4 IEnMin= 4 EnMin= -463.023391240109     IErMin= 4 ErrMin= 8.01D-04
 ErrMax= 8.01D-04  0.00D+00 EMaxC= 1.00D+00 BMatC= 1.08D-04 BMatP= 7.44D-03
 IDIUse=1 WtCom= 1.00D+00 WtEn= 0.00D+00
 Coeff-Com:  0.720D-01-0.168D+00 0.767D-01 0.102D+01
 Coeff:      0.720D-01-0.168D+00 0.767D-01 0.102D+01
 Gap=     0.327 Goal=   None    Shift=    0.500
 RMSDP=1.58D-04 MaxDP=2.23D-03 DE=-3.31D-02 OVMax= 2.36D-03

 Cycle   5  Pass 1  IDiag  1:
 E= -463.023537617286     Delta-E=       -0.000146377177 Rises=F Damp=F
 DIIS: error= 4.22D-04 at cycle   5 NSaved=   5.
 NSaved= 5 IEnMin= 5 EnMin= -463.023537617286     IErMin= 5 ErrMin= 4.22D-04
 ErrMax= 4.22D-04  0.00D+00 EMaxC= 1.00D+00 BMatC= 1.44D-05 BMatP= 1.08D-04
 IDIUse=1 WtCom= 1.00D+00 WtEn= 0.00D+00
 Coeff-Com: -0.716D-02 0.147D+00-0.275D+00-0.112D+00 0.125D+01
 Coeff:     -0.716D-02 0.147D+00-0.275D+00-0.112D+00 0.125D+01
 Gap=     0.327 Goal=   None    Shift=    0.500
 RMSDP=1.17D-04 MaxDP=2.47D-03 DE=-1.46D-04 OVMax= 1.71D-03

 Cycle   6  Pass 1  IDiag  1:
 E= -463.023571901107     Delta-E=       -0.000034283822 Rises=F Damp=F
 DIIS: error= 2.71D-04 at cycle   6 NSaved=   6.
 NSaved= 6 IEnMin= 6 EnMin= -463.023571901107     IErMin= 6 ErrMin= 2.71D-04
 ErrMax= 2.71D-04  0.00D+00 EMaxC= 1.00D+00 BMatC= 3.01D-06 BMatP= 1.44D-05
 IDIUse=1 WtCom= 1.00D+00 WtEn= 0.00D+00
 Coeff-Com: -0.990D-02 0.301D-02 0.267D-01-0.129D+00-0.623D+00 0.173D+01
 Coeff:     -0.990D-02 0.301D-02 0.267D-01-0.129D+00-0.623D+00 0.173D+01
 Gap=     0.327 Goal=   None    Shift=    0.500
 RMSDP=7.88D-05 MaxDP=1.72D-03 DE=-3.43D-05 OVMax= 1.22D-03

 Cycle   7  Pass 1  IDiag  1:
 E= -463.023582591144     Delta-E=       -0.000010690036 Rises=F Damp=F
 DIIS: error= 1.80D-04 at cycle   7 NSaved=   7.
 NSaved= 7 IEnMin= 7 EnMin= -463.023582591144     IErMin= 7 ErrMin= 1.80D-04
 ErrMax= 1.80D-04  0.00D+00 EMaxC= 1.00D+00 BMatC= 8.95D-07 BMatP= 3.01D-06
 IDIUse=1 WtCom= 1.00D+00 WtEn= 0.00D+00
 Coeff-Com:  0.222D-02-0.247D-01 0.399D-01 0.210D-01-0.141D+00-0.796D+00
 Coeff-Com:  0.190D+01
 Coeff:      0.222D-02-0.247D-01 0.399D-01 0.210D-01-0.141D+00-0.796D+00
 Coeff:      0.190D+01
 Gap=     0.328 Goal=   None    Shift=    0.500
 RMSDP=4.10D-05 MaxDP=9.22D-04 DE=-1.07D-05 OVMax= 8.11D-04

 Cycle   8  Pass 1  IDiag  1:
 E= -463.023586272171     Delta-E=       -0.000003681028 Rises=F Damp=F
 DIIS: error= 1.24D-04 at cycle   8 NSaved=   8.
 NSaved= 8 IEnMin= 8 EnMin= -463.023586272171     IErMin= 8 ErrMin= 1.24D-04
 ErrMax= 1.24D-04  0.00D+00 EMaxC= 1.00D+00 BMatC= 3.02D-07 BMatP= 8.95D-07
 IDIUse=1 WtCom= 1.00D+00 WtEn= 0.00D+00
 Coeff-Com:  0.293D-02-0.503D-02-0.718D-03 0.479D-01 0.105D+00-0.665D+00
 Coeff-Com: -0.187D+00 0.170D+01
 Coeff:      0.293D-02-0.503D-02-0.718D-03 0.479D-01 0.105D+00-0.665D+00
 Coeff:     -0.187D+00 0.170D+01
 Gap=     0.328 Goal=   None    Shift=    0.500
 RMSDP=1.78D-05 MaxDP=4.11D-04 DE=-3.68D-06 OVMax= 5.70D-04

 Cycle   9  Pass 1  IDiag  1:
 E= -463.023587626493     Delta-E=       -0.000001354322 Rises=F Damp=F
 DIIS: error= 7.69D-05 at cycle   9 NSaved=   9.
 NSaved= 9 IEnMin= 9 EnMin= -463.023587626493     IErMin= 9 ErrMin= 7.69D-05
 ErrMax= 7.69D-05  0.00D+00 EMaxC= 1.00D+00 BMatC= 1.07D-07 BMatP= 3.02D-07
 IDIUse=1 WtCom= 1.00D+00 WtEn= 0.00D+00
 Coeff-Com:  0.206D-03 0.634D-02-0.131D-01 0.155D-01 0.584D-01 0.611D-01
 Coeff-Com: -0.816D+00 0.350D-01 0.165D+01
 Coeff:      0.206D-03 0.634D-02-0.131D-01 0.155D-01 0.584D-01 0.611D-01
 Coeff:     -0.816D+00 0.350D-01 0.165D+01
 Gap=     0.328 Goal=   None    Shift=    0.500
 RMSDP=6.32D-06 MaxDP=1.51D-04 DE=-1.35D-06 OVMax= 3.68D-04

 Cycle  10  Pass 1  IDiag  1:
 E= -463.023588136774     Delta-E=       -0.000000510281 Rises=F Damp=F
 DIIS: error= 4.78D-05 at cycle  10 NSaved=  10.
 NSaved=10 IEnMin=10 EnMin= -463.023588136774     IErMin=10 ErrMin= 4.78D-05
 ErrMax= 4.78D-05  0.00D+00 EMaxC= 1.00D+00 BMatC= 3.66D-08 BMatP= 1.07D-07
 IDIUse=1 WtCom= 1.00D+00 WtEn= 0.00D+00
 Coeff-Com: -0.733D-03 0.587D-03 0.168D-02-0.134D-01-0.356D-01 0.245D+00
 Coeff-Com: -0.647D-01-0.710D+00-0.637D+00 0.221D+01
 Coeff:     -0.733D-03 0.587D-03 0.168D-02-0.134D-01-0.356D-01 0.245D+00
 Coeff:     -0.647D-01-0.710D+00-0.637D+00 0.221D+01
 Gap=     0.328 Goal=   None    Shift=    0.500
 RMSDP=2.00D-06 MaxDP=4.77D-05 DE=-5.10D-07 OVMax= 2.41D-04

 Cycle  11  Pass 1  IDiag  1:
 E= -463.023588327376     Delta-E=       -0.000000190602 Rises=F Damp=F
 DIIS: error= 2.77D-05 at cycle  11 NSaved=  11.
 NSaved=11 IEnMin=11 EnMin= -463.023588327376     IErMin=11 ErrMin= 2.77D-05
 ErrMax= 2.77D-05  0.00D+00 EMaxC= 1.00D+00 BMatC= 1.19D-08 BMatP= 3.66D-08
 IDIUse=1 WtCom= 1.00D+00 WtEn= 0.00D+00
 Coeff-Com:  0.480D-04-0.121D-02 0.227D-02-0.979D-03-0.406D-02-0.238D-01
 Coeff-Com:  0.111D+00-0.335D-01-0.135D+00-0.132D+01 0.241D+01
 Coeff:      0.480D-04-0.121D-02 0.227D-02-0.979D-03-0.406D-02-0.238D-01
 Coeff:      0.111D+00-0.335D-01-0.135D+00-0.132D+01 0.241D+01
 Gap=     0.328 Goal=   None    Shift=    0.500
 RMSDP=9.64D-07 MaxDP=2.63D-05 DE=-1.91D-07 OVMax= 1.39D-04

 SCF Done:  E(RLC-wHPBE) =  -463.023588327     A.U. after   11 cycles
            NFock= 11  Conv=0.96D-06     -V/T= 2.0055
 KE= 4.604757128164D+02 PE=-2.270994070722D+03 EE= 7.490224222895D+02
 Leave Link  502 at Sun Jan 17 09:54:54 2021, MaxMem=  4026531840 cpu:             547.3 elap:              68.6
 (Enter /opt/ohpc/pub/libs/gaussian/g16-A.03/sandybridge/g16/l508.exe)
 QCSCF skips out because SCF is already converged.
 Leave Link  508 at Sun Jan 17 09:54:54 2021, MaxMem=  4026531840 cpu:               0.0 elap:               0.0
 (Enter /opt/ohpc/pub/libs/gaussian/g16-A.03/sandybridge/g16/l601.exe)
 Copying SCF densities to generalized density rwf, IOpCl= 0 IROHF=0.

 **********************************************************************

            Population analysis using the SCF density.

 **********************************************************************

 Orbital symmetries:
       Occupied  (A) (A) (A) (A) (A) (A) (A) (A) (A) (A) (A) (A)
                 (A) (A) (A) (A) (A) (A) (A) (A) (A) (A) (A) (A)
                 (A) (A) (A) (A) (A) (A) (A) (A) (A) (A) (A) (A)
                 (A) (A) (A) (A) (A)
       Virtual   (A) (A) (A) (A) (A) (A) (A) (A) (A) (A) (A) (A)
                 (A) (A) (A) (A) (A) (A) (A) (A) (A) (A) (A) (A)
                 (A) (A) (A) (A) (A) (A) (A) (A) (A) (A) (A) (A)
                 (A) (A) (A) (A) (A) (A) (A) (A) (A) (A) (A) (A)
                 (A) (A) (A) (A) (A) (A) (A) (A) (A) (A) (A) (A)
                 (A) (A) (A) (A) (A) (A) (A) (A) (A) (A) (A) (A)
                 (A) (A) (A) (A) (A) (A) (A) (A) (A) (A) (A) (A)
                 (A) (A) (A) (A) (A) (A) (A) (A) (A) (A) (A) (A)
                 (A) (A) (A) (A) (A) (A) (A) (A) (A) (A) (A) (A)
                 (A) (A) (A) (A) (A) (A) (A) (A) (A) (A) (A) (A)
                 (A) (A) (A) (A) (A) (A) (A) (A) (A) (A) (A) (A)
                 (A) (A) (A) (A) (A) (A) (A) (A) (A) (A) (A) (A)
                 (A) (A) (A) (A) (A) (A) (A) (A) (A) (A) (A) (A)
                 (A) (A) (A) (A) (A) (A) (A) (A) (A) (A) (A) (A)
                 (A) (A) (A) (A) (A) (A) (A) (A) (A) (A) (A) (A)
                 (A) (A) (A) (A) (A) (A) (A) (A) (A) (A) (A) (A)
                 (A) (A) (A) (A) (A) (A) (A) (A) (A) (A) (A) (A)
                 (A) (A) (A) (A) (A) (A) (A) (A) (A) (A) (A) (A)
                 (A) (A) (A) (A) (A) (A) (A) (A) (A) (A) (A) (A)
                 (A) (A) (A) (A) (A) (A) (A) (A) (A) (A) (A) (A)
                 (A) (A) (A) (A) (A) (A) (A)
 The electronic state is 1-A.
 Alpha  occ. eigenvalues --  -10.03532 -10.03519 -10.02420 -10.02419 -10.02417
 Alpha  occ. eigenvalues --  -10.02417 -10.02359 -10.02358 -10.02357 -10.02357
 Alpha  occ. eigenvalues --  -10.02315 -10.02315  -0.93283  -0.91125  -0.84389
 Alpha  occ. eigenvalues --   -0.81678  -0.80923  -0.78762  -0.69482  -0.68959
 Alpha  occ. eigenvalues --   -0.66165  -0.64915  -0.60904  -0.57355  -0.54175
 Alpha  occ. eigenvalues --   -0.53869  -0.51266  -0.51240  -0.49698  -0.49305
 Alpha  occ. eigenvalues --   -0.49015  -0.46338  -0.44737  -0.43714  -0.42251
 Alpha  occ. eigenvalues --   -0.40801  -0.40607  -0.35810  -0.33493  -0.33443
 Alpha  occ. eigenvalues --   -0.30520
 Alpha virt. eigenvalues --    0.02250   0.04719   0.04960   0.07933   0.11853
 Alpha virt. eigenvalues --    0.12391   0.14003   0.15294   0.15816   0.17335
 Alpha virt. eigenvalues --    0.17627   0.18480   0.18884   0.19418   0.21615
 Alpha virt. eigenvalues --    0.22067   0.22095   0.22461   0.27098   0.27304
 Alpha virt. eigenvalues --    0.27370   0.27560   0.29312   0.29518   0.29712
 Alpha virt. eigenvalues --    0.29719   0.30705   0.30811   0.31921   0.31946
 Alpha virt. eigenvalues --    0.33046   0.33913   0.35174   0.35253   0.36029
 Alpha virt. eigenvalues --    0.36710   0.38215   0.39124   0.40781   0.41440
 Alpha virt. eigenvalues --    0.41708   0.42251   0.43233   0.43816   0.43902
 Alpha virt. eigenvalues --    0.44677   0.45896   0.47460   0.47750   0.48237
 Alpha virt. eigenvalues --    0.48257   0.48732   0.48842   0.49130   0.49801
 Alpha virt. eigenvalues --    0.52115   0.52679   0.52845   0.54684   0.54731
 Alpha virt. eigenvalues --    0.55724   0.56074   0.56441   0.57667   0.59127
 Alpha virt. eigenvalues --    0.59373   0.59551   0.59800   0.61679   0.65350
 Alpha virt. eigenvalues --    0.65758   0.68732   0.70284   0.72323   0.73222
 Alpha virt. eigenvalues --    0.75506   0.75697   0.76066   0.77066   0.77409
 Alpha virt. eigenvalues --    0.77937   0.81373   0.83744   0.86955   0.89091
 Alpha virt. eigenvalues --    0.94902   0.96200   1.15442   1.24903   1.25771
 Alpha virt. eigenvalues --    1.29121   1.29346   1.29820   1.30164   1.30645
 Alpha virt. eigenvalues --    1.30766   1.32193   1.33902   1.34508   1.35344
 Alpha virt. eigenvalues --    1.35479   1.36241   1.36734   1.37294   1.37325
 Alpha virt. eigenvalues --    1.37738   1.38389   1.39519   1.41383   1.46338
 Alpha virt. eigenvalues --    1.46456   1.47752   1.47984   1.49661   1.49877
 Alpha virt. eigenvalues --    1.49934   1.50046   1.51633   1.52132   1.52699
 Alpha virt. eigenvalues --    1.53218   1.53269   1.54732   1.54758   1.54844
 Alpha virt. eigenvalues --    1.56922   1.57232   1.57660   1.58839   1.59057
 Alpha virt. eigenvalues --    1.61284   1.62096   1.62564   1.62972   1.64125
 Alpha virt. eigenvalues --    1.64196   1.70330   1.71205   1.74760   1.79048
 Alpha virt. eigenvalues --    1.81691   1.82759   1.82914   1.82987   1.84283
 Alpha virt. eigenvalues --    1.85341   1.86150   1.86692   1.91461   1.92572
 Alpha virt. eigenvalues --    1.92591   1.93173   1.93182   1.93569   1.95406
 Alpha virt. eigenvalues --    1.95756   1.95993   1.96495   1.96980   1.99180
 Alpha virt. eigenvalues --    1.99659   2.00006   2.02797   2.03831   2.04751
 Alpha virt. eigenvalues --    2.05886   2.06630   2.06856   2.13796   2.14655
 Alpha virt. eigenvalues --    2.16599   2.29093   2.30924   2.31186   2.33336
 Alpha virt. eigenvalues --    2.33641   2.34053   2.35567   2.35596   2.38502
 Alpha virt. eigenvalues --    2.38830   2.38950   2.38985   2.39928   2.40901
 Alpha virt. eigenvalues --    2.41273   2.49112   2.52433   2.53454   2.53587
 Alpha virt. eigenvalues --    2.55247   2.56730   2.57540   2.58002   2.62759
 Alpha virt. eigenvalues --    2.64698   2.67910   2.68198   2.68743   2.68898
 Alpha virt. eigenvalues --    2.70922   2.72852   2.73221   2.73776   2.74875
 Alpha virt. eigenvalues --    2.78435   2.84040   2.84073   2.84512   2.87341
 Alpha virt. eigenvalues --    3.01947   3.02624   3.04645   3.07538   3.07742
 Alpha virt. eigenvalues --    3.08048   3.10362   3.12847   3.14664   3.15760
 Alpha virt. eigenvalues --    3.18903   3.19391   3.21671   3.22038   3.24317
 Alpha virt. eigenvalues --    3.25568   3.34309   3.37008   3.37592   3.43651
 Alpha virt. eigenvalues --    3.44314   3.55573   3.58934   3.76595   3.85928
 Alpha virt. eigenvalues --   21.04215  21.32119  21.59473  21.69102  21.72012
 Alpha virt. eigenvalues --   21.79246  21.91743  21.93922  21.96763  21.99313
 Alpha virt. eigenvalues --   22.08457  22.11475
          Condensed to atoms (all electrons):
               1          2          3          4          5          6
     1  C    4.978968   0.476617   0.412140  -0.011357  -0.013106  -0.103796
     2  C    0.476617   4.966317  -0.027755   0.476567  -0.069390  -0.027681
     3  C    0.412140  -0.027755   5.158520  -0.103719   0.436638  -0.036426
     4  C   -0.011357   0.476567  -0.103719   4.979020  -0.013103   0.412042
     5  C   -0.013106  -0.069390   0.436638  -0.013103   5.301381   0.436496
     6  C   -0.103796  -0.027681  -0.036426   0.412042   0.436496   5.158759
     7  H   -0.057053   0.418607   0.017290  -0.057059  -0.004196   0.017295
     8  H   -0.031494   0.009713   0.398882  -0.001500  -0.049079   0.014037
     9  H    0.012462  -0.054528  -0.000559   0.411880   0.013940  -0.049286
    10  H   -0.001497   0.009706   0.014034  -0.031461  -0.049054   0.398854
    11  C    0.021155   0.004199  -0.088987   0.021154   0.162638  -0.088960
    12  C   -0.000051  -0.000210   0.021842   0.002878  -0.088955  -0.018004
    13  C    0.002845  -0.000197  -0.017976  -0.000066  -0.089030   0.021904
    14  C    0.000066   0.000004  -0.000060  -0.000267   0.021167   0.002848
    15  C   -0.000268   0.000005   0.002870   0.000064   0.021167  -0.000063
    16  C    0.000004  -0.000007  -0.000206   0.000005   0.004190  -0.000198
    17  H   -0.000034   0.000020  -0.000382   0.000727  -0.016498   0.003916
    18  H    0.000730   0.000020   0.003902  -0.000033  -0.016490  -0.000385
    19  H   -0.000001   0.000000   0.000018  -0.000006  -0.001306   0.000002
    20  H   -0.000006   0.000000   0.000002  -0.000001  -0.001306   0.000017
    21  H    0.000000  -0.000000  -0.000004   0.000000  -0.000135  -0.000004
    22  H    0.411878  -0.054524  -0.049289   0.012461   0.013941  -0.000560
               7          8          9         10         11         12
     1  C   -0.057053  -0.031494   0.012462  -0.001497   0.021155  -0.000051
     2  C    0.418607   0.009713  -0.054528   0.009706   0.004199  -0.000210
     3  C    0.017290   0.398882  -0.000559   0.014034  -0.088987   0.021842
     4  C   -0.057059  -0.001500   0.411880  -0.031461   0.021154   0.002878
     5  C   -0.004196  -0.049079   0.013940  -0.049054   0.162638  -0.088955
     6  C    0.017295   0.014037  -0.049286   0.398854  -0.088960  -0.018004
     7  H    0.568263  -0.000191  -0.007531  -0.000191  -0.000135  -0.000004
     8  H   -0.000191   0.541318   0.000032  -0.000157  -0.016486  -0.000381
     9  H   -0.007531   0.000032   0.570819  -0.006042  -0.001307   0.000002
    10  H   -0.000191  -0.000157  -0.006042   0.541297  -0.016504   0.003908
    11  C   -0.000135  -0.016486  -0.001307  -0.016504   5.301270   0.436693
    12  C   -0.000004  -0.000381   0.000002   0.003908   0.436693   5.158440
    13  C   -0.000004   0.003915   0.000017  -0.000385   0.436574  -0.036464
    14  C    0.000000  -0.000035  -0.000006   0.000728  -0.013150   0.412203
    15  C    0.000000   0.000726  -0.000001  -0.000034  -0.013130  -0.103706
    16  C   -0.000000   0.000020   0.000000   0.000020  -0.069356  -0.027806
    17  H   -0.000002  -0.000026   0.000007   0.000593  -0.049074   0.398875
    18  H   -0.000002   0.000593   0.000000  -0.000027  -0.049044   0.014031
    19  H   -0.000000   0.000000  -0.000000   0.000007   0.013938  -0.049276
    20  H   -0.000000   0.000007   0.000000   0.000000   0.013941  -0.000558
    21  H   -0.000000  -0.000002  -0.000000  -0.000002  -0.004195   0.017291
    22  H   -0.007532  -0.006044  -0.000220   0.000032  -0.001306   0.000018
              13         14         15         16         17         18
     1  C    0.002845   0.000066  -0.000268   0.000004  -0.000034   0.000730
     2  C   -0.000197   0.000004   0.000005  -0.000007   0.000020   0.000020
     3  C   -0.017976  -0.000060   0.002870  -0.000206  -0.000382   0.003902
     4  C   -0.000066  -0.000267   0.000064   0.000005   0.000727  -0.000033
     5  C   -0.089030   0.021167   0.021167   0.004190  -0.016498  -0.016490
     6  C    0.021904   0.002848  -0.000063  -0.000198   0.003916  -0.000385
     7  H   -0.000004   0.000000   0.000000  -0.000000  -0.000002  -0.000002
     8  H    0.003915  -0.000035   0.000726   0.000020  -0.000026   0.000593
     9  H    0.000017  -0.000006  -0.000001   0.000000   0.000007   0.000000
    10  H   -0.000385   0.000728  -0.000034   0.000020   0.000593  -0.000027
    11  C    0.436574  -0.013150  -0.013130  -0.069356  -0.049074  -0.049044
    12  C   -0.036464   0.412203  -0.103706  -0.027806   0.398875   0.014031
    13  C    5.158735  -0.103752   0.412044  -0.027693   0.014036   0.398848
    14  C   -0.103752   4.978922  -0.011389   0.476649  -0.031480  -0.001496
    15  C    0.412044  -0.011389   4.979004   0.476612  -0.001498  -0.031467
    16  C   -0.027693   0.476649   0.476612   4.966269   0.009711   0.009704
    17  H    0.014036  -0.031480  -0.001498   0.009711   0.541311  -0.000157
    18  H    0.398848  -0.001496  -0.031467   0.009704  -0.000157   0.541296
    19  H   -0.000558   0.411871   0.012460  -0.054522  -0.006042   0.000032
    20  H   -0.049295   0.012462   0.411883  -0.054524   0.000032  -0.006042
    21  H    0.017292  -0.057051  -0.057058   0.418605  -0.000191  -0.000191
    22  H    0.000001  -0.000001  -0.000006   0.000000   0.000000   0.000007
              19         20         21         22
     1  C   -0.000001  -0.000006   0.000000   0.411878
     2  C    0.000000   0.000000  -0.000000  -0.054524
     3  C    0.000018   0.000002  -0.000004  -0.049289
     4  C   -0.000006  -0.000001   0.000000   0.012461
     5  C   -0.001306  -0.001306  -0.000135   0.013941
     6  C    0.000002   0.000017  -0.000004  -0.000560
     7  H   -0.000000  -0.000000  -0.000000  -0.007532
     8  H    0.000000   0.000007  -0.000002  -0.006044
     9  H   -0.000000   0.000000  -0.000000  -0.000220
    10  H    0.000007   0.000000  -0.000002   0.000032
    11  C    0.013938   0.013941  -0.004195  -0.001306
    12  C   -0.049276  -0.000558   0.017291   0.000018
    13  C   -0.000558  -0.049295   0.017292   0.000001
    14  C    0.411871   0.012462  -0.057051  -0.000001
    15  C    0.012460   0.411883  -0.057058  -0.000006
    16  C   -0.054522  -0.054524   0.418605   0.000000
    17  H   -0.006042   0.000032  -0.000191   0.000000
    18  H    0.000032  -0.006042  -0.000191   0.000007
    19  H    0.570820  -0.000220  -0.007532   0.000000
    20  H   -0.000220   0.570821  -0.007531  -0.000000
    21  H   -0.007532  -0.007531   0.568263  -0.000000
    22  H    0.000000  -0.000000  -0.000000   0.570823
 Mulliken charges:
               1
     1  C   -0.098202
     2  C   -0.127486
     3  C   -0.140775
     4  C   -0.098227
     5  C    0.000087
     6  C   -0.140808
     7  H    0.112445
     8  H    0.136151
     9  H    0.110319
    10  H    0.136175
    11  C    0.000071
    12  C   -0.140765
    13  C   -0.140792
    14  C   -0.098233
    15  C   -0.098215
    16  C   -0.127477
    17  H    0.136160
    18  H    0.136172
    19  H    0.110318
    20  H    0.110318
    21  H    0.112445
    22  H    0.110319
 Sum of Mulliken charges =  -0.00000
 Mulliken charges with hydrogens summed into heavy atoms:
               1
     1  C    0.012117
     2  C   -0.015041
     3  C   -0.004624
     4  C    0.012092
     5  C    0.000087
     6  C   -0.004633
    11  C    0.000071
    12  C   -0.004605
    13  C   -0.004621
    14  C    0.012085
    15  C    0.012103
    16  C   -0.015032
 Electronic spatial extent (au):  <R**2>=           2313.8243
 Charge=             -0.0000 electrons
 Dipole moment (field-independent basis, Debye):
    X=             -0.0000    Y=              0.0001    Z=              0.0003  Tot=              0.0003
 Quadrupole moment (field-independent basis, Debye-Ang):
   XX=            -61.7812   YY=            -63.4516   ZZ=            -75.1794
   XY=              0.0005   XZ=              0.0005   YZ=             -0.0002
 Traceless Quadrupole moment (field-independent basis, Debye-Ang):
   XX=              5.0229   YY=              3.3525   ZZ=             -8.3754
   XY=              0.0005   XZ=              0.0005   YZ=             -0.0002
 Octapole moment (field-independent basis, Debye-Ang**2):
  XXX=             -0.0002  YYY=              0.0015  ZZZ=              0.0005  XYY=             -0.0005
  XXY=              0.0009  XXZ=              0.0077  XZZ=              0.0002  YZZ=             -0.0009
  YYZ=              0.0003  XYZ=            -11.9401
 Hexadecapole moment (field-independent basis, Debye-Ang**3):
 XXXX=          -2313.2976 YYYY=           -502.9617 ZZZZ=           -156.7400 XXXY=             -0.0038
 XXXZ=              0.0048 YYYX=              0.0082 YYYZ=             -0.0007 ZZZX=              0.0017
 ZZZY=             -0.0007 XXYY=           -479.1064 XXZZ=           -495.7774 YYZZ=           -112.6079
 XXYZ=             -0.0004 YYXZ=              0.0021 ZZXY=             -0.0020
 N-N= 5.984723472889D+02 E-N=-2.270993941523D+03  KE= 4.604757128164D+02
 No NMR shielding tensors so no spin-rotation constants.
 Leave Link  601 at Sun Jan 17 09:54:54 2021, MaxMem=  4026531840 cpu:               1.8 elap:               0.3
 (Enter /opt/ohpc/pub/libs/gaussian/g16-A.03/sandybridge/g16/l9999.exe)

 Test job not archived.
 1\1\GINC-CASCADEB028\SP\RLC-wHPBE\TZVP\C12H10\RDU230\17-Jan-2021\0\\#P
  LC-wHPBE/TZVP iop(3/107=0236000000, 3/108=0236000000) scf=(conver=6,f
 ermi,ndamp=35,noincfock,novaracc,vshift=500,xqc)\\H10 C12\\0,1\C,0,-2.
 8585,1.132993,0.41369\C,0,-3.561927,-0.000084,-0.000146\C,0,-1.463685,
 1.132747,0.413534\C,0,-2.858269,-1.133176,-0.413741\C,0,-0.742381,0.00
 0123,0.000091\C,0,-1.463491,-1.132675,-0.413489\H,0,-4.653174,-0.00016
 ,-0.000261\H,0,-0.922222,2.014213,0.762301\H,0,-3.398792,-2.020986,-0.
 747134\H,0,-0.921754,-2.014027,-0.762095\C,0,0.742385,0.000142,0.00019
 7\C,0,1.463539,-1.132637,0.413582\C,0,1.463636,1.132765,-0.413477\C,0,
 2.858357,-1.133114,0.41366\C,0,2.858412,1.133073,-0.413706\C,0,3.56193
 1,-0.000095,-0.000087\H,0,0.921935,-2.014039,0.762261\H,0,0.922017,2.0
 14128,-0.762265\H,0,3.398826,-2.021,0.746938\H,0,3.399026,2.020805,-0.
 747168\H,0,4.653184,-0.000117,-0.000198\H,0,-3.399078,2.020813,0.74697
 4\\Version=EM64L-G16RevA.03\State=1-A\HF=-463.0235883\RMSD=9.637e-07\D
 ipole=-0.0000098,-0.0000428,-0.0001185\Quadrupole=3.7343929,2.4924824,
 -6.2268753,-0.0003685,-0.000404,-0.0001379\PG=C01 [X(C12H10)]\\@


 SCIENCE AND PEACE WILL TRIUMPH OVER IGNORANCE AND WAR

                          -- PASTEUR
 Job cpu time:       0 days  0 hours  9 minutes 28.3 seconds.
 Elapsed time:       0 days  0 hours  1 minutes 11.6 seconds.
 File lengths (MBytes):  RWF=     88 Int=      0 D2E=      0 Chk=     12 Scr=      8
 Normal termination of Gaussian 16 at Sun Jan 17 09:54:54 2021.
