 Entering Gaussian System, Link 0=g16
 Input=mol_bp_NN_frag_tune_c6.gjf
 Output=mol_bp_NN_frag_tune_c6.log
 Initial command:
 /opt/ohpc/pub/libs/gaussian/g16-A.03/sandybridge/g16/l1.exe "/mnt/gpfs2_4m/scratch/rdu230/ondemand/projects/init_structures/wtuning/mol_bp_NN_frag/tuning_mol_bp_NN_frag_ocycle0/Gau-301152.inp" -scrdir="/mnt/gpfs2_4m/scratch/rdu230/ondemand/projects/init_structures/wtuning/mol_bp_NN_frag/tuning_mol_bp_NN_frag_ocycle0/"
 Entering Link 1 = /opt/ohpc/pub/libs/gaussian/g16-A.03/sandybridge/g16/l1.exe PID=    301153.
  
 Copyright (c) 1988,1990,1992,1993,1995,1998,2003,2009,2016,
            Gaussian, Inc.  All Rights Reserved.
  
 This is part of the Gaussian(R) 16 program.  It is based on
 the Gaussian(R) 09 system (copyright 2009, Gaussian, Inc.),
 the Gaussian(R) 03 system (copyright 2003, Gaussian, Inc.),
 the Gaussian(R) 98 system (copyright 1998, Gaussian, Inc.),
 the Gaussian(R) 94 system (copyright 1995, Gaussian, Inc.),
 the Gaussian 92(TM) system (copyright 1992, Gaussian, Inc.),
 the Gaussian 90(TM) system (copyright 1990, Gaussian, Inc.),
 the Gaussian 88(TM) system (copyright 1988, Gaussian, Inc.),
 the Gaussian 86(TM) system (copyright 1986, Carnegie Mellon
 University), and the Gaussian 82(TM) system (copyright 1983,
 Carnegie Mellon University). Gaussian is a federally registered
 trademark of Gaussian, Inc.
  
 This software contains proprietary and confidential information,
 including trade secrets, belonging to Gaussian, Inc.
  
 This software is provided under written license and may be
 used, copied, transmitted, or stored only in accord with that
 written license.
  
 The following legend is applicable only to US Government
 contracts under FAR:
  
                    RESTRICTED RIGHTS LEGEND
  
 Use, reproduction and disclosure by the US Government is
 subject to restrictions as set forth in subparagraphs (a)
 and (c) of the Commercial Computer Software - Restricted
 Rights clause in FAR 52.227-19.
  
 Gaussian, Inc.
 340 Quinnipiac St., Bldg. 40, Wallingford CT 06492
  
  
 ---------------------------------------------------------------
 Warning -- This program may not be used in any manner that
 competes with the business of Gaussian, Inc. or will provide
 assistance to any competitor of Gaussian, Inc.  The licensee
 of this program is prohibited from giving any competitor of
 Gaussian, Inc. access to this program.  By using this program,
 the user acknowledges that Gaussian, Inc. is engaged in the
 business of creating and licensing software in the field of
 computational chemistry and represents and warrants to the
 licensee that it is not a competitor of Gaussian, Inc. and that
 it will not use this program in any manner prohibited above.
 ---------------------------------------------------------------
  

 Cite this work as:
 Gaussian 16, Revision A.03,
 M. J. Frisch, G. W. Trucks, H. B. Schlegel, G. E. Scuseria, 
 M. A. Robb, J. R. Cheeseman, G. Scalmani, V. Barone, 
 G. A. Petersson, H. Nakatsuji, X. Li, M. Caricato, A. V. Marenich, 
 J. Bloino, B. G. Janesko, R. Gomperts, B. Mennucci, H. P. Hratchian, 
 J. V. Ortiz, A. F. Izmaylov, J. L. Sonnenberg, D. Williams-Young, 
 F. Ding, F. Lipparini, F. Egidi, J. Goings, B. Peng, A. Petrone, 
 T. Henderson, D. Ranasinghe, V. G. Zakrzewski, J. Gao, N. Rega, 
 G. Zheng, W. Liang, M. Hada, M. Ehara, K. Toyota, R. Fukuda, 
 J. Hasegawa, M. Ishida, T. Nakajima, Y. Honda, O. Kitao, H. Nakai, 
 T. Vreven, K. Throssell, J. A. Montgomery, Jr., J. E. Peralta, 
 F. Ogliaro, M. J. Bearpark, J. J. Heyd, E. N. Brothers, K. N. Kudin, 
 V. N. Staroverov, T. A. Keith, R. Kobayashi, J. Normand, 
 K. Raghavachari, A. P. Rendell, J. C. Burant, S. S. Iyengar, 
 J. Tomasi, M. Cossi, J. M. Millam, M. Klene, C. Adamo, R. Cammi, 
 J. W. Ochterski, R. L. Martin, K. Morokuma, O. Farkas, 
 J. B. Foresman, and D. J. Fox, Gaussian, Inc., Wallingford CT, 2016.
 
 ******************************************
 Gaussian 16:  EM64L-G16RevA.03 25-Dec-2016
                17-Jan-2021 
 ******************************************
 %mem=30GB
 %nproc=8
 Will use up to    8 processors via shared memory.
 ----------------------------------------------------------------------
 #P LC-wHPBE/TZVP iop(3/107=0230600000, 3/108=0230600000) scf=(conver=6
 ,fermi,ndamp=35,noincfock,novaracc,vshift=500,xqc)
 ----------------------------------------------------------------------
 1/38=1,172=1/1;
 2/12=2,17=6,18=5,40=1/2;
 3/5=19,7=101,11=2,25=1,30=1,74=-71,107=230600000,108=230600000/1,2,3;
 4//1;
 5/5=100002,6=6,8=3,10=500,13=1,18=-1,22=13,38=1,93=35/2,8;
 6/7=2,8=2,9=2,10=2,28=1/1;
 99/5=1,9=1/99;
 Leave Link    1 at Sun Jan 17 09:58:32 2021, MaxMem=  4026531840 cpu:               1.7 elap:               0.2
 (Enter /opt/ohpc/pub/libs/gaussian/g16-A.03/sandybridge/g16/l101.exe)
 -------
 H10 C12
 -------
 Symbolic Z-matrix:
 Charge =  1 Multiplicity = 2
 C                    -2.8585    1.13299   0.41369 
 C                    -3.56193  -0.00008  -0.00015 
 C                    -1.46369   1.13275   0.41353 
 C                    -2.85827  -1.13318  -0.41374 
 C                    -0.74238   0.00012   0.00009 
 C                    -1.46349  -1.13268  -0.41349 
 H                    -4.65317  -0.00016  -0.00026 
 H                    -0.92222   2.01421   0.7623 
 H                    -3.39879  -2.02099  -0.74713 
 H                    -0.92175  -2.01403  -0.7621 
 C                     0.74239   0.00014   0.0002 
 C                     1.46354  -1.13264   0.41358 
 C                     1.46364   1.13277  -0.41348 
 C                     2.85836  -1.13311   0.41366 
 C                     2.85841   1.13307  -0.41371 
 C                     3.56193  -0.0001   -0.00009 
 H                     0.92194  -2.01404   0.76226 
 H                     0.92202   2.01413  -0.76227 
 H                     3.39883  -2.021     0.74694 
 H                     3.39903   2.02081  -0.74717 
 H                     4.65318  -0.00012  -0.0002 
 H                    -3.39908   2.02081   0.74697 
 
 ITRead=  0  0  0  0  0  0  0  0  0  0  0  0  0  0  0  0  0  0  0  0
 ITRead=  0  0
 MicOpt= -1 -1 -1 -1 -1 -1 -1 -1 -1 -1 -1 -1 -1 -1 -1 -1 -1 -1 -1 -1
 MicOpt= -1 -1
 NAtoms=     22 NQM=       22 NQMF=       0 NMMI=      0 NMMIF=      0
                NMic=       0 NMicF=      0.
                    Isotopes and Nuclear Properties:
 (Nuclear quadrupole moments (NQMom) in fm**2, nuclear magnetic moments (NMagM)
  in nuclear magnetons)

  Atom         1           2           3           4           5           6           7           8           9          10
 IAtWgt=          12          12          12          12          12          12           1           1           1           1
 AtmWgt=  12.0000000  12.0000000  12.0000000  12.0000000  12.0000000  12.0000000   1.0078250   1.0078250   1.0078250   1.0078250
 NucSpn=           0           0           0           0           0           0           1           1           1           1
 AtZEff=  -0.0000000  -0.0000000  -0.0000000  -0.0000000  -0.0000000  -0.0000000  -0.0000000  -0.0000000  -0.0000000  -0.0000000
 NQMom=    0.0000000   0.0000000   0.0000000   0.0000000   0.0000000   0.0000000   0.0000000   0.0000000   0.0000000   0.0000000
 NMagM=    0.0000000   0.0000000   0.0000000   0.0000000   0.0000000   0.0000000   2.7928460   2.7928460   2.7928460   2.7928460
 AtZNuc=   6.0000000   6.0000000   6.0000000   6.0000000   6.0000000   6.0000000   1.0000000   1.0000000   1.0000000   1.0000000

  Atom        11          12          13          14          15          16          17          18          19          20
 IAtWgt=          12          12          12          12          12          12           1           1           1           1
 AtmWgt=  12.0000000  12.0000000  12.0000000  12.0000000  12.0000000  12.0000000   1.0078250   1.0078250   1.0078250   1.0078250
 NucSpn=           0           0           0           0           0           0           1           1           1           1
 AtZEff=  -0.0000000  -0.0000000  -0.0000000  -0.0000000  -0.0000000  -0.0000000  -0.0000000  -0.0000000  -0.0000000  -0.0000000
 NQMom=    0.0000000   0.0000000   0.0000000   0.0000000   0.0000000   0.0000000   0.0000000   0.0000000   0.0000000   0.0000000
 NMagM=    0.0000000   0.0000000   0.0000000   0.0000000   0.0000000   0.0000000   2.7928460   2.7928460   2.7928460   2.7928460
 AtZNuc=   6.0000000   6.0000000   6.0000000   6.0000000   6.0000000   6.0000000   1.0000000   1.0000000   1.0000000   1.0000000

  Atom        21          22
 IAtWgt=           1           1
 AtmWgt=   1.0078250   1.0078250
 NucSpn=           1           1
 AtZEff=  -0.0000000  -0.0000000
 NQMom=    0.0000000   0.0000000
 NMagM=    2.7928460   2.7928460
 AtZNuc=   1.0000000   1.0000000
 Leave Link  101 at Sun Jan 17 09:58:32 2021, MaxMem=  4026531840 cpu:               0.7 elap:               0.1
 (Enter /opt/ohpc/pub/libs/gaussian/g16-A.03/sandybridge/g16/l202.exe)
                          Input orientation:                          
 ---------------------------------------------------------------------
 Center     Atomic      Atomic             Coordinates (Angstroms)
 Number     Number       Type             X           Y           Z
 ---------------------------------------------------------------------
      1          6           0       -2.858500    1.132993    0.413690
      2          6           0       -3.561927   -0.000084   -0.000146
      3          6           0       -1.463685    1.132747    0.413534
      4          6           0       -2.858269   -1.133176   -0.413741
      5          6           0       -0.742381    0.000123    0.000091
      6          6           0       -1.463491   -1.132675   -0.413489
      7          1           0       -4.653174   -0.000160   -0.000261
      8          1           0       -0.922222    2.014213    0.762301
      9          1           0       -3.398792   -2.020986   -0.747134
     10          1           0       -0.921754   -2.014027   -0.762095
     11          6           0        0.742385    0.000142    0.000197
     12          6           0        1.463539   -1.132637    0.413582
     13          6           0        1.463636    1.132765   -0.413477
     14          6           0        2.858357   -1.133114    0.413660
     15          6           0        2.858412    1.133073   -0.413706
     16          6           0        3.561931   -0.000095   -0.000087
     17          1           0        0.921935   -2.014039    0.762261
     18          1           0        0.922017    2.014128   -0.762265
     19          1           0        3.398826   -2.021000    0.746938
     20          1           0        3.399026    2.020805   -0.747168
     21          1           0        4.653184   -0.000117   -0.000198
     22          1           0       -3.399078    2.020813    0.746974
 ---------------------------------------------------------------------
                    Distance matrix (angstroms):
                    1          2          3          4          5
     1  C    0.000000
     2  C    1.396400   0.000000
     3  C    1.394815   2.420136   0.000000
     4  C    2.412502   1.396457   2.786334   0.000000
     5  C    2.435656   2.819546   1.405010   2.435694   0.000000
     6  C    2.786311   2.420134   2.411660   1.394778   1.405091
     7  H    2.162463   1.091247   3.409919   2.162493   3.910793
     8  H    2.155748   3.406870   1.091697   3.877810   2.160987
     9  H    3.403970   2.160706   3.877863   1.091569   3.420489
    10  H    3.877782   3.406912   3.402643   2.155769   2.160996
    11  C    3.797460   4.304312   2.514038   3.797429   1.484766
    12  C    4.879867   5.168090   3.701433   4.400283   2.514001
    13  C    4.400576   5.168218   3.041900   4.879893   2.514046
    14  C    6.149609   6.532613   4.879977   5.776193   3.797444
    15  C    5.776475   6.532674   4.400551   6.149498   3.797435
    16  C    6.532766   7.123858   5.168291   6.532530   4.304312
    17  H    4.931227   4.974163   3.964222   4.055717   2.721709
    18  H    4.056054   4.974297   2.801947   4.931283   2.721695
    19  H    7.015187   7.286585   5.805281   6.425468   4.668224
    20  H    6.425919   7.286762   5.077582   7.015163   4.668276
    21  H    7.607933   8.215111   6.234632   7.607678   5.395565
    22  H    1.091571   2.160725   2.155363   3.404024   3.420389
                    6          7          8          9         10
     6  C    0.000000
     7  H    3.409901   0.000000
     8  H    3.402699   4.308039   0.000000
     9  H    2.155413   2.492996   4.969369   0.000000
    10  H    1.091690   4.308079   4.307029   2.477093   0.000000
    11  C    2.514021   5.395559   2.721801   4.668277   2.721640
    12  C    3.041636   6.234416   3.964357   5.077272   2.801551
    13  C    3.701390   6.234551   2.802093   5.805229   3.964079
    14  C    4.400289   7.607760   4.931531   6.425548   4.055570
    15  C    4.879801   7.607830   4.056180   7.015117   4.931051
    16  C    5.168027   8.215105   4.974565   7.286545   4.973933
    17  H    2.801687   5.976537   4.430319   4.576790   2.392248
    18  H    3.964172   5.976685   2.392806   5.912002   4.430070
    19  H    5.077188   8.335275   5.912245   6.959875   4.576532
    20  H    5.805157   8.335472   4.577305   7.908628   5.911788
    21  H    6.234357   9.306358   5.976963   8.335235   5.976308
    22  H    3.877842   2.493080   2.476912   4.309118   4.969342
                   11         12         13         14         15
    11  C    0.000000
    12  C    1.405040   0.000000
    13  C    1.405049   2.411654   0.000000
    14  C    2.435684   1.394818   2.786326   0.000000
    15  C    2.435656   2.786309   1.394776   2.412496   0.000000
    16  C    2.819546   2.420129   2.420146   1.396401   1.396456
    17  H    2.160996   1.091687   3.402672   2.155755   3.877777
    18  H    2.160962   3.402645   1.091698   3.877801   2.155778
    19  H    3.420426   2.155377   3.877855   1.091569   3.404015
    20  H    3.420435   3.877840   2.155388   3.403976   1.091572
    21  H    3.910799   3.409934   3.409903   2.162490   2.162479
    22  H    4.668244   5.805208   5.077525   7.015258   6.425842
                   16         17         18         19         20
    16  C    0.000000
    17  H    3.406864   0.000000
    18  H    3.406928   4.307007   0.000000
    19  H    2.160719   2.476948   4.969360   0.000000
    20  H    2.160719   4.969338   2.477064   4.309123   0.000000
    21  H    1.091253   4.308067   4.308078   2.493109   2.492991
    22  H    7.286825   5.911972   4.577085   7.908714   6.960365
                   21         22
    21  H    0.000000
    22  H    8.335547   0.000000
 Stoichiometry    C12H10(1+,2)
 Framework group  C1[X(C12H10)]
 Deg. of freedom    60
 Full point group                 C1      NOp   1
 Largest Abelian subgroup         C1      NOp   1
 Largest concise Abelian subgroup C1      NOp   1
                         Standard orientation:                         
 ---------------------------------------------------------------------
 Center     Atomic      Atomic             Coordinates (Angstroms)
 Number     Number       Type             X           Y           Z
 ---------------------------------------------------------------------
      1          6           0       -2.858500   -1.132993   -0.413690
      2          6           0       -3.561927    0.000084    0.000146
      3          6           0       -1.463685   -1.132747   -0.413534
      4          6           0       -2.858269    1.133176    0.413741
      5          6           0       -0.742381   -0.000123   -0.000091
      6          6           0       -1.463491    1.132675    0.413489
      7          1           0       -4.653174    0.000160    0.000261
      8          1           0       -0.922222   -2.014213   -0.762301
      9          1           0       -3.398792    2.020986    0.747134
     10          1           0       -0.921754    2.014027    0.762095
     11          6           0        0.742385   -0.000142   -0.000197
     12          6           0        1.463539    1.132637   -0.413582
     13          6           0        1.463636   -1.132765    0.413477
     14          6           0        2.858357    1.133114   -0.413660
     15          6           0        2.858412   -1.133073    0.413706
     16          6           0        3.561931    0.000095    0.000087
     17          1           0        0.921935    2.014039   -0.762261
     18          1           0        0.922017   -2.014128    0.762265
     19          1           0        3.398826    2.021000   -0.746938
     20          1           0        3.399026   -2.020805    0.747168
     21          1           0        4.653184    0.000117    0.000198
     22          1           0       -3.399078   -2.020813   -0.746974
 ---------------------------------------------------------------------
 Rotational constants (GHZ):           2.8545349           0.5449545           0.4756990
 Leave Link  202 at Sun Jan 17 09:58:32 2021, MaxMem=  4026531840 cpu:               0.2 elap:               0.0
 (Enter /opt/ohpc/pub/libs/gaussian/g16-A.03/sandybridge/g16/l301.exe)
 Standard basis: TZVP (5D, 7F)
 Ernie: Thresh=  0.10000D-02 Tol=  0.10000D-05 Strict=F.
 There are   300 symmetry adapted cartesian basis functions of A   symmetry.
 There are   288 symmetry adapted basis functions of A   symmetry.
   288 basis functions,   500 primitive gaussians,   300 cartesian basis functions
    41 alpha electrons       40 beta electrons
       nuclear repulsion energy       598.4723472889 Hartrees.
 IExCor=33909 DFT=T Ex+Corr=LC-wHPBE ExCW=0 ScaHFX=  1.000000
 ScaDFX=  1.000000  1.000000  1.000000  1.000000 ScalE2=  1.000000  1.000000
 IRadAn=      5 IRanWt=     -1 IRanGd=            0 ICorTp=0 IEmpDi=  4
 HFx  wShort=  0.000000 wLong=  0.230600 cFull=  0.000000 cShort=  0.000000 cLong=  1.000000
 DFx  wShort=  0.000000 wLong=  0.230600 cFull=  0.000000 cShort=  1.000000 cLong=  0.000000
 NAtoms=   22 NActive=   22 NUniq=   22 SFac= 1.00D+00 NAtFMM=   60 NAOKFM=F Big=F
 Integral buffers will be    131072 words long.
 Raffenetti 2 integral format.
 Two-electron integral symmetry is turned on.
 Leave Link  301 at Sun Jan 17 09:58:32 2021, MaxMem=  4026531840 cpu:               0.5 elap:               0.1
 (Enter /opt/ohpc/pub/libs/gaussian/g16-A.03/sandybridge/g16/l302.exe)
 NPDir=0 NMtPBC=     1 NCelOv=     1 NCel=       1 NClECP=     1 NCelD=      1
         NCelK=      1 NCelE2=     1 NClLst=     1 CellRange=     0.0.
 One-electron integrals computed using PRISM.
 One-electron integral symmetry used in STVInt
 NBasis=   288 RedAO= T EigKep=  9.18D-06  NBF=   288
 NBsUse=   288 1.00D-06 EigRej= -1.00D+00 NBFU=   288
 Precomputing XC quadrature grid using
 IXCGrd= 4 IRadAn=           5 IRanWt=          -1 IRanGd=           0 AccXCQ= 0.00D+00.
 Generated NRdTot=       0 NPtTot=           0 NUsed=           0 NTot=          32
 NSgBfM=   295   295   295   295   295 MxSgAt=    22 MxSgA2=    22.
 Leave Link  302 at Sun Jan 17 09:58:33 2021, MaxMem=  4026531840 cpu:               2.3 elap:               0.3
 (Enter /opt/ohpc/pub/libs/gaussian/g16-A.03/sandybridge/g16/l303.exe)
 DipDrv:  MaxL=1.
 Leave Link  303 at Sun Jan 17 09:58:33 2021, MaxMem=  4026531840 cpu:               0.5 elap:               0.1
 (Enter /opt/ohpc/pub/libs/gaussian/g16-A.03/sandybridge/g16/l401.exe)
 ExpMin= 9.52D-02 ExpMax= 1.36D+04 ExpMxC= 4.63D+02 IAcc=3 IRadAn=         5 AccDes= 0.00D+00
 Harris functional with IExCor=33909 and IRadAn=       5 diagonalized for initial guess.
 HarFok:  IExCor=33909 AccDes= 0.00D+00 IRadAn=         5 IDoV= 1 UseB2=F ITyADJ=14
 ICtDFT=  3500011 ScaDFX=  1.000000  1.000000  1.000000  1.000000
 FoFCou: FMM=F IPFlag=           0 FMFlag=      100000 FMFlg1=           0
         NFxFlg=           0 DoJE=T BraDBF=F KetDBF=T FulRan=T
         wScrn=  0.000000 ICntrl=       500 IOpCl=  0 I1Cent=   200000004 NGrid=           0
         NMat0=    1 NMatS0=      1 NMatT0=    0 NMatD0=    1 NMtDS0=    0 NMtDT0=    0
 Petite list used in FoFCou.
 Harris En= -452.898274184698    
 JPrj=0 DoOrth=F DoCkMO=F.
 Initial guess <Sx>= 0.0000 <Sy>= 0.0000 <Sz>= 0.5000 <S**2>= 0.7500 S= 0.5000
 Leave Link  401 at Sun Jan 17 09:58:35 2021, MaxMem=  4026531840 cpu:              14.0 elap:               1.8
 (Enter /opt/ohpc/pub/libs/gaussian/g16-A.03/sandybridge/g16/l502.exe)
 Integral symmetry usage will be decided dynamically.
 UHF open shell SCF:
 Using DIIS extrapolation, IDIIS=    10.
 NGot=  4026531840 LenX=  4026346394 LenY=  4026255953
 Requested convergence on RMS density matrix=1.00D-06 within  32 cycles.
 Requested convergence on MAX density matrix=1.00D-04.
 Requested convergence on             energy=1.00D-04.
 Virtual orbitals will be shifted by   0.500 hartree.
 No special actions if energy rises.
 Dynamic level shift is on during FON iterations.

 Cycle   1  Pass 1  IDiag  1:
 FoFJK:  IHMeth= 1 ICntrl=       0 DoSepK=T KAlg= 0 I1Cent=           0 FoldK=F
 IRaf=         1 NMat=       1 IRICut=       1 DoRegI=T DoRafI=F ISym2E= 0 IDoP0=0 IntGTp=1.
 FoFCou: FMM=F IPFlag=           0 FMFlag=      100000 FMFlg1=           0
         NFxFlg=           0 DoJE=T BraDBF=F KetDBF=F FulRan=T
         wScrn=  0.000000 ICntrl=       500 IOpCl=  0 I1Cent=           0 NGrid=           0
         NMat0=    1 NMatS0=      1 NMatT0=    0 NMatD0=    1 NMtDS0=    0 NMtDT0=    0
 Symmetry not used in FoFCou.
 E= -462.605287222232    
 DIIS: error= 2.40D-02 at cycle   1 NSaved=   1.
 NSaved= 1 IEnMin= 1 EnMin= -462.605287222232     IErMin= 1 ErrMin= 2.40D-02
 ErrMax= 2.40D-02  0.00D+00 EMaxC= 1.00D+00 BMatC= 4.53D-01 BMatP= 4.53D-01
 IDIUse=1 WtCom= 1.00D+00 WtEn= 0.00D+00
 Coeff-Com:  0.100D+01
 Coeff:      0.100D+01
 Gap=     0.330 Goal=   None    Shift=    0.500
 T= 1363. Gap= 0.822 NK=0 IS=   42 IE=  288 IFin=   41
          NO(<0.9)=   0  NV(>0.1)=   0     41.00e < EF      0.00e >EF  Err=0.0D+00
 Gap=     0.169 Goal=   None    Shift=    0.500
 T= 1363. Gap= 0.667 NK=0 IS=   41 IE=  288 IFin=   40
          NO(<0.9)=   0  NV(>0.1)=   0     40.00e < EF      0.00e >EF  Err=0.0D+00
 GapD=    0.169 DampG=1.000 DampE=0.500 DampFc=0.5000 IDamp=-1.
 Damping current iteration by 5.00D-01
 RMSDP=2.45D-03 MaxDP=6.05D-02              OVMax= 5.26D-02

 Cycle   2  Pass 1  IDiag  1:
 E= -462.669946334970     Delta-E=       -0.064659112738 Rises=F Damp=T
 DIIS: error= 1.11D-02 at cycle   2 NSaved=   2.
 NSaved= 2 IEnMin= 2 EnMin= -462.669946334970     IErMin= 2 ErrMin= 1.11D-02
 ErrMax= 1.11D-02  0.00D+00 EMaxC= 1.00D+00 BMatC= 9.18D-02 BMatP= 4.53D-01
 IDIUse=1 WtCom= 1.00D+00 WtEn= 0.00D+00
 Coeff-Com: -0.694D+00 0.169D+01
 Coeff:     -0.694D+00 0.169D+01
 Gap=     0.337 Goal=   None    Shift=    0.500
 T= 1245. Gap= 0.831 NK=0 IS=   42 IE=  288 IFin=   41
          NO(<0.9)=   0  NV(>0.1)=   0     41.00e < EF      0.00e >EF  Err=0.0D+00
 Gap=     0.192 Goal=   None    Shift=    0.500
 T= 1245. Gap= 0.686 NK=0 IS=   41 IE=  288 IFin=   40
          NO(<0.9)=   0  NV(>0.1)=   0     40.00e < EF      0.00e >EF  Err=0.0D+00
 GapD=    0.192 DampG=1.000 DampE=0.500 DampFc=0.5000 IDamp=-1.
 Damping current iteration by 5.00D-01
 RMSDP=1.71D-03 MaxDP=4.80D-02 DE=-6.47D-02 OVMax= 1.61D-02

 Cycle   3  Pass 1  IDiag  1:
 E= -462.693779538498     Delta-E=       -0.023833203528 Rises=F Damp=T
 DIIS: error= 5.35D-03 at cycle   3 NSaved=   3.
 NSaved= 3 IEnMin= 3 EnMin= -462.693779538498     IErMin= 3 ErrMin= 5.35D-03
 ErrMax= 5.35D-03  0.00D+00 EMaxC= 1.00D+00 BMatC= 2.10D-02 BMatP= 9.18D-02
 IDIUse=1 WtCom= 1.00D+00 WtEn= 0.00D+00
 Coeff-Com:  0.447D-01-0.102D+01 0.197D+01
 Coeff:      0.447D-01-0.102D+01 0.197D+01
 Gap=     0.332 Goal=   None    Shift=    0.500
 T= 1017. Gap= 0.832 NK=0 IS=   42 IE=  288 IFin=   41
          NO(<0.9)=   0  NV(>0.1)=   0     41.00e < EF      0.00e >EF  Err=0.0D+00
 Gap=     0.187 Goal=   None    Shift=    0.500
 T= 1017. Gap= 0.687 NK=0 IS=   41 IE=  288 IFin=   40
          NO(<0.9)=   0  NV(>0.1)=   0     40.00e < EF      0.00e >EF  Err=0.0D+00
 GapD=    0.187 DampG=1.000 DampE=1.000 DampFc=1.0000 IDamp=-1.
 RMSDP=1.05D-03 MaxDP=3.02D-02 DE=-2.38D-02 OVMax= 1.21D-02

 Cycle   4  Pass 1  IDiag  1:
 E= -462.714642345895     Delta-E=       -0.020862807397 Rises=F Damp=F
 DIIS: error= 2.30D-03 at cycle   4 NSaved=   4.
 NSaved= 4 IEnMin= 4 EnMin= -462.714642345895     IErMin= 4 ErrMin= 2.30D-03
 ErrMax= 2.30D-03  0.00D+00 EMaxC= 1.00D+00 BMatC= 4.80D-04 BMatP= 2.10D-02
 IDIUse=1 WtCom= 1.00D+00 WtEn= 0.00D+00
 Coeff-Com:  0.610D-01-0.742D-01-0.888D-01 0.110D+01
 Coeff:      0.610D-01-0.742D-01-0.888D-01 0.110D+01
 Gap=     0.333 Goal=   None    Shift=    0.500
 T=  556. Gap= 0.833 NK=0 IS=   42 IE=  288 IFin=   41
          NO(<0.9)=   0  NV(>0.1)=   0     41.00e < EF      0.00e >EF  Err=0.0D+00
 Gap=     0.189 Goal=   None    Shift=    0.500
 T=  556. Gap= 0.689 NK=0 IS=   41 IE=  288 IFin=   40
          NO(<0.9)=   0  NV(>0.1)=   0     40.00e < EF      0.00e >EF  Err=0.0D+00
 GapD=    0.189 DampG=1.000 DampE=1.000 DampFc=1.0000 IDamp=-1.
 RMSDP=1.27D-04 MaxDP=3.74D-03 DE=-2.09D-02 OVMax= 8.57D-03

 Cycle   5  Pass 1  IDiag  1:
 E= -462.714992229196     Delta-E=       -0.000349883301 Rises=F Damp=F
 DIIS: error= 1.99D-03 at cycle   5 NSaved=   5.
 NSaved= 5 IEnMin= 5 EnMin= -462.714992229196     IErMin= 5 ErrMin= 1.99D-03
 ErrMax= 1.99D-03  0.00D+00 EMaxC= 1.00D+00 BMatC= 2.01D-04 BMatP= 4.80D-04
 IDIUse=1 WtCom= 1.00D+00 WtEn= 0.00D+00
 Coeff-Com: -0.210D-01 0.232D+00-0.410D+00-0.675D+00 0.187D+01
 Coeff:     -0.210D-01 0.232D+00-0.410D+00-0.675D+00 0.187D+01
 Gap=     0.333 Goal=   None    Shift=    0.500
 T=  156. Gap= 0.833 NK=0 IS=   42 IE=  288 IFin=   41
          NO(<0.9)=   0  NV(>0.1)=   0     41.00e < EF      0.00e >EF  Err=0.0D+00
 Gap=     0.191 Goal=   None    Shift=    0.500
 T=  156. Gap= 0.691 NK=0 IS=   41 IE=  288 IFin=   40
          NO(<0.9)=   0  NV(>0.1)=   0     40.00e < EF      0.00e >EF  Err=0.0D+00
 GapD=    0.191 DampG=1.000 DampE=1.000 DampFc=1.0000 IDamp=-1.
 RMSDP=1.00D-04 MaxDP=3.21D-03 DE=-3.50D-04 OVMax= 8.88D-03

 Cycle   6  Pass 1  IDiag  1:
 E= -462.715235981397     Delta-E=       -0.000243752201 Rises=F Damp=F
 DIIS: error= 1.46D-03 at cycle   6 NSaved=   6.
 NSaved= 6 IEnMin= 6 EnMin= -462.715235981397     IErMin= 6 ErrMin= 1.46D-03
 ErrMax= 1.46D-03  0.00D+00 EMaxC= 1.00D+00 BMatC= 1.02D-04 BMatP= 2.01D-04
 IDIUse=1 WtCom= 1.00D+00 WtEn= 0.00D+00
 Coeff-Com: -0.261D-01 0.287D-01 0.341D-01-0.346D+00-0.896D+00 0.221D+01
 Coeff:     -0.261D-01 0.287D-01 0.341D-01-0.346D+00-0.896D+00 0.221D+01
 Gap=     0.334 Goal=   None    Shift=    0.500
 Gap=     0.193 Goal=   None    Shift=    0.500
 GapD=    0.193 DampG=1.000 DampE=1.000 DampFc=1.0000 IDamp=-1.
 RMSDP=6.89D-05 MaxDP=1.70D-03 DE=-2.44D-04 OVMax= 7.72D-03

 Cycle   7  Pass 1  IDiag  1:
 E= -462.715395226304     Delta-E=       -0.000159244907 Rises=F Damp=F
 DIIS: error= 1.05D-03 at cycle   7 NSaved=   7.
 NSaved= 7 IEnMin= 7 EnMin= -462.715395226304     IErMin= 7 ErrMin= 1.05D-03
 ErrMax= 1.05D-03  0.00D+00 EMaxC= 1.00D+00 BMatC= 5.21D-05 BMatP= 1.02D-04
 IDIUse=1 WtCom= 1.00D+00 WtEn= 0.00D+00
 Coeff-Com: -0.583D-02-0.385D-01 0.101D+00 0.111D+00-0.986D+00 0.115D+00
 Coeff-Com:  0.170D+01
 Coeff:     -0.583D-02-0.385D-01 0.101D+00 0.111D+00-0.986D+00 0.115D+00
 Coeff:      0.170D+01
 Gap=     0.334 Goal=   None    Shift=    0.500
 Gap=     0.193 Goal=   None    Shift=    0.500
 GapD=    0.193 DampG=1.000 DampE=1.000 DampFc=1.0000 IDamp=-1.
 RMSDP=4.21D-05 MaxDP=9.82D-04 DE=-1.59D-04 OVMax= 5.93D-03

 Cycle   8  Pass 1  IDiag  1:
 E= -462.715484414934     Delta-E=       -0.000089188630 Rises=F Damp=F
 DIIS: error= 7.09D-04 at cycle   8 NSaved=   8.
 NSaved= 8 IEnMin= 8 EnMin= -462.715484414934     IErMin= 8 ErrMin= 7.09D-04
 ErrMax= 7.09D-04  0.00D+00 EMaxC= 1.00D+00 BMatC= 2.73D-05 BMatP= 5.21D-05
 IDIUse=1 WtCom= 1.00D+00 WtEn= 0.00D+00
 Coeff-Com:  0.103D-01 0.163D-03-0.359D-01 0.230D+00 0.232D+00-0.142D+01
 Coeff-Com: -0.176D+00 0.216D+01
 Coeff:      0.103D-01 0.163D-03-0.359D-01 0.230D+00 0.232D+00-0.142D+01
 Coeff:     -0.176D+00 0.216D+01
 Gap=     0.334 Goal=   None    Shift=    0.500
 Gap=     0.194 Goal=   None    Shift=    0.500
 RMSDP=2.85D-05 MaxDP=5.67D-04 DE=-8.92D-05 OVMax= 4.59D-03

 Cycle   9  Pass 1  IDiag  1:
 E= -462.715538318414     Delta-E=       -0.000053903480 Rises=F Damp=F
 DIIS: error= 4.77D-04 at cycle   9 NSaved=   9.
 NSaved= 9 IEnMin= 9 EnMin= -462.715538318414     IErMin= 9 ErrMin= 4.77D-04
 ErrMax= 4.77D-04  0.00D+00 EMaxC= 1.00D+00 BMatC= 1.40D-05 BMatP= 2.73D-05
 IDIUse=1 WtCom= 1.00D+00 WtEn= 0.00D+00
 Coeff-Com: -0.305D-02 0.350D-01-0.593D-01-0.155D+00 0.508D+00 0.106D+00
 Coeff-Com: -0.842D+00-0.154D+01 0.295D+01
 Coeff:     -0.305D-02 0.350D-01-0.593D-01-0.155D+00 0.508D+00 0.106D+00
 Coeff:     -0.842D+00-0.154D+01 0.295D+01
 Gap=     0.334 Goal=   None    Shift=    0.500
 Gap=     0.194 Goal=   None    Shift=    0.500
 RMSDP=2.22D-05 MaxDP=4.63D-04 DE=-5.39D-05 OVMax= 3.40D-03

 Cycle  10  Pass 1  IDiag  1:
 E= -462.715568200394     Delta-E=       -0.000029881979 Rises=F Damp=F
 DIIS: error= 3.28D-04 at cycle  10 NSaved=  10.
 NSaved=10 IEnMin=10 EnMin= -462.715568200394     IErMin=10 ErrMin= 3.28D-04
 ErrMax= 3.28D-04  0.00D+00 EMaxC= 1.00D+00 BMatC= 7.25D-06 BMatP= 1.40D-05
 IDIUse=1 WtCom= 1.00D+00 WtEn= 0.00D+00
 Coeff-Com: -0.409D-02-0.335D-02 0.207D-01-0.147D+00 0.368D-02 0.544D+00
 Coeff-Com: -0.920D-01-0.956D+00-0.762D+00 0.240D+01
 Coeff:     -0.409D-02-0.335D-02 0.207D-01-0.147D+00 0.368D-02 0.544D+00
 Coeff:     -0.920D-01-0.956D+00-0.762D+00 0.240D+01
 Gap=     0.334 Goal=   None    Shift=    0.500
 Gap=     0.194 Goal=   None    Shift=    0.500
 RMSDP=1.57D-05 MaxDP=3.19D-04 DE=-2.99D-05 OVMax= 2.21D-03

 Cycle  11  Pass 1  IDiag  1:
 E= -462.715582328651     Delta-E=       -0.000014128257 Rises=F Damp=F
 DIIS: error= 2.37D-04 at cycle  11 NSaved=  11.
 NSaved=11 IEnMin=11 EnMin= -462.715582328651     IErMin=11 ErrMin= 2.37D-04
 ErrMax= 2.37D-04  0.00D+00 EMaxC= 1.00D+00 BMatC= 3.72D-06 BMatP= 7.25D-06
 IDIUse=1 WtCom= 1.00D+00 WtEn= 0.00D+00
 Coeff-Com:  0.103D-02-0.161D-01 0.280D-01 0.191D-01-0.139D+00-0.273D-02
 Coeff-Com:  0.258D+00 0.533D+00-0.145D+01-0.714D+00 0.248D+01
 Coeff:      0.103D-02-0.161D-01 0.280D-01 0.191D-01-0.139D+00-0.273D-02
 Coeff:      0.258D+00 0.533D+00-0.145D+01-0.714D+00 0.248D+01
 Gap=     0.334 Goal=   None    Shift=    0.500
 Gap=     0.194 Goal=   None    Shift=    0.500
 RMSDP=1.17D-05 MaxDP=2.73D-04 DE=-1.41D-05 OVMax= 1.64D-03

 Cycle  12  Pass 1  IDiag  1:
 E= -462.715588924744     Delta-E=       -0.000006596093 Rises=F Damp=F
 DIIS: error= 1.83D-04 at cycle  12 NSaved=  12.
 NSaved=12 IEnMin=12 EnMin= -462.715588924744     IErMin=12 ErrMin= 1.83D-04
 ErrMax= 1.83D-04  0.00D+00 EMaxC= 1.00D+00 BMatC= 1.93D-06 BMatP= 3.72D-06
 IDIUse=1 WtCom= 1.00D+00 WtEn= 0.00D+00
 Coeff-Com:  0.331D-02 0.175D-02-0.155D-01 0.947D-01 0.410D-01-0.504D+00
 Coeff-Com:  0.105D+00 0.920D+00 0.366D+00-0.284D+01 0.712D+00 0.212D+01
 Coeff:      0.331D-02 0.175D-02-0.155D-01 0.947D-01 0.410D-01-0.504D+00
 Coeff:      0.105D+00 0.920D+00 0.366D+00-0.284D+01 0.712D+00 0.212D+01
 Gap=     0.334 Goal=   None    Shift=    0.500
 Gap=     0.194 Goal=   None    Shift=    0.500
 RMSDP=8.32D-06 MaxDP=2.30D-04 DE=-6.60D-06 OVMax= 1.10D-03

 Cycle  13  Pass 1  IDiag  1:
 E= -462.715591801334     Delta-E=       -0.000002876590 Rises=F Damp=F
 DIIS: error= 1.32D-04 at cycle  13 NSaved=  13.
 NSaved=13 IEnMin=13 EnMin= -462.715591801334     IErMin=13 ErrMin= 1.32D-04
 ErrMax= 1.32D-04  0.00D+00 EMaxC= 1.00D+00 BMatC= 7.77D-07 BMatP= 1.93D-06
 IDIUse=1 WtCom= 1.00D+00 WtEn= 0.00D+00
 Coeff-Com: -0.102D-02 0.320D-02-0.247D-02-0.445D-01 0.554D-01 0.103D+00
 Coeff-Com: -0.694D-01-0.447D+00 0.432D+00 0.706D+00-0.783D+00-0.203D+01
 Coeff-Com:  0.308D+01
 Coeff:     -0.102D-02 0.320D-02-0.247D-02-0.445D-01 0.554D-01 0.103D+00
 Coeff:     -0.694D-01-0.447D+00 0.432D+00 0.706D+00-0.783D+00-0.203D+01
 Coeff:      0.308D+01
 Gap=     0.334 Goal=   None    Shift=    0.500
 Gap=     0.194 Goal=   None    Shift=    0.500
 RMSDP=4.99D-06 MaxDP=1.43D-04 DE=-2.88D-06 OVMax= 6.92D-04

 Cycle  14  Pass 1  IDiag  1:
 E= -462.715592902633     Delta-E=       -0.000001101298 Rises=F Damp=F
 DIIS: error= 9.21D-05 at cycle  14 NSaved=  14.
 NSaved=14 IEnMin=14 EnMin= -462.715592902633     IErMin=14 ErrMin= 9.21D-05
 ErrMax= 9.21D-05  0.00D+00 EMaxC= 1.00D+00 BMatC= 2.90D-07 BMatP= 7.77D-07
 IDIUse=1 WtCom= 1.00D+00 WtEn= 0.00D+00
 Coeff-Com: -0.344D-04-0.210D-02 0.430D-02 0.225D-03-0.253D-01 0.309D-01
 Coeff-Com:  0.207D-01 0.488D-02-0.190D+00 0.200D+00 0.342D-01 0.321D+00
 Coeff-Com: -0.233D+01 0.293D+01
 Coeff:     -0.344D-04-0.210D-02 0.430D-02 0.225D-03-0.253D-01 0.309D-01
 Coeff:      0.207D-01 0.488D-02-0.190D+00 0.200D+00 0.342D-01 0.321D+00
 Coeff:     -0.233D+01 0.293D+01
 Gap=     0.334 Goal=   None    Shift=    0.500
 Gap=     0.194 Goal=   None    Shift=    0.500
 RMSDP=2.91D-06 MaxDP=1.06D-04 DE=-1.10D-06 OVMax= 4.69D-04

 Cycle  15  Pass 1  IDiag  1:
 E= -462.715593311013     Delta-E=       -0.000000408380 Rises=F Damp=F
 DIIS: error= 6.65D-05 at cycle  15 NSaved=  15.
 NSaved=15 IEnMin=15 EnMin= -462.715593311013     IErMin=15 ErrMin= 6.65D-05
 ErrMax= 6.65D-05  0.00D+00 EMaxC= 1.00D+00 BMatC= 1.17D-07 BMatP= 2.90D-07
 IDIUse=1 WtCom= 1.00D+00 WtEn= 0.00D+00
 Coeff-Com:  0.550D-03-0.125D-02 0.402D-03 0.151D-01-0.630D-03-0.891D-01
 Coeff-Com:  0.472D-01 0.193D+00-0.660D-01-0.496D+00 0.363D+00 0.573D+00
 Coeff-Com: -0.520D+00-0.196D+01 0.294D+01
 Coeff:      0.550D-03-0.125D-02 0.402D-03 0.151D-01-0.630D-03-0.891D-01
 Coeff:      0.472D-01 0.193D+00-0.660D-01-0.496D+00 0.363D+00 0.573D+00
 Coeff:     -0.520D+00-0.196D+01 0.294D+01
 Gap=     0.334 Goal=   None    Shift=    0.500
 Gap=     0.194 Goal=   None    Shift=    0.500
 RMSDP=1.69D-06 MaxDP=7.15D-05 DE=-4.08D-07 OVMax= 3.29D-04

 Cycle  16  Pass 1  IDiag  1:
 E= -462.715593471003     Delta-E=       -0.000000159990 Rises=F Damp=F
 DIIS: error= 4.70D-05 at cycle  16 NSaved=  16.
 NSaved=16 IEnMin=16 EnMin= -462.715593471003     IErMin=16 ErrMin= 4.70D-05
 ErrMax= 4.70D-05  0.00D+00 EMaxC= 1.00D+00 BMatC= 4.70D-08 BMatP= 1.17D-07
 IDIUse=1 WtCom= 1.00D+00 WtEn= 0.00D+00
 Coeff-Com: -0.366D-03 0.107D-02-0.716D-03-0.109D-01 0.723D-02 0.401D-01
 Coeff-Com: -0.113D-01-0.143D+00 0.859D-01 0.276D+00-0.206D+00-0.585D+00
 Coeff-Com:  0.954D+00 0.406D+00-0.341D+01 0.360D+01
 Coeff:     -0.366D-03 0.107D-02-0.716D-03-0.109D-01 0.723D-02 0.401D-01
 Coeff:     -0.113D-01-0.143D+00 0.859D-01 0.276D+00-0.206D+00-0.585D+00
 Coeff:      0.954D+00 0.406D+00-0.341D+01 0.360D+01
 Gap=     0.334 Goal=   None    Shift=    0.500
 Gap=     0.194 Goal=   None    Shift=    0.500
 RMSDP=1.02D-06 MaxDP=5.07D-05 DE=-1.60D-07 OVMax= 2.35D-04

 Cycle  17  Pass 1  IDiag  1:
 E= -462.715593538103     Delta-E=       -0.000000067099 Rises=F Damp=F
 DIIS: error= 3.33D-05 at cycle  17 NSaved=  17.
 NSaved=17 IEnMin=17 EnMin= -462.715593538103     IErMin=17 ErrMin= 3.33D-05
 ErrMax= 3.33D-05  0.00D+00 EMaxC= 1.00D+00 BMatC= 1.98D-08 BMatP= 4.70D-08
 IDIUse=1 WtCom= 1.00D+00 WtEn= 0.00D+00
 Coeff-Com:  0.773D-04-0.954D-03 0.163D-02 0.185D-03-0.684D-02 0.423D-02
 Coeff-Com:  0.907D-02 0.354D-03-0.300D-01 0.293D-01-0.129D-01 0.151D+00
 Coeff-Com: -0.498D+00 0.648D+00 0.311D+00-0.308D+01 0.347D+01
 Coeff:      0.773D-04-0.954D-03 0.163D-02 0.185D-03-0.684D-02 0.423D-02
 Coeff:      0.907D-02 0.354D-03-0.300D-01 0.293D-01-0.129D-01 0.151D+00
 Coeff:     -0.498D+00 0.648D+00 0.311D+00-0.308D+01 0.347D+01
 Gap=     0.334 Goal=   None    Shift=    0.500
 Gap=     0.194 Goal=   None    Shift=    0.500
 RMSDP=6.00D-07 MaxDP=2.94D-05 DE=-6.71D-08 OVMax= 1.70D-04

 SCF Done:  E(ULC-wHPBE) =  -462.715593538     A.U. after   17 cycles
            NFock= 17  Conv=0.60D-06     -V/T= 2.0052
 <Sx>= 0.0000 <Sy>= 0.0000 <Sz>= 0.5000 <S**2>= 0.7769 S= 0.5134
 <L.S>= 0.000000000000E+00
 KE= 4.603302630027D+02 PE=-2.256688673560D+03 EE= 7.351704697305D+02
 Annihilation of the first spin contaminant:
 S**2 before annihilation     0.7769,   after     0.7505
 Leave Link  502 at Sun Jan 17 10:00:57 2021, MaxMem=  4026531840 cpu:            1139.3 elap:             142.8
 (Enter /opt/ohpc/pub/libs/gaussian/g16-A.03/sandybridge/g16/l508.exe)
 QCSCF skips out because SCF is already converged.
 Leave Link  508 at Sun Jan 17 10:00:58 2021, MaxMem=  4026531840 cpu:               0.1 elap:               0.0
 (Enter /opt/ohpc/pub/libs/gaussian/g16-A.03/sandybridge/g16/l601.exe)
 Copying SCF densities to generalized density rwf, IOpCl= 1 IROHF=0.

 **********************************************************************

            Population analysis using the SCF density.

 **********************************************************************

 Orbital symmetries:
 Alpha Orbitals:
       Occupied  (A) (A) (A) (A) (A) (A) (A) (A) (A) (A) (A) (A)
                 (A) (A) (A) (A) (A) (A) (A) (A) (A) (A) (A) (A)
                 (A) (A) (A) (A) (A) (A) (A) (A) (A) (A) (A) (A)
                 (A) (A) (A) (A) (A)
       Virtual   (A) (A) (A) (A) (A) (A) (A) (A) (A) (A) (A) (A)
                 (A) (A) (A) (A) (A) (A) (A) (A) (A) (A) (A) (A)
                 (A) (A) (A) (A) (A) (A) (A) (A) (A) (A) (A) (A)
                 (A) (A) (A) (A) (A) (A) (A) (A) (A) (A) (A) (A)
                 (A) (A) (A) (A) (A) (A) (A) (A) (A) (A) (A) (A)
                 (A) (A) (A) (A) (A) (A) (A) (A) (A) (A) (A) (A)
                 (A) (A) (A) (A) (A) (A) (A) (A) (A) (A) (A) (A)
                 (A) (A) (A) (A) (A) (A) (A) (A) (A) (A) (A) (A)
                 (A) (A) (A) (A) (A) (A) (A) (A) (A) (A) (A) (A)
                 (A) (A) (A) (A) (A) (A) (A) (A) (A) (A) (A) (A)
                 (A) (A) (A) (A) (A) (A) (A) (A) (A) (A) (A) (A)
                 (A) (A) (A) (A) (A) (A) (A) (A) (A) (A) (A) (A)
                 (A) (A) (A) (A) (A) (A) (A) (A) (A) (A) (A) (A)
                 (A) (A) (A) (A) (A) (A) (A) (A) (A) (A) (A) (A)
                 (A) (A) (A) (A) (A) (A) (A) (A) (A) (A) (A) (A)
                 (A) (A) (A) (A) (A) (A) (A) (A) (A) (A) (A) (A)
                 (A) (A) (A) (A) (A) (A) (A) (A) (A) (A) (A) (A)
                 (A) (A) (A) (A) (A) (A) (A) (A) (A) (A) (A) (A)
                 (A) (A) (A) (A) (A) (A) (A) (A) (A) (A) (A) (A)
                 (A) (A) (A) (A) (A) (A) (A) (A) (A) (A) (A) (A)
                 (A) (A) (A) (A) (A) (A) (A)
 Beta  Orbitals:
       Occupied  (A) (A) (A) (A) (A) (A) (A) (A) (A) (A) (A) (A)
                 (A) (A) (A) (A) (A) (A) (A) (A) (A) (A) (A) (A)
                 (A) (A) (A) (A) (A) (A) (A) (A) (A) (A) (A) (A)
                 (A) (A) (A) (A)
       Virtual   (A) (A) (A) (A) (A) (A) (A) (A) (A) (A) (A) (A)
                 (A) (A) (A) (A) (A) (A) (A) (A) (A) (A) (A) (A)
                 (A) (A) (A) (A) (A) (A) (A) (A) (A) (A) (A) (A)
                 (A) (A) (A) (A) (A) (A) (A) (A) (A) (A) (A) (A)
                 (A) (A) (A) (A) (A) (A) (A) (A) (A) (A) (A) (A)
                 (A) (A) (A) (A) (A) (A) (A) (A) (A) (A) (A) (A)
                 (A) (A) (A) (A) (A) (A) (A) (A) (A) (A) (A) (A)
                 (A) (A) (A) (A) (A) (A) (A) (A) (A) (A) (A) (A)
                 (A) (A) (A) (A) (A) (A) (A) (A) (A) (A) (A) (A)
                 (A) (A) (A) (A) (A) (A) (A) (A) (A) (A) (A) (A)
                 (A) (A) (A) (A) (A) (A) (A) (A) (A) (A) (A) (A)
                 (A) (A) (A) (A) (A) (A) (A) (A) (A) (A) (A) (A)
                 (A) (A) (A) (A) (A) (A) (A) (A) (A) (A) (A) (A)
                 (A) (A) (A) (A) (A) (A) (A) (A) (A) (A) (A) (A)
                 (A) (A) (A) (A) (A) (A) (A) (A) (A) (A) (A) (A)
                 (A) (A) (A) (A) (A) (A) (A) (A) (A) (A) (A) (A)
                 (A) (A) (A) (A) (A) (A) (A) (A) (A) (A) (A) (A)
                 (A) (A) (A) (A) (A) (A) (A) (A) (A) (A) (A) (A)
                 (A) (A) (A) (A) (A) (A) (A) (A) (A) (A) (A) (A)
                 (A) (A) (A) (A) (A) (A) (A) (A) (A) (A) (A) (A)
                 (A) (A) (A) (A) (A) (A) (A) (A)
 The electronic state is 2-A.
 Alpha  occ. eigenvalues --  -10.22652 -10.22640 -10.20377 -10.20377 -10.19996
 Alpha  occ. eigenvalues --  -10.19995 -10.19994 -10.19992 -10.18741 -10.18740
 Alpha  occ. eigenvalues --  -10.18739 -10.18739  -1.11239  -1.08607  -1.02049
 Alpha  occ. eigenvalues --   -0.98524  -0.97624  -0.96643  -0.86559  -0.85956
 Alpha  occ. eigenvalues --   -0.83128  -0.81676  -0.77511  -0.73899  -0.71112
 Alpha  occ. eigenvalues --   -0.70398  -0.68847  -0.67308  -0.66400  -0.66038
 Alpha  occ. eigenvalues --   -0.65431  -0.63922  -0.62184  -0.60241  -0.58713
 Alpha  occ. eigenvalues --   -0.57680  -0.57340  -0.53907  -0.50331  -0.50275
 Alpha  occ. eigenvalues --   -0.49146
 Alpha virt. eigenvalues --   -0.15747  -0.12049  -0.11858  -0.09908  -0.01774
 Alpha virt. eigenvalues --   -0.00971   0.00291   0.02015   0.02121   0.03761
 Alpha virt. eigenvalues --    0.03786   0.04607   0.05035   0.05235   0.05295
 Alpha virt. eigenvalues --    0.06762   0.07134   0.08457   0.11590   0.12359
 Alpha virt. eigenvalues --    0.12745   0.12761   0.14726   0.14820   0.14872
 Alpha virt. eigenvalues --    0.14931   0.14995   0.16445   0.17177   0.17284
 Alpha virt. eigenvalues --    0.17863   0.18949   0.19160   0.20443   0.20997
 Alpha virt. eigenvalues --    0.21405   0.23004   0.23825   0.25079   0.26087
 Alpha virt. eigenvalues --    0.26570   0.26752   0.28002   0.28469   0.28662
 Alpha virt. eigenvalues --    0.29970   0.30675   0.31694   0.32580   0.33460
 Alpha virt. eigenvalues --    0.33740   0.34017   0.34508   0.34903   0.35729
 Alpha virt. eigenvalues --    0.37507   0.38083   0.38395   0.39210   0.40323
 Alpha virt. eigenvalues --    0.40611   0.40821   0.41561   0.42117   0.43995
 Alpha virt. eigenvalues --    0.44101   0.44354   0.44510   0.45913   0.49498
 Alpha virt. eigenvalues --    0.50561   0.52866   0.54061   0.56738   0.57989
 Alpha virt. eigenvalues --    0.59263   0.59854   0.60158   0.60368   0.60591
 Alpha virt. eigenvalues --    0.62431   0.66989   0.68683   0.72236   0.73530
 Alpha virt. eigenvalues --    0.80711   0.81796   0.98175   1.08247   1.09131
 Alpha virt. eigenvalues --    1.11719   1.12439   1.12575   1.13871   1.13917
 Alpha virt. eigenvalues --    1.14394   1.14884   1.17451   1.17504   1.18478
 Alpha virt. eigenvalues --    1.18577   1.19093   1.20013   1.20876   1.20973
 Alpha virt. eigenvalues --    1.21301   1.21702   1.21954   1.24057   1.28366
 Alpha virt. eigenvalues --    1.28834   1.30505   1.30572   1.32756   1.33175
 Alpha virt. eigenvalues --    1.33475   1.33799   1.34697   1.34912   1.35349
 Alpha virt. eigenvalues --    1.35737   1.36971   1.37727   1.37749   1.38200
 Alpha virt. eigenvalues --    1.40077   1.40150   1.41225   1.41303   1.42311
 Alpha virt. eigenvalues --    1.44281   1.44990   1.45528   1.45546   1.47433
 Alpha virt. eigenvalues --    1.47467   1.53287   1.54276   1.57143   1.60821
 Alpha virt. eigenvalues --    1.65595   1.66552   1.66816   1.66887   1.67330
 Alpha virt. eigenvalues --    1.69386   1.69880   1.70347   1.75784   1.75937
 Alpha virt. eigenvalues --    1.76219   1.76672   1.76783   1.76901   1.79053
 Alpha virt. eigenvalues --    1.79090   1.79196   1.79316   1.80206   1.81717
 Alpha virt. eigenvalues --    1.82922   1.83267   1.86175   1.86409   1.87696
 Alpha virt. eigenvalues --    1.88270   1.90043   1.90280   1.96426   1.96785
 Alpha virt. eigenvalues --    1.99266   2.10860   2.13398   2.13784   2.15429
 Alpha virt. eigenvalues --    2.15493   2.16778   2.17312   2.17479   2.20047
 Alpha virt. eigenvalues --    2.20904   2.21019   2.21306   2.21732   2.23586
 Alpha virt. eigenvalues --    2.23877   2.30939   2.35580   2.36854   2.37004
 Alpha virt. eigenvalues --    2.39048   2.40324   2.40639   2.41574   2.45394
 Alpha virt. eigenvalues --    2.48391   2.50086   2.50399   2.50906   2.52204
 Alpha virt. eigenvalues --    2.54088   2.56345   2.56566   2.57443   2.58908
 Alpha virt. eigenvalues --    2.62595   2.67844   2.67960   2.68313   2.70941
 Alpha virt. eigenvalues --    2.85273   2.86083   2.88779   2.91050   2.91613
 Alpha virt. eigenvalues --    2.92062   2.92724   2.95118   2.97222   2.98785
 Alpha virt. eigenvalues --    3.01843   3.02109   3.04153   3.04612   3.06647
 Alpha virt. eigenvalues --    3.08680   3.17735   3.19540   3.20886   3.26833
 Alpha virt. eigenvalues --    3.27352   3.38138   3.41228   3.59576   3.68547
 Alpha virt. eigenvalues --   20.85938  21.14287  21.40969  21.51518  21.54700
 Alpha virt. eigenvalues --   21.60705  21.73240  21.76427  21.79001  21.80756
 Alpha virt. eigenvalues --   21.90011  21.93376
  Beta  occ. eigenvalues --  -10.22455 -10.22441 -10.20021 -10.20020 -10.19832
  Beta  occ. eigenvalues --  -10.19832 -10.19830 -10.19829 -10.18817 -10.18816
  Beta  occ. eigenvalues --  -10.18815 -10.18814  -1.10688  -1.08132  -1.01447
  Beta  occ. eigenvalues --   -0.98316  -0.97471  -0.95614  -0.86136  -0.85716
  Beta  occ. eigenvalues --   -0.82771  -0.81369  -0.77366  -0.73649  -0.70898
  Beta  occ. eigenvalues --   -0.70214  -0.68322  -0.67140  -0.66132  -0.65962
  Beta  occ. eigenvalues --   -0.65236  -0.62917  -0.60192  -0.60072  -0.58562
  Beta  occ. eigenvalues --   -0.57576  -0.57072  -0.50009  -0.49976  -0.49918
  Beta virt. eigenvalues --   -0.30514  -0.13596  -0.11321  -0.10787  -0.07918
  Beta virt. eigenvalues --   -0.01697  -0.00874   0.00372   0.02244   0.02461
  Beta virt. eigenvalues --    0.03976   0.04098   0.04680   0.05416   0.05579
  Beta virt. eigenvalues --    0.05960   0.07088   0.07351   0.08595   0.11930
  Beta virt. eigenvalues --    0.12666   0.12956   0.12991   0.14907   0.14944
  Beta virt. eigenvalues --    0.15069   0.15178   0.15240   0.16674   0.17360
  Beta virt. eigenvalues --    0.17385   0.18019   0.19202   0.19548   0.20478
  Beta virt. eigenvalues --    0.21194   0.21648   0.23254   0.24480   0.25343
  Beta virt. eigenvalues --    0.26509   0.26762   0.27051   0.28359   0.28891
  Beta virt. eigenvalues --    0.29037   0.30250   0.30967   0.32174   0.33113
  Beta virt. eigenvalues --    0.33806   0.34065   0.34098   0.34573   0.35197
  Beta virt. eigenvalues --    0.35776   0.37837   0.38206   0.38419   0.39519
  Beta virt. eigenvalues --    0.40579   0.40759   0.40959   0.41852   0.42251
  Beta virt. eigenvalues --    0.44148   0.44354   0.44515   0.44675   0.46182
  Beta virt. eigenvalues --    0.49669   0.50803   0.53167   0.54206   0.56890
  Beta virt. eigenvalues --    0.58077   0.59611   0.60131   0.60288   0.60707
  Beta virt. eigenvalues --    0.60779   0.62761   0.67146   0.68912   0.72461
  Beta virt. eigenvalues --    0.73616   0.80797   0.81902   0.98369   1.08473
  Beta virt. eigenvalues --    1.09542   1.12230   1.12885   1.13079   1.14035
  Beta virt. eigenvalues --    1.14198   1.14672   1.15298   1.17778   1.17897
  Beta virt. eigenvalues --    1.18742   1.18951   1.19630   1.20396   1.21181
  Beta virt. eigenvalues --    1.21195   1.21636   1.21735   1.22459   1.24637
  Beta virt. eigenvalues --    1.28950   1.29703   1.31107   1.31272   1.33400
  Beta virt. eigenvalues --    1.33660   1.33989   1.34118   1.35265   1.35488
  Beta virt. eigenvalues --    1.36060   1.36205   1.37227   1.38054   1.38150
  Beta virt. eigenvalues --    1.38547   1.40242   1.40740   1.41494   1.41565
  Beta virt. eigenvalues --    1.42338   1.44476   1.45475   1.45786   1.46048
  Beta virt. eigenvalues --    1.47644   1.47938   1.53475   1.54822   1.57746
  Beta virt. eigenvalues --    1.61895   1.65976   1.66964   1.67000   1.67055
  Beta virt. eigenvalues --    1.67974   1.69442   1.70106   1.70769   1.75864
  Beta virt. eigenvalues --    1.76414   1.76534   1.76847   1.77080   1.77286
  Beta virt. eigenvalues --    1.79424   1.79437   1.79484   1.79774   1.80579
  Beta virt. eigenvalues --    1.82382   1.83362   1.83500   1.86845   1.86931
  Beta virt. eigenvalues --    1.88229   1.88946   1.90277   1.90501   1.96775
  Beta virt. eigenvalues --    1.97497   1.99506   2.11324   2.13685   2.14108
  Beta virt. eigenvalues --    2.15965   2.16272   2.17041   2.18109   2.18164
  Beta virt. eigenvalues --    2.21049   2.21557   2.21573   2.21762   2.22361
  Beta virt. eigenvalues --    2.23941   2.24234   2.31738   2.35722   2.37109
  Beta virt. eigenvalues --    2.37351   2.39097   2.40695   2.40942   2.41883
  Beta virt. eigenvalues --    2.45983   2.48500   2.50900   2.51099   2.51674
  Beta virt. eigenvalues --    2.52391   2.54377   2.56639   2.56750   2.57660
  Beta virt. eigenvalues --    2.58970   2.62646   2.67990   2.68062   2.68426
  Beta virt. eigenvalues --    2.71033   2.85742   2.86458   2.88905   2.91467
  Beta virt. eigenvalues --    2.91678   2.92103   2.93207   2.95850   2.97748
  Beta virt. eigenvalues --    2.98953   3.02062   3.02316   3.04479   3.04814
  Beta virt. eigenvalues --    3.06953   3.08916   3.17834   3.19835   3.20979
  Beta virt. eigenvalues --    3.27339   3.27915   3.38385   3.41482   3.59734
  Beta virt. eigenvalues --    3.68735  20.86169  21.14490  21.41292  21.51625
  Beta virt. eigenvalues --   21.54726  21.61138  21.73618  21.76499  21.79154
  Beta virt. eigenvalues --   21.81020  21.90260  21.93588
          Condensed to atoms (all electrons):
               1          2          3          4          5          6
     1  C    4.967577   0.455902   0.374083  -0.035393  -0.010795  -0.050762
     2  C    0.455902   4.904407  -0.033541   0.455626  -0.044235  -0.032955
     3  C    0.374083  -0.033541   5.260682  -0.050419   0.360543  -0.135090
     4  C   -0.035393   0.455626  -0.050419   4.968275  -0.010383   0.372985
     5  C   -0.010795  -0.044235   0.360543  -0.010383   5.435288   0.359387
     6  C   -0.050762  -0.032955  -0.135090   0.372985   0.359387   5.262326
     7  H   -0.042766   0.410442   0.013742  -0.042780  -0.003344   0.013761
     8  H   -0.011317   0.007325   0.398486  -0.001157  -0.050004   0.009953
     9  H    0.008713  -0.040082   0.000635   0.407576   0.011511  -0.037208
    10  H   -0.001155   0.007323   0.009945  -0.011310  -0.050017   0.398503
    11  C    0.020444   0.001405  -0.079578   0.020361   0.119365  -0.079393
    12  C   -0.002042   0.000084   0.027371   0.005608  -0.079318  -0.018538
    13  C    0.005541   0.000120  -0.018501  -0.002115  -0.079677   0.027666
    14  C    0.000287   0.000003  -0.002055  -0.000786   0.020390   0.005554
    15  C   -0.000786   0.000001   0.005593   0.000292   0.020428  -0.002107
    16  C    0.000003  -0.000003   0.000090   0.000001   0.001399   0.000115
    17  H   -0.000058   0.000069   0.000462   0.000537  -0.013507  -0.000004
    18  H    0.000544   0.000069  -0.000036  -0.000060  -0.013487   0.000471
    19  H    0.000000   0.000000  -0.000008  -0.000008  -0.001193   0.000047
    20  H   -0.000008   0.000000   0.000048   0.000000  -0.001193  -0.000008
    21  H    0.000000  -0.000000  -0.000001   0.000000  -0.000150  -0.000001
    22  H    0.407525  -0.040057  -0.037149   0.008708   0.011493   0.000629
               7          8          9         10         11         12
     1  C   -0.042766  -0.011317   0.008713  -0.001155   0.020444  -0.002042
     2  C    0.410442   0.007325  -0.040082   0.007323   0.001405   0.000084
     3  C    0.013742   0.398486   0.000635   0.009945  -0.079578   0.027371
     4  C   -0.042780  -0.001157   0.407576  -0.011310   0.020361   0.005608
     5  C   -0.003344  -0.050004   0.011511  -0.050017   0.119365  -0.079318
     6  C    0.013761   0.009953  -0.037208   0.398503  -0.079393  -0.018538
     7  H    0.481101  -0.000078  -0.004786  -0.000078  -0.000150  -0.000001
     8  H   -0.000078   0.476872   0.000012  -0.000059  -0.013499   0.000462
     9  H   -0.004786   0.000012   0.487526  -0.003866  -0.001195   0.000048
    10  H   -0.000078  -0.000059  -0.003866   0.476867  -0.013499  -0.000031
    11  C   -0.000150  -0.013499  -0.001195  -0.013499   5.435252   0.360490
    12  C   -0.000001   0.000462   0.000048  -0.000031   0.360490   5.260531
    13  C   -0.000001  -0.000004  -0.000008   0.000470   0.359471  -0.135112
    14  C    0.000000  -0.000058  -0.000008   0.000542  -0.010820   0.374106
    15  C    0.000000   0.000537   0.000000  -0.000060  -0.010356  -0.050468
    16  C   -0.000000   0.000069   0.000000   0.000069  -0.044228  -0.033529
    17  H   -0.000001   0.000002  -0.000004  -0.000627  -0.049999   0.398473
    18  H   -0.000001  -0.000626  -0.000001   0.000002  -0.050018   0.009939
    19  H   -0.000000  -0.000001  -0.000000  -0.000004   0.011492  -0.037150
    20  H   -0.000000  -0.000004   0.000000  -0.000001   0.011512   0.000634
    21  H   -0.000000  -0.000001  -0.000000  -0.000001  -0.003344   0.013744
    22  H   -0.004784  -0.003866  -0.000099   0.000012  -0.001191  -0.000007
              13         14         15         16         17         18
     1  C    0.005541   0.000287  -0.000786   0.000003  -0.000058   0.000544
     2  C    0.000120   0.000003   0.000001  -0.000003   0.000069   0.000069
     3  C   -0.018501  -0.002055   0.005593   0.000090   0.000462  -0.000036
     4  C   -0.002115  -0.000786   0.000292   0.000001   0.000537  -0.000060
     5  C   -0.079677   0.020390   0.020428   0.001399  -0.013507  -0.013487
     6  C    0.027666   0.005554  -0.002107   0.000115  -0.000004   0.000471
     7  H   -0.000001   0.000000   0.000000  -0.000000  -0.000001  -0.000001
     8  H   -0.000004  -0.000058   0.000537   0.000069   0.000002  -0.000626
     9  H   -0.000008  -0.000008   0.000000   0.000000  -0.000004  -0.000001
    10  H    0.000470   0.000542  -0.000060   0.000069  -0.000627   0.000002
    11  C    0.359471  -0.010820  -0.010356  -0.044228  -0.049999  -0.050018
    12  C   -0.135112   0.374106  -0.050468  -0.033529   0.398473   0.009939
    13  C    5.262514  -0.050688   0.372918  -0.032972   0.009956   0.398516
    14  C   -0.050688   4.967582  -0.035402   0.455899  -0.011305  -0.001153
    15  C    0.372918  -0.035402   4.968306   0.455634  -0.001159  -0.011324
    16  C   -0.032972   0.455899   0.455634   4.904394   0.007325   0.007322
    17  H    0.009956  -0.011305  -0.001159   0.007325   0.476872  -0.000060
    18  H    0.398516  -0.001153  -0.011324   0.007322  -0.000060   0.476863
    19  H    0.000632   0.407525   0.008707  -0.040058  -0.003865   0.000012
    20  H   -0.037215   0.008713   0.407579  -0.040079   0.000012  -0.003867
    21  H    0.013759  -0.042764  -0.042781   0.410442  -0.000078  -0.000078
    22  H    0.000047   0.000000  -0.000008   0.000000  -0.000001  -0.000004
              19         20         21         22
     1  C    0.000000  -0.000008   0.000000   0.407525
     2  C    0.000000   0.000000  -0.000000  -0.040057
     3  C   -0.000008   0.000048  -0.000001  -0.037149
     4  C   -0.000008   0.000000   0.000000   0.008708
     5  C   -0.001193  -0.001193  -0.000150   0.011493
     6  C    0.000047  -0.000008  -0.000001   0.000629
     7  H   -0.000000  -0.000000  -0.000000  -0.004784
     8  H   -0.000001  -0.000004  -0.000001  -0.003866
     9  H   -0.000000   0.000000  -0.000000  -0.000099
    10  H   -0.000004  -0.000001  -0.000001   0.000012
    11  C    0.011492   0.011512  -0.003344  -0.001191
    12  C   -0.037150   0.000634   0.013744  -0.000007
    13  C    0.000632  -0.037215   0.013759   0.000047
    14  C    0.407525   0.008713  -0.042764   0.000000
    15  C    0.008707   0.407579  -0.042781  -0.000008
    16  C   -0.040058  -0.040079   0.410442   0.000000
    17  H   -0.003865   0.000012  -0.000078  -0.000001
    18  H    0.000012  -0.003867  -0.000078  -0.000004
    19  H    0.487514  -0.000100  -0.004784   0.000000
    20  H   -0.000100   0.487526  -0.004786  -0.000000
    21  H   -0.004784  -0.004786   0.481101  -0.000000
    22  H    0.000000  -0.000000  -0.000000   0.487511
          Atomic-Atomic Spin Densities.
               1          2          3          4          5          6
     1  C   -0.091861   0.012654   0.027405   0.003489  -0.016309  -0.019177
     2  C    0.012654   0.285759  -0.002799   0.012717  -0.013806  -0.002943
     3  C    0.027405  -0.002799   0.045311  -0.019246   0.051149   0.035580
     4  C    0.003489   0.012717  -0.019246  -0.092097  -0.016446   0.027698
     5  C   -0.016309  -0.013806   0.051149  -0.016446   0.204082   0.051436
     6  C   -0.019177  -0.002943   0.035580   0.027698   0.051436   0.044965
     7  H    0.000499   0.002262  -0.000704   0.000501   0.000107  -0.000708
     8  H    0.000774   0.000022  -0.000602  -0.000275   0.002694   0.000388
     9  H    0.000460  -0.000199  -0.000545  -0.000676   0.000187   0.001556
    10  H   -0.000275   0.000021   0.000389   0.000781   0.002704  -0.000611
    11  C    0.004306  -0.000297  -0.012021   0.004346  -0.111113  -0.012088
    12  C    0.000639   0.000043  -0.001907  -0.000935  -0.012109   0.002942
    13  C   -0.000933   0.000037   0.002943   0.000657  -0.011999  -0.001972
    14  C   -0.000233   0.000001   0.000641   0.000514   0.004340  -0.000933
    15  C    0.000514   0.000002  -0.000935  -0.000236   0.004312   0.000655
    16  C    0.000001   0.000000   0.000042   0.000002  -0.000297   0.000038
    17  H    0.000039   0.000003  -0.000123  -0.000210  -0.001919  -0.000141
    18  H   -0.000212   0.000003  -0.000134   0.000040  -0.001922  -0.000127
    19  H   -0.000001   0.000000   0.000002   0.000003   0.000020  -0.000005
    20  H    0.000003   0.000000  -0.000005  -0.000001   0.000020   0.000002
    21  H    0.000000  -0.000000   0.000000   0.000000   0.000010   0.000000
    22  H   -0.000657  -0.000205   0.001534   0.000461   0.000193  -0.000544
               7          8          9         10         11         12
     1  C    0.000499   0.000774   0.000460  -0.000275   0.004306   0.000639
     2  C    0.002262   0.000022  -0.000199   0.000021  -0.000297   0.000043
     3  C   -0.000704  -0.000602  -0.000545   0.000389  -0.012021  -0.001907
     4  C    0.000501  -0.000275  -0.000676   0.000781   0.004346  -0.000935
     5  C    0.000107   0.002694   0.000187   0.002704  -0.111113  -0.012109
     6  C   -0.000708   0.000388   0.001556  -0.000611  -0.012088   0.002942
     7  H   -0.015765   0.000006   0.000081   0.000006   0.000010   0.000000
     8  H    0.000006  -0.008089  -0.000004   0.000017  -0.001918  -0.000123
     9  H    0.000081  -0.000004   0.001767   0.000131   0.000021  -0.000005
    10  H    0.000006   0.000017   0.000131  -0.008090  -0.001923  -0.000136
    11  C    0.000010  -0.001918   0.000021  -0.001923   0.204079   0.051109
    12  C    0.000000  -0.000123  -0.000005  -0.000136   0.051109   0.045540
    13  C    0.000000  -0.000139   0.000002  -0.000126   0.051471   0.035584
    14  C    0.000000   0.000039   0.000003  -0.000211  -0.016276   0.027318
    15  C    0.000000  -0.000211  -0.000001   0.000040  -0.016477  -0.019239
    16  C   -0.000000   0.000003   0.000000   0.000003  -0.013807  -0.002779
    17  H    0.000000  -0.000002  -0.000003  -0.000085   0.002689  -0.000590
    18  H    0.000000  -0.000085   0.000000  -0.000002   0.002709   0.000391
    19  H    0.000000   0.000000   0.000000  -0.000003   0.000193   0.001535
    20  H    0.000000  -0.000003  -0.000000   0.000000   0.000187  -0.000545
    21  H    0.000000   0.000000   0.000000   0.000000   0.000107  -0.000703
    22  H    0.000081   0.000131   0.000009  -0.000004   0.000020   0.000002
              13         14         15         16         17         18
     1  C   -0.000933  -0.000233   0.000514   0.000001   0.000039  -0.000212
     2  C    0.000037   0.000001   0.000002   0.000000   0.000003   0.000003
     3  C    0.002943   0.000641  -0.000935   0.000042  -0.000123  -0.000134
     4  C    0.000657   0.000514  -0.000236   0.000002  -0.000210   0.000040
     5  C   -0.011999   0.004340   0.004312  -0.000297  -0.001919  -0.001922
     6  C   -0.001972  -0.000933   0.000655   0.000038  -0.000141  -0.000127
     7  H    0.000000   0.000000   0.000000  -0.000000   0.000000   0.000000
     8  H   -0.000139   0.000039  -0.000211   0.000003  -0.000002  -0.000085
     9  H    0.000002   0.000003  -0.000001   0.000000  -0.000003   0.000000
    10  H   -0.000126  -0.000211   0.000040   0.000003  -0.000085  -0.000002
    11  C    0.051471  -0.016276  -0.016477  -0.013807   0.002689   0.002709
    12  C    0.035584   0.027318  -0.019239  -0.002779  -0.000590   0.000391
    13  C    0.044730  -0.019191   0.027794  -0.002960   0.000386  -0.000626
    14  C   -0.019191  -0.091830   0.003492   0.012630   0.000768  -0.000276
    15  C    0.027794   0.003492  -0.092133   0.012737  -0.000274   0.000789
    16  C   -0.002960   0.012630   0.012737   0.285761   0.000022   0.000021
    17  H    0.000386   0.000768  -0.000274   0.000022  -0.008090   0.000017
    18  H   -0.000626  -0.000276   0.000789   0.000021   0.000017  -0.008089
    19  H   -0.000545  -0.000657   0.000461  -0.000205   0.000131  -0.000004
    20  H    0.001557   0.000460  -0.000676  -0.000199  -0.000004   0.000132
    21  H   -0.000709   0.000498   0.000501   0.002263   0.000006   0.000006
    22  H   -0.000005  -0.000001   0.000003   0.000000   0.000000  -0.000003
              19         20         21         22
     1  C   -0.000001   0.000003   0.000000  -0.000657
     2  C    0.000000   0.000000  -0.000000  -0.000205
     3  C    0.000002  -0.000005   0.000000   0.001534
     4  C    0.000003  -0.000001   0.000000   0.000461
     5  C    0.000020   0.000020   0.000010   0.000193
     6  C   -0.000005   0.000002   0.000000  -0.000544
     7  H    0.000000   0.000000   0.000000   0.000081
     8  H    0.000000  -0.000003   0.000000   0.000131
     9  H    0.000000  -0.000000   0.000000   0.000009
    10  H   -0.000003   0.000000   0.000000  -0.000004
    11  C    0.000193   0.000187   0.000107   0.000020
    12  C    0.001535  -0.000545  -0.000703   0.000002
    13  C   -0.000545   0.001557  -0.000709  -0.000005
    14  C   -0.000657   0.000460   0.000498  -0.000001
    15  C    0.000461  -0.000676   0.000501   0.000003
    16  C   -0.000205  -0.000199   0.002263   0.000000
    17  H    0.000131  -0.000004   0.000006   0.000000
    18  H   -0.000004   0.000132   0.000006  -0.000003
    19  H    0.001772   0.000009   0.000081  -0.000000
    20  H    0.000009   0.001767   0.000081   0.000000
    21  H    0.000081   0.000081  -0.015764   0.000000
    22  H   -0.000000   0.000000   0.000000   0.001773
 Mulliken charges and spin densities:
               1          2
     1  C   -0.085536  -0.078873
     2  C   -0.051904   0.293276
     3  C   -0.095301   0.125974
     4  C   -0.085559  -0.078912
     5  C    0.017499   0.135335
     6  C   -0.095331   0.126011
     7  H    0.179723  -0.013625
     8  H    0.186957  -0.007377
     9  H    0.171237   0.002784
    10  H    0.186975  -0.007377
    11  C    0.017477   0.135326
    12  C   -0.095294   0.126031
    13  C   -0.095318   0.125957
    14  C   -0.085562  -0.078905
    15  C   -0.085548  -0.078882
    16  C   -0.051895   0.293276
    17  H    0.186960  -0.007381
    18  H    0.186976  -0.007374
    19  H    0.171240   0.002787
    20  H    0.171237   0.002785
    21  H    0.179723  -0.013624
    22  H    0.171243   0.002788
 Sum of Mulliken charges =   1.00000   1.00000
 Mulliken charges and spin densities with hydrogens summed into heavy atoms:
               1          2
     1  C    0.085707  -0.076085
     2  C    0.127819   0.279652
     3  C    0.091656   0.118597
     4  C    0.085678  -0.076127
     5  C    0.017499   0.135335
     6  C    0.091644   0.118634
    11  C    0.017477   0.135326
    12  C    0.091666   0.118650
    13  C    0.091659   0.118583
    14  C    0.085678  -0.076118
    15  C    0.085689  -0.076098
    16  C    0.127829   0.279652
 Electronic spatial extent (au):  <R**2>=           2269.1372
 Charge=              1.0000 electrons
 Dipole moment (field-independent basis, Debye):
    X=             -0.0000    Y=              0.0001    Z=              0.0003  Tot=              0.0003
 Quadrupole moment (field-independent basis, Debye-Ang):
   XX=            -18.5094   YY=            -52.3948   ZZ=            -69.4023
   XY=              0.0007   XZ=              0.0005   YZ=             -0.0002
 Traceless Quadrupole moment (field-independent basis, Debye-Ang):
   XX=             28.2595   YY=             -5.6260   ZZ=            -22.6335
   XY=              0.0007   XZ=              0.0005   YZ=             -0.0002
 Octapole moment (field-independent basis, Debye-Ang**2):
  XXX=              0.0001  YYY=              0.0013  ZZZ=              0.0003  XYY=             -0.0005
  XXY=              0.0014  XXZ=              0.0107  XZZ=              0.0002  YZZ=             -0.0010
  YYZ=              0.0003  XYZ=            -16.9697
 Hexadecapole moment (field-independent basis, Debye-Ang**3):
 XXXX=          -1615.3140 YYYY=           -438.9159 ZZZZ=           -141.5196 XXXY=             -0.0034
 XXXZ=              0.0062 YYYX=              0.0092 YYYZ=             -0.0007 ZZZX=              0.0015
 ZZZY=             -0.0007 XXYY=           -397.0329 XXZZ=           -450.1423 YYZZ=           -100.2093
 XXYZ=             -0.0003 YYXZ=              0.0023 ZZXY=             -0.0022
 N-N= 5.984723472889D+02 E-N=-2.256688568321D+03  KE= 4.603302630027D+02
                          Isotropic Fermi Contact Couplings
        Atom                 a.u.       MegaHertz       Gauss      10(-4) cm-1
     1  C(13)             -0.00895     -10.06177      -3.59029      -3.35624
     2  C(13)              0.00647       7.27529       2.59601       2.42678
     3  C(13)              0.00205       2.30223       0.82149       0.76794
     4  C(13)             -0.00895     -10.06313      -3.59077      -3.35670
     5  C(13)             -0.00631      -7.09325      -2.53105      -2.36605
     6  C(13)              0.00206       2.31093       0.82460       0.77084
     7  H(1)              -0.00382     -17.08282      -6.09557      -5.69821
     8  H(1)              -0.00189      -8.46592      -3.02085      -2.82393
     9  H(1)               0.00068       3.04297       1.08581       1.01503
    10  H(1)              -0.00189      -8.46638      -3.02102      -2.82408
    11  C(13)             -0.00631      -7.09379      -2.53124      -2.36623
    12  C(13)              0.00205       2.30522       0.82256       0.76894
    13  C(13)              0.00205       2.30937       0.82404       0.77032
    14  C(13)             -0.00895     -10.06409      -3.59112      -3.35702
    15  C(13)             -0.00895     -10.06277      -3.59065      -3.35658
    16  C(13)              0.00647       7.27540       2.59604       2.42681
    17  H(1)              -0.00189      -8.46867      -3.02183      -2.82484
    18  H(1)              -0.00189      -8.46398      -3.02016      -2.82328
    19  H(1)               0.00068       3.04347       1.08599       1.01519
    20  H(1)               0.00068       3.04346       1.08598       1.01519
    21  H(1)              -0.00382     -17.08276      -6.09555      -5.69820
    22  H(1)               0.00068       3.04344       1.08598       1.01518
 --------------------------------------------------------
       Center         ----  Spin Dipole Couplings  ----
                      3XX-RR        3YY-RR        3ZZ-RR
 --------------------------------------------------------
     1   Atom        0.028295      0.018061     -0.046355
     2   Atom       -0.144566     -0.102805      0.247370
     3   Atom       -0.069929     -0.028688      0.098617
     4   Atom        0.028312      0.018070     -0.046382
     5   Atom       -0.091755     -0.086350      0.178105
     6   Atom       -0.069932     -0.028692      0.098624
     7   Atom        0.020811     -0.016584     -0.004227
     8   Atom       -0.006360      0.010455     -0.004095
     9   Atom        0.000053      0.002513     -0.002566
    10   Atom       -0.006355      0.010452     -0.004097
    11   Atom       -0.091752     -0.086348      0.178100
    12   Atom       -0.069961     -0.028718      0.098679
    13   Atom       -0.069906     -0.028642      0.098548
    14   Atom        0.028306      0.018070     -0.046376
    15   Atom        0.028299      0.018064     -0.046364
    16   Atom       -0.144564     -0.102822      0.247387
    17   Atom       -0.006358      0.010454     -0.004096
    18   Atom       -0.006356      0.010451     -0.004095
    19   Atom        0.000054      0.002512     -0.002566
    20   Atom        0.000051      0.002514     -0.002565
    21   Atom        0.020811     -0.016584     -0.004226
    22   Atom        0.000052      0.002513     -0.002565
 --------------------------------------------------------
                        XY            XZ            YZ
 --------------------------------------------------------
     1   Atom        0.002031     -0.010390      0.022114
     2   Atom       -0.000021      0.000058     -0.142660
     3   Atom        0.014206     -0.025477     -0.081074
     4   Atom       -0.002027      0.010375      0.022126
     5   Atom       -0.000001      0.000017     -0.054606
     6   Atom       -0.014200      0.025471     -0.081073
     7   Atom       -0.000004     -0.000004     -0.005331
     8   Atom       -0.004595     -0.000928      0.003805
     9   Atom        0.001140      0.000571      0.002858
    10   Atom        0.004600      0.000927      0.003802
    11   Atom        0.000003     -0.000000      0.054605
    12   Atom        0.014187      0.025449      0.081087
    13   Atom       -0.014213     -0.025478      0.081078
    14   Atom        0.002029      0.010387     -0.022123
    15   Atom       -0.002029     -0.010376     -0.022113
    16   Atom       -0.000020     -0.000060      0.142637
    17   Atom       -0.004600      0.000927     -0.003804
    18   Atom        0.004595     -0.000928     -0.003805
    19   Atom       -0.001140      0.000571     -0.002858
    20   Atom        0.001139     -0.000570     -0.002859
    21   Atom        0.000000      0.000002      0.005330
    22   Atom       -0.001139     -0.000570      0.002860
 --------------------------------------------------------


 ---------------------------------------------------------------------------------
              Anisotropic Spin Dipole Couplings in Principal Axis System
 ---------------------------------------------------------------------------------

       Atom             a.u.   MegaHertz   Gauss  10(-4) cm-1        Axes

              Baa    -0.0546    -7.321    -2.612    -2.442  0.1261 -0.2922  0.9480
     1 C(13)  Bbb     0.0247     3.310     1.181     1.104  0.2199  0.9401  0.2606
              Bcc     0.0299     4.011     1.431     1.338  0.9674 -0.1756 -0.1828
 
              Baa    -0.1536   -20.607    -7.353    -6.874  0.0001  0.9421  0.3352
     2 C(13)  Bbb    -0.1446   -19.399    -6.922    -6.471  1.0000 -0.0000 -0.0002
              Bcc     0.2981    40.006    14.275    13.345  0.0001 -0.3352  0.9421
 
              Baa    -0.0744    -9.977    -3.560    -3.328  0.9589 -0.2835  0.0084
     3 C(13)  Bbb    -0.0677    -9.084    -3.241    -3.030  0.2488  0.8551  0.4549
              Bcc     0.1420    19.061     6.801     6.358 -0.1361 -0.4342  0.8905
 
              Baa    -0.0546    -7.324    -2.613    -2.443 -0.1258 -0.2922  0.9480
     4 C(13)  Bbb     0.0247     3.312     1.182     1.105 -0.2197  0.9401  0.2606
              Bcc     0.0299     4.012     1.432     1.338  0.9674  0.1755  0.1825
 
              Baa    -0.0972   -13.041    -4.653    -4.350 -0.0005  0.9809  0.1946
     5 C(13)  Bbb    -0.0918   -12.313    -4.393    -4.107  1.0000  0.0005  0.0000
              Bcc     0.1889    25.353     9.047     8.457  0.0001 -0.1946  0.9809
 
              Baa    -0.0743    -9.977    -3.560    -3.328  0.9590  0.2832 -0.0085
     6 C(13)  Bbb    -0.0677    -9.084    -3.241    -3.030 -0.2485  0.8552  0.4549
              Bcc     0.1420    19.061     6.801     6.358  0.1361 -0.4342  0.8905
 
              Baa    -0.0186    -9.906    -3.535    -3.304  0.0001  0.9373  0.3485
     7 H(1)   Bbb    -0.0022    -1.198    -0.427    -0.400  0.0001 -0.3485  0.9373
              Bcc     0.0208    11.104     3.962     3.704  1.0000 -0.0001 -0.0001
 
              Baa    -0.0075    -4.020    -1.434    -1.341  0.9679  0.2507 -0.0162
     8 H(1)   Bbb    -0.0050    -2.676    -0.955    -0.893  0.0727 -0.2178  0.9733
              Bcc     0.0126     6.696     2.389     2.234 -0.2405  0.9433  0.2290
 
              Baa    -0.0039    -2.054    -0.733    -0.685 -0.0145 -0.4074  0.9131
     9 H(1)   Bbb    -0.0003    -0.181    -0.064    -0.060  0.9556 -0.2746 -0.1073
              Bcc     0.0042     2.235     0.798     0.746  0.2944  0.8710  0.3933
 
              Baa    -0.0075    -4.019    -1.434    -1.341  0.9678 -0.2511  0.0167
    10 H(1)   Bbb    -0.0050    -2.676    -0.955    -0.893 -0.0733 -0.2175  0.9733
              Bcc     0.0125     6.695     2.389     2.233  0.2407  0.9432  0.2289
 
              Baa    -0.0972   -13.041    -4.653    -4.350 -0.0005  0.9809 -0.1946
    11 C(13)  Bbb    -0.0918   -12.312    -4.393    -4.107  1.0000  0.0005 -0.0001
              Bcc     0.1889    25.353     9.046     8.457  0.0000  0.1946  0.9809
 
              Baa    -0.0744    -9.980    -3.561    -3.329  0.9590 -0.2833 -0.0083
    12 C(13)  Bbb    -0.0677    -9.087    -3.242    -3.031  0.2487  0.8552 -0.4548
              Bcc     0.1421    19.067     6.803     6.360  0.1359  0.4341  0.8906
 
              Baa    -0.0743    -9.974    -3.559    -3.327  0.9590  0.2834  0.0084
    13 C(13)  Bbb    -0.0677    -9.081    -3.240    -3.029 -0.2486  0.8550 -0.4552
              Bcc     0.1420    19.055     6.799     6.356 -0.1362  0.4344  0.8904
 
              Baa    -0.0546    -7.324    -2.613    -2.443 -0.1260  0.2922  0.9480
    14 C(13)  Bbb     0.0247     3.311     1.182     1.105  0.2201  0.9400 -0.2605
              Bcc     0.0299     4.012     1.432     1.338  0.9673 -0.1758  0.1827
 
              Baa    -0.0546    -7.321    -2.612    -2.442  0.1259  0.2922  0.9480
    15 C(13)  Bbb     0.0247     3.310     1.181     1.104 -0.2194  0.9402 -0.2606
              Bcc     0.0299     4.011     1.431     1.338  0.9675  0.1752 -0.1825
 
              Baa    -0.1536   -20.607    -7.353    -6.874 -0.0001  0.9422 -0.3352
    16 C(13)  Bbb    -0.1446   -19.399    -6.922    -6.471  1.0000  0.0001  0.0001
              Bcc     0.2981    40.006    14.275    13.345 -0.0001  0.3352  0.9422
 
              Baa    -0.0075    -4.021    -1.435    -1.341  0.9678  0.2510  0.0167
    17 H(1)   Bbb    -0.0050    -2.676    -0.955    -0.893 -0.0732  0.2176  0.9733
              Bcc     0.0126     6.697     2.390     2.234 -0.2407  0.9432 -0.2289
 
              Baa    -0.0075    -4.018    -1.434    -1.340  0.9679 -0.2508 -0.0163
    18 H(1)   Bbb    -0.0050    -2.676    -0.955    -0.893  0.0728  0.2178  0.9733
              Bcc     0.0125     6.694     2.389     2.233  0.2405  0.9432 -0.2291
 
              Baa    -0.0039    -2.055    -0.733    -0.685 -0.0145  0.4075  0.9131
    19 H(1)   Bbb    -0.0003    -0.180    -0.064    -0.060  0.9556  0.2745 -0.1073
              Bcc     0.0042     2.235     0.797     0.745 -0.2944  0.8709 -0.3934
 
              Baa    -0.0039    -2.054    -0.733    -0.685  0.0144  0.4076  0.9131
    20 H(1)   Bbb    -0.0003    -0.181    -0.065    -0.060  0.9557 -0.2741  0.1073
              Bcc     0.0042     2.235     0.798     0.746  0.2940  0.8711 -0.3935
 
              Baa    -0.0186    -9.906    -3.535    -3.304  0.0000  0.9373 -0.3484
    21 H(1)   Bbb    -0.0022    -1.198    -0.427    -0.400 -0.0001  0.3484  0.9373
              Bcc     0.0208    11.104     3.962     3.704  1.0000  0.0000  0.0001
 
              Baa    -0.0039    -2.055    -0.733    -0.685  0.0144 -0.4077  0.9130
    22 H(1)   Bbb    -0.0003    -0.181    -0.064    -0.060  0.9557  0.2740  0.1073
              Bcc     0.0042     2.235     0.798     0.746 -0.2939  0.8710  0.3936
 

 ---------------------------------------------------------------------------------

 No NMR shielding tensors so no spin-rotation constants.
 Leave Link  601 at Sun Jan 17 10:00:58 2021, MaxMem=  4026531840 cpu:               2.5 elap:               0.4
 (Enter /opt/ohpc/pub/libs/gaussian/g16-A.03/sandybridge/g16/l9999.exe)

 Test job not archived.
 1\1\GINC-CASCADEB028\SP\ULC-wHPBE\TZVP\C12H10(1+,2)\RDU230\17-Jan-2021
 \0\\#P LC-wHPBE/TZVP iop(3/107=0230600000, 3/108=0230600000) scf=(conv
 er=6,fermi,ndamp=35,noincfock,novaracc,vshift=500,xqc)\\H10 C12\\1,2\C
 ,0,-2.8585,1.132993,0.41369\C,0,-3.561927,-0.000084,-0.000146\C,0,-1.4
 63685,1.132747,0.413534\C,0,-2.858269,-1.133176,-0.413741\C,0,-0.74238
 1,0.000123,0.000091\C,0,-1.463491,-1.132675,-0.413489\H,0,-4.653174,-0
 .00016,-0.000261\H,0,-0.922222,2.014213,0.762301\H,0,-3.398792,-2.0209
 86,-0.747134\H,0,-0.921754,-2.014027,-0.762095\C,0,0.742385,0.000142,0
 .000197\C,0,1.463539,-1.132637,0.413582\C,0,1.463636,1.132765,-0.41347
 7\C,0,2.858357,-1.133114,0.41366\C,0,2.858412,1.133073,-0.413706\C,0,3
 .561931,-0.000095,-0.000087\H,0,0.921935,-2.014039,0.762261\H,0,0.9220
 17,2.014128,-0.762265\H,0,3.398826,-2.021,0.746938\H,0,3.399026,2.0208
 05,-0.747168\H,0,4.653184,-0.000117,-0.000198\H,0,-3.399078,2.020813,0
 .746974\\Version=EM64L-G16RevA.03\State=2-A\HF=-462.7155935\S2=0.77689
 1\S2-1=0.\S2A=0.750511\RMSD=6.001e-07\Dipole=-0.0000184,-0.0000286,-0.
 0001103\Quadrupole=21.0102202,-4.1827579,-16.8274623,-0.0005244,-0.000
 3545,-0.0001438\PG=C01 [X(C12H10)]\\@


 IF AT FIRST YOU DON'T SUCCEED, TRY, TRY AGAIN.
 THEN GIVE UP;
 THERE'S NO USE BEING A DAMN FOOL ABOUT IT.

                                 -- W. C. FIELDS
 Job cpu time:       0 days  0 hours 19 minutes 22.1 seconds.
 Elapsed time:       0 days  0 hours  2 minutes 26.0 seconds.
 File lengths (MBytes):  RWF=    100 Int=      0 D2E=      0 Chk=     12 Scr=      8
 Normal termination of Gaussian 16 at Sun Jan 17 10:00:58 2021.
