 Entering Gaussian System, Link 0=g16
 Input=mol_bp_NN_frag_tune_n4.gjf
 Output=mol_bp_NN_frag_tune_n4.log
 Initial command:
 /opt/ohpc/pub/libs/gaussian/g16-A.03/sandybridge/g16/l1.exe "/mnt/gpfs2_4m/scratch/rdu230/ondemand/projects/init_structures/wtuning/mol_bp_NN_frag/tuning_mol_bp_NN_frag_ocycle0/Gau-299247.inp" -scrdir="/mnt/gpfs2_4m/scratch/rdu230/ondemand/projects/init_structures/wtuning/mol_bp_NN_frag/tuning_mol_bp_NN_frag_ocycle0/"
 Entering Link 1 = /opt/ohpc/pub/libs/gaussian/g16-A.03/sandybridge/g16/l1.exe PID=    299248.
  
 Copyright (c) 1988,1990,1992,1993,1995,1998,2003,2009,2016,
            Gaussian, Inc.  All Rights Reserved.
  
 This is part of the Gaussian(R) 16 program.  It is based on
 the Gaussian(R) 09 system (copyright 2009, Gaussian, Inc.),
 the Gaussian(R) 03 system (copyright 2003, Gaussian, Inc.),
 the Gaussian(R) 98 system (copyright 1998, Gaussian, Inc.),
 the Gaussian(R) 94 system (copyright 1995, Gaussian, Inc.),
 the Gaussian 92(TM) system (copyright 1992, Gaussian, Inc.),
 the Gaussian 90(TM) system (copyright 1990, Gaussian, Inc.),
 the Gaussian 88(TM) system (copyright 1988, Gaussian, Inc.),
 the Gaussian 86(TM) system (copyright 1986, Carnegie Mellon
 University), and the Gaussian 82(TM) system (copyright 1983,
 Carnegie Mellon University). Gaussian is a federally registered
 trademark of Gaussian, Inc.
  
 This software contains proprietary and confidential information,
 including trade secrets, belonging to Gaussian, Inc.
  
 This software is provided under written license and may be
 used, copied, transmitted, or stored only in accord with that
 written license.
  
 The following legend is applicable only to US Government
 contracts under FAR:
  
                    RESTRICTED RIGHTS LEGEND
  
 Use, reproduction and disclosure by the US Government is
 subject to restrictions as set forth in subparagraphs (a)
 and (c) of the Commercial Computer Software - Restricted
 Rights clause in FAR 52.227-19.
  
 Gaussian, Inc.
 340 Quinnipiac St., Bldg. 40, Wallingford CT 06492
  
  
 ---------------------------------------------------------------
 Warning -- This program may not be used in any manner that
 competes with the business of Gaussian, Inc. or will provide
 assistance to any competitor of Gaussian, Inc.  The licensee
 of this program is prohibited from giving any competitor of
 Gaussian, Inc. access to this program.  By using this program,
 the user acknowledges that Gaussian, Inc. is engaged in the
 business of creating and licensing software in the field of
 computational chemistry and represents and warrants to the
 licensee that it is not a competitor of Gaussian, Inc. and that
 it will not use this program in any manner prohibited above.
 ---------------------------------------------------------------
  

 Cite this work as:
 Gaussian 16, Revision A.03,
 M. J. Frisch, G. W. Trucks, H. B. Schlegel, G. E. Scuseria, 
 M. A. Robb, J. R. Cheeseman, G. Scalmani, V. Barone, 
 G. A. Petersson, H. Nakatsuji, X. Li, M. Caricato, A. V. Marenich, 
 J. Bloino, B. G. Janesko, R. Gomperts, B. Mennucci, H. P. Hratchian, 
 J. V. Ortiz, A. F. Izmaylov, J. L. Sonnenberg, D. Williams-Young, 
 F. Ding, F. Lipparini, F. Egidi, J. Goings, B. Peng, A. Petrone, 
 T. Henderson, D. Ranasinghe, V. G. Zakrzewski, J. Gao, N. Rega, 
 G. Zheng, W. Liang, M. Hada, M. Ehara, K. Toyota, R. Fukuda, 
 J. Hasegawa, M. Ishida, T. Nakajima, Y. Honda, O. Kitao, H. Nakai, 
 T. Vreven, K. Throssell, J. A. Montgomery, Jr., J. E. Peralta, 
 F. Ogliaro, M. J. Bearpark, J. J. Heyd, E. N. Brothers, K. N. Kudin, 
 V. N. Staroverov, T. A. Keith, R. Kobayashi, J. Normand, 
 K. Raghavachari, A. P. Rendell, J. C. Burant, S. S. Iyengar, 
 J. Tomasi, M. Cossi, J. M. Millam, M. Klene, C. Adamo, R. Cammi, 
 J. W. Ochterski, R. L. Martin, K. Morokuma, O. Farkas, 
 J. B. Foresman, and D. J. Fox, Gaussian, Inc., Wallingford CT, 2016.
 
 ******************************************
 Gaussian 16:  EM64L-G16RevA.03 25-Dec-2016
                17-Jan-2021 
 ******************************************
 %mem=30GB
 %nproc=8
 Will use up to    8 processors via shared memory.
 ----------------------------------------------------------------------
 #P LC-wHPBE/TZVP iop(3/107=0237800000, 3/108=0237800000) scf=(conver=6
 ,fermi,ndamp=35,noincfock,novaracc,vshift=500,xqc)
 ----------------------------------------------------------------------
 1/38=1,172=1/1;
 2/12=2,17=6,18=5,40=1/2;
 3/5=19,7=101,11=2,25=1,30=1,74=-71,107=237800000,108=237800000/1,2,3;
 4//1;
 5/5=100002,6=6,8=3,10=500,13=1,18=-1,22=13,38=1,93=35/2,8;
 6/7=2,8=2,9=2,10=2,28=1/1;
 99/5=1,9=1/99;
 Leave Link    1 at Sun Jan 17 09:50:05 2021, MaxMem=  4026531840 cpu:               1.7 elap:               0.2
 (Enter /opt/ohpc/pub/libs/gaussian/g16-A.03/sandybridge/g16/l101.exe)
 -------
 H10 C12
 -------
 Symbolic Z-matrix:
 Charge =  0 Multiplicity = 1
 C                    -2.8585    1.13299   0.41369 
 C                    -3.56193  -0.00008  -0.00015 
 C                    -1.46369   1.13275   0.41353 
 C                    -2.85827  -1.13318  -0.41374 
 C                    -0.74238   0.00012   0.00009 
 C                    -1.46349  -1.13268  -0.41349 
 H                    -4.65317  -0.00016  -0.00026 
 H                    -0.92222   2.01421   0.7623 
 H                    -3.39879  -2.02099  -0.74713 
 H                    -0.92175  -2.01403  -0.7621 
 C                     0.74239   0.00014   0.0002 
 C                     1.46354  -1.13264   0.41358 
 C                     1.46364   1.13277  -0.41348 
 C                     2.85836  -1.13311   0.41366 
 C                     2.85841   1.13307  -0.41371 
 C                     3.56193  -0.0001   -0.00009 
 H                     0.92194  -2.01404   0.76226 
 H                     0.92202   2.01413  -0.76227 
 H                     3.39883  -2.021     0.74694 
 H                     3.39903   2.02081  -0.74717 
 H                     4.65318  -0.00012  -0.0002 
 H                    -3.39908   2.02081   0.74697 
 
 ITRead=  0  0  0  0  0  0  0  0  0  0  0  0  0  0  0  0  0  0  0  0
 ITRead=  0  0
 MicOpt= -1 -1 -1 -1 -1 -1 -1 -1 -1 -1 -1 -1 -1 -1 -1 -1 -1 -1 -1 -1
 MicOpt= -1 -1
 NAtoms=     22 NQM=       22 NQMF=       0 NMMI=      0 NMMIF=      0
                NMic=       0 NMicF=      0.
                    Isotopes and Nuclear Properties:
 (Nuclear quadrupole moments (NQMom) in fm**2, nuclear magnetic moments (NMagM)
  in nuclear magnetons)

  Atom         1           2           3           4           5           6           7           8           9          10
 IAtWgt=          12          12          12          12          12          12           1           1           1           1
 AtmWgt=  12.0000000  12.0000000  12.0000000  12.0000000  12.0000000  12.0000000   1.0078250   1.0078250   1.0078250   1.0078250
 NucSpn=           0           0           0           0           0           0           1           1           1           1
 AtZEff=  -0.0000000  -0.0000000  -0.0000000  -0.0000000  -0.0000000  -0.0000000  -0.0000000  -0.0000000  -0.0000000  -0.0000000
 NQMom=    0.0000000   0.0000000   0.0000000   0.0000000   0.0000000   0.0000000   0.0000000   0.0000000   0.0000000   0.0000000
 NMagM=    0.0000000   0.0000000   0.0000000   0.0000000   0.0000000   0.0000000   2.7928460   2.7928460   2.7928460   2.7928460
 AtZNuc=   6.0000000   6.0000000   6.0000000   6.0000000   6.0000000   6.0000000   1.0000000   1.0000000   1.0000000   1.0000000

  Atom        11          12          13          14          15          16          17          18          19          20
 IAtWgt=          12          12          12          12          12          12           1           1           1           1
 AtmWgt=  12.0000000  12.0000000  12.0000000  12.0000000  12.0000000  12.0000000   1.0078250   1.0078250   1.0078250   1.0078250
 NucSpn=           0           0           0           0           0           0           1           1           1           1
 AtZEff=  -0.0000000  -0.0000000  -0.0000000  -0.0000000  -0.0000000  -0.0000000  -0.0000000  -0.0000000  -0.0000000  -0.0000000
 NQMom=    0.0000000   0.0000000   0.0000000   0.0000000   0.0000000   0.0000000   0.0000000   0.0000000   0.0000000   0.0000000
 NMagM=    0.0000000   0.0000000   0.0000000   0.0000000   0.0000000   0.0000000   2.7928460   2.7928460   2.7928460   2.7928460
 AtZNuc=   6.0000000   6.0000000   6.0000000   6.0000000   6.0000000   6.0000000   1.0000000   1.0000000   1.0000000   1.0000000

  Atom        21          22
 IAtWgt=           1           1
 AtmWgt=   1.0078250   1.0078250
 NucSpn=           1           1
 AtZEff=  -0.0000000  -0.0000000
 NQMom=    0.0000000   0.0000000
 NMagM=    2.7928460   2.7928460
 AtZNuc=   1.0000000   1.0000000
 Leave Link  101 at Sun Jan 17 09:50:05 2021, MaxMem=  4026531840 cpu:               0.7 elap:               0.1
 (Enter /opt/ohpc/pub/libs/gaussian/g16-A.03/sandybridge/g16/l202.exe)
                          Input orientation:                          
 ---------------------------------------------------------------------
 Center     Atomic      Atomic             Coordinates (Angstroms)
 Number     Number       Type             X           Y           Z
 ---------------------------------------------------------------------
      1          6           0       -2.858500    1.132993    0.413690
      2          6           0       -3.561927   -0.000084   -0.000146
      3          6           0       -1.463685    1.132747    0.413534
      4          6           0       -2.858269   -1.133176   -0.413741
      5          6           0       -0.742381    0.000123    0.000091
      6          6           0       -1.463491   -1.132675   -0.413489
      7          1           0       -4.653174   -0.000160   -0.000261
      8          1           0       -0.922222    2.014213    0.762301
      9          1           0       -3.398792   -2.020986   -0.747134
     10          1           0       -0.921754   -2.014027   -0.762095
     11          6           0        0.742385    0.000142    0.000197
     12          6           0        1.463539   -1.132637    0.413582
     13          6           0        1.463636    1.132765   -0.413477
     14          6           0        2.858357   -1.133114    0.413660
     15          6           0        2.858412    1.133073   -0.413706
     16          6           0        3.561931   -0.000095   -0.000087
     17          1           0        0.921935   -2.014039    0.762261
     18          1           0        0.922017    2.014128   -0.762265
     19          1           0        3.398826   -2.021000    0.746938
     20          1           0        3.399026    2.020805   -0.747168
     21          1           0        4.653184   -0.000117   -0.000198
     22          1           0       -3.399078    2.020813    0.746974
 ---------------------------------------------------------------------
                    Distance matrix (angstroms):
                    1          2          3          4          5
     1  C    0.000000
     2  C    1.396400   0.000000
     3  C    1.394815   2.420136   0.000000
     4  C    2.412502   1.396457   2.786334   0.000000
     5  C    2.435656   2.819546   1.405010   2.435694   0.000000
     6  C    2.786311   2.420134   2.411660   1.394778   1.405091
     7  H    2.162463   1.091247   3.409919   2.162493   3.910793
     8  H    2.155748   3.406870   1.091697   3.877810   2.160987
     9  H    3.403970   2.160706   3.877863   1.091569   3.420489
    10  H    3.877782   3.406912   3.402643   2.155769   2.160996
    11  C    3.797460   4.304312   2.514038   3.797429   1.484766
    12  C    4.879867   5.168090   3.701433   4.400283   2.514001
    13  C    4.400576   5.168218   3.041900   4.879893   2.514046
    14  C    6.149609   6.532613   4.879977   5.776193   3.797444
    15  C    5.776475   6.532674   4.400551   6.149498   3.797435
    16  C    6.532766   7.123858   5.168291   6.532530   4.304312
    17  H    4.931227   4.974163   3.964222   4.055717   2.721709
    18  H    4.056054   4.974297   2.801947   4.931283   2.721695
    19  H    7.015187   7.286585   5.805281   6.425468   4.668224
    20  H    6.425919   7.286762   5.077582   7.015163   4.668276
    21  H    7.607933   8.215111   6.234632   7.607678   5.395565
    22  H    1.091571   2.160725   2.155363   3.404024   3.420389
                    6          7          8          9         10
     6  C    0.000000
     7  H    3.409901   0.000000
     8  H    3.402699   4.308039   0.000000
     9  H    2.155413   2.492996   4.969369   0.000000
    10  H    1.091690   4.308079   4.307029   2.477093   0.000000
    11  C    2.514021   5.395559   2.721801   4.668277   2.721640
    12  C    3.041636   6.234416   3.964357   5.077272   2.801551
    13  C    3.701390   6.234551   2.802093   5.805229   3.964079
    14  C    4.400289   7.607760   4.931531   6.425548   4.055570
    15  C    4.879801   7.607830   4.056180   7.015117   4.931051
    16  C    5.168027   8.215105   4.974565   7.286545   4.973933
    17  H    2.801687   5.976537   4.430319   4.576790   2.392248
    18  H    3.964172   5.976685   2.392806   5.912002   4.430070
    19  H    5.077188   8.335275   5.912245   6.959875   4.576532
    20  H    5.805157   8.335472   4.577305   7.908628   5.911788
    21  H    6.234357   9.306358   5.976963   8.335235   5.976308
    22  H    3.877842   2.493080   2.476912   4.309118   4.969342
                   11         12         13         14         15
    11  C    0.000000
    12  C    1.405040   0.000000
    13  C    1.405049   2.411654   0.000000
    14  C    2.435684   1.394818   2.786326   0.000000
    15  C    2.435656   2.786309   1.394776   2.412496   0.000000
    16  C    2.819546   2.420129   2.420146   1.396401   1.396456
    17  H    2.160996   1.091687   3.402672   2.155755   3.877777
    18  H    2.160962   3.402645   1.091698   3.877801   2.155778
    19  H    3.420426   2.155377   3.877855   1.091569   3.404015
    20  H    3.420435   3.877840   2.155388   3.403976   1.091572
    21  H    3.910799   3.409934   3.409903   2.162490   2.162479
    22  H    4.668244   5.805208   5.077525   7.015258   6.425842
                   16         17         18         19         20
    16  C    0.000000
    17  H    3.406864   0.000000
    18  H    3.406928   4.307007   0.000000
    19  H    2.160719   2.476948   4.969360   0.000000
    20  H    2.160719   4.969338   2.477064   4.309123   0.000000
    21  H    1.091253   4.308067   4.308078   2.493109   2.492991
    22  H    7.286825   5.911972   4.577085   7.908714   6.960365
                   21         22
    21  H    0.000000
    22  H    8.335547   0.000000
 Stoichiometry    C12H10
 Framework group  C1[X(C12H10)]
 Deg. of freedom    60
 Full point group                 C1      NOp   1
 Largest Abelian subgroup         C1      NOp   1
 Largest concise Abelian subgroup C1      NOp   1
                         Standard orientation:                         
 ---------------------------------------------------------------------
 Center     Atomic      Atomic             Coordinates (Angstroms)
 Number     Number       Type             X           Y           Z
 ---------------------------------------------------------------------
      1          6           0       -2.858500   -1.132993   -0.413690
      2          6           0       -3.561927    0.000084    0.000146
      3          6           0       -1.463685   -1.132747   -0.413534
      4          6           0       -2.858269    1.133176    0.413741
      5          6           0       -0.742381   -0.000123   -0.000091
      6          6           0       -1.463491    1.132675    0.413489
      7          1           0       -4.653174    0.000160    0.000261
      8          1           0       -0.922222   -2.014213   -0.762301
      9          1           0       -3.398792    2.020986    0.747134
     10          1           0       -0.921754    2.014027    0.762095
     11          6           0        0.742385   -0.000142   -0.000197
     12          6           0        1.463539    1.132637   -0.413582
     13          6           0        1.463636   -1.132765    0.413477
     14          6           0        2.858357    1.133114   -0.413660
     15          6           0        2.858412   -1.133073    0.413706
     16          6           0        3.561931    0.000095    0.000087
     17          1           0        0.921935    2.014039   -0.762261
     18          1           0        0.922017   -2.014128    0.762265
     19          1           0        3.398826    2.021000   -0.746938
     20          1           0        3.399026   -2.020805    0.747168
     21          1           0        4.653184    0.000117    0.000198
     22          1           0       -3.399078   -2.020813   -0.746974
 ---------------------------------------------------------------------
 Rotational constants (GHZ):           2.8545349           0.5449545           0.4756990
 Leave Link  202 at Sun Jan 17 09:50:05 2021, MaxMem=  4026531840 cpu:               0.3 elap:               0.1
 (Enter /opt/ohpc/pub/libs/gaussian/g16-A.03/sandybridge/g16/l301.exe)
 Standard basis: TZVP (5D, 7F)
 Ernie: Thresh=  0.10000D-02 Tol=  0.10000D-05 Strict=F.
 There are   300 symmetry adapted cartesian basis functions of A   symmetry.
 There are   288 symmetry adapted basis functions of A   symmetry.
   288 basis functions,   500 primitive gaussians,   300 cartesian basis functions
    41 alpha electrons       41 beta electrons
       nuclear repulsion energy       598.4723472889 Hartrees.
 IExCor=33909 DFT=T Ex+Corr=LC-wHPBE ExCW=0 ScaHFX=  1.000000
 ScaDFX=  1.000000  1.000000  1.000000  1.000000 ScalE2=  1.000000  1.000000
 IRadAn=      5 IRanWt=     -1 IRanGd=            0 ICorTp=0 IEmpDi=  4
 HFx  wShort=  0.000000 wLong=  0.237800 cFull=  0.000000 cShort=  0.000000 cLong=  1.000000
 DFx  wShort=  0.000000 wLong=  0.237800 cFull=  0.000000 cShort=  1.000000 cLong=  0.000000
 NAtoms=   22 NActive=   22 NUniq=   22 SFac= 1.00D+00 NAtFMM=   60 NAOKFM=F Big=F
 Integral buffers will be    131072 words long.
 Raffenetti 2 integral format.
 Two-electron integral symmetry is turned on.
 Leave Link  301 at Sun Jan 17 09:50:05 2021, MaxMem=  4026531840 cpu:               0.4 elap:               0.1
 (Enter /opt/ohpc/pub/libs/gaussian/g16-A.03/sandybridge/g16/l302.exe)
 NPDir=0 NMtPBC=     1 NCelOv=     1 NCel=       1 NClECP=     1 NCelD=      1
         NCelK=      1 NCelE2=     1 NClLst=     1 CellRange=     0.0.
 One-electron integrals computed using PRISM.
 One-electron integral symmetry used in STVInt
 NBasis=   288 RedAO= T EigKep=  9.18D-06  NBF=   288
 NBsUse=   288 1.00D-06 EigRej= -1.00D+00 NBFU=   288
 Precomputing XC quadrature grid using
 IXCGrd= 4 IRadAn=           5 IRanWt=          -1 IRanGd=           0 AccXCQ= 0.00D+00.
 Generated NRdTot=       0 NPtTot=           0 NUsed=           0 NTot=          32
 NSgBfM=   295   295   295   295   295 MxSgAt=    22 MxSgA2=    22.
 Leave Link  302 at Sun Jan 17 09:50:06 2021, MaxMem=  4026531840 cpu:               2.2 elap:               0.3
 (Enter /opt/ohpc/pub/libs/gaussian/g16-A.03/sandybridge/g16/l303.exe)
 DipDrv:  MaxL=1.
 Leave Link  303 at Sun Jan 17 09:50:06 2021, MaxMem=  4026531840 cpu:               0.3 elap:               0.1
 (Enter /opt/ohpc/pub/libs/gaussian/g16-A.03/sandybridge/g16/l401.exe)
 ExpMin= 9.52D-02 ExpMax= 1.36D+04 ExpMxC= 4.63D+02 IAcc=3 IRadAn=         5 AccDes= 0.00D+00
 Harris functional with IExCor=33909 and IRadAn=       5 diagonalized for initial guess.
 HarFok:  IExCor=33909 AccDes= 0.00D+00 IRadAn=         5 IDoV= 1 UseB2=F ITyADJ=14
 ICtDFT=  3500011 ScaDFX=  1.000000  1.000000  1.000000  1.000000
 FoFCou: FMM=F IPFlag=           0 FMFlag=      100000 FMFlg1=           0
         NFxFlg=           0 DoJE=T BraDBF=F KetDBF=T FulRan=T
         wScrn=  0.000000 ICntrl=       500 IOpCl=  0 I1Cent=   200000004 NGrid=           0
         NMat0=    1 NMatS0=      1 NMatT0=    0 NMatD0=    1 NMtDS0=    0 NMtDT0=    0
 Petite list used in FoFCou.
 Harris En= -452.829342153360    
 JPrj=0 DoOrth=F DoCkMO=F.
 Leave Link  401 at Sun Jan 17 09:50:07 2021, MaxMem=  4026531840 cpu:              13.8 elap:               1.8
 (Enter /opt/ohpc/pub/libs/gaussian/g16-A.03/sandybridge/g16/l502.exe)
 Integral symmetry usage will be decided dynamically.
 Closed shell SCF:
 Using DIIS extrapolation, IDIIS=    10.
 NGot=  4026531840 LenX=  4026346394 LenY=  4026255953
 Requested convergence on RMS density matrix=1.00D-06 within  32 cycles.
 Requested convergence on MAX density matrix=1.00D-04.
 Requested convergence on             energy=1.00D-04.
 Virtual orbitals will be shifted by   0.500 hartree.
 No special actions if energy rises.
 Dynamic level shift is on during FON iterations.

 Cycle   1  Pass 1  IDiag  1:
 FoFJK:  IHMeth= 1 ICntrl=       0 DoSepK=T KAlg= 0 I1Cent=           0 FoldK=F
 IRaf=         1 NMat=       1 IRICut=       1 DoRegI=T DoRafI=F ISym2E= 0 IDoP0=0 IntGTp=1.
 FoFCou: FMM=F IPFlag=           0 FMFlag=      100000 FMFlg1=           0
         NFxFlg=           0 DoJE=T BraDBF=F KetDBF=F FulRan=T
         wScrn=  0.000000 ICntrl=       500 IOpCl=  0 I1Cent=           0 NGrid=           0
         NMat0=    1 NMatS0=      1 NMatT0=    0 NMatD0=    1 NMtDS0=    0 NMtDT0=    0
 Symmetry not used in FoFCou.
 E= -462.844334282816    
 DIIS: error= 2.96D-02 at cycle   1 NSaved=   1.
 NSaved= 1 IEnMin= 1 EnMin= -462.844334282816     IErMin= 1 ErrMin= 2.96D-02
 ErrMax= 2.96D-02  0.00D+00 EMaxC= 1.00D+00 BMatC= 1.71D-01 BMatP= 1.71D-01
 IDIUse=1 WtCom= 1.00D+00 WtEn= 0.00D+00
 Coeff-Com:  0.100D+01
 Coeff:      0.100D+01
 Gap=     0.325 Goal=   None    Shift=    0.500
 T= 1488. Gap= 0.813 NK=0 IS=   42 IE=  288 IFin=   41
          NO(<0.9)=   0  NV(>0.1)=   0     41.00e < EF      0.00e >EF  Err=0.0D+00
 GapD=    0.325 DampG=1.000 DampE=0.500 DampFc=0.5000 IDamp=-1.
 Damping current iteration by 5.00D-01
 RMSDP=2.97D-03 MaxDP=9.36D-02              OVMax= 6.21D-02

 Cycle   2  Pass 1  IDiag  1:
 E= -462.951806764479     Delta-E=       -0.107472481663 Rises=F Damp=T
 DIIS: error= 1.41D-02 at cycle   2 NSaved=   2.
 NSaved= 2 IEnMin= 2 EnMin= -462.951806764479     IErMin= 2 ErrMin= 1.41D-02
 ErrMax= 1.41D-02  0.00D+00 EMaxC= 1.00D+00 BMatC= 3.41D-02 BMatP= 1.71D-01
 IDIUse=1 WtCom= 1.00D+00 WtEn= 0.00D+00
 Coeff-Com: -0.708D+00 0.171D+01
 Coeff:     -0.708D+00 0.171D+01
 Gap=     0.331 Goal=   None    Shift=    0.500
 T= 1373. Gap= 0.827 NK=0 IS=   42 IE=  288 IFin=   41
          NO(<0.9)=   0  NV(>0.1)=   0     41.00e < EF      0.00e >EF  Err=0.0D+00
 GapD=    0.331 DampG=1.000 DampE=0.500 DampFc=0.5000 IDamp=-1.
 Damping current iteration by 5.00D-01
 RMSDP=1.85D-03 MaxDP=6.11D-02 DE=-1.07D-01 OVMax= 9.23D-03

 Cycle   3  Pass 1  IDiag  1:
 E= -462.991434589634     Delta-E=       -0.039627825155 Rises=F Damp=T
 DIIS: error= 6.74D-03 at cycle   3 NSaved=   3.
 NSaved= 3 IEnMin= 3 EnMin= -462.991434589634     IErMin= 3 ErrMin= 6.74D-03
 ErrMax= 6.74D-03  0.00D+00 EMaxC= 1.00D+00 BMatC= 7.43D-03 BMatP= 3.41D-02
 IDIUse=1 WtCom= 1.00D+00 WtEn= 0.00D+00
 Coeff-Com:  0.122D+00-0.123D+01 0.211D+01
 Coeff:      0.122D+00-0.123D+01 0.211D+01
 Gap=     0.328 Goal=   None    Shift=    0.500
 T= 1148. Gap= 0.827 NK=0 IS=   42 IE=  288 IFin=   41
          NO(<0.9)=   0  NV(>0.1)=   0     41.00e < EF      0.00e >EF  Err=0.0D+00
 GapD=    0.328 DampG=1.000 DampE=1.000 DampFc=1.0000 IDamp=-1.
 RMSDP=9.92D-04 MaxDP=3.19D-02 DE=-3.96D-02 OVMax= 5.10D-03

 Cycle   4  Pass 1  IDiag  1:
 E= -463.024434628515     Delta-E=       -0.033000038880 Rises=F Damp=F
 DIIS: error= 8.02D-04 at cycle   4 NSaved=   4.
 NSaved= 4 IEnMin= 4 EnMin= -463.024434628515     IErMin= 4 ErrMin= 8.02D-04
 ErrMax= 8.02D-04  0.00D+00 EMaxC= 1.00D+00 BMatC= 1.07D-04 BMatP= 7.43D-03
 IDIUse=1 WtCom= 1.00D+00 WtEn= 0.00D+00
 Coeff-Com:  0.717D-01-0.166D+00 0.743D-01 0.102D+01
 Coeff:      0.717D-01-0.166D+00 0.743D-01 0.102D+01
 Gap=     0.328 Goal=   None    Shift=    0.500
 RMSDP=1.56D-04 MaxDP=2.20D-03 DE=-3.30D-02 OVMax= 2.37D-03

 Cycle   5  Pass 1  IDiag  1:
 E= -463.024579987938     Delta-E=       -0.000145359423 Rises=F Damp=F
 DIIS: error= 4.26D-04 at cycle   5 NSaved=   5.
 NSaved= 5 IEnMin= 5 EnMin= -463.024579987938     IErMin= 5 ErrMin= 4.26D-04
 ErrMax= 4.26D-04  0.00D+00 EMaxC= 1.00D+00 BMatC= 1.44D-05 BMatP= 1.07D-04
 IDIUse=1 WtCom= 1.00D+00 WtEn= 0.00D+00
 Coeff-Com: -0.723D-02 0.148D+00-0.276D+00-0.113D+00 0.125D+01
 Coeff:     -0.723D-02 0.148D+00-0.276D+00-0.113D+00 0.125D+01
 Gap=     0.328 Goal=   None    Shift=    0.500
 RMSDP=1.15D-04 MaxDP=2.39D-03 DE=-1.45D-04 OVMax= 1.73D-03

 Cycle   6  Pass 1  IDiag  1:
 E= -463.024614277966     Delta-E=       -0.000034290028 Rises=F Damp=F
 DIIS: error= 2.73D-04 at cycle   6 NSaved=   6.
 NSaved= 6 IEnMin= 6 EnMin= -463.024614277966     IErMin= 6 ErrMin= 2.73D-04
 ErrMax= 2.73D-04  0.00D+00 EMaxC= 1.00D+00 BMatC= 3.02D-06 BMatP= 1.44D-05
 IDIUse=1 WtCom= 1.00D+00 WtEn= 0.00D+00
 Coeff-Com: -0.991D-02 0.245D-02 0.279D-01-0.129D+00-0.628D+00 0.174D+01
 Coeff:     -0.991D-02 0.245D-02 0.279D-01-0.129D+00-0.628D+00 0.174D+01
 Gap=     0.328 Goal=   None    Shift=    0.500
 RMSDP=7.79D-05 MaxDP=1.68D-03 DE=-3.43D-05 OVMax= 1.23D-03

 Cycle   7  Pass 1  IDiag  1:
 E= -463.024625031580     Delta-E=       -0.000010753614 Rises=F Damp=F
 DIIS: error= 1.82D-04 at cycle   7 NSaved=   7.
 NSaved= 7 IEnMin= 7 EnMin= -463.024625031580     IErMin= 7 ErrMin= 1.82D-04
 ErrMax= 1.82D-04  0.00D+00 EMaxC= 1.00D+00 BMatC= 9.00D-07 BMatP= 3.02D-06
 IDIUse=1 WtCom= 1.00D+00 WtEn= 0.00D+00
 Coeff-Com:  0.227D-02-0.248D-01 0.400D-01 0.218D-01-0.141D+00-0.803D+00
 Coeff-Com:  0.190D+01
 Coeff:      0.227D-02-0.248D-01 0.400D-01 0.218D-01-0.141D+00-0.803D+00
 Coeff:      0.190D+01
 Gap=     0.328 Goal=   None    Shift=    0.500
 RMSDP=4.07D-05 MaxDP=9.00D-04 DE=-1.08D-05 OVMax= 8.18D-04

 Cycle   8  Pass 1  IDiag  1:
 E= -463.024628740268     Delta-E=       -0.000003708688 Rises=F Damp=F
 DIIS: error= 1.25D-04 at cycle   8 NSaved=   8.
 NSaved= 8 IEnMin= 8 EnMin= -463.024628740268     IErMin= 8 ErrMin= 1.25D-04
 ErrMax= 1.25D-04  0.00D+00 EMaxC= 1.00D+00 BMatC= 3.04D-07 BMatP= 9.00D-07
 IDIUse=1 WtCom= 1.00D+00 WtEn= 0.00D+00
 Coeff-Com:  0.295D-02-0.492D-02-0.101D-02 0.485D-01 0.105D+00-0.669D+00
 Coeff-Com: -0.186D+00 0.170D+01
 Coeff:      0.295D-02-0.492D-02-0.101D-02 0.485D-01 0.105D+00-0.669D+00
 Coeff:     -0.186D+00 0.170D+01
 Gap=     0.328 Goal=   None    Shift=    0.500
 RMSDP=1.77D-05 MaxDP=4.01D-04 DE=-3.71D-06 OVMax= 5.74D-04

 Cycle   9  Pass 1  IDiag  1:
 E= -463.024630104148     Delta-E=       -0.000001363880 Rises=F Damp=F
 DIIS: error= 7.74D-05 at cycle   9 NSaved=   9.
 NSaved= 9 IEnMin= 9 EnMin= -463.024630104148     IErMin= 9 ErrMin= 7.74D-05
 ErrMax= 7.74D-05  0.00D+00 EMaxC= 1.00D+00 BMatC= 1.07D-07 BMatP= 3.04D-07
 IDIUse=1 WtCom= 1.00D+00 WtEn= 0.00D+00
 Coeff-Com:  0.197D-03 0.639D-02-0.131D-01 0.154D-01 0.580D-01 0.630D-01
 Coeff-Com: -0.816D+00 0.311D-01 0.165D+01
 Coeff:      0.197D-03 0.639D-02-0.131D-01 0.154D-01 0.580D-01 0.630D-01
 Coeff:     -0.816D+00 0.311D-01 0.165D+01
 Gap=     0.328 Goal=   None    Shift=    0.500
 RMSDP=6.26D-06 MaxDP=1.47D-04 DE=-1.36D-06 OVMax= 3.70D-04

 Cycle  10  Pass 1  IDiag  1:
 E= -463.024630617092     Delta-E=       -0.000000512944 Rises=F Damp=F
 DIIS: error= 4.81D-05 at cycle  10 NSaved=  10.
 NSaved=10 IEnMin=10 EnMin= -463.024630617092     IErMin=10 ErrMin= 4.81D-05
 ErrMax= 4.81D-05  0.00D+00 EMaxC= 1.00D+00 BMatC= 3.67D-08 BMatP= 1.07D-07
 IDIUse=1 WtCom= 1.00D+00 WtEn= 0.00D+00
 Coeff-Com: -0.736D-03 0.549D-03 0.177D-02-0.136D-01-0.358D-01 0.246D+00
 Coeff-Com: -0.663D-01-0.709D+00-0.631D+00 0.221D+01
 Coeff:     -0.736D-03 0.549D-03 0.177D-02-0.136D-01-0.358D-01 0.246D+00
 Coeff:     -0.663D-01-0.709D+00-0.631D+00 0.221D+01
 Gap=     0.328 Goal=   None    Shift=    0.500
 RMSDP=1.99D-06 MaxDP=4.78D-05 DE=-5.13D-07 OVMax= 2.42D-04

 Cycle  11  Pass 1  IDiag  1:
 E= -463.024630808196     Delta-E=       -0.000000191105 Rises=F Damp=F
 DIIS: error= 2.78D-05 at cycle  11 NSaved=  11.
 NSaved=11 IEnMin=11 EnMin= -463.024630808196     IErMin=11 ErrMin= 2.78D-05
 ErrMax= 2.78D-05  0.00D+00 EMaxC= 1.00D+00 BMatC= 1.19D-08 BMatP= 3.67D-08
 IDIUse=1 WtCom= 1.00D+00 WtEn= 0.00D+00
 Coeff-Com:  0.510D-04-0.121D-02 0.226D-02-0.909D-03-0.393D-02-0.249D-01
 Coeff-Com:  0.111D+00-0.311D-01-0.134D+00-0.133D+01 0.241D+01
 Coeff:      0.510D-04-0.121D-02 0.226D-02-0.909D-03-0.393D-02-0.249D-01
 Coeff:      0.111D+00-0.311D-01-0.134D+00-0.133D+01 0.241D+01
 Gap=     0.328 Goal=   None    Shift=    0.500
 RMSDP=9.59D-07 MaxDP=2.63D-05 DE=-1.91D-07 OVMax= 1.40D-04

 SCF Done:  E(RLC-wHPBE) =  -463.024630808     A.U. after   11 cycles
            NFock= 11  Conv=0.96D-06     -V/T= 2.0055
 KE= 4.604727953285D+02 PE=-2.270991476849D+03 EE= 7.490217034239D+02
 Leave Link  502 at Sun Jan 17 09:51:16 2021, MaxMem=  4026531840 cpu:             548.7 elap:              68.8
 (Enter /opt/ohpc/pub/libs/gaussian/g16-A.03/sandybridge/g16/l508.exe)
 QCSCF skips out because SCF is already converged.
 Leave Link  508 at Sun Jan 17 09:51:16 2021, MaxMem=  4026531840 cpu:               0.0 elap:               0.0
 (Enter /opt/ohpc/pub/libs/gaussian/g16-A.03/sandybridge/g16/l601.exe)
 Copying SCF densities to generalized density rwf, IOpCl= 0 IROHF=0.

 **********************************************************************

            Population analysis using the SCF density.

 **********************************************************************

 Orbital symmetries:
       Occupied  (A) (A) (A) (A) (A) (A) (A) (A) (A) (A) (A) (A)
                 (A) (A) (A) (A) (A) (A) (A) (A) (A) (A) (A) (A)
                 (A) (A) (A) (A) (A) (A) (A) (A) (A) (A) (A) (A)
                 (A) (A) (A) (A) (A)
       Virtual   (A) (A) (A) (A) (A) (A) (A) (A) (A) (A) (A) (A)
                 (A) (A) (A) (A) (A) (A) (A) (A) (A) (A) (A) (A)
                 (A) (A) (A) (A) (A) (A) (A) (A) (A) (A) (A) (A)
                 (A) (A) (A) (A) (A) (A) (A) (A) (A) (A) (A) (A)
                 (A) (A) (A) (A) (A) (A) (A) (A) (A) (A) (A) (A)
                 (A) (A) (A) (A) (A) (A) (A) (A) (A) (A) (A) (A)
                 (A) (A) (A) (A) (A) (A) (A) (A) (A) (A) (A) (A)
                 (A) (A) (A) (A) (A) (A) (A) (A) (A) (A) (A) (A)
                 (A) (A) (A) (A) (A) (A) (A) (A) (A) (A) (A) (A)
                 (A) (A) (A) (A) (A) (A) (A) (A) (A) (A) (A) (A)
                 (A) (A) (A) (A) (A) (A) (A) (A) (A) (A) (A) (A)
                 (A) (A) (A) (A) (A) (A) (A) (A) (A) (A) (A) (A)
                 (A) (A) (A) (A) (A) (A) (A) (A) (A) (A) (A) (A)
                 (A) (A) (A) (A) (A) (A) (A) (A) (A) (A) (A) (A)
                 (A) (A) (A) (A) (A) (A) (A) (A) (A) (A) (A) (A)
                 (A) (A) (A) (A) (A) (A) (A) (A) (A) (A) (A) (A)
                 (A) (A) (A) (A) (A) (A) (A) (A) (A) (A) (A) (A)
                 (A) (A) (A) (A) (A) (A) (A) (A) (A) (A) (A) (A)
                 (A) (A) (A) (A) (A) (A) (A) (A) (A) (A) (A) (A)
                 (A) (A) (A) (A) (A) (A) (A) (A) (A) (A) (A) (A)
                 (A) (A) (A) (A) (A) (A) (A)
 The electronic state is 1-A.
 Alpha  occ. eigenvalues --  -10.03634 -10.03621 -10.02522 -10.02521 -10.02518
 Alpha  occ. eigenvalues --  -10.02518 -10.02460 -10.02459 -10.02459 -10.02458
 Alpha  occ. eigenvalues --  -10.02416 -10.02416  -0.93391  -0.91231  -0.84491
 Alpha  occ. eigenvalues --   -0.81778  -0.81022  -0.78859  -0.69571  -0.69048
 Alpha  occ. eigenvalues --   -0.66251  -0.65000  -0.60986  -0.57434  -0.54251
 Alpha  occ. eigenvalues --   -0.53944  -0.51338  -0.51312  -0.49769  -0.49375
 Alpha  occ. eigenvalues --   -0.49085  -0.46411  -0.44808  -0.43778  -0.42314
 Alpha  occ. eigenvalues --   -0.40862  -0.40668  -0.35858  -0.33538  -0.33488
 Alpha  occ. eigenvalues --   -0.30559
 Alpha virt. eigenvalues --    0.02280   0.04753   0.04994   0.07970   0.11886
 Alpha virt. eigenvalues --    0.12424   0.14035   0.15325   0.15849   0.17368
 Alpha virt. eigenvalues --    0.17659   0.18510   0.18928   0.19450   0.21661
 Alpha virt. eigenvalues --    0.22100   0.22152   0.22494   0.27139   0.27343
 Alpha virt. eigenvalues --    0.27406   0.27598   0.29347   0.29556   0.29751
 Alpha virt. eigenvalues --    0.29755   0.30742   0.30854   0.31961   0.31985
 Alpha virt. eigenvalues --    0.33089   0.33950   0.35217   0.35300   0.36072
 Alpha virt. eigenvalues --    0.36756   0.38260   0.39171   0.40829   0.41483
 Alpha virt. eigenvalues --    0.41751   0.42296   0.43282   0.43869   0.43946
 Alpha virt. eigenvalues --    0.44727   0.45944   0.47505   0.47792   0.48287
 Alpha virt. eigenvalues --    0.48306   0.48780   0.48885   0.49177   0.49852
 Alpha virt. eigenvalues --    0.52165   0.52722   0.52898   0.54727   0.54775
 Alpha virt. eigenvalues --    0.55779   0.56127   0.56486   0.57723   0.59178
 Alpha virt. eigenvalues --    0.59420   0.59602   0.59858   0.61732   0.65407
 Alpha virt. eigenvalues --    0.65810   0.68788   0.70339   0.72374   0.73279
 Alpha virt. eigenvalues --    0.75565   0.75763   0.76118   0.77136   0.77481
 Alpha virt. eigenvalues --    0.77992   0.81422   0.83794   0.87005   0.89141
 Alpha virt. eigenvalues --    0.94954   0.96252   1.15509   1.24976   1.25844
 Alpha virt. eigenvalues --    1.29194   1.29419   1.29895   1.30235   1.30720
 Alpha virt. eigenvalues --    1.30835   1.32267   1.33973   1.34582   1.35419
 Alpha virt. eigenvalues --    1.35555   1.36315   1.36807   1.37367   1.37394
 Alpha virt. eigenvalues --    1.37808   1.38461   1.39591   1.41458   1.46413
 Alpha virt. eigenvalues --    1.46531   1.47828   1.48061   1.49739   1.49954
 Alpha virt. eigenvalues --    1.50012   1.50122   1.51710   1.52208   1.52775
 Alpha virt. eigenvalues --    1.53293   1.53344   1.54807   1.54834   1.54918
 Alpha virt. eigenvalues --    1.56994   1.57306   1.57735   1.58917   1.59135
 Alpha virt. eigenvalues --    1.61361   1.62169   1.62639   1.63045   1.64198
 Alpha virt. eigenvalues --    1.64269   1.70406   1.71276   1.74834   1.79129
 Alpha virt. eigenvalues --    1.81770   1.82838   1.82993   1.83066   1.84363
 Alpha virt. eigenvalues --    1.85421   1.86230   1.86772   1.91541   1.92652
 Alpha virt. eigenvalues --    1.92669   1.93253   1.93261   1.93649   1.95485
 Alpha virt. eigenvalues --    1.95836   1.96073   1.96575   1.97061   1.99260
 Alpha virt. eigenvalues --    1.99739   2.00087   2.02879   2.03910   2.04833
 Alpha virt. eigenvalues --    2.05968   2.06712   2.06938   2.13879   2.14737
 Alpha virt. eigenvalues --    2.16682   2.29178   2.31010   2.31269   2.33421
 Alpha virt. eigenvalues --    2.33724   2.34139   2.35652   2.35679   2.38587
 Alpha virt. eigenvalues --    2.38915   2.39034   2.39070   2.40012   2.40986
 Alpha virt. eigenvalues --    2.41359   2.49197   2.52519   2.53538   2.53672
 Alpha virt. eigenvalues --    2.55331   2.56813   2.57622   2.58085   2.62845
 Alpha virt. eigenvalues --    2.64784   2.67996   2.68285   2.68828   2.68984
 Alpha virt. eigenvalues --    2.71007   2.72937   2.73301   2.73857   2.74958
 Alpha virt. eigenvalues --    2.78521   2.84124   2.84157   2.84596   2.87424
 Alpha virt. eigenvalues --    3.02026   3.02704   3.04727   3.07620   3.07825
 Alpha virt. eigenvalues --    3.08131   3.10444   3.12930   3.14746   3.15843
 Alpha virt. eigenvalues --    3.18987   3.19476   3.21754   3.22123   3.24402
 Alpha virt. eigenvalues --    3.25653   3.34396   3.37094   3.37679   3.43732
 Alpha virt. eigenvalues --    3.44396   3.55659   3.59021   3.76685   3.86017
 Alpha virt. eigenvalues --   21.04315  21.32219  21.59573  21.69202  21.72112
 Alpha virt. eigenvalues --   21.79346  21.91843  21.94022  21.96863  21.99413
 Alpha virt. eigenvalues --   22.08557  22.11575
          Condensed to atoms (all electrons):
               1          2          3          4          5          6
     1  C    4.977962   0.477405   0.413024  -0.011843  -0.013721  -0.103393
     2  C    0.477405   4.965289  -0.028213   0.477355  -0.068894  -0.028138
     3  C    0.413024  -0.028213   5.157136  -0.103317   0.437681  -0.036613
     4  C   -0.011843   0.477355  -0.103317   4.978016  -0.013717   0.412925
     5  C   -0.013721  -0.068894   0.437681  -0.013717   5.299239   0.437538
     6  C   -0.103393  -0.028138  -0.036613   0.412925   0.437538   5.157378
     7  H   -0.056833   0.418488   0.017216  -0.056840  -0.004178   0.017220
     8  H   -0.031311   0.009650   0.398754  -0.001486  -0.048827   0.013968
     9  H    0.012396  -0.054306  -0.000549   0.411773   0.013873  -0.049087
    10  H   -0.001483   0.009643   0.013965  -0.031278  -0.048802   0.398725
    11  C    0.021132   0.004174  -0.088915   0.021132   0.162857  -0.088888
    12  C   -0.000049  -0.000209   0.021778   0.002878  -0.088883  -0.017924
    13  C    0.002845  -0.000195  -0.017896  -0.000064  -0.088958   0.021840
    14  C    0.000065   0.000004  -0.000058  -0.000266   0.021145   0.002848
    15  C   -0.000268   0.000005   0.002870   0.000063   0.021145  -0.000061
    16  C    0.000004  -0.000007  -0.000205   0.000004   0.004165  -0.000197
    17  H   -0.000034   0.000020  -0.000379   0.000727  -0.016437   0.003881
    18  H    0.000730   0.000020   0.003868  -0.000033  -0.016428  -0.000383
    19  H   -0.000001   0.000000   0.000018  -0.000006  -0.001302   0.000002
    20  H   -0.000006   0.000000   0.000002  -0.000001  -0.001301   0.000017
    21  H    0.000000  -0.000000  -0.000004   0.000000  -0.000135  -0.000004
    22  H    0.411770  -0.054302  -0.049090   0.012395   0.013875  -0.000550
               7          8          9         10         11         12
     1  C   -0.056833  -0.031311   0.012396  -0.001483   0.021132  -0.000049
     2  C    0.418488   0.009650  -0.054306   0.009643   0.004174  -0.000209
     3  C    0.017216   0.398754  -0.000549   0.013965  -0.088915   0.021778
     4  C   -0.056840  -0.001486   0.411773  -0.031278   0.021132   0.002878
     5  C   -0.004178  -0.048827   0.013873  -0.048802   0.162857  -0.088883
     6  C    0.017220   0.013968  -0.049087   0.398725  -0.088888  -0.017924
     7  H    0.567753  -0.000190  -0.007494  -0.000190  -0.000135  -0.000004
     8  H   -0.000190   0.540808   0.000032  -0.000157  -0.016424  -0.000378
     9  H   -0.007494   0.000032   0.570301  -0.006007  -0.001302   0.000002
    10  H   -0.000190  -0.000157  -0.006007   0.540787  -0.016442   0.003873
    11  C   -0.000135  -0.016424  -0.001302  -0.016442   5.299129   0.437735
    12  C   -0.000004  -0.000378   0.000002   0.003873   0.437735   5.157058
    13  C   -0.000004   0.003881   0.000017  -0.000382   0.437615  -0.036651
    14  C    0.000000  -0.000034  -0.000006   0.000728  -0.013764   0.413087
    15  C    0.000000   0.000726  -0.000001  -0.000033  -0.013744  -0.103303
    16  C   -0.000000   0.000021   0.000000   0.000020  -0.068860  -0.028263
    17  H   -0.000002  -0.000026   0.000006   0.000573  -0.048822   0.398746
    18  H   -0.000002   0.000573   0.000000  -0.000026  -0.048791   0.013962
    19  H   -0.000000   0.000000  -0.000000   0.000007   0.013871  -0.049077
    20  H   -0.000000   0.000007   0.000000   0.000000   0.013874  -0.000548
    21  H   -0.000000  -0.000002  -0.000000  -0.000002  -0.004177   0.017216
    22  H   -0.007495  -0.006009  -0.000219   0.000032  -0.001301   0.000018
              13         14         15         16         17         18
     1  C    0.002845   0.000065  -0.000268   0.000004  -0.000034   0.000730
     2  C   -0.000195   0.000004   0.000005  -0.000007   0.000020   0.000020
     3  C   -0.017896  -0.000058   0.002870  -0.000205  -0.000379   0.003868
     4  C   -0.000064  -0.000266   0.000063   0.000004   0.000727  -0.000033
     5  C   -0.088958   0.021145   0.021145   0.004165  -0.016437  -0.016428
     6  C    0.021840   0.002848  -0.000061  -0.000197   0.003881  -0.000383
     7  H   -0.000004   0.000000   0.000000  -0.000000  -0.000002  -0.000002
     8  H    0.003881  -0.000034   0.000726   0.000021  -0.000026   0.000573
     9  H    0.000017  -0.000006  -0.000001   0.000000   0.000006   0.000000
    10  H   -0.000382   0.000728  -0.000033   0.000020   0.000573  -0.000026
    11  C    0.437615  -0.013764  -0.013744  -0.068860  -0.048822  -0.048791
    12  C   -0.036651   0.413087  -0.103303  -0.028263   0.398746   0.013962
    13  C    5.157354  -0.103350   0.412927  -0.028150   0.013967   0.398719
    14  C   -0.103350   4.977917  -0.011875   0.477436  -0.031297  -0.001482
    15  C    0.412927  -0.011875   4.978000   0.477399  -0.001485  -0.031284
    16  C   -0.028150   0.477436   0.477399   4.965241   0.009647   0.009640
    17  H    0.013967  -0.031297  -0.001485   0.009647   0.540800  -0.000157
    18  H    0.398719  -0.001482  -0.031284   0.009640  -0.000157   0.540786
    19  H   -0.000549   0.411763   0.012393  -0.054300  -0.006007   0.000032
    20  H   -0.049096   0.012395   0.411775  -0.054302   0.000032  -0.006007
    21  H    0.017218  -0.056832  -0.056838   0.418486  -0.000190  -0.000190
    22  H    0.000001  -0.000001  -0.000006   0.000000   0.000000   0.000007
              19         20         21         22
     1  C   -0.000001  -0.000006   0.000000   0.411770
     2  C    0.000000   0.000000  -0.000000  -0.054302
     3  C    0.000018   0.000002  -0.000004  -0.049090
     4  C   -0.000006  -0.000001   0.000000   0.012395
     5  C   -0.001302  -0.001301  -0.000135   0.013875
     6  C    0.000002   0.000017  -0.000004  -0.000550
     7  H   -0.000000  -0.000000  -0.000000  -0.007495
     8  H    0.000000   0.000007  -0.000002  -0.006009
     9  H   -0.000000   0.000000  -0.000000  -0.000219
    10  H    0.000007   0.000000  -0.000002   0.000032
    11  C    0.013871   0.013874  -0.004177  -0.001301
    12  C   -0.049077  -0.000548   0.017216   0.000018
    13  C   -0.000549  -0.049096   0.017218   0.000001
    14  C    0.411763   0.012395  -0.056832  -0.000001
    15  C    0.012393   0.411775  -0.056838  -0.000006
    16  C   -0.054300  -0.054302   0.418486   0.000000
    17  H   -0.006007   0.000032  -0.000190   0.000000
    18  H    0.000032  -0.006007  -0.000190   0.000007
    19  H    0.570302  -0.000219  -0.007494   0.000000
    20  H   -0.000219   0.570304  -0.007494  -0.000000
    21  H   -0.007494  -0.007494   0.567752  -0.000000
    22  H    0.000000  -0.000000  -0.000000   0.570305
 Mulliken charges:
               1
     1  C   -0.098391
     2  C   -0.127790
     3  C   -0.141072
     4  C   -0.098416
     5  C    0.000064
     6  C   -0.141105
     7  H    0.112691
     8  H    0.136427
     9  H    0.110569
    10  H    0.136451
    11  C    0.000048
    12  C   -0.141062
    13  C   -0.141089
    14  C   -0.098422
    15  C   -0.098404
    16  C   -0.127781
    17  H    0.136436
    18  H    0.136447
    19  H    0.110568
    20  H    0.110568
    21  H    0.112691
    22  H    0.110569
 Sum of Mulliken charges =  -0.00000
 Mulliken charges with hydrogens summed into heavy atoms:
               1
     1  C    0.012178
     2  C   -0.015099
     3  C   -0.004645
     4  C    0.012153
     5  C    0.000064
     6  C   -0.004654
    11  C    0.000048
    12  C   -0.004626
    13  C   -0.004641
    14  C    0.012147
    15  C    0.012164
    16  C   -0.015089
 Electronic spatial extent (au):  <R**2>=           2313.8113
 Charge=             -0.0000 electrons
 Dipole moment (field-independent basis, Debye):
    X=             -0.0000    Y=              0.0001    Z=              0.0003  Tot=              0.0003
 Quadrupole moment (field-independent basis, Debye-Ang):
   XX=            -61.7731   YY=            -63.4435   ZZ=            -75.1781
   XY=              0.0005   XZ=              0.0005   YZ=             -0.0002
 Traceless Quadrupole moment (field-independent basis, Debye-Ang):
   XX=              5.0252   YY=              3.3547   ZZ=             -8.3799
   XY=              0.0005   XZ=              0.0005   YZ=             -0.0002
 Octapole moment (field-independent basis, Debye-Ang**2):
  XXX=             -0.0002  YYY=              0.0015  ZZZ=              0.0005  XYY=             -0.0005
  XXY=              0.0009  XXZ=              0.0077  XZZ=              0.0002  YZZ=             -0.0009
  YYZ=              0.0003  XYZ=            -11.9463
 Hexadecapole moment (field-independent basis, Debye-Ang**3):
 XXXX=          -2312.9629 YYYY=           -502.8771 ZZZZ=           -156.7276 XXXY=             -0.0038
 XXXZ=              0.0048 YYYX=              0.0082 YYYZ=             -0.0007 ZZZX=              0.0017
 ZZZY=             -0.0007 XXYY=           -479.0403 XXZZ=           -495.7616 YYZZ=           -112.5930
 XXYZ=             -0.0004 YYXZ=              0.0021 ZZXY=             -0.0020
 N-N= 5.984723472889D+02 E-N=-2.270991351737D+03  KE= 4.604727953285D+02
 No NMR shielding tensors so no spin-rotation constants.
 Leave Link  601 at Sun Jan 17 09:51:16 2021, MaxMem=  4026531840 cpu:               1.0 elap:               0.2
 (Enter /opt/ohpc/pub/libs/gaussian/g16-A.03/sandybridge/g16/l9999.exe)

 Test job not archived.
 1\1\GINC-CASCADEB028\SP\RLC-wHPBE\TZVP\C12H10\RDU230\17-Jan-2021\0\\#P
  LC-wHPBE/TZVP iop(3/107=0237800000, 3/108=0237800000) scf=(conver=6,f
 ermi,ndamp=35,noincfock,novaracc,vshift=500,xqc)\\H10 C12\\0,1\C,0,-2.
 8585,1.132993,0.41369\C,0,-3.561927,-0.000084,-0.000146\C,0,-1.463685,
 1.132747,0.413534\C,0,-2.858269,-1.133176,-0.413741\C,0,-0.742381,0.00
 0123,0.000091\C,0,-1.463491,-1.132675,-0.413489\H,0,-4.653174,-0.00016
 ,-0.000261\H,0,-0.922222,2.014213,0.762301\H,0,-3.398792,-2.020986,-0.
 747134\H,0,-0.921754,-2.014027,-0.762095\C,0,0.742385,0.000142,0.00019
 7\C,0,1.463539,-1.132637,0.413582\C,0,1.463636,1.132765,-0.413477\C,0,
 2.858357,-1.133114,0.41366\C,0,2.858412,1.133073,-0.413706\C,0,3.56193
 1,-0.000095,-0.000087\H,0,0.921935,-2.014039,0.762261\H,0,0.922017,2.0
 14128,-0.762265\H,0,3.398826,-2.021,0.746938\H,0,3.399026,2.020805,-0.
 747168\H,0,4.653184,-0.000117,-0.000198\H,0,-3.399078,2.020813,0.74697
 4\\Version=EM64L-G16RevA.03\State=1-A\HF=-463.0246308\RMSD=9.590e-07\D
 ipole=-0.0000098,-0.0000428,-0.0001186\Quadrupole=3.7360922,2.4941592,
 -6.2302514,-0.0003688,-0.0004041,-0.000138\PG=C01 [X(C12H10)]\\@


 THERE'S A SUCKER BORN EVERY MINUTE

              -- PHINEAS TAYLOR (P.T.) BARNUM
 Job cpu time:       0 days  0 hours  9 minutes 29.5 seconds.
 Elapsed time:       0 days  0 hours  1 minutes 11.7 seconds.
 File lengths (MBytes):  RWF=     88 Int=      0 D2E=      0 Chk=     12 Scr=      8
 Normal termination of Gaussian 16 at Sun Jan 17 09:51:17 2021.
