 Entering Gaussian System, Link 0=g16
 Input=mol_bp_NN_frag_tune_n1.gjf
 Output=mol_bp_NN_frag_tune_n1.log
 Initial command:
 /opt/ohpc/pub/libs/gaussian/g16-A.03/sandybridge/g16/l1.exe "/mnt/gpfs2_4m/scratch/rdu230/ondemand/projects/init_structures/wtuning/mol_bp_NN_frag/tuning_mol_bp_NN_frag_ocycle0/Gau-296975.inp" -scrdir="/mnt/gpfs2_4m/scratch/rdu230/ondemand/projects/init_structures/wtuning/mol_bp_NN_frag/tuning_mol_bp_NN_frag_ocycle0/"
 Entering Link 1 = /opt/ohpc/pub/libs/gaussian/g16-A.03/sandybridge/g16/l1.exe PID=    296976.
  
 Copyright (c) 1988,1990,1992,1993,1995,1998,2003,2009,2016,
            Gaussian, Inc.  All Rights Reserved.
  
 This is part of the Gaussian(R) 16 program.  It is based on
 the Gaussian(R) 09 system (copyright 2009, Gaussian, Inc.),
 the Gaussian(R) 03 system (copyright 2003, Gaussian, Inc.),
 the Gaussian(R) 98 system (copyright 1998, Gaussian, Inc.),
 the Gaussian(R) 94 system (copyright 1995, Gaussian, Inc.),
 the Gaussian 92(TM) system (copyright 1992, Gaussian, Inc.),
 the Gaussian 90(TM) system (copyright 1990, Gaussian, Inc.),
 the Gaussian 88(TM) system (copyright 1988, Gaussian, Inc.),
 the Gaussian 86(TM) system (copyright 1986, Carnegie Mellon
 University), and the Gaussian 82(TM) system (copyright 1983,
 Carnegie Mellon University). Gaussian is a federally registered
 trademark of Gaussian, Inc.
  
 This software contains proprietary and confidential information,
 including trade secrets, belonging to Gaussian, Inc.
  
 This software is provided under written license and may be
 used, copied, transmitted, or stored only in accord with that
 written license.
  
 The following legend is applicable only to US Government
 contracts under FAR:
  
                    RESTRICTED RIGHTS LEGEND
  
 Use, reproduction and disclosure by the US Government is
 subject to restrictions as set forth in subparagraphs (a)
 and (c) of the Commercial Computer Software - Restricted
 Rights clause in FAR 52.227-19.
  
 Gaussian, Inc.
 340 Quinnipiac St., Bldg. 40, Wallingford CT 06492
  
  
 ---------------------------------------------------------------
 Warning -- This program may not be used in any manner that
 competes with the business of Gaussian, Inc. or will provide
 assistance to any competitor of Gaussian, Inc.  The licensee
 of this program is prohibited from giving any competitor of
 Gaussian, Inc. access to this program.  By using this program,
 the user acknowledges that Gaussian, Inc. is engaged in the
 business of creating and licensing software in the field of
 computational chemistry and represents and warrants to the
 licensee that it is not a competitor of Gaussian, Inc. and that
 it will not use this program in any manner prohibited above.
 ---------------------------------------------------------------
  

 Cite this work as:
 Gaussian 16, Revision A.03,
 M. J. Frisch, G. W. Trucks, H. B. Schlegel, G. E. Scuseria, 
 M. A. Robb, J. R. Cheeseman, G. Scalmani, V. Barone, 
 G. A. Petersson, H. Nakatsuji, X. Li, M. Caricato, A. V. Marenich, 
 J. Bloino, B. G. Janesko, R. Gomperts, B. Mennucci, H. P. Hratchian, 
 J. V. Ortiz, A. F. Izmaylov, J. L. Sonnenberg, D. Williams-Young, 
 F. Ding, F. Lipparini, F. Egidi, J. Goings, B. Peng, A. Petrone, 
 T. Henderson, D. Ranasinghe, V. G. Zakrzewski, J. Gao, N. Rega, 
 G. Zheng, W. Liang, M. Hada, M. Ehara, K. Toyota, R. Fukuda, 
 J. Hasegawa, M. Ishida, T. Nakajima, Y. Honda, O. Kitao, H. Nakai, 
 T. Vreven, K. Throssell, J. A. Montgomery, Jr., J. E. Peralta, 
 F. Ogliaro, M. J. Bearpark, J. J. Heyd, E. N. Brothers, K. N. Kudin, 
 V. N. Staroverov, T. A. Keith, R. Kobayashi, J. Normand, 
 K. Raghavachari, A. P. Rendell, J. C. Burant, S. S. Iyengar, 
 J. Tomasi, M. Cossi, J. M. Millam, M. Klene, C. Adamo, R. Cammi, 
 J. W. Ochterski, R. L. Martin, K. Morokuma, O. Farkas, 
 J. B. Foresman, and D. J. Fox, Gaussian, Inc., Wallingford CT, 2016.
 
 ******************************************
 Gaussian 16:  EM64L-G16RevA.03 25-Dec-2016
                17-Jan-2021 
 ******************************************
 %mem=30GB
 %nproc=8
 Will use up to    8 processors via shared memory.
 ----------------------------------------------------------------------
 #P LC-wHPBE/TZVP iop(3/107=0328100000, 3/108=0328100000) scf=(conver=6
 ,fermi,ndamp=35,noincfock,novaracc,vshift=500,xqc)
 ----------------------------------------------------------------------
 1/38=1,172=1/1;
 2/12=2,17=6,18=5,40=1/2;
 3/5=19,7=101,11=2,25=1,30=1,74=-71,107=328100000,108=328100000/1,2,3;
 4//1;
 5/5=100002,6=6,8=3,10=500,13=1,18=-1,22=13,38=1,93=35/2,8;
 6/7=2,8=2,9=2,10=2,28=1/1;
 99/5=1,9=1/99;
 Leave Link    1 at Sun Jan 17 09:39:06 2021, MaxMem=  4026531840 cpu:               2.0 elap:               0.3
 (Enter /opt/ohpc/pub/libs/gaussian/g16-A.03/sandybridge/g16/l101.exe)
 -------
 H10 C12
 -------
 Symbolic Z-matrix:
 Charge =  0 Multiplicity = 1
 C                    -2.8585    1.13299   0.41369 
 C                    -3.56193  -0.00008  -0.00015 
 C                    -1.46369   1.13275   0.41353 
 C                    -2.85827  -1.13318  -0.41374 
 C                    -0.74238   0.00012   0.00009 
 C                    -1.46349  -1.13268  -0.41349 
 H                    -4.65317  -0.00016  -0.00026 
 H                    -0.92222   2.01421   0.7623 
 H                    -3.39879  -2.02099  -0.74713 
 H                    -0.92175  -2.01403  -0.7621 
 C                     0.74239   0.00014   0.0002 
 C                     1.46354  -1.13264   0.41358 
 C                     1.46364   1.13277  -0.41348 
 C                     2.85836  -1.13311   0.41366 
 C                     2.85841   1.13307  -0.41371 
 C                     3.56193  -0.0001   -0.00009 
 H                     0.92194  -2.01404   0.76226 
 H                     0.92202   2.01413  -0.76227 
 H                     3.39883  -2.021     0.74694 
 H                     3.39903   2.02081  -0.74717 
 H                     4.65318  -0.00012  -0.0002 
 H                    -3.39908   2.02081   0.74697 
 
 ITRead=  0  0  0  0  0  0  0  0  0  0  0  0  0  0  0  0  0  0  0  0
 ITRead=  0  0
 MicOpt= -1 -1 -1 -1 -1 -1 -1 -1 -1 -1 -1 -1 -1 -1 -1 -1 -1 -1 -1 -1
 MicOpt= -1 -1
 NAtoms=     22 NQM=       22 NQMF=       0 NMMI=      0 NMMIF=      0
                NMic=       0 NMicF=      0.
                    Isotopes and Nuclear Properties:
 (Nuclear quadrupole moments (NQMom) in fm**2, nuclear magnetic moments (NMagM)
  in nuclear magnetons)

  Atom         1           2           3           4           5           6           7           8           9          10
 IAtWgt=          12          12          12          12          12          12           1           1           1           1
 AtmWgt=  12.0000000  12.0000000  12.0000000  12.0000000  12.0000000  12.0000000   1.0078250   1.0078250   1.0078250   1.0078250
 NucSpn=           0           0           0           0           0           0           1           1           1           1
 AtZEff=  -0.0000000  -0.0000000  -0.0000000  -0.0000000  -0.0000000  -0.0000000  -0.0000000  -0.0000000  -0.0000000  -0.0000000
 NQMom=    0.0000000   0.0000000   0.0000000   0.0000000   0.0000000   0.0000000   0.0000000   0.0000000   0.0000000   0.0000000
 NMagM=    0.0000000   0.0000000   0.0000000   0.0000000   0.0000000   0.0000000   2.7928460   2.7928460   2.7928460   2.7928460
 AtZNuc=   6.0000000   6.0000000   6.0000000   6.0000000   6.0000000   6.0000000   1.0000000   1.0000000   1.0000000   1.0000000

  Atom        11          12          13          14          15          16          17          18          19          20
 IAtWgt=          12          12          12          12          12          12           1           1           1           1
 AtmWgt=  12.0000000  12.0000000  12.0000000  12.0000000  12.0000000  12.0000000   1.0078250   1.0078250   1.0078250   1.0078250
 NucSpn=           0           0           0           0           0           0           1           1           1           1
 AtZEff=  -0.0000000  -0.0000000  -0.0000000  -0.0000000  -0.0000000  -0.0000000  -0.0000000  -0.0000000  -0.0000000  -0.0000000
 NQMom=    0.0000000   0.0000000   0.0000000   0.0000000   0.0000000   0.0000000   0.0000000   0.0000000   0.0000000   0.0000000
 NMagM=    0.0000000   0.0000000   0.0000000   0.0000000   0.0000000   0.0000000   2.7928460   2.7928460   2.7928460   2.7928460
 AtZNuc=   6.0000000   6.0000000   6.0000000   6.0000000   6.0000000   6.0000000   1.0000000   1.0000000   1.0000000   1.0000000

  Atom        21          22
 IAtWgt=           1           1
 AtmWgt=   1.0078250   1.0078250
 NucSpn=           1           1
 AtZEff=  -0.0000000  -0.0000000
 NQMom=    0.0000000   0.0000000
 NMagM=    2.7928460   2.7928460
 AtZNuc=   1.0000000   1.0000000
 Leave Link  101 at Sun Jan 17 09:39:06 2021, MaxMem=  4026531840 cpu:               0.7 elap:               0.1
 (Enter /opt/ohpc/pub/libs/gaussian/g16-A.03/sandybridge/g16/l202.exe)
                          Input orientation:                          
 ---------------------------------------------------------------------
 Center     Atomic      Atomic             Coordinates (Angstroms)
 Number     Number       Type             X           Y           Z
 ---------------------------------------------------------------------
      1          6           0       -2.858500    1.132993    0.413690
      2          6           0       -3.561927   -0.000084   -0.000146
      3          6           0       -1.463685    1.132747    0.413534
      4          6           0       -2.858269   -1.133176   -0.413741
      5          6           0       -0.742381    0.000123    0.000091
      6          6           0       -1.463491   -1.132675   -0.413489
      7          1           0       -4.653174   -0.000160   -0.000261
      8          1           0       -0.922222    2.014213    0.762301
      9          1           0       -3.398792   -2.020986   -0.747134
     10          1           0       -0.921754   -2.014027   -0.762095
     11          6           0        0.742385    0.000142    0.000197
     12          6           0        1.463539   -1.132637    0.413582
     13          6           0        1.463636    1.132765   -0.413477
     14          6           0        2.858357   -1.133114    0.413660
     15          6           0        2.858412    1.133073   -0.413706
     16          6           0        3.561931   -0.000095   -0.000087
     17          1           0        0.921935   -2.014039    0.762261
     18          1           0        0.922017    2.014128   -0.762265
     19          1           0        3.398826   -2.021000    0.746938
     20          1           0        3.399026    2.020805   -0.747168
     21          1           0        4.653184   -0.000117   -0.000198
     22          1           0       -3.399078    2.020813    0.746974
 ---------------------------------------------------------------------
                    Distance matrix (angstroms):
                    1          2          3          4          5
     1  C    0.000000
     2  C    1.396400   0.000000
     3  C    1.394815   2.420136   0.000000
     4  C    2.412502   1.396457   2.786334   0.000000
     5  C    2.435656   2.819546   1.405010   2.435694   0.000000
     6  C    2.786311   2.420134   2.411660   1.394778   1.405091
     7  H    2.162463   1.091247   3.409919   2.162493   3.910793
     8  H    2.155748   3.406870   1.091697   3.877810   2.160987
     9  H    3.403970   2.160706   3.877863   1.091569   3.420489
    10  H    3.877782   3.406912   3.402643   2.155769   2.160996
    11  C    3.797460   4.304312   2.514038   3.797429   1.484766
    12  C    4.879867   5.168090   3.701433   4.400283   2.514001
    13  C    4.400576   5.168218   3.041900   4.879893   2.514046
    14  C    6.149609   6.532613   4.879977   5.776193   3.797444
    15  C    5.776475   6.532674   4.400551   6.149498   3.797435
    16  C    6.532766   7.123858   5.168291   6.532530   4.304312
    17  H    4.931227   4.974163   3.964222   4.055717   2.721709
    18  H    4.056054   4.974297   2.801947   4.931283   2.721695
    19  H    7.015187   7.286585   5.805281   6.425468   4.668224
    20  H    6.425919   7.286762   5.077582   7.015163   4.668276
    21  H    7.607933   8.215111   6.234632   7.607678   5.395565
    22  H    1.091571   2.160725   2.155363   3.404024   3.420389
                    6          7          8          9         10
     6  C    0.000000
     7  H    3.409901   0.000000
     8  H    3.402699   4.308039   0.000000
     9  H    2.155413   2.492996   4.969369   0.000000
    10  H    1.091690   4.308079   4.307029   2.477093   0.000000
    11  C    2.514021   5.395559   2.721801   4.668277   2.721640
    12  C    3.041636   6.234416   3.964357   5.077272   2.801551
    13  C    3.701390   6.234551   2.802093   5.805229   3.964079
    14  C    4.400289   7.607760   4.931531   6.425548   4.055570
    15  C    4.879801   7.607830   4.056180   7.015117   4.931051
    16  C    5.168027   8.215105   4.974565   7.286545   4.973933
    17  H    2.801687   5.976537   4.430319   4.576790   2.392248
    18  H    3.964172   5.976685   2.392806   5.912002   4.430070
    19  H    5.077188   8.335275   5.912245   6.959875   4.576532
    20  H    5.805157   8.335472   4.577305   7.908628   5.911788
    21  H    6.234357   9.306358   5.976963   8.335235   5.976308
    22  H    3.877842   2.493080   2.476912   4.309118   4.969342
                   11         12         13         14         15
    11  C    0.000000
    12  C    1.405040   0.000000
    13  C    1.405049   2.411654   0.000000
    14  C    2.435684   1.394818   2.786326   0.000000
    15  C    2.435656   2.786309   1.394776   2.412496   0.000000
    16  C    2.819546   2.420129   2.420146   1.396401   1.396456
    17  H    2.160996   1.091687   3.402672   2.155755   3.877777
    18  H    2.160962   3.402645   1.091698   3.877801   2.155778
    19  H    3.420426   2.155377   3.877855   1.091569   3.404015
    20  H    3.420435   3.877840   2.155388   3.403976   1.091572
    21  H    3.910799   3.409934   3.409903   2.162490   2.162479
    22  H    4.668244   5.805208   5.077525   7.015258   6.425842
                   16         17         18         19         20
    16  C    0.000000
    17  H    3.406864   0.000000
    18  H    3.406928   4.307007   0.000000
    19  H    2.160719   2.476948   4.969360   0.000000
    20  H    2.160719   4.969338   2.477064   4.309123   0.000000
    21  H    1.091253   4.308067   4.308078   2.493109   2.492991
    22  H    7.286825   5.911972   4.577085   7.908714   6.960365
                   21         22
    21  H    0.000000
    22  H    8.335547   0.000000
 Stoichiometry    C12H10
 Framework group  C1[X(C12H10)]
 Deg. of freedom    60
 Full point group                 C1      NOp   1
 Largest Abelian subgroup         C1      NOp   1
 Largest concise Abelian subgroup C1      NOp   1
                         Standard orientation:                         
 ---------------------------------------------------------------------
 Center     Atomic      Atomic             Coordinates (Angstroms)
 Number     Number       Type             X           Y           Z
 ---------------------------------------------------------------------
      1          6           0       -2.858500   -1.132993   -0.413690
      2          6           0       -3.561927    0.000084    0.000146
      3          6           0       -1.463685   -1.132747   -0.413534
      4          6           0       -2.858269    1.133176    0.413741
      5          6           0       -0.742381   -0.000123   -0.000091
      6          6           0       -1.463491    1.132675    0.413489
      7          1           0       -4.653174    0.000160    0.000261
      8          1           0       -0.922222   -2.014213   -0.762301
      9          1           0       -3.398792    2.020986    0.747134
     10          1           0       -0.921754    2.014027    0.762095
     11          6           0        0.742385   -0.000142   -0.000197
     12          6           0        1.463539    1.132637   -0.413582
     13          6           0        1.463636   -1.132765    0.413477
     14          6           0        2.858357    1.133114   -0.413660
     15          6           0        2.858412   -1.133073    0.413706
     16          6           0        3.561931    0.000095    0.000087
     17          1           0        0.921935    2.014039   -0.762261
     18          1           0        0.922017   -2.014128    0.762265
     19          1           0        3.398826    2.021000   -0.746938
     20          1           0        3.399026   -2.020805    0.747168
     21          1           0        4.653184    0.000117    0.000198
     22          1           0       -3.399078   -2.020813   -0.746974
 ---------------------------------------------------------------------
 Rotational constants (GHZ):           2.8545349           0.5449545           0.4756990
 Leave Link  202 at Sun Jan 17 09:39:06 2021, MaxMem=  4026531840 cpu:               0.1 elap:               0.0
 (Enter /opt/ohpc/pub/libs/gaussian/g16-A.03/sandybridge/g16/l301.exe)
 Standard basis: TZVP (5D, 7F)
 Ernie: Thresh=  0.10000D-02 Tol=  0.10000D-05 Strict=F.
 There are   300 symmetry adapted cartesian basis functions of A   symmetry.
 There are   288 symmetry adapted basis functions of A   symmetry.
   288 basis functions,   500 primitive gaussians,   300 cartesian basis functions
    41 alpha electrons       41 beta electrons
       nuclear repulsion energy       598.4723472889 Hartrees.
 IExCor=33909 DFT=T Ex+Corr=LC-wHPBE ExCW=0 ScaHFX=  1.000000
 ScaDFX=  1.000000  1.000000  1.000000  1.000000 ScalE2=  1.000000  1.000000
 IRadAn=      5 IRanWt=     -1 IRanGd=            0 ICorTp=0 IEmpDi=  4
 HFx  wShort=  0.000000 wLong=  0.328100 cFull=  0.000000 cShort=  0.000000 cLong=  1.000000
 DFx  wShort=  0.000000 wLong=  0.328100 cFull=  0.000000 cShort=  1.000000 cLong=  0.000000
 NAtoms=   22 NActive=   22 NUniq=   22 SFac= 1.00D+00 NAtFMM=   60 NAOKFM=F Big=F
 Integral buffers will be    131072 words long.
 Raffenetti 2 integral format.
 Two-electron integral symmetry is turned on.
 Leave Link  301 at Sun Jan 17 09:39:06 2021, MaxMem=  4026531840 cpu:               0.4 elap:               0.1
 (Enter /opt/ohpc/pub/libs/gaussian/g16-A.03/sandybridge/g16/l302.exe)
 NPDir=0 NMtPBC=     1 NCelOv=     1 NCel=       1 NClECP=     1 NCelD=      1
         NCelK=      1 NCelE2=     1 NClLst=     1 CellRange=     0.0.
 One-electron integrals computed using PRISM.
 One-electron integral symmetry used in STVInt
 NBasis=   288 RedAO= T EigKep=  9.18D-06  NBF=   288
 NBsUse=   288 1.00D-06 EigRej= -1.00D+00 NBFU=   288
 Precomputing XC quadrature grid using
 IXCGrd= 4 IRadAn=           5 IRanWt=          -1 IRanGd=           0 AccXCQ= 0.00D+00.
 Generated NRdTot=       0 NPtTot=           0 NUsed=           0 NTot=          32
 NSgBfM=   295   295   295   295   295 MxSgAt=    22 MxSgA2=    22.
 Leave Link  302 at Sun Jan 17 09:39:07 2021, MaxMem=  4026531840 cpu:               2.1 elap:               0.3
 (Enter /opt/ohpc/pub/libs/gaussian/g16-A.03/sandybridge/g16/l303.exe)
 DipDrv:  MaxL=1.
 Leave Link  303 at Sun Jan 17 09:39:07 2021, MaxMem=  4026531840 cpu:               0.3 elap:               0.1
 (Enter /opt/ohpc/pub/libs/gaussian/g16-A.03/sandybridge/g16/l401.exe)
 ExpMin= 9.52D-02 ExpMax= 1.36D+04 ExpMxC= 4.63D+02 IAcc=3 IRadAn=         5 AccDes= 0.00D+00
 Harris functional with IExCor=33909 and IRadAn=       5 diagonalized for initial guess.
 HarFok:  IExCor=33909 AccDes= 0.00D+00 IRadAn=         5 IDoV= 1 UseB2=F ITyADJ=14
 ICtDFT=  3500011 ScaDFX=  1.000000  1.000000  1.000000  1.000000
 FoFCou: FMM=F IPFlag=           0 FMFlag=      100000 FMFlg1=           0
         NFxFlg=           0 DoJE=T BraDBF=F KetDBF=T FulRan=T
         wScrn=  0.000000 ICntrl=       500 IOpCl=  0 I1Cent=   200000004 NGrid=           0
         NMat0=    1 NMatS0=      1 NMatT0=    0 NMatD0=    1 NMtDS0=    0 NMtDT0=    0
 Petite list used in FoFCou.
 Harris En= -449.474704718151    
 JPrj=0 DoOrth=F DoCkMO=F.
 Leave Link  401 at Sun Jan 17 09:39:08 2021, MaxMem=  4026531840 cpu:              13.7 elap:               1.8
 (Enter /opt/ohpc/pub/libs/gaussian/g16-A.03/sandybridge/g16/l502.exe)
 Integral symmetry usage will be decided dynamically.
 Closed shell SCF:
 Using DIIS extrapolation, IDIIS=    10.
 NGot=  4026531840 LenX=  4026346394 LenY=  4026255953
 Requested convergence on RMS density matrix=1.00D-06 within  32 cycles.
 Requested convergence on MAX density matrix=1.00D-04.
 Requested convergence on             energy=1.00D-04.
 Virtual orbitals will be shifted by   0.500 hartree.
 No special actions if energy rises.
 Dynamic level shift is on during FON iterations.

 Cycle   1  Pass 1  IDiag  1:
 FoFJK:  IHMeth= 1 ICntrl=       0 DoSepK=T KAlg= 0 I1Cent=           0 FoldK=F
 IRaf=         1 NMat=       1 IRICut=       1 DoRegI=T DoRafI=F ISym2E= 0 IDoP0=0 IntGTp=1.
 FoFCou: FMM=F IPFlag=           0 FMFlag=      100000 FMFlg1=           0
         NFxFlg=           0 DoJE=T BraDBF=F KetDBF=F FulRan=T
         wScrn=  0.000000 ICntrl=       500 IOpCl=  0 I1Cent=           0 NGrid=           0
         NMat0=    1 NMatS0=      1 NMatT0=    0 NMatD0=    1 NMtDS0=    0 NMtDT0=    0
 Symmetry not used in FoFCou.
 E= -462.927664764609    
 DIIS: error= 2.55D-02 at cycle   1 NSaved=   1.
 NSaved= 1 IEnMin= 1 EnMin= -462.927664764609     IErMin= 1 ErrMin= 2.55D-02
 ErrMax= 2.55D-02  0.00D+00 EMaxC= 1.00D+00 BMatC= 1.40D-01 BMatP= 1.40D-01
 IDIUse=1 WtCom= 1.00D+00 WtEn= 0.00D+00
 Coeff-Com:  0.100D+01
 Coeff:      0.100D+01
 Gap=     0.350 Goal=   None    Shift=    0.500
 T= 1400. Gap= 0.841 NK=0 IS=   42 IE=  288 IFin=   41
          NO(<0.9)=   0  NV(>0.1)=   0     41.00e < EF      0.00e >EF  Err=0.0D+00
 GapD=    0.350 DampG=1.000 DampE=0.500 DampFc=0.5000 IDamp=-1.
 Damping current iteration by 5.00D-01
 RMSDP=3.09D-03 MaxDP=1.03D-01              OVMax= 5.28D-02

 Cycle   2  Pass 1  IDiag  1:
 E= -463.009148160005     Delta-E=       -0.081483395396 Rises=F Damp=T
 DIIS: error= 1.22D-02 at cycle   2 NSaved=   2.
 NSaved= 2 IEnMin= 2 EnMin= -463.009148160005     IErMin= 2 ErrMin= 1.22D-02
 ErrMax= 1.22D-02  0.00D+00 EMaxC= 1.00D+00 BMatC= 3.01D-02 BMatP= 1.40D-01
 IDIUse=1 WtCom= 1.00D+00 WtEn= 0.00D+00
 Coeff-Com: -0.777D+00 0.178D+01
 Coeff:     -0.777D+00 0.178D+01
 Gap=     0.356 Goal=   None    Shift=    0.500
 T= 1284. Gap= 0.853 NK=0 IS=   42 IE=  288 IFin=   41
          NO(<0.9)=   0  NV(>0.1)=   0     41.00e < EF      0.00e >EF  Err=0.0D+00
 GapD=    0.356 DampG=1.000 DampE=0.500 DampFc=0.5000 IDamp=-1.
 Damping current iteration by 5.00D-01
 RMSDP=2.15D-03 MaxDP=7.47D-02 DE=-8.15D-02 OVMax= 8.85D-03

 Cycle   3  Pass 1  IDiag  1:
 E= -463.040307155855     Delta-E=       -0.031158995849 Rises=F Damp=T
 DIIS: error= 5.78D-03 at cycle   3 NSaved=   3.
 NSaved= 3 IEnMin= 3 EnMin= -463.040307155855     IErMin= 3 ErrMin= 5.78D-03
 ErrMax= 5.78D-03  0.00D+00 EMaxC= 1.00D+00 BMatC= 7.03D-03 BMatP= 3.01D-02
 IDIUse=1 WtCom= 1.00D+00 WtEn= 0.00D+00
 Coeff-Com:  0.973D-01-0.121D+01 0.211D+01
 Coeff:      0.973D-01-0.121D+01 0.211D+01
 Gap=     0.354 Goal=   None    Shift=    0.500
 T= 1060. Gap= 0.853 NK=0 IS=   42 IE=  288 IFin=   41
          NO(<0.9)=   0  NV(>0.1)=   0     41.00e < EF      0.00e >EF  Err=0.0D+00
 GapD=    0.354 DampG=1.000 DampE=1.000 DampFc=1.0000 IDamp=-1.
 RMSDP=1.32D-03 MaxDP=4.40D-02 DE=-3.12D-02 OVMax= 5.64D-03

 Cycle   4  Pass 1  IDiag  1:
 E= -463.066901350129     Delta-E=       -0.026594194275 Rises=F Damp=F
 DIIS: error= 8.50D-04 at cycle   4 NSaved=   4.
 NSaved= 4 IEnMin= 4 EnMin= -463.066901350129     IErMin= 4 ErrMin= 8.50D-04
 ErrMax= 8.50D-04  0.00D+00 EMaxC= 1.00D+00 BMatC= 6.66D-05 BMatP= 7.03D-03
 IDIUse=1 WtCom= 1.00D+00 WtEn= 0.00D+00
 Coeff-Com:  0.611D-01-0.800D-01-0.778D-01 0.110D+01
 Coeff:      0.611D-01-0.800D-01-0.778D-01 0.110D+01
 Gap=     0.354 Goal=   None    Shift=    0.500
 RMSDP=1.27D-04 MaxDP=3.24D-03 DE=-2.66D-02 OVMax= 2.52D-03

 Cycle   5  Pass 1  IDiag  1:
 E= -463.067023327264     Delta-E=       -0.000121977135 Rises=F Damp=F
 DIIS: error= 6.13D-04 at cycle   5 NSaved=   5.
 NSaved= 5 IEnMin= 5 EnMin= -463.067023327264     IErMin= 5 ErrMin= 6.13D-04
 ErrMax= 6.13D-04  0.00D+00 EMaxC= 1.00D+00 BMatC= 1.31D-05 BMatP= 6.66D-05
 IDIUse=1 WtCom= 1.00D+00 WtEn= 0.00D+00
 Coeff-Com: -0.117D-01 0.184D+00-0.333D+00-0.166D+00 0.133D+01
 Coeff:     -0.117D-01 0.184D+00-0.333D+00-0.166D+00 0.133D+01
 Gap=     0.355 Goal=   None    Shift=    0.500
 RMSDP=6.28D-05 MaxDP=1.10D-03 DE=-1.22D-04 OVMax= 2.33D-03

 Cycle   6  Pass 1  IDiag  1:
 E= -463.067062541593     Delta-E=       -0.000039214329 Rises=F Damp=F
 DIIS: error= 3.87D-04 at cycle   6 NSaved=   6.
 NSaved= 6 IEnMin= 6 EnMin= -463.067062541593     IErMin= 6 ErrMin= 3.87D-04
 ErrMax= 3.87D-04  0.00D+00 EMaxC= 1.00D+00 BMatC= 3.63D-06 BMatP= 1.31D-05
 IDIUse=1 WtCom= 1.00D+00 WtEn= 0.00D+00
 Coeff-Com: -0.986D-02-0.292D-01 0.943D-01-0.177D+00-0.811D+00 0.193D+01
 Coeff:     -0.986D-02-0.292D-01 0.943D-01-0.177D+00-0.811D+00 0.193D+01
 Gap=     0.355 Goal=   None    Shift=    0.500
 RMSDP=4.16D-05 MaxDP=6.71D-04 DE=-3.92D-05 OVMax= 1.66D-03

 Cycle   7  Pass 1  IDiag  1:
 E= -463.067076797123     Delta-E=       -0.000014255530 Rises=F Damp=F
 DIIS: error= 2.48D-04 at cycle   7 NSaved=   7.
 NSaved= 7 IEnMin= 7 EnMin= -463.067076797123     IErMin= 7 ErrMin= 2.48D-04
 ErrMax= 2.48D-04  0.00D+00 EMaxC= 1.00D+00 BMatC= 1.10D-06 BMatP= 3.63D-06
 IDIUse=1 WtCom= 1.00D+00 WtEn= 0.00D+00
 Coeff-Com:  0.459D-02-0.261D-01 0.358D-01 0.691D-01-0.119D+00-0.111D+01
 Coeff-Com:  0.215D+01
 Coeff:      0.459D-02-0.261D-01 0.358D-01 0.691D-01-0.119D+00-0.111D+01
 Coeff:      0.215D+01
 Gap=     0.355 Goal=   None    Shift=    0.500
 RMSDP=2.50D-05 MaxDP=3.75D-04 DE=-1.43D-05 OVMax= 1.09D-03

 Cycle   8  Pass 1  IDiag  1:
 E= -463.067081661328     Delta-E=       -0.000004864205 Rises=F Damp=F
 DIIS: error= 1.58D-04 at cycle   8 NSaved=   8.
 NSaved= 8 IEnMin= 8 EnMin= -463.067081661328     IErMin= 8 ErrMin= 1.58D-04
 ErrMax= 1.58D-04  0.00D+00 EMaxC= 1.00D+00 BMatC= 3.63D-07 BMatP= 1.10D-06
 IDIUse=1 WtCom= 1.00D+00 WtEn= 0.00D+00
 Coeff-Com:  0.367D-02 0.201D-02-0.171D-01 0.793D-01 0.115D+00-0.766D+00
 Coeff-Com: -0.863D-01 0.167D+01
 Coeff:      0.367D-02 0.201D-02-0.171D-01 0.793D-01 0.115D+00-0.766D+00
 Coeff:     -0.863D-01 0.167D+01
 Gap=     0.355 Goal=   None    Shift=    0.500
 RMSDP=1.23D-05 MaxDP=1.70D-04 DE=-4.86D-06 OVMax= 7.02D-04

 Cycle   9  Pass 1  IDiag  1:
 E= -463.067083330757     Delta-E=       -0.000001669429 Rises=F Damp=F
 DIIS: error= 9.40D-05 at cycle   9 NSaved=   9.
 NSaved= 9 IEnMin= 9 EnMin= -463.067083330757     IErMin= 9 ErrMin= 9.40D-05
 ErrMax= 9.40D-05  0.00D+00 EMaxC= 1.00D+00 BMatC= 1.20D-07 BMatP= 3.63D-07
 IDIUse=1 WtCom= 1.00D+00 WtEn= 0.00D+00
 Coeff-Com: -0.540D-03 0.797D-02-0.138D-01 0.541D-02 0.286D-01 0.217D+00
 Coeff-Com: -0.849D+00-0.254D+00 0.186D+01
 Coeff:     -0.540D-03 0.797D-02-0.138D-01 0.541D-02 0.286D-01 0.217D+00
 Coeff:     -0.849D+00-0.254D+00 0.186D+01
 Gap=     0.355 Goal=   None    Shift=    0.500
 RMSDP=5.23D-06 MaxDP=8.86D-05 DE=-1.67D-06 OVMax= 4.35D-04

 Cycle  10  Pass 1  IDiag  1:
 E= -463.067083912784     Delta-E=       -0.000000582027 Rises=F Damp=F
 DIIS: error= 5.44D-05 at cycle  10 NSaved=  10.
 NSaved=10 IEnMin=10 EnMin= -463.067083912784     IErMin=10 ErrMin= 5.44D-05
 ErrMax= 5.44D-05  0.00D+00 EMaxC= 1.00D+00 BMatC= 3.86D-08 BMatP= 1.20D-07
 IDIUse=1 WtCom= 1.00D+00 WtEn= 0.00D+00
 Coeff-Com: -0.867D-03-0.128D-02 0.571D-02-0.200D-01-0.339D-01 0.252D+00
 Coeff-Com: -0.131D+00-0.649D+00-0.364D+00 0.194D+01
 Coeff:     -0.867D-03-0.128D-02 0.571D-02-0.200D-01-0.339D-01 0.252D+00
 Coeff:     -0.131D+00-0.649D+00-0.364D+00 0.194D+01
 Gap=     0.355 Goal=   None    Shift=    0.500
 RMSDP=2.21D-06 MaxDP=4.95D-05 DE=-5.82D-07 OVMax= 2.60D-04

 Cycle  11  Pass 1  IDiag  1:
 E= -463.067084106483     Delta-E=       -0.000000193699 Rises=F Damp=F
 DIIS: error= 3.03D-05 at cycle  11 NSaved=  11.
 NSaved=11 IEnMin=11 EnMin= -463.067084106483     IErMin=11 ErrMin= 3.03D-05
 ErrMax= 3.03D-05  0.00D+00 EMaxC= 1.00D+00 BMatC= 1.19D-08 BMatP= 3.86D-08
 IDIUse=1 WtCom= 1.00D+00 WtEn= 0.00D+00
 Coeff-Com:  0.235D-03-0.887D-03 0.907D-03 0.447D-02 0.239D-02-0.861D-01
 Coeff-Com:  0.164D+00 0.852D-01-0.146D+00-0.169D+01 0.266D+01
 Coeff:      0.235D-03-0.887D-03 0.907D-03 0.447D-02 0.239D-02-0.861D-01
 Coeff:      0.164D+00 0.852D-01-0.146D+00-0.169D+01 0.266D+01
 Gap=     0.355 Goal=   None    Shift=    0.500
 RMSDP=1.07D-06 MaxDP=2.64D-05 DE=-1.94D-07 OVMax= 1.46D-04

 Cycle  12  Pass 1  IDiag  1:
 E= -463.067084166369     Delta-E=       -0.000000059886 Rises=F Damp=F
 DIIS: error= 1.68D-05 at cycle  12 NSaved=  12.
 NSaved=12 IEnMin=12 EnMin= -463.067084166369     IErMin=12 ErrMin= 1.68D-05
 ErrMax= 1.68D-05  0.00D+00 EMaxC= 1.00D+00 BMatC= 3.69D-09 BMatP= 1.19D-08
 IDIUse=1 WtCom= 1.00D+00 WtEn= 0.00D+00
 Coeff-Com:  0.106D-04 0.410D-03-0.846D-03 0.221D-02 0.104D-02-0.170D-01
 Coeff-Com:  0.174D-01 0.325D-01 0.127D-01-0.218D+00-0.956D+00 0.213D+01
 Coeff:      0.106D-04 0.410D-03-0.846D-03 0.221D-02 0.104D-02-0.170D-01
 Coeff:      0.174D-01 0.325D-01 0.127D-01-0.218D+00-0.956D+00 0.213D+01
 Gap=     0.355 Goal=   None    Shift=    0.500
 RMSDP=5.42D-07 MaxDP=1.42D-05 DE=-5.99D-08 OVMax= 8.07D-05

 SCF Done:  E(RLC-wHPBE) =  -463.067084166     A.U. after   12 cycles
            NFock= 12  Conv=0.54D-06     -V/T= 2.0059
 KE= 4.603285886009D+02 PE=-2.270848701600D+03 EE= 7.489806815438D+02
 Leave Link  502 at Sun Jan 17 09:40:24 2021, MaxMem=  4026531840 cpu:             600.6 elap:              75.4
 (Enter /opt/ohpc/pub/libs/gaussian/g16-A.03/sandybridge/g16/l508.exe)
 QCSCF skips out because SCF is already converged.
 Leave Link  508 at Sun Jan 17 09:40:24 2021, MaxMem=  4026531840 cpu:               0.1 elap:               0.0
 (Enter /opt/ohpc/pub/libs/gaussian/g16-A.03/sandybridge/g16/l601.exe)
 Copying SCF densities to generalized density rwf, IOpCl= 0 IROHF=0.

 **********************************************************************

            Population analysis using the SCF density.

 **********************************************************************

 Orbital symmetries:
       Occupied  (A) (A) (A) (A) (A) (A) (A) (A) (A) (A) (A) (A)
                 (A) (A) (A) (A) (A) (A) (A) (A) (A) (A) (A) (A)
                 (A) (A) (A) (A) (A) (A) (A) (A) (A) (A) (A) (A)
                 (A) (A) (A) (A) (A)
       Virtual   (A) (A) (A) (A) (A) (A) (A) (A) (A) (A) (A) (A)
                 (A) (A) (A) (A) (A) (A) (A) (A) (A) (A) (A) (A)
                 (A) (A) (A) (A) (A) (A) (A) (A) (A) (A) (A) (A)
                 (A) (A) (A) (A) (A) (A) (A) (A) (A) (A) (A) (A)
                 (A) (A) (A) (A) (A) (A) (A) (A) (A) (A) (A) (A)
                 (A) (A) (A) (A) (A) (A) (A) (A) (A) (A) (A) (A)
                 (A) (A) (A) (A) (A) (A) (A) (A) (A) (A) (A) (A)
                 (A) (A) (A) (A) (A) (A) (A) (A) (A) (A) (A) (A)
                 (A) (A) (A) (A) (A) (A) (A) (A) (A) (A) (A) (A)
                 (A) (A) (A) (A) (A) (A) (A) (A) (A) (A) (A) (A)
                 (A) (A) (A) (A) (A) (A) (A) (A) (A) (A) (A) (A)
                 (A) (A) (A) (A) (A) (A) (A) (A) (A) (A) (A) (A)
                 (A) (A) (A) (A) (A) (A) (A) (A) (A) (A) (A) (A)
                 (A) (A) (A) (A) (A) (A) (A) (A) (A) (A) (A) (A)
                 (A) (A) (A) (A) (A) (A) (A) (A) (A) (A) (A) (A)
                 (A) (A) (A) (A) (A) (A) (A) (A) (A) (A) (A) (A)
                 (A) (A) (A) (A) (A) (A) (A) (A) (A) (A) (A) (A)
                 (A) (A) (A) (A) (A) (A) (A) (A) (A) (A) (A) (A)
                 (A) (A) (A) (A) (A) (A) (A) (A) (A) (A) (A) (A)
                 (A) (A) (A) (A) (A) (A) (A) (A) (A) (A) (A) (A)
                 (A) (A) (A) (A) (A) (A) (A)
 The electronic state is 1-A.
 Alpha  occ. eigenvalues --  -10.08749 -10.08735 -10.07611 -10.07610 -10.07608
 Alpha  occ. eigenvalues --  -10.07608 -10.07550 -10.07549 -10.07547 -10.07547
 Alpha  occ. eigenvalues --  -10.07497 -10.07497  -0.98660  -0.96398  -0.89369
 Alpha  occ. eigenvalues --   -0.86554  -0.85746  -0.83456  -0.73694  -0.73167
 Alpha  occ. eigenvalues --   -0.70214  -0.68886  -0.64671  -0.60939  -0.57632
 Alpha  occ. eigenvalues --   -0.57261  -0.54567  -0.54528  -0.52926  -0.52483
 Alpha  occ. eigenvalues --   -0.52207  -0.49530  -0.47809  -0.46621  -0.45087
 Alpha  occ. eigenvalues --   -0.43549  -0.43350  -0.37813  -0.35341  -0.35280
 Alpha  occ. eigenvalues --   -0.32138
 Alpha virt. eigenvalues --    0.03370   0.05983   0.06243   0.09363   0.13104
 Alpha virt. eigenvalues --    0.13664   0.15193   0.16444   0.17014   0.18546
 Alpha virt. eigenvalues --    0.18798   0.19596   0.20554   0.20600   0.23296
 Alpha virt. eigenvalues --    0.23585   0.23678   0.24454   0.28734   0.28756
 Alpha virt. eigenvalues --    0.28784   0.29034   0.30644   0.30987   0.31113
 Alpha virt. eigenvalues --    0.31225   0.32102   0.32589   0.33460   0.33497
 Alpha virt. eigenvalues --    0.34750   0.35321   0.36944   0.37217   0.37804
 Alpha virt. eigenvalues --    0.38580   0.40071   0.41040   0.42876   0.43181
 Alpha virt. eigenvalues --    0.43477   0.44050   0.45279   0.45642   0.46140
 Alpha virt. eigenvalues --    0.46842   0.47887   0.49273   0.49537   0.50289
 Alpha virt. eigenvalues --    0.50373   0.50616   0.50836   0.51166   0.52076
 Alpha virt. eigenvalues --    0.54244   0.54419   0.55203   0.56403   0.56501
 Alpha virt. eigenvalues --    0.58150   0.58330   0.58361   0.60144   0.61299
 Alpha virt. eigenvalues --    0.61316   0.61716   0.62383   0.63928   0.67819
 Alpha virt. eigenvalues --    0.67996   0.71199   0.72631   0.74546   0.75686
 Alpha virt. eigenvalues --    0.78237   0.78303   0.78666   0.80298   0.80370
 Alpha virt. eigenvalues --    0.80704   0.83460   0.85896   0.89098   0.91201
 Alpha virt. eigenvalues --    0.97251   0.98574   1.18472   1.28265   1.29178
 Alpha virt. eigenvalues --    1.32522   1.32716   1.33289   1.33463   1.33961
 Alpha virt. eigenvalues --    1.34140   1.35600   1.37209   1.37954   1.38892
 Alpha virt. eigenvalues --    1.39032   1.39675   1.40091   1.40541   1.40720
 Alpha virt. eigenvalues --    1.41011   1.41756   1.42906   1.44893   1.49947
 Alpha virt. eigenvalues --    1.49966   1.51346   1.51635   1.53360   1.53549
 Alpha virt. eigenvalues --    1.53639   1.53683   1.55308   1.55725   1.56359
 Alpha virt. eigenvalues --    1.56786   1.56853   1.58313   1.58359   1.58360
 Alpha virt. eigenvalues --    1.60326   1.60687   1.61257   1.62552   1.62784
 Alpha virt. eigenvalues --    1.64929   1.65605   1.66054   1.66448   1.67601
 Alpha virt. eigenvalues --    1.67685   1.73947   1.74559   1.78281   1.82857
 Alpha virt. eigenvalues --    1.85458   1.86525   1.86689   1.86729   1.88086
 Alpha virt. eigenvalues --    1.89153   1.89974   1.90485   1.95251   1.96306
 Alpha virt. eigenvalues --    1.96390   1.96920   1.96990   1.97377   1.99181
 Alpha virt. eigenvalues --    1.99566   1.99818   2.00303   2.00788   2.02982
 Alpha virt. eigenvalues --    2.03462   2.03879   2.06692   2.07620   2.08662
 Alpha virt. eigenvalues --    2.09836   2.10546   2.10770   2.17759   2.18618
 Alpha virt. eigenvalues --    2.20596   2.33191   2.35107   2.35209   2.37438
 Alpha virt. eigenvalues --    2.37665   2.38238   2.39642   2.39676   2.42632
 Alpha virt. eigenvalues --    2.42945   2.43054   2.43138   2.44004   2.45044
 Alpha virt. eigenvalues --    2.45412   2.53260   2.56637   2.57547   2.57757
 Alpha virt. eigenvalues --    2.59280   2.60680   2.61486   2.62016   2.66900
 Alpha virt. eigenvalues --    2.68862   2.72088   2.72455   2.72856   2.73060
 Alpha virt. eigenvalues --    2.75092   2.76960   2.77054   2.77622   2.78940
 Alpha virt. eigenvalues --    2.82578   2.88114   2.88151   2.88613   2.91362
 Alpha virt. eigenvalues --    3.05729   3.06430   3.08606   3.11501   3.11729
 Alpha virt. eigenvalues --    3.12004   3.14298   3.16834   3.18639   3.19800
 Alpha virt. eigenvalues --    3.22946   3.23558   3.25699   3.26159   3.28451
 Alpha virt. eigenvalues --    3.29665   3.38518   3.41186   3.41808   3.47589
 Alpha virt. eigenvalues --    3.48265   3.59718   3.63170   3.80989   3.90325
 Alpha virt. eigenvalues --   21.09283  21.37184  21.64537  21.74176  21.77083
 Alpha virt. eigenvalues --   21.84319  21.96819  21.99005  22.01842  22.04383
 Alpha virt. eigenvalues --   22.13532  22.16553
          Condensed to atoms (all electrons):
               1          2          3          4          5          6
     1  C    4.941850   0.510484   0.448064  -0.032963  -0.040034  -0.086324
     2  C    0.510484   4.925907  -0.048053   0.510404  -0.048075  -0.047941
     3  C    0.448064  -0.048053   5.108787  -0.086234   0.480636  -0.047660
     4  C   -0.032963   0.510404  -0.086234   4.941956  -0.039998   0.447896
     5  C   -0.040034  -0.048075   0.480636  -0.039998   5.212342   0.480411
     6  C   -0.086324  -0.047941  -0.047660   0.447896   0.480411   5.109135
     7  H   -0.045603   0.411013   0.013538  -0.045612  -0.003099   0.013543
     8  H   -0.022421   0.006717   0.391218  -0.000808  -0.036655   0.010819
     9  H    0.009139  -0.042977   0.000080   0.404934   0.010618  -0.038822
    10  H   -0.000806   0.006712   0.010815  -0.022392  -0.036637   0.391199
    11  C    0.020224   0.002842  -0.084935   0.020222   0.168106  -0.084900
    12  C   -0.000071  -0.000159   0.019723   0.002928  -0.084896  -0.015146
    13  C    0.002896  -0.000145  -0.015118  -0.000089  -0.084970   0.019795
    14  C    0.000049  -0.000001  -0.000080  -0.000233   0.020232   0.002900
    15  C   -0.000234  -0.000001   0.002920   0.000048   0.020235  -0.000085
    16  C   -0.000001  -0.000004  -0.000155  -0.000001   0.002835  -0.000147
    17  H   -0.000019   0.000023  -0.000257   0.000701  -0.013270   0.002329
    18  H    0.000704   0.000022   0.002315  -0.000018  -0.013261  -0.000259
    19  H   -0.000001   0.000000   0.000014  -0.000005  -0.001071   0.000005
    20  H   -0.000005   0.000000   0.000006  -0.000001  -0.001070   0.000013
    21  H    0.000000  -0.000000  -0.000003   0.000000  -0.000116  -0.000003
    22  H    0.404927  -0.042970  -0.038821   0.009138   0.010618   0.000079
               7          8          9         10         11         12
     1  C   -0.045603  -0.022421   0.009139  -0.000806   0.020224  -0.000071
     2  C    0.411013   0.006717  -0.042977   0.006712   0.002842  -0.000159
     3  C    0.013538   0.391218   0.000080   0.010815  -0.084935   0.019723
     4  C   -0.045612  -0.000808   0.404934  -0.022392   0.020222   0.002928
     5  C   -0.003099  -0.036655   0.010618  -0.036637   0.168106  -0.084896
     6  C    0.013543   0.010819  -0.038822   0.391199  -0.084900  -0.015146
     7  H    0.541016  -0.000160  -0.005547  -0.000160  -0.000116  -0.000003
     8  H   -0.000160   0.514670   0.000026  -0.000145  -0.013258  -0.000257
     9  H   -0.005547   0.000026   0.543178  -0.004207  -0.001071   0.000006
    10  H   -0.000160  -0.000145  -0.004207   0.514651  -0.013274   0.002319
    11  C   -0.000116  -0.013258  -0.001071  -0.013274   5.212274   0.480650
    12  C   -0.000003  -0.000257   0.000006   0.002319   0.480650   5.108759
    13  C   -0.000003   0.002329   0.000013  -0.000259   0.480470  -0.047680
    14  C    0.000000  -0.000019  -0.000005   0.000702  -0.040054   0.448092
    15  C    0.000000   0.000700  -0.000001  -0.000018  -0.040014  -0.086237
    16  C   -0.000000   0.000023   0.000000   0.000022  -0.048057  -0.048078
    17  H   -0.000002  -0.000012   0.000006  -0.000385  -0.036653   0.391216
    18  H   -0.000002  -0.000384  -0.000000  -0.000012  -0.036629   0.010813
    19  H   -0.000000  -0.000000  -0.000000   0.000006   0.010615  -0.038812
    20  H   -0.000000   0.000006   0.000000  -0.000000   0.010620   0.000081
    21  H   -0.000000  -0.000002  -0.000000  -0.000002  -0.003099   0.013539
    22  H   -0.005548  -0.004209  -0.000185   0.000026  -0.001070   0.000014
              13         14         15         16         17         18
     1  C    0.002896   0.000049  -0.000234  -0.000001  -0.000019   0.000704
     2  C   -0.000145  -0.000001  -0.000001  -0.000004   0.000023   0.000022
     3  C   -0.015118  -0.000080   0.002920  -0.000155  -0.000257   0.002315
     4  C   -0.000089  -0.000233   0.000048  -0.000001   0.000701  -0.000018
     5  C   -0.084970   0.020232   0.020235   0.002835  -0.013270  -0.013261
     6  C    0.019795   0.002900  -0.000085  -0.000147   0.002329  -0.000259
     7  H   -0.000003   0.000000   0.000000  -0.000000  -0.000002  -0.000002
     8  H    0.002329  -0.000019   0.000700   0.000023  -0.000012  -0.000384
     9  H    0.000013  -0.000005  -0.000001   0.000000   0.000006  -0.000000
    10  H   -0.000259   0.000702  -0.000018   0.000022  -0.000385  -0.000012
    11  C    0.480470  -0.040054  -0.040014  -0.048057  -0.036653  -0.036629
    12  C   -0.047680   0.448092  -0.086237  -0.048078   0.391216   0.010813
    13  C    5.109117  -0.086291   0.447894  -0.047947   0.010819   0.391194
    14  C   -0.086291   4.941831  -0.032981   0.510491  -0.022410  -0.000805
    15  C    0.447894  -0.032981   4.941951   0.510436  -0.000808  -0.022398
    16  C   -0.047947   0.510491   0.510436   4.925879   0.006716   0.006710
    17  H    0.010819  -0.022410  -0.000808   0.006716   0.514664  -0.000145
    18  H    0.391194  -0.000805  -0.022398   0.006710  -0.000145   0.514650
    19  H    0.000080   0.404921   0.009136  -0.042968  -0.004208   0.000026
    20  H   -0.038832   0.009139   0.404937  -0.042975   0.000026  -0.004208
    21  H    0.013541  -0.045602  -0.045611   0.411011  -0.000160  -0.000160
    22  H    0.000005  -0.000001  -0.000005   0.000000  -0.000000   0.000006
              19         20         21         22
     1  C   -0.000001  -0.000005   0.000000   0.404927
     2  C    0.000000   0.000000  -0.000000  -0.042970
     3  C    0.000014   0.000006  -0.000003  -0.038821
     4  C   -0.000005  -0.000001   0.000000   0.009138
     5  C   -0.001071  -0.001070  -0.000116   0.010618
     6  C    0.000005   0.000013  -0.000003   0.000079
     7  H   -0.000000  -0.000000  -0.000000  -0.005548
     8  H   -0.000000   0.000006  -0.000002  -0.004209
     9  H   -0.000000   0.000000  -0.000000  -0.000185
    10  H    0.000006  -0.000000  -0.000002   0.000026
    11  C    0.010615   0.010620  -0.003099  -0.001070
    12  C   -0.038812   0.000081   0.013539   0.000014
    13  C    0.000080  -0.038832   0.013541   0.000005
    14  C    0.404921   0.009139  -0.045602  -0.000001
    15  C    0.009136   0.404937  -0.045611  -0.000005
    16  C   -0.042968  -0.042975   0.411011   0.000000
    17  H   -0.004208   0.000026  -0.000160  -0.000000
    18  H    0.000026  -0.004208  -0.000160   0.000006
    19  H    0.543178  -0.000186  -0.005547   0.000000
    20  H   -0.000186   0.543181  -0.005547  -0.000000
    21  H   -0.005547  -0.005547   0.541015  -0.000000
    22  H    0.000000  -0.000000  -0.000000   0.543180
 Mulliken charges:
               1
     1  C   -0.109855
     2  C   -0.143798
     3  C   -0.156799
     4  C   -0.109873
     5  C   -0.002880
     6  C   -0.156838
     7  H    0.126744
     8  H    0.151821
     9  H    0.124815
    10  H    0.151845
    11  C   -0.002891
    12  C   -0.156800
    13  C   -0.156817
    14  C   -0.109877
    15  C   -0.109865
    16  C   -0.143791
    17  H    0.151829
    18  H    0.151841
    19  H    0.124815
    20  H    0.124814
    21  H    0.126744
    22  H    0.124816
 Sum of Mulliken charges =  -0.00000
 Mulliken charges with hydrogens summed into heavy atoms:
               1
     1  C    0.014961
     2  C   -0.017055
     3  C   -0.004978
     4  C    0.014942
     5  C   -0.002880
     6  C   -0.004993
    11  C   -0.002891
    12  C   -0.004970
    13  C   -0.004976
    14  C    0.014938
    15  C    0.014949
    16  C   -0.017046
 Electronic spatial extent (au):  <R**2>=           2313.1577
 Charge=             -0.0000 electrons
 Dipole moment (field-independent basis, Debye):
    X=             -0.0000    Y=              0.0001    Z=              0.0003  Tot=              0.0003
 Quadrupole moment (field-independent basis, Debye-Ang):
   XX=            -61.3344   YY=            -63.0297   ZZ=            -75.1515
   XY=              0.0005   XZ=              0.0006   YZ=             -0.0002
 Traceless Quadrupole moment (field-independent basis, Debye-Ang):
   XX=              5.1707   YY=              3.4755   ZZ=             -8.6463
   XY=              0.0005   XZ=              0.0006   YZ=             -0.0002
 Octapole moment (field-independent basis, Debye-Ang**2):
  XXX=             -0.0002  YYY=              0.0016  ZZZ=              0.0005  XYY=             -0.0005
  XXY=              0.0010  XXZ=              0.0079  XZZ=              0.0002  YZZ=             -0.0010
  YYZ=              0.0003  XYZ=            -12.3127
 Hexadecapole moment (field-independent basis, Debye-Ang**3):
 XXXX=          -2294.9419 YYYY=           -498.3859 ZZZZ=           -156.2883 XXXY=             -0.0041
 XXXZ=              0.0049 YYYX=              0.0086 YYYZ=             -0.0007 ZZZX=              0.0018
 ZZZY=             -0.0007 XXYY=           -475.5176 XXZZ=           -495.1547 YYZZ=           -111.8459
 XXYZ=             -0.0004 YYXZ=              0.0021 ZZXY=             -0.0021
 N-N= 5.984723472889D+02 E-N=-2.270848754223D+03  KE= 4.603285886009D+02
 No NMR shielding tensors so no spin-rotation constants.
 Leave Link  601 at Sun Jan 17 09:40:24 2021, MaxMem=  4026531840 cpu:               1.4 elap:               0.2
 (Enter /opt/ohpc/pub/libs/gaussian/g16-A.03/sandybridge/g16/l9999.exe)

 Test job not archived.
 1\1\GINC-CASCADEB028\SP\RLC-wHPBE\TZVP\C12H10\RDU230\17-Jan-2021\0\\#P
  LC-wHPBE/TZVP iop(3/107=0328100000, 3/108=0328100000) scf=(conver=6,f
 ermi,ndamp=35,noincfock,novaracc,vshift=500,xqc)\\H10 C12\\0,1\C,0,-2.
 8585,1.132993,0.41369\C,0,-3.561927,-0.000084,-0.000146\C,0,-1.463685,
 1.132747,0.413534\C,0,-2.858269,-1.133176,-0.413741\C,0,-0.742381,0.00
 0123,0.000091\C,0,-1.463491,-1.132675,-0.413489\H,0,-4.653174,-0.00016
 ,-0.000261\H,0,-0.922222,2.014213,0.762301\H,0,-3.398792,-2.020986,-0.
 747134\H,0,-0.921754,-2.014027,-0.762095\C,0,0.742385,0.000142,0.00019
 7\C,0,1.463539,-1.132637,0.413582\C,0,1.463636,1.132765,-0.413477\C,0,
 2.858357,-1.133114,0.41366\C,0,2.858412,1.133073,-0.413706\C,0,3.56193
 1,-0.000095,-0.000087\H,0,0.921935,-2.014039,0.762261\H,0,0.922017,2.0
 14128,-0.762265\H,0,3.398826,-2.021,0.746938\H,0,3.399026,2.020805,-0.
 747168\H,0,4.653184,-0.000117,-0.000198\H,0,-3.399078,2.020813,0.74697
 4\\Version=EM64L-G16RevA.03\State=1-A\HF=-463.0670842\RMSD=5.419e-07\D
 ipole=-0.0000097,-0.0000434,-0.0001204\Quadrupole=3.8443187,2.5839713,
 -6.42829,-0.000382,-0.0004131,-0.0001419\PG=C01 [X(C12H10)]\\@


 IF YOU WANT TO LEARN FROM THE THEORETICAL PHYSICISTS ABOUT THE
 METHODS WHICH THEY USE, I ADVISE YOU TO FOLLOW THIS PRINCIPLE VERY STRICTLY:
 DON'T LISTEN TO THEIR WORDS; PAY ATTENTION, INSTEAD, TO THEIR ACTIONS.
 -- A.EINSTEIN, 1934
 Job cpu time:       0 days  0 hours 10 minutes 21.7 seconds.
 Elapsed time:       0 days  0 hours  1 minutes 18.3 seconds.
 File lengths (MBytes):  RWF=     88 Int=      0 D2E=      0 Chk=     12 Scr=      8
 Normal termination of Gaussian 16 at Sun Jan 17 09:40:24 2021.
