 Entering Gaussian System, Link 0=g16
 Input=mol_bp_NN_frag_tune_n9.gjf
 Output=mol_bp_NN_frag_tune_n9.log
 Initial command:
 /opt/ohpc/pub/libs/gaussian/g16-A.03/sandybridge/g16/l1.exe "/mnt/gpfs2_4m/scratch/rdu230/ondemand/projects/init_structures/wtuning/mol_bp_NN_frag/tuning_mol_bp_NN_frag_ocycle0/Gau-303269.inp" -scrdir="/mnt/gpfs2_4m/scratch/rdu230/ondemand/projects/init_structures/wtuning/mol_bp_NN_frag/tuning_mol_bp_NN_frag_ocycle0/"
 Entering Link 1 = /opt/ohpc/pub/libs/gaussian/g16-A.03/sandybridge/g16/l1.exe PID=    303270.
  
 Copyright (c) 1988,1990,1992,1993,1995,1998,2003,2009,2016,
            Gaussian, Inc.  All Rights Reserved.
  
 This is part of the Gaussian(R) 16 program.  It is based on
 the Gaussian(R) 09 system (copyright 2009, Gaussian, Inc.),
 the Gaussian(R) 03 system (copyright 2003, Gaussian, Inc.),
 the Gaussian(R) 98 system (copyright 1998, Gaussian, Inc.),
 the Gaussian(R) 94 system (copyright 1995, Gaussian, Inc.),
 the Gaussian 92(TM) system (copyright 1992, Gaussian, Inc.),
 the Gaussian 90(TM) system (copyright 1990, Gaussian, Inc.),
 the Gaussian 88(TM) system (copyright 1988, Gaussian, Inc.),
 the Gaussian 86(TM) system (copyright 1986, Carnegie Mellon
 University), and the Gaussian 82(TM) system (copyright 1983,
 Carnegie Mellon University). Gaussian is a federally registered
 trademark of Gaussian, Inc.
  
 This software contains proprietary and confidential information,
 including trade secrets, belonging to Gaussian, Inc.
  
 This software is provided under written license and may be
 used, copied, transmitted, or stored only in accord with that
 written license.
  
 The following legend is applicable only to US Government
 contracts under FAR:
  
                    RESTRICTED RIGHTS LEGEND
  
 Use, reproduction and disclosure by the US Government is
 subject to restrictions as set forth in subparagraphs (a)
 and (c) of the Commercial Computer Software - Restricted
 Rights clause in FAR 52.227-19.
  
 Gaussian, Inc.
 340 Quinnipiac St., Bldg. 40, Wallingford CT 06492
  
  
 ---------------------------------------------------------------
 Warning -- This program may not be used in any manner that
 competes with the business of Gaussian, Inc. or will provide
 assistance to any competitor of Gaussian, Inc.  The licensee
 of this program is prohibited from giving any competitor of
 Gaussian, Inc. access to this program.  By using this program,
 the user acknowledges that Gaussian, Inc. is engaged in the
 business of creating and licensing software in the field of
 computational chemistry and represents and warrants to the
 licensee that it is not a competitor of Gaussian, Inc. and that
 it will not use this program in any manner prohibited above.
 ---------------------------------------------------------------
  

 Cite this work as:
 Gaussian 16, Revision A.03,
 M. J. Frisch, G. W. Trucks, H. B. Schlegel, G. E. Scuseria, 
 M. A. Robb, J. R. Cheeseman, G. Scalmani, V. Barone, 
 G. A. Petersson, H. Nakatsuji, X. Li, M. Caricato, A. V. Marenich, 
 J. Bloino, B. G. Janesko, R. Gomperts, B. Mennucci, H. P. Hratchian, 
 J. V. Ortiz, A. F. Izmaylov, J. L. Sonnenberg, D. Williams-Young, 
 F. Ding, F. Lipparini, F. Egidi, J. Goings, B. Peng, A. Petrone, 
 T. Henderson, D. Ranasinghe, V. G. Zakrzewski, J. Gao, N. Rega, 
 G. Zheng, W. Liang, M. Hada, M. Ehara, K. Toyota, R. Fukuda, 
 J. Hasegawa, M. Ishida, T. Nakajima, Y. Honda, O. Kitao, H. Nakai, 
 T. Vreven, K. Throssell, J. A. Montgomery, Jr., J. E. Peralta, 
 F. Ogliaro, M. J. Bearpark, J. J. Heyd, E. N. Brothers, K. N. Kudin, 
 V. N. Staroverov, T. A. Keith, R. Kobayashi, J. Normand, 
 K. Raghavachari, A. P. Rendell, J. C. Burant, S. S. Iyengar, 
 J. Tomasi, M. Cossi, J. M. Millam, M. Klene, C. Adamo, R. Cammi, 
 J. W. Ochterski, R. L. Martin, K. Morokuma, O. Farkas, 
 J. B. Foresman, and D. J. Fox, Gaussian, Inc., Wallingford CT, 2016.
 
 ******************************************
 Gaussian 16:  EM64L-G16RevA.03 25-Dec-2016
                17-Jan-2021 
 ******************************************
 %mem=30GB
 %nproc=8
 Will use up to    8 processors via shared memory.
 ----------------------------------------------------------------------
 #P LC-wHPBE/TZVP iop(3/107=0235400000, 3/108=0235400000) scf=(conver=6
 ,fermi,ndamp=35,noincfock,novaracc,vshift=500,xqc)
 ----------------------------------------------------------------------
 1/38=1,172=1/1;
 2/12=2,17=6,18=5,40=1/2;
 3/5=19,7=101,11=2,25=1,30=1,74=-71,107=235400000,108=235400000/1,2,3;
 4//1;
 5/5=100002,6=6,8=3,10=500,13=1,18=-1,22=13,38=1,93=35/2,8;
 6/7=2,8=2,9=2,10=2,28=1/1;
 99/5=1,9=1/99;
 Leave Link    1 at Sun Jan 17 10:08:18 2021, MaxMem=  4026531840 cpu:               1.3 elap:               0.2
 (Enter /opt/ohpc/pub/libs/gaussian/g16-A.03/sandybridge/g16/l101.exe)
 -------
 H10 C12
 -------
 Symbolic Z-matrix:
 Charge =  0 Multiplicity = 1
 C                    -2.8585    1.13299   0.41369 
 C                    -3.56193  -0.00008  -0.00015 
 C                    -1.46369   1.13275   0.41353 
 C                    -2.85827  -1.13318  -0.41374 
 C                    -0.74238   0.00012   0.00009 
 C                    -1.46349  -1.13268  -0.41349 
 H                    -4.65317  -0.00016  -0.00026 
 H                    -0.92222   2.01421   0.7623 
 H                    -3.39879  -2.02099  -0.74713 
 H                    -0.92175  -2.01403  -0.7621 
 C                     0.74239   0.00014   0.0002 
 C                     1.46354  -1.13264   0.41358 
 C                     1.46364   1.13277  -0.41348 
 C                     2.85836  -1.13311   0.41366 
 C                     2.85841   1.13307  -0.41371 
 C                     3.56193  -0.0001   -0.00009 
 H                     0.92194  -2.01404   0.76226 
 H                     0.92202   2.01413  -0.76227 
 H                     3.39883  -2.021     0.74694 
 H                     3.39903   2.02081  -0.74717 
 H                     4.65318  -0.00012  -0.0002 
 H                    -3.39908   2.02081   0.74697 
 
 ITRead=  0  0  0  0  0  0  0  0  0  0  0  0  0  0  0  0  0  0  0  0
 ITRead=  0  0
 MicOpt= -1 -1 -1 -1 -1 -1 -1 -1 -1 -1 -1 -1 -1 -1 -1 -1 -1 -1 -1 -1
 MicOpt= -1 -1
 NAtoms=     22 NQM=       22 NQMF=       0 NMMI=      0 NMMIF=      0
                NMic=       0 NMicF=      0.
                    Isotopes and Nuclear Properties:
 (Nuclear quadrupole moments (NQMom) in fm**2, nuclear magnetic moments (NMagM)
  in nuclear magnetons)

  Atom         1           2           3           4           5           6           7           8           9          10
 IAtWgt=          12          12          12          12          12          12           1           1           1           1
 AtmWgt=  12.0000000  12.0000000  12.0000000  12.0000000  12.0000000  12.0000000   1.0078250   1.0078250   1.0078250   1.0078250
 NucSpn=           0           0           0           0           0           0           1           1           1           1
 AtZEff=  -0.0000000  -0.0000000  -0.0000000  -0.0000000  -0.0000000  -0.0000000  -0.0000000  -0.0000000  -0.0000000  -0.0000000
 NQMom=    0.0000000   0.0000000   0.0000000   0.0000000   0.0000000   0.0000000   0.0000000   0.0000000   0.0000000   0.0000000
 NMagM=    0.0000000   0.0000000   0.0000000   0.0000000   0.0000000   0.0000000   2.7928460   2.7928460   2.7928460   2.7928460
 AtZNuc=   6.0000000   6.0000000   6.0000000   6.0000000   6.0000000   6.0000000   1.0000000   1.0000000   1.0000000   1.0000000

  Atom        11          12          13          14          15          16          17          18          19          20
 IAtWgt=          12          12          12          12          12          12           1           1           1           1
 AtmWgt=  12.0000000  12.0000000  12.0000000  12.0000000  12.0000000  12.0000000   1.0078250   1.0078250   1.0078250   1.0078250
 NucSpn=           0           0           0           0           0           0           1           1           1           1
 AtZEff=  -0.0000000  -0.0000000  -0.0000000  -0.0000000  -0.0000000  -0.0000000  -0.0000000  -0.0000000  -0.0000000  -0.0000000
 NQMom=    0.0000000   0.0000000   0.0000000   0.0000000   0.0000000   0.0000000   0.0000000   0.0000000   0.0000000   0.0000000
 NMagM=    0.0000000   0.0000000   0.0000000   0.0000000   0.0000000   0.0000000   2.7928460   2.7928460   2.7928460   2.7928460
 AtZNuc=   6.0000000   6.0000000   6.0000000   6.0000000   6.0000000   6.0000000   1.0000000   1.0000000   1.0000000   1.0000000

  Atom        21          22
 IAtWgt=           1           1
 AtmWgt=   1.0078250   1.0078250
 NucSpn=           1           1
 AtZEff=  -0.0000000  -0.0000000
 NQMom=    0.0000000   0.0000000
 NMagM=    2.7928460   2.7928460
 AtZNuc=   1.0000000   1.0000000
 Leave Link  101 at Sun Jan 17 10:08:18 2021, MaxMem=  4026531840 cpu:               0.6 elap:               0.1
 (Enter /opt/ohpc/pub/libs/gaussian/g16-A.03/sandybridge/g16/l202.exe)
                          Input orientation:                          
 ---------------------------------------------------------------------
 Center     Atomic      Atomic             Coordinates (Angstroms)
 Number     Number       Type             X           Y           Z
 ---------------------------------------------------------------------
      1          6           0       -2.858500    1.132993    0.413690
      2          6           0       -3.561927   -0.000084   -0.000146
      3          6           0       -1.463685    1.132747    0.413534
      4          6           0       -2.858269   -1.133176   -0.413741
      5          6           0       -0.742381    0.000123    0.000091
      6          6           0       -1.463491   -1.132675   -0.413489
      7          1           0       -4.653174   -0.000160   -0.000261
      8          1           0       -0.922222    2.014213    0.762301
      9          1           0       -3.398792   -2.020986   -0.747134
     10          1           0       -0.921754   -2.014027   -0.762095
     11          6           0        0.742385    0.000142    0.000197
     12          6           0        1.463539   -1.132637    0.413582
     13          6           0        1.463636    1.132765   -0.413477
     14          6           0        2.858357   -1.133114    0.413660
     15          6           0        2.858412    1.133073   -0.413706
     16          6           0        3.561931   -0.000095   -0.000087
     17          1           0        0.921935   -2.014039    0.762261
     18          1           0        0.922017    2.014128   -0.762265
     19          1           0        3.398826   -2.021000    0.746938
     20          1           0        3.399026    2.020805   -0.747168
     21          1           0        4.653184   -0.000117   -0.000198
     22          1           0       -3.399078    2.020813    0.746974
 ---------------------------------------------------------------------
                    Distance matrix (angstroms):
                    1          2          3          4          5
     1  C    0.000000
     2  C    1.396400   0.000000
     3  C    1.394815   2.420136   0.000000
     4  C    2.412502   1.396457   2.786334   0.000000
     5  C    2.435656   2.819546   1.405010   2.435694   0.000000
     6  C    2.786311   2.420134   2.411660   1.394778   1.405091
     7  H    2.162463   1.091247   3.409919   2.162493   3.910793
     8  H    2.155748   3.406870   1.091697   3.877810   2.160987
     9  H    3.403970   2.160706   3.877863   1.091569   3.420489
    10  H    3.877782   3.406912   3.402643   2.155769   2.160996
    11  C    3.797460   4.304312   2.514038   3.797429   1.484766
    12  C    4.879867   5.168090   3.701433   4.400283   2.514001
    13  C    4.400576   5.168218   3.041900   4.879893   2.514046
    14  C    6.149609   6.532613   4.879977   5.776193   3.797444
    15  C    5.776475   6.532674   4.400551   6.149498   3.797435
    16  C    6.532766   7.123858   5.168291   6.532530   4.304312
    17  H    4.931227   4.974163   3.964222   4.055717   2.721709
    18  H    4.056054   4.974297   2.801947   4.931283   2.721695
    19  H    7.015187   7.286585   5.805281   6.425468   4.668224
    20  H    6.425919   7.286762   5.077582   7.015163   4.668276
    21  H    7.607933   8.215111   6.234632   7.607678   5.395565
    22  H    1.091571   2.160725   2.155363   3.404024   3.420389
                    6          7          8          9         10
     6  C    0.000000
     7  H    3.409901   0.000000
     8  H    3.402699   4.308039   0.000000
     9  H    2.155413   2.492996   4.969369   0.000000
    10  H    1.091690   4.308079   4.307029   2.477093   0.000000
    11  C    2.514021   5.395559   2.721801   4.668277   2.721640
    12  C    3.041636   6.234416   3.964357   5.077272   2.801551
    13  C    3.701390   6.234551   2.802093   5.805229   3.964079
    14  C    4.400289   7.607760   4.931531   6.425548   4.055570
    15  C    4.879801   7.607830   4.056180   7.015117   4.931051
    16  C    5.168027   8.215105   4.974565   7.286545   4.973933
    17  H    2.801687   5.976537   4.430319   4.576790   2.392248
    18  H    3.964172   5.976685   2.392806   5.912002   4.430070
    19  H    5.077188   8.335275   5.912245   6.959875   4.576532
    20  H    5.805157   8.335472   4.577305   7.908628   5.911788
    21  H    6.234357   9.306358   5.976963   8.335235   5.976308
    22  H    3.877842   2.493080   2.476912   4.309118   4.969342
                   11         12         13         14         15
    11  C    0.000000
    12  C    1.405040   0.000000
    13  C    1.405049   2.411654   0.000000
    14  C    2.435684   1.394818   2.786326   0.000000
    15  C    2.435656   2.786309   1.394776   2.412496   0.000000
    16  C    2.819546   2.420129   2.420146   1.396401   1.396456
    17  H    2.160996   1.091687   3.402672   2.155755   3.877777
    18  H    2.160962   3.402645   1.091698   3.877801   2.155778
    19  H    3.420426   2.155377   3.877855   1.091569   3.404015
    20  H    3.420435   3.877840   2.155388   3.403976   1.091572
    21  H    3.910799   3.409934   3.409903   2.162490   2.162479
    22  H    4.668244   5.805208   5.077525   7.015258   6.425842
                   16         17         18         19         20
    16  C    0.000000
    17  H    3.406864   0.000000
    18  H    3.406928   4.307007   0.000000
    19  H    2.160719   2.476948   4.969360   0.000000
    20  H    2.160719   4.969338   2.477064   4.309123   0.000000
    21  H    1.091253   4.308067   4.308078   2.493109   2.492991
    22  H    7.286825   5.911972   4.577085   7.908714   6.960365
                   21         22
    21  H    0.000000
    22  H    8.335547   0.000000
 Stoichiometry    C12H10
 Framework group  C1[X(C12H10)]
 Deg. of freedom    60
 Full point group                 C1      NOp   1
 Largest Abelian subgroup         C1      NOp   1
 Largest concise Abelian subgroup C1      NOp   1
                         Standard orientation:                         
 ---------------------------------------------------------------------
 Center     Atomic      Atomic             Coordinates (Angstroms)
 Number     Number       Type             X           Y           Z
 ---------------------------------------------------------------------
      1          6           0       -2.858500   -1.132993   -0.413690
      2          6           0       -3.561927    0.000084    0.000146
      3          6           0       -1.463685   -1.132747   -0.413534
      4          6           0       -2.858269    1.133176    0.413741
      5          6           0       -0.742381   -0.000123   -0.000091
      6          6           0       -1.463491    1.132675    0.413489
      7          1           0       -4.653174    0.000160    0.000261
      8          1           0       -0.922222   -2.014213   -0.762301
      9          1           0       -3.398792    2.020986    0.747134
     10          1           0       -0.921754    2.014027    0.762095
     11          6           0        0.742385   -0.000142   -0.000197
     12          6           0        1.463539    1.132637   -0.413582
     13          6           0        1.463636   -1.132765    0.413477
     14          6           0        2.858357    1.133114   -0.413660
     15          6           0        2.858412   -1.133073    0.413706
     16          6           0        3.561931    0.000095    0.000087
     17          1           0        0.921935    2.014039   -0.762261
     18          1           0        0.922017   -2.014128    0.762265
     19          1           0        3.398826    2.021000   -0.746938
     20          1           0        3.399026   -2.020805    0.747168
     21          1           0        4.653184    0.000117    0.000198
     22          1           0       -3.399078   -2.020813   -0.746974
 ---------------------------------------------------------------------
 Rotational constants (GHZ):           2.8545349           0.5449545           0.4756990
 Leave Link  202 at Sun Jan 17 10:08:18 2021, MaxMem=  4026531840 cpu:               0.3 elap:               0.1
 (Enter /opt/ohpc/pub/libs/gaussian/g16-A.03/sandybridge/g16/l301.exe)
 Standard basis: TZVP (5D, 7F)
 Ernie: Thresh=  0.10000D-02 Tol=  0.10000D-05 Strict=F.
 There are   300 symmetry adapted cartesian basis functions of A   symmetry.
 There are   288 symmetry adapted basis functions of A   symmetry.
   288 basis functions,   500 primitive gaussians,   300 cartesian basis functions
    41 alpha electrons       41 beta electrons
       nuclear repulsion energy       598.4723472889 Hartrees.
 IExCor=33909 DFT=T Ex+Corr=LC-wHPBE ExCW=0 ScaHFX=  1.000000
 ScaDFX=  1.000000  1.000000  1.000000  1.000000 ScalE2=  1.000000  1.000000
 IRadAn=      5 IRanWt=     -1 IRanGd=            0 ICorTp=0 IEmpDi=  4
 HFx  wShort=  0.000000 wLong=  0.235400 cFull=  0.000000 cShort=  0.000000 cLong=  1.000000
 DFx  wShort=  0.000000 wLong=  0.235400 cFull=  0.000000 cShort=  1.000000 cLong=  0.000000
 NAtoms=   22 NActive=   22 NUniq=   22 SFac= 1.00D+00 NAtFMM=   60 NAOKFM=F Big=F
 Integral buffers will be    131072 words long.
 Raffenetti 2 integral format.
 Two-electron integral symmetry is turned on.
 Leave Link  301 at Sun Jan 17 10:08:18 2021, MaxMem=  4026531840 cpu:               0.4 elap:               0.1
 (Enter /opt/ohpc/pub/libs/gaussian/g16-A.03/sandybridge/g16/l302.exe)
 NPDir=0 NMtPBC=     1 NCelOv=     1 NCel=       1 NClECP=     1 NCelD=      1
         NCelK=      1 NCelE2=     1 NClLst=     1 CellRange=     0.0.
 One-electron integrals computed using PRISM.
 One-electron integral symmetry used in STVInt
 NBasis=   288 RedAO= T EigKep=  9.18D-06  NBF=   288
 NBsUse=   288 1.00D-06 EigRej= -1.00D+00 NBFU=   288
 Precomputing XC quadrature grid using
 IXCGrd= 4 IRadAn=           5 IRanWt=          -1 IRanGd=           0 AccXCQ= 0.00D+00.
 Generated NRdTot=       0 NPtTot=           0 NUsed=           0 NTot=          32
 NSgBfM=   295   295   295   295   295 MxSgAt=    22 MxSgA2=    22.
 Leave Link  302 at Sun Jan 17 10:08:18 2021, MaxMem=  4026531840 cpu:               2.1 elap:               0.3
 (Enter /opt/ohpc/pub/libs/gaussian/g16-A.03/sandybridge/g16/l303.exe)
 DipDrv:  MaxL=1.
 Leave Link  303 at Sun Jan 17 10:08:18 2021, MaxMem=  4026531840 cpu:               0.5 elap:               0.1
 (Enter /opt/ohpc/pub/libs/gaussian/g16-A.03/sandybridge/g16/l401.exe)
 ExpMin= 9.52D-02 ExpMax= 1.36D+04 ExpMxC= 4.63D+02 IAcc=3 IRadAn=         5 AccDes= 0.00D+00
 Harris functional with IExCor=33909 and IRadAn=       5 diagonalized for initial guess.
 HarFok:  IExCor=33909 AccDes= 0.00D+00 IRadAn=         5 IDoV= 1 UseB2=F ITyADJ=14
 ICtDFT=  3500011 ScaDFX=  1.000000  1.000000  1.000000  1.000000
 FoFCou: FMM=F IPFlag=           0 FMFlag=      100000 FMFlg1=           0
         NFxFlg=           0 DoJE=T BraDBF=F KetDBF=T FulRan=T
         wScrn=  0.000000 ICntrl=       500 IOpCl=  0 I1Cent=   200000004 NGrid=           0
         NMat0=    1 NMatS0=      1 NMatT0=    0 NMatD0=    1 NMtDS0=    0 NMtDT0=    0
 Petite list used in FoFCou.
 Harris En= -452.922968503836    
 JPrj=0 DoOrth=F DoCkMO=F.
 Leave Link  401 at Sun Jan 17 10:08:20 2021, MaxMem=  4026531840 cpu:              13.8 elap:               1.8
 (Enter /opt/ohpc/pub/libs/gaussian/g16-A.03/sandybridge/g16/l502.exe)
 Integral symmetry usage will be decided dynamically.
 Closed shell SCF:
 Using DIIS extrapolation, IDIIS=    10.
 NGot=  4026531840 LenX=  4026346394 LenY=  4026255953
 Requested convergence on RMS density matrix=1.00D-06 within  32 cycles.
 Requested convergence on MAX density matrix=1.00D-04.
 Requested convergence on             energy=1.00D-04.
 Virtual orbitals will be shifted by   0.500 hartree.
 No special actions if energy rises.
 Dynamic level shift is on during FON iterations.

 Cycle   1  Pass 1  IDiag  1:
 FoFJK:  IHMeth= 1 ICntrl=       0 DoSepK=T KAlg= 0 I1Cent=           0 FoldK=F
 IRaf=         1 NMat=       1 IRICut=       1 DoRegI=T DoRafI=F ISym2E= 0 IDoP0=0 IntGTp=1.
 FoFCou: FMM=F IPFlag=           0 FMFlag=      100000 FMFlg1=           0
         NFxFlg=           0 DoJE=T BraDBF=F KetDBF=F FulRan=T
         wScrn=  0.000000 ICntrl=       500 IOpCl=  0 I1Cent=           0 NGrid=           0
         NMat0=    1 NMatS0=      1 NMatT0=    0 NMatD0=    1 NMtDS0=    0 NMtDT0=    0
 Symmetry not used in FoFCou.
 E= -462.841904016577    
 DIIS: error= 2.97D-02 at cycle   1 NSaved=   1.
 NSaved= 1 IEnMin= 1 EnMin= -462.841904016577     IErMin= 1 ErrMin= 2.97D-02
 ErrMax= 2.97D-02  0.00D+00 EMaxC= 1.00D+00 BMatC= 1.71D-01 BMatP= 1.71D-01
 IDIUse=1 WtCom= 1.00D+00 WtEn= 0.00D+00
 Coeff-Com:  0.100D+01
 Coeff:      0.100D+01
 Gap=     0.324 Goal=   None    Shift=    0.500
 T= 1490. Gap= 0.812 NK=0 IS=   42 IE=  288 IFin=   41
          NO(<0.9)=   0  NV(>0.1)=   0     41.00e < EF      0.00e >EF  Err=0.0D+00
 GapD=    0.324 DampG=1.000 DampE=0.500 DampFc=0.5000 IDamp=-1.
 Damping current iteration by 5.00D-01
 RMSDP=2.96D-03 MaxDP=9.33D-02              OVMax= 6.24D-02

 Cycle   2  Pass 1  IDiag  1:
 E= -462.950055443041     Delta-E=       -0.108151426465 Rises=F Damp=T
 DIIS: error= 1.41D-02 at cycle   2 NSaved=   2.
 NSaved= 2 IEnMin= 2 EnMin= -462.950055443041     IErMin= 2 ErrMin= 1.41D-02
 ErrMax= 1.41D-02  0.00D+00 EMaxC= 1.00D+00 BMatC= 3.42D-02 BMatP= 1.71D-01
 IDIUse=1 WtCom= 1.00D+00 WtEn= 0.00D+00
 Coeff-Com: -0.706D+00 0.171D+01
 Coeff:     -0.706D+00 0.171D+01
 Gap=     0.330 Goal=   None    Shift=    0.500
 T= 1375. Gap= 0.826 NK=0 IS=   42 IE=  288 IFin=   41
          NO(<0.9)=   0  NV(>0.1)=   0     41.00e < EF      0.00e >EF  Err=0.0D+00
 GapD=    0.330 DampG=1.000 DampE=0.500 DampFc=0.5000 IDamp=-1.
 Damping current iteration by 5.00D-01
 RMSDP=1.84D-03 MaxDP=6.07D-02 DE=-1.08D-01 OVMax= 9.24D-03

 Cycle   3  Pass 1  IDiag  1:
 E= -462.989889080127     Delta-E=       -0.039833637086 Rises=F Damp=T
 DIIS: error= 6.76D-03 at cycle   3 NSaved=   3.
 NSaved= 3 IEnMin= 3 EnMin= -462.989889080127     IErMin= 3 ErrMin= 6.76D-03
 ErrMax= 6.76D-03  0.00D+00 EMaxC= 1.00D+00 BMatC= 7.44D-03 BMatP= 3.42D-02
 IDIUse=1 WtCom= 1.00D+00 WtEn= 0.00D+00
 Coeff-Com:  0.123D+00-0.123D+01 0.211D+01
 Coeff:      0.123D+00-0.123D+01 0.211D+01
 Gap=     0.327 Goal=   None    Shift=    0.500
 T= 1150. Gap= 0.827 NK=0 IS=   42 IE=  288 IFin=   41
          NO(<0.9)=   0  NV(>0.1)=   0     41.00e < EF      0.00e >EF  Err=0.0D+00
 GapD=    0.327 DampG=1.000 DampE=1.000 DampFc=1.0000 IDamp=-1.
 RMSDP=9.83D-04 MaxDP=3.16D-02 DE=-3.98D-02 OVMax= 5.08D-03

 Cycle   4  Pass 1  IDiag  1:
 E= -463.023041945880     Delta-E=       -0.033152865753 Rises=F Damp=F
 DIIS: error= 8.00D-04 at cycle   4 NSaved=   4.
 NSaved= 4 IEnMin= 4 EnMin= -463.023041945880     IErMin= 4 ErrMin= 8.00D-04
 ErrMax= 8.00D-04  0.00D+00 EMaxC= 1.00D+00 BMatC= 1.09D-04 BMatP= 7.44D-03
 IDIUse=1 WtCom= 1.00D+00 WtEn= 0.00D+00
 Coeff-Com:  0.720D-01-0.168D+00 0.775D-01 0.102D+01
 Coeff:      0.720D-01-0.168D+00 0.775D-01 0.102D+01
 Gap=     0.327 Goal=   None    Shift=    0.500
 RMSDP=1.59D-04 MaxDP=2.24D-03 DE=-3.32D-02 OVMax= 2.36D-03

 Cycle   5  Pass 1  IDiag  1:
 E= -463.023188666308     Delta-E=       -0.000146720427 Rises=F Damp=F
 DIIS: error= 4.20D-04 at cycle   5 NSaved=   5.
 NSaved= 5 IEnMin= 5 EnMin= -463.023188666308     IErMin= 5 ErrMin= 4.20D-04
 ErrMax= 4.20D-04  0.00D+00 EMaxC= 1.00D+00 BMatC= 1.45D-05 BMatP= 1.09D-04
 IDIUse=1 WtCom= 1.00D+00 WtEn= 0.00D+00
 Coeff-Com: -0.713D-02 0.147D+00-0.275D+00-0.112D+00 0.125D+01
 Coeff:     -0.713D-02 0.147D+00-0.275D+00-0.112D+00 0.125D+01
 Gap=     0.327 Goal=   None    Shift=    0.500
 RMSDP=1.17D-04 MaxDP=2.50D-03 DE=-1.47D-04 OVMax= 1.71D-03

 Cycle   6  Pass 1  IDiag  1:
 E= -463.023222948629     Delta-E=       -0.000034282321 Rises=F Damp=F
 DIIS: error= 2.70D-04 at cycle   6 NSaved=   6.
 NSaved= 6 IEnMin= 6 EnMin= -463.023222948629     IErMin= 6 ErrMin= 2.70D-04
 ErrMax= 2.70D-04  0.00D+00 EMaxC= 1.00D+00 BMatC= 3.01D-06 BMatP= 1.45D-05
 IDIUse=1 WtCom= 1.00D+00 WtEn= 0.00D+00
 Coeff-Com: -0.990D-02 0.320D-02 0.263D-01-0.128D+00-0.622D+00 0.173D+01
 Coeff:     -0.990D-02 0.320D-02 0.263D-01-0.128D+00-0.622D+00 0.173D+01
 Gap=     0.327 Goal=   None    Shift=    0.500
 RMSDP=7.91D-05 MaxDP=1.74D-03 DE=-3.43D-05 OVMax= 1.22D-03

 Cycle   7  Pass 1  IDiag  1:
 E= -463.023233617500     Delta-E=       -0.000010668871 Rises=F Damp=F
 DIIS: error= 1.79D-04 at cycle   7 NSaved=   7.
 NSaved= 7 IEnMin= 7 EnMin= -463.023233617500     IErMin= 7 ErrMin= 1.79D-04
 ErrMax= 1.79D-04  0.00D+00 EMaxC= 1.00D+00 BMatC= 8.93D-07 BMatP= 3.01D-06
 IDIUse=1 WtCom= 1.00D+00 WtEn= 0.00D+00
 Coeff-Com:  0.221D-02-0.247D-01 0.398D-01 0.207D-01-0.141D+00-0.793D+00
 Coeff-Com:  0.190D+01
 Coeff:      0.221D-02-0.247D-01 0.398D-01 0.207D-01-0.141D+00-0.793D+00
 Coeff:      0.190D+01
 Gap=     0.327 Goal=   None    Shift=    0.500
 RMSDP=4.12D-05 MaxDP=9.30D-04 DE=-1.07D-05 OVMax= 8.09D-04

 Cycle   8  Pass 1  IDiag  1:
 E= -463.023237289287     Delta-E=       -0.000003671787 Rises=F Damp=F
 DIIS: error= 1.24D-04 at cycle   8 NSaved=   8.
 NSaved= 8 IEnMin= 8 EnMin= -463.023237289287     IErMin= 8 ErrMin= 1.24D-04
 ErrMax= 1.24D-04  0.00D+00 EMaxC= 1.00D+00 BMatC= 3.02D-07 BMatP= 8.93D-07
 IDIUse=1 WtCom= 1.00D+00 WtEn= 0.00D+00
 Coeff-Com:  0.292D-02-0.507D-02-0.620D-03 0.477D-01 0.104D+00-0.664D+00
 Coeff-Com: -0.188D+00 0.170D+01
 Coeff:      0.292D-02-0.507D-02-0.620D-03 0.477D-01 0.104D+00-0.664D+00
 Coeff:     -0.188D+00 0.170D+01
 Gap=     0.327 Goal=   None    Shift=    0.500
 RMSDP=1.79D-05 MaxDP=4.14D-04 DE=-3.67D-06 OVMax= 5.69D-04

 Cycle   9  Pass 1  IDiag  1:
 E= -463.023238640389     Delta-E=       -0.000001351101 Rises=F Damp=F
 DIIS: error= 7.67D-05 at cycle   9 NSaved=   9.
 NSaved= 9 IEnMin= 9 EnMin= -463.023238640389     IErMin= 9 ErrMin= 7.67D-05
 ErrMax= 7.67D-05  0.00D+00 EMaxC= 1.00D+00 BMatC= 1.07D-07 BMatP= 3.02D-07
 IDIUse=1 WtCom= 1.00D+00 WtEn= 0.00D+00
 Coeff-Com:  0.209D-03 0.632D-02-0.130D-01 0.155D-01 0.586D-01 0.605D-01
 Coeff-Com: -0.816D+00 0.362D-01 0.165D+01
 Coeff:      0.209D-03 0.632D-02-0.130D-01 0.155D-01 0.586D-01 0.605D-01
 Coeff:     -0.816D+00 0.362D-01 0.165D+01
 Gap=     0.327 Goal=   None    Shift=    0.500
 RMSDP=6.34D-06 MaxDP=1.53D-04 DE=-1.35D-06 OVMax= 3.68D-04

 Cycle  10  Pass 1  IDiag  1:
 E= -463.023239149716     Delta-E=       -0.000000509327 Rises=F Damp=F
 DIIS: error= 4.78D-05 at cycle  10 NSaved=  10.
 NSaved=10 IEnMin=10 EnMin= -463.023239149716     IErMin=10 ErrMin= 4.78D-05
 ErrMax= 4.78D-05  0.00D+00 EMaxC= 1.00D+00 BMatC= 3.65D-08 BMatP= 1.07D-07
 IDIUse=1 WtCom= 1.00D+00 WtEn= 0.00D+00
 Coeff-Com: -0.732D-03 0.599D-03 0.165D-02-0.134D-01-0.356D-01 0.245D+00
 Coeff-Com: -0.642D-01-0.711D+00-0.639D+00 0.222D+01
 Coeff:     -0.732D-03 0.599D-03 0.165D-02-0.134D-01-0.356D-01 0.245D+00
 Coeff:     -0.642D-01-0.711D+00-0.639D+00 0.222D+01
 Gap=     0.327 Goal=   None    Shift=    0.500
 RMSDP=2.01D-06 MaxDP=4.76D-05 DE=-5.09D-07 OVMax= 2.41D-04

 Cycle  11  Pass 1  IDiag  1:
 E= -463.023239340146     Delta-E=       -0.000000190430 Rises=F Damp=F
 DIIS: error= 2.77D-05 at cycle  11 NSaved=  11.
 NSaved=11 IEnMin=11 EnMin= -463.023239340146     IErMin=11 ErrMin= 2.77D-05
 ErrMax= 2.77D-05  0.00D+00 EMaxC= 1.00D+00 BMatC= 1.19D-08 BMatP= 3.65D-08
 IDIUse=1 WtCom= 1.00D+00 WtEn= 0.00D+00
 Coeff-Com:  0.470D-04-0.120D-02 0.227D-02-0.100D-02-0.410D-02-0.235D-01
 Coeff-Com:  0.111D+00-0.344D-01-0.136D+00-0.132D+01 0.241D+01
 Coeff:      0.470D-04-0.120D-02 0.227D-02-0.100D-02-0.410D-02-0.235D-01
 Coeff:      0.111D+00-0.344D-01-0.136D+00-0.132D+01 0.241D+01
 Gap=     0.327 Goal=   None    Shift=    0.500
 RMSDP=9.65D-07 MaxDP=2.63D-05 DE=-1.90D-07 OVMax= 1.39D-04

 SCF Done:  E(RLC-wHPBE) =  -463.023239340     A.U. after   11 cycles
            NFock= 11  Conv=0.97D-06     -V/T= 2.0055
 KE= 4.604766850218D+02 PE=-2.270994932612D+03 EE= 7.490226609610D+02
 Leave Link  502 at Sun Jan 17 10:09:29 2021, MaxMem=  4026531840 cpu:             550.1 elap:              69.0
 (Enter /opt/ohpc/pub/libs/gaussian/g16-A.03/sandybridge/g16/l508.exe)
 QCSCF skips out because SCF is already converged.
 Leave Link  508 at Sun Jan 17 10:09:29 2021, MaxMem=  4026531840 cpu:               0.2 elap:               0.0
 (Enter /opt/ohpc/pub/libs/gaussian/g16-A.03/sandybridge/g16/l601.exe)
 Copying SCF densities to generalized density rwf, IOpCl= 0 IROHF=0.

 **********************************************************************

            Population analysis using the SCF density.

 **********************************************************************

 Orbital symmetries:
       Occupied  (A) (A) (A) (A) (A) (A) (A) (A) (A) (A) (A) (A)
                 (A) (A) (A) (A) (A) (A) (A) (A) (A) (A) (A) (A)
                 (A) (A) (A) (A) (A) (A) (A) (A) (A) (A) (A) (A)
                 (A) (A) (A) (A) (A)
       Virtual   (A) (A) (A) (A) (A) (A) (A) (A) (A) (A) (A) (A)
                 (A) (A) (A) (A) (A) (A) (A) (A) (A) (A) (A) (A)
                 (A) (A) (A) (A) (A) (A) (A) (A) (A) (A) (A) (A)
                 (A) (A) (A) (A) (A) (A) (A) (A) (A) (A) (A) (A)
                 (A) (A) (A) (A) (A) (A) (A) (A) (A) (A) (A) (A)
                 (A) (A) (A) (A) (A) (A) (A) (A) (A) (A) (A) (A)
                 (A) (A) (A) (A) (A) (A) (A) (A) (A) (A) (A) (A)
                 (A) (A) (A) (A) (A) (A) (A) (A) (A) (A) (A) (A)
                 (A) (A) (A) (A) (A) (A) (A) (A) (A) (A) (A) (A)
                 (A) (A) (A) (A) (A) (A) (A) (A) (A) (A) (A) (A)
                 (A) (A) (A) (A) (A) (A) (A) (A) (A) (A) (A) (A)
                 (A) (A) (A) (A) (A) (A) (A) (A) (A) (A) (A) (A)
                 (A) (A) (A) (A) (A) (A) (A) (A) (A) (A) (A) (A)
                 (A) (A) (A) (A) (A) (A) (A) (A) (A) (A) (A) (A)
                 (A) (A) (A) (A) (A) (A) (A) (A) (A) (A) (A) (A)
                 (A) (A) (A) (A) (A) (A) (A) (A) (A) (A) (A) (A)
                 (A) (A) (A) (A) (A) (A) (A) (A) (A) (A) (A) (A)
                 (A) (A) (A) (A) (A) (A) (A) (A) (A) (A) (A) (A)
                 (A) (A) (A) (A) (A) (A) (A) (A) (A) (A) (A) (A)
                 (A) (A) (A) (A) (A) (A) (A) (A) (A) (A) (A) (A)
                 (A) (A) (A) (A) (A) (A) (A)
 The electronic state is 1-A.
 Alpha  occ. eigenvalues --  -10.03498 -10.03485 -10.02386 -10.02385 -10.02383
 Alpha  occ. eigenvalues --  -10.02383 -10.02325 -10.02324 -10.02324 -10.02323
 Alpha  occ. eigenvalues --  -10.02281 -10.02281  -0.93247  -0.91090  -0.84355
 Alpha  occ. eigenvalues --   -0.81645  -0.80890  -0.78730  -0.69452  -0.68929
 Alpha  occ. eigenvalues --   -0.66136  -0.64887  -0.60876  -0.57329  -0.54150
 Alpha  occ. eigenvalues --   -0.53845  -0.51242  -0.51215  -0.49674  -0.49282
 Alpha  occ. eigenvalues --   -0.48991  -0.46313  -0.44713  -0.43693  -0.42230
 Alpha  occ. eigenvalues --   -0.40780  -0.40587  -0.35794  -0.33478  -0.33428
 Alpha  occ. eigenvalues --   -0.30506
 Alpha virt. eigenvalues --    0.02240   0.04708   0.04949   0.07921   0.11842
 Alpha virt. eigenvalues --    0.12380   0.13992   0.15284   0.15806   0.17325
 Alpha virt. eigenvalues --    0.17617   0.18470   0.18869   0.19408   0.21600
 Alpha virt. eigenvalues --    0.22056   0.22076   0.22450   0.27084   0.27291
 Alpha virt. eigenvalues --    0.27357   0.27547   0.29300   0.29505   0.29700
 Alpha virt. eigenvalues --    0.29706   0.30693   0.30797   0.31908   0.31932
 Alpha virt. eigenvalues --    0.33032   0.33901   0.35159   0.35237   0.36014
 Alpha virt. eigenvalues --    0.36695   0.38200   0.39109   0.40764   0.41425
 Alpha virt. eigenvalues --    0.41693   0.42235   0.43216   0.43799   0.43887
 Alpha virt. eigenvalues --    0.44660   0.45879   0.47445   0.47735   0.48221
 Alpha virt. eigenvalues --    0.48241   0.48716   0.48827   0.49115   0.49784
 Alpha virt. eigenvalues --    0.52099   0.52665   0.52827   0.54670   0.54716
 Alpha virt. eigenvalues --    0.55705   0.56056   0.56426   0.57648   0.59110
 Alpha virt. eigenvalues --    0.59357   0.59534   0.59780   0.61662   0.65330
 Alpha virt. eigenvalues --    0.65740   0.68713   0.70265   0.72306   0.73203
 Alpha virt. eigenvalues --    0.75486   0.75675   0.76048   0.77043   0.77385
 Alpha virt. eigenvalues --    0.77918   0.81357   0.83727   0.86938   0.89074
 Alpha virt. eigenvalues --    0.94884   0.96182   1.15420   1.24879   1.25746
 Alpha virt. eigenvalues --    1.29096   1.29321   1.29795   1.30140   1.30620
 Alpha virt. eigenvalues --    1.30743   1.32169   1.33878   1.34483   1.35318
 Alpha virt. eigenvalues --    1.35453   1.36217   1.36710   1.37270   1.37302
 Alpha virt. eigenvalues --    1.37714   1.38365   1.39494   1.41358   1.46312
 Alpha virt. eigenvalues --    1.46430   1.47727   1.47958   1.49636   1.49851
 Alpha virt. eigenvalues --    1.49908   1.50020   1.51608   1.52107   1.52673
 Alpha virt. eigenvalues --    1.53193   1.53243   1.54706   1.54733   1.54819
 Alpha virt. eigenvalues --    1.56898   1.57208   1.57634   1.58813   1.59030
 Alpha virt. eigenvalues --    1.61258   1.62071   1.62539   1.62947   1.64100
 Alpha virt. eigenvalues --    1.64171   1.70304   1.71181   1.74735   1.79021
 Alpha virt. eigenvalues --    1.81664   1.82732   1.82887   1.82961   1.84256
 Alpha virt. eigenvalues --    1.85314   1.86123   1.86665   1.91434   1.92545
 Alpha virt. eigenvalues --    1.92564   1.93146   1.93156   1.93543   1.95379
 Alpha virt. eigenvalues --    1.95729   1.95966   1.96468   1.96954   1.99153
 Alpha virt. eigenvalues --    1.99632   1.99979   2.02770   2.03804   2.04724
 Alpha virt. eigenvalues --    2.05858   2.06603   2.06829   2.13769   2.14627
 Alpha virt. eigenvalues --    2.16571   2.29065   2.30895   2.31158   2.33308
 Alpha virt. eigenvalues --    2.33613   2.34024   2.35539   2.35568   2.38473
 Alpha virt. eigenvalues --    2.38801   2.38921   2.38956   2.39900   2.40872
 Alpha virt. eigenvalues --    2.41245   2.49083   2.52404   2.53426   2.53558
 Alpha virt. eigenvalues --    2.55220   2.56703   2.57513   2.57974   2.62731
 Alpha virt. eigenvalues --    2.64669   2.67882   2.68169   2.68715   2.68870
 Alpha virt. eigenvalues --    2.70893   2.72824   2.73194   2.73750   2.74847
 Alpha virt. eigenvalues --    2.78407   2.84012   2.84045   2.84483   2.87313
 Alpha virt. eigenvalues --    3.01921   3.02598   3.04617   3.07510   3.07714
 Alpha virt. eigenvalues --    3.08021   3.10335   3.12819   3.14636   3.15732
 Alpha virt. eigenvalues --    3.18875   3.19362   3.21643   3.22009   3.24288
 Alpha virt. eigenvalues --    3.25540   3.34280   3.36979   3.37563   3.43623
 Alpha virt. eigenvalues --    3.44287   3.55545   3.58905   3.76565   3.85898
 Alpha virt. eigenvalues --   21.04181  21.32086  21.59440  21.69069  21.71978
 Alpha virt. eigenvalues --   21.79212  21.91710  21.93889  21.96729  21.99280
 Alpha virt. eigenvalues --   22.08424  22.11442
          Condensed to atoms (all electrons):
               1          2          3          4          5          6
     1  C    4.979305   0.476354   0.411844  -0.011195  -0.012900  -0.103930
     2  C    0.476354   4.966661  -0.027602   0.476305  -0.069556  -0.027528
     3  C    0.411844  -0.027602   5.158984  -0.103854   0.436290  -0.036364
     4  C   -0.011195   0.476305  -0.103854   4.979357  -0.012898   0.411746
     5  C   -0.012900  -0.069556   0.436290  -0.012898   5.302098   0.436148
     6  C   -0.103930  -0.027528  -0.036364   0.411746   0.436148   5.159223
     7  H   -0.057125   0.418647   0.017315  -0.057132  -0.004202   0.017319
     8  H   -0.031555   0.009734   0.398925  -0.001504  -0.049163   0.014060
     9  H    0.012484  -0.054602  -0.000562   0.411916   0.013962  -0.049352
    10  H   -0.001501   0.009727   0.014057  -0.031521  -0.049138   0.398896
    11  C    0.021162   0.004207  -0.089011   0.021161   0.162564  -0.088983
    12  C   -0.000051  -0.000211   0.021864   0.002878  -0.088978  -0.018031
    13  C    0.002845  -0.000197  -0.018003  -0.000066  -0.089054   0.021926
    14  C    0.000066   0.000004  -0.000061  -0.000267   0.021175   0.002848
    15  C   -0.000268   0.000005   0.002870   0.000064   0.021175  -0.000063
    16  C    0.000004  -0.000007  -0.000206   0.000005   0.004199  -0.000198
    17  H   -0.000034   0.000020  -0.000383   0.000727  -0.016519   0.003927
    18  H    0.000730   0.000020   0.003914  -0.000033  -0.016510  -0.000386
    19  H   -0.000001   0.000000   0.000018  -0.000006  -0.001308   0.000002
    20  H   -0.000006   0.000000   0.000002  -0.000001  -0.001307   0.000017
    21  H    0.000000  -0.000000  -0.000004   0.000000  -0.000135  -0.000004
    22  H    0.411913  -0.054598  -0.049355   0.012483   0.013964  -0.000563
               7          8          9         10         11         12
     1  C   -0.057125  -0.031555   0.012484  -0.001501   0.021162  -0.000051
     2  C    0.418647   0.009734  -0.054602   0.009727   0.004207  -0.000211
     3  C    0.017315   0.398925  -0.000562   0.014057  -0.089011   0.021864
     4  C   -0.057132  -0.001504   0.411916  -0.031521   0.021161   0.002878
     5  C   -0.004202  -0.049163   0.013962  -0.049138   0.162564  -0.088978
     6  C    0.017319   0.014060  -0.049352   0.398896  -0.088983  -0.018031
     7  H    0.568433  -0.000191  -0.007543  -0.000191  -0.000135  -0.000004
     8  H   -0.000191   0.541488   0.000032  -0.000158  -0.016506  -0.000382
     9  H   -0.007543   0.000032   0.570991  -0.006054  -0.001308   0.000002
    10  H   -0.000191  -0.000158  -0.006054   0.541467  -0.016524   0.003919
    11  C   -0.000135  -0.016506  -0.001308  -0.016524   5.301986   0.436345
    12  C   -0.000004  -0.000382   0.000002   0.003919   0.436345   5.158904
    13  C   -0.000004   0.003927   0.000017  -0.000386   0.436226  -0.036403
    14  C    0.000000  -0.000035  -0.000006   0.000728  -0.012945   0.411908
    15  C    0.000000   0.000726  -0.000001  -0.000034  -0.012925  -0.103840
    16  C   -0.000000   0.000020   0.000000   0.000020  -0.069522  -0.027654
    17  H   -0.000002  -0.000027   0.000007   0.000599  -0.049158   0.398918
    18  H   -0.000002   0.000600   0.000000  -0.000027  -0.049128   0.014054
    19  H   -0.000000   0.000000  -0.000000   0.000007   0.013960  -0.049343
    20  H   -0.000000   0.000007   0.000000   0.000000   0.013963  -0.000561
    21  H   -0.000000  -0.000002  -0.000000  -0.000002  -0.004201   0.017316
    22  H   -0.007544  -0.006055  -0.000221   0.000032  -0.001307   0.000018
              13         14         15         16         17         18
     1  C    0.002845   0.000066  -0.000268   0.000004  -0.000034   0.000730
     2  C   -0.000197   0.000004   0.000005  -0.000007   0.000020   0.000020
     3  C   -0.018003  -0.000061   0.002870  -0.000206  -0.000383   0.003914
     4  C   -0.000066  -0.000267   0.000064   0.000005   0.000727  -0.000033
     5  C   -0.089054   0.021175   0.021175   0.004199  -0.016519  -0.016510
     6  C    0.021926   0.002848  -0.000063  -0.000198   0.003927  -0.000386
     7  H   -0.000004   0.000000   0.000000  -0.000000  -0.000002  -0.000002
     8  H    0.003927  -0.000035   0.000726   0.000020  -0.000027   0.000600
     9  H    0.000017  -0.000006  -0.000001   0.000000   0.000007   0.000000
    10  H   -0.000386   0.000728  -0.000034   0.000020   0.000599  -0.000027
    11  C    0.436226  -0.012945  -0.012925  -0.069522  -0.049158  -0.049128
    12  C   -0.036403   0.411908  -0.103840  -0.027654   0.398918   0.014054
    13  C    5.159199  -0.103886   0.411749  -0.027541   0.014059   0.398890
    14  C   -0.103886   4.979258  -0.011227   0.476386  -0.031541  -0.001500
    15  C    0.411749  -0.011227   4.979341   0.476349  -0.001503  -0.031528
    16  C   -0.027541   0.476386   0.476349   4.966612   0.009732   0.009725
    17  H    0.014059  -0.031541  -0.001503   0.009732   0.541480  -0.000158
    18  H    0.398890  -0.001500  -0.031528   0.009725  -0.000158   0.541466
    19  H   -0.000562   0.411906   0.012482  -0.054596  -0.006054   0.000032
    20  H   -0.049361   0.012484   0.411918  -0.054598   0.000032  -0.006054
    21  H    0.017317  -0.057124  -0.057130   0.418645  -0.000191  -0.000192
    22  H    0.000001  -0.000001  -0.000006   0.000000   0.000000   0.000007
              19         20         21         22
     1  C   -0.000001  -0.000006   0.000000   0.411913
     2  C    0.000000   0.000000  -0.000000  -0.054598
     3  C    0.000018   0.000002  -0.000004  -0.049355
     4  C   -0.000006  -0.000001   0.000000   0.012483
     5  C   -0.001308  -0.001307  -0.000135   0.013964
     6  C    0.000002   0.000017  -0.000004  -0.000563
     7  H   -0.000000  -0.000000  -0.000000  -0.007544
     8  H    0.000000   0.000007  -0.000002  -0.006055
     9  H   -0.000000   0.000000  -0.000000  -0.000221
    10  H    0.000007   0.000000  -0.000002   0.000032
    11  C    0.013960   0.013963  -0.004201  -0.001307
    12  C   -0.049343  -0.000561   0.017316   0.000018
    13  C   -0.000562  -0.049361   0.017317   0.000001
    14  C    0.411906   0.012484  -0.057124  -0.000001
    15  C    0.012482   0.411918  -0.057130  -0.000006
    16  C   -0.054596  -0.054598   0.418645   0.000000
    17  H   -0.006054   0.000032  -0.000191   0.000000
    18  H    0.000032  -0.006054  -0.000192   0.000007
    19  H    0.570992  -0.000221  -0.007544   0.000000
    20  H   -0.000221   0.570993  -0.007543  -0.000000
    21  H   -0.007544  -0.007543   0.568432  -0.000000
    22  H    0.000000  -0.000000  -0.000000   0.570995
 Mulliken charges:
               1
     1  C   -0.098140
     2  C   -0.127385
     3  C   -0.140677
     4  C   -0.098165
     5  C    0.000095
     6  C   -0.140710
     7  H    0.112364
     8  H    0.136060
     9  H    0.110236
    10  H    0.136084
    11  C    0.000078
    12  C   -0.140667
    13  C   -0.140694
    14  C   -0.098171
    15  C   -0.098153
    16  C   -0.127376
    17  H    0.136069
    18  H    0.136080
    19  H    0.110236
    20  H    0.110235
    21  H    0.112364
    22  H    0.110236
 Sum of Mulliken charges =  -0.00000
 Mulliken charges with hydrogens summed into heavy atoms:
               1
     1  C    0.012096
     2  C   -0.015022
     3  C   -0.004617
     4  C    0.012072
     5  C    0.000095
     6  C   -0.004626
    11  C    0.000078
    12  C   -0.004598
    13  C   -0.004613
    14  C    0.012065
    15  C    0.012082
    16  C   -0.015013
 Electronic spatial extent (au):  <R**2>=           2313.8286
 Charge=             -0.0000 electrons
 Dipole moment (field-independent basis, Debye):
    X=             -0.0000    Y=              0.0001    Z=              0.0003  Tot=              0.0003
 Quadrupole moment (field-independent basis, Debye-Ang):
   XX=            -61.7839   YY=            -63.4543   ZZ=            -75.1798
   XY=              0.0005   XZ=              0.0005   YZ=             -0.0002
 Traceless Quadrupole moment (field-independent basis, Debye-Ang):
   XX=              5.0221   YY=              3.3517   ZZ=             -8.3739
   XY=              0.0005   XZ=              0.0005   YZ=             -0.0002
 Octapole moment (field-independent basis, Debye-Ang**2):
  XXX=             -0.0002  YYY=              0.0015  ZZZ=              0.0005  XYY=             -0.0005
  XXY=              0.0009  XXZ=              0.0077  XZZ=              0.0002  YZZ=             -0.0009
  YYZ=              0.0003  XYZ=            -11.9380
 Hexadecapole moment (field-independent basis, Debye-Ang**3):
 XXXX=          -2313.4088 YYYY=           -502.9898 ZZZZ=           -156.7441 XXXY=             -0.0038
 XXXZ=              0.0048 YYYX=              0.0082 YYYZ=             -0.0007 ZZZX=              0.0017
 ZZZY=             -0.0007 XXYY=           -479.1284 XXZZ=           -495.7827 YYZZ=           -112.6129
 XXYZ=             -0.0004 YYXZ=              0.0021 ZZXY=             -0.0020
 N-N= 5.984723472889D+02 E-N=-2.270994802051D+03  KE= 4.604766850218D+02
 No NMR shielding tensors so no spin-rotation constants.
 Leave Link  601 at Sun Jan 17 10:09:29 2021, MaxMem=  4026531840 cpu:               1.0 elap:               0.2
 (Enter /opt/ohpc/pub/libs/gaussian/g16-A.03/sandybridge/g16/l9999.exe)

 Test job not archived.
 1\1\GINC-CASCADEB028\SP\RLC-wHPBE\TZVP\C12H10\RDU230\17-Jan-2021\0\\#P
  LC-wHPBE/TZVP iop(3/107=0235400000, 3/108=0235400000) scf=(conver=6,f
 ermi,ndamp=35,noincfock,novaracc,vshift=500,xqc)\\H10 C12\\0,1\C,0,-2.
 8585,1.132993,0.41369\C,0,-3.561927,-0.000084,-0.000146\C,0,-1.463685,
 1.132747,0.413534\C,0,-2.858269,-1.133176,-0.413741\C,0,-0.742381,0.00
 0123,0.000091\C,0,-1.463491,-1.132675,-0.413489\H,0,-4.653174,-0.00016
 ,-0.000261\H,0,-0.922222,2.014213,0.762301\H,0,-3.398792,-2.020986,-0.
 747134\H,0,-0.921754,-2.014027,-0.762095\C,0,0.742385,0.000142,0.00019
 7\C,0,1.463539,-1.132637,0.413582\C,0,1.463636,1.132765,-0.413477\C,0,
 2.858357,-1.133114,0.41366\C,0,2.858412,1.133073,-0.413706\C,0,3.56193
 1,-0.000095,-0.000087\H,0,0.921935,-2.014039,0.762261\H,0,0.922017,2.0
 14128,-0.762265\H,0,3.398826,-2.021,0.746938\H,0,3.399026,2.020805,-0.
 747168\H,0,4.653184,-0.000117,-0.000198\H,0,-3.399078,2.020813,0.74697
 4\\Version=EM64L-G16RevA.03\State=1-A\HF=-463.0232393\RMSD=9.653e-07\D
 ipole=-0.0000098,-0.0000428,-0.0001185\Quadrupole=3.7338311,2.491925,-
 6.2257561,-0.0003684,-0.0004039,-0.0001379\PG=C01 [X(C12H10)]\\@


 IT TAKES GREATER CHARACTER TO CARRY OFF GOOD FORTUNE THAN BAD.
                     FRENCH PROVERB.
 Job cpu time:       0 days  0 hours  9 minutes 30.7 seconds.
 Elapsed time:       0 days  0 hours  1 minutes 11.9 seconds.
 File lengths (MBytes):  RWF=     88 Int=      0 D2E=      0 Chk=     12 Scr=      8
 Normal termination of Gaussian 16 at Sun Jan 17 10:09:30 2021.
