 Entering Gaussian System, Link 0=g16
 Input=mol_NN_cp_frag_tune_n2.gjf
 Output=mol_NN_cp_frag_tune_n2.log
 Initial command:
 /opt/ohpc/pub/libs/gaussian/g16-A.03/sandybridge/g16/l1.exe "/mnt/gpfs2_4m/scratch/rdu230/ondemand/projects/init_structures/gaussian/wtuning/mol_NN_cp_frag/tuning_mol_NN_cp_frag_ocycle0/Gau-14898.inp" -scrdir="/mnt/gpfs2_4m/scratch/rdu230/ondemand/projects/init_structures/gaussian/wtuning/mol_NN_cp_frag/tuning_mol_NN_cp_frag_ocycle0/"
 Entering Link 1 = /opt/ohpc/pub/libs/gaussian/g16-A.03/sandybridge/g16/l1.exe PID=     14899.
  
 Copyright (c) 1988,1990,1992,1993,1995,1998,2003,2009,2016,
            Gaussian, Inc.  All Rights Reserved.
  
 This is part of the Gaussian(R) 16 program.  It is based on
 the Gaussian(R) 09 system (copyright 2009, Gaussian, Inc.),
 the Gaussian(R) 03 system (copyright 2003, Gaussian, Inc.),
 the Gaussian(R) 98 system (copyright 1998, Gaussian, Inc.),
 the Gaussian(R) 94 system (copyright 1995, Gaussian, Inc.),
 the Gaussian 92(TM) system (copyright 1992, Gaussian, Inc.),
 the Gaussian 90(TM) system (copyright 1990, Gaussian, Inc.),
 the Gaussian 88(TM) system (copyright 1988, Gaussian, Inc.),
 the Gaussian 86(TM) system (copyright 1986, Carnegie Mellon
 University), and the Gaussian 82(TM) system (copyright 1983,
 Carnegie Mellon University). Gaussian is a federally registered
 trademark of Gaussian, Inc.
  
 This software contains proprietary and confidential information,
 including trade secrets, belonging to Gaussian, Inc.
  
 This software is provided under written license and may be
 used, copied, transmitted, or stored only in accord with that
 written license.
  
 The following legend is applicable only to US Government
 contracts under FAR:
  
                    RESTRICTED RIGHTS LEGEND
  
 Use, reproduction and disclosure by the US Government is
 subject to restrictions as set forth in subparagraphs (a)
 and (c) of the Commercial Computer Software - Restricted
 Rights clause in FAR 52.227-19.
  
 Gaussian, Inc.
 340 Quinnipiac St., Bldg. 40, Wallingford CT 06492
  
  
 ---------------------------------------------------------------
 Warning -- This program may not be used in any manner that
 competes with the business of Gaussian, Inc. or will provide
 assistance to any competitor of Gaussian, Inc.  The licensee
 of this program is prohibited from giving any competitor of
 Gaussian, Inc. access to this program.  By using this program,
 the user acknowledges that Gaussian, Inc. is engaged in the
 business of creating and licensing software in the field of
 computational chemistry and represents and warrants to the
 licensee that it is not a competitor of Gaussian, Inc. and that
 it will not use this program in any manner prohibited above.
 ---------------------------------------------------------------
  

 Cite this work as:
 Gaussian 16, Revision A.03,
 M. J. Frisch, G. W. Trucks, H. B. Schlegel, G. E. Scuseria, 
 M. A. Robb, J. R. Cheeseman, G. Scalmani, V. Barone, 
 G. A. Petersson, H. Nakatsuji, X. Li, M. Caricato, A. V. Marenich, 
 J. Bloino, B. G. Janesko, R. Gomperts, B. Mennucci, H. P. Hratchian, 
 J. V. Ortiz, A. F. Izmaylov, J. L. Sonnenberg, D. Williams-Young, 
 F. Ding, F. Lipparini, F. Egidi, J. Goings, B. Peng, A. Petrone, 
 T. Henderson, D. Ranasinghe, V. G. Zakrzewski, J. Gao, N. Rega, 
 G. Zheng, W. Liang, M. Hada, M. Ehara, K. Toyota, R. Fukuda, 
 J. Hasegawa, M. Ishida, T. Nakajima, Y. Honda, O. Kitao, H. Nakai, 
 T. Vreven, K. Throssell, J. A. Montgomery, Jr., J. E. Peralta, 
 F. Ogliaro, M. J. Bearpark, J. J. Heyd, E. N. Brothers, K. N. Kudin, 
 V. N. Staroverov, T. A. Keith, R. Kobayashi, J. Normand, 
 K. Raghavachari, A. P. Rendell, J. C. Burant, S. S. Iyengar, 
 J. Tomasi, M. Cossi, J. M. Millam, M. Klene, C. Adamo, R. Cammi, 
 J. W. Ochterski, R. L. Martin, K. Morokuma, O. Farkas, 
 J. B. Foresman, and D. J. Fox, Gaussian, Inc., Wallingford CT, 2016.
 
 ******************************************
 Gaussian 16:  EM64L-G16RevA.03 25-Dec-2016
                25-Jan-2021 
 ******************************************
 %mem=30GB
 %nproc=8
 Will use up to    8 processors via shared memory.
 ----------------------------------------------------------------------
 #P LC-wHPBE/TZVP iop(3/107=0156200000, 3/108=0156200000) scf=(conver=6
 ,fermi,ndamp=35,noincfock,novaracc,vshift=500,xqc)
 ----------------------------------------------------------------------
 1/38=1,172=1/1;
 2/12=2,17=6,18=5,40=1/2;
 3/5=19,7=101,11=2,25=1,30=1,74=-71,107=156200000,108=156200000/1,2,3;
 4//1;
 5/5=100002,6=6,8=3,10=500,13=1,18=-1,22=13,38=1,93=35/2,8;
 6/7=2,8=2,9=2,10=2,28=1/1;
 99/5=1,9=1/99;
 Leave Link    1 at Mon Jan 25 21:06:50 2021, MaxMem=  4026531840 cpu:               1.2 elap:               0.2
 (Enter /opt/ohpc/pub/libs/gaussian/g16-A.03/sandybridge/g16/l101.exe)
 ---------
 H18 C9 N3
 ---------
 Symbolic Z-matrix:
 Charge =  1 Multiplicity = 1
 C                    -0.61086   0.51088   0.00012 
 C                    -0.13681  -0.78432   0.00012 
 N                    -1.62528   1.35883   0.00015 
 N                    -0.36425  -2.08677   0.00026 
 C                    -1.43025   2.77954  -0.24512 
 H                    -1.51448   3.35624   0.68178 
 H                    -0.45309   2.95358  -0.69457 
 H                    -2.18912   3.13242  -0.94807 
 C                    -2.9889    0.91473   0.24492 
 H                    -3.47163   1.59995   0.94635 
 H                    -3.57065   0.89367  -0.68242 
 H                    -2.98687  -0.07707   0.69599 
 C                     0.70197  -3.04591   0.24474 
 H                     1.00989  -3.54009  -0.68252 
 H                     1.56061  -2.54823   0.6944 
 H                     0.35036  -3.80582   0.94721 
 C                    -1.69226  -2.6279   -0.24493 
 H                    -1.61871  -3.46141  -0.94808 
 H                    -2.14948  -2.98936   0.68196 
 H                    -2.33152  -1.86843  -0.69401 
 C                     0.74783   0.27381   0.00006 
 N                     1.98949   0.72807  -0.00009 
 C                     2.2873    2.13083   0.24506 
 H                     2.5636    2.64436  -0.68164 
 H                     1.42624   2.62611   0.69273 
 H                     3.11971   2.20591   0.94937 
 C                     3.12207  -0.15162  -0.24503 
 H                     3.80776   0.3292   -0.94732 
 H                     3.66301  -0.36768   0.68208 
 H                     2.78409  -1.08455  -0.69509 
 
 ITRead=  0  0  0  0  0  0  0  0  0  0  0  0  0  0  0  0  0  0  0  0
 ITRead=  0  0  0  0  0  0  0  0  0  0
 MicOpt= -1 -1 -1 -1 -1 -1 -1 -1 -1 -1 -1 -1 -1 -1 -1 -1 -1 -1 -1 -1
 MicOpt= -1 -1 -1 -1 -1 -1 -1 -1 -1 -1
 NAtoms=     30 NQM=       30 NQMF=       0 NMMI=      0 NMMIF=      0
                NMic=       0 NMicF=      0.
                    Isotopes and Nuclear Properties:
 (Nuclear quadrupole moments (NQMom) in fm**2, nuclear magnetic moments (NMagM)
  in nuclear magnetons)

  Atom         1           2           3           4           5           6           7           8           9          10
 IAtWgt=          12          12          14          14          12           1           1           1          12           1
 AtmWgt=  12.0000000  12.0000000  14.0030740  14.0030740  12.0000000   1.0078250   1.0078250   1.0078250  12.0000000   1.0078250
 NucSpn=           0           0           2           2           0           1           1           1           0           1
 AtZEff=  -0.0000000  -0.0000000  -0.0000000  -0.0000000  -0.0000000  -0.0000000  -0.0000000  -0.0000000  -0.0000000  -0.0000000
 NQMom=    0.0000000   0.0000000   2.0440000   2.0440000   0.0000000   0.0000000   0.0000000   0.0000000   0.0000000   0.0000000
 NMagM=    0.0000000   0.0000000   0.4037610   0.4037610   0.0000000   2.7928460   2.7928460   2.7928460   0.0000000   2.7928460
 AtZNuc=   6.0000000   6.0000000   7.0000000   7.0000000   6.0000000   1.0000000   1.0000000   1.0000000   6.0000000   1.0000000

  Atom        11          12          13          14          15          16          17          18          19          20
 IAtWgt=           1           1          12           1           1           1          12           1           1           1
 AtmWgt=   1.0078250   1.0078250  12.0000000   1.0078250   1.0078250   1.0078250  12.0000000   1.0078250   1.0078250   1.0078250
 NucSpn=           1           1           0           1           1           1           0           1           1           1
 AtZEff=  -0.0000000  -0.0000000  -0.0000000  -0.0000000  -0.0000000  -0.0000000  -0.0000000  -0.0000000  -0.0000000  -0.0000000
 NQMom=    0.0000000   0.0000000   0.0000000   0.0000000   0.0000000   0.0000000   0.0000000   0.0000000   0.0000000   0.0000000
 NMagM=    2.7928460   2.7928460   0.0000000   2.7928460   2.7928460   2.7928460   0.0000000   2.7928460   2.7928460   2.7928460
 AtZNuc=   1.0000000   1.0000000   6.0000000   1.0000000   1.0000000   1.0000000   6.0000000   1.0000000   1.0000000   1.0000000

  Atom        21          22          23          24          25          26          27          28          29          30
 IAtWgt=          12          14          12           1           1           1          12           1           1           1
 AtmWgt=  12.0000000  14.0030740  12.0000000   1.0078250   1.0078250   1.0078250  12.0000000   1.0078250   1.0078250   1.0078250
 NucSpn=           0           2           0           1           1           1           0           1           1           1
 AtZEff=  -0.0000000  -0.0000000  -0.0000000  -0.0000000  -0.0000000  -0.0000000  -0.0000000  -0.0000000  -0.0000000  -0.0000000
 NQMom=    0.0000000   2.0440000   0.0000000   0.0000000   0.0000000   0.0000000   0.0000000   0.0000000   0.0000000   0.0000000
 NMagM=    0.0000000   0.4037610   0.0000000   2.7928460   2.7928460   2.7928460   0.0000000   2.7928460   2.7928460   2.7928460
 AtZNuc=   6.0000000   7.0000000   6.0000000   1.0000000   1.0000000   1.0000000   6.0000000   1.0000000   1.0000000   1.0000000
 Leave Link  101 at Mon Jan 25 21:06:50 2021, MaxMem=  4026531840 cpu:               0.6 elap:               0.1
 (Enter /opt/ohpc/pub/libs/gaussian/g16-A.03/sandybridge/g16/l202.exe)
                          Input orientation:                          
 ---------------------------------------------------------------------
 Center     Atomic      Atomic             Coordinates (Angstroms)
 Number     Number       Type             X           Y           Z
 ---------------------------------------------------------------------
      1          6           0       -0.610862    0.510880    0.000115
      2          6           0       -0.136805   -0.784324    0.000118
      3          7           0       -1.625284    1.358829    0.000149
      4          7           0       -0.364248   -2.086765    0.000256
      5          6           0       -1.430247    2.779535   -0.245115
      6          1           0       -1.514482    3.356239    0.681778
      7          1           0       -0.453085    2.953583   -0.694570
      8          1           0       -2.189123    3.132424   -0.948067
      9          6           0       -2.988895    0.914734    0.244915
     10          1           0       -3.471630    1.599951    0.946347
     11          1           0       -3.570653    0.893667   -0.682419
     12          1           0       -2.986873   -0.077069    0.695991
     13          6           0        0.701968   -3.045906    0.244739
     14          1           0        1.009895   -3.540090   -0.682520
     15          1           0        1.560610   -2.548225    0.694397
     16          1           0        0.350361   -3.805818    0.947208
     17          6           0       -1.692259   -2.627901   -0.244928
     18          1           0       -1.618712   -3.461412   -0.948079
     19          1           0       -2.149477   -2.989362    0.681963
     20          1           0       -2.331523   -1.868430   -0.694010
     21          6           0        0.747831    0.273810    0.000062
     22          7           0        1.989493    0.728067   -0.000089
     23          6           0        2.287295    2.130832    0.245062
     24          1           0        2.563599    2.644356   -0.681638
     25          1           0        1.426241    2.626112    0.692731
     26          1           0        3.119706    2.205914    0.949371
     27          6           0        3.122069   -0.151615   -0.245030
     28          1           0        3.807758    0.329200   -0.947323
     29          1           0        3.663007   -0.367678    0.682084
     30          1           0        2.784087   -1.084552   -0.695089
 ---------------------------------------------------------------------
                    Distance matrix (angstroms):
                    1          2          3          4          5
     1  C    0.000000
     2  C    1.379233   0.000000
     3  N    1.322146   2.609344   0.000000
     4  N    2.609325   1.322151   3.669105   0.000000
     5  C    2.424526   3.799240   1.454854   4.987729   0.000000
     6  H    3.062231   4.416663   2.113419   5.604802   1.094903
     7  H    2.544460   3.815046   2.097600   5.088790   1.089563
     8  H    3.203506   4.522386   2.088700   5.609761   1.092962
     9  C    2.424472   3.328835   1.454842   3.994700   2.479314
    10  H    3.203970   4.207276   2.088642   4.913531   2.641637
    11  H    3.061493   3.882373   2.113465   4.430582   2.886013
    12  H    2.544672   3.017836   2.097600   3.376550   3.386584
    13  C    3.799222   2.424486   4.987747   1.454833   6.222705
    14  H    4.416243   3.061889   5.604428   2.113435   6.788466
    15  H    3.815159   2.544521   5.088907   2.097583   6.181661
    16  H    4.522700   3.203707   5.610140   2.088666   6.925249
    17  C    3.328875   2.424512   3.994817   1.454839   5.413780
    18  H    4.206416   3.203424   4.912627   2.088701   6.283239
    19  H    3.883806   3.062344   4.432428   2.113397   5.887014
    20  H    3.017217   2.544383   3.375771   2.097581   4.755774
    21  C    1.379220   1.379213   2.609395   2.609413   3.329083
    22  N    2.609409   2.609304   3.669397   3.669247   3.995395
    23  C    3.329198   3.799262   3.995528   4.987859   3.805418
    24  H    3.885062   4.417332   4.434428   5.605424   4.019904
    25  H    3.017236   3.814957   3.376016   5.088868   3.010418
    26  H    4.206110   4.521888   4.912586   5.609443   4.738978
    27  C    3.799180   3.328765   4.987877   3.994919   5.414353
    28  H    4.522704   4.206799   5.610328   4.913291   5.825284
    29  H    4.416209   3.882943   5.604631   4.431584   6.058538
    30  H    3.815022   3.017459   5.088813   3.376381   5.735351
                    6          7          8          9         10
     6  H    0.000000
     7  H    1.784105   0.000000
     8  H    1.778097   1.763540   0.000000
     9  C    2.885427   3.386720   2.642156   0.000000
    10  H    2.642910   3.692769   2.753562   1.092960   0.000000
    11  H    3.486134   3.736661   2.644093   1.094913   1.778067
    12  H    3.735738   4.187910   3.693261   1.089563   1.763537
    13  C    6.789044   6.181449   6.924807   5.413792   6.284518
    14  H    7.469481   6.656444   7.404504   6.057715   7.011226
    15  H    6.657255   6.021137   7.001997   5.735165   6.526430
    16  H    7.405616   7.002176   7.627598   5.824728   6.620420
    17  C    6.058079   5.735041   5.824313   3.804139   4.739201
    18  H    7.010539   6.524961   6.618462   4.738279   5.713103
    19  H    6.377293   6.331760   6.335206   4.017163   4.783281
    20  H    5.464203   5.174972   5.009328   3.009937   4.002534
    21  C    3.883834   3.017598   4.206700   3.799192   4.523047
    22  N    4.432840   3.376598   4.913291   4.987907   5.610685
    23  C    4.018190   3.011563   4.739732   5.414524   5.825706
    24  H    4.358489   3.032519   4.785140   5.888997   6.337595
    25  H    3.030026   2.358751   4.002428   4.756341   5.010635
    26  H    4.782317   4.003297   5.713349   6.283185   6.619132
    27  C    5.887412   4.756687   6.283943   6.222622   6.925621
    28  H    6.335864   5.010594   6.619717   6.925227   7.628256
    29  H    6.377613   5.465177   7.011101   6.788483   7.405703
    30  H    6.331989   5.175502   6.525312   6.181268   7.002490
                   11         12         13         14         15
    11  H    0.000000
    12  H    1.784136   0.000000
    13  C    5.885163   4.756592   0.000000
    14  H    6.374921   5.465067   1.094918   0.000000
    15  H    6.330253   5.175540   1.089562   1.784092   0.000000
    16  H    6.333656   5.010370   1.092958   1.778092   1.763563
    17  C    4.015122   3.011328   2.479279   2.885344   3.386715
    18  H    4.779891   4.003574   2.642161   2.643158   3.693200
    19  H    4.354216   3.030327   2.885325   3.485218   3.736242
    20  H    3.027335   2.360204   3.386704   3.736262   4.187899
    21  C    4.415802   3.815160   3.329037   3.883353   3.017713
    22  N    5.604304   5.088909   3.995064   4.431985   3.376439
    23  C    6.058577   5.735417   5.414045   5.886554   4.756422
    24  H    6.379182   6.333384   6.058294   6.376627   5.464646
    25  H    5.464554   5.175208   5.735596   6.331406   5.176082
    26  H    7.010395   6.524302   5.824395   6.334898   5.009753
    27  C    6.787964   6.181444   3.804429   4.016770   3.010717
    28  H    7.404711   7.002324   4.739017   4.782213   4.003060
    29  H    7.468514   6.656242   4.016457   4.354922   3.029028
    30  H    6.655541   6.021138   3.010881   3.029452   2.360065
                   16         17         18         19         20
    16  H    0.000000
    17  C    2.642153   0.000000
    18  H    2.754628   1.092964   0.000000
    19  H    2.643132   1.094911   1.778083   0.000000
    20  H    3.693179   1.089555   1.763588   1.784077   0.000000
    21  C    4.206951   3.799209   4.522320   4.416749   3.814885
    22  N    4.913272   4.987762   5.609774   5.604957   5.088664
    23  C    6.283990   6.222739   6.924859   6.789125   6.181378
    24  H    7.011156   6.789679   7.405614   7.470694   6.657898
    25  H    6.526255   6.181335   7.001567   6.657283   6.020361
    26  H    6.618927   6.924386   7.627025   7.404505   7.001205
    27  C    4.738881   5.413848   5.824435   6.058162   5.735042
    28  H    5.713249   6.283947   6.619314   7.011139   6.525681
    29  H    4.781707   5.886156   6.334444   6.376378   6.330899
    30  H    4.003180   4.756285   5.009801   5.464854   5.175319
                   21         22         23         24         25
    21  C    0.000000
    22  N    1.322147   0.000000
    23  C    2.424563   1.454831   0.000000
    24  H    3.062877   2.113355   1.094908   0.000000
    25  H    2.544279   2.097577   1.089552   1.784042   0.000000
    26  H    3.203124   2.088753   1.092976   1.778110   1.763591
    27  C    2.424472   1.454842   2.479234   2.884436   3.386886
    28  H    3.203710   2.088644   2.641868   2.641679   3.692859
    29  H    3.061848   2.113449   2.885502   3.484363   3.737113
    30  H    2.544547   2.097616   3.386647   3.735445   4.187937
                   26         27         28         29         30
    26  H    0.000000
    27  C    2.642828   0.000000
    28  H    2.755525   1.092963   0.000000
    29  H    2.643860   1.094914   1.778077   0.000000
    30  H    3.693786   1.089567   1.763581   1.784100   0.000000
 Stoichiometry    C9H18N3(1+)
 Framework group  C1[X(C9H18N3)]
 Deg. of freedom    84
 Full point group                 C1      NOp   1
 Largest Abelian subgroup         C1      NOp   1
 Largest concise Abelian subgroup C1      NOp   1
                         Standard orientation:                         
 ---------------------------------------------------------------------
 Center     Atomic      Atomic             Coordinates (Angstroms)
 Number     Number       Type             X           Y           Z
 ---------------------------------------------------------------------
      1          6           0       -0.610975   -0.510745   -0.000115
      2          6           0       -0.136632    0.784354   -0.000118
      3          7           0       -1.625585   -1.358470   -0.000149
      4          7           0       -0.363786    2.086845   -0.000256
      5          6           0       -1.430862   -2.779219    0.245115
      6          1           0       -1.515224   -3.355904   -0.681778
      7          1           0       -0.453738   -2.953483    0.694570
      8          1           0       -2.189816   -3.131940    0.948067
      9          6           0       -2.989097   -0.914073   -0.244915
     10          1           0       -3.471984   -1.599183   -0.946347
     11          1           0       -3.570851   -0.892877    0.682419
     12          1           0       -2.986856    0.077730   -0.695991
     13          6           0        0.702642    3.045751   -0.244739
     14          1           0        1.010678    3.539867    0.682520
     15          1           0        1.561174    2.547880   -0.694397
     16          1           0        0.351203    3.805740   -0.947208
     17          6           0       -1.691678    2.628275    0.244928
     18          1           0       -1.617946    3.461770    0.948079
     19          1           0       -2.148816    2.989837   -0.681963
     20          1           0       -2.331110    1.868946    0.694010
     21          6           0        0.747770   -0.273975   -0.000062
     22          7           0        1.989332   -0.728507    0.000089
     23          6           0        2.286824   -2.131338   -0.245062
     24          1           0        2.563014   -2.644923    0.681638
     25          1           0        1.425660   -2.626427   -0.692731
     26          1           0        3.119218   -2.206604   -0.949371
     27          6           0        3.122102    0.150924    0.245030
     28          1           0        3.807685   -0.330042    0.947323
     29          1           0        3.663088    0.366868   -0.682084
     30          1           0        2.784327    1.083936    0.695089
 ---------------------------------------------------------------------
 Rotational constants (GHZ):           0.8639071           0.8637633           0.4436577
 Leave Link  202 at Mon Jan 25 21:06:50 2021, MaxMem=  4026531840 cpu:               0.1 elap:               0.0
 (Enter /opt/ohpc/pub/libs/gaussian/g16-A.03/sandybridge/g16/l301.exe)
 Standard basis: TZVP (5D, 7F)
 Ernie: Thresh=  0.10000D-02 Tol=  0.10000D-05 Strict=F.
 There are   348 symmetry adapted cartesian basis functions of A   symmetry.
 There are   336 symmetry adapted basis functions of A   symmetry.
   336 basis functions,   564 primitive gaussians,   348 cartesian basis functions
    46 alpha electrons       46 beta electrons
       nuclear repulsion energy       740.7629817128 Hartrees.
 IExCor=33909 DFT=T Ex+Corr=LC-wHPBE ExCW=0 ScaHFX=  1.000000
 ScaDFX=  1.000000  1.000000  1.000000  1.000000 ScalE2=  1.000000  1.000000
 IRadAn=      5 IRanWt=     -1 IRanGd=            0 ICorTp=0 IEmpDi=  4
 HFx  wShort=  0.000000 wLong=  0.156200 cFull=  0.000000 cShort=  0.000000 cLong=  1.000000
 DFx  wShort=  0.000000 wLong=  0.156200 cFull=  0.000000 cShort=  1.000000 cLong=  0.000000
 NAtoms=   30 NActive=   30 NUniq=   30 SFac= 1.00D+00 NAtFMM=   60 NAOKFM=F Big=F
 Integral buffers will be    131072 words long.
 Raffenetti 2 integral format.
 Two-electron integral symmetry is turned on.
 Leave Link  301 at Mon Jan 25 21:06:50 2021, MaxMem=  4026531840 cpu:               0.4 elap:               0.1
 (Enter /opt/ohpc/pub/libs/gaussian/g16-A.03/sandybridge/g16/l302.exe)
 NPDir=0 NMtPBC=     1 NCelOv=     1 NCel=       1 NClECP=     1 NCelD=      1
         NCelK=      1 NCelE2=     1 NClLst=     1 CellRange=     0.0.
 One-electron integrals computed using PRISM.
 One-electron integral symmetry used in STVInt
 NBasis=   336 RedAO= T EigKep=  2.74D-05  NBF=   336
 NBsUse=   336 1.00D-06 EigRej= -1.00D+00 NBFU=   336
 Precomputing XC quadrature grid using
 IXCGrd= 4 IRadAn=           5 IRanWt=          -1 IRanGd=           0 AccXCQ= 0.00D+00.
 Generated NRdTot=       0 NPtTot=           0 NUsed=           0 NTot=          32
 NSgBfM=   343   343   343   343   343 MxSgAt=    30 MxSgA2=    30.
 Leave Link  302 at Mon Jan 25 21:06:51 2021, MaxMem=  4026531840 cpu:               3.7 elap:               0.5
 (Enter /opt/ohpc/pub/libs/gaussian/g16-A.03/sandybridge/g16/l303.exe)
 DipDrv:  MaxL=1.
 Leave Link  303 at Mon Jan 25 21:06:51 2021, MaxMem=  4026531840 cpu:               0.8 elap:               0.1
 (Enter /opt/ohpc/pub/libs/gaussian/g16-A.03/sandybridge/g16/l401.exe)
 ExpMin= 9.52D-02 ExpMax= 1.97D+04 ExpMxC= 6.73D+02 IAcc=3 IRadAn=         5 AccDes= 0.00D+00
 Harris functional with IExCor=33909 and IRadAn=       5 diagonalized for initial guess.
 HarFok:  IExCor=33909 AccDes= 0.00D+00 IRadAn=         5 IDoV= 1 UseB2=F ITyADJ=14
 ICtDFT=  3500011 ScaDFX=  1.000000  1.000000  1.000000  1.000000
 FoFCou: FMM=F IPFlag=           0 FMFlag=      100000 FMFlg1=           0
         NFxFlg=           0 DoJE=T BraDBF=F KetDBF=T FulRan=T
         wScrn=  0.000000 ICntrl=       500 IOpCl=  0 I1Cent=   200000004 NGrid=           0
         NMat0=    1 NMatS0=      1 NMatT0=    0 NMatD0=    1 NMtDS0=    0 NMtDT0=    0
 Petite list used in FoFCou.
 Harris En= -509.699931445326    
 JPrj=0 DoOrth=F DoCkMO=F.
 Leave Link  401 at Mon Jan 25 21:06:54 2021, MaxMem=  4026531840 cpu:              24.7 elap:               3.1
 (Enter /opt/ohpc/pub/libs/gaussian/g16-A.03/sandybridge/g16/l502.exe)
 Integral symmetry usage will be decided dynamically.
 Closed shell SCF:
 Using DIIS extrapolation, IDIIS=    10.
 NGot=  4026531840 LenX=  4026283142 LenY=  4026161597
 Requested convergence on RMS density matrix=1.00D-06 within  32 cycles.
 Requested convergence on MAX density matrix=1.00D-04.
 Requested convergence on             energy=1.00D-04.
 Virtual orbitals will be shifted by   0.500 hartree.
 No special actions if energy rises.
 Dynamic level shift is on during FON iterations.

 Cycle   1  Pass 1  IDiag  1:
 FoFJK:  IHMeth= 1 ICntrl=       0 DoSepK=T KAlg= 0 I1Cent=           0 FoldK=F
 IRaf=         1 NMat=       1 IRICut=       1 DoRegI=T DoRafI=F ISym2E= 0 IDoP0=0 IntGTp=1.
 FoFCou: FMM=F IPFlag=           0 FMFlag=      100000 FMFlg1=           0
         NFxFlg=           0 DoJE=T BraDBF=F KetDBF=F FulRan=T
         wScrn=  0.000000 ICntrl=       500 IOpCl=  0 I1Cent=           0 NGrid=           0
         NMat0=    1 NMatS0=      1 NMatT0=    0 NMatD0=    1 NMtDS0=    0 NMtDT0=    0
 Symmetry not used in FoFCou.
 E= -517.209639348433    
 DIIS: error= 3.54D-02 at cycle   1 NSaved=   1.
 NSaved= 1 IEnMin= 1 EnMin= -517.209639348433     IErMin= 1 ErrMin= 3.54D-02
 ErrMax= 3.54D-02  0.00D+00 EMaxC= 1.00D+00 BMatC= 2.04D-01 BMatP= 2.04D-01
 IDIUse=1 WtCom= 1.00D+00 WtEn= 0.00D+00
 Coeff-Com:  0.100D+01
 Coeff:      0.100D+01
 Gap=     0.310 Goal=   None    Shift=    0.500
 T= 1596. Gap= 0.801 NK=0 IS=   47 IE=  336 IFin=   46
          NO(<0.9)=   0  NV(>0.1)=   0     46.00e < EF      0.00e >EF  Err=0.0D+00
 GapD=    0.310 DampG=1.000 DampE=0.500 DampFc=0.5000 IDamp=-1.
 Damping current iteration by 5.00D-01
 RMSDP=1.66D-03 MaxDP=4.10D-02              OVMax= 5.92D-02

 Cycle   2  Pass 1  IDiag  1:
 E= -517.328139536897     Delta-E=       -0.118500188464 Rises=F Damp=T
 DIIS: error= 1.39D-02 at cycle   2 NSaved=   2.
 NSaved= 2 IEnMin= 2 EnMin= -517.328139536897     IErMin= 2 ErrMin= 1.39D-02
 ErrMax= 1.39D-02  0.00D+00 EMaxC= 1.00D+00 BMatC= 3.42D-02 BMatP= 2.04D-01
 IDIUse=1 WtCom= 1.00D+00 WtEn= 0.00D+00
 Coeff-Com: -0.576D+00 0.158D+01
 Coeff:     -0.576D+00 0.158D+01
 Gap=     0.316 Goal=   None    Shift=    0.500
 T= 1461. Gap= 0.814 NK=0 IS=   47 IE=  336 IFin=   46
          NO(<0.9)=   0  NV(>0.1)=   0     46.00e < EF      0.00e >EF  Err=0.0D+00
 GapD=    0.316 DampG=1.000 DampE=0.500 DampFc=0.5000 IDamp=-1.
 Damping current iteration by 5.00D-01
 RMSDP=1.08D-03 MaxDP=3.30D-02 DE=-1.19D-01 OVMax= 9.90D-03

 Cycle   3  Pass 1  IDiag  1:
 E= -517.368292434082     Delta-E=       -0.040152897185 Rises=F Damp=T
 DIIS: error= 5.71D-03 at cycle   3 NSaved=   3.
 NSaved= 3 IEnMin= 3 EnMin= -517.368292434082     IErMin= 3 ErrMin= 5.71D-03
 ErrMax= 5.71D-03  0.00D+00 EMaxC= 1.00D+00 BMatC= 6.56D-03 BMatP= 3.42D-02
 IDIUse=1 WtCom= 1.00D+00 WtEn= 0.00D+00
 Coeff-Com:  0.140D+00-0.121D+01 0.207D+01
 Coeff:      0.140D+00-0.121D+01 0.207D+01
 Gap=     0.320 Goal=   None    Shift=    0.500
 T= 1202. Gap= 0.816 NK=0 IS=   47 IE=  336 IFin=   46
          NO(<0.9)=   0  NV(>0.1)=   0     46.00e < EF      0.00e >EF  Err=0.0D+00
 GapD=    0.320 DampG=1.000 DampE=1.000 DampFc=1.0000 IDamp=-1.
 RMSDP=6.47D-04 MaxDP=2.42D-02 DE=-4.02D-02 OVMax= 2.96D-03

 Cycle   4  Pass 1  IDiag  1:
 E= -517.401491129391     Delta-E=       -0.033198695309 Rises=F Damp=F
 DIIS: error= 8.89D-04 at cycle   4 NSaved=   4.
 NSaved= 4 IEnMin= 4 EnMin= -517.401491129391     IErMin= 4 ErrMin= 8.89D-04
 ErrMax= 8.89D-04  0.00D+00 EMaxC= 1.00D+00 BMatC= 1.69D-04 BMatP= 6.56D-03
 IDIUse=1 WtCom= 1.00D+00 WtEn= 0.00D+00
 Coeff-Com:  0.675D-01-0.132D+00 0.362D-01 0.103D+01
 Coeff:      0.675D-01-0.132D+00 0.362D-01 0.103D+01
 Gap=     0.316 Goal=   None    Shift=    0.500
 RMSDP=8.74D-05 MaxDP=3.58D-03 DE=-3.32D-02 OVMax= 1.44D-03

 Cycle   5  Pass 1  IDiag  1:
 E= -517.401666903332     Delta-E=       -0.000175773942 Rises=F Damp=F
 DIIS: error= 2.53D-04 at cycle   5 NSaved=   5.
 NSaved= 5 IEnMin= 5 EnMin= -517.401666903332     IErMin= 5 ErrMin= 2.53D-04
 ErrMax= 2.53D-04  0.00D+00 EMaxC= 1.00D+00 BMatC= 1.71D-05 BMatP= 1.69D-04
 IDIUse=1 WtCom= 1.00D+00 WtEn= 0.00D+00
 Coeff-Com: -0.448D-02 0.114D+00-0.220D+00-0.808D-01 0.119D+01
 Coeff:     -0.448D-02 0.114D+00-0.220D+00-0.808D-01 0.119D+01
 Gap=     0.317 Goal=   None    Shift=    0.500
 RMSDP=5.31D-05 MaxDP=2.07D-03 DE=-1.76D-04 OVMax= 9.71D-04

 Cycle   6  Pass 1  IDiag  1:
 E= -517.401694310261     Delta-E=       -0.000027406929 Rises=F Damp=F
 DIIS: error= 8.70D-05 at cycle   6 NSaved=   6.
 NSaved= 6 IEnMin= 6 EnMin= -517.401694310261     IErMin= 6 ErrMin= 8.70D-05
 ErrMax= 8.70D-05  0.00D+00 EMaxC= 1.00D+00 BMatC= 2.89D-06 BMatP= 1.71D-05
 IDIUse=1 WtCom= 1.00D+00 WtEn= 0.00D+00
 Coeff-Com: -0.111D-01 0.577D-01-0.811D-01-0.186D+00 0.241D+00 0.980D+00
 Coeff:     -0.111D-01 0.577D-01-0.811D-01-0.186D+00 0.241D+00 0.980D+00
 Gap=     0.316 Goal=   None    Shift=    0.500
 RMSDP=2.58D-05 MaxDP=6.14D-04 DE=-2.74D-05 OVMax= 5.80D-04

 Cycle   7  Pass 1  IDiag  1:
 E= -517.401700516378     Delta-E=       -0.000006206116 Rises=F Damp=F
 DIIS: error= 8.27D-05 at cycle   7 NSaved=   7.
 NSaved= 7 IEnMin= 7 EnMin= -517.401700516378     IErMin= 7 ErrMin= 8.27D-05
 ErrMax= 8.27D-05  0.00D+00 EMaxC= 1.00D+00 BMatC= 5.47D-07 BMatP= 2.89D-06
 IDIUse=1 WtCom= 1.00D+00 WtEn= 0.00D+00
 Coeff-Com: -0.174D-02-0.123D-01 0.295D-01-0.378D-01-0.215D+00-0.956D-01
 Coeff-Com:  0.133D+01
 Coeff:     -0.174D-02-0.123D-01 0.295D-01-0.378D-01-0.215D+00-0.956D-01
 Coeff:      0.133D+01
 Gap=     0.316 Goal=   None    Shift=    0.500
 RMSDP=1.53D-05 MaxDP=3.66D-04 DE=-6.21D-06 OVMax= 4.20D-04

 Cycle   8  Pass 1  IDiag  1:
 E= -517.401702211801     Delta-E=       -0.000001695424 Rises=F Damp=F
 DIIS: error= 5.10D-05 at cycle   8 NSaved=   8.
 NSaved= 8 IEnMin= 8 EnMin= -517.401702211801     IErMin= 8 ErrMin= 5.10D-05
 ErrMax= 5.10D-05  0.00D+00 EMaxC= 1.00D+00 BMatC= 1.37D-07 BMatP= 5.47D-07
 IDIUse=1 WtCom= 1.00D+00 WtEn= 0.00D+00
 Coeff-Com:  0.162D-02-0.501D-02 0.402D-02 0.367D-01-0.442D-01-0.130D+00
 Coeff-Com: -0.730D+00 0.187D+01
 Coeff:      0.162D-02-0.501D-02 0.402D-02 0.367D-01-0.442D-01-0.130D+00
 Coeff:     -0.730D+00 0.187D+01
 Gap=     0.316 Goal=   None    Shift=    0.500
 RMSDP=7.76D-06 MaxDP=1.60D-04 DE=-1.70D-06 OVMax= 2.81D-04

 Cycle   9  Pass 1  IDiag  1:
 E= -517.401702707148     Delta-E=       -0.000000495347 Rises=F Damp=F
 DIIS: error= 3.12D-05 at cycle   9 NSaved=   9.
 NSaved= 9 IEnMin= 9 EnMin= -517.401702707148     IErMin= 9 ErrMin= 3.12D-05
 ErrMax= 3.12D-05  0.00D+00 EMaxC= 1.00D+00 BMatC= 3.61D-08 BMatP= 1.37D-07
 IDIUse=1 WtCom= 1.00D+00 WtEn= 0.00D+00
 Coeff-Com: -0.217D-03 0.330D-02-0.597D-02-0.309D-03 0.544D-01-0.194D-01
 Coeff-Com: -0.114D+00-0.105D+01 0.213D+01
 Coeff:     -0.217D-03 0.330D-02-0.597D-02-0.309D-03 0.544D-01-0.194D-01
 Coeff:     -0.114D+00-0.105D+01 0.213D+01
 Gap=     0.316 Goal=   None    Shift=    0.500
 RMSDP=3.86D-06 MaxDP=8.30D-05 DE=-4.95D-07 OVMax= 1.76D-04

 Cycle  10  Pass 1  IDiag  1:
 E= -517.401702849892     Delta-E=       -0.000000142744 Rises=F Damp=F
 DIIS: error= 1.84D-05 at cycle  10 NSaved=  10.
 NSaved=10 IEnMin=10 EnMin= -517.401702849892     IErMin=10 ErrMin= 1.84D-05
 ErrMax= 1.84D-05  0.00D+00 EMaxC= 1.00D+00 BMatC= 1.03D-08 BMatP= 3.61D-08
 IDIUse=1 WtCom= 1.00D+00 WtEn= 0.00D+00
 Coeff-Com: -0.218D-03 0.480D-03-0.207D-03-0.508D-02 0.771D-02 0.173D-01
 Coeff-Com:  0.119D+00-0.224D+00-0.134D+01 0.242D+01
 Coeff:     -0.218D-03 0.480D-03-0.207D-03-0.508D-02 0.771D-02 0.173D-01
 Coeff:      0.119D+00-0.224D+00-0.134D+01 0.242D+01
 Gap=     0.316 Goal=   None    Shift=    0.500
 RMSDP=1.97D-06 MaxDP=4.52D-05 DE=-1.43D-07 OVMax= 1.08D-04

 Cycle  11  Pass 1  IDiag  1:
 E= -517.401702892193     Delta-E=       -0.000000042301 Rises=F Damp=F
 DIIS: error= 1.04D-05 at cycle  11 NSaved=  11.
 NSaved=11 IEnMin=11 EnMin= -517.401702892193     IErMin=11 ErrMin= 1.04D-05
 ErrMax= 1.04D-05  0.00D+00 EMaxC= 1.00D+00 BMatC= 2.95D-09 BMatP= 1.03D-08
 IDIUse=1 WtCom= 1.00D+00 WtEn= 0.00D+00
 Coeff-Com:  0.104D-03-0.586D-03 0.821D-03 0.207D-02-0.830D-02-0.587D-02
 Coeff-Com: -0.219D-01 0.294D+00-0.117D+00-0.204D+01 0.290D+01
 Coeff:      0.104D-03-0.586D-03 0.821D-03 0.207D-02-0.830D-02-0.587D-02
 Coeff:     -0.219D-01 0.294D+00-0.117D+00-0.204D+01 0.290D+01
 Gap=     0.316 Goal=   None    Shift=    0.500
 RMSDP=1.02D-06 MaxDP=2.46D-05 DE=-4.23D-08 OVMax= 6.34D-05

 Cycle  12  Pass 1  IDiag  1:
 E= -517.401702904487     Delta-E=       -0.000000012294 Rises=F Damp=F
 DIIS: error= 5.74D-06 at cycle  12 NSaved=  12.
 NSaved=12 IEnMin=12 EnMin= -517.401702904487     IErMin=12 ErrMin= 5.74D-06
 ErrMax= 5.74D-06  0.00D+00 EMaxC= 1.00D+00 BMatC= 8.71D-10 BMatP= 2.95D-09
 IDIUse=1 WtCom= 1.00D+00 WtEn= 0.00D+00
 Coeff-Com:  0.268D-04-0.548D-04 0.122D-04 0.707D-03-0.834D-03-0.330D-02
 Coeff-Com: -0.567D-02 0.492D-01 0.115D+00-0.428D+00-0.970D+00 0.224D+01
 Coeff:      0.268D-04-0.548D-04 0.122D-04 0.707D-03-0.834D-03-0.330D-02
 Coeff:     -0.567D-02 0.492D-01 0.115D+00-0.428D+00-0.970D+00 0.224D+01
 Gap=     0.316 Goal=   None    Shift=    0.500
 RMSDP=5.40D-07 MaxDP=1.32D-05 DE=-1.23D-08 OVMax= 3.58D-05

 SCF Done:  E(RLC-wHPBE) =  -517.401702904     A.U. after   12 cycles
            NFock= 12  Conv=0.54D-06     -V/T= 2.0045
 KE= 5.150657139356D+02 PE=-2.668703768744D+03 EE= 8.954733701907D+02
 Leave Link  502 at Mon Jan 25 21:09:20 2021, MaxMem=  4026531840 cpu:            1164.7 elap:             146.4
 (Enter /opt/ohpc/pub/libs/gaussian/g16-A.03/sandybridge/g16/l508.exe)
 QCSCF skips out because SCF is already converged.
 Leave Link  508 at Mon Jan 25 21:09:21 2021, MaxMem=  4026531840 cpu:               0.1 elap:               0.0
 (Enter /opt/ohpc/pub/libs/gaussian/g16-A.03/sandybridge/g16/l601.exe)
 Copying SCF densities to generalized density rwf, IOpCl= 0 IROHF=0.

 **********************************************************************

            Population analysis using the SCF density.

 **********************************************************************

 Orbital symmetries:
       Occupied  (A) (A) (A) (A) (A) (A) (A) (A) (A) (A) (A) (A)
                 (A) (A) (A) (A) (A) (A) (A) (A) (A) (A) (A) (A)
                 (A) (A) (A) (A) (A) (A) (A) (A) (A) (A) (A) (A)
                 (A) (A) (A) (A) (A) (A) (A) (A) (A) (A)
       Virtual   (A) (A) (A) (A) (A) (A) (A) (A) (A) (A) (A) (A)
                 (A) (A) (A) (A) (A) (A) (A) (A) (A) (A) (A) (A)
                 (A) (A) (A) (A) (A) (A) (A) (A) (A) (A) (A) (A)
                 (A) (A) (A) (A) (A) (A) (A) (A) (A) (A) (A) (A)
                 (A) (A) (A) (A) (A) (A) (A) (A) (A) (A) (A) (A)
                 (A) (A) (A) (A) (A) (A) (A) (A) (A) (A) (A) (A)
                 (A) (A) (A) (A) (A) (A) (A) (A) (A) (A) (A) (A)
                 (A) (A) (A) (A) (A) (A) (A) (A) (A) (A) (A) (A)
                 (A) (A) (A) (A) (A) (A) (A) (A) (A) (A) (A) (A)
                 (A) (A) (A) (A) (A) (A) (A) (A) (A) (A) (A) (A)
                 (A) (A) (A) (A) (A) (A) (A) (A) (A) (A) (A) (A)
                 (A) (A) (A) (A) (A) (A) (A) (A) (A) (A) (A) (A)
                 (A) (A) (A) (A) (A) (A) (A) (A) (A) (A) (A) (A)
                 (A) (A) (A) (A) (A) (A) (A) (A) (A) (A) (A) (A)
                 (A) (A) (A) (A) (A) (A) (A) (A) (A) (A) (A) (A)
                 (A) (A) (A) (A) (A) (A) (A) (A) (A) (A) (A) (A)
                 (A) (A) (A) (A) (A) (A) (A) (A) (A) (A) (A) (A)
                 (A) (A) (A) (A) (A) (A) (A) (A) (A) (A) (A) (A)
                 (A) (A) (A) (A) (A) (A) (A) (A) (A) (A) (A) (A)
                 (A) (A) (A) (A) (A) (A) (A) (A) (A) (A) (A) (A)
                 (A) (A) (A) (A) (A) (A) (A) (A) (A) (A) (A) (A)
                 (A) (A) (A) (A) (A) (A) (A) (A) (A) (A) (A) (A)
                 (A) (A) (A) (A) (A) (A) (A) (A) (A) (A) (A) (A)
                 (A) (A) (A) (A) (A) (A) (A) (A) (A) (A) (A) (A)
                 (A) (A)
 The electronic state is 1-A.
 Alpha  occ. eigenvalues --  -14.26189 -14.26189 -14.26188 -10.18880 -10.18817
 Alpha  occ. eigenvalues --  -10.18816 -10.13615 -10.13614 -10.13614 -10.13612
 Alpha  occ. eigenvalues --  -10.13612 -10.13611  -1.15063  -1.11500  -1.11500
 Alpha  occ. eigenvalues --   -1.05852  -0.89240  -0.89240  -0.88476  -0.87239
 Alpha  occ. eigenvalues --   -0.87239  -0.85490  -0.72206  -0.72205  -0.71570
 Alpha  occ. eigenvalues --   -0.67240  -0.67239  -0.67152  -0.64764  -0.64458
 Alpha  occ. eigenvalues --   -0.64457  -0.59118  -0.59117  -0.58981  -0.58790
 Alpha  occ. eigenvalues --   -0.57822  -0.57821  -0.57590  -0.56621  -0.56620
 Alpha  occ. eigenvalues --   -0.55147  -0.54924  -0.54922  -0.46901  -0.46901
 Alpha  occ. eigenvalues --   -0.38112
 Alpha virt. eigenvalues --   -0.06481  -0.06478  -0.06245  -0.02610  -0.02609
 Alpha virt. eigenvalues --   -0.01417  -0.00139   0.00030   0.00032   0.02514
 Alpha virt. eigenvalues --    0.02523   0.02524   0.02855   0.02855   0.03116
 Alpha virt. eigenvalues --    0.04204   0.04266   0.04269   0.04317   0.05456
 Alpha virt. eigenvalues --    0.05464   0.06243   0.06248   0.07202   0.09623
 Alpha virt. eigenvalues --    0.09736   0.09743   0.11876   0.12099   0.12101
 Alpha virt. eigenvalues --    0.13404   0.13414   0.15776   0.16295   0.16301
 Alpha virt. eigenvalues --    0.17595   0.18392   0.19769   0.19774   0.21954
 Alpha virt. eigenvalues --    0.22472   0.22481   0.22483   0.23668   0.23672
 Alpha virt. eigenvalues --    0.25861   0.25868   0.26261   0.28670   0.28675
 Alpha virt. eigenvalues --    0.30375   0.30477   0.31804   0.31815   0.33732
 Alpha virt. eigenvalues --    0.34356   0.34363   0.34676   0.35083   0.35085
 Alpha virt. eigenvalues --    0.35799   0.36790   0.36794   0.36976   0.38725
 Alpha virt. eigenvalues --    0.38729   0.39047   0.39796   0.39800   0.41437
 Alpha virt. eigenvalues --    0.41448   0.42856   0.43027   0.43620   0.44543
 Alpha virt. eigenvalues --    0.44552   0.45266   0.45872   0.45876   0.48259
 Alpha virt. eigenvalues --    0.48260   0.53264   0.53266   0.55953   0.55959
 Alpha virt. eigenvalues --    0.56480   0.56487   0.56624   0.58475   0.60736
 Alpha virt. eigenvalues --    0.63571   0.63616   0.63618   0.70579   0.70592
 Alpha virt. eigenvalues --    0.74895   0.74900   0.75344   1.02696   1.02702
 Alpha virt. eigenvalues --    1.02806   1.07258   1.12486   1.12619   1.12633
 Alpha virt. eigenvalues --    1.13569   1.14232   1.17156   1.17161   1.19108
 Alpha virt. eigenvalues --    1.19111   1.21776   1.22193   1.22195   1.22823
 Alpha virt. eigenvalues --    1.23515   1.24298   1.24304   1.25947   1.25950
 Alpha virt. eigenvalues --    1.26751   1.28111   1.28124   1.32749   1.32761
 Alpha virt. eigenvalues --    1.33059   1.34072   1.34642   1.34646   1.34715
 Alpha virt. eigenvalues --    1.36737   1.36752   1.39159   1.39164   1.41746
 Alpha virt. eigenvalues --    1.43223   1.44099   1.44714   1.44721   1.45754
 Alpha virt. eigenvalues --    1.45758   1.46634   1.46639   1.49565   1.52275
 Alpha virt. eigenvalues --    1.52640   1.52652   1.54250   1.54539   1.54543
 Alpha virt. eigenvalues --    1.57179   1.57183   1.59492   1.60191   1.60194
 Alpha virt. eigenvalues --    1.62146   1.64114   1.64117   1.65077   1.66360
 Alpha virt. eigenvalues --    1.66362   1.66573   1.66824   1.67232   1.67239
 Alpha virt. eigenvalues --    1.67699   1.67705   1.67826   1.69370   1.69374
 Alpha virt. eigenvalues --    1.70577   1.70671   1.70682   1.71151   1.75734
 Alpha virt. eigenvalues --    1.75739   1.76397   1.76405   1.78034   1.88342
 Alpha virt. eigenvalues --    1.90495   1.90512   1.96961   1.97067   1.97075
 Alpha virt. eigenvalues --    1.99035   2.01182   2.01188   2.01679   2.04193
 Alpha virt. eigenvalues --    2.04203   2.09744   2.09752   2.11208   2.15926
 Alpha virt. eigenvalues --    2.16107   2.16829   2.16837   2.18061   2.18067
 Alpha virt. eigenvalues --    2.18123   2.19598   2.21676   2.21694   2.23256
 Alpha virt. eigenvalues --    2.23262   2.23892   2.26068   2.27351   2.27359
 Alpha virt. eigenvalues --    2.31297   2.32856   2.32868   2.40332   2.40341
 Alpha virt. eigenvalues --    2.40448   2.40605   2.40612   2.43558   2.43567
 Alpha virt. eigenvalues --    2.43586   2.45178   2.45868   2.45898   2.48184
 Alpha virt. eigenvalues --    2.48759   2.48776   2.49342   2.51876   2.54988
 Alpha virt. eigenvalues --    2.55004   2.55354   2.58561   2.58568   2.60250
 Alpha virt. eigenvalues --    2.63206   2.63215   2.64822   2.65596   2.65618
 Alpha virt. eigenvalues --    2.70367   2.70371   2.72421   2.73357   2.75910
 Alpha virt. eigenvalues --    2.75912   2.83704   2.83706   2.96589   2.97266
 Alpha virt. eigenvalues --    2.97295   2.97915   2.99146   2.99155   3.05183
 Alpha virt. eigenvalues --    3.09576   3.09580   3.16377   3.16388   3.18104
 Alpha virt. eigenvalues --    3.18346   3.18351   3.19551   3.21039   3.21053
 Alpha virt. eigenvalues --    3.21964   3.26674   3.26694   3.28167   3.32671
 Alpha virt. eigenvalues --    3.32679   3.36011   3.41125   3.59427   3.59440
 Alpha virt. eigenvalues --    3.70059   3.85259   3.85267  21.34207  21.62377
 Alpha virt. eigenvalues --   21.64262  21.64270  21.80109  21.80112  21.84319
 Alpha virt. eigenvalues --   22.07583  22.07596  31.47265  31.66450  31.66455
          Condensed to atoms (all electrons):
               1          2          3          4          5          6
     1  C    5.753650   0.108441   0.504361  -0.103914  -0.064617  -0.004303
     2  C    0.108441   5.754080  -0.103856   0.504439  -0.000275  -0.003014
     3  N    0.504361  -0.103856   6.462226  -0.002798   0.228686  -0.041893
     4  N   -0.103914   0.504439  -0.002798   6.462198  -0.000717  -0.000010
     5  C   -0.064617  -0.000275   0.228686  -0.000717   4.952214   0.414607
     6  H   -0.004303  -0.003014  -0.041893  -0.000010   0.414607   0.511993
     7  H   -0.017126   0.006190  -0.028565   0.000011   0.403483  -0.025792
     8  H    0.008751   0.000815  -0.039713   0.000005   0.401098  -0.028865
     9  C   -0.064683  -0.005368   0.228629  -0.000674  -0.052634  -0.007612
    10  H    0.008785  -0.002947  -0.039661  -0.000045   0.000137   0.004943
    11  H   -0.004342   0.006661  -0.041934   0.000052  -0.007592  -0.001028
    12  H   -0.017120   0.002672  -0.028535  -0.002002   0.008793  -0.000007
    13  C   -0.000302  -0.064636  -0.000717   0.228699   0.000014  -0.000003
    14  H   -0.003016  -0.004323  -0.000010  -0.041923  -0.000003  -0.000000
    15  H    0.006177  -0.017109   0.000011  -0.028540   0.000002  -0.000000
    16  H    0.000816   0.008778   0.000005  -0.039688   0.000001   0.000000
    17  C   -0.005438  -0.064645  -0.000679   0.228673   0.000003   0.000001
    18  H   -0.002957   0.008751  -0.000045  -0.039718  -0.000002  -0.000000
    19  H    0.006649  -0.004294   0.000052  -0.041897   0.000013   0.000002
    20  H    0.002710  -0.017127  -0.002013  -0.028556  -0.000063  -0.000001
    21  C    0.109224   0.108330  -0.103840  -0.103905  -0.005484   0.006650
    22  N   -0.103902  -0.103840  -0.002802  -0.002798  -0.000674   0.000052
    23  C   -0.005501  -0.000221  -0.000678  -0.000717   0.001961  -0.000663
    24  H    0.006646  -0.003017   0.000051  -0.000010  -0.000659  -0.000088
    25  H    0.002701   0.006234  -0.002005   0.000011   0.000386  -0.000262
    26  H   -0.002961   0.000814  -0.000045   0.000005   0.000122   0.000043
    27  C   -0.000337  -0.005344  -0.000717  -0.000675   0.000003   0.000013
    28  H    0.000820  -0.002951   0.000005  -0.000045  -0.000005  -0.000001
    29  H   -0.003016   0.006654  -0.000010   0.000052   0.000001   0.000002
    30  H    0.006169   0.002660   0.000011  -0.002008   0.000006  -0.000000
               7          8          9         10         11         12
     1  C   -0.017126   0.008751  -0.064683   0.008785  -0.004342  -0.017120
     2  C    0.006190   0.000815  -0.005368  -0.002947   0.006661   0.002672
     3  N   -0.028565  -0.039713   0.228629  -0.039661  -0.041934  -0.028535
     4  N    0.000011   0.000005  -0.000674  -0.000045   0.000052  -0.002002
     5  C    0.403483   0.401098  -0.052634   0.000137  -0.007592   0.008793
     6  H   -0.025792  -0.028865  -0.007612   0.004943  -0.001028  -0.000007
     7  H    0.520753  -0.019785   0.008797   0.000266  -0.000010  -0.000524
     8  H   -0.019785   0.509487   0.000151  -0.003695   0.004944   0.000263
     9  C    0.008797   0.000151   4.952440   0.401009   0.414646   0.403541
    10  H    0.000266  -0.003695   0.401009   0.509440  -0.028841  -0.019753
    11  H   -0.000010   0.004944   0.414646  -0.028841   0.512018  -0.025832
    12  H   -0.000524   0.000263   0.403541  -0.019753  -0.025832   0.520608
    13  C    0.000002   0.000001   0.000004  -0.000002   0.000013  -0.000063
    14  H   -0.000000   0.000000   0.000001  -0.000000   0.000002  -0.000001
    15  H   -0.000001   0.000000   0.000006  -0.000000  -0.000000   0.000013
    16  H    0.000000  -0.000000  -0.000005   0.000000  -0.000001   0.000008
    17  C    0.000006  -0.000005   0.002020   0.000122  -0.000673   0.000391
    18  H   -0.000000   0.000000   0.000122  -0.000008   0.000043   0.000313
    19  H   -0.000000  -0.000001  -0.000668   0.000043  -0.000089  -0.000257
    20  H    0.000013   0.000008   0.000413   0.000314  -0.000259  -0.002973
    21  C    0.002693  -0.002951  -0.000361   0.000816  -0.003012   0.006146
    22  N   -0.001996  -0.000045  -0.000717   0.000005  -0.000010   0.000010
    23  C    0.000367   0.000123   0.000002  -0.000005   0.000001   0.000006
    24  H   -0.000260   0.000042   0.000013  -0.000001   0.000002  -0.000000
    25  H   -0.002937   0.000314  -0.000062   0.000008  -0.000001   0.000013
    26  H    0.000314  -0.000008  -0.000002   0.000000  -0.000000  -0.000000
    27  C   -0.000062  -0.000002   0.000014   0.000001  -0.000003   0.000002
    28  H    0.000008   0.000000   0.000001  -0.000000   0.000000   0.000000
    29  H   -0.000001  -0.000000  -0.000003   0.000000  -0.000000  -0.000000
    30  H    0.000013  -0.000000   0.000002   0.000000  -0.000000  -0.000001
              13         14         15         16         17         18
     1  C   -0.000302  -0.003016   0.006177   0.000816  -0.005438  -0.002957
     2  C   -0.064636  -0.004323  -0.017109   0.008778  -0.064645   0.008751
     3  N   -0.000717  -0.000010   0.000011   0.000005  -0.000679  -0.000045
     4  N    0.228699  -0.041923  -0.028540  -0.039688   0.228673  -0.039718
     5  C    0.000014  -0.000003   0.000002   0.000001   0.000003  -0.000002
     6  H   -0.000003  -0.000000  -0.000000   0.000000   0.000001  -0.000000
     7  H    0.000002  -0.000000  -0.000001   0.000000   0.000006  -0.000000
     8  H    0.000001   0.000000   0.000000  -0.000000  -0.000005   0.000000
     9  C    0.000004   0.000001   0.000006  -0.000005   0.002020   0.000122
    10  H   -0.000002  -0.000000  -0.000000   0.000000   0.000122  -0.000008
    11  H    0.000013   0.000002  -0.000000  -0.000001  -0.000673   0.000043
    12  H   -0.000063  -0.000001   0.000013   0.000008   0.000391   0.000313
    13  C    4.952279   0.414655   0.403489   0.401030  -0.052693   0.000153
    14  H    0.414655   0.512021  -0.025803  -0.028867  -0.007608   0.004956
    15  H    0.403489  -0.025803   0.520656  -0.019763   0.008803   0.000264
    16  H    0.401030  -0.028867  -0.019763   0.509512   0.000138  -0.003695
    17  C   -0.052693  -0.007608   0.008803   0.000138   4.952252   0.401087
    18  H    0.000153   0.004956   0.000264  -0.003695   0.401087   0.509552
    19  H   -0.007609  -0.001030  -0.000009   0.004952   0.414599  -0.028876
    20  H    0.008797  -0.000009  -0.000524   0.000265   0.403479  -0.019776
    21  C   -0.005444   0.006649   0.002664  -0.002945  -0.000299   0.000816
    22  N   -0.000677   0.000052  -0.002009  -0.000045  -0.000717   0.000005
    23  C    0.000003   0.000013  -0.000063  -0.000002   0.000014   0.000001
    24  H    0.000001   0.000002  -0.000001  -0.000000  -0.000003   0.000000
    25  H    0.000006  -0.000000   0.000013  -0.000000   0.000002   0.000000
    26  H   -0.000005  -0.000001   0.000008   0.000000   0.000001  -0.000000
    27  C    0.002009  -0.000669   0.000400   0.000122   0.000004  -0.000005
    28  H    0.000122   0.000043   0.000314  -0.000008  -0.000002   0.000000
    29  H   -0.000669  -0.000089  -0.000258   0.000043   0.000013  -0.000001
    30  H    0.000397  -0.000258  -0.002964   0.000314  -0.000063   0.000008
              19         20         21         22         23         24
     1  C    0.006649   0.002710   0.109224  -0.103902  -0.005501   0.006646
     2  C   -0.004294  -0.017127   0.108330  -0.103840  -0.000221  -0.003017
     3  N    0.000052  -0.002013  -0.103840  -0.002802  -0.000678   0.000051
     4  N   -0.041897  -0.028556  -0.103905  -0.002798  -0.000717  -0.000010
     5  C    0.000013  -0.000063  -0.005484  -0.000674   0.001961  -0.000659
     6  H    0.000002  -0.000001   0.006650   0.000052  -0.000663  -0.000088
     7  H   -0.000000   0.000013   0.002693  -0.001996   0.000367  -0.000260
     8  H   -0.000001   0.000008  -0.002951  -0.000045   0.000123   0.000042
     9  C   -0.000668   0.000413  -0.000361  -0.000717   0.000002   0.000013
    10  H    0.000043   0.000314   0.000816   0.000005  -0.000005  -0.000001
    11  H   -0.000089  -0.000259  -0.003012  -0.000010   0.000001   0.000002
    12  H   -0.000257  -0.002973   0.006146   0.000010   0.000006  -0.000000
    13  C   -0.007609   0.008797  -0.005444  -0.000677   0.000003   0.000001
    14  H   -0.001030  -0.000009   0.006649   0.000052   0.000013   0.000002
    15  H   -0.000009  -0.000524   0.002664  -0.002009  -0.000063  -0.000001
    16  H    0.004952   0.000265  -0.002945  -0.000045  -0.000002  -0.000000
    17  C    0.414599   0.403479  -0.000299  -0.000717   0.000014  -0.000003
    18  H   -0.028876  -0.019776   0.000816   0.000005   0.000001   0.000000
    19  H    0.512004  -0.025780  -0.003008  -0.000010  -0.000003  -0.000000
    20  H   -0.025780   0.520663   0.006176   0.000011   0.000002  -0.000000
    21  C   -0.003008   0.006176   5.753677   0.504423  -0.064597  -0.004270
    22  N   -0.000010   0.000011   0.504423   6.462093   0.228754  -0.041883
    23  C   -0.000003   0.000002  -0.064597   0.228754   4.952021   0.414598
    24  H   -0.000000  -0.000000  -0.004270  -0.041883   0.414598   0.512014
    25  H   -0.000000  -0.000001  -0.017117  -0.028573   0.403404  -0.025744
    26  H    0.000000   0.000000   0.008728  -0.039740   0.401136  -0.028908
    27  C    0.000001   0.000006  -0.064703   0.228677  -0.052746  -0.007635
    28  H   -0.000000  -0.000000   0.008788  -0.039693   0.000135   0.004965
    29  H    0.000002  -0.000000  -0.004330  -0.041909  -0.007594  -0.001032
    30  H   -0.000001   0.000013  -0.017115  -0.028526   0.008802  -0.000007
              25         26         27         28         29         30
     1  C    0.002701  -0.002961  -0.000337   0.000820  -0.003016   0.006169
     2  C    0.006234   0.000814  -0.005344  -0.002951   0.006654   0.002660
     3  N   -0.002005  -0.000045  -0.000717   0.000005  -0.000010   0.000011
     4  N    0.000011   0.000005  -0.000675  -0.000045   0.000052  -0.002008
     5  C    0.000386   0.000122   0.000003  -0.000005   0.000001   0.000006
     6  H   -0.000262   0.000043   0.000013  -0.000001   0.000002  -0.000000
     7  H   -0.002937   0.000314  -0.000062   0.000008  -0.000001   0.000013
     8  H    0.000314  -0.000008  -0.000002   0.000000  -0.000000  -0.000000
     9  C   -0.000062  -0.000002   0.000014   0.000001  -0.000003   0.000002
    10  H    0.000008   0.000000   0.000001  -0.000000   0.000000   0.000000
    11  H   -0.000001  -0.000000  -0.000003   0.000000  -0.000000  -0.000000
    12  H    0.000013  -0.000000   0.000002   0.000000  -0.000000  -0.000001
    13  C    0.000006  -0.000005   0.002009   0.000122  -0.000669   0.000397
    14  H   -0.000000  -0.000001  -0.000669   0.000043  -0.000089  -0.000258
    15  H    0.000013   0.000008   0.000400   0.000314  -0.000258  -0.002964
    16  H   -0.000000   0.000000   0.000122  -0.000008   0.000043   0.000314
    17  C    0.000002   0.000001   0.000004  -0.000002   0.000013  -0.000063
    18  H    0.000000  -0.000000  -0.000005   0.000000  -0.000001   0.000008
    19  H   -0.000000   0.000000   0.000001  -0.000000   0.000002  -0.000001
    20  H   -0.000001   0.000000   0.000006  -0.000000  -0.000000   0.000013
    21  C   -0.017117   0.008728  -0.064703   0.008788  -0.004330  -0.017115
    22  N   -0.028573  -0.039740   0.228677  -0.039693  -0.041909  -0.028526
    23  C    0.403404   0.401136  -0.052746   0.000135  -0.007594   0.008802
    24  H   -0.025744  -0.028908  -0.007635   0.004965  -0.001032  -0.000007
    25  H    0.520777  -0.019797   0.008811   0.000267  -0.000012  -0.000524
    26  H   -0.019797   0.509606   0.000158  -0.003695   0.004962   0.000262
    27  C    0.008811   0.000158   4.952328   0.401016   0.414642   0.403492
    28  H    0.000267  -0.003695   0.401016   0.509546  -0.028865  -0.019762
    29  H   -0.000012   0.004962   0.414642  -0.028865   0.512018  -0.025808
    30  H   -0.000524   0.000262   0.403492  -0.019762  -0.025808   0.520650
 Mulliken charges:
               1
     1  C   -0.122368
     2  C   -0.122556
     3  N    0.016478
     4  N    0.016495
     5  C   -0.278805
     6  H    0.175236
     7  H    0.154144
     8  H    0.169067
     9  C   -0.279023
    10  H    0.169068
    11  H    0.175245
    12  H    0.154289
    13  C   -0.278856
    14  H    0.175216
    15  H    0.154225
    16  H    0.169034
    17  C   -0.278783
    18  H    0.169011
    19  H    0.175217
    20  H    0.154212
    21  C   -0.122397
    22  N    0.016481
    23  C   -0.278554
    24  H    0.175186
    25  H    0.154091
    26  H    0.169002
    27  C   -0.278800
    28  H    0.168997
    29  H    0.175210
    30  H    0.154238
 Sum of Mulliken charges =   1.00000
 Mulliken charges with hydrogens summed into heavy atoms:
               1
     1  C   -0.122368
     2  C   -0.122556
     3  N    0.016478
     4  N    0.016495
     5  C    0.219642
     9  C    0.219580
    13  C    0.219620
    17  C    0.219656
    21  C   -0.122397
    22  N    0.016481
    23  C    0.219725
    27  C    0.219645
 Electronic spatial extent (au):  <R**2>=           2594.7768
 Charge=              1.0000 electrons
 Dipole moment (field-independent basis, Debye):
    X=             -0.0004    Y=             -0.0003    Z=              0.0007  Tot=              0.0008
 Quadrupole moment (field-independent basis, Debye-Ang):
   XX=            -44.2533   YY=            -44.2572   ZZ=            -72.1182
   XY=              0.0015   XZ=              0.0002   YZ=              0.0002
 Traceless Quadrupole moment (field-independent basis, Debye-Ang):
   XX=              9.2896   YY=              9.2857   ZZ=            -18.5753
   XY=              0.0015   XZ=              0.0002   YZ=              0.0002
 Octapole moment (field-independent basis, Debye-Ang**2):
  XXX=              8.4192  YYY=             14.7880  ZZZ=              0.0014  XYY=             -8.4309
  XXY=            -14.8067  XXZ=              0.0010  XZZ=              0.0025  YZZ=              0.0043
  YYZ=              0.0014  XYZ=             -0.0001
 Hexadecapole moment (field-independent basis, Debye-Ang**3):
 XXXX=          -1397.2287 YYYY=          -1396.9699 ZZZZ=           -134.1067 XXXY=              0.0137
 XXXZ=              4.8719 YYYX=              0.0191 YYYZ=             -2.7567 ZZZX=             -0.0148
 ZZZY=              0.0021 XXYY=           -465.6782 XXZZ=           -278.3037 YYZZ=           -278.2781
 XXYZ=              2.7450 YYXZ=             -4.8175 ZZXY=             -0.0089
 N-N= 7.407629817128D+02 E-N=-2.668703628427D+03  KE= 5.150657139356D+02
 No NMR shielding tensors so no spin-rotation constants.
 Leave Link  601 at Mon Jan 25 21:09:21 2021, MaxMem=  4026531840 cpu:               5.2 elap:               0.9
 (Enter /opt/ohpc/pub/libs/gaussian/g16-A.03/sandybridge/g16/l9999.exe)

 Test job not archived.
 1\1\GINC-CNODE237\SP\RLC-wHPBE\TZVP\C9H18N3(1+)\RDU230\25-Jan-2021\0\\
 #P LC-wHPBE/TZVP iop(3/107=0156200000, 3/108=0156200000) scf=(conver=6
 ,fermi,ndamp=35,noincfock,novaracc,vshift=500,xqc)\\H18 C9 N3\\1,1\C,0
 ,-0.610862,0.51088,0.000115\C,0,-0.136805,-0.784324,0.000118\N,0,-1.62
 5284,1.358829,0.000149\N,0,-0.364248,-2.086765,0.000256\C,0,-1.430247,
 2.779535,-0.245115\H,0,-1.514482,3.356239,0.681778\H,0,-0.453085,2.953
 583,-0.69457\H,0,-2.189123,3.132424,-0.948067\C,0,-2.988895,0.914734,0
 .244915\H,0,-3.47163,1.599951,0.946347\H,0,-3.570653,0.893667,-0.68241
 9\H,0,-2.986873,-0.077069,0.695991\C,0,0.701968,-3.045906,0.244739\H,0
 ,1.009895,-3.54009,-0.68252\H,0,1.56061,-2.548225,0.694397\H,0,0.35036
 1,-3.805818,0.947208\C,0,-1.692259,-2.627901,-0.244928\H,0,-1.618712,-
 3.461412,-0.948079\H,0,-2.149477,-2.989362,0.681963\H,0,-2.331523,-1.8
 6843,-0.69401\C,0,0.747831,0.27381,0.000062\N,0,1.989493,0.728067,-0.0
 00089\C,0,2.287295,2.130832,0.245062\H,0,2.563599,2.644356,-0.681638\H
 ,0,1.426241,2.626112,0.692731\H,0,3.119706,2.205914,0.949371\C,0,3.122
 069,-0.151615,-0.24503\H,0,3.807758,0.3292,-0.947323\H,0,3.663007,-0.3
 67678,0.682084\H,0,2.784087,-1.084552,-0.695089\\Version=EM64L-G16RevA
 .03\State=1-A\HF=-517.4017029\RMSD=5.399e-07\Dipole=-0.0001552,0.00010
 27,-0.0002563\Quadrupole=6.9065898,6.9037136,-13.8103035,-0.0010898,-0
 .0001554,0.0001544\PG=C01 [X(C9H18N3)]\\@


 FRICTION IS A DRAG,
 AND ENTROPY AIN'T WHAT IT USED TO BE.
 Job cpu time:       0 days  0 hours 20 minutes  1.9 seconds.
 Elapsed time:       0 days  0 hours  2 minutes 31.6 seconds.
 File lengths (MBytes):  RWF=     92 Int=      0 D2E=      0 Chk=     12 Scr=      8
 Normal termination of Gaussian 16 at Mon Jan 25 21:09:21 2021.
