 Entering Gaussian System, Link 0=g16
 Input=mol_NN_cp_frag_tune_c9.gjf
 Output=mol_NN_cp_frag_tune_c9.log
 Initial command:
 /opt/ohpc/pub/libs/gaussian/g16-A.03/sandybridge/g16/l1.exe "/mnt/gpfs2_4m/scratch/rdu230/ondemand/projects/init_structures/gaussian/wtuning/mol_NN_cp_frag/tuning_mol_NN_cp_frag_ocycle0/Gau-18539.inp" -scrdir="/mnt/gpfs2_4m/scratch/rdu230/ondemand/projects/init_structures/gaussian/wtuning/mol_NN_cp_frag/tuning_mol_NN_cp_frag_ocycle0/"
 Entering Link 1 = /opt/ohpc/pub/libs/gaussian/g16-A.03/sandybridge/g16/l1.exe PID=     18540.
  
 Copyright (c) 1988,1990,1992,1993,1995,1998,2003,2009,2016,
            Gaussian, Inc.  All Rights Reserved.
  
 This is part of the Gaussian(R) 16 program.  It is based on
 the Gaussian(R) 09 system (copyright 2009, Gaussian, Inc.),
 the Gaussian(R) 03 system (copyright 2003, Gaussian, Inc.),
 the Gaussian(R) 98 system (copyright 1998, Gaussian, Inc.),
 the Gaussian(R) 94 system (copyright 1995, Gaussian, Inc.),
 the Gaussian 92(TM) system (copyright 1992, Gaussian, Inc.),
 the Gaussian 90(TM) system (copyright 1990, Gaussian, Inc.),
 the Gaussian 88(TM) system (copyright 1988, Gaussian, Inc.),
 the Gaussian 86(TM) system (copyright 1986, Carnegie Mellon
 University), and the Gaussian 82(TM) system (copyright 1983,
 Carnegie Mellon University). Gaussian is a federally registered
 trademark of Gaussian, Inc.
  
 This software contains proprietary and confidential information,
 including trade secrets, belonging to Gaussian, Inc.
  
 This software is provided under written license and may be
 used, copied, transmitted, or stored only in accord with that
 written license.
  
 The following legend is applicable only to US Government
 contracts under FAR:
  
                    RESTRICTED RIGHTS LEGEND
  
 Use, reproduction and disclosure by the US Government is
 subject to restrictions as set forth in subparagraphs (a)
 and (c) of the Commercial Computer Software - Restricted
 Rights clause in FAR 52.227-19.
  
 Gaussian, Inc.
 340 Quinnipiac St., Bldg. 40, Wallingford CT 06492
  
  
 ---------------------------------------------------------------
 Warning -- This program may not be used in any manner that
 competes with the business of Gaussian, Inc. or will provide
 assistance to any competitor of Gaussian, Inc.  The licensee
 of this program is prohibited from giving any competitor of
 Gaussian, Inc. access to this program.  By using this program,
 the user acknowledges that Gaussian, Inc. is engaged in the
 business of creating and licensing software in the field of
 computational chemistry and represents and warrants to the
 licensee that it is not a competitor of Gaussian, Inc. and that
 it will not use this program in any manner prohibited above.
 ---------------------------------------------------------------
  

 Cite this work as:
 Gaussian 16, Revision A.03,
 M. J. Frisch, G. W. Trucks, H. B. Schlegel, G. E. Scuseria, 
 M. A. Robb, J. R. Cheeseman, G. Scalmani, V. Barone, 
 G. A. Petersson, H. Nakatsuji, X. Li, M. Caricato, A. V. Marenich, 
 J. Bloino, B. G. Janesko, R. Gomperts, B. Mennucci, H. P. Hratchian, 
 J. V. Ortiz, A. F. Izmaylov, J. L. Sonnenberg, D. Williams-Young, 
 F. Ding, F. Lipparini, F. Egidi, J. Goings, B. Peng, A. Petrone, 
 T. Henderson, D. Ranasinghe, V. G. Zakrzewski, J. Gao, N. Rega, 
 G. Zheng, W. Liang, M. Hada, M. Ehara, K. Toyota, R. Fukuda, 
 J. Hasegawa, M. Ishida, T. Nakajima, Y. Honda, O. Kitao, H. Nakai, 
 T. Vreven, K. Throssell, J. A. Montgomery, Jr., J. E. Peralta, 
 F. Ogliaro, M. J. Bearpark, J. J. Heyd, E. N. Brothers, K. N. Kudin, 
 V. N. Staroverov, T. A. Keith, R. Kobayashi, J. Normand, 
 K. Raghavachari, A. P. Rendell, J. C. Burant, S. S. Iyengar, 
 J. Tomasi, M. Cossi, J. M. Millam, M. Klene, C. Adamo, R. Cammi, 
 J. W. Ochterski, R. L. Martin, K. Morokuma, O. Farkas, 
 J. B. Foresman, and D. J. Fox, Gaussian, Inc., Wallingford CT, 2016.
 
 ******************************************
 Gaussian 16:  EM64L-G16RevA.03 25-Dec-2016
                25-Jan-2021 
 ******************************************
 %mem=30GB
 %nproc=8
 Will use up to    8 processors via shared memory.
 ----------------------------------------------------------------------
 #P LC-wHPBE/TZVP iop(3/107=0247700000, 3/108=0247700000) scf=(conver=6
 ,fermi,ndamp=35,noincfock,novaracc,vshift=500,xqc)
 ----------------------------------------------------------------------
 1/38=1,172=1/1;
 2/12=2,17=6,18=5,40=1/2;
 3/5=19,7=101,11=2,25=1,30=1,74=-71,107=247700000,108=247700000/1,2,3;
 4//1;
 5/5=100002,6=6,8=3,10=500,13=1,18=-1,22=13,38=1,93=35/2,8;
 6/7=2,8=2,9=2,10=2,28=1/1;
 99/5=1,9=1/99;
 Leave Link    1 at Mon Jan 25 21:52:01 2021, MaxMem=  4026531840 cpu:               0.9 elap:               0.2
 (Enter /opt/ohpc/pub/libs/gaussian/g16-A.03/sandybridge/g16/l101.exe)
 ---------
 H18 C9 N3
 ---------
 Symbolic Z-matrix:
 Charge =  2 Multiplicity = 2
 C                    -0.61086   0.51088   0.00012 
 C                    -0.13681  -0.78432   0.00012 
 N                    -1.62528   1.35883   0.00015 
 N                    -0.36425  -2.08677   0.00026 
 C                    -1.43025   2.77954  -0.24512 
 H                    -1.51448   3.35624   0.68178 
 H                    -0.45309   2.95358  -0.69457 
 H                    -2.18912   3.13242  -0.94807 
 C                    -2.9889    0.91473   0.24492 
 H                    -3.47163   1.59995   0.94635 
 H                    -3.57065   0.89367  -0.68242 
 H                    -2.98687  -0.07707   0.69599 
 C                     0.70197  -3.04591   0.24474 
 H                     1.00989  -3.54009  -0.68252 
 H                     1.56061  -2.54823   0.6944 
 H                     0.35036  -3.80582   0.94721 
 C                    -1.69226  -2.6279   -0.24493 
 H                    -1.61871  -3.46141  -0.94808 
 H                    -2.14948  -2.98936   0.68196 
 H                    -2.33152  -1.86843  -0.69401 
 C                     0.74783   0.27381   0.00006 
 N                     1.98949   0.72807  -0.00009 
 C                     2.2873    2.13083   0.24506 
 H                     2.5636    2.64436  -0.68164 
 H                     1.42624   2.62611   0.69273 
 H                     3.11971   2.20591   0.94937 
 C                     3.12207  -0.15162  -0.24503 
 H                     3.80776   0.3292   -0.94732 
 H                     3.66301  -0.36768   0.68208 
 H                     2.78409  -1.08455  -0.69509 
 
 ITRead=  0  0  0  0  0  0  0  0  0  0  0  0  0  0  0  0  0  0  0  0
 ITRead=  0  0  0  0  0  0  0  0  0  0
 MicOpt= -1 -1 -1 -1 -1 -1 -1 -1 -1 -1 -1 -1 -1 -1 -1 -1 -1 -1 -1 -1
 MicOpt= -1 -1 -1 -1 -1 -1 -1 -1 -1 -1
 NAtoms=     30 NQM=       30 NQMF=       0 NMMI=      0 NMMIF=      0
                NMic=       0 NMicF=      0.
                    Isotopes and Nuclear Properties:
 (Nuclear quadrupole moments (NQMom) in fm**2, nuclear magnetic moments (NMagM)
  in nuclear magnetons)

  Atom         1           2           3           4           5           6           7           8           9          10
 IAtWgt=          12          12          14          14          12           1           1           1          12           1
 AtmWgt=  12.0000000  12.0000000  14.0030740  14.0030740  12.0000000   1.0078250   1.0078250   1.0078250  12.0000000   1.0078250
 NucSpn=           0           0           2           2           0           1           1           1           0           1
 AtZEff=  -0.0000000  -0.0000000  -0.0000000  -0.0000000  -0.0000000  -0.0000000  -0.0000000  -0.0000000  -0.0000000  -0.0000000
 NQMom=    0.0000000   0.0000000   2.0440000   2.0440000   0.0000000   0.0000000   0.0000000   0.0000000   0.0000000   0.0000000
 NMagM=    0.0000000   0.0000000   0.4037610   0.4037610   0.0000000   2.7928460   2.7928460   2.7928460   0.0000000   2.7928460
 AtZNuc=   6.0000000   6.0000000   7.0000000   7.0000000   6.0000000   1.0000000   1.0000000   1.0000000   6.0000000   1.0000000

  Atom        11          12          13          14          15          16          17          18          19          20
 IAtWgt=           1           1          12           1           1           1          12           1           1           1
 AtmWgt=   1.0078250   1.0078250  12.0000000   1.0078250   1.0078250   1.0078250  12.0000000   1.0078250   1.0078250   1.0078250
 NucSpn=           1           1           0           1           1           1           0           1           1           1
 AtZEff=  -0.0000000  -0.0000000  -0.0000000  -0.0000000  -0.0000000  -0.0000000  -0.0000000  -0.0000000  -0.0000000  -0.0000000
 NQMom=    0.0000000   0.0000000   0.0000000   0.0000000   0.0000000   0.0000000   0.0000000   0.0000000   0.0000000   0.0000000
 NMagM=    2.7928460   2.7928460   0.0000000   2.7928460   2.7928460   2.7928460   0.0000000   2.7928460   2.7928460   2.7928460
 AtZNuc=   1.0000000   1.0000000   6.0000000   1.0000000   1.0000000   1.0000000   6.0000000   1.0000000   1.0000000   1.0000000

  Atom        21          22          23          24          25          26          27          28          29          30
 IAtWgt=          12          14          12           1           1           1          12           1           1           1
 AtmWgt=  12.0000000  14.0030740  12.0000000   1.0078250   1.0078250   1.0078250  12.0000000   1.0078250   1.0078250   1.0078250
 NucSpn=           0           2           0           1           1           1           0           1           1           1
 AtZEff=  -0.0000000  -0.0000000  -0.0000000  -0.0000000  -0.0000000  -0.0000000  -0.0000000  -0.0000000  -0.0000000  -0.0000000
 NQMom=    0.0000000   2.0440000   0.0000000   0.0000000   0.0000000   0.0000000   0.0000000   0.0000000   0.0000000   0.0000000
 NMagM=    0.0000000   0.4037610   0.0000000   2.7928460   2.7928460   2.7928460   0.0000000   2.7928460   2.7928460   2.7928460
 AtZNuc=   6.0000000   7.0000000   6.0000000   1.0000000   1.0000000   1.0000000   6.0000000   1.0000000   1.0000000   1.0000000
 Leave Link  101 at Mon Jan 25 21:52:01 2021, MaxMem=  4026531840 cpu:               0.8 elap:               0.1
 (Enter /opt/ohpc/pub/libs/gaussian/g16-A.03/sandybridge/g16/l202.exe)
                          Input orientation:                          
 ---------------------------------------------------------------------
 Center     Atomic      Atomic             Coordinates (Angstroms)
 Number     Number       Type             X           Y           Z
 ---------------------------------------------------------------------
      1          6           0       -0.610862    0.510880    0.000115
      2          6           0       -0.136805   -0.784324    0.000118
      3          7           0       -1.625284    1.358829    0.000149
      4          7           0       -0.364248   -2.086765    0.000256
      5          6           0       -1.430247    2.779535   -0.245115
      6          1           0       -1.514482    3.356239    0.681778
      7          1           0       -0.453085    2.953583   -0.694570
      8          1           0       -2.189123    3.132424   -0.948067
      9          6           0       -2.988895    0.914734    0.244915
     10          1           0       -3.471630    1.599951    0.946347
     11          1           0       -3.570653    0.893667   -0.682419
     12          1           0       -2.986873   -0.077069    0.695991
     13          6           0        0.701968   -3.045906    0.244739
     14          1           0        1.009895   -3.540090   -0.682520
     15          1           0        1.560610   -2.548225    0.694397
     16          1           0        0.350361   -3.805818    0.947208
     17          6           0       -1.692259   -2.627901   -0.244928
     18          1           0       -1.618712   -3.461412   -0.948079
     19          1           0       -2.149477   -2.989362    0.681963
     20          1           0       -2.331523   -1.868430   -0.694010
     21          6           0        0.747831    0.273810    0.000062
     22          7           0        1.989493    0.728067   -0.000089
     23          6           0        2.287295    2.130832    0.245062
     24          1           0        2.563599    2.644356   -0.681638
     25          1           0        1.426241    2.626112    0.692731
     26          1           0        3.119706    2.205914    0.949371
     27          6           0        3.122069   -0.151615   -0.245030
     28          1           0        3.807758    0.329200   -0.947323
     29          1           0        3.663007   -0.367678    0.682084
     30          1           0        2.784087   -1.084552   -0.695089
 ---------------------------------------------------------------------
                    Distance matrix (angstroms):
                    1          2          3          4          5
     1  C    0.000000
     2  C    1.379233   0.000000
     3  N    1.322146   2.609344   0.000000
     4  N    2.609325   1.322151   3.669105   0.000000
     5  C    2.424526   3.799240   1.454854   4.987729   0.000000
     6  H    3.062231   4.416663   2.113419   5.604802   1.094903
     7  H    2.544460   3.815046   2.097600   5.088790   1.089563
     8  H    3.203506   4.522386   2.088700   5.609761   1.092962
     9  C    2.424472   3.328835   1.454842   3.994700   2.479314
    10  H    3.203970   4.207276   2.088642   4.913531   2.641637
    11  H    3.061493   3.882373   2.113465   4.430582   2.886013
    12  H    2.544672   3.017836   2.097600   3.376550   3.386584
    13  C    3.799222   2.424486   4.987747   1.454833   6.222705
    14  H    4.416243   3.061889   5.604428   2.113435   6.788466
    15  H    3.815159   2.544521   5.088907   2.097583   6.181661
    16  H    4.522700   3.203707   5.610140   2.088666   6.925249
    17  C    3.328875   2.424512   3.994817   1.454839   5.413780
    18  H    4.206416   3.203424   4.912627   2.088701   6.283239
    19  H    3.883806   3.062344   4.432428   2.113397   5.887014
    20  H    3.017217   2.544383   3.375771   2.097581   4.755774
    21  C    1.379220   1.379213   2.609395   2.609413   3.329083
    22  N    2.609409   2.609304   3.669397   3.669247   3.995395
    23  C    3.329198   3.799262   3.995528   4.987859   3.805418
    24  H    3.885062   4.417332   4.434428   5.605424   4.019904
    25  H    3.017236   3.814957   3.376016   5.088868   3.010418
    26  H    4.206110   4.521888   4.912586   5.609443   4.738978
    27  C    3.799180   3.328765   4.987877   3.994919   5.414353
    28  H    4.522704   4.206799   5.610328   4.913291   5.825284
    29  H    4.416209   3.882943   5.604631   4.431584   6.058538
    30  H    3.815022   3.017459   5.088813   3.376381   5.735351
                    6          7          8          9         10
     6  H    0.000000
     7  H    1.784105   0.000000
     8  H    1.778097   1.763540   0.000000
     9  C    2.885427   3.386720   2.642156   0.000000
    10  H    2.642910   3.692769   2.753562   1.092960   0.000000
    11  H    3.486134   3.736661   2.644093   1.094913   1.778067
    12  H    3.735738   4.187910   3.693261   1.089563   1.763537
    13  C    6.789044   6.181449   6.924807   5.413792   6.284518
    14  H    7.469481   6.656444   7.404504   6.057715   7.011226
    15  H    6.657255   6.021137   7.001997   5.735165   6.526430
    16  H    7.405616   7.002176   7.627598   5.824728   6.620420
    17  C    6.058079   5.735041   5.824313   3.804139   4.739201
    18  H    7.010539   6.524961   6.618462   4.738279   5.713103
    19  H    6.377293   6.331760   6.335206   4.017163   4.783281
    20  H    5.464203   5.174972   5.009328   3.009937   4.002534
    21  C    3.883834   3.017598   4.206700   3.799192   4.523047
    22  N    4.432840   3.376598   4.913291   4.987907   5.610685
    23  C    4.018190   3.011563   4.739732   5.414524   5.825706
    24  H    4.358489   3.032519   4.785140   5.888997   6.337595
    25  H    3.030026   2.358751   4.002428   4.756341   5.010635
    26  H    4.782317   4.003297   5.713349   6.283185   6.619132
    27  C    5.887412   4.756687   6.283943   6.222622   6.925621
    28  H    6.335864   5.010594   6.619717   6.925227   7.628256
    29  H    6.377613   5.465177   7.011101   6.788483   7.405703
    30  H    6.331989   5.175502   6.525312   6.181268   7.002490
                   11         12         13         14         15
    11  H    0.000000
    12  H    1.784136   0.000000
    13  C    5.885163   4.756592   0.000000
    14  H    6.374921   5.465067   1.094918   0.000000
    15  H    6.330253   5.175540   1.089562   1.784092   0.000000
    16  H    6.333656   5.010370   1.092958   1.778092   1.763563
    17  C    4.015122   3.011328   2.479279   2.885344   3.386715
    18  H    4.779891   4.003574   2.642161   2.643158   3.693200
    19  H    4.354216   3.030327   2.885325   3.485218   3.736242
    20  H    3.027335   2.360204   3.386704   3.736262   4.187899
    21  C    4.415802   3.815160   3.329037   3.883353   3.017713
    22  N    5.604304   5.088909   3.995064   4.431985   3.376439
    23  C    6.058577   5.735417   5.414045   5.886554   4.756422
    24  H    6.379182   6.333384   6.058294   6.376627   5.464646
    25  H    5.464554   5.175208   5.735596   6.331406   5.176082
    26  H    7.010395   6.524302   5.824395   6.334898   5.009753
    27  C    6.787964   6.181444   3.804429   4.016770   3.010717
    28  H    7.404711   7.002324   4.739017   4.782213   4.003060
    29  H    7.468514   6.656242   4.016457   4.354922   3.029028
    30  H    6.655541   6.021138   3.010881   3.029452   2.360065
                   16         17         18         19         20
    16  H    0.000000
    17  C    2.642153   0.000000
    18  H    2.754628   1.092964   0.000000
    19  H    2.643132   1.094911   1.778083   0.000000
    20  H    3.693179   1.089555   1.763588   1.784077   0.000000
    21  C    4.206951   3.799209   4.522320   4.416749   3.814885
    22  N    4.913272   4.987762   5.609774   5.604957   5.088664
    23  C    6.283990   6.222739   6.924859   6.789125   6.181378
    24  H    7.011156   6.789679   7.405614   7.470694   6.657898
    25  H    6.526255   6.181335   7.001567   6.657283   6.020361
    26  H    6.618927   6.924386   7.627025   7.404505   7.001205
    27  C    4.738881   5.413848   5.824435   6.058162   5.735042
    28  H    5.713249   6.283947   6.619314   7.011139   6.525681
    29  H    4.781707   5.886156   6.334444   6.376378   6.330899
    30  H    4.003180   4.756285   5.009801   5.464854   5.175319
                   21         22         23         24         25
    21  C    0.000000
    22  N    1.322147   0.000000
    23  C    2.424563   1.454831   0.000000
    24  H    3.062877   2.113355   1.094908   0.000000
    25  H    2.544279   2.097577   1.089552   1.784042   0.000000
    26  H    3.203124   2.088753   1.092976   1.778110   1.763591
    27  C    2.424472   1.454842   2.479234   2.884436   3.386886
    28  H    3.203710   2.088644   2.641868   2.641679   3.692859
    29  H    3.061848   2.113449   2.885502   3.484363   3.737113
    30  H    2.544547   2.097616   3.386647   3.735445   4.187937
                   26         27         28         29         30
    26  H    0.000000
    27  C    2.642828   0.000000
    28  H    2.755525   1.092963   0.000000
    29  H    2.643860   1.094914   1.778077   0.000000
    30  H    3.693786   1.089567   1.763581   1.784100   0.000000
 Stoichiometry    C9H18N3(2+,2)
 Framework group  C1[X(C9H18N3)]
 Deg. of freedom    84
 Full point group                 C1      NOp   1
 Largest Abelian subgroup         C1      NOp   1
 Largest concise Abelian subgroup C1      NOp   1
                         Standard orientation:                         
 ---------------------------------------------------------------------
 Center     Atomic      Atomic             Coordinates (Angstroms)
 Number     Number       Type             X           Y           Z
 ---------------------------------------------------------------------
      1          6           0       -0.610975   -0.510745   -0.000115
      2          6           0       -0.136632    0.784354   -0.000118
      3          7           0       -1.625585   -1.358470   -0.000149
      4          7           0       -0.363786    2.086845   -0.000256
      5          6           0       -1.430862   -2.779219    0.245115
      6          1           0       -1.515224   -3.355904   -0.681778
      7          1           0       -0.453738   -2.953483    0.694570
      8          1           0       -2.189816   -3.131940    0.948067
      9          6           0       -2.989097   -0.914073   -0.244915
     10          1           0       -3.471984   -1.599183   -0.946347
     11          1           0       -3.570851   -0.892877    0.682419
     12          1           0       -2.986856    0.077730   -0.695991
     13          6           0        0.702642    3.045751   -0.244739
     14          1           0        1.010678    3.539867    0.682520
     15          1           0        1.561174    2.547880   -0.694397
     16          1           0        0.351203    3.805740   -0.947208
     17          6           0       -1.691678    2.628275    0.244928
     18          1           0       -1.617946    3.461770    0.948079
     19          1           0       -2.148816    2.989837   -0.681963
     20          1           0       -2.331110    1.868946    0.694010
     21          6           0        0.747770   -0.273975   -0.000062
     22          7           0        1.989332   -0.728507    0.000089
     23          6           0        2.286824   -2.131338   -0.245062
     24          1           0        2.563014   -2.644923    0.681638
     25          1           0        1.425660   -2.626427   -0.692731
     26          1           0        3.119218   -2.206604   -0.949371
     27          6           0        3.122102    0.150924    0.245030
     28          1           0        3.807685   -0.330042    0.947323
     29          1           0        3.663088    0.366868   -0.682084
     30          1           0        2.784327    1.083936    0.695089
 ---------------------------------------------------------------------
 Rotational constants (GHZ):           0.8639071           0.8637633           0.4436577
 Leave Link  202 at Mon Jan 25 21:52:01 2021, MaxMem=  4026531840 cpu:               0.4 elap:               0.1
 (Enter /opt/ohpc/pub/libs/gaussian/g16-A.03/sandybridge/g16/l301.exe)
 Standard basis: TZVP (5D, 7F)
 Ernie: Thresh=  0.10000D-02 Tol=  0.10000D-05 Strict=F.
 There are   348 symmetry adapted cartesian basis functions of A   symmetry.
 There are   336 symmetry adapted basis functions of A   symmetry.
   336 basis functions,   564 primitive gaussians,   348 cartesian basis functions
    46 alpha electrons       45 beta electrons
       nuclear repulsion energy       740.7629817128 Hartrees.
 IExCor=33909 DFT=T Ex+Corr=LC-wHPBE ExCW=0 ScaHFX=  1.000000
 ScaDFX=  1.000000  1.000000  1.000000  1.000000 ScalE2=  1.000000  1.000000
 IRadAn=      5 IRanWt=     -1 IRanGd=            0 ICorTp=0 IEmpDi=  4
 HFx  wShort=  0.000000 wLong=  0.247700 cFull=  0.000000 cShort=  0.000000 cLong=  1.000000
 DFx  wShort=  0.000000 wLong=  0.247700 cFull=  0.000000 cShort=  1.000000 cLong=  0.000000
 NAtoms=   30 NActive=   30 NUniq=   30 SFac= 1.00D+00 NAtFMM=   60 NAOKFM=F Big=F
 Integral buffers will be    131072 words long.
 Raffenetti 2 integral format.
 Two-electron integral symmetry is turned on.
 Leave Link  301 at Mon Jan 25 21:52:01 2021, MaxMem=  4026531840 cpu:               0.4 elap:               0.1
 (Enter /opt/ohpc/pub/libs/gaussian/g16-A.03/sandybridge/g16/l302.exe)
 NPDir=0 NMtPBC=     1 NCelOv=     1 NCel=       1 NClECP=     1 NCelD=      1
         NCelK=      1 NCelE2=     1 NClLst=     1 CellRange=     0.0.
 One-electron integrals computed using PRISM.
 One-electron integral symmetry used in STVInt
 NBasis=   336 RedAO= T EigKep=  2.74D-05  NBF=   336
 NBsUse=   336 1.00D-06 EigRej= -1.00D+00 NBFU=   336
 Precomputing XC quadrature grid using
 IXCGrd= 4 IRadAn=           5 IRanWt=          -1 IRanGd=           0 AccXCQ= 0.00D+00.
 Generated NRdTot=       0 NPtTot=           0 NUsed=           0 NTot=          32
 NSgBfM=   343   343   343   343   343 MxSgAt=    30 MxSgA2=    30.
 Leave Link  302 at Mon Jan 25 21:52:02 2021, MaxMem=  4026531840 cpu:               6.9 elap:               1.2
 (Enter /opt/ohpc/pub/libs/gaussian/g16-A.03/sandybridge/g16/l303.exe)
 DipDrv:  MaxL=1.
 Leave Link  303 at Mon Jan 25 21:52:02 2021, MaxMem=  4026531840 cpu:               1.4 elap:               0.3
 (Enter /opt/ohpc/pub/libs/gaussian/g16-A.03/sandybridge/g16/l401.exe)
 ExpMin= 9.52D-02 ExpMax= 1.97D+04 ExpMxC= 6.73D+02 IAcc=3 IRadAn=         5 AccDes= 0.00D+00
 Harris functional with IExCor=33909 and IRadAn=       5 diagonalized for initial guess.
 HarFok:  IExCor=33909 AccDes= 0.00D+00 IRadAn=         5 IDoV= 1 UseB2=F ITyADJ=14
 ICtDFT=  3500011 ScaDFX=  1.000000  1.000000  1.000000  1.000000
 FoFCou: FMM=F IPFlag=           0 FMFlag=      100000 FMFlg1=           0
         NFxFlg=           0 DoJE=T BraDBF=F KetDBF=T FulRan=T
         wScrn=  0.000000 ICntrl=       500 IOpCl=  0 I1Cent=   200000004 NGrid=           0
         NMat0=    1 NMatS0=      1 NMatT0=    0 NMatD0=    1 NMtDS0=    0 NMtDT0=    0
 Petite list used in FoFCou.
 Harris En= -505.420220861791    
 JPrj=0 DoOrth=F DoCkMO=F.
 Initial guess <Sx>= 0.0000 <Sy>= 0.0000 <Sz>= 0.5000 <S**2>= 0.7500 S= 0.5000
 Leave Link  401 at Mon Jan 25 21:52:06 2021, MaxMem=  4026531840 cpu:              24.3 elap:               3.6
 (Enter /opt/ohpc/pub/libs/gaussian/g16-A.03/sandybridge/g16/l502.exe)
 Integral symmetry usage will be decided dynamically.
 UHF open shell SCF:
 Using DIIS extrapolation, IDIIS=    10.
 NGot=  4026531840 LenX=  4026283142 LenY=  4026161597
 Requested convergence on RMS density matrix=1.00D-06 within  32 cycles.
 Requested convergence on MAX density matrix=1.00D-04.
 Requested convergence on             energy=1.00D-04.
 Virtual orbitals will be shifted by   0.500 hartree.
 No special actions if energy rises.
 Dynamic level shift is on during FON iterations.

 Cycle   1  Pass 1  IDiag  1:
 FoFJK:  IHMeth= 1 ICntrl=       0 DoSepK=T KAlg= 0 I1Cent=           0 FoldK=F
 IRaf=         1 NMat=       1 IRICut=       1 DoRegI=T DoRafI=F ISym2E= 0 IDoP0=0 IntGTp=1.
 FoFCou: FMM=F IPFlag=           0 FMFlag=      100000 FMFlg1=           0
         NFxFlg=           0 DoJE=T BraDBF=F KetDBF=F FulRan=T
         wScrn=  0.000000 ICntrl=       500 IOpCl=  0 I1Cent=           0 NGrid=           0
         NMat0=    1 NMatS0=      1 NMatT0=    0 NMatD0=    1 NMtDS0=    0 NMtDT0=    0
 Symmetry not used in FoFCou.
 E= -516.905720131824    
 DIIS: error= 2.70D-02 at cycle   1 NSaved=   1.
 NSaved= 1 IEnMin= 1 EnMin= -516.905720131824     IErMin= 1 ErrMin= 2.70D-02
 ErrMax= 2.70D-02  0.00D+00 EMaxC= 1.00D+00 BMatC= 7.75D-01 BMatP= 7.75D-01
 IDIUse=1 WtCom= 1.00D+00 WtEn= 0.00D+00
 Coeff-Com:  0.100D+01
 Coeff:      0.100D+01
 Gap=     0.454 Goal=   None    Shift=    0.500
 T= 1433. Gap= 0.848 NK=0 IS=   47 IE=  336 IFin=   46
          NO(<0.9)=   0  NV(>0.1)=   0     46.00e < EF      0.00e >EF  Err=0.0D+00
 Gap=     0.243 Goal=   None    Shift=    0.500
 T= 1433. Gap= 0.710 NK=0 IS=   46 IE=  336 IFin=   45
          NO(<0.9)=   0  NV(>0.1)=   0     45.00e < EF      0.00e >EF  Err=0.0D+00
 GapD=    0.243 DampG=1.000 DampE=0.500 DampFc=0.5000 IDamp=-1.
 Damping current iteration by 5.00D-01
 RMSDP=2.75D-03 MaxDP=1.62D-01              OVMax= 6.31D-02

 Cycle   2  Pass 1  IDiag  1:
 E= -517.009962945465     Delta-E=       -0.104242813641 Rises=F Damp=T
 DIIS: error= 1.05D-02 at cycle   2 NSaved=   2.
 NSaved= 2 IEnMin= 2 EnMin= -517.009962945465     IErMin= 2 ErrMin= 1.05D-02
 ErrMax= 1.05D-02  0.00D+00 EMaxC= 1.00D+00 BMatC= 1.30D-01 BMatP= 7.75D-01
 IDIUse=1 WtCom= 1.00D+00 WtEn= 0.00D+00
 Coeff-Com: -0.548D+00 0.155D+01
 Coeff:     -0.548D+00 0.155D+01
 Gap=     0.376 Goal=   None    Shift=    0.500
 T= 1297. Gap= 0.864 NK=0 IS=   47 IE=  336 IFin=   46
          NO(<0.9)=   0  NV(>0.1)=   0     46.00e < EF      0.00e >EF  Err=0.0D+00
 Gap=     0.261 Goal=   None    Shift=    0.500
 T= 1297. Gap= 0.747 NK=0 IS=   46 IE=  336 IFin=   45
          NO(<0.9)=   0  NV(>0.1)=   0     45.00e < EF      0.00e >EF  Err=0.0D+00
 GapD=    0.261 DampG=1.000 DampE=0.500 DampFc=0.5000 IDamp=-1.
 Damping current iteration by 5.00D-01
 RMSDP=1.96D-03 MaxDP=1.32D-01 DE=-1.04D-01 OVMax= 1.86D-02

 Cycle   3  Pass 1  IDiag  1:
 E= -517.045957513769     Delta-E=       -0.035994568304 Rises=F Damp=T
 DIIS: error= 4.36D-03 at cycle   3 NSaved=   3.
 NSaved= 3 IEnMin= 3 EnMin= -517.045957513769     IErMin= 3 ErrMin= 4.36D-03
 ErrMax= 4.36D-03  0.00D+00 EMaxC= 1.00D+00 BMatC= 2.67D-02 BMatP= 1.30D-01
 IDIUse=1 WtCom= 1.00D+00 WtEn= 0.00D+00
 Coeff-Com:  0.744D-01-0.101D+01 0.193D+01
 Coeff:      0.744D-01-0.101D+01 0.193D+01
 Gap=     0.375 Goal=   None    Shift=    0.500
 T= 1037. Gap= 0.875 NK=0 IS=   47 IE=  336 IFin=   46
          NO(<0.9)=   0  NV(>0.1)=   0     46.00e < EF      0.00e >EF  Err=0.0D+00
 Gap=     0.248 Goal=   None    Shift=    0.500
 T= 1037. Gap= 0.748 NK=0 IS=   46 IE=  336 IFin=   45
          NO(<0.9)=   0  NV(>0.1)=   0     45.00e < EF      0.00e >EF  Err=0.0D+00
 GapD=    0.248 DampG=1.000 DampE=1.000 DampFc=1.0000 IDamp=-1.
 RMSDP=1.10D-03 MaxDP=7.16D-02 DE=-3.60D-02 OVMax= 7.49D-03

 Cycle   4  Pass 1  IDiag  1:
 E= -517.077170739002     Delta-E=       -0.031213225233 Rises=F Damp=F
 DIIS: error= 1.57D-03 at cycle   4 NSaved=   4.
 NSaved= 4 IEnMin= 4 EnMin= -517.077170739002     IErMin= 4 ErrMin= 1.57D-03
 ErrMax= 1.57D-03  0.00D+00 EMaxC= 1.00D+00 BMatC= 1.03D-03 BMatP= 2.67D-02
 IDIUse=1 WtCom= 1.00D+00 WtEn= 0.00D+00
 Coeff-Com:  0.676D-01-0.235D+00 0.238D+00 0.930D+00
 Coeff:      0.676D-01-0.235D+00 0.238D+00 0.930D+00
 Gap=     0.373 Goal=   None    Shift=    0.500
 T=  477. Gap= 0.873 NK=0 IS=   47 IE=  336 IFin=   46
          NO(<0.9)=   0  NV(>0.1)=   0     46.00e < EF      0.00e >EF  Err=0.0D+00
 Gap=     0.250 Goal=   None    Shift=    0.500
 T=  477. Gap= 0.750 NK=0 IS=   46 IE=  336 IFin=   45
          NO(<0.9)=   0  NV(>0.1)=   0     45.00e < EF      0.00e >EF  Err=0.0D+00
 GapD=    0.250 DampG=1.000 DampE=1.000 DampFc=1.0000 IDamp=-1.
 RMSDP=1.01D-04 MaxDP=3.08D-03 DE=-3.12D-02 OVMax= 7.92D-03

 Cycle   5  Pass 1  IDiag  1:
 E= -517.077627539496     Delta-E=       -0.000456800494 Rises=F Damp=F
 DIIS: error= 1.10D-03 at cycle   5 NSaved=   5.
 NSaved= 5 IEnMin= 5 EnMin= -517.077627539496     IErMin= 5 ErrMin= 1.10D-03
 ErrMax= 1.10D-03  0.00D+00 EMaxC= 1.00D+00 BMatC= 2.68D-04 BMatP= 1.03D-03
 IDIUse=1 WtCom= 1.00D+00 WtEn= 0.00D+00
 Coeff-Com: -0.206D-01 0.213D+00-0.382D+00-0.380D+00 0.157D+01
 Coeff:     -0.206D-01 0.213D+00-0.382D+00-0.380D+00 0.157D+01
 Gap=     0.376 Goal=   None    Shift=    0.500
 Gap=     0.251 Goal=   None    Shift=    0.500
 GapD=    0.251 DampG=1.000 DampE=1.000 DampFc=1.0000 IDamp=-1.
 RMSDP=6.94D-05 MaxDP=3.39D-03 DE=-4.57D-04 OVMax= 6.82D-03

 Cycle   6  Pass 1  IDiag  1:
 E= -517.077882104784     Delta-E=       -0.000254565288 Rises=F Damp=F
 DIIS: error= 9.01D-04 at cycle   6 NSaved=   6.
 NSaved= 6 IEnMin= 6 EnMin= -517.077882104784     IErMin= 6 ErrMin= 9.01D-04
 ErrMax= 9.01D-04  0.00D+00 EMaxC= 1.00D+00 BMatC= 1.14D-04 BMatP= 2.68D-04
 IDIUse=1 WtCom= 1.00D+00 WtEn= 0.00D+00
 Coeff-Com: -0.181D-01 0.836D-02 0.476D-01-0.200D+00-0.118D+01 0.234D+01
 Coeff:     -0.181D-01 0.836D-02 0.476D-01-0.200D+00-0.118D+01 0.234D+01
 Gap=     0.377 Goal=   None    Shift=    0.500
 Gap=     0.253 Goal=   None    Shift=    0.500
 RMSDP=6.01D-05 MaxDP=3.78D-03 DE=-2.55D-04 OVMax= 6.72D-03

 Cycle   7  Pass 1  IDiag  1:
 E= -517.078036349065     Delta-E=       -0.000154244281 Rises=F Damp=F
 DIIS: error= 5.54D-04 at cycle   7 NSaved=   7.
 NSaved= 7 IEnMin= 7 EnMin= -517.078036349065     IErMin= 7 ErrMin= 5.54D-04
 ErrMax= 5.54D-04  0.00D+00 EMaxC= 1.00D+00 BMatC= 4.36D-05 BMatP= 1.14D-04
 IDIUse=1 WtCom= 1.00D+00 WtEn= 0.00D+00
 Coeff-Com:  0.163D-02-0.391D-01 0.756D-01 0.512D-01-0.475D+00-0.449D+00
 Coeff-Com:  0.183D+01
 Coeff:      0.163D-02-0.391D-01 0.756D-01 0.512D-01-0.475D+00-0.449D+00
 Coeff:      0.183D+01
 Gap=     0.378 Goal=   None    Shift=    0.500
 Gap=     0.253 Goal=   None    Shift=    0.500
 RMSDP=3.83D-05 MaxDP=3.09D-03 DE=-1.54D-04 OVMax= 4.42D-03

 Cycle   8  Pass 1  IDiag  1:
 E= -517.078099762480     Delta-E=       -0.000063413415 Rises=F Damp=F
 DIIS: error= 3.73D-04 at cycle   8 NSaved=   8.
 NSaved= 8 IEnMin= 8 EnMin= -517.078099762480     IErMin= 8 ErrMin= 3.73D-04
 ErrMax= 3.73D-04  0.00D+00 EMaxC= 1.00D+00 BMatC= 1.71D-05 BMatP= 4.36D-05
 IDIUse=1 WtCom= 1.00D+00 WtEn= 0.00D+00
 Coeff-Com:  0.435D-02 0.876D-03-0.168D-01 0.362D-01 0.436D+00-0.964D+00
 Coeff-Com: -0.695D+00 0.220D+01
 Coeff:      0.435D-02 0.876D-03-0.168D-01 0.362D-01 0.436D+00-0.964D+00
 Coeff:     -0.695D+00 0.220D+01
 Gap=     0.379 Goal=   None    Shift=    0.500
 Gap=     0.253 Goal=   None    Shift=    0.500
 RMSDP=2.39D-05 MaxDP=1.71D-03 DE=-6.34D-05 OVMax= 3.06D-03

 Cycle   9  Pass 1  IDiag  1:
 E= -517.078125561207     Delta-E=       -0.000025798727 Rises=F Damp=F
 DIIS: error= 2.16D-04 at cycle   9 NSaved=   9.
 NSaved= 9 IEnMin= 9 EnMin= -517.078125561207     IErMin= 9 ErrMin= 2.16D-04
 ErrMax= 2.16D-04  0.00D+00 EMaxC= 1.00D+00 BMatC= 6.45D-06 BMatP= 1.71D-05
 IDIUse=1 WtCom= 1.00D+00 WtEn= 0.00D+00
 Coeff-Com: -0.341D-02 0.121D-01-0.140D-01-0.103D+00 0.328D-02 0.774D+00
 Coeff-Com: -0.771D+00-0.194D+01 0.304D+01
 Coeff:     -0.341D-02 0.121D-01-0.140D-01-0.103D+00 0.328D-02 0.774D+00
 Coeff:     -0.771D+00-0.194D+01 0.304D+01
 Gap=     0.379 Goal=   None    Shift=    0.500
 Gap=     0.254 Goal=   None    Shift=    0.500
 RMSDP=1.34D-05 MaxDP=7.80D-04 DE=-2.58D-05 OVMax= 1.92D-03

 Cycle  10  Pass 1  IDiag  1:
 E= -517.078134872662     Delta-E=       -0.000009311455 Rises=F Damp=F
 DIIS: error= 1.21D-04 at cycle  10 NSaved=  10.
 NSaved=10 IEnMin=10 EnMin= -517.078134872662     IErMin=10 ErrMin= 1.21D-04
 ErrMax= 1.21D-04  0.00D+00 EMaxC= 1.00D+00 BMatC= 2.04D-06 BMatP= 6.45D-06
 IDIUse=1 WtCom= 1.00D+00 WtEn= 0.00D+00
 Coeff-Com:  0.630D-03-0.467D-02 0.742D-02 0.149D-01-0.413D-01-0.942D-01
 Coeff-Com:  0.345D+00 0.132D+00-0.215D+01 0.279D+01
 Coeff:      0.630D-03-0.467D-02 0.742D-02 0.149D-01-0.413D-01-0.942D-01
 Coeff:      0.345D+00 0.132D+00-0.215D+01 0.279D+01
 Gap=     0.379 Goal=   None    Shift=    0.500
 Gap=     0.254 Goal=   None    Shift=    0.500
 RMSDP=7.23D-06 MaxDP=3.69D-04 DE=-9.31D-06 OVMax= 1.05D-03

 Cycle  11  Pass 1  IDiag  1:
 E= -517.078137633155     Delta-E=       -0.000002760493 Rises=F Damp=F
 DIIS: error= 6.66D-05 at cycle  11 NSaved=  11.
 NSaved=11 IEnMin=11 EnMin= -517.078137633155     IErMin=11 ErrMin= 6.66D-05
 ErrMax= 6.66D-05  0.00D+00 EMaxC= 1.00D+00 BMatC= 6.07D-07 BMatP= 2.04D-06
 IDIUse=1 WtCom= 1.00D+00 WtEn= 0.00D+00
 Coeff-Com: -0.369D-03 0.120D-02-0.114D-02-0.100D-01 0.239D-01 0.203D-01
 Coeff-Com: -0.853D-01-0.136D+00 0.913D+00-0.260D+01 0.288D+01
 Coeff:     -0.369D-03 0.120D-02-0.114D-02-0.100D-01 0.239D-01 0.203D-01
 Coeff:     -0.853D-01-0.136D+00 0.913D+00-0.260D+01 0.288D+01
 Gap=     0.379 Goal=   None    Shift=    0.500
 Gap=     0.254 Goal=   None    Shift=    0.500
 RMSDP=3.89D-06 MaxDP=2.09D-04 DE=-2.76D-06 OVMax= 5.66D-04

 Cycle  12  Pass 1  IDiag  1:
 E= -517.078138416214     Delta-E=       -0.000000783059 Rises=F Damp=F
 DIIS: error= 3.48D-05 at cycle  12 NSaved=  12.
 NSaved=12 IEnMin=12 EnMin= -517.078138416214     IErMin=12 ErrMin= 3.48D-05
 ErrMax= 3.48D-05  0.00D+00 EMaxC= 1.00D+00 BMatC= 1.79D-07 BMatP= 6.07D-07
 IDIUse=1 WtCom= 1.00D+00 WtEn= 0.00D+00
 Coeff-Com: -0.193D-03 0.114D-02-0.178D-02-0.962D-02 0.131D-01 0.498D-01
 Coeff-Com: -0.107D+00-0.101D+00 0.555D+00-0.784D+00-0.566D+00 0.195D+01
 Coeff:     -0.193D-03 0.114D-02-0.178D-02-0.962D-02 0.131D-01 0.498D-01
 Coeff:     -0.107D+00-0.101D+00 0.555D+00-0.784D+00-0.566D+00 0.195D+01
 Gap=     0.379 Goal=   None    Shift=    0.500
 Gap=     0.254 Goal=   None    Shift=    0.500
 RMSDP=2.06D-06 MaxDP=1.04D-04 DE=-7.83D-07 OVMax= 3.00D-04

 Cycle  13  Pass 1  IDiag  1:
 E= -517.078138635278     Delta-E=       -0.000000219063 Rises=F Damp=F
 DIIS: error= 1.82D-05 at cycle  13 NSaved=  13.
 NSaved=13 IEnMin=13 EnMin= -517.078138635278     IErMin=13 ErrMin= 1.82D-05
 ErrMax= 1.82D-05  0.00D+00 EMaxC= 1.00D+00 BMatC= 5.35D-08 BMatP= 1.79D-07
 IDIUse=1 WtCom= 1.00D+00 WtEn= 0.00D+00
 Coeff-Com:  0.105D-04 0.203D-03-0.551D-03-0.339D-02 0.144D-02 0.239D-01
 Coeff-Com: -0.360D-01-0.252D-01 0.310D-01 0.340D+00-0.124D+01 0.716D+00
 Coeff-Com:  0.119D+01
 Coeff:      0.105D-04 0.203D-03-0.551D-03-0.339D-02 0.144D-02 0.239D-01
 Coeff:     -0.360D-01-0.252D-01 0.310D-01 0.340D+00-0.124D+01 0.716D+00
 Coeff:      0.119D+01
 Gap=     0.379 Goal=   None    Shift=    0.500
 Gap=     0.254 Goal=   None    Shift=    0.500
 RMSDP=1.13D-06 MaxDP=5.67D-05 DE=-2.19D-07 OVMax= 1.59D-04

 Cycle  14  Pass 1  IDiag  1:
 E= -517.078138697321     Delta-E=       -0.000000062043 Rises=F Damp=F
 DIIS: error= 9.67D-06 at cycle  14 NSaved=  14.
 NSaved=14 IEnMin=14 EnMin= -517.078138697321     IErMin=14 ErrMin= 9.67D-06
 ErrMax= 9.67D-06  0.00D+00 EMaxC= 1.00D+00 BMatC= 1.50D-08 BMatP= 5.35D-08
 IDIUse=1 WtCom= 1.00D+00 WtEn= 0.00D+00
 Coeff-Com:  0.620D-04-0.391D-03 0.605D-03 0.204D-02-0.313D-02-0.123D-01
 Coeff-Com:  0.305D-01 0.202D-01-0.177D+00 0.338D+00-0.124D+00-0.585D+00
 Coeff-Com: -0.259D+00 0.177D+01
 Coeff:      0.620D-04-0.391D-03 0.605D-03 0.204D-02-0.313D-02-0.123D-01
 Coeff:      0.305D-01 0.202D-01-0.177D+00 0.338D+00-0.124D+00-0.585D+00
 Coeff:     -0.259D+00 0.177D+01
 Gap=     0.379 Goal=   None    Shift=    0.500
 Gap=     0.254 Goal=   None    Shift=    0.500
 RMSDP=6.46D-07 MaxDP=3.59D-05 DE=-6.20D-08 OVMax= 8.44D-05

 SCF Done:  E(ULC-wHPBE) =  -517.078138697     A.U. after   14 cycles
            NFock= 14  Conv=0.65D-06     -V/T= 2.0048
 <Sx>= 0.0000 <Sy>= 0.0000 <Sz>= 0.5000 <S**2>= 0.7769 S= 0.5134
 <L.S>= 0.000000000000E+00
 KE= 5.145874934509D+02 PE=-2.652460798040D+03 EE= 8.800321841792D+02
 Annihilation of the first spin contaminant:
 S**2 before annihilation     0.7769,   after     0.7504
 Leave Link  502 at Mon Jan 25 21:55:49 2021, MaxMem=  4026531840 cpu:            1779.6 elap:             222.7
 (Enter /opt/ohpc/pub/libs/gaussian/g16-A.03/sandybridge/g16/l508.exe)
 QCSCF skips out because SCF is already converged.
 Leave Link  508 at Mon Jan 25 21:55:49 2021, MaxMem=  4026531840 cpu:               0.1 elap:               0.0
 (Enter /opt/ohpc/pub/libs/gaussian/g16-A.03/sandybridge/g16/l601.exe)
 Copying SCF densities to generalized density rwf, IOpCl= 1 IROHF=0.

 **********************************************************************

            Population analysis using the SCF density.

 **********************************************************************

 Orbital symmetries:
 Alpha Orbitals:
       Occupied  (A) (A) (A) (A) (A) (A) (A) (A) (A) (A) (A) (A)
                 (A) (A) (A) (A) (A) (A) (A) (A) (A) (A) (A) (A)
                 (A) (A) (A) (A) (A) (A) (A) (A) (A) (A) (A) (A)
                 (A) (A) (A) (A) (A) (A) (A) (A) (A) (A)
       Virtual   (A) (A) (A) (A) (A) (A) (A) (A) (A) (A) (A) (A)
                 (A) (A) (A) (A) (A) (A) (A) (A) (A) (A) (A) (A)
                 (A) (A) (A) (A) (A) (A) (A) (A) (A) (A) (A) (A)
                 (A) (A) (A) (A) (A) (A) (A) (A) (A) (A) (A) (A)
                 (A) (A) (A) (A) (A) (A) (A) (A) (A) (A) (A) (A)
                 (A) (A) (A) (A) (A) (A) (A) (A) (A) (A) (A) (A)
                 (A) (A) (A) (A) (A) (A) (A) (A) (A) (A) (A) (A)
                 (A) (A) (A) (A) (A) (A) (A) (A) (A) (A) (A) (A)
                 (A) (A) (A) (A) (A) (A) (A) (A) (A) (A) (A) (A)
                 (A) (A) (A) (A) (A) (A) (A) (A) (A) (A) (A) (A)
                 (A) (A) (A) (A) (A) (A) (A) (A) (A) (A) (A) (A)
                 (A) (A) (A) (A) (A) (A) (A) (A) (A) (A) (A) (A)
                 (A) (A) (A) (A) (A) (A) (A) (A) (A) (A) (A) (A)
                 (A) (A) (A) (A) (A) (A) (A) (A) (A) (A) (A) (A)
                 (A) (A) (A) (A) (A) (A) (A) (A) (A) (A) (A) (A)
                 (A) (A) (A) (A) (A) (A) (A) (A) (A) (A) (A) (A)
                 (A) (A) (A) (A) (A) (A) (A) (A) (A) (A) (A) (A)
                 (A) (A) (A) (A) (A) (A) (A) (A) (A) (A) (A) (A)
                 (A) (A) (A) (A) (A) (A) (A) (A) (A) (A) (A) (A)
                 (A) (A) (A) (A) (A) (A) (A) (A) (A) (A) (A) (A)
                 (A) (A) (A) (A) (A) (A) (A) (A) (A) (A) (A) (A)
                 (A) (A) (A) (A) (A) (A) (A) (A) (A) (A) (A) (A)
                 (A) (A) (A) (A) (A) (A) (A) (A) (A) (A) (A) (A)
                 (A) (A) (A) (A) (A) (A) (A) (A) (A) (A) (A) (A)
                 (A) (A)
 Beta  Orbitals:
       Occupied  (A) (A) (A) (A) (A) (A) (A) (A) (A) (A) (A) (A)
                 (A) (A) (A) (A) (A) (A) (A) (A) (A) (A) (A) (A)
                 (A) (A) (A) (A) (A) (A) (A) (A) (A) (A) (A) (A)
                 (A) (A) (A) (A) (A) (A) (A) (A) (A)
       Virtual   (A) (A) (A) (A) (A) (A) (A) (A) (A) (A) (A) (A)
                 (A) (A) (A) (A) (A) (A) (A) (A) (A) (A) (A) (A)
                 (A) (A) (A) (A) (A) (A) (A) (A) (A) (A) (A) (A)
                 (A) (A) (A) (A) (A) (A) (A) (A) (A) (A) (A) (A)
                 (A) (A) (A) (A) (A) (A) (A) (A) (A) (A) (A) (A)
                 (A) (A) (A) (A) (A) (A) (A) (A) (A) (A) (A) (A)
                 (A) (A) (A) (A) (A) (A) (A) (A) (A) (A) (A) (A)
                 (A) (A) (A) (A) (A) (A) (A) (A) (A) (A) (A) (A)
                 (A) (A) (A) (A) (A) (A) (A) (A) (A) (A) (A) (A)
                 (A) (A) (A) (A) (A) (A) (A) (A) (A) (A) (A) (A)
                 (A) (A) (A) (A) (A) (A) (A) (A) (A) (A) (A) (A)
                 (A) (A) (A) (A) (A) (A) (A) (A) (A) (A) (A) (A)
                 (A) (A) (A) (A) (A) (A) (A) (A) (A) (A) (A) (A)
                 (A) (A) (A) (A) (A) (A) (A) (A) (A) (A) (A) (A)
                 (A) (A) (A) (A) (A) (A) (A) (A) (A) (A) (A) (A)
                 (A) (A) (A) (A) (A) (A) (A) (A) (A) (A) (A) (A)
                 (A) (A) (A) (A) (A) (A) (A) (A) (A) (A) (A) (A)
                 (A) (A) (A) (A) (A) (A) (A) (A) (A) (A) (A) (A)
                 (A) (A) (A) (A) (A) (A) (A) (A) (A) (A) (A) (A)
                 (A) (A) (A) (A) (A) (A) (A) (A) (A) (A) (A) (A)
                 (A) (A) (A) (A) (A) (A) (A) (A) (A) (A) (A) (A)
                 (A) (A) (A) (A) (A) (A) (A) (A) (A) (A) (A) (A)
                 (A) (A) (A) (A) (A) (A) (A) (A) (A) (A) (A) (A)
                 (A) (A) (A) (A) (A) (A) (A) (A) (A) (A) (A) (A)
                 (A) (A) (A)
 The electronic state is 2-A.
 Alpha  occ. eigenvalues --  -14.52540 -14.52540 -14.52539 -10.43481 -10.43416
 Alpha  occ. eigenvalues --  -10.43415 -10.34158 -10.34157 -10.34157 -10.34155
 Alpha  occ. eigenvalues --  -10.34155 -10.34154  -1.40025  -1.36052  -1.36051
 Alpha  occ. eigenvalues --   -1.30503  -1.10904  -1.10904  -1.09820  -1.09421
 Alpha  occ. eigenvalues --   -1.09420  -1.07741  -0.93262  -0.93262  -0.92480
 Alpha  occ. eigenvalues --   -0.90335  -0.88519  -0.88519  -0.86221  -0.86220
 Alpha  occ. eigenvalues --   -0.85491  -0.79724  -0.78989  -0.78988  -0.78410
 Alpha  occ. eigenvalues --   -0.76968  -0.76966  -0.76783  -0.76782  -0.76687
 Alpha  occ. eigenvalues --   -0.75044  -0.75043  -0.74124  -0.68733  -0.68732
 Alpha  occ. eigenvalues --   -0.60534
 Alpha virt. eigenvalues --   -0.22634  -0.22632  -0.19533  -0.13705  -0.13703
 Alpha virt. eigenvalues --   -0.13192  -0.12858  -0.11520  -0.11518  -0.09750
 Alpha virt. eigenvalues --   -0.09748  -0.09201  -0.09135  -0.08238  -0.08238
 Alpha virt. eigenvalues --   -0.07529  -0.07115  -0.07110  -0.06192  -0.05569
 Alpha virt. eigenvalues --   -0.05564  -0.05386  -0.05383  -0.04140  -0.01972
 Alpha virt. eigenvalues --   -0.01823  -0.01819  -0.00969  -0.00964  -0.00233
 Alpha virt. eigenvalues --    0.02211   0.02220   0.04218   0.04224   0.04419
 Alpha virt. eigenvalues --    0.05339   0.06704   0.07631   0.07635   0.09522
 Alpha virt. eigenvalues --    0.10799   0.10807   0.11533   0.12095   0.12104
 Alpha virt. eigenvalues --    0.13051   0.13992   0.13998   0.16332   0.16338
 Alpha virt. eigenvalues --    0.17896   0.18974   0.20372   0.20384   0.22180
 Alpha virt. eigenvalues --    0.22546   0.23305   0.23310   0.23717   0.23726
 Alpha virt. eigenvalues --    0.24592   0.25690   0.25692   0.25946   0.27554
 Alpha virt. eigenvalues --    0.27559   0.27798   0.28444   0.28447   0.29883
 Alpha virt. eigenvalues --    0.29894   0.31264   0.31762   0.32053   0.32529
 Alpha virt. eigenvalues --    0.32539   0.34046   0.34050   0.34054   0.37003
 Alpha virt. eigenvalues --    0.37005   0.40710   0.40712   0.44207   0.44498
 Alpha virt. eigenvalues --    0.44505   0.44700   0.44706   0.45491   0.49302
 Alpha virt. eigenvalues --    0.50058   0.50062   0.51416   0.57255   0.57270
 Alpha virt. eigenvalues --    0.61834   0.61839   0.62401   0.90694   0.91059
 Alpha virt. eigenvalues --    0.91066   0.93755   0.98639   1.01195   1.01209
 Alpha virt. eigenvalues --    1.01969   1.03029   1.05975   1.05981   1.07522
 Alpha virt. eigenvalues --    1.07524   1.10120   1.10124   1.10744   1.11751
 Alpha virt. eigenvalues --    1.12262   1.12841   1.12845   1.14479   1.14485
 Alpha virt. eigenvalues --    1.15634   1.16676   1.16688   1.19224   1.21027
 Alpha virt. eigenvalues --    1.21031   1.21365   1.21378   1.22776   1.23533
 Alpha virt. eigenvalues --    1.25616   1.25631   1.26654   1.26657   1.28045
 Alpha virt. eigenvalues --    1.32030   1.32755   1.32849   1.32854   1.33877
 Alpha virt. eigenvalues --    1.33888   1.35797   1.35801   1.38503   1.39687
 Alpha virt. eigenvalues --    1.40455   1.40467   1.41602   1.41606   1.42134
 Alpha virt. eigenvalues --    1.44957   1.44960   1.46988   1.48569   1.48572
 Alpha virt. eigenvalues --    1.50642   1.52403   1.52407   1.54141   1.54884
 Alpha virt. eigenvalues --    1.54885   1.55765   1.55770   1.55974   1.56023
 Alpha virt. eigenvalues --    1.56174   1.56179   1.56953   1.58455   1.58459
 Alpha virt. eigenvalues --    1.58849   1.59092   1.59104   1.59986   1.64014
 Alpha virt. eigenvalues --    1.64021   1.64556   1.64560   1.65934   1.76665
 Alpha virt. eigenvalues --    1.78555   1.78566   1.82830   1.82843   1.83010
 Alpha virt. eigenvalues --    1.86505   1.88887   1.88893   1.90766   1.92806
 Alpha virt. eigenvalues --    1.92812   1.97886   1.98117   1.98127   2.04462
 Alpha virt. eigenvalues --    2.04787   2.04795   2.05066   2.06178   2.07073
 Alpha virt. eigenvalues --    2.07080   2.08099   2.10247   2.10263   2.11746
 Alpha virt. eigenvalues --    2.11751   2.11838   2.13337   2.14836   2.14845
 Alpha virt. eigenvalues --    2.17267   2.21481   2.21493   2.27368   2.27377
 Alpha virt. eigenvalues --    2.28486   2.28595   2.28603   2.30832   2.31757
 Alpha virt. eigenvalues --    2.31765   2.32470   2.34845   2.34877   2.36585
 Alpha virt. eigenvalues --    2.37821   2.37835   2.38362   2.41080   2.43382
 Alpha virt. eigenvalues --    2.43393   2.44236   2.47213   2.47219   2.48010
 Alpha virt. eigenvalues --    2.50492   2.50505   2.51526   2.53491   2.53512
 Alpha virt. eigenvalues --    2.56777   2.56780   2.60483   2.60503   2.63004
 Alpha virt. eigenvalues --    2.63007   2.69124   2.69126   2.84848   2.86423
 Alpha virt. eigenvalues --    2.86452   2.87239   2.88350   2.88361   2.92576
 Alpha virt. eigenvalues --    2.95360   2.95363   3.05247   3.05258   3.07428
 Alpha virt. eigenvalues --    3.07644   3.07650   3.08619   3.10120   3.10133
 Alpha virt. eigenvalues --    3.11289   3.15808   3.15829   3.16790   3.19872
 Alpha virt. eigenvalues --    3.19881   3.22339   3.27688   3.46439   3.46452
 Alpha virt. eigenvalues --    3.56568   3.70673   3.70681  21.20244  21.51794
 Alpha virt. eigenvalues --   21.53912  21.53919  21.69823  21.69826  21.74046
 Alpha virt. eigenvalues --   21.93377  21.93391  31.31350  31.50536  31.50540
  Beta  occ. eigenvalues --  -14.51882 -14.51882 -14.51880 -10.43529 -10.43465
  Beta  occ. eigenvalues --  -10.43465 -10.34176 -10.34175 -10.34175 -10.34173
  Beta  occ. eigenvalues --  -10.34173 -10.34172  -1.39410  -1.35097  -1.35097
  Beta  occ. eigenvalues --   -1.29586  -1.10758  -1.10758  -1.09661  -1.09290
  Beta  occ. eigenvalues --   -1.09289  -1.07505  -0.92884  -0.92884  -0.92087
  Beta  occ. eigenvalues --   -0.89325  -0.88244  -0.88244  -0.85101  -0.84784
  Beta  occ. eigenvalues --   -0.84784  -0.78833  -0.78832  -0.78806  -0.78301
  Beta  occ. eigenvalues --   -0.76657  -0.76656  -0.76518  -0.76516  -0.76346
  Beta  occ. eigenvalues --   -0.74925  -0.74924  -0.74053  -0.65898  -0.65898
  Beta virt. eigenvalues --   -0.40539  -0.20990  -0.20987  -0.19329  -0.13632
  Beta virt. eigenvalues --   -0.13631  -0.13218  -0.12611  -0.11344  -0.11343
  Beta virt. eigenvalues --   -0.09562  -0.09561  -0.09162  -0.09050  -0.08165
  Beta virt. eigenvalues --   -0.08164  -0.07360  -0.06926  -0.06921  -0.06002
  Beta virt. eigenvalues --   -0.05430  -0.05424  -0.05184  -0.05181  -0.04027
  Beta virt. eigenvalues --   -0.01818  -0.01690  -0.01686  -0.00843  -0.00839
  Beta virt. eigenvalues --   -0.00165   0.02322   0.02331   0.04318   0.04324
  Beta virt. eigenvalues --    0.04550   0.05493   0.06895   0.07711   0.07715
  Beta virt. eigenvalues --    0.09827   0.11033   0.11042   0.11666   0.12269
  Beta virt. eigenvalues --    0.12277   0.13251   0.14026   0.14033   0.16500
  Beta virt. eigenvalues --    0.16506   0.18216   0.19100   0.20491   0.20502
  Beta virt. eigenvalues --    0.22334   0.22893   0.23423   0.23428   0.23923
  Beta virt. eigenvalues --    0.23932   0.24727   0.25893   0.25895   0.26205
  Beta virt. eigenvalues --    0.27786   0.27791   0.28049   0.28553   0.28556
  Beta virt. eigenvalues --    0.30217   0.30228   0.31488   0.31921   0.32463
  Beta virt. eigenvalues --    0.32785   0.32794   0.34283   0.34287   0.34310
  Beta virt. eigenvalues --    0.37110   0.37112   0.40796   0.40798   0.44554
  Beta virt. eigenvalues --    0.44669   0.44676   0.45067   0.45073   0.45646
  Beta virt. eigenvalues --    0.49569   0.50341   0.50345   0.51584   0.57427
  Beta virt. eigenvalues --    0.57442   0.61982   0.61987   0.62655   0.90886
  Beta virt. eigenvalues --    0.91330   0.91337   0.93972   0.99019   1.01334
  Beta virt. eigenvalues --    1.01349   1.02078   1.03079   1.06094   1.06101
  Beta virt. eigenvalues --    1.07667   1.07668   1.10314   1.10319   1.10865
  Beta virt. eigenvalues --    1.11884   1.12367   1.12994   1.12999   1.14635
  Beta virt. eigenvalues --    1.14642   1.15797   1.16767   1.16779   1.19394
  Beta virt. eigenvalues --    1.21069   1.21073   1.21453   1.21466   1.22914
  Beta virt. eigenvalues --    1.23652   1.25748   1.25763   1.26743   1.26746
  Beta virt. eigenvalues --    1.28357   1.32213   1.32941   1.33073   1.33078
  Beta virt. eigenvalues --    1.34029   1.34040   1.36079   1.36083   1.38749
  Beta virt. eigenvalues --    1.39906   1.40609   1.40621   1.41889   1.41893
  Beta virt. eigenvalues --    1.42733   1.45344   1.45347   1.47066   1.48682
  Beta virt. eigenvalues --    1.48684   1.50777   1.52642   1.52646   1.54368
  Beta virt. eigenvalues --    1.55398   1.55401   1.56124   1.56128   1.56142
  Beta virt. eigenvalues --    1.56356   1.56360   1.56366   1.57099   1.58628
  Beta virt. eigenvalues --    1.58632   1.59362   1.59438   1.59450   1.60339
  Beta virt. eigenvalues --    1.64239   1.64242   1.64702   1.64708   1.66439
  Beta virt. eigenvalues --    1.76679   1.78830   1.78843   1.82995   1.83473
  Beta virt. eigenvalues --    1.83485   1.86809   1.89069   1.89076   1.90964
  Beta virt. eigenvalues --    1.93114   1.93121   1.98350   1.98466   1.98475
  Beta virt. eigenvalues --    2.04811   2.05256   2.05615   2.05623   2.06883
  Beta virt. eigenvalues --    2.07245   2.07252   2.08504   2.10662   2.10679
  Beta virt. eigenvalues --    2.12104   2.12110   2.12168   2.14330   2.15589
  Beta virt. eigenvalues --    2.15597   2.18291   2.21771   2.21784   2.27470
  Beta virt. eigenvalues --    2.27480   2.28866   2.29092   2.29099   2.31335
  Beta virt. eigenvalues --    2.32023   2.32031   2.33030   2.35219   2.35252
  Beta virt. eigenvalues --    2.36847   2.38152   2.38167   2.38747   2.41271
  Beta virt. eigenvalues --    2.43941   2.43953   2.44493   2.47589   2.47594
  Beta virt. eigenvalues --    2.48613   2.51437   2.51448   2.52673   2.54111
  Beta virt. eigenvalues --    2.54131   2.57374   2.57376   2.60924   2.61279
  Beta virt. eigenvalues --    2.63363   2.63366   2.70158   2.70160   2.85284
  Beta virt. eigenvalues --    2.86689   2.86718   2.87452   2.88576   2.88586
  Beta virt. eigenvalues --    2.93494   2.95865   2.95869   3.05499   3.05510
  Beta virt. eigenvalues --    3.07648   3.07869   3.07874   3.08914   3.10239
  Beta virt. eigenvalues --    3.10252   3.11383   3.15994   3.16014   3.17186
  Beta virt. eigenvalues --    3.20762   3.20770   3.22564   3.28178   3.46829
  Beta virt. eigenvalues --    3.46842   3.56876   3.71149   3.71157  21.20179
  Beta virt. eigenvalues --   21.51769  21.53889  21.53896  21.69803  21.69805
  Beta virt. eigenvalues --   21.74025  21.93332  21.93345  31.32286  31.51474
  Beta virt. eigenvalues --   31.51478
          Condensed to atoms (all electrons):
               1          2          3          4          5          6
     1  C    6.267201  -0.199745   0.549632  -0.094660  -0.067151  -0.006806
     2  C   -0.199745   6.268773  -0.094546   0.549762  -0.002527  -0.003545
     3  N    0.549632  -0.094546   6.302630  -0.004130   0.204866  -0.021715
     4  N   -0.094660   0.549762  -0.004130   6.302560  -0.000593  -0.000004
     5  C   -0.067151  -0.002527   0.204866  -0.000593   4.984989   0.407323
     6  H   -0.006806  -0.003545  -0.021715  -0.000004   0.407323   0.433169
     7  H   -0.010658   0.013213  -0.028597   0.000029   0.396145  -0.020513
     8  H    0.006476   0.000174  -0.025875   0.000008   0.396412  -0.012508
     9  C   -0.067285   0.003395   0.204786  -0.002147  -0.043248  -0.009615
    10  H    0.006516  -0.002715  -0.025858   0.000044   0.000620   0.001656
    11  H   -0.006849   0.006608  -0.021733   0.000132  -0.009598   0.000187
    12  H   -0.010661  -0.004137  -0.028539  -0.002451   0.008037  -0.000029
    13  C   -0.002563  -0.067173  -0.000594   0.204873  -0.000019  -0.000002
    14  H   -0.003547  -0.006828  -0.000004  -0.021733  -0.000002   0.000000
    15  H    0.013196  -0.010644   0.000029  -0.028559   0.000004  -0.000000
    16  H    0.000176   0.006507   0.000008  -0.025865   0.000000   0.000000
    17  C    0.003300  -0.067200  -0.002153   0.204854   0.000039  -0.000007
    18  H   -0.002728   0.006476   0.000044  -0.025884  -0.000001   0.000000
    19  H    0.006601  -0.006798   0.000131  -0.021714   0.000003   0.000000
    20  H   -0.004105  -0.010658  -0.002466  -0.028591  -0.000114  -0.000001
    21  C   -0.197602  -0.199996  -0.094535  -0.094580   0.003228   0.006607
    22  N   -0.094609  -0.094498  -0.004133  -0.004127  -0.002147   0.000131
    23  C    0.003220  -0.002475  -0.002149  -0.000594   0.002902  -0.000607
    24  H    0.006600  -0.003550   0.000130  -0.000004  -0.000604   0.000075
    25  H   -0.004123   0.013284  -0.002462   0.000029  -0.000258  -0.001000
    26  H   -0.002732   0.000174   0.000044   0.000008   0.000016   0.000001
    27  C   -0.002604   0.003467  -0.000594  -0.002146   0.000038   0.000003
    28  H    0.000178  -0.002723   0.000008   0.000044  -0.000001   0.000000
    29  H   -0.003545   0.006601  -0.000004   0.000131  -0.000007   0.000000
    30  H    0.013180  -0.004158   0.000029  -0.002459   0.000011  -0.000000
               7          8          9         10         11         12
     1  C   -0.010658   0.006476  -0.067285   0.006516  -0.006849  -0.010661
     2  C    0.013213   0.000174   0.003395  -0.002715   0.006608  -0.004137
     3  N   -0.028597  -0.025875   0.204786  -0.025858  -0.021733  -0.028539
     4  N    0.000029   0.000008  -0.002147   0.000044   0.000132  -0.002451
     5  C    0.396145   0.396412  -0.043248   0.000620  -0.009598   0.008037
     6  H   -0.020513  -0.012508  -0.009615   0.001656   0.000187  -0.000029
     7  H    0.504563  -0.018924   0.008040   0.000258  -0.000030  -0.000500
     8  H   -0.018924   0.441065   0.000633  -0.001990   0.001654   0.000257
     9  C    0.008040   0.000633   4.985283   0.396345   0.407349   0.396200
    10  H    0.000258  -0.001990   0.396345   0.441065  -0.012494  -0.018903
    11  H   -0.000030   0.001654   0.407349  -0.012494   0.433182  -0.020530
    12  H   -0.000500   0.000257   0.396200  -0.018903  -0.020530   0.504363
    13  C    0.000004   0.000000   0.000040  -0.000001   0.000003  -0.000114
    14  H   -0.000000   0.000000  -0.000007   0.000000   0.000000  -0.000001
    15  H   -0.000002   0.000000   0.000011  -0.000000  -0.000000   0.000018
    16  H    0.000000  -0.000000  -0.000001  -0.000000   0.000000   0.000011
    17  C    0.000011  -0.000001   0.002973   0.000016  -0.000619  -0.000246
    18  H   -0.000000  -0.000000   0.000016  -0.000001   0.000001   0.000301
    19  H   -0.000000   0.000000  -0.000615   0.000001   0.000076  -0.000997
    20  H    0.000018   0.000011  -0.000225   0.000302  -0.001003  -0.003315
    21  C   -0.004125  -0.002722  -0.002607   0.000175  -0.003543   0.013142
    22  N   -0.002449   0.000044  -0.000594   0.000008  -0.000004   0.000029
    23  C   -0.000278   0.000017   0.000037  -0.000001  -0.000007   0.000011
    24  H   -0.000995   0.000001   0.000003   0.000000   0.000000  -0.000000
    25  H   -0.003278   0.000301  -0.000113   0.000011  -0.000001   0.000018
    26  H    0.000301  -0.000001  -0.000001  -0.000000   0.000000  -0.000000
    27  C   -0.000113  -0.000001  -0.000019   0.000000  -0.000002   0.000004
    28  H    0.000011  -0.000000   0.000000  -0.000000   0.000000   0.000000
    29  H   -0.000001   0.000000  -0.000002   0.000000   0.000000  -0.000000
    30  H    0.000018  -0.000000   0.000004   0.000000  -0.000000  -0.000002
              13         14         15         16         17         18
     1  C   -0.002563  -0.003547   0.013196   0.000176   0.003300  -0.002728
     2  C   -0.067173  -0.006828  -0.010644   0.006507  -0.067200   0.006476
     3  N   -0.000594  -0.000004   0.000029   0.000008  -0.002153   0.000044
     4  N    0.204873  -0.021733  -0.028559  -0.025865   0.204854  -0.025884
     5  C   -0.000019  -0.000002   0.000004   0.000000   0.000039  -0.000001
     6  H   -0.000002   0.000000  -0.000000   0.000000  -0.000007   0.000000
     7  H    0.000004  -0.000000  -0.000002   0.000000   0.000011  -0.000000
     8  H    0.000000   0.000000   0.000000  -0.000000  -0.000001  -0.000000
     9  C    0.000040  -0.000007   0.000011  -0.000001   0.002973   0.000016
    10  H   -0.000001   0.000000  -0.000000  -0.000000   0.000016  -0.000001
    11  H    0.000003   0.000000  -0.000000   0.000000  -0.000619   0.000001
    12  H   -0.000114  -0.000001   0.000018   0.000011  -0.000246   0.000301
    13  C    4.985071   0.407361   0.396148   0.396364  -0.043320   0.000636
    14  H    0.407361   0.433184  -0.020511  -0.012513  -0.009610   0.001662
    15  H    0.396148  -0.020511   0.504449  -0.018909   0.008048   0.000257
    16  H    0.396364  -0.012513  -0.018909   0.441102   0.000616  -0.001989
    17  C   -0.043320  -0.009610   0.008048   0.000616   4.985022   0.396418
    18  H    0.000636   0.001662   0.000257  -0.001989   0.396418   0.441122
    19  H   -0.009608   0.000187  -0.000030   0.001662   0.407299  -0.012521
    20  H    0.008040  -0.000030  -0.000500   0.000258   0.396137  -0.018921
    21  C    0.003281   0.006602  -0.004159  -0.002715  -0.002552   0.000175
    22  N   -0.002149   0.000131  -0.002461   0.000044  -0.000593   0.000008
    23  C    0.000039   0.000003  -0.000114  -0.000001  -0.000019   0.000000
    24  H   -0.000007   0.000000  -0.000001   0.000000  -0.000002   0.000000
    25  H    0.000011  -0.000000   0.000018  -0.000000   0.000004   0.000000
    26  H   -0.000001   0.000000   0.000011  -0.000000   0.000000  -0.000000
    27  C    0.002962  -0.000615  -0.000241   0.000016   0.000040  -0.000001
    28  H    0.000016   0.000001   0.000301  -0.000001  -0.000001  -0.000000
    29  H   -0.000615   0.000076  -0.001000   0.000001   0.000003   0.000000
    30  H   -0.000242  -0.001000  -0.003305   0.000301  -0.000114   0.000011
              19         20         21         22         23         24
     1  C    0.006601  -0.004105  -0.197602  -0.094609   0.003220   0.006600
     2  C   -0.006798  -0.010658  -0.199996  -0.094498  -0.002475  -0.003550
     3  N    0.000131  -0.002466  -0.094535  -0.004133  -0.002149   0.000130
     4  N   -0.021714  -0.028591  -0.094580  -0.004127  -0.000594  -0.000004
     5  C    0.000003  -0.000114   0.003228  -0.002147   0.002902  -0.000604
     6  H    0.000000  -0.000001   0.006607   0.000131  -0.000607   0.000075
     7  H   -0.000000   0.000018  -0.004125  -0.002449  -0.000278  -0.000995
     8  H    0.000000   0.000011  -0.002722   0.000044   0.000017   0.000001
     9  C   -0.000615  -0.000225  -0.002607  -0.000594   0.000037   0.000003
    10  H    0.000001   0.000302   0.000175   0.000008  -0.000001   0.000000
    11  H    0.000076  -0.001003  -0.003543  -0.000004  -0.000007   0.000000
    12  H   -0.000997  -0.003315   0.013142   0.000029   0.000011  -0.000000
    13  C   -0.009608   0.008040   0.003281  -0.002149   0.000039  -0.000007
    14  H    0.000187  -0.000030   0.006602   0.000131   0.000003   0.000000
    15  H   -0.000030  -0.000500  -0.004159  -0.002461  -0.000114  -0.000001
    16  H    0.001662   0.000258  -0.002715   0.000044  -0.000001   0.000000
    17  C    0.407299   0.396137  -0.002552  -0.000593  -0.000019  -0.000002
    18  H   -0.012521  -0.018921   0.000175   0.000008   0.000000   0.000000
    19  H    0.433192  -0.020494  -0.003540  -0.000004  -0.000002   0.000000
    20  H   -0.020494   0.504486   0.013198   0.000029   0.000004  -0.000000
    21  C   -0.003540   0.013198   6.267309   0.549689  -0.067110  -0.006778
    22  N   -0.000004   0.000029   0.549689   6.302473   0.204948  -0.021708
    23  C   -0.000002   0.000004  -0.067110   0.204948   4.984729   0.407326
    24  H    0.000000  -0.000000  -0.006778  -0.021708   0.407326   0.433189
    25  H   -0.000000  -0.000002  -0.010638  -0.028641   0.396060  -0.020480
    26  H    0.000000   0.000000   0.006454  -0.025880   0.396444  -0.012541
    27  C   -0.000007   0.000011  -0.067322   0.204844  -0.043382  -0.009630
    28  H    0.000000  -0.000000   0.006517  -0.025872   0.000617   0.001668
    29  H    0.000000  -0.000000  -0.006830  -0.021722  -0.009596   0.000186
    30  H   -0.000001   0.000018  -0.010652  -0.028541   0.008047  -0.000029
              25         26         27         28         29         30
     1  C   -0.004123  -0.002732  -0.002604   0.000178  -0.003545   0.013180
     2  C    0.013284   0.000174   0.003467  -0.002723   0.006601  -0.004158
     3  N   -0.002462   0.000044  -0.000594   0.000008  -0.000004   0.000029
     4  N    0.000029   0.000008  -0.002146   0.000044   0.000131  -0.002459
     5  C   -0.000258   0.000016   0.000038  -0.000001  -0.000007   0.000011
     6  H   -0.001000   0.000001   0.000003   0.000000   0.000000  -0.000000
     7  H   -0.003278   0.000301  -0.000113   0.000011  -0.000001   0.000018
     8  H    0.000301  -0.000001  -0.000001  -0.000000   0.000000  -0.000000
     9  C   -0.000113  -0.000001  -0.000019   0.000000  -0.000002   0.000004
    10  H    0.000011  -0.000000   0.000000  -0.000000   0.000000   0.000000
    11  H   -0.000001   0.000000  -0.000002   0.000000   0.000000  -0.000000
    12  H    0.000018  -0.000000   0.000004   0.000000  -0.000000  -0.000002
    13  C    0.000011  -0.000001   0.002962   0.000016  -0.000615  -0.000242
    14  H   -0.000000   0.000000  -0.000615   0.000001   0.000076  -0.001000
    15  H    0.000018   0.000011  -0.000241   0.000301  -0.001000  -0.003305
    16  H   -0.000000  -0.000000   0.000016  -0.000001   0.000001   0.000301
    17  C    0.000004   0.000000   0.000040  -0.000001   0.000003  -0.000114
    18  H    0.000000  -0.000000  -0.000001  -0.000000   0.000000   0.000011
    19  H   -0.000000   0.000000  -0.000007   0.000000   0.000000  -0.000001
    20  H   -0.000002   0.000000   0.000011  -0.000000  -0.000000   0.000018
    21  C   -0.010638   0.006454  -0.067322   0.006517  -0.006830  -0.010652
    22  N   -0.028641  -0.025880   0.204844  -0.025872  -0.021722  -0.028541
    23  C    0.396060   0.396444  -0.043382   0.000617  -0.009596   0.008047
    24  H   -0.020480  -0.012541  -0.009630   0.001668   0.000186  -0.000029
    25  H    0.504643  -0.018927   0.008053   0.000259  -0.000031  -0.000500
    26  H   -0.018927   0.441131   0.000635  -0.001988   0.001666   0.000255
    27  C    0.008053   0.000635   4.985135   0.396358   0.407346   0.396152
    28  H    0.000259  -0.001988   0.396358   0.441143  -0.012513  -0.018910
    29  H   -0.000031   0.001666   0.407346  -0.012513   0.433182  -0.020511
    30  H   -0.000500   0.000255   0.396152  -0.018910  -0.020511   0.504435
          Atomic-Atomic Spin Densities.
               1          2          3          4          5          6
     1  C   -0.081637   0.060111  -0.068395  -0.005899   0.004907  -0.000156
     2  C    0.060111  -0.081602  -0.005900  -0.068396  -0.000826  -0.000050
     3  N   -0.068395  -0.005900   0.478379   0.001884  -0.029420  -0.006123
     4  N   -0.005899  -0.068396   0.001884   0.478410  -0.000074  -0.000002
     5  C    0.004907  -0.000826  -0.029420  -0.000074  -0.011227   0.008687
     6  H   -0.000156  -0.000050  -0.006123  -0.000002   0.008687   0.019147
     7  H   -0.000179  -0.000065  -0.000248   0.000008   0.000899  -0.000260
     8  H    0.000817   0.000043  -0.004533  -0.000001   0.004993  -0.002146
     9  C    0.004904   0.003041  -0.029420  -0.000381   0.002487   0.000159
    10  H    0.000812  -0.000109  -0.004514  -0.000008   0.000913   0.000443
    11  H   -0.000155   0.000390  -0.006130  -0.000026   0.000159  -0.000126
    12  H   -0.000166  -0.000097  -0.000257   0.000165  -0.000062  -0.000028
    13  C   -0.000825   0.004904  -0.000074  -0.029415  -0.000001  -0.000000
    14  H   -0.000048  -0.000154  -0.000002  -0.006128  -0.000000  -0.000000
    15  H   -0.000061  -0.000171   0.000008  -0.000252  -0.000001  -0.000000
    16  H    0.000043   0.000816  -0.000001  -0.004528   0.000000   0.000000
    17  C    0.003041   0.004905  -0.000381  -0.029417   0.000026   0.000002
    18  H   -0.000109   0.000817  -0.000009  -0.004535   0.000000  -0.000000
    19  H    0.000388  -0.000152  -0.000026  -0.006126   0.000002   0.000000
    20  H   -0.000095  -0.000177   0.000166  -0.000251   0.000000   0.000002
    21  C    0.060098   0.060074  -0.005883  -0.005887   0.003040   0.000390
    22  N   -0.005893  -0.005894   0.001883   0.001883  -0.000381  -0.000026
    23  C    0.003037  -0.000824  -0.000382  -0.000074   0.000198  -0.000039
    24  H    0.000388  -0.000048  -0.000026  -0.000002  -0.000039  -0.000021
    25  H   -0.000089  -0.000061   0.000168   0.000008  -0.000050  -0.000062
    26  H   -0.000111   0.000043  -0.000009  -0.000001   0.000023   0.000006
    27  C   -0.000827   0.003036  -0.000073  -0.000381   0.000026   0.000002
    28  H    0.000043  -0.000109  -0.000001  -0.000009  -0.000001  -0.000000
    29  H   -0.000049   0.000388  -0.000002  -0.000026   0.000002   0.000000
    30  H   -0.000063  -0.000099   0.000008   0.000165   0.000002   0.000000
               7          8          9         10         11         12
     1  C   -0.000179   0.000817   0.004904   0.000812  -0.000155  -0.000166
     2  C   -0.000065   0.000043   0.003041  -0.000109   0.000390  -0.000097
     3  N   -0.000248  -0.004533  -0.029420  -0.004514  -0.006130  -0.000257
     4  N    0.000008  -0.000001  -0.000381  -0.000008  -0.000026   0.000165
     5  C    0.000899   0.004993   0.002487   0.000913   0.000159  -0.000062
     6  H   -0.000260  -0.002146   0.000159   0.000443  -0.000126  -0.000028
     7  H    0.001302  -0.000061  -0.000063   0.000019  -0.000028  -0.000013
     8  H   -0.000061   0.013984   0.000915  -0.000270   0.000444   0.000019
     9  C   -0.000063   0.000915  -0.011231   0.004975   0.008699   0.000903
    10  H    0.000019  -0.000270   0.004975   0.013931  -0.002142  -0.000054
    11  H   -0.000028   0.000444   0.008699  -0.002142   0.019169  -0.000269
    12  H   -0.000013   0.000019   0.000903  -0.000054  -0.000269   0.001321
    13  C   -0.000001   0.000000   0.000026   0.000000   0.000002   0.000001
    14  H   -0.000000   0.000000   0.000002  -0.000000   0.000000   0.000002
    15  H   -0.000001   0.000000   0.000002  -0.000000   0.000000   0.000003
    16  H    0.000000  -0.000000  -0.000001   0.000000  -0.000000  -0.000002
    17  C    0.000002  -0.000001   0.000196   0.000022  -0.000039  -0.000046
    18  H   -0.000000   0.000000   0.000023  -0.000000   0.000006   0.000012
    19  H    0.000000  -0.000000  -0.000040   0.000006  -0.000021  -0.000060
    20  H    0.000003  -0.000002  -0.000048   0.000012  -0.000061  -0.000095
    21  C   -0.000091  -0.000110  -0.000828   0.000043  -0.000050  -0.000064
    22  N    0.000167  -0.000009  -0.000074  -0.000001  -0.000002   0.000008
    23  C   -0.000048   0.000022   0.000026  -0.000001   0.000002   0.000002
    24  H   -0.000061   0.000006   0.000002  -0.000000   0.000000   0.000000
    25  H   -0.000096   0.000012   0.000001  -0.000002   0.000002   0.000003
    26  H    0.000012  -0.000000   0.000000   0.000000  -0.000000  -0.000000
    27  C    0.000001   0.000000  -0.000001   0.000000  -0.000000  -0.000001
    28  H   -0.000002   0.000000   0.000000  -0.000000   0.000000   0.000000
    29  H    0.000002  -0.000000  -0.000000   0.000000  -0.000000  -0.000000
    30  H    0.000003  -0.000000  -0.000001   0.000000  -0.000000  -0.000001
              13         14         15         16         17         18
     1  C   -0.000825  -0.000048  -0.000061   0.000043   0.003041  -0.000109
     2  C    0.004904  -0.000154  -0.000171   0.000816   0.004905   0.000817
     3  N   -0.000074  -0.000002   0.000008  -0.000001  -0.000381  -0.000009
     4  N   -0.029415  -0.006128  -0.000252  -0.004528  -0.029417  -0.004535
     5  C   -0.000001  -0.000000  -0.000001   0.000000   0.000026   0.000000
     6  H   -0.000000  -0.000000  -0.000000   0.000000   0.000002  -0.000000
     7  H   -0.000001  -0.000000  -0.000001   0.000000   0.000002  -0.000000
     8  H    0.000000   0.000000   0.000000  -0.000000  -0.000001   0.000000
     9  C    0.000026   0.000002   0.000002  -0.000001   0.000196   0.000023
    10  H    0.000000  -0.000000  -0.000000   0.000000   0.000022  -0.000000
    11  H    0.000002   0.000000   0.000000  -0.000000  -0.000039   0.000006
    12  H    0.000001   0.000002   0.000003  -0.000002  -0.000046   0.000012
    13  C   -0.011233   0.008698   0.000901   0.004983   0.002487   0.000917
    14  H    0.008698   0.019158  -0.000265  -0.002145   0.000158   0.000445
    15  H    0.000901  -0.000265   0.001308  -0.000057  -0.000062   0.000019
    16  H    0.004983  -0.002145  -0.000057   0.013969   0.000915  -0.000270
    17  C    0.002487   0.000158  -0.000062   0.000915  -0.011230   0.004990
    18  H    0.000917   0.000445   0.000019  -0.000270   0.004990   0.013991
    19  H    0.000157  -0.000126  -0.000028   0.000444   0.008691  -0.002146
    20  H   -0.000063  -0.000028  -0.000013   0.000019   0.000900  -0.000059
    21  C    0.003035   0.000387  -0.000098  -0.000108  -0.000825   0.000042
    22  N   -0.000382  -0.000026   0.000165  -0.000009  -0.000074  -0.000001
    23  C    0.000026   0.000002   0.000000   0.000000  -0.000001   0.000000
    24  H    0.000002   0.000000   0.000002  -0.000000  -0.000000   0.000000
    25  H    0.000002   0.000000   0.000003  -0.000000  -0.000001   0.000000
    26  H   -0.000001  -0.000000  -0.000002   0.000000   0.000000  -0.000000
    27  C    0.000195  -0.000040  -0.000047   0.000023   0.000026  -0.000001
    28  H    0.000022   0.000006   0.000012  -0.000000   0.000000   0.000000
    29  H   -0.000040  -0.000021  -0.000061   0.000006   0.000002  -0.000000
    30  H   -0.000047  -0.000060  -0.000095   0.000012   0.000001  -0.000002
              19         20         21         22         23         24
     1  C    0.000388  -0.000095   0.060098  -0.005893   0.003037   0.000388
     2  C   -0.000152  -0.000177   0.060074  -0.005894  -0.000824  -0.000048
     3  N   -0.000026   0.000166  -0.005883   0.001883  -0.000382  -0.000026
     4  N   -0.006126  -0.000251  -0.005887   0.001883  -0.000074  -0.000002
     5  C    0.000002   0.000000   0.003040  -0.000381   0.000198  -0.000039
     6  H    0.000000   0.000002   0.000390  -0.000026  -0.000039  -0.000021
     7  H    0.000000   0.000003  -0.000091   0.000167  -0.000048  -0.000061
     8  H   -0.000000  -0.000002  -0.000110  -0.000009   0.000022   0.000006
     9  C   -0.000040  -0.000048  -0.000828  -0.000074   0.000026   0.000002
    10  H    0.000006   0.000012   0.000043  -0.000001  -0.000001  -0.000000
    11  H   -0.000021  -0.000061  -0.000050  -0.000002   0.000002   0.000000
    12  H   -0.000060  -0.000095  -0.000064   0.000008   0.000002   0.000000
    13  C    0.000157  -0.000063   0.003035  -0.000382   0.000026   0.000002
    14  H   -0.000126  -0.000028   0.000387  -0.000026   0.000002   0.000000
    15  H   -0.000028  -0.000013  -0.000098   0.000165   0.000000   0.000002
    16  H    0.000444   0.000019  -0.000108  -0.000009   0.000000  -0.000000
    17  C    0.008691   0.000900  -0.000825  -0.000074  -0.000001  -0.000000
    18  H   -0.002146  -0.000059   0.000042  -0.000001   0.000000   0.000000
    19  H    0.019139  -0.000263  -0.000047  -0.000002  -0.000000  -0.000000
    20  H   -0.000263   0.001302  -0.000059   0.000008  -0.000001  -0.000000
    21  C   -0.000047  -0.000059  -0.081652  -0.068380   0.004906  -0.000153
    22  N   -0.000002   0.000008  -0.068380   0.478392  -0.029415  -0.006123
    23  C   -0.000000  -0.000001   0.004906  -0.029415  -0.011233   0.008681
    24  H   -0.000000  -0.000000  -0.000153  -0.006123   0.008681   0.019131
    25  H   -0.000000  -0.000001  -0.000189  -0.000242   0.000896  -0.000255
    26  H    0.000000   0.000000   0.000820  -0.004551   0.005007  -0.002151
    27  C    0.000002   0.000002   0.004903  -0.029409   0.002488   0.000158
    28  H   -0.000000  -0.000000   0.000817  -0.004528   0.000916   0.000445
    29  H    0.000000   0.000000  -0.000156  -0.006124   0.000158  -0.000126
    30  H    0.000002   0.000003  -0.000169  -0.000253  -0.000062  -0.000028
              25         26         27         28         29         30
     1  C   -0.000089  -0.000111  -0.000827   0.000043  -0.000049  -0.000063
     2  C   -0.000061   0.000043   0.003036  -0.000109   0.000388  -0.000099
     3  N    0.000168  -0.000009  -0.000073  -0.000001  -0.000002   0.000008
     4  N    0.000008  -0.000001  -0.000381  -0.000009  -0.000026   0.000165
     5  C   -0.000050   0.000023   0.000026  -0.000001   0.000002   0.000002
     6  H   -0.000062   0.000006   0.000002  -0.000000   0.000000   0.000000
     7  H   -0.000096   0.000012   0.000001  -0.000002   0.000002   0.000003
     8  H    0.000012  -0.000000   0.000000   0.000000  -0.000000  -0.000000
     9  C    0.000001   0.000000  -0.000001   0.000000  -0.000000  -0.000001
    10  H   -0.000002   0.000000   0.000000  -0.000000   0.000000   0.000000
    11  H    0.000002  -0.000000  -0.000000   0.000000  -0.000000  -0.000000
    12  H    0.000003  -0.000000  -0.000001   0.000000  -0.000000  -0.000001
    13  C    0.000002  -0.000001   0.000195   0.000022  -0.000040  -0.000047
    14  H    0.000000  -0.000000  -0.000040   0.000006  -0.000021  -0.000060
    15  H    0.000003  -0.000002  -0.000047   0.000012  -0.000061  -0.000095
    16  H   -0.000000   0.000000   0.000023  -0.000000   0.000006   0.000012
    17  C   -0.000001   0.000000   0.000026   0.000000   0.000002   0.000001
    18  H    0.000000  -0.000000  -0.000001   0.000000  -0.000000  -0.000002
    19  H   -0.000000   0.000000   0.000002  -0.000000   0.000000   0.000002
    20  H   -0.000001   0.000000   0.000002  -0.000000   0.000000   0.000003
    21  C   -0.000189   0.000820   0.004903   0.000817  -0.000156  -0.000169
    22  N   -0.000242  -0.004551  -0.029409  -0.004528  -0.006124  -0.000253
    23  C    0.000896   0.005007   0.002488   0.000916   0.000158  -0.000062
    24  H   -0.000255  -0.002151   0.000158   0.000445  -0.000126  -0.000028
    25  H    0.001285  -0.000066  -0.000064   0.000019  -0.000028  -0.000013
    26  H   -0.000066   0.014040   0.000919  -0.000271   0.000446   0.000019
    27  C   -0.000064   0.000919  -0.011239   0.004980   0.008696   0.000901
    28  H    0.000019  -0.000271   0.004980   0.013961  -0.002145  -0.000057
    29  H   -0.000028   0.000446   0.008696  -0.002145   0.019158  -0.000266
    30  H   -0.000013   0.000019   0.000901  -0.000057  -0.000266   0.001312
 Mulliken charges and spin densities:
               1          2
     1  C   -0.094302  -0.026171
     2  C   -0.094519  -0.026164
     3  N    0.097748   0.320685
     4  N    0.097765   0.320702
     5  C   -0.278363  -0.015717
     6  H    0.227200   0.019800
     7  H    0.167851   0.001199
     8  H    0.214968   0.014123
     9  C   -0.278639  -0.015726
    10  H    0.214947   0.014075
    11  H    0.227219   0.019824
    12  H    0.168035   0.001223
    13  C   -0.278440  -0.015723
    14  H    0.227191   0.019813
    15  H    0.167946   0.001208
    16  H    0.214928   0.014108
    17  C   -0.278344  -0.015715
    18  H    0.214917   0.014129
    19  H    0.227179   0.019794
    20  H    0.167916   0.001200
    21  C   -0.094372  -0.026196
    22  N    0.097752   0.320707
    23  C   -0.278070  -0.015713
    24  H    0.227148   0.019782
    25  H    0.167763   0.001179
    26  H    0.214929   0.014172
    27  C   -0.278386  -0.015726
    28  H    0.214886   0.014100
    29  H    0.227183   0.019813
    30  H    0.167963   0.001212
 Sum of Mulliken charges =   2.00000   1.00000
 Mulliken charges and spin densities with hydrogens summed into heavy atoms:
               1          2
     1  C   -0.094302  -0.026171
     2  C   -0.094519  -0.026164
     3  N    0.097748   0.320685
     4  N    0.097765   0.320702
     5  C    0.331656   0.019406
     9  C    0.331562   0.019396
    13  C    0.331625   0.019406
    17  C    0.331668   0.019409
    21  C   -0.094372  -0.026196
    22  N    0.097752   0.320707
    23  C    0.331771   0.019420
    27  C    0.331646   0.019399
 Electronic spatial extent (au):  <R**2>=           2550.8321
 Charge=              2.0000 electrons
 Dipole moment (field-independent basis, Debye):
    X=              0.0001    Y=              0.0000    Z=              0.0006  Tot=              0.0006
 Quadrupole moment (field-independent basis, Debye-Ang):
   XX=            -17.5229   YY=            -17.5308   ZZ=            -66.4680
   XY=             -0.0002   XZ=             -0.0014   YZ=              0.0008
 Traceless Quadrupole moment (field-independent basis, Debye-Ang):
   XX=             16.3177   YY=             16.3098   ZZ=            -32.6274
   XY=             -0.0002   XZ=             -0.0014   YZ=              0.0008
 Octapole moment (field-independent basis, Debye-Ang**2):
  XXX=             16.3207  YYY=             28.6498  ZZZ=              0.0022  XYY=            -16.3215
  XXY=            -28.6704  XXZ=              0.0024  XZZ=              0.0051  YZZ=              0.0053
  YYZ=              0.0028  XYZ=              0.0030
 Hexadecapole moment (field-independent basis, Debye-Ang**3):
 XXXX=          -1072.0621 YYYY=          -1071.8574 ZZZZ=           -120.1733 XXXY=             -0.0201
 XXXZ=              8.1154 YYYX=              0.0205 YYYZ=             -4.6029 ZZZX=             -0.0256
 ZZZY=              0.0058 XXYY=           -357.2772 XXZZ=           -244.7677 YYZZ=           -244.7494
 XXYZ=              4.6041 YYXZ=             -8.0832 ZZXY=             -0.0166
 N-N= 7.407629817128D+02 E-N=-2.652460793635D+03  KE= 5.145874934509D+02
                          Isotropic Fermi Contact Couplings
        Atom                 a.u.       MegaHertz       Gauss      10(-4) cm-1
     1  C(13)             -0.01066     -11.98627      -4.27700      -3.99819
     2  C(13)             -0.01066     -11.98733      -4.27738      -3.99854
     3  N(14)              0.03180      10.27457       3.66622       3.42723
     4  N(14)              0.03180      10.27490       3.66634       3.42734
     5  C(13)             -0.00853      -9.59258      -3.42287      -3.19974
     6  H(1)               0.00997      44.55087      15.89686      14.86057
     7  H(1)               0.00073       3.26657       1.16559       1.08961
     8  H(1)               0.00704      31.47818      11.23220      10.49999
     9  C(13)             -0.00853      -9.59367      -3.42326      -3.20010
    10  H(1)               0.00702      31.37411      11.19506      10.46528
    11  H(1)               0.00998      44.59810      15.91371      14.87633
    12  H(1)               0.00074       3.30829       1.18048       1.10353
    13  C(13)             -0.00854      -9.59554      -3.42393      -3.20073
    14  H(1)               0.00997      44.57209      15.90443      14.86765
    15  H(1)               0.00073       3.27744       1.16947       1.09324
    16  H(1)               0.00703      31.44158      11.21914      10.48778
    17  C(13)             -0.00853      -9.59184      -3.42261      -3.19949
    18  H(1)               0.00704      31.48620      11.23506      10.50266
    19  H(1)               0.00996      44.53824      15.89235      14.85636
    20  H(1)               0.00073       3.26291       1.16429       1.08839
    21  C(13)             -0.01066     -11.98831      -4.27773      -3.99887
    22  N(14)              0.03180      10.27538       3.66651       3.42750
    23  C(13)             -0.00853      -9.59482      -3.42367      -3.20049
    24  H(1)               0.00996      44.50771      15.88146      14.84617
    25  H(1)               0.00072       3.22259       1.14990       1.07494
    26  H(1)               0.00706      31.57814      11.26787      10.53334
    27  C(13)             -0.00853      -9.59347      -3.42319      -3.20004
    28  H(1)               0.00703      31.42097      11.21178      10.48091
    29  H(1)               0.00997      44.57069      15.90393      14.86718
    30  H(1)               0.00074       3.28632       1.17264       1.09620
 --------------------------------------------------------
       Center         ----  Spin Dipole Couplings  ----
                      3XX-RR        3YY-RR        3ZZ-RR
 --------------------------------------------------------
     1   Atom        0.018830      0.011672     -0.030502
     2   Atom       -0.003668      0.034175     -0.030507
     3   Atom       -0.389035     -0.382185      0.771220
     4   Atom       -0.367680     -0.403642      0.771322
     5   Atom       -0.010141      0.002523      0.007618
     6   Atom       -0.003732      0.006075     -0.002343
     7   Atom        0.001331      0.002360     -0.003691
     8   Atom       -0.000832      0.003686     -0.002854
     9   Atom        0.001656     -0.009249      0.007594
    10   Atom        0.004625     -0.001759     -0.002866
    11   Atom        0.005919     -0.003584     -0.002335
    12   Atom        0.001382      0.002310     -0.003692
    13   Atom       -0.003499     -0.004097      0.007596
    14   Atom       -0.000105      0.002441     -0.002336
    15   Atom        0.004431     -0.000737     -0.003694
    16   Atom       -0.001964      0.004824     -0.002860
    17   Atom        0.000542     -0.008155      0.007613
    18   Atom       -0.000089      0.002942     -0.002853
    19   Atom        0.003216     -0.000871     -0.002345
    20   Atom        0.004445     -0.000753     -0.003692
    21   Atom        0.030612     -0.000108     -0.030504
    22   Atom       -0.400250     -0.371018      0.771267
    23   Atom       -0.009561      0.001941      0.007620
    24   Atom       -0.002299      0.004647     -0.002347
    25   Atom       -0.000276      0.003968     -0.003692
    26   Atom        0.001624      0.001222     -0.002845
    27   Atom       -0.001820     -0.005775      0.007596
    28   Atom        0.005211     -0.002352     -0.002859
    29   Atom        0.004021     -0.001682     -0.002339
    30   Atom       -0.000241      0.003933     -0.003692
 --------------------------------------------------------
                        XY            XZ            YZ
 --------------------------------------------------------
     1   Atom        0.019793      0.012868     -0.015357
     2   Atom       -0.006804     -0.019750     -0.003479
     3   Atom       -0.018823     -0.132175      0.158403
     4   Atom        0.006455      0.203106      0.035339
     5   Atom       -0.001363     -0.004331     -0.003775
     6   Atom        0.000472      0.000881      0.004231
     7   Atom       -0.002705      0.001079     -0.002730
     8   Atom        0.003058     -0.002176     -0.004154
     9   Atom       -0.003497      0.004471      0.003595
    10   Atom        0.002079      0.004466      0.001394
    11   Atom       -0.001284     -0.004322     -0.000107
    12   Atom       -0.002712      0.002498     -0.001549
    13   Atom        0.006472      0.000880     -0.005664
    14   Atom        0.004753      0.002063      0.003800
    15   Atom        0.000957     -0.002584     -0.001387
    16   Atom        0.001726     -0.001023     -0.004571
    17   Atom       -0.004802     -0.001114      0.005637
    18   Atom       -0.003485     -0.002511      0.003962
    19   Atom       -0.004482      0.003223     -0.002878
    20   Atom        0.000909     -0.002903      0.000431
    21   Atom       -0.012987      0.006916      0.018800
    22   Atom        0.012359     -0.070944     -0.193781
    23   Atom       -0.002982     -0.005351      0.002090
    24   Atom       -0.003494      0.002267     -0.003679
    25   Atom        0.001760      0.000091      0.002927
    26   Atom       -0.003792     -0.003461      0.003176
    27   Atom        0.006169      0.005421     -0.001864
    28   Atom        0.000432      0.004680      0.000198
    29   Atom        0.004013     -0.004103     -0.001356
    30   Atom        0.001797      0.001826      0.002300
 --------------------------------------------------------


 ---------------------------------------------------------------------------------
              Anisotropic Spin Dipole Couplings in Principal Axis System
 ---------------------------------------------------------------------------------

       Atom             a.u.   MegaHertz   Gauss  10(-4) cm-1        Axes

              Baa    -0.0415    -5.565    -1.986    -1.856 -0.3081  0.3683  0.8772
     1 C(13)  Bbb     0.0061     0.819     0.292     0.273 -0.5620  0.6735 -0.4801
              Bcc     0.0354     4.746     1.693     1.583  0.7676  0.6409  0.0005
 
              Baa    -0.0415    -5.567    -1.986    -1.857  0.4730  0.0829  0.8772
     2 C(13)  Bbb     0.0061     0.822     0.293     0.274  0.8642  0.1501 -0.4802
              Bcc     0.0354     4.745     1.693     1.583 -0.1714  0.9852 -0.0006
 
              Baa    -0.4047   -15.610    -5.570    -5.207  0.7674  0.6411 -0.0001
     3 N(14)  Bbb    -0.4027   -15.533    -5.542    -5.181 -0.6315  0.7558 -0.1731
              Bcc     0.8075    31.143    11.112    10.388 -0.1109  0.1329  0.9849
 
              Baa    -0.4048   -15.611    -5.570    -5.207 -0.1726  0.9850  0.0002
     4 N(14)  Bbb    -0.4028   -15.533    -5.543    -5.181  0.9701  0.1700 -0.1729
              Bcc     0.8075    31.144    11.113    10.389  0.1704  0.0296  0.9849
 
              Baa    -0.0115    -1.542    -0.550    -0.514  0.9555  0.1598  0.2481
     5 C(13)  Bbb     0.0013     0.180     0.064     0.060 -0.2458  0.8962  0.3694
              Bcc     0.0102     1.362     0.486     0.454 -0.1633 -0.4140  0.8955
 
              Baa    -0.0046    -2.451    -0.875    -0.818 -0.6136 -0.2675  0.7430
     6 H(1)   Bbb    -0.0033    -1.756    -0.627    -0.586  0.7868 -0.2865  0.5466
              Bcc     0.0079     4.207     1.501     1.403  0.0666  0.9200  0.3863
 
              Baa    -0.0047    -2.530    -0.903    -0.844 -0.0072  0.3565  0.9343
     7 H(1)   Bbb    -0.0007    -0.385    -0.137    -0.128  0.8173  0.5404 -0.1999
              Bcc     0.0055     2.915     1.040     0.972 -0.5761  0.7622 -0.2953
 
              Baa    -0.0050    -2.670    -0.953    -0.891  0.2096  0.3607  0.9088
     8 H(1)   Bbb    -0.0024    -1.266    -0.452    -0.422  0.8866 -0.4620 -0.0211
              Bcc     0.0074     3.936     1.405     1.313  0.4122  0.8102 -0.4167
 
              Baa    -0.0115    -1.541    -0.550    -0.514  0.3272  0.9117 -0.2485
     9 C(13)  Bbb     0.0014     0.182     0.065     0.061  0.8381 -0.4014 -0.3695
              Bcc     0.0101     1.359     0.485     0.453  0.4366  0.0873  0.8954
 
              Baa    -0.0050    -2.670    -0.953    -0.890 -0.3916 -0.1399  0.9094
    10 H(1)   Bbb    -0.0024    -1.267    -0.452    -0.423 -0.2960  0.9550  0.0194
              Bcc     0.0074     3.937     1.405     1.313  0.8712  0.2616  0.4154
 
              Baa    -0.0046    -2.448    -0.874    -0.817  0.3733  0.5564  0.7423
    11 H(1)   Bbb    -0.0033    -1.757    -0.627    -0.586 -0.1417  0.8250 -0.5471
              Bcc     0.0079     4.205     1.500     1.403  0.9168 -0.0991 -0.3868
 
              Baa    -0.0047    -2.531    -0.903    -0.844 -0.3497  0.0707  0.9342
    12 H(1)   Bbb    -0.0007    -0.383    -0.137    -0.128  0.6770  0.7084  0.1998
              Bcc     0.0055     2.915     1.040     0.972 -0.6476  0.7023 -0.2956
 
              Baa    -0.0115    -1.541    -0.550    -0.514 -0.6263  0.7390  0.2483
    13 C(13)  Bbb     0.0014     0.183     0.065     0.061  0.7665  0.5255  0.3693
              Bcc     0.0101     1.358     0.485     0.453 -0.1424 -0.4216  0.8955
 
              Baa    -0.0046    -2.450    -0.874    -0.817  0.2952 -0.6009  0.7428
    14 H(1)   Bbb    -0.0033    -1.755    -0.626    -0.586  0.7859 -0.2895 -0.5464
              Bcc     0.0079     4.205     1.500     1.403  0.5434  0.7451  0.3868
 
              Baa    -0.0047    -2.530    -0.903    -0.844  0.2354  0.2674  0.9344
    15 H(1)   Bbb    -0.0007    -0.385    -0.137    -0.128 -0.2749  0.9405 -0.1999
              Bcc     0.0055     2.915     1.040     0.972  0.9322  0.2098 -0.2949
 
              Baa    -0.0050    -2.670    -0.953    -0.891  0.0732  0.4100  0.9091
    16 H(1)   Bbb    -0.0024    -1.268    -0.452    -0.423  0.9752 -0.2205  0.0209
              Bcc     0.0074     3.938     1.405     1.313  0.2090  0.8850 -0.4160
 
              Baa    -0.0115    -1.542    -0.550    -0.514  0.3392  0.9074 -0.2480
    17 C(13)  Bbb     0.0013     0.179     0.064     0.060  0.8987 -0.2347  0.3704
              Bcc     0.0102     1.363     0.486     0.455 -0.2779  0.3485  0.8952
 
              Baa    -0.0050    -2.670    -0.953    -0.891  0.2075 -0.3620  0.9088
    18 H(1)   Bbb    -0.0024    -1.266    -0.452    -0.422  0.8433  0.5371  0.0214
              Bcc     0.0074     3.936     1.404     1.313 -0.4958  0.7619  0.4168
 
              Baa    -0.0046    -2.451    -0.875    -0.818  0.0745  0.6645  0.7436
    19 H(1)   Bbb    -0.0033    -1.756    -0.627    -0.586  0.6416  0.5389 -0.5459
              Bcc     0.0079     4.207     1.501     1.403  0.7634 -0.5177  0.3862
 
              Baa    -0.0047    -2.530    -0.903    -0.844  0.3123 -0.1721  0.9343
    20 H(1)   Bbb    -0.0007    -0.385    -0.137    -0.128 -0.0597  0.9780  0.2001
              Bcc     0.0055     2.914     1.040     0.972  0.9481  0.1182 -0.2951
 
              Baa    -0.0415    -5.564    -1.985    -1.856 -0.1654 -0.4507  0.8772
    21 C(13)  Bbb     0.0061     0.818     0.292     0.273  0.3011  0.8239  0.4801
              Bcc     0.0354     4.746     1.693     1.583  0.9391 -0.3435  0.0006
 
              Baa    -0.4048   -15.611    -5.570    -5.207  0.9389 -0.3441 -0.0001
    22 N(14)  Bbb    -0.4028   -15.534    -5.543    -5.181  0.3389  0.9247  0.1731
              Bcc     0.8075    31.145    11.113    10.389 -0.0595 -0.1626  0.9849
 
              Baa    -0.0115    -1.542    -0.550    -0.514  0.9532  0.1730  0.2479
    23 C(13)  Bbb     0.0013     0.180     0.064     0.060 -0.0720  0.9264 -0.3696
              Bcc     0.0102     1.363     0.486     0.455 -0.2936  0.3344  0.8955
 
              Baa    -0.0046    -2.453    -0.875    -0.818 -0.6669  0.0440  0.7438
    24 H(1)   Bbb    -0.0033    -1.755    -0.626    -0.585  0.6439  0.5364  0.5456
              Bcc     0.0079     4.208     1.501     1.404 -0.3750  0.8428 -0.3860
 
              Baa    -0.0047    -2.528    -0.902    -0.843  0.1139 -0.3373  0.9345
    25 H(1)   Bbb    -0.0007    -0.387    -0.138    -0.129  0.9519 -0.2324 -0.1999
              Bcc     0.0055     2.915     1.040     0.972  0.2845  0.9123  0.2946
 
              Baa    -0.0050    -2.671    -0.953    -0.891  0.3212 -0.2677  0.9084
    26 H(1)   Bbb    -0.0024    -1.266    -0.452    -0.422  0.6776  0.7351 -0.0229
              Bcc     0.0074     3.937     1.405     1.313  0.6616 -0.6229 -0.4175
 
              Baa    -0.0115    -1.541    -0.550    -0.514 -0.6164  0.7473  0.2482
    27 C(13)  Bbb     0.0014     0.182     0.065     0.061  0.6528  0.6612 -0.3697
              Bcc     0.0101     1.359     0.485     0.453  0.4404  0.0659  0.8954
 
              Baa    -0.0050    -2.670    -0.953    -0.891 -0.4165  0.0001  0.9091
    28 H(1)   Bbb    -0.0024    -1.267    -0.452    -0.423 -0.0443  0.9988 -0.0204
              Bcc     0.0074     3.937     1.405     1.313  0.9080  0.0487  0.4160
 
              Baa    -0.0046    -2.449    -0.874    -0.817  0.5389 -0.3970  0.7429
    29 H(1)   Bbb    -0.0033    -1.756    -0.627    -0.586 -0.1459  0.8246  0.5465
              Bcc     0.0079     4.205     1.501     1.403  0.8296  0.4029 -0.3865
 
              Baa    -0.0047    -2.530    -0.903    -0.844 -0.3052 -0.1845  0.9342
    30 H(1)   Bbb    -0.0007    -0.385    -0.137    -0.128  0.8767 -0.4375  0.2000
              Bcc     0.0055     2.915     1.040     0.972  0.3718  0.8801  0.2953
 

 ---------------------------------------------------------------------------------

 No NMR shielding tensors so no spin-rotation constants.
 Leave Link  601 at Mon Jan 25 21:55:51 2021, MaxMem=  4026531840 cpu:               9.9 elap:               2.5
 (Enter /opt/ohpc/pub/libs/gaussian/g16-A.03/sandybridge/g16/l9999.exe)

 Test job not archived.
 1\1\GINC-CNODE237\SP\ULC-wHPBE\TZVP\C9H18N3(2+,2)\RDU230\25-Jan-2021\0
 \\#P LC-wHPBE/TZVP iop(3/107=0247700000, 3/108=0247700000) scf=(conver
 =6,fermi,ndamp=35,noincfock,novaracc,vshift=500,xqc)\\H18 C9 N3\\2,2\C
 ,0,-0.610862,0.51088,0.000115\C,0,-0.136805,-0.784324,0.000118\N,0,-1.
 625284,1.358829,0.000149\N,0,-0.364248,-2.086765,0.000256\C,0,-1.43024
 7,2.779535,-0.245115\H,0,-1.514482,3.356239,0.681778\H,0,-0.453085,2.9
 53583,-0.69457\H,0,-2.189123,3.132424,-0.948067\C,0,-2.988895,0.914734
 ,0.244915\H,0,-3.47163,1.599951,0.946347\H,0,-3.570653,0.893667,-0.682
 419\H,0,-2.986873,-0.077069,0.695991\C,0,0.701968,-3.045906,0.244739\H
 ,0,1.009895,-3.54009,-0.68252\H,0,1.56061,-2.548225,0.694397\H,0,0.350
 361,-3.805818,0.947208\C,0,-1.692259,-2.627901,-0.244928\H,0,-1.618712
 ,-3.461412,-0.948079\H,0,-2.149477,-2.989362,0.681963\H,0,-2.331523,-1
 .86843,-0.69401\C,0,0.747831,0.27381,0.000062\N,0,1.989493,0.728067,-0
 .000089\C,0,2.287295,2.130832,0.245062\H,0,2.563599,2.644356,-0.681638
 \H,0,1.426241,2.626112,0.692731\H,0,3.119706,2.205914,0.949371\C,0,3.1
 22069,-0.151615,-0.24503\H,0,3.807758,0.3292,-0.947323\H,0,3.663007,-0
 .367678,0.682084\H,0,2.784087,-1.084552,-0.695089\\Version=EM64L-G16Re
 vA.03\State=2-A\HF=-517.0781387\S2=0.776897\S2-1=0.\S2A=0.750449\RMSD=
 6.461e-07\Dipole=0.0000337,-0.0000172,-0.0002427\Quadrupole=12.13179,1
 2.1259128,-24.2577028,0.000176,0.0010052,0.0006247\PG=C01 [X(C9H18N3)]
 \\@


  DISAPPOINTMENT IS THE NURSE OF WISDOM.               
                              SIR BOYLE ROCHE                 
 Job cpu time:       0 days  0 hours 30 minutes 25.1 seconds.
 Elapsed time:       0 days  0 hours  3 minutes 50.9 seconds.
 File lengths (MBytes):  RWF=    112 Int=      0 D2E=      0 Chk=     16 Scr=      8
 Normal termination of Gaussian 16 at Mon Jan 25 21:55:51 2021.
