 Entering Gaussian System, Link 0=g16
 Input=mol_NN_cp_frag_tune_c4.gjf
 Output=mol_NN_cp_frag_tune_c4.log
 Initial command:
 /opt/ohpc/pub/libs/gaussian/g16-A.03/sandybridge/g16/l1.exe "/mnt/gpfs2_4m/scratch/rdu230/ondemand/projects/init_structures/gaussian/wtuning/mol_NN_cp_frag/tuning_mol_NN_cp_frag_ocycle0/Gau-16122.inp" -scrdir="/mnt/gpfs2_4m/scratch/rdu230/ondemand/projects/init_structures/gaussian/wtuning/mol_NN_cp_frag/tuning_mol_NN_cp_frag_ocycle0/"
 Entering Link 1 = /opt/ohpc/pub/libs/gaussian/g16-A.03/sandybridge/g16/l1.exe PID=     16123.
  
 Copyright (c) 1988,1990,1992,1993,1995,1998,2003,2009,2016,
            Gaussian, Inc.  All Rights Reserved.
  
 This is part of the Gaussian(R) 16 program.  It is based on
 the Gaussian(R) 09 system (copyright 2009, Gaussian, Inc.),
 the Gaussian(R) 03 system (copyright 2003, Gaussian, Inc.),
 the Gaussian(R) 98 system (copyright 1998, Gaussian, Inc.),
 the Gaussian(R) 94 system (copyright 1995, Gaussian, Inc.),
 the Gaussian 92(TM) system (copyright 1992, Gaussian, Inc.),
 the Gaussian 90(TM) system (copyright 1990, Gaussian, Inc.),
 the Gaussian 88(TM) system (copyright 1988, Gaussian, Inc.),
 the Gaussian 86(TM) system (copyright 1986, Carnegie Mellon
 University), and the Gaussian 82(TM) system (copyright 1983,
 Carnegie Mellon University). Gaussian is a federally registered
 trademark of Gaussian, Inc.
  
 This software contains proprietary and confidential information,
 including trade secrets, belonging to Gaussian, Inc.
  
 This software is provided under written license and may be
 used, copied, transmitted, or stored only in accord with that
 written license.
  
 The following legend is applicable only to US Government
 contracts under FAR:
  
                    RESTRICTED RIGHTS LEGEND
  
 Use, reproduction and disclosure by the US Government is
 subject to restrictions as set forth in subparagraphs (a)
 and (c) of the Commercial Computer Software - Restricted
 Rights clause in FAR 52.227-19.
  
 Gaussian, Inc.
 340 Quinnipiac St., Bldg. 40, Wallingford CT 06492
  
  
 ---------------------------------------------------------------
 Warning -- This program may not be used in any manner that
 competes with the business of Gaussian, Inc. or will provide
 assistance to any competitor of Gaussian, Inc.  The licensee
 of this program is prohibited from giving any competitor of
 Gaussian, Inc. access to this program.  By using this program,
 the user acknowledges that Gaussian, Inc. is engaged in the
 business of creating and licensing software in the field of
 computational chemistry and represents and warrants to the
 licensee that it is not a competitor of Gaussian, Inc. and that
 it will not use this program in any manner prohibited above.
 ---------------------------------------------------------------
  

 Cite this work as:
 Gaussian 16, Revision A.03,
 M. J. Frisch, G. W. Trucks, H. B. Schlegel, G. E. Scuseria, 
 M. A. Robb, J. R. Cheeseman, G. Scalmani, V. Barone, 
 G. A. Petersson, H. Nakatsuji, X. Li, M. Caricato, A. V. Marenich, 
 J. Bloino, B. G. Janesko, R. Gomperts, B. Mennucci, H. P. Hratchian, 
 J. V. Ortiz, A. F. Izmaylov, J. L. Sonnenberg, D. Williams-Young, 
 F. Ding, F. Lipparini, F. Egidi, J. Goings, B. Peng, A. Petrone, 
 T. Henderson, D. Ranasinghe, V. G. Zakrzewski, J. Gao, N. Rega, 
 G. Zheng, W. Liang, M. Hada, M. Ehara, K. Toyota, R. Fukuda, 
 J. Hasegawa, M. Ishida, T. Nakajima, Y. Honda, O. Kitao, H. Nakai, 
 T. Vreven, K. Throssell, J. A. Montgomery, Jr., J. E. Peralta, 
 F. Ogliaro, M. J. Bearpark, J. J. Heyd, E. N. Brothers, K. N. Kudin, 
 V. N. Staroverov, T. A. Keith, R. Kobayashi, J. Normand, 
 K. Raghavachari, A. P. Rendell, J. C. Burant, S. S. Iyengar, 
 J. Tomasi, M. Cossi, J. M. Millam, M. Klene, C. Adamo, R. Cammi, 
 J. W. Ochterski, R. L. Martin, K. Morokuma, O. Farkas, 
 J. B. Foresman, and D. J. Fox, Gaussian, Inc., Wallingford CT, 2016.
 
 ******************************************
 Gaussian 16:  EM64L-G16RevA.03 25-Dec-2016
                25-Jan-2021 
 ******************************************
 %mem=30GB
 %nproc=8
 Will use up to    8 processors via shared memory.
 ----------------------------------------------------------------------
 #P LC-wHPBE/TZVP iop(3/107=0260400000, 3/108=0260400000) scf=(conver=6
 ,fermi,ndamp=35,noincfock,novaracc,vshift=500,xqc)
 ----------------------------------------------------------------------
 1/38=1,172=1/1;
 2/12=2,17=6,18=5,40=1/2;
 3/5=19,7=101,11=2,25=1,30=1,74=-71,107=260400000,108=260400000/1,2,3;
 4//1;
 5/5=100002,6=6,8=3,10=500,13=1,18=-1,22=13,38=1,93=35/2,8;
 6/7=2,8=2,9=2,10=2,28=1/1;
 99/5=1,9=1/99;
 Leave Link    1 at Mon Jan 25 21:21:56 2021, MaxMem=  4026531840 cpu:               1.4 elap:               0.2
 (Enter /opt/ohpc/pub/libs/gaussian/g16-A.03/sandybridge/g16/l101.exe)
 ---------
 H18 C9 N3
 ---------
 Symbolic Z-matrix:
 Charge =  2 Multiplicity = 2
 C                    -0.61086   0.51088   0.00012 
 C                    -0.13681  -0.78432   0.00012 
 N                    -1.62528   1.35883   0.00015 
 N                    -0.36425  -2.08677   0.00026 
 C                    -1.43025   2.77954  -0.24512 
 H                    -1.51448   3.35624   0.68178 
 H                    -0.45309   2.95358  -0.69457 
 H                    -2.18912   3.13242  -0.94807 
 C                    -2.9889    0.91473   0.24492 
 H                    -3.47163   1.59995   0.94635 
 H                    -3.57065   0.89367  -0.68242 
 H                    -2.98687  -0.07707   0.69599 
 C                     0.70197  -3.04591   0.24474 
 H                     1.00989  -3.54009  -0.68252 
 H                     1.56061  -2.54823   0.6944 
 H                     0.35036  -3.80582   0.94721 
 C                    -1.69226  -2.6279   -0.24493 
 H                    -1.61871  -3.46141  -0.94808 
 H                    -2.14948  -2.98936   0.68196 
 H                    -2.33152  -1.86843  -0.69401 
 C                     0.74783   0.27381   0.00006 
 N                     1.98949   0.72807  -0.00009 
 C                     2.2873    2.13083   0.24506 
 H                     2.5636    2.64436  -0.68164 
 H                     1.42624   2.62611   0.69273 
 H                     3.11971   2.20591   0.94937 
 C                     3.12207  -0.15162  -0.24503 
 H                     3.80776   0.3292   -0.94732 
 H                     3.66301  -0.36768   0.68208 
 H                     2.78409  -1.08455  -0.69509 
 
 ITRead=  0  0  0  0  0  0  0  0  0  0  0  0  0  0  0  0  0  0  0  0
 ITRead=  0  0  0  0  0  0  0  0  0  0
 MicOpt= -1 -1 -1 -1 -1 -1 -1 -1 -1 -1 -1 -1 -1 -1 -1 -1 -1 -1 -1 -1
 MicOpt= -1 -1 -1 -1 -1 -1 -1 -1 -1 -1
 NAtoms=     30 NQM=       30 NQMF=       0 NMMI=      0 NMMIF=      0
                NMic=       0 NMicF=      0.
                    Isotopes and Nuclear Properties:
 (Nuclear quadrupole moments (NQMom) in fm**2, nuclear magnetic moments (NMagM)
  in nuclear magnetons)

  Atom         1           2           3           4           5           6           7           8           9          10
 IAtWgt=          12          12          14          14          12           1           1           1          12           1
 AtmWgt=  12.0000000  12.0000000  14.0030740  14.0030740  12.0000000   1.0078250   1.0078250   1.0078250  12.0000000   1.0078250
 NucSpn=           0           0           2           2           0           1           1           1           0           1
 AtZEff=  -0.0000000  -0.0000000  -0.0000000  -0.0000000  -0.0000000  -0.0000000  -0.0000000  -0.0000000  -0.0000000  -0.0000000
 NQMom=    0.0000000   0.0000000   2.0440000   2.0440000   0.0000000   0.0000000   0.0000000   0.0000000   0.0000000   0.0000000
 NMagM=    0.0000000   0.0000000   0.4037610   0.4037610   0.0000000   2.7928460   2.7928460   2.7928460   0.0000000   2.7928460
 AtZNuc=   6.0000000   6.0000000   7.0000000   7.0000000   6.0000000   1.0000000   1.0000000   1.0000000   6.0000000   1.0000000

  Atom        11          12          13          14          15          16          17          18          19          20
 IAtWgt=           1           1          12           1           1           1          12           1           1           1
 AtmWgt=   1.0078250   1.0078250  12.0000000   1.0078250   1.0078250   1.0078250  12.0000000   1.0078250   1.0078250   1.0078250
 NucSpn=           1           1           0           1           1           1           0           1           1           1
 AtZEff=  -0.0000000  -0.0000000  -0.0000000  -0.0000000  -0.0000000  -0.0000000  -0.0000000  -0.0000000  -0.0000000  -0.0000000
 NQMom=    0.0000000   0.0000000   0.0000000   0.0000000   0.0000000   0.0000000   0.0000000   0.0000000   0.0000000   0.0000000
 NMagM=    2.7928460   2.7928460   0.0000000   2.7928460   2.7928460   2.7928460   0.0000000   2.7928460   2.7928460   2.7928460
 AtZNuc=   1.0000000   1.0000000   6.0000000   1.0000000   1.0000000   1.0000000   6.0000000   1.0000000   1.0000000   1.0000000

  Atom        21          22          23          24          25          26          27          28          29          30
 IAtWgt=          12          14          12           1           1           1          12           1           1           1
 AtmWgt=  12.0000000  14.0030740  12.0000000   1.0078250   1.0078250   1.0078250  12.0000000   1.0078250   1.0078250   1.0078250
 NucSpn=           0           2           0           1           1           1           0           1           1           1
 AtZEff=  -0.0000000  -0.0000000  -0.0000000  -0.0000000  -0.0000000  -0.0000000  -0.0000000  -0.0000000  -0.0000000  -0.0000000
 NQMom=    0.0000000   2.0440000   0.0000000   0.0000000   0.0000000   0.0000000   0.0000000   0.0000000   0.0000000   0.0000000
 NMagM=    0.0000000   0.4037610   0.0000000   2.7928460   2.7928460   2.7928460   0.0000000   2.7928460   2.7928460   2.7928460
 AtZNuc=   6.0000000   7.0000000   6.0000000   1.0000000   1.0000000   1.0000000   6.0000000   1.0000000   1.0000000   1.0000000
 Leave Link  101 at Mon Jan 25 21:21:56 2021, MaxMem=  4026531840 cpu:               0.6 elap:               0.1
 (Enter /opt/ohpc/pub/libs/gaussian/g16-A.03/sandybridge/g16/l202.exe)
                          Input orientation:                          
 ---------------------------------------------------------------------
 Center     Atomic      Atomic             Coordinates (Angstroms)
 Number     Number       Type             X           Y           Z
 ---------------------------------------------------------------------
      1          6           0       -0.610862    0.510880    0.000115
      2          6           0       -0.136805   -0.784324    0.000118
      3          7           0       -1.625284    1.358829    0.000149
      4          7           0       -0.364248   -2.086765    0.000256
      5          6           0       -1.430247    2.779535   -0.245115
      6          1           0       -1.514482    3.356239    0.681778
      7          1           0       -0.453085    2.953583   -0.694570
      8          1           0       -2.189123    3.132424   -0.948067
      9          6           0       -2.988895    0.914734    0.244915
     10          1           0       -3.471630    1.599951    0.946347
     11          1           0       -3.570653    0.893667   -0.682419
     12          1           0       -2.986873   -0.077069    0.695991
     13          6           0        0.701968   -3.045906    0.244739
     14          1           0        1.009895   -3.540090   -0.682520
     15          1           0        1.560610   -2.548225    0.694397
     16          1           0        0.350361   -3.805818    0.947208
     17          6           0       -1.692259   -2.627901   -0.244928
     18          1           0       -1.618712   -3.461412   -0.948079
     19          1           0       -2.149477   -2.989362    0.681963
     20          1           0       -2.331523   -1.868430   -0.694010
     21          6           0        0.747831    0.273810    0.000062
     22          7           0        1.989493    0.728067   -0.000089
     23          6           0        2.287295    2.130832    0.245062
     24          1           0        2.563599    2.644356   -0.681638
     25          1           0        1.426241    2.626112    0.692731
     26          1           0        3.119706    2.205914    0.949371
     27          6           0        3.122069   -0.151615   -0.245030
     28          1           0        3.807758    0.329200   -0.947323
     29          1           0        3.663007   -0.367678    0.682084
     30          1           0        2.784087   -1.084552   -0.695089
 ---------------------------------------------------------------------
                    Distance matrix (angstroms):
                    1          2          3          4          5
     1  C    0.000000
     2  C    1.379233   0.000000
     3  N    1.322146   2.609344   0.000000
     4  N    2.609325   1.322151   3.669105   0.000000
     5  C    2.424526   3.799240   1.454854   4.987729   0.000000
     6  H    3.062231   4.416663   2.113419   5.604802   1.094903
     7  H    2.544460   3.815046   2.097600   5.088790   1.089563
     8  H    3.203506   4.522386   2.088700   5.609761   1.092962
     9  C    2.424472   3.328835   1.454842   3.994700   2.479314
    10  H    3.203970   4.207276   2.088642   4.913531   2.641637
    11  H    3.061493   3.882373   2.113465   4.430582   2.886013
    12  H    2.544672   3.017836   2.097600   3.376550   3.386584
    13  C    3.799222   2.424486   4.987747   1.454833   6.222705
    14  H    4.416243   3.061889   5.604428   2.113435   6.788466
    15  H    3.815159   2.544521   5.088907   2.097583   6.181661
    16  H    4.522700   3.203707   5.610140   2.088666   6.925249
    17  C    3.328875   2.424512   3.994817   1.454839   5.413780
    18  H    4.206416   3.203424   4.912627   2.088701   6.283239
    19  H    3.883806   3.062344   4.432428   2.113397   5.887014
    20  H    3.017217   2.544383   3.375771   2.097581   4.755774
    21  C    1.379220   1.379213   2.609395   2.609413   3.329083
    22  N    2.609409   2.609304   3.669397   3.669247   3.995395
    23  C    3.329198   3.799262   3.995528   4.987859   3.805418
    24  H    3.885062   4.417332   4.434428   5.605424   4.019904
    25  H    3.017236   3.814957   3.376016   5.088868   3.010418
    26  H    4.206110   4.521888   4.912586   5.609443   4.738978
    27  C    3.799180   3.328765   4.987877   3.994919   5.414353
    28  H    4.522704   4.206799   5.610328   4.913291   5.825284
    29  H    4.416209   3.882943   5.604631   4.431584   6.058538
    30  H    3.815022   3.017459   5.088813   3.376381   5.735351
                    6          7          8          9         10
     6  H    0.000000
     7  H    1.784105   0.000000
     8  H    1.778097   1.763540   0.000000
     9  C    2.885427   3.386720   2.642156   0.000000
    10  H    2.642910   3.692769   2.753562   1.092960   0.000000
    11  H    3.486134   3.736661   2.644093   1.094913   1.778067
    12  H    3.735738   4.187910   3.693261   1.089563   1.763537
    13  C    6.789044   6.181449   6.924807   5.413792   6.284518
    14  H    7.469481   6.656444   7.404504   6.057715   7.011226
    15  H    6.657255   6.021137   7.001997   5.735165   6.526430
    16  H    7.405616   7.002176   7.627598   5.824728   6.620420
    17  C    6.058079   5.735041   5.824313   3.804139   4.739201
    18  H    7.010539   6.524961   6.618462   4.738279   5.713103
    19  H    6.377293   6.331760   6.335206   4.017163   4.783281
    20  H    5.464203   5.174972   5.009328   3.009937   4.002534
    21  C    3.883834   3.017598   4.206700   3.799192   4.523047
    22  N    4.432840   3.376598   4.913291   4.987907   5.610685
    23  C    4.018190   3.011563   4.739732   5.414524   5.825706
    24  H    4.358489   3.032519   4.785140   5.888997   6.337595
    25  H    3.030026   2.358751   4.002428   4.756341   5.010635
    26  H    4.782317   4.003297   5.713349   6.283185   6.619132
    27  C    5.887412   4.756687   6.283943   6.222622   6.925621
    28  H    6.335864   5.010594   6.619717   6.925227   7.628256
    29  H    6.377613   5.465177   7.011101   6.788483   7.405703
    30  H    6.331989   5.175502   6.525312   6.181268   7.002490
                   11         12         13         14         15
    11  H    0.000000
    12  H    1.784136   0.000000
    13  C    5.885163   4.756592   0.000000
    14  H    6.374921   5.465067   1.094918   0.000000
    15  H    6.330253   5.175540   1.089562   1.784092   0.000000
    16  H    6.333656   5.010370   1.092958   1.778092   1.763563
    17  C    4.015122   3.011328   2.479279   2.885344   3.386715
    18  H    4.779891   4.003574   2.642161   2.643158   3.693200
    19  H    4.354216   3.030327   2.885325   3.485218   3.736242
    20  H    3.027335   2.360204   3.386704   3.736262   4.187899
    21  C    4.415802   3.815160   3.329037   3.883353   3.017713
    22  N    5.604304   5.088909   3.995064   4.431985   3.376439
    23  C    6.058577   5.735417   5.414045   5.886554   4.756422
    24  H    6.379182   6.333384   6.058294   6.376627   5.464646
    25  H    5.464554   5.175208   5.735596   6.331406   5.176082
    26  H    7.010395   6.524302   5.824395   6.334898   5.009753
    27  C    6.787964   6.181444   3.804429   4.016770   3.010717
    28  H    7.404711   7.002324   4.739017   4.782213   4.003060
    29  H    7.468514   6.656242   4.016457   4.354922   3.029028
    30  H    6.655541   6.021138   3.010881   3.029452   2.360065
                   16         17         18         19         20
    16  H    0.000000
    17  C    2.642153   0.000000
    18  H    2.754628   1.092964   0.000000
    19  H    2.643132   1.094911   1.778083   0.000000
    20  H    3.693179   1.089555   1.763588   1.784077   0.000000
    21  C    4.206951   3.799209   4.522320   4.416749   3.814885
    22  N    4.913272   4.987762   5.609774   5.604957   5.088664
    23  C    6.283990   6.222739   6.924859   6.789125   6.181378
    24  H    7.011156   6.789679   7.405614   7.470694   6.657898
    25  H    6.526255   6.181335   7.001567   6.657283   6.020361
    26  H    6.618927   6.924386   7.627025   7.404505   7.001205
    27  C    4.738881   5.413848   5.824435   6.058162   5.735042
    28  H    5.713249   6.283947   6.619314   7.011139   6.525681
    29  H    4.781707   5.886156   6.334444   6.376378   6.330899
    30  H    4.003180   4.756285   5.009801   5.464854   5.175319
                   21         22         23         24         25
    21  C    0.000000
    22  N    1.322147   0.000000
    23  C    2.424563   1.454831   0.000000
    24  H    3.062877   2.113355   1.094908   0.000000
    25  H    2.544279   2.097577   1.089552   1.784042   0.000000
    26  H    3.203124   2.088753   1.092976   1.778110   1.763591
    27  C    2.424472   1.454842   2.479234   2.884436   3.386886
    28  H    3.203710   2.088644   2.641868   2.641679   3.692859
    29  H    3.061848   2.113449   2.885502   3.484363   3.737113
    30  H    2.544547   2.097616   3.386647   3.735445   4.187937
                   26         27         28         29         30
    26  H    0.000000
    27  C    2.642828   0.000000
    28  H    2.755525   1.092963   0.000000
    29  H    2.643860   1.094914   1.778077   0.000000
    30  H    3.693786   1.089567   1.763581   1.784100   0.000000
 Stoichiometry    C9H18N3(2+,2)
 Framework group  C1[X(C9H18N3)]
 Deg. of freedom    84
 Full point group                 C1      NOp   1
 Largest Abelian subgroup         C1      NOp   1
 Largest concise Abelian subgroup C1      NOp   1
                         Standard orientation:                         
 ---------------------------------------------------------------------
 Center     Atomic      Atomic             Coordinates (Angstroms)
 Number     Number       Type             X           Y           Z
 ---------------------------------------------------------------------
      1          6           0       -0.610975   -0.510745   -0.000115
      2          6           0       -0.136632    0.784354   -0.000118
      3          7           0       -1.625585   -1.358470   -0.000149
      4          7           0       -0.363786    2.086845   -0.000256
      5          6           0       -1.430862   -2.779219    0.245115
      6          1           0       -1.515224   -3.355904   -0.681778
      7          1           0       -0.453738   -2.953483    0.694570
      8          1           0       -2.189816   -3.131940    0.948067
      9          6           0       -2.989097   -0.914073   -0.244915
     10          1           0       -3.471984   -1.599183   -0.946347
     11          1           0       -3.570851   -0.892877    0.682419
     12          1           0       -2.986856    0.077730   -0.695991
     13          6           0        0.702642    3.045751   -0.244739
     14          1           0        1.010678    3.539867    0.682520
     15          1           0        1.561174    2.547880   -0.694397
     16          1           0        0.351203    3.805740   -0.947208
     17          6           0       -1.691678    2.628275    0.244928
     18          1           0       -1.617946    3.461770    0.948079
     19          1           0       -2.148816    2.989837   -0.681963
     20          1           0       -2.331110    1.868946    0.694010
     21          6           0        0.747770   -0.273975   -0.000062
     22          7           0        1.989332   -0.728507    0.000089
     23          6           0        2.286824   -2.131338   -0.245062
     24          1           0        2.563014   -2.644923    0.681638
     25          1           0        1.425660   -2.626427   -0.692731
     26          1           0        3.119218   -2.206604   -0.949371
     27          6           0        3.122102    0.150924    0.245030
     28          1           0        3.807685   -0.330042    0.947323
     29          1           0        3.663088    0.366868   -0.682084
     30          1           0        2.784327    1.083936    0.695089
 ---------------------------------------------------------------------
 Rotational constants (GHZ):           0.8639071           0.8637633           0.4436577
 Leave Link  202 at Mon Jan 25 21:21:56 2021, MaxMem=  4026531840 cpu:               0.4 elap:               0.1
 (Enter /opt/ohpc/pub/libs/gaussian/g16-A.03/sandybridge/g16/l301.exe)
 Standard basis: TZVP (5D, 7F)
 Ernie: Thresh=  0.10000D-02 Tol=  0.10000D-05 Strict=F.
 There are   348 symmetry adapted cartesian basis functions of A   symmetry.
 There are   336 symmetry adapted basis functions of A   symmetry.
   336 basis functions,   564 primitive gaussians,   348 cartesian basis functions
    46 alpha electrons       45 beta electrons
       nuclear repulsion energy       740.7629817128 Hartrees.
 IExCor=33909 DFT=T Ex+Corr=LC-wHPBE ExCW=0 ScaHFX=  1.000000
 ScaDFX=  1.000000  1.000000  1.000000  1.000000 ScalE2=  1.000000  1.000000
 IRadAn=      5 IRanWt=     -1 IRanGd=            0 ICorTp=0 IEmpDi=  4
 HFx  wShort=  0.000000 wLong=  0.260400 cFull=  0.000000 cShort=  0.000000 cLong=  1.000000
 DFx  wShort=  0.000000 wLong=  0.260400 cFull=  0.000000 cShort=  1.000000 cLong=  0.000000
 NAtoms=   30 NActive=   30 NUniq=   30 SFac= 1.00D+00 NAtFMM=   60 NAOKFM=F Big=F
 Integral buffers will be    131072 words long.
 Raffenetti 2 integral format.
 Two-electron integral symmetry is turned on.
 Leave Link  301 at Mon Jan 25 21:21:56 2021, MaxMem=  4026531840 cpu:               0.4 elap:               0.1
 (Enter /opt/ohpc/pub/libs/gaussian/g16-A.03/sandybridge/g16/l302.exe)
 NPDir=0 NMtPBC=     1 NCelOv=     1 NCel=       1 NClECP=     1 NCelD=      1
         NCelK=      1 NCelE2=     1 NClLst=     1 CellRange=     0.0.
 One-electron integrals computed using PRISM.
 One-electron integral symmetry used in STVInt
 NBasis=   336 RedAO= T EigKep=  2.74D-05  NBF=   336
 NBsUse=   336 1.00D-06 EigRej= -1.00D+00 NBFU=   336
 Precomputing XC quadrature grid using
 IXCGrd= 4 IRadAn=           5 IRanWt=          -1 IRanGd=           0 AccXCQ= 0.00D+00.
 Generated NRdTot=       0 NPtTot=           0 NUsed=           0 NTot=          32
 NSgBfM=   343   343   343   343   343 MxSgAt=    30 MxSgA2=    30.
 Leave Link  302 at Mon Jan 25 21:21:56 2021, MaxMem=  4026531840 cpu:               3.8 elap:               0.5
 (Enter /opt/ohpc/pub/libs/gaussian/g16-A.03/sandybridge/g16/l303.exe)
 DipDrv:  MaxL=1.
 Leave Link  303 at Mon Jan 25 21:21:57 2021, MaxMem=  4026531840 cpu:               1.5 elap:               0.3
 (Enter /opt/ohpc/pub/libs/gaussian/g16-A.03/sandybridge/g16/l401.exe)
 ExpMin= 9.52D-02 ExpMax= 1.97D+04 ExpMxC= 6.73D+02 IAcc=3 IRadAn=         5 AccDes= 0.00D+00
 Harris functional with IExCor=33909 and IRadAn=       5 diagonalized for initial guess.
 HarFok:  IExCor=33909 AccDes= 0.00D+00 IRadAn=         5 IDoV= 1 UseB2=F ITyADJ=14
 ICtDFT=  3500011 ScaDFX=  1.000000  1.000000  1.000000  1.000000
 FoFCou: FMM=F IPFlag=           0 FMFlag=      100000 FMFlg1=           0
         NFxFlg=           0 DoJE=T BraDBF=F KetDBF=T FulRan=T
         wScrn=  0.000000 ICntrl=       500 IOpCl=  0 I1Cent=   200000004 NGrid=           0
         NMat0=    1 NMatS0=      1 NMatT0=    0 NMatD0=    1 NMtDS0=    0 NMtDT0=    0
 Petite list used in FoFCou.
 Harris En= -504.880577879832    
 JPrj=0 DoOrth=F DoCkMO=F.
 Initial guess <Sx>= 0.0000 <Sy>= 0.0000 <Sz>= 0.5000 <S**2>= 0.7500 S= 0.5000
 Leave Link  401 at Mon Jan 25 21:22:00 2021, MaxMem=  4026531840 cpu:              24.3 elap:               3.1
 (Enter /opt/ohpc/pub/libs/gaussian/g16-A.03/sandybridge/g16/l502.exe)
 Integral symmetry usage will be decided dynamically.
 UHF open shell SCF:
 Using DIIS extrapolation, IDIIS=    10.
 NGot=  4026531840 LenX=  4026283142 LenY=  4026161597
 Requested convergence on RMS density matrix=1.00D-06 within  32 cycles.
 Requested convergence on MAX density matrix=1.00D-04.
 Requested convergence on             energy=1.00D-04.
 Virtual orbitals will be shifted by   0.500 hartree.
 No special actions if energy rises.
 Dynamic level shift is on during FON iterations.

 Cycle   1  Pass 1  IDiag  1:
 FoFJK:  IHMeth= 1 ICntrl=       0 DoSepK=T KAlg= 0 I1Cent=           0 FoldK=F
 IRaf=         1 NMat=       1 IRICut=       1 DoRegI=T DoRafI=F ISym2E= 0 IDoP0=0 IntGTp=1.
 FoFCou: FMM=F IPFlag=           0 FMFlag=      100000 FMFlg1=           0
         NFxFlg=           0 DoJE=T BraDBF=F KetDBF=F FulRan=T
         wScrn=  0.000000 ICntrl=       500 IOpCl=  0 I1Cent=           0 NGrid=           0
         NMat0=    1 NMatS0=      1 NMatT0=    0 NMatD0=    1 NMtDS0=    0 NMtDT0=    0
 Symmetry not used in FoFCou.
 E= -516.917609840665    
 DIIS: error= 2.64D-02 at cycle   1 NSaved=   1.
 NSaved= 1 IEnMin= 1 EnMin= -516.917609840665     IErMin= 1 ErrMin= 2.64D-02
 ErrMax= 2.64D-02  0.00D+00 EMaxC= 1.00D+00 BMatC= 7.67D-01 BMatP= 7.67D-01
 IDIUse=1 WtCom= 1.00D+00 WtEn= 0.00D+00
 Coeff-Com:  0.100D+01
 Coeff:      0.100D+01
 Gap=     0.461 Goal=   None    Shift=    0.500
 T= 1420. Gap= 0.854 NK=0 IS=   47 IE=  336 IFin=   46
          NO(<0.9)=   0  NV(>0.1)=   0     46.00e < EF      0.00e >EF  Err=0.0D+00
 Gap=     0.247 Goal=   None    Shift=    0.500
 T= 1420. Gap= 0.713 NK=0 IS=   46 IE=  336 IFin=   45
          NO(<0.9)=   0  NV(>0.1)=   0     45.00e < EF      0.00e >EF  Err=0.0D+00
 GapD=    0.247 DampG=1.000 DampE=0.500 DampFc=0.5000 IDamp=-1.
 Damping current iteration by 5.00D-01
 RMSDP=2.75D-03 MaxDP=1.62D-01              OVMax= 6.27D-02

 Cycle   2  Pass 1  IDiag  1:
 E= -517.020231692506     Delta-E=       -0.102621851841 Rises=F Damp=T
 DIIS: error= 1.04D-02 at cycle   2 NSaved=   2.
 NSaved= 2 IEnMin= 2 EnMin= -517.020231692506     IErMin= 2 ErrMin= 1.04D-02
 ErrMax= 1.04D-02  0.00D+00 EMaxC= 1.00D+00 BMatC= 1.30D-01 BMatP= 7.67D-01
 IDIUse=1 WtCom= 1.00D+00 WtEn= 0.00D+00
 Coeff-Com: -0.553D+00 0.155D+01
 Coeff:     -0.553D+00 0.155D+01
 Gap=     0.381 Goal=   None    Shift=    0.500
 T= 1284. Gap= 0.869 NK=0 IS=   47 IE=  336 IFin=   46
          NO(<0.9)=   0  NV(>0.1)=   0     46.00e < EF      0.00e >EF  Err=0.0D+00
 Gap=     0.264 Goal=   None    Shift=    0.500
 T= 1284. Gap= 0.751 NK=0 IS=   46 IE=  336 IFin=   45
          NO(<0.9)=   0  NV(>0.1)=   0     45.00e < EF      0.00e >EF  Err=0.0D+00
 GapD=    0.264 DampG=1.000 DampE=0.500 DampFc=0.5000 IDamp=-1.
 Damping current iteration by 5.00D-01
 RMSDP=1.96D-03 MaxDP=1.31D-01 DE=-1.03D-01 OVMax= 1.88D-02

 Cycle   3  Pass 1  IDiag  1:
 E= -517.055953041774     Delta-E=       -0.035721349268 Rises=F Damp=T
 DIIS: error= 4.52D-03 at cycle   3 NSaved=   3.
 NSaved= 3 IEnMin= 3 EnMin= -517.055953041774     IErMin= 3 ErrMin= 4.52D-03
 ErrMax= 4.52D-03  0.00D+00 EMaxC= 1.00D+00 BMatC= 2.72D-02 BMatP= 1.30D-01
 IDIUse=1 WtCom= 1.00D+00 WtEn= 0.00D+00
 Coeff-Com:  0.736D-01-0.101D+01 0.194D+01
 Coeff:      0.736D-01-0.101D+01 0.194D+01
 Gap=     0.381 Goal=   None    Shift=    0.500
 T= 1029. Gap= 0.881 NK=0 IS=   47 IE=  336 IFin=   46
          NO(<0.9)=   0  NV(>0.1)=   0     46.00e < EF      0.00e >EF  Err=0.0D+00
 Gap=     0.251 Goal=   None    Shift=    0.500
 T= 1029. Gap= 0.751 NK=0 IS=   46 IE=  336 IFin=   45
          NO(<0.9)=   0  NV(>0.1)=   0     45.00e < EF      0.00e >EF  Err=0.0D+00
 GapD=    0.251 DampG=1.000 DampE=1.000 DampFc=1.0000 IDamp=-1.
 RMSDP=1.12D-03 MaxDP=7.11D-02 DE=-3.57D-02 OVMax= 7.88D-03

 Cycle   4  Pass 1  IDiag  1:
 E= -517.087141999358     Delta-E=       -0.031188957584 Rises=F Damp=F
 DIIS: error= 1.63D-03 at cycle   4 NSaved=   4.
 NSaved= 4 IEnMin= 4 EnMin= -517.087141999358     IErMin= 4 ErrMin= 1.63D-03
 ErrMax= 1.63D-03  0.00D+00 EMaxC= 1.00D+00 BMatC= 1.05D-03 BMatP= 2.72D-02
 IDIUse=1 WtCom= 1.00D+00 WtEn= 0.00D+00
 Coeff-Com:  0.675D-01-0.228D+00 0.217D+00 0.944D+00
 Coeff:      0.675D-01-0.228D+00 0.217D+00 0.944D+00
 Gap=     0.379 Goal=   None    Shift=    0.500
 T=  479. Gap= 0.879 NK=0 IS=   47 IE=  336 IFin=   46
          NO(<0.9)=   0  NV(>0.1)=   0     46.00e < EF      0.00e >EF  Err=0.0D+00
 Gap=     0.254 Goal=   None    Shift=    0.500
 T=  479. Gap= 0.754 NK=0 IS=   46 IE=  336 IFin=   45
          NO(<0.9)=   0  NV(>0.1)=   0     45.00e < EF      0.00e >EF  Err=0.0D+00
 GapD=    0.254 DampG=1.000 DampE=1.000 DampFc=1.0000 IDamp=-1.
 RMSDP=1.08D-04 MaxDP=3.33D-03 DE=-3.12D-02 OVMax= 8.14D-03

 Cycle   5  Pass 1  IDiag  1:
 E= -517.087632261957     Delta-E=       -0.000490262598 Rises=F Damp=F
 DIIS: error= 1.15D-03 at cycle   5 NSaved=   5.
 NSaved= 5 IEnMin= 5 EnMin= -517.087632261957     IErMin= 5 ErrMin= 1.15D-03
 ErrMax= 1.15D-03  0.00D+00 EMaxC= 1.00D+00 BMatC= 2.91D-04 BMatP= 1.05D-03
 IDIUse=1 WtCom= 1.00D+00 WtEn= 0.00D+00
 Coeff-Com: -0.224D-01 0.226D+00-0.401D+00-0.398D+00 0.160D+01
 Coeff:     -0.224D-01 0.226D+00-0.401D+00-0.398D+00 0.160D+01
 Gap=     0.382 Goal=   None    Shift=    0.500
 Gap=     0.256 Goal=   None    Shift=    0.500
 GapD=    0.256 DampG=1.000 DampE=1.000 DampFc=1.0000 IDamp=-1.
 RMSDP=7.37D-05 MaxDP=3.45D-03 DE=-4.90D-04 OVMax= 7.10D-03

 Cycle   6  Pass 1  IDiag  1:
 E= -517.087914353851     Delta-E=       -0.000282091894 Rises=F Damp=F
 DIIS: error= 9.32D-04 at cycle   6 NSaved=   6.
 NSaved= 6 IEnMin= 6 EnMin= -517.087914353851     IErMin= 6 ErrMin= 9.32D-04
 ErrMax= 9.32D-04  0.00D+00 EMaxC= 1.00D+00 BMatC= 1.24D-04 BMatP= 2.91D-04
 IDIUse=1 WtCom= 1.00D+00 WtEn= 0.00D+00
 Coeff-Com: -0.180D-01 0.352D-02 0.595D-01-0.201D+00-0.121D+01 0.236D+01
 Coeff:     -0.180D-01 0.352D-02 0.595D-01-0.201D+00-0.121D+01 0.236D+01
 Gap=     0.383 Goal=   None    Shift=    0.500
 Gap=     0.257 Goal=   None    Shift=    0.500
 RMSDP=6.31D-05 MaxDP=4.11D-03 DE=-2.82D-04 OVMax= 6.99D-03

 Cycle   7  Pass 1  IDiag  1:
 E= -517.088084214002     Delta-E=       -0.000169860151 Rises=F Damp=F
 DIIS: error= 5.70D-04 at cycle   7 NSaved=   7.
 NSaved= 7 IEnMin= 7 EnMin= -517.088084214002     IErMin= 7 ErrMin= 5.70D-04
 ErrMax= 5.70D-04  0.00D+00 EMaxC= 1.00D+00 BMatC= 4.71D-05 BMatP= 1.24D-04
 IDIUse=1 WtCom= 1.00D+00 WtEn= 0.00D+00
 Coeff-Com:  0.205D-02-0.385D-01 0.738D-01 0.607D-01-0.443D+00-0.532D+00
 Coeff-Com:  0.188D+01
 Coeff:      0.205D-02-0.385D-01 0.738D-01 0.607D-01-0.443D+00-0.532D+00
 Coeff:      0.188D+01
 Gap=     0.384 Goal=   None    Shift=    0.500
 Gap=     0.258 Goal=   None    Shift=    0.500
 RMSDP=3.96D-05 MaxDP=3.14D-03 DE=-1.70D-04 OVMax= 4.58D-03

 Cycle   8  Pass 1  IDiag  1:
 E= -517.088153127548     Delta-E=       -0.000068913546 Rises=F Damp=F
 DIIS: error= 3.82D-04 at cycle   8 NSaved=   8.
 NSaved= 8 IEnMin= 8 EnMin= -517.088153127548     IErMin= 8 ErrMin= 3.82D-04
 ErrMax= 3.82D-04  0.00D+00 EMaxC= 1.00D+00 BMatC= 1.83D-05 BMatP= 4.71D-05
 IDIUse=1 WtCom= 1.00D+00 WtEn= 0.00D+00
 Coeff-Com:  0.421D-02 0.215D-02-0.194D-01 0.335D-01 0.428D+00-0.934D+00
 Coeff-Com: -0.695D+00 0.218D+01
 Coeff:      0.421D-02 0.215D-02-0.194D-01 0.335D-01 0.428D+00-0.934D+00
 Coeff:     -0.695D+00 0.218D+01
 Gap=     0.385 Goal=   None    Shift=    0.500
 Gap=     0.258 Goal=   None    Shift=    0.500
 RMSDP=2.44D-05 MaxDP=1.62D-03 DE=-6.89D-05 OVMax= 3.16D-03

 Cycle   9  Pass 1  IDiag  1:
 E= -517.088180729360     Delta-E=       -0.000027601812 Rises=F Damp=F
 DIIS: error= 2.20D-04 at cycle   9 NSaved=   9.
 NSaved= 9 IEnMin= 9 EnMin= -517.088180729360     IErMin= 9 ErrMin= 2.20D-04
 ErrMax= 2.20D-04  0.00D+00 EMaxC= 1.00D+00 BMatC= 6.87D-06 BMatP= 1.83D-05
 IDIUse=1 WtCom= 1.00D+00 WtEn= 0.00D+00
 Coeff-Com: -0.316D-02 0.107D-01-0.122D-01-0.105D+00 0.101D-01 0.774D+00
 Coeff-Com: -0.858D+00-0.175D+01 0.294D+01
 Coeff:     -0.316D-02 0.107D-01-0.122D-01-0.105D+00 0.101D-01 0.774D+00
 Coeff:     -0.858D+00-0.175D+01 0.294D+01
 Gap=     0.385 Goal=   None    Shift=    0.500
 Gap=     0.258 Goal=   None    Shift=    0.500
 RMSDP=1.36D-05 MaxDP=7.32D-04 DE=-2.76D-05 OVMax= 1.97D-03

 Cycle  10  Pass 1  IDiag  1:
 E= -517.088190584949     Delta-E=       -0.000009855589 Rises=F Damp=F
 DIIS: error= 1.23D-04 at cycle  10 NSaved=  10.
 NSaved=10 IEnMin=10 EnMin= -517.088190584949     IErMin=10 ErrMin= 1.23D-04
 ErrMax= 1.23D-04  0.00D+00 EMaxC= 1.00D+00 BMatC= 2.14D-06 BMatP= 6.87D-06
 IDIUse=1 WtCom= 1.00D+00 WtEn= 0.00D+00
 Coeff-Com:  0.574D-03-0.452D-02 0.750D-02 0.186D-01-0.428D-01-0.117D+00
 Coeff-Com:  0.398D+00 0.912D-01-0.215D+01 0.279D+01
 Coeff:      0.574D-03-0.452D-02 0.750D-02 0.186D-01-0.428D-01-0.117D+00
 Coeff:      0.398D+00 0.912D-01-0.215D+01 0.279D+01
 Gap=     0.385 Goal=   None    Shift=    0.500
 Gap=     0.258 Goal=   None    Shift=    0.500
 RMSDP=7.46D-06 MaxDP=3.87D-04 DE=-9.86D-06 OVMax= 1.07D-03

 Cycle  11  Pass 1  IDiag  1:
 E= -517.088193479651     Delta-E=       -0.000002894702 Rises=F Damp=F
 DIIS: error= 6.70D-05 at cycle  11 NSaved=  11.
 NSaved=11 IEnMin=11 EnMin= -517.088193479651     IErMin=11 ErrMin= 6.70D-05
 ErrMax= 6.70D-05  0.00D+00 EMaxC= 1.00D+00 BMatC= 6.32D-07 BMatP= 2.14D-06
 IDIUse=1 WtCom= 1.00D+00 WtEn= 0.00D+00
 Coeff-Com: -0.358D-03 0.126D-02-0.143D-02-0.145D-01 0.265D-01 0.481D-01
 Coeff-Com: -0.140D+00-0.144D+00 0.104D+01-0.274D+01 0.292D+01
 Coeff:     -0.358D-03 0.126D-02-0.143D-02-0.145D-01 0.265D-01 0.481D-01
 Coeff:     -0.140D+00-0.144D+00 0.104D+01-0.274D+01 0.292D+01
 Gap=     0.385 Goal=   None    Shift=    0.500
 Gap=     0.258 Goal=   None    Shift=    0.500
 RMSDP=3.99D-06 MaxDP=2.22D-04 DE=-2.89D-06 OVMax= 5.74D-04

 Cycle  12  Pass 1  IDiag  1:
 E= -517.088194290978     Delta-E=       -0.000000811327 Rises=F Damp=F
 DIIS: error= 3.48D-05 at cycle  12 NSaved=  12.
 NSaved=12 IEnMin=12 EnMin= -517.088194290978     IErMin=12 ErrMin= 3.48D-05
 ErrMax= 3.48D-05  0.00D+00 EMaxC= 1.00D+00 BMatC= 1.83D-07 BMatP= 6.32D-07
 IDIUse=1 WtCom= 1.00D+00 WtEn= 0.00D+00
 Coeff-Com: -0.160D-03 0.103D-02-0.172D-02-0.990D-02 0.132D-01 0.521D-01
 Coeff-Com: -0.118D+00-0.756D-01 0.504D+00-0.680D+00-0.682D+00 0.200D+01
 Coeff:     -0.160D-03 0.103D-02-0.172D-02-0.990D-02 0.132D-01 0.521D-01
 Coeff:     -0.118D+00-0.756D-01 0.504D+00-0.680D+00-0.682D+00 0.200D+01
 Gap=     0.385 Goal=   None    Shift=    0.500
 Gap=     0.258 Goal=   None    Shift=    0.500
 RMSDP=2.10D-06 MaxDP=1.09D-04 DE=-8.11D-07 OVMax= 3.02D-04

 Cycle  13  Pass 1  IDiag  1:
 E= -517.088194514954     Delta-E=       -0.000000223976 Rises=F Damp=F
 DIIS: error= 1.81D-05 at cycle  13 NSaved=  13.
 NSaved=13 IEnMin=13 EnMin= -517.088194514954     IErMin=13 ErrMin= 1.81D-05
 ErrMax= 1.81D-05  0.00D+00 EMaxC= 1.00D+00 BMatC= 5.42D-08 BMatP= 1.83D-07
 IDIUse=1 WtCom= 1.00D+00 WtEn= 0.00D+00
 Coeff-Com:  0.247D-04 0.106D-03-0.380D-03-0.205D-02 0.342D-03 0.164D-01
 Coeff-Com: -0.240D-01-0.803D-02-0.436D-01 0.453D+00-0.130D+01 0.702D+00
 Coeff-Com:  0.121D+01
 Coeff:      0.247D-04 0.106D-03-0.380D-03-0.205D-02 0.342D-03 0.164D-01
 Coeff:     -0.240D-01-0.803D-02-0.436D-01 0.453D+00-0.130D+01 0.702D+00
 Coeff:      0.121D+01
 Gap=     0.385 Goal=   None    Shift=    0.500
 Gap=     0.258 Goal=   None    Shift=    0.500
 RMSDP=1.14D-06 MaxDP=5.86D-05 DE=-2.24D-07 OVMax= 1.59D-04

 Cycle  14  Pass 1  IDiag  1:
 E= -517.088194577577     Delta-E=       -0.000000062623 Rises=F Damp=F
 DIIS: error= 9.51D-06 at cycle  14 NSaved=  14.
 NSaved=14 IEnMin=14 EnMin= -517.088194577577     IErMin=14 ErrMin= 9.51D-06
 ErrMax= 9.51D-06  0.00D+00 EMaxC= 1.00D+00 BMatC= 1.52D-08 BMatP= 5.42D-08
 IDIUse=1 WtCom= 1.00D+00 WtEn= 0.00D+00
 Coeff-Com:  0.528D-04-0.385D-03 0.639D-03 0.230D-02-0.369D-02-0.134D-01
 Coeff-Com:  0.357D-01 0.132D-01-0.172D+00 0.332D+00-0.116D+00-0.601D+00
 Coeff-Com: -0.212D+00 0.173D+01
 Coeff:      0.528D-04-0.385D-03 0.639D-03 0.230D-02-0.369D-02-0.134D-01
 Coeff:      0.357D-01 0.132D-01-0.172D+00 0.332D+00-0.116D+00-0.601D+00
 Coeff:     -0.212D+00 0.173D+01
 Gap=     0.385 Goal=   None    Shift=    0.500
 Gap=     0.258 Goal=   None    Shift=    0.500
 RMSDP=6.49D-07 MaxDP=3.54D-05 DE=-6.26D-08 OVMax= 8.36D-05

 SCF Done:  E(ULC-wHPBE) =  -517.088194578     A.U. after   14 cycles
            NFock= 14  Conv=0.65D-06     -V/T= 2.0049
 <Sx>= 0.0000 <Sy>= 0.0000 <Sz>= 0.5000 <S**2>= 0.7793 S= 0.5145
 <L.S>= 0.000000000000E+00
 KE= 5.145671126316D+02 PE=-2.652432926364D+03 EE= 8.800146374419D+02
 Annihilation of the first spin contaminant:
 S**2 before annihilation     0.7793,   after     0.7505
 Leave Link  502 at Mon Jan 25 21:25:44 2021, MaxMem=  4026531840 cpu:            1777.6 elap:             223.8
 (Enter /opt/ohpc/pub/libs/gaussian/g16-A.03/sandybridge/g16/l508.exe)
 QCSCF skips out because SCF is already converged.
 Leave Link  508 at Mon Jan 25 21:25:44 2021, MaxMem=  4026531840 cpu:               0.1 elap:               0.0
 (Enter /opt/ohpc/pub/libs/gaussian/g16-A.03/sandybridge/g16/l601.exe)
 Copying SCF densities to generalized density rwf, IOpCl= 1 IROHF=0.

 **********************************************************************

            Population analysis using the SCF density.

 **********************************************************************

 Orbital symmetries:
 Alpha Orbitals:
       Occupied  (A) (A) (A) (A) (A) (A) (A) (A) (A) (A) (A) (A)
                 (A) (A) (A) (A) (A) (A) (A) (A) (A) (A) (A) (A)
                 (A) (A) (A) (A) (A) (A) (A) (A) (A) (A) (A) (A)
                 (A) (A) (A) (A) (A) (A) (A) (A) (A) (A)
       Virtual   (A) (A) (A) (A) (A) (A) (A) (A) (A) (A) (A) (A)
                 (A) (A) (A) (A) (A) (A) (A) (A) (A) (A) (A) (A)
                 (A) (A) (A) (A) (A) (A) (A) (A) (A) (A) (A) (A)
                 (A) (A) (A) (A) (A) (A) (A) (A) (A) (A) (A) (A)
                 (A) (A) (A) (A) (A) (A) (A) (A) (A) (A) (A) (A)
                 (A) (A) (A) (A) (A) (A) (A) (A) (A) (A) (A) (A)
                 (A) (A) (A) (A) (A) (A) (A) (A) (A) (A) (A) (A)
                 (A) (A) (A) (A) (A) (A) (A) (A) (A) (A) (A) (A)
                 (A) (A) (A) (A) (A) (A) (A) (A) (A) (A) (A) (A)
                 (A) (A) (A) (A) (A) (A) (A) (A) (A) (A) (A) (A)
                 (A) (A) (A) (A) (A) (A) (A) (A) (A) (A) (A) (A)
                 (A) (A) (A) (A) (A) (A) (A) (A) (A) (A) (A) (A)
                 (A) (A) (A) (A) (A) (A) (A) (A) (A) (A) (A) (A)
                 (A) (A) (A) (A) (A) (A) (A) (A) (A) (A) (A) (A)
                 (A) (A) (A) (A) (A) (A) (A) (A) (A) (A) (A) (A)
                 (A) (A) (A) (A) (A) (A) (A) (A) (A) (A) (A) (A)
                 (A) (A) (A) (A) (A) (A) (A) (A) (A) (A) (A) (A)
                 (A) (A) (A) (A) (A) (A) (A) (A) (A) (A) (A) (A)
                 (A) (A) (A) (A) (A) (A) (A) (A) (A) (A) (A) (A)
                 (A) (A) (A) (A) (A) (A) (A) (A) (A) (A) (A) (A)
                 (A) (A) (A) (A) (A) (A) (A) (A) (A) (A) (A) (A)
                 (A) (A) (A) (A) (A) (A) (A) (A) (A) (A) (A) (A)
                 (A) (A) (A) (A) (A) (A) (A) (A) (A) (A) (A) (A)
                 (A) (A) (A) (A) (A) (A) (A) (A) (A) (A) (A) (A)
                 (A) (A)
 Beta  Orbitals:
       Occupied  (A) (A) (A) (A) (A) (A) (A) (A) (A) (A) (A) (A)
                 (A) (A) (A) (A) (A) (A) (A) (A) (A) (A) (A) (A)
                 (A) (A) (A) (A) (A) (A) (A) (A) (A) (A) (A) (A)
                 (A) (A) (A) (A) (A) (A) (A) (A) (A)
       Virtual   (A) (A) (A) (A) (A) (A) (A) (A) (A) (A) (A) (A)
                 (A) (A) (A) (A) (A) (A) (A) (A) (A) (A) (A) (A)
                 (A) (A) (A) (A) (A) (A) (A) (A) (A) (A) (A) (A)
                 (A) (A) (A) (A) (A) (A) (A) (A) (A) (A) (A) (A)
                 (A) (A) (A) (A) (A) (A) (A) (A) (A) (A) (A) (A)
                 (A) (A) (A) (A) (A) (A) (A) (A) (A) (A) (A) (A)
                 (A) (A) (A) (A) (A) (A) (A) (A) (A) (A) (A) (A)
                 (A) (A) (A) (A) (A) (A) (A) (A) (A) (A) (A) (A)
                 (A) (A) (A) (A) (A) (A) (A) (A) (A) (A) (A) (A)
                 (A) (A) (A) (A) (A) (A) (A) (A) (A) (A) (A) (A)
                 (A) (A) (A) (A) (A) (A) (A) (A) (A) (A) (A) (A)
                 (A) (A) (A) (A) (A) (A) (A) (A) (A) (A) (A) (A)
                 (A) (A) (A) (A) (A) (A) (A) (A) (A) (A) (A) (A)
                 (A) (A) (A) (A) (A) (A) (A) (A) (A) (A) (A) (A)
                 (A) (A) (A) (A) (A) (A) (A) (A) (A) (A) (A) (A)
                 (A) (A) (A) (A) (A) (A) (A) (A) (A) (A) (A) (A)
                 (A) (A) (A) (A) (A) (A) (A) (A) (A) (A) (A) (A)
                 (A) (A) (A) (A) (A) (A) (A) (A) (A) (A) (A) (A)
                 (A) (A) (A) (A) (A) (A) (A) (A) (A) (A) (A) (A)
                 (A) (A) (A) (A) (A) (A) (A) (A) (A) (A) (A) (A)
                 (A) (A) (A) (A) (A) (A) (A) (A) (A) (A) (A) (A)
                 (A) (A) (A) (A) (A) (A) (A) (A) (A) (A) (A) (A)
                 (A) (A) (A) (A) (A) (A) (A) (A) (A) (A) (A) (A)
                 (A) (A) (A) (A) (A) (A) (A) (A) (A) (A) (A) (A)
                 (A) (A) (A)
 The electronic state is 2-A.
 Alpha  occ. eigenvalues --  -14.53268 -14.53267 -14.53266 -10.44251 -10.44185
 Alpha  occ. eigenvalues --  -10.44185 -10.34866 -10.34866 -10.34866 -10.34863
 Alpha  occ. eigenvalues --  -10.34863 -10.34863  -1.40810  -1.36801  -1.36801
 Alpha  occ. eigenvalues --   -1.31230  -1.11583  -1.11582  -1.10490  -1.10072
 Alpha  occ. eigenvalues --   -1.10071  -1.08371  -0.93826  -0.93826  -0.93027
 Alpha  occ. eigenvalues --   -0.90935  -0.89040  -0.89040  -0.86778  -0.86778
 Alpha  occ. eigenvalues --   -0.85979  -0.80193  -0.79461  -0.79460  -0.78883
 Alpha  occ. eigenvalues --   -0.77435  -0.77433  -0.77232  -0.77230  -0.77156
 Alpha  occ. eigenvalues --   -0.75498  -0.75497  -0.74568  -0.69158  -0.69157
 Alpha  occ. eigenvalues --   -0.60876
 Alpha virt. eigenvalues --   -0.22375  -0.22373  -0.19306  -0.13490  -0.13488
 Alpha virt. eigenvalues --   -0.12894  -0.12629  -0.11264  -0.11263  -0.09465
 Alpha virt. eigenvalues --   -0.09464  -0.08976  -0.08874  -0.08010  -0.08009
 Alpha virt. eigenvalues --   -0.07284  -0.06838  -0.06833  -0.05974  -0.05328
 Alpha virt. eigenvalues --   -0.05322  -0.05126  -0.05123  -0.03891  -0.01715
 Alpha virt. eigenvalues --   -0.01555  -0.01551  -0.00689  -0.00684   0.00001
 Alpha virt. eigenvalues --    0.02452   0.02462   0.04489   0.04494   0.04689
 Alpha virt. eigenvalues --    0.05633   0.07000   0.07910   0.07915   0.09824
 Alpha virt. eigenvalues --    0.11107   0.11115   0.11801   0.12419   0.12428
 Alpha virt. eigenvalues --    0.13395   0.14273   0.14280   0.16631   0.16637
 Alpha virt. eigenvalues --    0.18150   0.19319   0.20653   0.20665   0.22455
 Alpha virt. eigenvalues --    0.22897   0.23628   0.23634   0.24064   0.24072
 Alpha virt. eigenvalues --    0.24896   0.26044   0.26046   0.26288   0.27895
 Alpha virt. eigenvalues --    0.27900   0.28133   0.28747   0.28750   0.30208
 Alpha virt. eigenvalues --    0.30219   0.31601   0.32101   0.32420   0.32827
 Alpha virt. eigenvalues --    0.32837   0.34364   0.34368   0.34398   0.37383
 Alpha virt. eigenvalues --    0.37385   0.41023   0.41025   0.44544   0.44851
 Alpha virt. eigenvalues --    0.44858   0.45022   0.45028   0.45794   0.49639
 Alpha virt. eigenvalues --    0.50449   0.50453   0.51766   0.57620   0.57635
 Alpha virt. eigenvalues --    0.62209   0.62215   0.62741   0.91176   0.91547
 Alpha virt. eigenvalues --    0.91554   0.94248   0.99119   1.01689   1.01703
 Alpha virt. eigenvalues --    1.02453   1.03527   1.06466   1.06473   1.08020
 Alpha virt. eigenvalues --    1.08022   1.10612   1.10617   1.11244   1.12231
 Alpha virt. eigenvalues --    1.12777   1.13342   1.13347   1.14979   1.14985
 Alpha virt. eigenvalues --    1.16133   1.17173   1.17185   1.19704   1.21520
 Alpha virt. eigenvalues --    1.21524   1.21879   1.21893   1.23248   1.24047
 Alpha virt. eigenvalues --    1.26098   1.26112   1.27148   1.27151   1.28506
 Alpha virt. eigenvalues --    1.32543   1.33283   1.33366   1.33371   1.34397
 Alpha virt. eigenvalues --    1.34408   1.36329   1.36332   1.39025   1.40176
 Alpha virt. eigenvalues --    1.40957   1.40969   1.42106   1.42110   1.42664
 Alpha virt. eigenvalues --    1.45494   1.45497   1.47504   1.49074   1.49077
 Alpha virt. eigenvalues --    1.51150   1.52938   1.52941   1.54678   1.55421
 Alpha virt. eigenvalues --    1.55422   1.56304   1.56310   1.56533   1.56584
 Alpha virt. eigenvalues --    1.56722   1.56727   1.57507   1.59009   1.59013
 Alpha virt. eigenvalues --    1.59398   1.59639   1.59652   1.60539   1.64561
 Alpha virt. eigenvalues --    1.64569   1.65101   1.65105   1.66487   1.77208
 Alpha virt. eigenvalues --    1.79101   1.79112   1.83375   1.83388   1.83557
 Alpha virt. eigenvalues --    1.87044   1.89430   1.89436   1.91331   1.93365
 Alpha virt. eigenvalues --    1.93371   1.98421   1.98662   1.98672   2.05020
 Alpha virt. eigenvalues --    2.05353   2.05361   2.05615   2.06742   2.07621
 Alpha virt. eigenvalues --    2.07628   2.08670   2.10814   2.10831   2.12307
 Alpha virt. eigenvalues --    2.12312   2.12379   2.13898   2.15381   2.15390
 Alpha virt. eigenvalues --    2.17834   2.22049   2.22061   2.27934   2.27944
 Alpha virt. eigenvalues --    2.29077   2.29183   2.29190   2.31392   2.32349
 Alpha virt. eigenvalues --    2.32356   2.33065   2.35427   2.35459   2.37168
 Alpha virt. eigenvalues --    2.38403   2.38417   2.38949   2.41664   2.43967
 Alpha virt. eigenvalues --    2.43978   2.44804   2.47797   2.47803   2.48598
 Alpha virt. eigenvalues --    2.51074   2.51087   2.52114   2.54068   2.54090
 Alpha virt. eigenvalues --    2.57355   2.57357   2.61067   2.61086   2.63587
 Alpha virt. eigenvalues --    2.63590   2.69707   2.69709   2.85419   2.86984
 Alpha virt. eigenvalues --    2.87013   2.87796   2.88911   2.88922   2.93142
 Alpha virt. eigenvalues --    2.95913   2.95917   3.05831   3.05842   3.08017
 Alpha virt. eigenvalues --    3.08231   3.08236   3.09209   3.10703   3.10716
 Alpha virt. eigenvalues --    3.11870   3.16394   3.16415   3.17377   3.20453
 Alpha virt. eigenvalues --    3.20461   3.22908   3.28280   3.47032   3.47046
 Alpha virt. eigenvalues --    3.57166   3.71249   3.71257  21.20900  21.52500
 Alpha virt. eigenvalues --   21.54620  21.54627  21.70533  21.70536  21.74756
 Alpha virt. eigenvalues --   21.94032  21.94046  31.32045  31.51231  31.51236
  Beta  occ. eigenvalues --  -14.52602 -14.52602 -14.52600 -10.44303 -10.44239
  Beta  occ. eigenvalues --  -10.44239 -10.34885 -10.34885 -10.34885 -10.34882
  Beta  occ. eigenvalues --  -10.34882 -10.34881  -1.40193  -1.35833  -1.35833
  Beta  occ. eigenvalues --   -1.30287  -1.11437  -1.11437  -1.10330  -1.09944
  Beta  occ. eigenvalues --   -1.09944  -1.08133  -0.93440  -0.93440  -0.92626
  Beta  occ. eigenvalues --   -0.89900  -0.88761  -0.88761  -0.85582  -0.85286
  Beta  occ. eigenvalues --   -0.85285  -0.79305  -0.79304  -0.79228  -0.78773
  Beta  occ. eigenvalues --   -0.77102  -0.77101  -0.76973  -0.76971  -0.76802
  Beta  occ. eigenvalues --   -0.75377  -0.75376  -0.74496  -0.66225  -0.66225
  Beta virt. eigenvalues --   -0.40412  -0.20680  -0.20677  -0.19104  -0.13420
  Beta virt. eigenvalues --   -0.13419  -0.12923  -0.12381  -0.11095  -0.11094
  Beta virt. eigenvalues --   -0.09276  -0.09275  -0.08939  -0.08790  -0.07939
  Beta virt. eigenvalues --   -0.07938  -0.07117  -0.06648  -0.06643  -0.05782
  Beta virt. eigenvalues --   -0.05192  -0.05186  -0.04920  -0.04917  -0.03780
  Beta virt. eigenvalues --   -0.01563  -0.01423  -0.01419  -0.00568  -0.00564
  Beta virt. eigenvalues --    0.00064   0.02560   0.02570   0.04584   0.04590
  Beta virt. eigenvalues --    0.04820   0.05783   0.07188   0.07986   0.07991
  Beta virt. eigenvalues --    0.10140   0.11343   0.11352   0.11934   0.12596
  Beta virt. eigenvalues --    0.12603   0.13595   0.14304   0.14310   0.16797
  Beta virt. eigenvalues --    0.16803   0.18474   0.19447   0.20769   0.20781
  Beta virt. eigenvalues --    0.22608   0.23241   0.23745   0.23751   0.24269
  Beta virt. eigenvalues --    0.24278   0.25031   0.26248   0.26250   0.26555
  Beta virt. eigenvalues --    0.28129   0.28134   0.28383   0.28859   0.28862
  Beta virt. eigenvalues --    0.30540   0.30551   0.31824   0.32261   0.32836
  Beta virt. eigenvalues --    0.33093   0.33102   0.34600   0.34603   0.34669
  Beta virt. eigenvalues --    0.37489   0.37491   0.41109   0.41112   0.44897
  Beta virt. eigenvalues --    0.45021   0.45028   0.45390   0.45396   0.45945
  Beta virt. eigenvalues --    0.49906   0.50734   0.50737   0.51932   0.57791
  Beta virt. eigenvalues --    0.57806   0.62355   0.62360   0.62999   0.91367
  Beta virt. eigenvalues --    0.91822   0.91828   0.94464   0.99504   1.01828
  Beta virt. eigenvalues --    1.01842   1.02558   1.03576   1.06583   1.06590
  Beta virt. eigenvalues --    1.08162   1.08164   1.10803   1.10808   1.11364
  Beta virt. eigenvalues --    1.12363   1.12882   1.13495   1.13500   1.15134
  Beta virt. eigenvalues --    1.15140   1.16296   1.17263   1.17275   1.19863
  Beta virt. eigenvalues --    1.21550   1.21554   1.21965   1.21978   1.23385
  Beta virt. eigenvalues --    1.24165   1.26228   1.26242   1.27231   1.27233
  Beta virt. eigenvalues --    1.28815   1.32725   1.33468   1.33584   1.33589
  Beta virt. eigenvalues --    1.34549   1.34560   1.36609   1.36613   1.39269
  Beta virt. eigenvalues --    1.40393   1.41106   1.41119   1.42391   1.42395
  Beta virt. eigenvalues --    1.43268   1.45884   1.45887   1.47580   1.49185
  Beta virt. eigenvalues --    1.49188   1.51282   1.53179   1.53182   1.54904
  Beta virt. eigenvalues --    1.55931   1.55933   1.56673   1.56678   1.56701
  Beta virt. eigenvalues --    1.56901   1.56908   1.56924   1.57653   1.59180
  Beta virt. eigenvalues --    1.59184   1.59910   1.59984   1.59996   1.60891
  Beta virt. eigenvalues --    1.64784   1.64787   1.65246   1.65252   1.66994
  Beta virt. eigenvalues --    1.77220   1.79376   1.79389   1.83527   1.84015
  Beta virt. eigenvalues --    1.84027   1.87347   1.89610   1.89617   1.91527
  Beta virt. eigenvalues --    1.93673   1.93680   1.98885   1.99013   1.99022
  Beta virt. eigenvalues --    2.05368   2.05805   2.06187   2.06195   2.07454
  Beta virt. eigenvalues --    2.07791   2.07798   2.09076   2.11230   2.11248
  Beta virt. eigenvalues --    2.12665   2.12671   2.12709   2.14897   2.16137
  Beta virt. eigenvalues --    2.16145   2.18864   2.22339   2.22352   2.28032
  Beta virt. eigenvalues --    2.28042   2.29458   2.29682   2.29690   2.31892
  Beta virt. eigenvalues --    2.32616   2.32625   2.33626   2.35801   2.35834
  Beta virt. eigenvalues --    2.37432   2.38733   2.38748   2.39334   2.41854
  Beta virt. eigenvalues --    2.44529   2.44541   2.45061   2.48174   2.48179
  Beta virt. eigenvalues --    2.49203   2.52025   2.52035   2.53271   2.54689
  Beta virt. eigenvalues --    2.54710   2.57954   2.57956   2.61510   2.61866
  Beta virt. eigenvalues --    2.63950   2.63953   2.70744   2.70746   2.85856
  Beta virt. eigenvalues --    2.87249   2.87278   2.88007   2.89136   2.89147
  Beta virt. eigenvalues --    2.94067   2.96415   2.96419   3.06083   3.06094
  Beta virt. eigenvalues --    3.08236   3.08454   3.08459   3.09503   3.10820
  Beta virt. eigenvalues --    3.10833   3.11963   3.16580   3.16600   3.17776
  Beta virt. eigenvalues --    3.21349   3.21356   3.23133   3.28774   3.47426
  Beta virt. eigenvalues --    3.47440   3.57478   3.71726   3.71735  21.20829
  Beta virt. eigenvalues --   21.52474  21.54596  21.54603  21.70511  21.70514
  Beta virt. eigenvalues --   21.74734  21.93981  21.93994  31.32991  31.52178
  Beta virt. eigenvalues --   31.52183
          Condensed to atoms (all electrons):
               1          2          3          4          5          6
     1  C    6.274220  -0.204491   0.551300  -0.094902  -0.066785  -0.006935
     2  C   -0.204491   6.275805  -0.094787   0.551430  -0.002787  -0.003576
     3  N    0.551300  -0.094787   6.305751  -0.004029   0.203168  -0.021537
     4  N   -0.094902   0.551430  -0.004029   6.305679  -0.000590  -0.000004
     5  C   -0.066785  -0.002787   0.203168  -0.000590   4.985483   0.407698
     6  H   -0.006935  -0.003576  -0.021537  -0.000004   0.407698   0.432577
     7  H   -0.010521   0.013332  -0.028716   0.000029   0.396466  -0.020486
     8  H    0.006437   0.000190  -0.025883   0.000008   0.396833  -0.012430
     9  C   -0.066922   0.003302   0.203088  -0.002174  -0.042871  -0.009651
    10  H    0.006477  -0.002705  -0.025867   0.000044   0.000608   0.001588
    11  H   -0.006977   0.006603  -0.021555   0.000134  -0.009635   0.000208
    12  H   -0.010525  -0.004359  -0.028658  -0.002439   0.008000  -0.000030
    13  C   -0.002825  -0.066808  -0.000590   0.203175  -0.000021  -0.000002
    14  H   -0.003578  -0.006956  -0.000004  -0.021555  -0.000002   0.000000
    15  H    0.013315  -0.010507   0.000029  -0.028677   0.000004  -0.000000
    16  H    0.000191   0.006468   0.000008  -0.025874   0.000000   0.000000
    17  C    0.003204  -0.066834  -0.002181   0.203156   0.000038  -0.000007
    18  H   -0.002719   0.006437   0.000045  -0.025893  -0.000001   0.000000
    19  H    0.006596  -0.006927   0.000133  -0.021536   0.000003   0.000000
    20  H   -0.004328  -0.010521  -0.002455  -0.028710  -0.000114  -0.000001
    21  C   -0.202320  -0.204738  -0.094776  -0.094819   0.003132   0.006602
    22  N   -0.094851  -0.094737  -0.004032  -0.004027  -0.002175   0.000133
    23  C    0.003123  -0.002735  -0.002177  -0.000590   0.002855  -0.000596
    24  H    0.006594  -0.003580   0.000132  -0.000004  -0.000593   0.000076
    25  H   -0.004346   0.013404  -0.002450   0.000029  -0.000365  -0.001016
    26  H   -0.002722   0.000190   0.000045   0.000008   0.000013   0.000001
    27  C   -0.002866   0.003374  -0.000591  -0.002174   0.000037   0.000003
    28  H    0.000194  -0.002713   0.000008   0.000044  -0.000001   0.000000
    29  H   -0.003575   0.006596  -0.000004   0.000133  -0.000007   0.000000
    30  H    0.013300  -0.004381   0.000029  -0.002447   0.000011  -0.000000
               7          8          9         10         11         12
     1  C   -0.010521   0.006437  -0.066922   0.006477  -0.006977  -0.010525
     2  C    0.013332   0.000190   0.003302  -0.002705   0.006603  -0.004359
     3  N   -0.028716  -0.025883   0.203088  -0.025867  -0.021555  -0.028658
     4  N    0.000029   0.000008  -0.002174   0.000044   0.000134  -0.002439
     5  C    0.396466   0.396833  -0.042871   0.000608  -0.009635   0.008000
     6  H   -0.020486  -0.012430  -0.009651   0.001588   0.000208  -0.000030
     7  H    0.504767  -0.018921   0.008003   0.000256  -0.000032  -0.000497
     8  H   -0.018921   0.440703   0.000622  -0.001977   0.001587   0.000255
     9  C    0.008003   0.000622   4.985780   0.396766   0.407724   0.396522
    10  H    0.000256  -0.001977   0.396766   0.440703  -0.012416  -0.018901
    11  H   -0.000032   0.001587   0.407724  -0.012416   0.432589  -0.020504
    12  H   -0.000497   0.000255   0.396522  -0.018901  -0.020504   0.504566
    13  C    0.000004   0.000000   0.000039  -0.000001   0.000003  -0.000114
    14  H   -0.000000   0.000000  -0.000007   0.000000   0.000000  -0.000001
    15  H   -0.000002   0.000000   0.000011  -0.000000  -0.000000   0.000018
    16  H    0.000000  -0.000000  -0.000001  -0.000000   0.000000   0.000010
    17  C    0.000011  -0.000001   0.002926   0.000013  -0.000607  -0.000352
    18  H   -0.000000  -0.000000   0.000013  -0.000001   0.000001   0.000300
    19  H   -0.000000   0.000000  -0.000604   0.000001   0.000077  -0.001013
    20  H    0.000018   0.000011  -0.000332   0.000300  -0.001019  -0.003362
    21  C   -0.004348  -0.002713  -0.002868   0.000190  -0.003573   0.013260
    22  N   -0.002437   0.000044  -0.000590   0.000008  -0.000004   0.000029
    23  C   -0.000384   0.000014   0.000036  -0.000001  -0.000007   0.000011
    24  H   -0.001011   0.000001   0.000003   0.000000   0.000000  -0.000000
    25  H   -0.003325   0.000300  -0.000113   0.000011  -0.000001   0.000018
    26  H    0.000299  -0.000001  -0.000001  -0.000000   0.000000  -0.000000
    27  C   -0.000114  -0.000001  -0.000021   0.000000  -0.000002   0.000004
    28  H    0.000010  -0.000000   0.000000  -0.000000   0.000000   0.000000
    29  H   -0.000001   0.000000  -0.000002   0.000000   0.000000  -0.000000
    30  H    0.000018  -0.000000   0.000004   0.000000  -0.000000  -0.000002
              13         14         15         16         17         18
     1  C   -0.002825  -0.003578   0.013315   0.000191   0.003204  -0.002719
     2  C   -0.066808  -0.006956  -0.010507   0.006468  -0.066834   0.006437
     3  N   -0.000590  -0.000004   0.000029   0.000008  -0.002181   0.000045
     4  N    0.203175  -0.021555  -0.028677  -0.025874   0.203156  -0.025893
     5  C   -0.000021  -0.000002   0.000004   0.000000   0.000038  -0.000001
     6  H   -0.000002   0.000000  -0.000000   0.000000  -0.000007   0.000000
     7  H    0.000004  -0.000000  -0.000002   0.000000   0.000011  -0.000000
     8  H    0.000000   0.000000   0.000000  -0.000000  -0.000001  -0.000000
     9  C    0.000039  -0.000007   0.000011  -0.000001   0.002926   0.000013
    10  H   -0.000001   0.000000  -0.000000  -0.000000   0.000013  -0.000001
    11  H    0.000003   0.000000  -0.000000   0.000000  -0.000607   0.000001
    12  H   -0.000114  -0.000001   0.000018   0.000010  -0.000352   0.000300
    13  C    4.985565   0.407737   0.396469   0.396784  -0.042944   0.000625
    14  H    0.407737   0.432592  -0.020484  -0.012435  -0.009646   0.001594
    15  H    0.396469  -0.020484   0.504653  -0.018906   0.008011   0.000255
    16  H    0.396784  -0.012435  -0.018906   0.440740   0.000605  -0.001976
    17  C   -0.042944  -0.009646   0.008011   0.000605   4.985514   0.396839
    18  H    0.000625   0.001594   0.000255  -0.001976   0.396839   0.440760
    19  H   -0.009644   0.000207  -0.000031   0.001594   0.407675  -0.012443
    20  H    0.008003  -0.000031  -0.000497   0.000256   0.396457  -0.018919
    21  C    0.003187   0.006597  -0.004382  -0.002706  -0.002812   0.000191
    22  N   -0.002177   0.000133  -0.002450   0.000044  -0.000590   0.000008
    23  C    0.000038   0.000003  -0.000114  -0.000001  -0.000021   0.000000
    24  H   -0.000007   0.000000  -0.000001   0.000000  -0.000002   0.000000
    25  H    0.000011  -0.000000   0.000018  -0.000000   0.000004   0.000000
    26  H   -0.000001   0.000000   0.000010  -0.000000   0.000000  -0.000000
    27  C    0.002916  -0.000603  -0.000348   0.000013   0.000038  -0.000001
    28  H    0.000013   0.000001   0.000300  -0.000001  -0.000001  -0.000000
    29  H   -0.000604   0.000077  -0.001016   0.000001   0.000003   0.000000
    30  H   -0.000349  -0.001015  -0.003352   0.000300  -0.000114   0.000010
              19         20         21         22         23         24
     1  C    0.006596  -0.004328  -0.202320  -0.094851   0.003123   0.006594
     2  C   -0.006927  -0.010521  -0.204738  -0.094737  -0.002735  -0.003580
     3  N    0.000133  -0.002455  -0.094776  -0.004032  -0.002177   0.000132
     4  N   -0.021536  -0.028710  -0.094819  -0.004027  -0.000590  -0.000004
     5  C    0.000003  -0.000114   0.003132  -0.002175   0.002855  -0.000593
     6  H    0.000000  -0.000001   0.006602   0.000133  -0.000596   0.000076
     7  H   -0.000000   0.000018  -0.004348  -0.002437  -0.000384  -0.001011
     8  H    0.000000   0.000011  -0.002713   0.000044   0.000014   0.000001
     9  C   -0.000604  -0.000332  -0.002868  -0.000590   0.000036   0.000003
    10  H    0.000001   0.000300   0.000190   0.000008  -0.000001   0.000000
    11  H    0.000077  -0.001019  -0.003573  -0.000004  -0.000007   0.000000
    12  H   -0.001013  -0.003362   0.013260   0.000029   0.000011  -0.000000
    13  C   -0.009644   0.008003   0.003187  -0.002177   0.000038  -0.000007
    14  H    0.000207  -0.000031   0.006597   0.000133   0.000003   0.000000
    15  H   -0.000031  -0.000497  -0.004382  -0.002450  -0.000114  -0.000001
    16  H    0.001594   0.000256  -0.002706   0.000044  -0.000001   0.000000
    17  C    0.407675   0.396457  -0.002812  -0.000590  -0.000021  -0.000002
    18  H   -0.012443  -0.018919   0.000191   0.000008   0.000000   0.000000
    19  H    0.432600  -0.020468  -0.003570  -0.000004  -0.000002   0.000000
    20  H   -0.020468   0.504692   0.013318   0.000029   0.000004  -0.000000
    21  C   -0.003570   0.013318   6.274316   0.551358  -0.066742  -0.006906
    22  N   -0.000004   0.000029   0.551358   6.305591   0.203251  -0.021530
    23  C   -0.000002   0.000004  -0.066742   0.203251   4.985220   0.407702
    24  H    0.000000  -0.000000  -0.006906  -0.021530   0.407702   0.432598
    25  H   -0.000000  -0.000002  -0.010500  -0.028760   0.396381  -0.020454
    26  H    0.000000   0.000000   0.006415  -0.025888   0.396865  -0.012463
    27  C   -0.000007   0.000011  -0.066959   0.203147  -0.043007  -0.009666
    28  H    0.000000  -0.000000   0.006478  -0.025881   0.000606   0.001600
    29  H    0.000000  -0.000000  -0.006959  -0.021544  -0.009632   0.000207
    30  H   -0.000001   0.000018  -0.010515  -0.028660   0.008010  -0.000031
              25         26         27         28         29         30
     1  C   -0.004346  -0.002722  -0.002866   0.000194  -0.003575   0.013300
     2  C    0.013404   0.000190   0.003374  -0.002713   0.006596  -0.004381
     3  N   -0.002450   0.000045  -0.000591   0.000008  -0.000004   0.000029
     4  N    0.000029   0.000008  -0.002174   0.000044   0.000133  -0.002447
     5  C   -0.000365   0.000013   0.000037  -0.000001  -0.000007   0.000011
     6  H   -0.001016   0.000001   0.000003   0.000000   0.000000  -0.000000
     7  H   -0.003325   0.000299  -0.000114   0.000010  -0.000001   0.000018
     8  H    0.000300  -0.000001  -0.000001  -0.000000   0.000000  -0.000000
     9  C   -0.000113  -0.000001  -0.000021   0.000000  -0.000002   0.000004
    10  H    0.000011  -0.000000   0.000000  -0.000000   0.000000   0.000000
    11  H   -0.000001   0.000000  -0.000002   0.000000   0.000000  -0.000000
    12  H    0.000018  -0.000000   0.000004   0.000000  -0.000000  -0.000002
    13  C    0.000011  -0.000001   0.002916   0.000013  -0.000604  -0.000349
    14  H   -0.000000   0.000000  -0.000603   0.000001   0.000077  -0.001015
    15  H    0.000018   0.000010  -0.000348   0.000300  -0.001016  -0.003352
    16  H   -0.000000  -0.000000   0.000013  -0.000001   0.000001   0.000300
    17  C    0.000004   0.000000   0.000038  -0.000001   0.000003  -0.000114
    18  H    0.000000  -0.000000  -0.000001  -0.000000   0.000000   0.000010
    19  H   -0.000000   0.000000  -0.000007   0.000000   0.000000  -0.000001
    20  H   -0.000002   0.000000   0.000011  -0.000000  -0.000000   0.000018
    21  C   -0.010500   0.006415  -0.066959   0.006478  -0.006959  -0.010515
    22  N   -0.028760  -0.025888   0.203147  -0.025881  -0.021544  -0.028660
    23  C    0.396381   0.396865  -0.043007   0.000606  -0.009632   0.008010
    24  H   -0.020454  -0.012463  -0.009666   0.001600   0.000207  -0.000031
    25  H    0.504850  -0.018925   0.008016   0.000256  -0.000033  -0.000498
    26  H   -0.018925   0.440769   0.000624  -0.001975   0.001598   0.000253
    27  C    0.008016   0.000624   4.985630   0.396779   0.407722   0.396473
    28  H    0.000256  -0.001975   0.396779   0.440781  -0.012434  -0.018908
    29  H   -0.000033   0.001598   0.407722  -0.012434   0.432589  -0.020484
    30  H   -0.000498   0.000253   0.396473  -0.018908  -0.020484   0.504639
          Atomic-Atomic Spin Densities.
               1          2          3          4          5          6
     1  C   -0.085080   0.061255  -0.070022  -0.005846   0.005111  -0.000142
     2  C    0.061255  -0.085041  -0.005846  -0.070021  -0.000869  -0.000049
     3  N   -0.070022  -0.005846   0.484254   0.001888  -0.029856  -0.006120
     4  N   -0.005846  -0.070021   0.001888   0.484285  -0.000074  -0.000002
     5  C    0.005111  -0.000869  -0.029856  -0.000074  -0.011722   0.008715
     6  H   -0.000142  -0.000049  -0.006120  -0.000002   0.008715   0.019129
     7  H   -0.000241  -0.000070  -0.000210   0.000008   0.000878  -0.000254
     8  H    0.000813   0.000037  -0.004532  -0.000001   0.004989  -0.002118
     9  C    0.005108   0.003076  -0.029856  -0.000385   0.002513   0.000157
    10  H    0.000808  -0.000104  -0.004512  -0.000008   0.000916   0.000426
    11  H   -0.000142   0.000377  -0.006126  -0.000026   0.000157  -0.000120
    12  H   -0.000228  -0.000067  -0.000220   0.000172  -0.000065  -0.000028
    13  C   -0.000868   0.005107  -0.000074  -0.029851  -0.000001  -0.000000
    14  H   -0.000047  -0.000141  -0.000002  -0.006125  -0.000000  -0.000000
    15  H   -0.000066  -0.000233   0.000008  -0.000215  -0.000001  -0.000000
    16  H    0.000037   0.000812  -0.000001  -0.004526   0.000000   0.000000
    17  C    0.003076   0.005108  -0.000385  -0.029853   0.000026   0.000002
    18  H   -0.000105   0.000812  -0.000008  -0.004533   0.000000  -0.000000
    19  H    0.000374  -0.000139  -0.000026  -0.006123   0.000002   0.000000
    20  H   -0.000065  -0.000239   0.000172  -0.000214   0.000000   0.000002
    21  C    0.061243   0.061216  -0.005829  -0.005834   0.003075   0.000376
    22  N   -0.005839  -0.005840   0.001887   0.001887  -0.000385  -0.000026
    23  C    0.003072  -0.000867  -0.000386  -0.000074   0.000206  -0.000038
    24  H    0.000375  -0.000047  -0.000026  -0.000002  -0.000038  -0.000020
    25  H   -0.000059  -0.000066   0.000174   0.000008  -0.000054  -0.000064
    26  H   -0.000106   0.000037  -0.000008  -0.000001   0.000022   0.000006
    27  C   -0.000870   0.003072  -0.000074  -0.000385   0.000026   0.000002
    28  H    0.000037  -0.000104  -0.000001  -0.000008  -0.000001  -0.000000
    29  H   -0.000048   0.000374  -0.000002  -0.000026   0.000002   0.000000
    30  H   -0.000068  -0.000069   0.000008   0.000172   0.000002   0.000000
               7          8          9         10         11         12
     1  C   -0.000241   0.000813   0.005108   0.000808  -0.000142  -0.000228
     2  C   -0.000070   0.000037   0.003076  -0.000104   0.000377  -0.000067
     3  N   -0.000210  -0.004532  -0.029856  -0.004512  -0.006126  -0.000220
     4  N    0.000008  -0.000001  -0.000385  -0.000008  -0.000026   0.000172
     5  C    0.000878   0.004989   0.002513   0.000916   0.000157  -0.000065
     6  H   -0.000254  -0.002118   0.000157   0.000426  -0.000120  -0.000028
     7  H    0.001366  -0.000071  -0.000066   0.000019  -0.000029  -0.000014
     8  H   -0.000071   0.014017   0.000918  -0.000260   0.000427   0.000019
     9  C   -0.000066   0.000918  -0.011726   0.004971   0.008727   0.000882
    10  H    0.000019  -0.000260   0.004971   0.013963  -0.002114  -0.000064
    11  H   -0.000029   0.000427   0.008727  -0.002114   0.019150  -0.000262
    12  H   -0.000014   0.000019   0.000882  -0.000064  -0.000262   0.001384
    13  C   -0.000001   0.000000   0.000026   0.000000   0.000002   0.000001
    14  H   -0.000000   0.000000   0.000002  -0.000000   0.000000   0.000002
    15  H   -0.000001   0.000000   0.000002  -0.000000   0.000000   0.000003
    16  H    0.000000  -0.000000  -0.000001   0.000000  -0.000000  -0.000002
    17  C    0.000002  -0.000001   0.000203   0.000021  -0.000038  -0.000051
    18  H   -0.000000   0.000000   0.000022  -0.000000   0.000006   0.000012
    19  H    0.000000  -0.000000  -0.000039   0.000006  -0.000020  -0.000062
    20  H    0.000003  -0.000002  -0.000052   0.000012  -0.000063  -0.000103
    21  C   -0.000061  -0.000105  -0.000871   0.000037  -0.000049  -0.000069
    22  N    0.000174  -0.000008  -0.000074  -0.000001  -0.000002   0.000008
    23  C   -0.000053   0.000022   0.000026  -0.000001   0.000002   0.000002
    24  H   -0.000063   0.000006   0.000002  -0.000000   0.000000   0.000000
    25  H   -0.000104   0.000012   0.000001  -0.000002   0.000002   0.000003
    26  H    0.000012  -0.000000   0.000000   0.000000  -0.000000  -0.000000
    27  C    0.000001   0.000000  -0.000001   0.000000  -0.000000  -0.000001
    28  H   -0.000002   0.000000   0.000000  -0.000000   0.000000   0.000000
    29  H    0.000002  -0.000000  -0.000000   0.000000  -0.000000  -0.000000
    30  H    0.000003  -0.000000  -0.000001   0.000000  -0.000000  -0.000001
              13         14         15         16         17         18
     1  C   -0.000868  -0.000047  -0.000066   0.000037   0.003076  -0.000105
     2  C    0.005107  -0.000141  -0.000233   0.000812   0.005108   0.000812
     3  N   -0.000074  -0.000002   0.000008  -0.000001  -0.000385  -0.000008
     4  N   -0.029851  -0.006125  -0.000215  -0.004526  -0.029853  -0.004533
     5  C   -0.000001  -0.000000  -0.000001   0.000000   0.000026   0.000000
     6  H   -0.000000  -0.000000  -0.000000   0.000000   0.000002  -0.000000
     7  H   -0.000001  -0.000000  -0.000001   0.000000   0.000002  -0.000000
     8  H    0.000000   0.000000   0.000000  -0.000000  -0.000001   0.000000
     9  C    0.000026   0.000002   0.000002  -0.000001   0.000203   0.000022
    10  H    0.000000  -0.000000  -0.000000   0.000000   0.000021  -0.000000
    11  H    0.000002   0.000000   0.000000  -0.000000  -0.000038   0.000006
    12  H    0.000001   0.000002   0.000003  -0.000002  -0.000051   0.000012
    13  C   -0.011729   0.008726   0.000880   0.004979   0.002513   0.000920
    14  H    0.008726   0.019139  -0.000258  -0.002118   0.000156   0.000428
    15  H    0.000880  -0.000258   0.001372  -0.000067  -0.000065   0.000019
    16  H    0.004979  -0.002118  -0.000067   0.014001   0.000918  -0.000261
    17  C    0.002513   0.000156  -0.000065   0.000918  -0.011726   0.004986
    18  H    0.000920   0.000428   0.000019  -0.000261   0.004986   0.014024
    19  H    0.000155  -0.000120  -0.000028   0.000427   0.008719  -0.002118
    20  H   -0.000066  -0.000028  -0.000014   0.000019   0.000878  -0.000069
    21  C    0.003070   0.000373  -0.000068  -0.000104  -0.000868   0.000036
    22  N   -0.000385  -0.000026   0.000172  -0.000008  -0.000074  -0.000001
    23  C    0.000026   0.000002   0.000000   0.000000  -0.000001   0.000000
    24  H    0.000002   0.000000   0.000002  -0.000000  -0.000000   0.000000
    25  H    0.000002   0.000000   0.000003  -0.000000  -0.000001   0.000000
    26  H   -0.000001  -0.000000  -0.000002   0.000000   0.000000  -0.000000
    27  C    0.000203  -0.000039  -0.000052   0.000022   0.000026  -0.000001
    28  H    0.000022   0.000006   0.000012  -0.000000   0.000000   0.000000
    29  H   -0.000039  -0.000020  -0.000063   0.000006   0.000002  -0.000000
    30  H   -0.000052  -0.000062  -0.000103   0.000012   0.000001  -0.000002
              19         20         21         22         23         24
     1  C    0.000374  -0.000065   0.061243  -0.005839   0.003072   0.000375
     2  C   -0.000139  -0.000239   0.061216  -0.005840  -0.000867  -0.000047
     3  N   -0.000026   0.000172  -0.005829   0.001887  -0.000386  -0.000026
     4  N   -0.006123  -0.000214  -0.005834   0.001887  -0.000074  -0.000002
     5  C    0.000002   0.000000   0.003075  -0.000385   0.000206  -0.000038
     6  H    0.000000   0.000002   0.000376  -0.000026  -0.000038  -0.000020
     7  H    0.000000   0.000003  -0.000061   0.000174  -0.000053  -0.000063
     8  H   -0.000000  -0.000002  -0.000105  -0.000008   0.000022   0.000006
     9  C   -0.000039  -0.000052  -0.000871  -0.000074   0.000026   0.000002
    10  H    0.000006   0.000012   0.000037  -0.000001  -0.000001  -0.000000
    11  H   -0.000020  -0.000063  -0.000049  -0.000002   0.000002   0.000000
    12  H   -0.000062  -0.000103  -0.000069   0.000008   0.000002   0.000000
    13  C    0.000155  -0.000066   0.003070  -0.000385   0.000026   0.000002
    14  H   -0.000120  -0.000028   0.000373  -0.000026   0.000002   0.000000
    15  H   -0.000028  -0.000014  -0.000068   0.000172   0.000000   0.000002
    16  H    0.000427   0.000019  -0.000104  -0.000008   0.000000  -0.000000
    17  C    0.008719   0.000878  -0.000868  -0.000074  -0.000001  -0.000000
    18  H   -0.002118  -0.000069   0.000036  -0.000001   0.000000   0.000000
    19  H    0.019120  -0.000256  -0.000046  -0.000002  -0.000000  -0.000000
    20  H   -0.000256   0.001366  -0.000064   0.000008  -0.000001  -0.000000
    21  C   -0.000046  -0.000064  -0.085094  -0.070006   0.005110  -0.000139
    22  N   -0.000002   0.000008  -0.070006   0.484268  -0.029851  -0.006119
    23  C   -0.000000  -0.000001   0.005110  -0.029851  -0.011729   0.008709
    24  H   -0.000000  -0.000000  -0.000139  -0.006119   0.008709   0.019113
    25  H   -0.000000  -0.000001  -0.000251  -0.000205   0.000874  -0.000248
    26  H    0.000000   0.000000   0.000816  -0.004550   0.005003  -0.002123
    27  C    0.000002   0.000002   0.005106  -0.029845   0.002514   0.000156
    28  H   -0.000000  -0.000000   0.000812  -0.004526   0.000919   0.000428
    29  H    0.000000   0.000000  -0.000142  -0.006120   0.000155  -0.000121
    30  H    0.000002   0.000003  -0.000230  -0.000216  -0.000065  -0.000028
              25         26         27         28         29         30
     1  C   -0.000059  -0.000106  -0.000870   0.000037  -0.000048  -0.000068
     2  C   -0.000066   0.000037   0.003072  -0.000104   0.000374  -0.000069
     3  N    0.000174  -0.000008  -0.000074  -0.000001  -0.000002   0.000008
     4  N    0.000008  -0.000001  -0.000385  -0.000008  -0.000026   0.000172
     5  C   -0.000054   0.000022   0.000026  -0.000001   0.000002   0.000002
     6  H   -0.000064   0.000006   0.000002  -0.000000   0.000000   0.000000
     7  H   -0.000104   0.000012   0.000001  -0.000002   0.000002   0.000003
     8  H    0.000012  -0.000000   0.000000   0.000000  -0.000000  -0.000000
     9  C    0.000001   0.000000  -0.000001   0.000000  -0.000000  -0.000001
    10  H   -0.000002   0.000000   0.000000  -0.000000   0.000000   0.000000
    11  H    0.000002  -0.000000  -0.000000   0.000000  -0.000000  -0.000000
    12  H    0.000003  -0.000000  -0.000001   0.000000  -0.000000  -0.000001
    13  C    0.000002  -0.000001   0.000203   0.000022  -0.000039  -0.000052
    14  H    0.000000  -0.000000  -0.000039   0.000006  -0.000020  -0.000062
    15  H    0.000003  -0.000002  -0.000052   0.000012  -0.000063  -0.000103
    16  H   -0.000000   0.000000   0.000022  -0.000000   0.000006   0.000012
    17  C   -0.000001   0.000000   0.000026   0.000000   0.000002   0.000001
    18  H    0.000000  -0.000000  -0.000001   0.000000  -0.000000  -0.000002
    19  H   -0.000000   0.000000   0.000002  -0.000000   0.000000   0.000002
    20  H   -0.000001   0.000000   0.000002  -0.000000   0.000000   0.000003
    21  C   -0.000251   0.000816   0.005106   0.000812  -0.000142  -0.000230
    22  N   -0.000205  -0.004550  -0.029845  -0.004526  -0.006120  -0.000216
    23  C    0.000874   0.005003   0.002514   0.000919   0.000155  -0.000065
    24  H   -0.000248  -0.002123   0.000156   0.000428  -0.000121  -0.000028
    25  H    0.001348  -0.000075  -0.000067   0.000019  -0.000029  -0.000014
    26  H   -0.000075   0.014072   0.000922  -0.000261   0.000429   0.000019
    27  C   -0.000067   0.000922  -0.011735   0.004976   0.008724   0.000880
    28  H    0.000019  -0.000261   0.004976   0.013994  -0.002117  -0.000066
    29  H   -0.000029   0.000429   0.008724  -0.002117   0.019140  -0.000259
    30  H   -0.000014   0.000019   0.000880  -0.000066  -0.000259   0.001376
 Mulliken charges and spin densities:
               1          2
     1  C   -0.092763  -0.028534
     2  C   -0.092986  -0.028527
     3  N    0.096556   0.324270
     4  N    0.096573   0.324288
     5  C   -0.278404  -0.016428
     6  H    0.227384   0.019835
     7  H    0.167579   0.001227
     8  H    0.214924   0.014161
     9  C   -0.278682  -0.016437
    10  H    0.214903   0.014113
    11  H    0.227404   0.019859
    12  H    0.167765   0.001250
    13  C   -0.278482  -0.016435
    14  H    0.227376   0.019848
    15  H    0.167674   0.001236
    16  H    0.214884   0.014145
    17  C   -0.278384  -0.016426
    18  H    0.214873   0.014167
    19  H    0.227363   0.019829
    20  H    0.167643   0.001228
    21  C   -0.092836  -0.028560
    22  N    0.096561   0.324293
    23  C   -0.278110  -0.016424
    24  H    0.227333   0.019817
    25  H    0.167490   0.001206
    26  H    0.214885   0.014210
    27  C   -0.278428  -0.016437
    28  H    0.214842   0.014138
    29  H    0.227368   0.019848
    30  H    0.167691   0.001240
 Sum of Mulliken charges =   2.00000   1.00000
 Mulliken charges and spin densities with hydrogens summed into heavy atoms:
               1          2
     1  C   -0.092763  -0.028534
     2  C   -0.092986  -0.028527
     3  N    0.096556   0.324270
     4  N    0.096573   0.324288
     5  C    0.331484   0.018795
     9  C    0.331390   0.018785
    13  C    0.331453   0.018795
    17  C    0.331495   0.018798
    21  C   -0.092836  -0.028560
    22  N    0.096561   0.324293
    23  C    0.331599   0.018809
    27  C    0.331474   0.018788
 Electronic spatial extent (au):  <R**2>=           2550.8354
 Charge=              2.0000 electrons
 Dipole moment (field-independent basis, Debye):
    X=              0.0001    Y=              0.0000    Z=              0.0006  Tot=              0.0006
 Quadrupole moment (field-independent basis, Debye-Ang):
   XX=            -17.5344   YY=            -17.5423   ZZ=            -66.4494
   XY=             -0.0002   XZ=             -0.0013   YZ=              0.0008
 Traceless Quadrupole moment (field-independent basis, Debye-Ang):
   XX=             16.3076   YY=             16.2997   ZZ=            -32.6074
   XY=             -0.0002   XZ=             -0.0013   YZ=              0.0008
 Octapole moment (field-independent basis, Debye-Ang**2):
  XXX=             16.3102  YYY=             28.6313  ZZZ=              0.0022  XYY=            -16.3109
  XXY=            -28.6518  XXZ=              0.0024  XZZ=              0.0051  YZZ=              0.0053
  YYZ=              0.0028  XYZ=              0.0030
 Hexadecapole moment (field-independent basis, Debye-Ang**3):
 XXXX=          -1071.6717 YYYY=          -1071.4671 ZZZZ=           -120.0737 XXXY=             -0.0201
 XXXZ=              8.0859 YYYX=              0.0205 YYYZ=             -4.5861 ZZZX=             -0.0256
 ZZZY=              0.0058 XXYY=           -357.1471 XXZZ=           -244.6474 YYZZ=           -244.6291
 XXYZ=              4.5872 YYXZ=             -8.0535 ZZXY=             -0.0166
 N-N= 7.407629817128D+02 E-N=-2.652432919260D+03  KE= 5.145671126316D+02
                          Isotropic Fermi Contact Couplings
        Atom                 a.u.       MegaHertz       Gauss      10(-4) cm-1
     1  C(13)             -0.01082     -12.16004      -4.33900      -4.05615
     2  C(13)             -0.01082     -12.16109      -4.33938      -4.05650
     3  N(14)              0.03256      10.52151       3.75434       3.50960
     4  N(14)              0.03256      10.52186       3.75446       3.50971
     5  C(13)             -0.00862      -9.68639      -3.45635      -3.23103
     6  H(1)               0.00995      44.48164      15.87216      14.83748
     7  H(1)               0.00074       3.29824       1.17689       1.10017
     8  H(1)               0.00703      31.42992      11.21498      10.48389
     9  C(13)             -0.00862      -9.68750      -3.45674      -3.23140
    10  H(1)               0.00701      31.32616      11.17795      10.44928
    11  H(1)               0.00996      44.52896      15.88904      14.85326
    12  H(1)               0.00075       3.33992       1.19177       1.11408
    13  C(13)             -0.00862      -9.68938      -3.45741      -3.23203
    14  H(1)               0.00996      44.50304      15.87979      14.84462
    15  H(1)               0.00074       3.30911       1.18077       1.10380
    16  H(1)               0.00702      31.39343      11.20196      10.47172
    17  C(13)             -0.00862      -9.68570      -3.45610      -3.23080
    18  H(1)               0.00703      31.43803      11.21787      10.48660
    19  H(1)               0.00995      44.46922      15.86772      14.83333
    20  H(1)               0.00074       3.29458       1.17559       1.09895
    21  C(13)             -0.01082     -12.16210      -4.33974      -4.05684
    22  N(14)              0.03257      10.52236       3.75464       3.50988
    23  C(13)             -0.00862      -9.68867      -3.45716      -3.23179
    24  H(1)               0.00994      44.43875      15.85685      14.82317
    25  H(1)               0.00073       3.25433       1.16122       1.08553
    26  H(1)               0.00705      31.52976      11.25060      10.51719
    27  C(13)             -0.00862      -9.68736      -3.45669      -3.23135
    28  H(1)               0.00702      31.37303      11.19468      10.46492
    29  H(1)               0.00996      44.50171      15.87932      14.84417
    30  H(1)               0.00074       3.31796       1.18393       1.10675
 --------------------------------------------------------
       Center         ----  Spin Dipole Couplings  ----
                      3XX-RR        3YY-RR        3ZZ-RR
 --------------------------------------------------------
     1   Atom        0.020500      0.013306     -0.033806
     2   Atom       -0.002115      0.035926     -0.033811
     3   Atom       -0.393075     -0.386145      0.779220
     4   Atom       -0.371468     -0.407856      0.779324
     5   Atom       -0.010002      0.002622      0.007380
     6   Atom       -0.003730      0.006122     -0.002392
     7   Atom        0.001322      0.002367     -0.003690
     8   Atom       -0.000885      0.003742     -0.002857
     9   Atom        0.001737     -0.009093      0.007356
    10   Atom        0.004673     -0.001804     -0.002869
    11   Atom        0.005955     -0.003571     -0.002384
    12   Atom        0.001375      0.002316     -0.003691
    13   Atom       -0.003323     -0.004035      0.007358
    14   Atom       -0.000059      0.002445     -0.002386
    15   Atom        0.004469     -0.000775     -0.003693
    16   Atom       -0.001957      0.004821     -0.002864
    17   Atom        0.000697     -0.008073      0.007375
    18   Atom       -0.000048      0.002904     -0.002856
    19   Atom        0.003274     -0.000880     -0.002394
    20   Atom        0.004483     -0.000792     -0.003691
    21   Atom        0.032345      0.001463     -0.033807
    22   Atom       -0.404424     -0.374846      0.779270
    23   Atom       -0.009461      0.002079      0.007382
    24   Atom       -0.002308      0.004705     -0.002397
    25   Atom       -0.000308      0.003999     -0.003692
    26   Atom        0.001574      0.001274     -0.002849
    27   Atom       -0.001758     -0.005600      0.007358
    28   Atom        0.005228     -0.002365     -0.002863
    29   Atom        0.004035     -0.001646     -0.002389
    30   Atom       -0.000271      0.003963     -0.003691
 --------------------------------------------------------
                        XY            XZ            YZ
 --------------------------------------------------------
     1   Atom        0.019897      0.012992     -0.015504
     2   Atom       -0.006840     -0.019938     -0.003513
     3   Atom       -0.019046     -0.133403      0.159874
     4   Atom        0.006532      0.204992      0.035667
     5   Atom       -0.001417     -0.004232     -0.003872
     6   Atom        0.000446      0.000868      0.004207
     7   Atom       -0.002745      0.001080     -0.002744
     8   Atom        0.003044     -0.002151     -0.004173
     9   Atom       -0.003540      0.004548      0.003481
    10   Atom        0.002047      0.004480      0.001366
    11   Atom       -0.001316     -0.004296     -0.000098
    12   Atom       -0.002752      0.002512     -0.001552
    13   Atom        0.006461      0.000743     -0.005674
    14   Atom        0.004780      0.002058      0.003773
    15   Atom        0.000971     -0.002594     -0.001397
    16   Atom        0.001782     -0.001055     -0.004569
    17   Atom       -0.004757     -0.001247      0.005600
    18   Atom       -0.003526     -0.002540      0.003949
    19   Atom       -0.004489      0.003210     -0.002855
    20   Atom        0.000922     -0.002916      0.000437
    21   Atom       -0.013055      0.006983      0.018979
    22   Atom        0.012506     -0.071603     -0.195581
    23   Atom       -0.002928     -0.005290      0.002214
    24   Atom       -0.003488      0.002246     -0.003661
    25   Atom        0.001786      0.000088      0.002941
    26   Atom       -0.003816     -0.003444      0.003203
    27   Atom        0.006179      0.005455     -0.001731
    28   Atom        0.000486      0.004684      0.000229
    29   Atom        0.004045     -0.004076     -0.001356
    30   Atom        0.001824      0.001837      0.002308
 --------------------------------------------------------


 ---------------------------------------------------------------------------------
              Anisotropic Spin Dipole Couplings in Principal Axis System
 ---------------------------------------------------------------------------------

       Atom             a.u.   MegaHertz   Gauss  10(-4) cm-1        Axes

              Baa    -0.0439    -5.890    -2.102    -1.965 -0.2863  0.3422  0.8949
     1 C(13)  Bbb     0.0068     0.908     0.324     0.303 -0.5734  0.6871 -0.4462
              Bcc     0.0371     4.981     1.778     1.662  0.7676  0.6409  0.0005
 
              Baa    -0.0439    -5.892    -2.102    -1.965  0.4396  0.0770  0.8949
     2 C(13)  Bbb     0.0068     0.911     0.325     0.304  0.8817  0.1532 -0.4463
              Bcc     0.0371     4.981     1.777     1.661 -0.1715  0.9852 -0.0006
 
              Baa    -0.4090   -15.773    -5.628    -5.261  0.7674  0.6411 -0.0001
     3 N(14)  Bbb    -0.4068   -15.690    -5.598    -5.234 -0.6315  0.7559 -0.1729
              Bcc     0.8158    31.463    11.227    10.495 -0.1108  0.1328  0.9849
 
              Baa    -0.4090   -15.774    -5.629    -5.262 -0.1726  0.9850  0.0002
     4 N(14)  Bbb    -0.4068   -15.691    -5.599    -5.234  0.9702  0.1700 -0.1728
              Bcc     0.8158    31.464    11.227    10.495  0.1702  0.0296  0.9850
 
              Baa    -0.0114    -1.524    -0.544    -0.508  0.9540  0.1659  0.2498
     5 C(13)  Bbb     0.0013     0.179     0.064     0.060 -0.2556  0.8855  0.3881
              Bcc     0.0100     1.345     0.480     0.449 -0.1568 -0.4341  0.8871
 
              Baa    -0.0046    -2.456    -0.876    -0.819 -0.6065 -0.2683  0.7484
     6 H(1)   Bbb    -0.0033    -1.758    -0.627    -0.586  0.7925 -0.2797  0.5419
              Bcc     0.0079     4.214     1.504     1.406  0.0639  0.9218  0.3823
 
              Baa    -0.0047    -2.534    -0.904    -0.845 -0.0040  0.3585  0.9335
     7 H(1)   Bbb    -0.0008    -0.404    -0.144    -0.135  0.8173  0.5391 -0.2035
              Bcc     0.0055     2.938     1.048     0.980 -0.5763  0.7621 -0.2951
 
              Baa    -0.0050    -2.672    -0.953    -0.891  0.2073  0.3615  0.9090
     8 H(1)   Bbb    -0.0024    -1.277    -0.456    -0.426  0.8897 -0.4561 -0.0215
              Bcc     0.0074     3.949     1.409     1.317  0.4068  0.8132 -0.4162
 
              Baa    -0.0113    -1.523    -0.543    -0.508  0.3330  0.9092 -0.2502
     9 C(13)  Bbb     0.0014     0.182     0.065     0.061  0.8257 -0.4092 -0.3883
              Bcc     0.0100     1.341     0.479     0.447  0.4554  0.0773  0.8869
 
              Baa    -0.0050    -2.671    -0.953    -0.891 -0.3920 -0.1375  0.9096
    10 H(1)   Bbb    -0.0024    -1.278    -0.456    -0.426 -0.2897  0.9569  0.0198
              Bcc     0.0074     3.949     1.409     1.317  0.8732  0.2557  0.4149
 
              Baa    -0.0046    -2.454    -0.876    -0.818  0.3729  0.5493  0.7478
    11 H(1)   Bbb    -0.0033    -1.758    -0.627    -0.586 -0.1339  0.8294 -0.5424
              Bcc     0.0079     4.211     1.503     1.405  0.9182 -0.1021 -0.3829
 
              Baa    -0.0048    -2.535    -0.905    -0.846 -0.3522  0.0679  0.9335
    12 H(1)   Bbb    -0.0008    -0.402    -0.144    -0.134  0.6757  0.7085  0.2035
              Bcc     0.0055     2.938     1.048     0.980 -0.6475  0.7024 -0.2954
 
              Baa    -0.0113    -1.523    -0.543    -0.508 -0.6212  0.7428  0.2500
    13 C(13)  Bbb     0.0014     0.182     0.065     0.061  0.7671  0.5109  0.3881
              Bcc     0.0100     1.341     0.478     0.447 -0.1605 -0.4328  0.8871
 
              Baa    -0.0046    -2.455    -0.876    -0.819  0.2892 -0.5970  0.7483
    14 H(1)   Bbb    -0.0033    -1.757    -0.627    -0.586  0.7858 -0.2984 -0.5417
              Bcc     0.0079     4.211     1.503     1.405  0.5467  0.7447  0.3828
 
              Baa    -0.0047    -2.534    -0.904    -0.845  0.2342  0.2709  0.9337
    15 H(1)   Bbb    -0.0008    -0.404    -0.144    -0.135 -0.2756  0.9395 -0.2035
              Bcc     0.0055     2.938     1.048     0.980  0.9323  0.2097 -0.2947
 
              Baa    -0.0050    -2.672    -0.953    -0.891  0.0755  0.4091  0.9094
    16 H(1)   Bbb    -0.0024    -1.278    -0.456    -0.426  0.9737 -0.2270  0.0213
              Bcc     0.0074     3.950     1.409     1.318  0.2151  0.8838 -0.4155
 
              Baa    -0.0114    -1.524    -0.544    -0.508  0.3331  0.9092 -0.2497
    17 C(13)  Bbb     0.0013     0.178     0.064     0.060  0.8944 -0.2208  0.3890
              Bcc     0.0100     1.345     0.480     0.449 -0.2986  0.3529  0.8867
 
              Baa    -0.0050    -2.672    -0.953    -0.891  0.2094 -0.3604  0.9090
    18 H(1)   Bbb    -0.0024    -1.277    -0.456    -0.426  0.8397  0.5427  0.0218
              Bcc     0.0074     3.948     1.409     1.317 -0.5011  0.7587  0.4163
 
              Baa    -0.0046    -2.457    -0.877    -0.819  0.0702  0.6588  0.7490
    19 H(1)   Bbb    -0.0033    -1.757    -0.627    -0.586  0.6385  0.5473 -0.5412
              Bcc     0.0079     4.214     1.504     1.406  0.7664 -0.5162  0.3822
 
              Baa    -0.0047    -2.534    -0.904    -0.845  0.3124 -0.1758  0.9335
    20 H(1)   Bbb    -0.0008    -0.404    -0.144    -0.135 -0.0587  0.9773  0.2037
              Bcc     0.0055     2.937     1.048     0.980  0.9481  0.1184 -0.2950
 
              Baa    -0.0439    -5.889    -2.101    -1.964 -0.1537 -0.4188  0.8950
    21 C(13)  Bbb     0.0068     0.908     0.324     0.303  0.3072  0.8406  0.4461
              Bcc     0.0371     4.982     1.778     1.662  0.9391 -0.3435  0.0005
 
              Baa    -0.4090   -15.774    -5.629    -5.262  0.9389 -0.3441 -0.0001
    22 N(14)  Bbb    -0.4068   -15.691    -5.599    -5.234  0.3389  0.9248  0.1730
              Bcc     0.8158    31.465    11.228    10.496 -0.0595 -0.1624  0.9849
 
              Baa    -0.0114    -1.524    -0.544    -0.508  0.9539  0.1667  0.2496
    23 C(13)  Bbb     0.0013     0.179     0.064     0.060 -0.0592  0.9197 -0.3883
              Bcc     0.0100     1.345     0.480     0.449 -0.2943  0.3556  0.8871
 
              Baa    -0.0046    -2.458    -0.877    -0.820 -0.6606  0.0471  0.7493
    24 H(1)   Bbb    -0.0033    -1.756    -0.627    -0.586  0.6515  0.5319  0.5409
              Bcc     0.0079     4.214     1.504     1.406 -0.3730  0.8455 -0.3821
 
              Baa    -0.0047    -2.532    -0.903    -0.845  0.1176 -0.3380  0.9338
    25 H(1)   Bbb    -0.0008    -0.406    -0.145    -0.135  0.9514 -0.2312 -0.2035
              Bcc     0.0055     2.938     1.048     0.980  0.2847  0.9123  0.2944
 
              Baa    -0.0050    -2.672    -0.953    -0.891  0.3193 -0.2693  0.9086
    26 H(1)   Bbb    -0.0024    -1.277    -0.456    -0.426  0.6825  0.7305 -0.0233
              Bcc     0.0074     3.949     1.409     1.317  0.6575 -0.6275 -0.4170
 
              Baa    -0.0113    -1.523    -0.543    -0.508 -0.6209  0.7430  0.2499
    27 C(13)  Bbb     0.0014     0.181     0.065     0.061  0.6386  0.6643 -0.3885
              Bcc     0.0100     1.341     0.479     0.447  0.4546  0.0817  0.8869
 
              Baa    -0.0050    -2.671    -0.953    -0.891 -0.4160 -0.0023  0.9093
    28 H(1)   Bbb    -0.0024    -1.278    -0.456    -0.426 -0.0509  0.9985 -0.0207
              Bcc     0.0074     3.949     1.409     1.317  0.9079  0.0549  0.4155
 
              Baa    -0.0046    -2.455    -0.876    -0.819  0.5361 -0.3905  0.7484
    29 H(1)   Bbb    -0.0033    -1.757    -0.627    -0.586 -0.1547  0.8262  0.5418
              Bcc     0.0079     4.212     1.503     1.405  0.8299  0.4062 -0.3825
 
              Baa    -0.0047    -2.534    -0.904    -0.845 -0.3085 -0.1827  0.9335
    30 H(1)   Bbb    -0.0008    -0.404    -0.144    -0.135  0.8756 -0.4380  0.2036
              Bcc     0.0055     2.938     1.048     0.980  0.3717  0.8802  0.2951
 

 ---------------------------------------------------------------------------------

 No NMR shielding tensors so no spin-rotation constants.
 Leave Link  601 at Mon Jan 25 21:25:45 2021, MaxMem=  4026531840 cpu:               9.1 elap:               1.9
 (Enter /opt/ohpc/pub/libs/gaussian/g16-A.03/sandybridge/g16/l9999.exe)

 Test job not archived.
 1\1\GINC-CNODE237\SP\ULC-wHPBE\TZVP\C9H18N3(2+,2)\RDU230\25-Jan-2021\0
 \\#P LC-wHPBE/TZVP iop(3/107=0260400000, 3/108=0260400000) scf=(conver
 =6,fermi,ndamp=35,noincfock,novaracc,vshift=500,xqc)\\H18 C9 N3\\2,2\C
 ,0,-0.610862,0.51088,0.000115\C,0,-0.136805,-0.784324,0.000118\N,0,-1.
 625284,1.358829,0.000149\N,0,-0.364248,-2.086765,0.000256\C,0,-1.43024
 7,2.779535,-0.245115\H,0,-1.514482,3.356239,0.681778\H,0,-0.453085,2.9
 53583,-0.69457\H,0,-2.189123,3.132424,-0.948067\C,0,-2.988895,0.914734
 ,0.244915\H,0,-3.47163,1.599951,0.946347\H,0,-3.570653,0.893667,-0.682
 419\H,0,-2.986873,-0.077069,0.695991\C,0,0.701968,-3.045906,0.244739\H
 ,0,1.009895,-3.54009,-0.68252\H,0,1.56061,-2.548225,0.694397\H,0,0.350
 361,-3.805818,0.947208\C,0,-1.692259,-2.627901,-0.244928\H,0,-1.618712
 ,-3.461412,-0.948079\H,0,-2.149477,-2.989362,0.681963\H,0,-2.331523,-1
 .86843,-0.69401\C,0,0.747831,0.27381,0.000062\N,0,1.989493,0.728067,-0
 .000089\C,0,2.287295,2.130832,0.245062\H,0,2.563599,2.644356,-0.681638
 \H,0,1.426241,2.626112,0.692731\H,0,3.119706,2.205914,0.949371\C,0,3.1
 22069,-0.151615,-0.24503\H,0,3.807758,0.3292,-0.947323\H,0,3.663007,-0
 .367678,0.682084\H,0,2.784087,-1.084552,-0.695089\\Version=EM64L-G16Re
 vA.03\State=2-A\HF=-517.0881946\S2=0.779259\S2-1=0.\S2A=0.750531\RMSD=
 6.487e-07\Dipole=0.0000351,-0.0000172,-0.0002425\Quadrupole=12.1243308
 ,12.118452,-24.2427828,0.0001751,0.0009968,0.0006218\PG=C01 [X(C9H18N3
 )]\\@


 WE ARE PERHAPS NOT FAR REMOVED FROM THE TIME WHEN WE SHALL BE ABLE TO SUBMIT
 THE BULK OF CHEMICAL PHENOMENA TO CALCULATION.

            -- JOSEPH LOUIS GAY-LUSSAC
               MEMOIRES DE LA SOCIETE D'ARCUEIL, 2, 207 (1808)
 Job cpu time:       0 days  0 hours 30 minutes 19.7 seconds.
 Elapsed time:       0 days  0 hours  3 minutes 50.2 seconds.
 File lengths (MBytes):  RWF=    112 Int=      0 D2E=      0 Chk=     16 Scr=      8
 Normal termination of Gaussian 16 at Mon Jan 25 21:25:46 2021.
