 Entering Gaussian System, Link 0=g16
 Input=mol_NN_cp_frag_tune_n6.gjf
 Output=mol_NN_cp_frag_tune_n6.log
 Initial command:
 /opt/ohpc/pub/libs/gaussian/g16-A.03/sandybridge/g16/l1.exe "/mnt/gpfs2_4m/scratch/rdu230/ondemand/projects/init_structures/gaussian/wtuning/mol_NN_cp_frag/tuning_mol_NN_cp_frag_ocycle0/Gau-16891.inp" -scrdir="/mnt/gpfs2_4m/scratch/rdu230/ondemand/projects/init_structures/gaussian/wtuning/mol_NN_cp_frag/tuning_mol_NN_cp_frag_ocycle0/"
 Entering Link 1 = /opt/ohpc/pub/libs/gaussian/g16-A.03/sandybridge/g16/l1.exe PID=     16892.
  
 Copyright (c) 1988,1990,1992,1993,1995,1998,2003,2009,2016,
            Gaussian, Inc.  All Rights Reserved.
  
 This is part of the Gaussian(R) 16 program.  It is based on
 the Gaussian(R) 09 system (copyright 2009, Gaussian, Inc.),
 the Gaussian(R) 03 system (copyright 2003, Gaussian, Inc.),
 the Gaussian(R) 98 system (copyright 1998, Gaussian, Inc.),
 the Gaussian(R) 94 system (copyright 1995, Gaussian, Inc.),
 the Gaussian 92(TM) system (copyright 1992, Gaussian, Inc.),
 the Gaussian 90(TM) system (copyright 1990, Gaussian, Inc.),
 the Gaussian 88(TM) system (copyright 1988, Gaussian, Inc.),
 the Gaussian 86(TM) system (copyright 1986, Carnegie Mellon
 University), and the Gaussian 82(TM) system (copyright 1983,
 Carnegie Mellon University). Gaussian is a federally registered
 trademark of Gaussian, Inc.
  
 This software contains proprietary and confidential information,
 including trade secrets, belonging to Gaussian, Inc.
  
 This software is provided under written license and may be
 used, copied, transmitted, or stored only in accord with that
 written license.
  
 The following legend is applicable only to US Government
 contracts under FAR:
  
                    RESTRICTED RIGHTS LEGEND
  
 Use, reproduction and disclosure by the US Government is
 subject to restrictions as set forth in subparagraphs (a)
 and (c) of the Commercial Computer Software - Restricted
 Rights clause in FAR 52.227-19.
  
 Gaussian, Inc.
 340 Quinnipiac St., Bldg. 40, Wallingford CT 06492
  
  
 ---------------------------------------------------------------
 Warning -- This program may not be used in any manner that
 competes with the business of Gaussian, Inc. or will provide
 assistance to any competitor of Gaussian, Inc.  The licensee
 of this program is prohibited from giving any competitor of
 Gaussian, Inc. access to this program.  By using this program,
 the user acknowledges that Gaussian, Inc. is engaged in the
 business of creating and licensing software in the field of
 computational chemistry and represents and warrants to the
 licensee that it is not a competitor of Gaussian, Inc. and that
 it will not use this program in any manner prohibited above.
 ---------------------------------------------------------------
  

 Cite this work as:
 Gaussian 16, Revision A.03,
 M. J. Frisch, G. W. Trucks, H. B. Schlegel, G. E. Scuseria, 
 M. A. Robb, J. R. Cheeseman, G. Scalmani, V. Barone, 
 G. A. Petersson, H. Nakatsuji, X. Li, M. Caricato, A. V. Marenich, 
 J. Bloino, B. G. Janesko, R. Gomperts, B. Mennucci, H. P. Hratchian, 
 J. V. Ortiz, A. F. Izmaylov, J. L. Sonnenberg, D. Williams-Young, 
 F. Ding, F. Lipparini, F. Egidi, J. Goings, B. Peng, A. Petrone, 
 T. Henderson, D. Ranasinghe, V. G. Zakrzewski, J. Gao, N. Rega, 
 G. Zheng, W. Liang, M. Hada, M. Ehara, K. Toyota, R. Fukuda, 
 J. Hasegawa, M. Ishida, T. Nakajima, Y. Honda, O. Kitao, H. Nakai, 
 T. Vreven, K. Throssell, J. A. Montgomery, Jr., J. E. Peralta, 
 F. Ogliaro, M. J. Bearpark, J. J. Heyd, E. N. Brothers, K. N. Kudin, 
 V. N. Staroverov, T. A. Keith, R. Kobayashi, J. Normand, 
 K. Raghavachari, A. P. Rendell, J. C. Burant, S. S. Iyengar, 
 J. Tomasi, M. Cossi, J. M. Millam, M. Klene, C. Adamo, R. Cammi, 
 J. W. Ochterski, R. L. Martin, K. Morokuma, O. Farkas, 
 J. B. Foresman, and D. J. Fox, Gaussian, Inc., Wallingford CT, 2016.
 
 ******************************************
 Gaussian 16:  EM64L-G16RevA.03 25-Dec-2016
                25-Jan-2021 
 ******************************************
 %mem=30GB
 %nproc=8
 Will use up to    8 processors via shared memory.
 ----------------------------------------------------------------------
 #P LC-wHPBE/TZVP iop(3/107=0236900000, 3/108=0236900000) scf=(conver=6
 ,fermi,ndamp=35,noincfock,novaracc,vshift=500,xqc)
 ----------------------------------------------------------------------
 1/38=1,172=1/1;
 2/12=2,17=6,18=5,40=1/2;
 3/5=19,7=101,11=2,25=1,30=1,74=-71,107=236900000,108=236900000/1,2,3;
 4//1;
 5/5=100002,6=6,8=3,10=500,13=1,18=-1,22=13,38=1,93=35/2,8;
 6/7=2,8=2,9=2,10=2,28=1/1;
 99/5=1,9=1/99;
 Leave Link    1 at Mon Jan 25 21:31:46 2021, MaxMem=  4026531840 cpu:               1.3 elap:               0.3
 (Enter /opt/ohpc/pub/libs/gaussian/g16-A.03/sandybridge/g16/l101.exe)
 ---------
 H18 C9 N3
 ---------
 Symbolic Z-matrix:
 Charge =  1 Multiplicity = 1
 C                    -0.61086   0.51088   0.00012 
 C                    -0.13681  -0.78432   0.00012 
 N                    -1.62528   1.35883   0.00015 
 N                    -0.36425  -2.08677   0.00026 
 C                    -1.43025   2.77954  -0.24512 
 H                    -1.51448   3.35624   0.68178 
 H                    -0.45309   2.95358  -0.69457 
 H                    -2.18912   3.13242  -0.94807 
 C                    -2.9889    0.91473   0.24492 
 H                    -3.47163   1.59995   0.94635 
 H                    -3.57065   0.89367  -0.68242 
 H                    -2.98687  -0.07707   0.69599 
 C                     0.70197  -3.04591   0.24474 
 H                     1.00989  -3.54009  -0.68252 
 H                     1.56061  -2.54823   0.6944 
 H                     0.35036  -3.80582   0.94721 
 C                    -1.69226  -2.6279   -0.24493 
 H                    -1.61871  -3.46141  -0.94808 
 H                    -2.14948  -2.98936   0.68196 
 H                    -2.33152  -1.86843  -0.69401 
 C                     0.74783   0.27381   0.00006 
 N                     1.98949   0.72807  -0.00009 
 C                     2.2873    2.13083   0.24506 
 H                     2.5636    2.64436  -0.68164 
 H                     1.42624   2.62611   0.69273 
 H                     3.11971   2.20591   0.94937 
 C                     3.12207  -0.15162  -0.24503 
 H                     3.80776   0.3292   -0.94732 
 H                     3.66301  -0.36768   0.68208 
 H                     2.78409  -1.08455  -0.69509 
 
 ITRead=  0  0  0  0  0  0  0  0  0  0  0  0  0  0  0  0  0  0  0  0
 ITRead=  0  0  0  0  0  0  0  0  0  0
 MicOpt= -1 -1 -1 -1 -1 -1 -1 -1 -1 -1 -1 -1 -1 -1 -1 -1 -1 -1 -1 -1
 MicOpt= -1 -1 -1 -1 -1 -1 -1 -1 -1 -1
 NAtoms=     30 NQM=       30 NQMF=       0 NMMI=      0 NMMIF=      0
                NMic=       0 NMicF=      0.
                    Isotopes and Nuclear Properties:
 (Nuclear quadrupole moments (NQMom) in fm**2, nuclear magnetic moments (NMagM)
  in nuclear magnetons)

  Atom         1           2           3           4           5           6           7           8           9          10
 IAtWgt=          12          12          14          14          12           1           1           1          12           1
 AtmWgt=  12.0000000  12.0000000  14.0030740  14.0030740  12.0000000   1.0078250   1.0078250   1.0078250  12.0000000   1.0078250
 NucSpn=           0           0           2           2           0           1           1           1           0           1
 AtZEff=  -0.0000000  -0.0000000  -0.0000000  -0.0000000  -0.0000000  -0.0000000  -0.0000000  -0.0000000  -0.0000000  -0.0000000
 NQMom=    0.0000000   0.0000000   2.0440000   2.0440000   0.0000000   0.0000000   0.0000000   0.0000000   0.0000000   0.0000000
 NMagM=    0.0000000   0.0000000   0.4037610   0.4037610   0.0000000   2.7928460   2.7928460   2.7928460   0.0000000   2.7928460
 AtZNuc=   6.0000000   6.0000000   7.0000000   7.0000000   6.0000000   1.0000000   1.0000000   1.0000000   6.0000000   1.0000000

  Atom        11          12          13          14          15          16          17          18          19          20
 IAtWgt=           1           1          12           1           1           1          12           1           1           1
 AtmWgt=   1.0078250   1.0078250  12.0000000   1.0078250   1.0078250   1.0078250  12.0000000   1.0078250   1.0078250   1.0078250
 NucSpn=           1           1           0           1           1           1           0           1           1           1
 AtZEff=  -0.0000000  -0.0000000  -0.0000000  -0.0000000  -0.0000000  -0.0000000  -0.0000000  -0.0000000  -0.0000000  -0.0000000
 NQMom=    0.0000000   0.0000000   0.0000000   0.0000000   0.0000000   0.0000000   0.0000000   0.0000000   0.0000000   0.0000000
 NMagM=    2.7928460   2.7928460   0.0000000   2.7928460   2.7928460   2.7928460   0.0000000   2.7928460   2.7928460   2.7928460
 AtZNuc=   1.0000000   1.0000000   6.0000000   1.0000000   1.0000000   1.0000000   6.0000000   1.0000000   1.0000000   1.0000000

  Atom        21          22          23          24          25          26          27          28          29          30
 IAtWgt=          12          14          12           1           1           1          12           1           1           1
 AtmWgt=  12.0000000  14.0030740  12.0000000   1.0078250   1.0078250   1.0078250  12.0000000   1.0078250   1.0078250   1.0078250
 NucSpn=           0           2           0           1           1           1           0           1           1           1
 AtZEff=  -0.0000000  -0.0000000  -0.0000000  -0.0000000  -0.0000000  -0.0000000  -0.0000000  -0.0000000  -0.0000000  -0.0000000
 NQMom=    0.0000000   2.0440000   0.0000000   0.0000000   0.0000000   0.0000000   0.0000000   0.0000000   0.0000000   0.0000000
 NMagM=    0.0000000   0.4037610   0.0000000   2.7928460   2.7928460   2.7928460   0.0000000   2.7928460   2.7928460   2.7928460
 AtZNuc=   6.0000000   7.0000000   6.0000000   1.0000000   1.0000000   1.0000000   6.0000000   1.0000000   1.0000000   1.0000000
 Leave Link  101 at Mon Jan 25 21:31:46 2021, MaxMem=  4026531840 cpu:               0.9 elap:               0.2
 (Enter /opt/ohpc/pub/libs/gaussian/g16-A.03/sandybridge/g16/l202.exe)
                          Input orientation:                          
 ---------------------------------------------------------------------
 Center     Atomic      Atomic             Coordinates (Angstroms)
 Number     Number       Type             X           Y           Z
 ---------------------------------------------------------------------
      1          6           0       -0.610862    0.510880    0.000115
      2          6           0       -0.136805   -0.784324    0.000118
      3          7           0       -1.625284    1.358829    0.000149
      4          7           0       -0.364248   -2.086765    0.000256
      5          6           0       -1.430247    2.779535   -0.245115
      6          1           0       -1.514482    3.356239    0.681778
      7          1           0       -0.453085    2.953583   -0.694570
      8          1           0       -2.189123    3.132424   -0.948067
      9          6           0       -2.988895    0.914734    0.244915
     10          1           0       -3.471630    1.599951    0.946347
     11          1           0       -3.570653    0.893667   -0.682419
     12          1           0       -2.986873   -0.077069    0.695991
     13          6           0        0.701968   -3.045906    0.244739
     14          1           0        1.009895   -3.540090   -0.682520
     15          1           0        1.560610   -2.548225    0.694397
     16          1           0        0.350361   -3.805818    0.947208
     17          6           0       -1.692259   -2.627901   -0.244928
     18          1           0       -1.618712   -3.461412   -0.948079
     19          1           0       -2.149477   -2.989362    0.681963
     20          1           0       -2.331523   -1.868430   -0.694010
     21          6           0        0.747831    0.273810    0.000062
     22          7           0        1.989493    0.728067   -0.000089
     23          6           0        2.287295    2.130832    0.245062
     24          1           0        2.563599    2.644356   -0.681638
     25          1           0        1.426241    2.626112    0.692731
     26          1           0        3.119706    2.205914    0.949371
     27          6           0        3.122069   -0.151615   -0.245030
     28          1           0        3.807758    0.329200   -0.947323
     29          1           0        3.663007   -0.367678    0.682084
     30          1           0        2.784087   -1.084552   -0.695089
 ---------------------------------------------------------------------
                    Distance matrix (angstroms):
                    1          2          3          4          5
     1  C    0.000000
     2  C    1.379233   0.000000
     3  N    1.322146   2.609344   0.000000
     4  N    2.609325   1.322151   3.669105   0.000000
     5  C    2.424526   3.799240   1.454854   4.987729   0.000000
     6  H    3.062231   4.416663   2.113419   5.604802   1.094903
     7  H    2.544460   3.815046   2.097600   5.088790   1.089563
     8  H    3.203506   4.522386   2.088700   5.609761   1.092962
     9  C    2.424472   3.328835   1.454842   3.994700   2.479314
    10  H    3.203970   4.207276   2.088642   4.913531   2.641637
    11  H    3.061493   3.882373   2.113465   4.430582   2.886013
    12  H    2.544672   3.017836   2.097600   3.376550   3.386584
    13  C    3.799222   2.424486   4.987747   1.454833   6.222705
    14  H    4.416243   3.061889   5.604428   2.113435   6.788466
    15  H    3.815159   2.544521   5.088907   2.097583   6.181661
    16  H    4.522700   3.203707   5.610140   2.088666   6.925249
    17  C    3.328875   2.424512   3.994817   1.454839   5.413780
    18  H    4.206416   3.203424   4.912627   2.088701   6.283239
    19  H    3.883806   3.062344   4.432428   2.113397   5.887014
    20  H    3.017217   2.544383   3.375771   2.097581   4.755774
    21  C    1.379220   1.379213   2.609395   2.609413   3.329083
    22  N    2.609409   2.609304   3.669397   3.669247   3.995395
    23  C    3.329198   3.799262   3.995528   4.987859   3.805418
    24  H    3.885062   4.417332   4.434428   5.605424   4.019904
    25  H    3.017236   3.814957   3.376016   5.088868   3.010418
    26  H    4.206110   4.521888   4.912586   5.609443   4.738978
    27  C    3.799180   3.328765   4.987877   3.994919   5.414353
    28  H    4.522704   4.206799   5.610328   4.913291   5.825284
    29  H    4.416209   3.882943   5.604631   4.431584   6.058538
    30  H    3.815022   3.017459   5.088813   3.376381   5.735351
                    6          7          8          9         10
     6  H    0.000000
     7  H    1.784105   0.000000
     8  H    1.778097   1.763540   0.000000
     9  C    2.885427   3.386720   2.642156   0.000000
    10  H    2.642910   3.692769   2.753562   1.092960   0.000000
    11  H    3.486134   3.736661   2.644093   1.094913   1.778067
    12  H    3.735738   4.187910   3.693261   1.089563   1.763537
    13  C    6.789044   6.181449   6.924807   5.413792   6.284518
    14  H    7.469481   6.656444   7.404504   6.057715   7.011226
    15  H    6.657255   6.021137   7.001997   5.735165   6.526430
    16  H    7.405616   7.002176   7.627598   5.824728   6.620420
    17  C    6.058079   5.735041   5.824313   3.804139   4.739201
    18  H    7.010539   6.524961   6.618462   4.738279   5.713103
    19  H    6.377293   6.331760   6.335206   4.017163   4.783281
    20  H    5.464203   5.174972   5.009328   3.009937   4.002534
    21  C    3.883834   3.017598   4.206700   3.799192   4.523047
    22  N    4.432840   3.376598   4.913291   4.987907   5.610685
    23  C    4.018190   3.011563   4.739732   5.414524   5.825706
    24  H    4.358489   3.032519   4.785140   5.888997   6.337595
    25  H    3.030026   2.358751   4.002428   4.756341   5.010635
    26  H    4.782317   4.003297   5.713349   6.283185   6.619132
    27  C    5.887412   4.756687   6.283943   6.222622   6.925621
    28  H    6.335864   5.010594   6.619717   6.925227   7.628256
    29  H    6.377613   5.465177   7.011101   6.788483   7.405703
    30  H    6.331989   5.175502   6.525312   6.181268   7.002490
                   11         12         13         14         15
    11  H    0.000000
    12  H    1.784136   0.000000
    13  C    5.885163   4.756592   0.000000
    14  H    6.374921   5.465067   1.094918   0.000000
    15  H    6.330253   5.175540   1.089562   1.784092   0.000000
    16  H    6.333656   5.010370   1.092958   1.778092   1.763563
    17  C    4.015122   3.011328   2.479279   2.885344   3.386715
    18  H    4.779891   4.003574   2.642161   2.643158   3.693200
    19  H    4.354216   3.030327   2.885325   3.485218   3.736242
    20  H    3.027335   2.360204   3.386704   3.736262   4.187899
    21  C    4.415802   3.815160   3.329037   3.883353   3.017713
    22  N    5.604304   5.088909   3.995064   4.431985   3.376439
    23  C    6.058577   5.735417   5.414045   5.886554   4.756422
    24  H    6.379182   6.333384   6.058294   6.376627   5.464646
    25  H    5.464554   5.175208   5.735596   6.331406   5.176082
    26  H    7.010395   6.524302   5.824395   6.334898   5.009753
    27  C    6.787964   6.181444   3.804429   4.016770   3.010717
    28  H    7.404711   7.002324   4.739017   4.782213   4.003060
    29  H    7.468514   6.656242   4.016457   4.354922   3.029028
    30  H    6.655541   6.021138   3.010881   3.029452   2.360065
                   16         17         18         19         20
    16  H    0.000000
    17  C    2.642153   0.000000
    18  H    2.754628   1.092964   0.000000
    19  H    2.643132   1.094911   1.778083   0.000000
    20  H    3.693179   1.089555   1.763588   1.784077   0.000000
    21  C    4.206951   3.799209   4.522320   4.416749   3.814885
    22  N    4.913272   4.987762   5.609774   5.604957   5.088664
    23  C    6.283990   6.222739   6.924859   6.789125   6.181378
    24  H    7.011156   6.789679   7.405614   7.470694   6.657898
    25  H    6.526255   6.181335   7.001567   6.657283   6.020361
    26  H    6.618927   6.924386   7.627025   7.404505   7.001205
    27  C    4.738881   5.413848   5.824435   6.058162   5.735042
    28  H    5.713249   6.283947   6.619314   7.011139   6.525681
    29  H    4.781707   5.886156   6.334444   6.376378   6.330899
    30  H    4.003180   4.756285   5.009801   5.464854   5.175319
                   21         22         23         24         25
    21  C    0.000000
    22  N    1.322147   0.000000
    23  C    2.424563   1.454831   0.000000
    24  H    3.062877   2.113355   1.094908   0.000000
    25  H    2.544279   2.097577   1.089552   1.784042   0.000000
    26  H    3.203124   2.088753   1.092976   1.778110   1.763591
    27  C    2.424472   1.454842   2.479234   2.884436   3.386886
    28  H    3.203710   2.088644   2.641868   2.641679   3.692859
    29  H    3.061848   2.113449   2.885502   3.484363   3.737113
    30  H    2.544547   2.097616   3.386647   3.735445   4.187937
                   26         27         28         29         30
    26  H    0.000000
    27  C    2.642828   0.000000
    28  H    2.755525   1.092963   0.000000
    29  H    2.643860   1.094914   1.778077   0.000000
    30  H    3.693786   1.089567   1.763581   1.784100   0.000000
 Stoichiometry    C9H18N3(1+)
 Framework group  C1[X(C9H18N3)]
 Deg. of freedom    84
 Full point group                 C1      NOp   1
 Largest Abelian subgroup         C1      NOp   1
 Largest concise Abelian subgroup C1      NOp   1
                         Standard orientation:                         
 ---------------------------------------------------------------------
 Center     Atomic      Atomic             Coordinates (Angstroms)
 Number     Number       Type             X           Y           Z
 ---------------------------------------------------------------------
      1          6           0       -0.610975   -0.510745   -0.000115
      2          6           0       -0.136632    0.784354   -0.000118
      3          7           0       -1.625585   -1.358470   -0.000149
      4          7           0       -0.363786    2.086845   -0.000256
      5          6           0       -1.430862   -2.779219    0.245115
      6          1           0       -1.515224   -3.355904   -0.681778
      7          1           0       -0.453738   -2.953483    0.694570
      8          1           0       -2.189816   -3.131940    0.948067
      9          6           0       -2.989097   -0.914073   -0.244915
     10          1           0       -3.471984   -1.599183   -0.946347
     11          1           0       -3.570851   -0.892877    0.682419
     12          1           0       -2.986856    0.077730   -0.695991
     13          6           0        0.702642    3.045751   -0.244739
     14          1           0        1.010678    3.539867    0.682520
     15          1           0        1.561174    2.547880   -0.694397
     16          1           0        0.351203    3.805740   -0.947208
     17          6           0       -1.691678    2.628275    0.244928
     18          1           0       -1.617946    3.461770    0.948079
     19          1           0       -2.148816    2.989837   -0.681963
     20          1           0       -2.331110    1.868946    0.694010
     21          6           0        0.747770   -0.273975   -0.000062
     22          7           0        1.989332   -0.728507    0.000089
     23          6           0        2.286824   -2.131338   -0.245062
     24          1           0        2.563014   -2.644923    0.681638
     25          1           0        1.425660   -2.626427   -0.692731
     26          1           0        3.119218   -2.206604   -0.949371
     27          6           0        3.122102    0.150924    0.245030
     28          1           0        3.807685   -0.330042    0.947323
     29          1           0        3.663088    0.366868   -0.682084
     30          1           0        2.784327    1.083936    0.695089
 ---------------------------------------------------------------------
 Rotational constants (GHZ):           0.8639071           0.8637633           0.4436577
 Leave Link  202 at Mon Jan 25 21:31:46 2021, MaxMem=  4026531840 cpu:               0.3 elap:               0.1
 (Enter /opt/ohpc/pub/libs/gaussian/g16-A.03/sandybridge/g16/l301.exe)
 Standard basis: TZVP (5D, 7F)
 Ernie: Thresh=  0.10000D-02 Tol=  0.10000D-05 Strict=F.
 There are   348 symmetry adapted cartesian basis functions of A   symmetry.
 There are   336 symmetry adapted basis functions of A   symmetry.
   336 basis functions,   564 primitive gaussians,   348 cartesian basis functions
    46 alpha electrons       46 beta electrons
       nuclear repulsion energy       740.7629817128 Hartrees.
 IExCor=33909 DFT=T Ex+Corr=LC-wHPBE ExCW=0 ScaHFX=  1.000000
 ScaDFX=  1.000000  1.000000  1.000000  1.000000 ScalE2=  1.000000  1.000000
 IRadAn=      5 IRanWt=     -1 IRanGd=            0 ICorTp=0 IEmpDi=  4
 HFx  wShort=  0.000000 wLong=  0.236900 cFull=  0.000000 cShort=  0.000000 cLong=  1.000000
 DFx  wShort=  0.000000 wLong=  0.236900 cFull=  0.000000 cShort=  1.000000 cLong=  0.000000
 NAtoms=   30 NActive=   30 NUniq=   30 SFac= 1.00D+00 NAtFMM=   60 NAOKFM=F Big=F
 Integral buffers will be    131072 words long.
 Raffenetti 2 integral format.
 Two-electron integral symmetry is turned on.
 Leave Link  301 at Mon Jan 25 21:31:46 2021, MaxMem=  4026531840 cpu:               0.4 elap:               0.1
 (Enter /opt/ohpc/pub/libs/gaussian/g16-A.03/sandybridge/g16/l302.exe)
 NPDir=0 NMtPBC=     1 NCelOv=     1 NCel=       1 NClECP=     1 NCelD=      1
         NCelK=      1 NCelE2=     1 NClLst=     1 CellRange=     0.0.
 One-electron integrals computed using PRISM.
 One-electron integral symmetry used in STVInt
 NBasis=   336 RedAO= T EigKep=  2.74D-05  NBF=   336
 NBsUse=   336 1.00D-06 EigRej= -1.00D+00 NBFU=   336
 Precomputing XC quadrature grid using
 IXCGrd= 4 IRadAn=           5 IRanWt=          -1 IRanGd=           0 AccXCQ= 0.00D+00.
 Generated NRdTot=       0 NPtTot=           0 NUsed=           0 NTot=          32
 NSgBfM=   343   343   343   343   343 MxSgAt=    30 MxSgA2=    30.
 Leave Link  302 at Mon Jan 25 21:31:47 2021, MaxMem=  4026531840 cpu:               4.8 elap:               0.7
 (Enter /opt/ohpc/pub/libs/gaussian/g16-A.03/sandybridge/g16/l303.exe)
 DipDrv:  MaxL=1.
 Leave Link  303 at Mon Jan 25 21:31:47 2021, MaxMem=  4026531840 cpu:               1.0 elap:               0.2
 (Enter /opt/ohpc/pub/libs/gaussian/g16-A.03/sandybridge/g16/l401.exe)
 ExpMin= 9.52D-02 ExpMax= 1.97D+04 ExpMxC= 6.73D+02 IAcc=3 IRadAn=         5 AccDes= 0.00D+00
 Harris functional with IExCor=33909 and IRadAn=       5 diagonalized for initial guess.
 HarFok:  IExCor=33909 AccDes= 0.00D+00 IRadAn=         5 IDoV= 1 UseB2=F ITyADJ=14
 ICtDFT=  3500011 ScaDFX=  1.000000  1.000000  1.000000  1.000000
 FoFCou: FMM=F IPFlag=           0 FMFlag=      100000 FMFlg1=           0
         NFxFlg=           0 DoJE=T BraDBF=F KetDBF=T FulRan=T
         wScrn=  0.000000 ICntrl=       500 IOpCl=  0 I1Cent=   200000004 NGrid=           0
         NMat0=    1 NMatS0=      1 NMatT0=    0 NMatD0=    1 NMtDS0=    0 NMtDT0=    0
 Petite list used in FoFCou.
 Harris En= -506.020476983856    
 JPrj=0 DoOrth=F DoCkMO=F.
 Leave Link  401 at Mon Jan 25 21:31:51 2021, MaxMem=  4026531840 cpu:              27.1 elap:               4.1
 (Enter /opt/ohpc/pub/libs/gaussian/g16-A.03/sandybridge/g16/l502.exe)
 Integral symmetry usage will be decided dynamically.
 Closed shell SCF:
 Using DIIS extrapolation, IDIIS=    10.
 NGot=  4026531840 LenX=  4026283142 LenY=  4026161597
 Requested convergence on RMS density matrix=1.00D-06 within  32 cycles.
 Requested convergence on MAX density matrix=1.00D-04.
 Requested convergence on             energy=1.00D-04.
 Virtual orbitals will be shifted by   0.500 hartree.
 No special actions if energy rises.
 Dynamic level shift is on during FON iterations.

 Cycle   1  Pass 1  IDiag  1:
 FoFJK:  IHMeth= 1 ICntrl=       0 DoSepK=T KAlg= 0 I1Cent=           0 FoldK=F
 IRaf=         1 NMat=       1 IRICut=       1 DoRegI=T DoRafI=F ISym2E= 0 IDoP0=0 IntGTp=1.
 FoFCou: FMM=F IPFlag=           0 FMFlag=      100000 FMFlg1=           0
         NFxFlg=           0 DoJE=T BraDBF=F KetDBF=F FulRan=T
         wScrn=  0.000000 ICntrl=       500 IOpCl=  0 I1Cent=           0 NGrid=           0
         NMat0=    1 NMatS0=      1 NMatT0=    0 NMatD0=    1 NMtDS0=    0 NMtDT0=    0
 Symmetry not used in FoFCou.
 E= -517.309340124489    
 DIIS: error= 3.27D-02 at cycle   1 NSaved=   1.
 NSaved= 1 IEnMin= 1 EnMin= -517.309340124489     IErMin= 1 ErrMin= 3.27D-02
 ErrMax= 3.27D-02  0.00D+00 EMaxC= 1.00D+00 BMatC= 1.83D-01 BMatP= 1.83D-01
 IDIUse=1 WtCom= 1.00D+00 WtEn= 0.00D+00
 Coeff-Com:  0.100D+01
 Coeff:      0.100D+01
 Gap=     0.361 Goal=   None    Shift=    0.500
 T= 1548. Gap= 0.849 NK=0 IS=   47 IE=  336 IFin=   46
          NO(<0.9)=   0  NV(>0.1)=   0     46.00e < EF      0.00e >EF  Err=0.0D+00
 GapD=    0.361 DampG=1.000 DampE=0.500 DampFc=0.5000 IDamp=-1.
 Damping current iteration by 5.00D-01
 RMSDP=1.64D-03 MaxDP=3.74D-02              OVMax= 5.19D-02

 Cycle   2  Pass 1  IDiag  1:
 E= -517.409177117851     Delta-E=       -0.099836993363 Rises=F Damp=T
 DIIS: error= 1.37D-02 at cycle   2 NSaved=   2.
 NSaved= 2 IEnMin= 2 EnMin= -517.409177117851     IErMin= 2 ErrMin= 1.37D-02
 ErrMax= 1.37D-02  0.00D+00 EMaxC= 1.00D+00 BMatC= 3.36D-02 BMatP= 1.83D-01
 IDIUse=1 WtCom= 1.00D+00 WtEn= 0.00D+00
 Coeff-Com: -0.638D+00 0.164D+01
 Coeff:     -0.638D+00 0.164D+01
 Gap=     0.358 Goal=   None    Shift=    0.500
 T= 1419. Gap= 0.856 NK=0 IS=   47 IE=  336 IFin=   46
          NO(<0.9)=   0  NV(>0.1)=   0     46.00e < EF      0.00e >EF  Err=0.0D+00
 GapD=    0.358 DampG=1.000 DampE=0.500 DampFc=0.5000 IDamp=-1.
 Damping current iteration by 5.00D-01
 RMSDP=1.12D-03 MaxDP=2.23D-02 DE=-9.98D-02 OVMax= 7.95D-03

 Cycle   3  Pass 1  IDiag  1:
 E= -517.444610933433     Delta-E=       -0.035433815582 Rises=F Damp=T
 DIIS: error= 6.04D-03 at cycle   3 NSaved=   3.
 NSaved= 3 IEnMin= 3 EnMin= -517.444610933433     IErMin= 3 ErrMin= 6.04D-03
 ErrMax= 6.04D-03  0.00D+00 EMaxC= 1.00D+00 BMatC= 7.01D-03 BMatP= 3.36D-02
 IDIUse=1 WtCom= 1.00D+00 WtEn= 0.00D+00
 Coeff-Com:  0.115D+00-0.118D+01 0.207D+01
 Coeff:      0.115D+00-0.118D+01 0.207D+01
 Gap=     0.362 Goal=   None    Shift=    0.500
 T= 1172. Gap= 0.860 NK=0 IS=   47 IE=  336 IFin=   46
          NO(<0.9)=   0  NV(>0.1)=   0     46.00e < EF      0.00e >EF  Err=0.0D+00
 GapD=    0.362 DampG=1.000 DampE=1.000 DampFc=1.0000 IDamp=-1.
 RMSDP=7.06D-04 MaxDP=1.53D-02 DE=-3.54D-02 OVMax= 2.57D-03

 Cycle   4  Pass 1  IDiag  1:
 E= -517.474446145541     Delta-E=       -0.029835212108 Rises=F Damp=F
 DIIS: error= 4.98D-04 at cycle   4 NSaved=   4.
 NSaved= 4 IEnMin= 4 EnMin= -517.474446145541     IErMin= 4 ErrMin= 4.98D-04
 ErrMax= 4.98D-04  0.00D+00 EMaxC= 1.00D+00 BMatC= 1.16D-04 BMatP= 7.01D-03
 IDIUse=1 WtCom= 1.00D+00 WtEn= 0.00D+00
 Coeff-Com:  0.684D-01-0.176D+00 0.108D+00 0.100D+01
 Coeff:      0.684D-01-0.176D+00 0.108D+00 0.100D+01
 Gap=     0.359 Goal=   None    Shift=    0.500
 RMSDP=7.29D-05 MaxDP=1.78D-03 DE=-2.98D-02 OVMax= 1.22D-03

 Cycle   5  Pass 1  IDiag  1:
 E= -517.474571938362     Delta-E=       -0.000125792821 Rises=F Damp=F
 DIIS: error= 1.65D-04 at cycle   5 NSaved=   5.
 NSaved= 5 IEnMin= 5 EnMin= -517.474571938362     IErMin= 5 ErrMin= 1.65D-04
 ErrMax= 1.65D-04  0.00D+00 EMaxC= 1.00D+00 BMatC= 1.40D-05 BMatP= 1.16D-04
 IDIUse=1 WtCom= 1.00D+00 WtEn= 0.00D+00
 Coeff-Com:  0.129D-02 0.108D+00-0.230D+00-0.146D-01 0.114D+01
 Coeff:      0.129D-02 0.108D+00-0.230D+00-0.146D-01 0.114D+01
 Gap=     0.360 Goal=   None    Shift=    0.500
 RMSDP=3.93D-05 MaxDP=1.37D-03 DE=-1.26D-04 OVMax= 9.03D-04

 Cycle   6  Pass 1  IDiag  1:
 E= -517.474597847766     Delta-E=       -0.000025909404 Rises=F Damp=F
 DIIS: error= 8.72D-05 at cycle   6 NSaved=   6.
 NSaved= 6 IEnMin= 6 EnMin= -517.474597847766     IErMin= 6 ErrMin= 8.72D-05
 ErrMax= 8.72D-05  0.00D+00 EMaxC= 1.00D+00 BMatC= 2.50D-06 BMatP= 1.40D-05
 IDIUse=1 WtCom= 1.00D+00 WtEn= 0.00D+00
 Coeff-Com: -0.117D-01 0.536D-01-0.690D-01-0.184D+00 0.250D-01 0.119D+01
 Coeff:     -0.117D-01 0.536D-01-0.690D-01-0.184D+00 0.250D-01 0.119D+01
 Gap=     0.360 Goal=   None    Shift=    0.500
 RMSDP=2.10D-05 MaxDP=6.75D-04 DE=-2.59D-05 OVMax= 4.23D-04

 Cycle   7  Pass 1  IDiag  1:
 E= -517.474604033573     Delta-E=       -0.000006185807 Rises=F Damp=F
 DIIS: error= 3.67D-05 at cycle   7 NSaved=   7.
 NSaved= 7 IEnMin= 7 EnMin= -517.474604033573     IErMin= 7 ErrMin= 3.67D-05
 ErrMax= 3.67D-05  0.00D+00 EMaxC= 1.00D+00 BMatC= 4.90D-07 BMatP= 2.50D-06
 IDIUse=1 WtCom= 1.00D+00 WtEn= 0.00D+00
 Coeff-Com: -0.163D-02-0.139D-01 0.332D-01-0.259D-01-0.209D+00-0.237D+00
 Coeff-Com:  0.145D+01
 Coeff:     -0.163D-02-0.139D-01 0.332D-01-0.259D-01-0.209D+00-0.237D+00
 Coeff:      0.145D+01
 Gap=     0.360 Goal=   None    Shift=    0.500
 RMSDP=1.06D-05 MaxDP=2.31D-04 DE=-6.19D-06 OVMax= 2.70D-04

 Cycle   8  Pass 1  IDiag  1:
 E= -517.474605585469     Delta-E=       -0.000001551895 Rises=F Damp=F
 DIIS: error= 2.04D-05 at cycle   8 NSaved=   8.
 NSaved= 8 IEnMin= 8 EnMin= -517.474605585469     IErMin= 8 ErrMin= 2.04D-05
 ErrMax= 2.04D-05  0.00D+00 EMaxC= 1.00D+00 BMatC= 1.11D-07 BMatP= 4.90D-07
 IDIUse=1 WtCom= 1.00D+00 WtEn= 0.00D+00
 Coeff-Com:  0.130D-02-0.247D-02 0.221D-03 0.374D-01-0.211D-01-0.106D+00
 Coeff-Com: -0.793D+00 0.188D+01
 Coeff:      0.130D-02-0.247D-02 0.221D-03 0.374D-01-0.211D-01-0.106D+00
 Coeff:     -0.793D+00 0.188D+01
 Gap=     0.360 Goal=   None    Shift=    0.500
 RMSDP=4.78D-06 MaxDP=1.04D-04 DE=-1.55D-06 OVMax= 1.60D-04

 Cycle   9  Pass 1  IDiag  1:
 E= -517.474605969416     Delta-E=       -0.000000383947 Rises=F Damp=F
 DIIS: error= 1.18D-05 at cycle   9 NSaved=   9.
 NSaved= 9 IEnMin= 9 EnMin= -517.474605969416     IErMin= 9 ErrMin= 1.18D-05
 ErrMax= 1.18D-05  0.00D+00 EMaxC= 1.00D+00 BMatC= 2.64D-08 BMatP= 1.11D-07
 IDIUse=1 WtCom= 1.00D+00 WtEn= 0.00D+00
 Coeff-Com: -0.589D-03 0.308D-02-0.406D-02-0.812D-02 0.190D-01 0.732D-01
 Coeff-Com:  0.754D-01-0.157D+01 0.241D+01
 Coeff:     -0.589D-03 0.308D-02-0.406D-02-0.812D-02 0.190D-01 0.732D-01
 Coeff:      0.754D-01-0.157D+01 0.241D+01
 Gap=     0.360 Goal=   None    Shift=    0.500
 RMSDP=2.08D-06 MaxDP=3.54D-05 DE=-3.84D-07 OVMax= 8.96D-05

 Cycle  10  Pass 1  IDiag  1:
 E= -517.474606063842     Delta-E=       -0.000000094426 Rises=F Damp=F
 DIIS: error= 6.91D-06 at cycle  10 NSaved=  10.
 NSaved=10 IEnMin=10 EnMin= -517.474606063842     IErMin=10 ErrMin= 6.91D-06
 ErrMax= 6.91D-06  0.00D+00 EMaxC= 1.00D+00 BMatC= 6.88D-09 BMatP= 2.64D-08
 IDIUse=1 WtCom= 1.00D+00 WtEn= 0.00D+00
 Coeff-Com: -0.186D-03-0.910D-05 0.708D-03-0.433D-02-0.695D-02 0.384D-01
 Coeff-Com:  0.865D-01-0.161D+00-0.123D+01 0.227D+01
 Coeff:     -0.186D-03-0.910D-05 0.708D-03-0.433D-02-0.695D-02 0.384D-01
 Coeff:      0.865D-01-0.161D+00-0.123D+01 0.227D+01
 Gap=     0.360 Goal=   None    Shift=    0.500
 RMSDP=9.56D-07 MaxDP=1.87D-05 DE=-9.44D-08 OVMax= 4.99D-05

 SCF Done:  E(RLC-wHPBE) =  -517.474606064     A.U. after   10 cycles
            NFock= 10  Conv=0.96D-06     -V/T= 2.0049
 KE= 5.149331303992D+02 PE=-2.668578844858D+03 EE= 8.954081266820D+02
 Leave Link  502 at Mon Jan 25 21:33:53 2021, MaxMem=  4026531840 cpu:             971.0 elap:             122.4
 (Enter /opt/ohpc/pub/libs/gaussian/g16-A.03/sandybridge/g16/l508.exe)
 QCSCF skips out because SCF is already converged.
 Leave Link  508 at Mon Jan 25 21:33:53 2021, MaxMem=  4026531840 cpu:               0.2 elap:               0.1
 (Enter /opt/ohpc/pub/libs/gaussian/g16-A.03/sandybridge/g16/l601.exe)
 Copying SCF densities to generalized density rwf, IOpCl= 0 IROHF=0.

 **********************************************************************

            Population analysis using the SCF density.

 **********************************************************************

 Orbital symmetries:
       Occupied  (A) (A) (A) (A) (A) (A) (A) (A) (A) (A) (A) (A)
                 (A) (A) (A) (A) (A) (A) (A) (A) (A) (A) (A) (A)
                 (A) (A) (A) (A) (A) (A) (A) (A) (A) (A) (A) (A)
                 (A) (A) (A) (A) (A) (A) (A) (A) (A) (A)
       Virtual   (A) (A) (A) (A) (A) (A) (A) (A) (A) (A) (A) (A)
                 (A) (A) (A) (A) (A) (A) (A) (A) (A) (A) (A) (A)
                 (A) (A) (A) (A) (A) (A) (A) (A) (A) (A) (A) (A)
                 (A) (A) (A) (A) (A) (A) (A) (A) (A) (A) (A) (A)
                 (A) (A) (A) (A) (A) (A) (A) (A) (A) (A) (A) (A)
                 (A) (A) (A) (A) (A) (A) (A) (A) (A) (A) (A) (A)
                 (A) (A) (A) (A) (A) (A) (A) (A) (A) (A) (A) (A)
                 (A) (A) (A) (A) (A) (A) (A) (A) (A) (A) (A) (A)
                 (A) (A) (A) (A) (A) (A) (A) (A) (A) (A) (A) (A)
                 (A) (A) (A) (A) (A) (A) (A) (A) (A) (A) (A) (A)
                 (A) (A) (A) (A) (A) (A) (A) (A) (A) (A) (A) (A)
                 (A) (A) (A) (A) (A) (A) (A) (A) (A) (A) (A) (A)
                 (A) (A) (A) (A) (A) (A) (A) (A) (A) (A) (A) (A)
                 (A) (A) (A) (A) (A) (A) (A) (A) (A) (A) (A) (A)
                 (A) (A) (A) (A) (A) (A) (A) (A) (A) (A) (A) (A)
                 (A) (A) (A) (A) (A) (A) (A) (A) (A) (A) (A) (A)
                 (A) (A) (A) (A) (A) (A) (A) (A) (A) (A) (A) (A)
                 (A) (A) (A) (A) (A) (A) (A) (A) (A) (A) (A) (A)
                 (A) (A) (A) (A) (A) (A) (A) (A) (A) (A) (A) (A)
                 (A) (A) (A) (A) (A) (A) (A) (A) (A) (A) (A) (A)
                 (A) (A) (A) (A) (A) (A) (A) (A) (A) (A) (A) (A)
                 (A) (A) (A) (A) (A) (A) (A) (A) (A) (A) (A) (A)
                 (A) (A) (A) (A) (A) (A) (A) (A) (A) (A) (A) (A)
                 (A) (A) (A) (A) (A) (A) (A) (A) (A) (A) (A) (A)
                 (A) (A)
 The electronic state is 1-A.
 Alpha  occ. eigenvalues --  -14.30570 -14.30570 -14.30569 -10.23811 -10.23747
 Alpha  occ. eigenvalues --  -10.23746 -10.18121 -10.18120 -10.18120 -10.18118
 Alpha  occ. eigenvalues --  -10.18118 -10.18117  -1.19988  -1.16204  -1.16204
 Alpha  occ. eigenvalues --   -1.10535  -0.93760  -0.93759  -0.92938  -0.91635
 Alpha  occ. eigenvalues --   -0.91634  -0.89769  -0.76116  -0.76116  -0.75380
 Alpha  occ. eigenvalues --   -0.71261  -0.70919  -0.70919  -0.68278  -0.68278
 Alpha  occ. eigenvalues --   -0.68245  -0.62614  -0.62613  -0.62452  -0.62397
 Alpha  occ. eigenvalues --   -0.61267  -0.61265  -0.61021  -0.59900  -0.59899
 Alpha  occ. eigenvalues --   -0.58393  -0.58194  -0.58193  -0.49999  -0.49998
 Alpha  occ. eigenvalues --   -0.40341
 Alpha virt. eigenvalues --   -0.04359  -0.04356  -0.04256  -0.00709  -0.00708
 Alpha virt. eigenvalues --    0.00646   0.02086   0.02087   0.02094   0.04758
 Alpha virt. eigenvalues --    0.04868   0.04869   0.04932   0.04933   0.05227
 Alpha virt. eigenvalues --    0.06284   0.06344   0.06442   0.06445   0.07676
 Alpha virt. eigenvalues --    0.07684   0.08586   0.08591   0.09503   0.11860
 Alpha virt. eigenvalues --    0.12035   0.12042   0.14046   0.14568   0.14571
 Alpha virt. eigenvalues --    0.15605   0.15614   0.18148   0.18703   0.18707
 Alpha virt. eigenvalues --    0.20036   0.20860   0.22107   0.22112   0.24734
 Alpha virt. eigenvalues --    0.24833   0.25113   0.25124   0.26399   0.26403
 Alpha virt. eigenvalues --    0.28347   0.28355   0.28964   0.31215   0.31218
 Alpha virt. eigenvalues --    0.32597   0.33257   0.34164   0.34175   0.36124
 Alpha virt. eigenvalues --    0.36796   0.36804   0.37185   0.37956   0.37958
 Alpha virt. eigenvalues --    0.38457   0.39590   0.39595   0.39933   0.41576
 Alpha virt. eigenvalues --    0.41580   0.41727   0.42346   0.42351   0.44023
 Alpha virt. eigenvalues --    0.44033   0.45613   0.45779   0.46589   0.47186
 Alpha virt. eigenvalues --    0.47194   0.48149   0.48551   0.48555   0.51238
 Alpha virt. eigenvalues --    0.51240   0.55838   0.55840   0.58767   0.58776
 Alpha virt. eigenvalues --    0.59119   0.59127   0.59378   0.60897   0.63483
 Alpha virt. eigenvalues --    0.66416   0.66575   0.66578   0.73530   0.73541
 Alpha virt. eigenvalues --    0.77876   0.77881   0.78079   1.06224   1.06231
 Alpha virt. eigenvalues --    1.06304   1.10775   1.15970   1.16162   1.16176
 Alpha virt. eigenvalues --    1.17040   1.17802   1.20667   1.20672   1.22667
 Alpha virt. eigenvalues --    1.22670   1.25341   1.25730   1.25732   1.26382
 Alpha virt. eigenvalues --    1.27035   1.27851   1.27856   1.29522   1.29525
 Alpha virt. eigenvalues --    1.30294   1.31637   1.31649   1.36371   1.36382
 Alpha virt. eigenvalues --    1.36431   1.37523   1.38098   1.38103   1.38336
 Alpha virt. eigenvalues --    1.40203   1.40218   1.42688   1.42692   1.45134
 Alpha virt. eigenvalues --    1.46872   1.47760   1.48405   1.48412   1.49350
 Alpha virt. eigenvalues --    1.49354   1.50340   1.50345   1.53215   1.55778
 Alpha virt. eigenvalues --    1.56235   1.56246   1.57978   1.58094   1.58098
 Alpha virt. eigenvalues --    1.60932   1.60936   1.63105   1.63808   1.63811
 Alpha virt. eigenvalues --    1.65802   1.67909   1.67912   1.68836   1.70268
 Alpha virt. eigenvalues --    1.70270   1.70495   1.70716   1.70990   1.70997
 Alpha virt. eigenvalues --    1.71502   1.71509   1.71708   1.73180   1.73184
 Alpha virt. eigenvalues --    1.74402   1.74469   1.74479   1.74978   1.79510
 Alpha virt. eigenvalues --    1.79515   1.80181   1.80190   1.81923   1.92108
 Alpha virt. eigenvalues --    1.94302   1.94319   2.00685   2.00851   2.00860
 Alpha virt. eigenvalues --    2.02792   2.04953   2.04959   2.05593   2.08086
 Alpha virt. eigenvalues --    2.08096   2.13558   2.13567   2.14999   2.19776
 Alpha virt. eigenvalues --    2.19934   2.20791   2.20799   2.21875   2.21881
 Alpha virt. eigenvalues --    2.22072   2.23554   2.25601   2.25618   2.27153
 Alpha virt. eigenvalues --    2.27160   2.27646   2.29985   2.31179   2.31187
 Alpha virt. eigenvalues --    2.35269   2.36772   2.36785   2.44234   2.44244
 Alpha virt. eigenvalues --    2.44491   2.44625   2.44632   2.47582   2.47591
 Alpha virt. eigenvalues --    2.47644   2.49029   2.49847   2.49877   2.52179
 Alpha virt. eigenvalues --    2.52725   2.52743   2.53338   2.55867   2.59007
 Alpha virt. eigenvalues --    2.59022   2.59264   2.62550   2.62556   2.64277
 Alpha virt. eigenvalues --    2.67239   2.67248   2.68912   2.69581   2.69603
 Alpha virt. eigenvalues --    2.74346   2.74351   2.76451   2.77383   2.79926
 Alpha virt. eigenvalues --    2.79929   2.87700   2.87702   3.00504   3.01138
 Alpha virt. eigenvalues --    3.01167   3.01758   3.03019   3.03028   3.09145
 Alpha virt. eigenvalues --    3.13406   3.13410   3.20380   3.20392   3.22130
 Alpha virt. eigenvalues --    3.22362   3.22367   3.23581   3.25019   3.25033
 Alpha virt. eigenvalues --    3.25946   3.30686   3.30706   3.32200   3.36702
 Alpha virt. eigenvalues --    3.36709   3.39906   3.45208   3.63520   3.63533
 Alpha virt. eigenvalues --    3.74151   3.89231   3.89239  21.38386  21.66889
 Alpha virt. eigenvalues --   21.68802  21.68810  21.84655  21.84658  21.88864
 Alpha virt. eigenvalues --   22.11745  22.11758  31.51942  31.71125  31.71129
          Condensed to atoms (all electrons):
               1          2          3          4          5          6
     1  C    5.764802   0.096446   0.508228  -0.104739  -0.059737  -0.005497
     2  C    0.096446   5.765336  -0.104680   0.508309  -0.001458  -0.003415
     3  N    0.508228  -0.104680   6.489001  -0.001839   0.217294  -0.040102
     4  N   -0.104739   0.508309  -0.001839   6.488960  -0.000678  -0.000010
     5  C   -0.059737  -0.001458   0.217294  -0.000678   4.936078   0.418933
     6  H   -0.005497  -0.003415  -0.040102  -0.000010   0.418933   0.507066
     7  H   -0.015786   0.007357  -0.029286   0.000013   0.406008  -0.024865
     8  H    0.008671   0.001001  -0.039743   0.000005   0.404399  -0.027144
     9  C   -0.059822  -0.004886   0.217236  -0.001069  -0.048015  -0.008023
    10  H    0.008706  -0.003081  -0.039693  -0.000029   0.000362   0.003956
    11  H   -0.005538   0.006982  -0.040137   0.000056  -0.008002  -0.000642
    12  H   -0.015782   0.000416  -0.029255  -0.001775   0.008354  -0.000060
    13  C   -0.001488  -0.059764  -0.000678   0.217311   0.000003  -0.000003
    14  H   -0.003417  -0.005519  -0.000010  -0.040130  -0.000003  -0.000000
    15  H    0.007345  -0.015767   0.000013  -0.029262   0.000002  -0.000000
    16  H    0.001002   0.008699   0.000005  -0.039721   0.000001   0.000000
    17  C   -0.004969  -0.059766  -0.001073   0.217286   0.000005  -0.000001
    18  H   -0.003091   0.008669  -0.000029  -0.039750  -0.000002  -0.000000
    19  H    0.006971  -0.005487   0.000056  -0.040108   0.000012   0.000001
    20  H    0.000450  -0.015784  -0.001787  -0.029282  -0.000077   0.000002
    21  C    0.097359   0.096307  -0.104664  -0.104718  -0.005017   0.006973
    22  N   -0.104727  -0.104664  -0.001843  -0.001839  -0.001069   0.000056
    23  C   -0.005039  -0.001399  -0.001072  -0.000678   0.001480  -0.000560
    24  H    0.006969  -0.003418   0.000055  -0.000010  -0.000556  -0.000051
    25  H    0.000437   0.007408  -0.001780   0.000014  -0.000348  -0.000485
    26  H   -0.003095   0.001000  -0.000029   0.000005   0.000088   0.000033
    27  C   -0.001527  -0.004861  -0.000678  -0.001070   0.000005   0.000012
    28  H    0.001006  -0.003085   0.000005  -0.000029  -0.000002  -0.000001
    29  H   -0.003417   0.006974  -0.000010   0.000056  -0.000001   0.000001
    30  H    0.007335   0.000402   0.000013  -0.001782   0.000009   0.000000
               7          8          9         10         11         12
     1  C   -0.015786   0.008671  -0.059822   0.008706  -0.005538  -0.015782
     2  C    0.007357   0.001001  -0.004886  -0.003081   0.006982   0.000416
     3  N   -0.029286  -0.039743   0.217236  -0.039693  -0.040137  -0.029255
     4  N    0.000013   0.000005  -0.001069  -0.000029   0.000056  -0.001775
     5  C    0.406008   0.404399  -0.048015   0.000362  -0.008002   0.008354
     6  H   -0.024865  -0.027144  -0.008023   0.003956  -0.000642  -0.000060
     7  H    0.523364  -0.019889   0.008358   0.000294  -0.000063  -0.000486
     8  H   -0.019889   0.507431   0.000378  -0.003320   0.003957   0.000291
     9  C    0.008358   0.000378   4.936320   0.404309   0.418973   0.406069
    10  H    0.000294  -0.003320   0.404309   0.507386  -0.027120  -0.019857
    11  H   -0.000063   0.003957   0.418973  -0.027120   0.507082  -0.024903
    12  H   -0.000486   0.000291   0.406069  -0.019857  -0.024903   0.523204
    13  C    0.000002   0.000001   0.000006  -0.000002   0.000012  -0.000077
    14  H   -0.000000   0.000000  -0.000001  -0.000000   0.000001   0.000002
    15  H   -0.000001   0.000000   0.000009  -0.000000   0.000000   0.000014
    16  H    0.000000  -0.000000  -0.000002   0.000000  -0.000001   0.000005
    17  C    0.000009  -0.000002   0.001539   0.000088  -0.000569  -0.000338
    18  H   -0.000000   0.000000   0.000088  -0.000005   0.000034   0.000324
    19  H    0.000000  -0.000001  -0.000565   0.000033  -0.000052  -0.000480
    20  H    0.000014   0.000005  -0.000321   0.000324  -0.000484  -0.003256
    21  C    0.000432  -0.003086  -0.001547   0.001002  -0.003414   0.007308
    22  N   -0.001770  -0.000029  -0.000678   0.000005  -0.000010   0.000013
    23  C   -0.000363   0.000088   0.000004  -0.000002  -0.000001   0.000009
    24  H   -0.000482   0.000033   0.000012  -0.000001   0.000001   0.000000
    25  H   -0.003224   0.000324  -0.000076   0.000005   0.000002   0.000014
    26  H    0.000324  -0.000005  -0.000002   0.000000  -0.000000  -0.000000
    27  C   -0.000076  -0.000002   0.000003   0.000001  -0.000003   0.000002
    28  H    0.000005   0.000000   0.000001  -0.000000   0.000000   0.000000
    29  H    0.000002  -0.000000  -0.000003   0.000000  -0.000000  -0.000000
    30  H    0.000014  -0.000000   0.000002   0.000000  -0.000000  -0.000001
              13         14         15         16         17         18
     1  C   -0.001488  -0.003417   0.007345   0.001002  -0.004969  -0.003091
     2  C   -0.059764  -0.005519  -0.015767   0.008699  -0.059766   0.008669
     3  N   -0.000678  -0.000010   0.000013   0.000005  -0.001073  -0.000029
     4  N    0.217311  -0.040130  -0.029262  -0.039721   0.217286  -0.039750
     5  C    0.000003  -0.000003   0.000002   0.000001   0.000005  -0.000002
     6  H   -0.000003  -0.000000  -0.000000   0.000000  -0.000001  -0.000000
     7  H    0.000002  -0.000000  -0.000001   0.000000   0.000009  -0.000000
     8  H    0.000001   0.000000   0.000000  -0.000000  -0.000002   0.000000
     9  C    0.000006  -0.000001   0.000009  -0.000002   0.001539   0.000088
    10  H   -0.000002  -0.000000  -0.000000   0.000000   0.000088  -0.000005
    11  H    0.000012   0.000001   0.000000  -0.000001  -0.000569   0.000034
    12  H   -0.000077   0.000002   0.000014   0.000005  -0.000338   0.000324
    13  C    4.936141   0.418983   0.406015   0.404332  -0.048079   0.000382
    14  H    0.418983   0.507089  -0.024875  -0.027147  -0.008018   0.003968
    15  H    0.406015  -0.024875   0.523267  -0.019868   0.008364   0.000292
    16  H    0.404332  -0.027147  -0.019868   0.507458   0.000363  -0.003319
    17  C   -0.048079  -0.008018   0.008364   0.000363   4.936101   0.404392
    18  H    0.000382   0.003968   0.000292  -0.003319   0.404392   0.507497
    19  H   -0.008020  -0.000644  -0.000062   0.003965   0.418923  -0.027157
    20  H    0.008358  -0.000062  -0.000486   0.000293   0.406002  -0.019882
    21  C   -0.004968   0.006971   0.000400  -0.003079  -0.001475   0.001001
    22  N   -0.001072   0.000055  -0.001783  -0.000029  -0.000678   0.000005
    23  C    0.000005   0.000012  -0.000077  -0.000002   0.000003   0.000001
    24  H   -0.000001   0.000001   0.000002  -0.000000  -0.000003   0.000000
    25  H    0.000009   0.000000   0.000014  -0.000000   0.000002   0.000000
    26  H   -0.000003  -0.000001   0.000005   0.000000   0.000001  -0.000000
    27  C    0.001529  -0.000566  -0.000333   0.000088   0.000006  -0.000002
    28  H    0.000088   0.000033   0.000324  -0.000005  -0.000002   0.000000
    29  H   -0.000567  -0.000052  -0.000482   0.000033   0.000012  -0.000001
    30  H   -0.000334  -0.000482  -0.003247   0.000324  -0.000077   0.000005
              19         20         21         22         23         24
     1  C    0.006971   0.000450   0.097359  -0.104727  -0.005039   0.006969
     2  C   -0.005487  -0.015784   0.096307  -0.104664  -0.001399  -0.003418
     3  N    0.000056  -0.001787  -0.104664  -0.001843  -0.001072   0.000055
     4  N   -0.040108  -0.029282  -0.104718  -0.001839  -0.000678  -0.000010
     5  C    0.000012  -0.000077  -0.005017  -0.001069   0.001480  -0.000556
     6  H    0.000001   0.000002   0.006973   0.000056  -0.000560  -0.000051
     7  H    0.000000   0.000014   0.000432  -0.001770  -0.000363  -0.000482
     8  H   -0.000001   0.000005  -0.003086  -0.000029   0.000088   0.000033
     9  C   -0.000565  -0.000321  -0.001547  -0.000678   0.000004   0.000012
    10  H    0.000033   0.000324   0.001002   0.000005  -0.000002  -0.000001
    11  H   -0.000052  -0.000484  -0.003414  -0.000010  -0.000001   0.000001
    12  H   -0.000480  -0.003256   0.007308   0.000013   0.000009   0.000000
    13  C   -0.008020   0.008358  -0.004968  -0.001072   0.000005  -0.000001
    14  H   -0.000644  -0.000062   0.006971   0.000055   0.000012   0.000001
    15  H   -0.000062  -0.000486   0.000400  -0.001783  -0.000077   0.000002
    16  H    0.003965   0.000293  -0.003079  -0.000029  -0.000002  -0.000000
    17  C    0.418923   0.406002  -0.001475  -0.000678   0.000003  -0.000003
    18  H   -0.027157  -0.019882   0.001001   0.000005   0.000001   0.000000
    19  H    0.507080  -0.024853  -0.003408  -0.000010  -0.000003  -0.000000
    20  H   -0.024853   0.523284   0.007347   0.000013   0.000002  -0.000000
    21  C   -0.003408   0.007347   5.764809   0.508302  -0.059706  -0.005466
    22  N   -0.000010   0.000013   0.508302   6.488847   0.217371  -0.040096
    23  C   -0.000003   0.000002  -0.059706   0.217371   4.935862   0.418925
    24  H   -0.000000  -0.000000  -0.005466  -0.040096   0.418925   0.507092
    25  H   -0.000000  -0.000001  -0.015773  -0.029303   0.405925  -0.024819
    26  H    0.000000   0.000000   0.008649  -0.039772   0.404441  -0.027189
    27  C   -0.000001   0.000009  -0.059839   0.217295  -0.048134  -0.008045
    28  H   -0.000000  -0.000000   0.008709  -0.039727   0.000362   0.003975
    29  H    0.000001   0.000000  -0.005525  -0.040115  -0.008004  -0.000645
    30  H    0.000002   0.000014  -0.015775  -0.029248   0.008364  -0.000061
              25         26         27         28         29         30
     1  C    0.000437  -0.003095  -0.001527   0.001006  -0.003417   0.007335
     2  C    0.007408   0.001000  -0.004861  -0.003085   0.006974   0.000402
     3  N   -0.001780  -0.000029  -0.000678   0.000005  -0.000010   0.000013
     4  N    0.000014   0.000005  -0.001070  -0.000029   0.000056  -0.001782
     5  C   -0.000348   0.000088   0.000005  -0.000002  -0.000001   0.000009
     6  H   -0.000485   0.000033   0.000012  -0.000001   0.000001   0.000000
     7  H   -0.003224   0.000324  -0.000076   0.000005   0.000002   0.000014
     8  H    0.000324  -0.000005  -0.000002   0.000000  -0.000000  -0.000000
     9  C   -0.000076  -0.000002   0.000003   0.000001  -0.000003   0.000002
    10  H    0.000005   0.000000   0.000001  -0.000000   0.000000   0.000000
    11  H    0.000002  -0.000000  -0.000003   0.000000  -0.000000  -0.000000
    12  H    0.000014  -0.000000   0.000002   0.000000  -0.000000  -0.000001
    13  C    0.000009  -0.000003   0.001529   0.000088  -0.000567  -0.000334
    14  H    0.000000  -0.000001  -0.000566   0.000033  -0.000052  -0.000482
    15  H    0.000014   0.000005  -0.000333   0.000324  -0.000482  -0.003247
    16  H   -0.000000   0.000000   0.000088  -0.000005   0.000033   0.000324
    17  C    0.000002   0.000001   0.000006  -0.000002   0.000012  -0.000077
    18  H    0.000000  -0.000000  -0.000002   0.000000  -0.000001   0.000005
    19  H   -0.000000   0.000000  -0.000001  -0.000000   0.000001   0.000002
    20  H   -0.000001   0.000000   0.000009  -0.000000   0.000000   0.000014
    21  C   -0.015773   0.008649  -0.059839   0.008709  -0.005525  -0.015775
    22  N   -0.029303  -0.039772   0.217295  -0.039727  -0.040115  -0.029248
    23  C    0.405925   0.404441  -0.048134   0.000362  -0.008004   0.008364
    24  H   -0.024819  -0.027189  -0.008045   0.003975  -0.000645  -0.000061
    25  H    0.523408  -0.019902   0.008371   0.000294  -0.000065  -0.000486
    26  H   -0.019902   0.507550   0.000386  -0.003319   0.003974   0.000290
    27  C    0.008371   0.000386   4.936195   0.404320   0.418968   0.406019
    28  H    0.000294  -0.003319   0.404320   0.507490  -0.027145  -0.019867
    29  H   -0.000065   0.003974   0.418968  -0.027145   0.507086  -0.024879
    30  H   -0.000486   0.000290   0.406019  -0.019867  -0.024879   0.523257
 Mulliken charges:
               1
     1  C   -0.118054
     2  C   -0.118271
     3  N    0.006482
     4  N    0.006502
     5  C   -0.268069
     6  H    0.173826
     7  H    0.150096
     8  H    0.166638
     9  C   -0.268297
    10  H    0.166641
    11  H    0.173838
    12  H    0.150247
    13  C   -0.268124
    14  H    0.173808
    15  H    0.150176
    16  H    0.166606
    17  C   -0.268047
    18  H    0.166584
    19  H    0.173807
    20  H    0.150159
    21  C   -0.118108
    22  N    0.006497
    23  C   -0.267813
    24  H    0.173775
    25  H    0.150035
    26  H    0.166574
    27  C   -0.268072
    28  H    0.166571
    29  H    0.173802
    30  H    0.150191
 Sum of Mulliken charges =   1.00000
 Mulliken charges with hydrogens summed into heavy atoms:
               1
     1  C   -0.118054
     2  C   -0.118271
     3  N    0.006482
     4  N    0.006502
     5  C    0.222491
     9  C    0.222428
    13  C    0.222467
    17  C    0.222503
    21  C   -0.118108
    22  N    0.006497
    23  C    0.222572
    27  C    0.222491
 Electronic spatial extent (au):  <R**2>=           2594.5952
 Charge=              1.0000 electrons
 Dipole moment (field-independent basis, Debye):
    X=             -0.0004    Y=             -0.0003    Z=              0.0007  Tot=              0.0008
 Quadrupole moment (field-independent basis, Debye-Ang):
   XX=            -44.2159   YY=            -44.2197   ZZ=            -71.9489
   XY=              0.0015   XZ=              0.0002   YZ=              0.0002
 Traceless Quadrupole moment (field-independent basis, Debye-Ang):
   XX=              9.2456   YY=              9.2418   ZZ=            -18.4874
   XY=              0.0015   XZ=              0.0002   YZ=              0.0002
 Octapole moment (field-independent basis, Debye-Ang**2):
  XXX=              8.3645  YYY=             14.6925  ZZZ=              0.0014  XYY=             -8.3764
  XXY=            -14.7108  XXZ=              0.0010  XZZ=              0.0026  YZZ=              0.0044
  YYZ=              0.0016  XYZ=             -0.0001
 Hexadecapole moment (field-independent basis, Debye-Ang**3):
 XXXX=          -1392.5115 YYYY=          -1392.2534 ZZZZ=           -133.2665 XXXY=              0.0135
 XXXZ=              4.6383 YYYX=              0.0194 YYYZ=             -2.6233 ZZZX=             -0.0153
 ZZZY=              0.0023 XXYY=           -464.1058 XXZZ=           -277.2650 YYZZ=           -277.2398
 XXYZ=              2.6119 YYXZ=             -4.5838 ZZXY=             -0.0091
 N-N= 7.407629817128D+02 E-N=-2.668578509903D+03  KE= 5.149331303992D+02
 No NMR shielding tensors so no spin-rotation constants.
 Leave Link  601 at Mon Jan 25 21:33:54 2021, MaxMem=  4026531840 cpu:               4.0 elap:               0.7
 (Enter /opt/ohpc/pub/libs/gaussian/g16-A.03/sandybridge/g16/l9999.exe)

 Test job not archived.
 1\1\GINC-CNODE237\SP\RLC-wHPBE\TZVP\C9H18N3(1+)\RDU230\25-Jan-2021\0\\
 #P LC-wHPBE/TZVP iop(3/107=0236900000, 3/108=0236900000) scf=(conver=6
 ,fermi,ndamp=35,noincfock,novaracc,vshift=500,xqc)\\H18 C9 N3\\1,1\C,0
 ,-0.610862,0.51088,0.000115\C,0,-0.136805,-0.784324,0.000118\N,0,-1.62
 5284,1.358829,0.000149\N,0,-0.364248,-2.086765,0.000256\C,0,-1.430247,
 2.779535,-0.245115\H,0,-1.514482,3.356239,0.681778\H,0,-0.453085,2.953
 583,-0.69457\H,0,-2.189123,3.132424,-0.948067\C,0,-2.988895,0.914734,0
 .244915\H,0,-3.47163,1.599951,0.946347\H,0,-3.570653,0.893667,-0.68241
 9\H,0,-2.986873,-0.077069,0.695991\C,0,0.701968,-3.045906,0.244739\H,0
 ,1.009895,-3.54009,-0.68252\H,0,1.56061,-2.548225,0.694397\H,0,0.35036
 1,-3.805818,0.947208\C,0,-1.692259,-2.627901,-0.244928\H,0,-1.618712,-
 3.461412,-0.948079\H,0,-2.149477,-2.989362,0.681963\H,0,-2.331523,-1.8
 6843,-0.69401\C,0,0.747831,0.27381,0.000062\N,0,1.989493,0.728067,-0.0
 00089\C,0,2.287295,2.130832,0.245062\H,0,2.563599,2.644356,-0.681638\H
 ,0,1.426241,2.626112,0.692731\H,0,3.119706,2.205914,0.949371\C,0,3.122
 069,-0.151615,-0.24503\H,0,3.807758,0.3292,-0.947323\H,0,3.663007,-0.3
 67678,0.682084\H,0,2.784087,-1.084552,-0.695089\\Version=EM64L-G16RevA
 .03\State=1-A\HF=-517.4746061\RMSD=9.558e-07\Dipole=-0.0001552,0.00010
 32,-0.0002617\Quadrupole=6.8738952,6.8710358,-13.744931,-0.0011068,-0.
 0001303,0.0001742\PG=C01 [X(C9H18N3)]\\@


 IF THERE IS ONE WAY BETTER THAN ANOTHER IT IS THE WAY OF NATURE.

                          -- ARISTOTLE
 Job cpu time:       0 days  0 hours 16 minutes 51.5 seconds.
 Elapsed time:       0 days  0 hours  2 minutes  9.0 seconds.
 File lengths (MBytes):  RWF=     92 Int=      0 D2E=      0 Chk=     12 Scr=      8
 Normal termination of Gaussian 16 at Mon Jan 25 21:33:54 2021.
