 Entering Gaussian System, Link 0=g16
 Input=mol_NN_cp_frag_tune_n0.gjf
 Output=mol_NN_cp_frag_tune_n0.log
 Initial command:
 /opt/ohpc/pub/libs/gaussian/g16-A.03/sandybridge/g16/l1.exe "/mnt/gpfs2_4m/scratch/rdu230/ondemand/projects/init_structures/gaussian/wtuning/mol_NN_cp_frag/tuning_mol_NN_cp_frag_ocycle0/Gau-13891.inp" -scrdir="/mnt/gpfs2_4m/scratch/rdu230/ondemand/projects/init_structures/gaussian/wtuning/mol_NN_cp_frag/tuning_mol_NN_cp_frag_ocycle0/"
 Entering Link 1 = /opt/ohpc/pub/libs/gaussian/g16-A.03/sandybridge/g16/l1.exe PID=     13892.
  
 Copyright (c) 1988,1990,1992,1993,1995,1998,2003,2009,2016,
            Gaussian, Inc.  All Rights Reserved.
  
 This is part of the Gaussian(R) 16 program.  It is based on
 the Gaussian(R) 09 system (copyright 2009, Gaussian, Inc.),
 the Gaussian(R) 03 system (copyright 2003, Gaussian, Inc.),
 the Gaussian(R) 98 system (copyright 1998, Gaussian, Inc.),
 the Gaussian(R) 94 system (copyright 1995, Gaussian, Inc.),
 the Gaussian 92(TM) system (copyright 1992, Gaussian, Inc.),
 the Gaussian 90(TM) system (copyright 1990, Gaussian, Inc.),
 the Gaussian 88(TM) system (copyright 1988, Gaussian, Inc.),
 the Gaussian 86(TM) system (copyright 1986, Carnegie Mellon
 University), and the Gaussian 82(TM) system (copyright 1983,
 Carnegie Mellon University). Gaussian is a federally registered
 trademark of Gaussian, Inc.
  
 This software contains proprietary and confidential information,
 including trade secrets, belonging to Gaussian, Inc.
  
 This software is provided under written license and may be
 used, copied, transmitted, or stored only in accord with that
 written license.
  
 The following legend is applicable only to US Government
 contracts under FAR:
  
                    RESTRICTED RIGHTS LEGEND
  
 Use, reproduction and disclosure by the US Government is
 subject to restrictions as set forth in subparagraphs (a)
 and (c) of the Commercial Computer Software - Restricted
 Rights clause in FAR 52.227-19.
  
 Gaussian, Inc.
 340 Quinnipiac St., Bldg. 40, Wallingford CT 06492
  
  
 ---------------------------------------------------------------
 Warning -- This program may not be used in any manner that
 competes with the business of Gaussian, Inc. or will provide
 assistance to any competitor of Gaussian, Inc.  The licensee
 of this program is prohibited from giving any competitor of
 Gaussian, Inc. access to this program.  By using this program,
 the user acknowledges that Gaussian, Inc. is engaged in the
 business of creating and licensing software in the field of
 computational chemistry and represents and warrants to the
 licensee that it is not a competitor of Gaussian, Inc. and that
 it will not use this program in any manner prohibited above.
 ---------------------------------------------------------------
  

 Cite this work as:
 Gaussian 16, Revision A.03,
 M. J. Frisch, G. W. Trucks, H. B. Schlegel, G. E. Scuseria, 
 M. A. Robb, J. R. Cheeseman, G. Scalmani, V. Barone, 
 G. A. Petersson, H. Nakatsuji, X. Li, M. Caricato, A. V. Marenich, 
 J. Bloino, B. G. Janesko, R. Gomperts, B. Mennucci, H. P. Hratchian, 
 J. V. Ortiz, A. F. Izmaylov, J. L. Sonnenberg, D. Williams-Young, 
 F. Ding, F. Lipparini, F. Egidi, J. Goings, B. Peng, A. Petrone, 
 T. Henderson, D. Ranasinghe, V. G. Zakrzewski, J. Gao, N. Rega, 
 G. Zheng, W. Liang, M. Hada, M. Ehara, K. Toyota, R. Fukuda, 
 J. Hasegawa, M. Ishida, T. Nakajima, Y. Honda, O. Kitao, H. Nakai, 
 T. Vreven, K. Throssell, J. A. Montgomery, Jr., J. E. Peralta, 
 F. Ogliaro, M. J. Bearpark, J. J. Heyd, E. N. Brothers, K. N. Kudin, 
 V. N. Staroverov, T. A. Keith, R. Kobayashi, J. Normand, 
 K. Raghavachari, A. P. Rendell, J. C. Burant, S. S. Iyengar, 
 J. Tomasi, M. Cossi, J. M. Millam, M. Klene, C. Adamo, R. Cammi, 
 J. W. Ochterski, R. L. Martin, K. Morokuma, O. Farkas, 
 J. B. Foresman, and D. J. Fox, Gaussian, Inc., Wallingford CT, 2016.
 
 ******************************************
 Gaussian 16:  EM64L-G16RevA.03 25-Dec-2016
                25-Jan-2021 
 ******************************************
 %mem=30GB
 %nproc=8
 Will use up to    8 processors via shared memory.
 ----------------------------------------------------------------------
 #P LC-wHPBE/TZVP iop(3/107=0221900000, 3/108=0221900000) scf=(conver=6
 ,fermi,ndamp=35,noincfock,novaracc,vshift=500,xqc)
 ----------------------------------------------------------------------
 1/38=1,172=1/1;
 2/12=2,17=6,18=5,40=1/2;
 3/5=19,7=101,11=2,25=1,30=1,74=-71,107=221900000,108=221900000/1,2,3;
 4//1;
 5/5=100002,6=6,8=3,10=500,13=1,18=-1,22=13,38=1,93=35/2,8;
 6/7=2,8=2,9=2,10=2,28=1/1;
 99/5=1,9=1/99;
 Leave Link    1 at Mon Jan 25 20:54:09 2021, MaxMem=  4026531840 cpu:               1.8 elap:               0.3
 (Enter /opt/ohpc/pub/libs/gaussian/g16-A.03/sandybridge/g16/l101.exe)
 ---------
 H18 C9 N3
 ---------
 Symbolic Z-matrix:
 Charge =  1 Multiplicity = 1
 C                    -0.61086   0.51088   0.00012 
 C                    -0.13681  -0.78432   0.00012 
 N                    -1.62528   1.35883   0.00015 
 N                    -0.36425  -2.08677   0.00026 
 C                    -1.43025   2.77954  -0.24512 
 H                    -1.51448   3.35624   0.68178 
 H                    -0.45309   2.95358  -0.69457 
 H                    -2.18912   3.13242  -0.94807 
 C                    -2.9889    0.91473   0.24492 
 H                    -3.47163   1.59995   0.94635 
 H                    -3.57065   0.89367  -0.68242 
 H                    -2.98687  -0.07707   0.69599 
 C                     0.70197  -3.04591   0.24474 
 H                     1.00989  -3.54009  -0.68252 
 H                     1.56061  -2.54823   0.6944 
 H                     0.35036  -3.80582   0.94721 
 C                    -1.69226  -2.6279   -0.24493 
 H                    -1.61871  -3.46141  -0.94808 
 H                    -2.14948  -2.98936   0.68196 
 H                    -2.33152  -1.86843  -0.69401 
 C                     0.74783   0.27381   0.00006 
 N                     1.98949   0.72807  -0.00009 
 C                     2.2873    2.13083   0.24506 
 H                     2.5636    2.64436  -0.68164 
 H                     1.42624   2.62611   0.69273 
 H                     3.11971   2.20591   0.94937 
 C                     3.12207  -0.15162  -0.24503 
 H                     3.80776   0.3292   -0.94732 
 H                     3.66301  -0.36768   0.68208 
 H                     2.78409  -1.08455  -0.69509 
 
 ITRead=  0  0  0  0  0  0  0  0  0  0  0  0  0  0  0  0  0  0  0  0
 ITRead=  0  0  0  0  0  0  0  0  0  0
 MicOpt= -1 -1 -1 -1 -1 -1 -1 -1 -1 -1 -1 -1 -1 -1 -1 -1 -1 -1 -1 -1
 MicOpt= -1 -1 -1 -1 -1 -1 -1 -1 -1 -1
 NAtoms=     30 NQM=       30 NQMF=       0 NMMI=      0 NMMIF=      0
                NMic=       0 NMicF=      0.
                    Isotopes and Nuclear Properties:
 (Nuclear quadrupole moments (NQMom) in fm**2, nuclear magnetic moments (NMagM)
  in nuclear magnetons)

  Atom         1           2           3           4           5           6           7           8           9          10
 IAtWgt=          12          12          14          14          12           1           1           1          12           1
 AtmWgt=  12.0000000  12.0000000  14.0030740  14.0030740  12.0000000   1.0078250   1.0078250   1.0078250  12.0000000   1.0078250
 NucSpn=           0           0           2           2           0           1           1           1           0           1
 AtZEff=  -0.0000000  -0.0000000  -0.0000000  -0.0000000  -0.0000000  -0.0000000  -0.0000000  -0.0000000  -0.0000000  -0.0000000
 NQMom=    0.0000000   0.0000000   2.0440000   2.0440000   0.0000000   0.0000000   0.0000000   0.0000000   0.0000000   0.0000000
 NMagM=    0.0000000   0.0000000   0.4037610   0.4037610   0.0000000   2.7928460   2.7928460   2.7928460   0.0000000   2.7928460
 AtZNuc=   6.0000000   6.0000000   7.0000000   7.0000000   6.0000000   1.0000000   1.0000000   1.0000000   6.0000000   1.0000000

  Atom        11          12          13          14          15          16          17          18          19          20
 IAtWgt=           1           1          12           1           1           1          12           1           1           1
 AtmWgt=   1.0078250   1.0078250  12.0000000   1.0078250   1.0078250   1.0078250  12.0000000   1.0078250   1.0078250   1.0078250
 NucSpn=           1           1           0           1           1           1           0           1           1           1
 AtZEff=  -0.0000000  -0.0000000  -0.0000000  -0.0000000  -0.0000000  -0.0000000  -0.0000000  -0.0000000  -0.0000000  -0.0000000
 NQMom=    0.0000000   0.0000000   0.0000000   0.0000000   0.0000000   0.0000000   0.0000000   0.0000000   0.0000000   0.0000000
 NMagM=    2.7928460   2.7928460   0.0000000   2.7928460   2.7928460   2.7928460   0.0000000   2.7928460   2.7928460   2.7928460
 AtZNuc=   1.0000000   1.0000000   6.0000000   1.0000000   1.0000000   1.0000000   6.0000000   1.0000000   1.0000000   1.0000000

  Atom        21          22          23          24          25          26          27          28          29          30
 IAtWgt=          12          14          12           1           1           1          12           1           1           1
 AtmWgt=  12.0000000  14.0030740  12.0000000   1.0078250   1.0078250   1.0078250  12.0000000   1.0078250   1.0078250   1.0078250
 NucSpn=           0           2           0           1           1           1           0           1           1           1
 AtZEff=  -0.0000000  -0.0000000  -0.0000000  -0.0000000  -0.0000000  -0.0000000  -0.0000000  -0.0000000  -0.0000000  -0.0000000
 NQMom=    0.0000000   2.0440000   0.0000000   0.0000000   0.0000000   0.0000000   0.0000000   0.0000000   0.0000000   0.0000000
 NMagM=    0.0000000   0.4037610   0.0000000   2.7928460   2.7928460   2.7928460   0.0000000   2.7928460   2.7928460   2.7928460
 AtZNuc=   6.0000000   7.0000000   6.0000000   1.0000000   1.0000000   1.0000000   6.0000000   1.0000000   1.0000000   1.0000000
 Leave Link  101 at Mon Jan 25 20:54:09 2021, MaxMem=  4026531840 cpu:               0.7 elap:               0.1
 (Enter /opt/ohpc/pub/libs/gaussian/g16-A.03/sandybridge/g16/l202.exe)
                          Input orientation:                          
 ---------------------------------------------------------------------
 Center     Atomic      Atomic             Coordinates (Angstroms)
 Number     Number       Type             X           Y           Z
 ---------------------------------------------------------------------
      1          6           0       -0.610862    0.510880    0.000115
      2          6           0       -0.136805   -0.784324    0.000118
      3          7           0       -1.625284    1.358829    0.000149
      4          7           0       -0.364248   -2.086765    0.000256
      5          6           0       -1.430247    2.779535   -0.245115
      6          1           0       -1.514482    3.356239    0.681778
      7          1           0       -0.453085    2.953583   -0.694570
      8          1           0       -2.189123    3.132424   -0.948067
      9          6           0       -2.988895    0.914734    0.244915
     10          1           0       -3.471630    1.599951    0.946347
     11          1           0       -3.570653    0.893667   -0.682419
     12          1           0       -2.986873   -0.077069    0.695991
     13          6           0        0.701968   -3.045906    0.244739
     14          1           0        1.009895   -3.540090   -0.682520
     15          1           0        1.560610   -2.548225    0.694397
     16          1           0        0.350361   -3.805818    0.947208
     17          6           0       -1.692259   -2.627901   -0.244928
     18          1           0       -1.618712   -3.461412   -0.948079
     19          1           0       -2.149477   -2.989362    0.681963
     20          1           0       -2.331523   -1.868430   -0.694010
     21          6           0        0.747831    0.273810    0.000062
     22          7           0        1.989493    0.728067   -0.000089
     23          6           0        2.287295    2.130832    0.245062
     24          1           0        2.563599    2.644356   -0.681638
     25          1           0        1.426241    2.626112    0.692731
     26          1           0        3.119706    2.205914    0.949371
     27          6           0        3.122069   -0.151615   -0.245030
     28          1           0        3.807758    0.329200   -0.947323
     29          1           0        3.663007   -0.367678    0.682084
     30          1           0        2.784087   -1.084552   -0.695089
 ---------------------------------------------------------------------
                    Distance matrix (angstroms):
                    1          2          3          4          5
     1  C    0.000000
     2  C    1.379233   0.000000
     3  N    1.322146   2.609344   0.000000
     4  N    2.609325   1.322151   3.669105   0.000000
     5  C    2.424526   3.799240   1.454854   4.987729   0.000000
     6  H    3.062231   4.416663   2.113419   5.604802   1.094903
     7  H    2.544460   3.815046   2.097600   5.088790   1.089563
     8  H    3.203506   4.522386   2.088700   5.609761   1.092962
     9  C    2.424472   3.328835   1.454842   3.994700   2.479314
    10  H    3.203970   4.207276   2.088642   4.913531   2.641637
    11  H    3.061493   3.882373   2.113465   4.430582   2.886013
    12  H    2.544672   3.017836   2.097600   3.376550   3.386584
    13  C    3.799222   2.424486   4.987747   1.454833   6.222705
    14  H    4.416243   3.061889   5.604428   2.113435   6.788466
    15  H    3.815159   2.544521   5.088907   2.097583   6.181661
    16  H    4.522700   3.203707   5.610140   2.088666   6.925249
    17  C    3.328875   2.424512   3.994817   1.454839   5.413780
    18  H    4.206416   3.203424   4.912627   2.088701   6.283239
    19  H    3.883806   3.062344   4.432428   2.113397   5.887014
    20  H    3.017217   2.544383   3.375771   2.097581   4.755774
    21  C    1.379220   1.379213   2.609395   2.609413   3.329083
    22  N    2.609409   2.609304   3.669397   3.669247   3.995395
    23  C    3.329198   3.799262   3.995528   4.987859   3.805418
    24  H    3.885062   4.417332   4.434428   5.605424   4.019904
    25  H    3.017236   3.814957   3.376016   5.088868   3.010418
    26  H    4.206110   4.521888   4.912586   5.609443   4.738978
    27  C    3.799180   3.328765   4.987877   3.994919   5.414353
    28  H    4.522704   4.206799   5.610328   4.913291   5.825284
    29  H    4.416209   3.882943   5.604631   4.431584   6.058538
    30  H    3.815022   3.017459   5.088813   3.376381   5.735351
                    6          7          8          9         10
     6  H    0.000000
     7  H    1.784105   0.000000
     8  H    1.778097   1.763540   0.000000
     9  C    2.885427   3.386720   2.642156   0.000000
    10  H    2.642910   3.692769   2.753562   1.092960   0.000000
    11  H    3.486134   3.736661   2.644093   1.094913   1.778067
    12  H    3.735738   4.187910   3.693261   1.089563   1.763537
    13  C    6.789044   6.181449   6.924807   5.413792   6.284518
    14  H    7.469481   6.656444   7.404504   6.057715   7.011226
    15  H    6.657255   6.021137   7.001997   5.735165   6.526430
    16  H    7.405616   7.002176   7.627598   5.824728   6.620420
    17  C    6.058079   5.735041   5.824313   3.804139   4.739201
    18  H    7.010539   6.524961   6.618462   4.738279   5.713103
    19  H    6.377293   6.331760   6.335206   4.017163   4.783281
    20  H    5.464203   5.174972   5.009328   3.009937   4.002534
    21  C    3.883834   3.017598   4.206700   3.799192   4.523047
    22  N    4.432840   3.376598   4.913291   4.987907   5.610685
    23  C    4.018190   3.011563   4.739732   5.414524   5.825706
    24  H    4.358489   3.032519   4.785140   5.888997   6.337595
    25  H    3.030026   2.358751   4.002428   4.756341   5.010635
    26  H    4.782317   4.003297   5.713349   6.283185   6.619132
    27  C    5.887412   4.756687   6.283943   6.222622   6.925621
    28  H    6.335864   5.010594   6.619717   6.925227   7.628256
    29  H    6.377613   5.465177   7.011101   6.788483   7.405703
    30  H    6.331989   5.175502   6.525312   6.181268   7.002490
                   11         12         13         14         15
    11  H    0.000000
    12  H    1.784136   0.000000
    13  C    5.885163   4.756592   0.000000
    14  H    6.374921   5.465067   1.094918   0.000000
    15  H    6.330253   5.175540   1.089562   1.784092   0.000000
    16  H    6.333656   5.010370   1.092958   1.778092   1.763563
    17  C    4.015122   3.011328   2.479279   2.885344   3.386715
    18  H    4.779891   4.003574   2.642161   2.643158   3.693200
    19  H    4.354216   3.030327   2.885325   3.485218   3.736242
    20  H    3.027335   2.360204   3.386704   3.736262   4.187899
    21  C    4.415802   3.815160   3.329037   3.883353   3.017713
    22  N    5.604304   5.088909   3.995064   4.431985   3.376439
    23  C    6.058577   5.735417   5.414045   5.886554   4.756422
    24  H    6.379182   6.333384   6.058294   6.376627   5.464646
    25  H    5.464554   5.175208   5.735596   6.331406   5.176082
    26  H    7.010395   6.524302   5.824395   6.334898   5.009753
    27  C    6.787964   6.181444   3.804429   4.016770   3.010717
    28  H    7.404711   7.002324   4.739017   4.782213   4.003060
    29  H    7.468514   6.656242   4.016457   4.354922   3.029028
    30  H    6.655541   6.021138   3.010881   3.029452   2.360065
                   16         17         18         19         20
    16  H    0.000000
    17  C    2.642153   0.000000
    18  H    2.754628   1.092964   0.000000
    19  H    2.643132   1.094911   1.778083   0.000000
    20  H    3.693179   1.089555   1.763588   1.784077   0.000000
    21  C    4.206951   3.799209   4.522320   4.416749   3.814885
    22  N    4.913272   4.987762   5.609774   5.604957   5.088664
    23  C    6.283990   6.222739   6.924859   6.789125   6.181378
    24  H    7.011156   6.789679   7.405614   7.470694   6.657898
    25  H    6.526255   6.181335   7.001567   6.657283   6.020361
    26  H    6.618927   6.924386   7.627025   7.404505   7.001205
    27  C    4.738881   5.413848   5.824435   6.058162   5.735042
    28  H    5.713249   6.283947   6.619314   7.011139   6.525681
    29  H    4.781707   5.886156   6.334444   6.376378   6.330899
    30  H    4.003180   4.756285   5.009801   5.464854   5.175319
                   21         22         23         24         25
    21  C    0.000000
    22  N    1.322147   0.000000
    23  C    2.424563   1.454831   0.000000
    24  H    3.062877   2.113355   1.094908   0.000000
    25  H    2.544279   2.097577   1.089552   1.784042   0.000000
    26  H    3.203124   2.088753   1.092976   1.778110   1.763591
    27  C    2.424472   1.454842   2.479234   2.884436   3.386886
    28  H    3.203710   2.088644   2.641868   2.641679   3.692859
    29  H    3.061848   2.113449   2.885502   3.484363   3.737113
    30  H    2.544547   2.097616   3.386647   3.735445   4.187937
                   26         27         28         29         30
    26  H    0.000000
    27  C    2.642828   0.000000
    28  H    2.755525   1.092963   0.000000
    29  H    2.643860   1.094914   1.778077   0.000000
    30  H    3.693786   1.089567   1.763581   1.784100   0.000000
 Stoichiometry    C9H18N3(1+)
 Framework group  C1[X(C9H18N3)]
 Deg. of freedom    84
 Full point group                 C1      NOp   1
 Largest Abelian subgroup         C1      NOp   1
 Largest concise Abelian subgroup C1      NOp   1
                         Standard orientation:                         
 ---------------------------------------------------------------------
 Center     Atomic      Atomic             Coordinates (Angstroms)
 Number     Number       Type             X           Y           Z
 ---------------------------------------------------------------------
      1          6           0       -0.610975   -0.510745   -0.000115
      2          6           0       -0.136632    0.784354   -0.000118
      3          7           0       -1.625585   -1.358470   -0.000149
      4          7           0       -0.363786    2.086845   -0.000256
      5          6           0       -1.430862   -2.779219    0.245115
      6          1           0       -1.515224   -3.355904   -0.681778
      7          1           0       -0.453738   -2.953483    0.694570
      8          1           0       -2.189816   -3.131940    0.948067
      9          6           0       -2.989097   -0.914073   -0.244915
     10          1           0       -3.471984   -1.599183   -0.946347
     11          1           0       -3.570851   -0.892877    0.682419
     12          1           0       -2.986856    0.077730   -0.695991
     13          6           0        0.702642    3.045751   -0.244739
     14          1           0        1.010678    3.539867    0.682520
     15          1           0        1.561174    2.547880   -0.694397
     16          1           0        0.351203    3.805740   -0.947208
     17          6           0       -1.691678    2.628275    0.244928
     18          1           0       -1.617946    3.461770    0.948079
     19          1           0       -2.148816    2.989837   -0.681963
     20          1           0       -2.331110    1.868946    0.694010
     21          6           0        0.747770   -0.273975   -0.000062
     22          7           0        1.989332   -0.728507    0.000089
     23          6           0        2.286824   -2.131338   -0.245062
     24          1           0        2.563014   -2.644923    0.681638
     25          1           0        1.425660   -2.626427   -0.692731
     26          1           0        3.119218   -2.206604   -0.949371
     27          6           0        3.122102    0.150924    0.245030
     28          1           0        3.807685   -0.330042    0.947323
     29          1           0        3.663088    0.366868   -0.682084
     30          1           0        2.784327    1.083936    0.695089
 ---------------------------------------------------------------------
 Rotational constants (GHZ):           0.8639071           0.8637633           0.4436577
 Leave Link  202 at Mon Jan 25 20:54:09 2021, MaxMem=  4026531840 cpu:               0.3 elap:               0.1
 (Enter /opt/ohpc/pub/libs/gaussian/g16-A.03/sandybridge/g16/l301.exe)
 Standard basis: TZVP (5D, 7F)
 Ernie: Thresh=  0.10000D-02 Tol=  0.10000D-05 Strict=F.
 There are   348 symmetry adapted cartesian basis functions of A   symmetry.
 There are   336 symmetry adapted basis functions of A   symmetry.
   336 basis functions,   564 primitive gaussians,   348 cartesian basis functions
    46 alpha electrons       46 beta electrons
       nuclear repulsion energy       740.7629817128 Hartrees.
 IExCor=33909 DFT=T Ex+Corr=LC-wHPBE ExCW=0 ScaHFX=  1.000000
 ScaDFX=  1.000000  1.000000  1.000000  1.000000 ScalE2=  1.000000  1.000000
 IRadAn=      5 IRanWt=     -1 IRanGd=            0 ICorTp=0 IEmpDi=  4
 HFx  wShort=  0.000000 wLong=  0.221900 cFull=  0.000000 cShort=  0.000000 cLong=  1.000000
 DFx  wShort=  0.000000 wLong=  0.221900 cFull=  0.000000 cShort=  1.000000 cLong=  0.000000
 NAtoms=   30 NActive=   30 NUniq=   30 SFac= 1.00D+00 NAtFMM=   60 NAOKFM=F Big=F
 Integral buffers will be    131072 words long.
 Raffenetti 2 integral format.
 Two-electron integral symmetry is turned on.
 Leave Link  301 at Mon Jan 25 20:54:10 2021, MaxMem=  4026531840 cpu:               0.5 elap:               0.1
 (Enter /opt/ohpc/pub/libs/gaussian/g16-A.03/sandybridge/g16/l302.exe)
 NPDir=0 NMtPBC=     1 NCelOv=     1 NCel=       1 NClECP=     1 NCelD=      1
         NCelK=      1 NCelE2=     1 NClLst=     1 CellRange=     0.0.
 One-electron integrals computed using PRISM.
 One-electron integral symmetry used in STVInt
 NBasis=   336 RedAO= T EigKep=  2.74D-05  NBF=   336
 NBsUse=   336 1.00D-06 EigRej= -1.00D+00 NBFU=   336
 Precomputing XC quadrature grid using
 IXCGrd= 4 IRadAn=           5 IRanWt=          -1 IRanGd=           0 AccXCQ= 0.00D+00.
 Generated NRdTot=       0 NPtTot=           0 NUsed=           0 NTot=          32
 NSgBfM=   343   343   343   343   343 MxSgAt=    30 MxSgA2=    30.
 Leave Link  302 at Mon Jan 25 20:54:11 2021, MaxMem=  4026531840 cpu:               7.0 elap:               1.2
 (Enter /opt/ohpc/pub/libs/gaussian/g16-A.03/sandybridge/g16/l303.exe)
 DipDrv:  MaxL=1.
 Leave Link  303 at Mon Jan 25 20:54:11 2021, MaxMem=  4026531840 cpu:               0.4 elap:               0.1
 (Enter /opt/ohpc/pub/libs/gaussian/g16-A.03/sandybridge/g16/l401.exe)
 ExpMin= 9.52D-02 ExpMax= 1.97D+04 ExpMxC= 6.73D+02 IAcc=3 IRadAn=         5 AccDes= 0.00D+00
 Harris functional with IExCor=33909 and IRadAn=       5 diagonalized for initial guess.
 HarFok:  IExCor=33909 AccDes= 0.00D+00 IRadAn=         5 IDoV= 1 UseB2=F ITyADJ=14
 ICtDFT=  3500011 ScaDFX=  1.000000  1.000000  1.000000  1.000000
 FoFCou: FMM=F IPFlag=           0 FMFlag=      100000 FMFlg1=           0
         NFxFlg=           0 DoJE=T BraDBF=F KetDBF=T FulRan=T
         wScrn=  0.000000 ICntrl=       500 IOpCl=  0 I1Cent=   200000004 NGrid=           0
         NMat0=    1 NMatS0=      1 NMatT0=    0 NMatD0=    1 NMtDS0=    0 NMtDT0=    0
 Petite list used in FoFCou.
 Harris En= -506.682031222603    
 JPrj=0 DoOrth=F DoCkMO=F.
 Leave Link  401 at Mon Jan 25 20:54:14 2021, MaxMem=  4026531840 cpu:              24.1 elap:               3.2
 (Enter /opt/ohpc/pub/libs/gaussian/g16-A.03/sandybridge/g16/l502.exe)
 Integral symmetry usage will be decided dynamically.
 Closed shell SCF:
 Using DIIS extrapolation, IDIIS=    10.
 NGot=  4026531840 LenX=  4026283142 LenY=  4026161597
 Requested convergence on RMS density matrix=1.00D-06 within  32 cycles.
 Requested convergence on MAX density matrix=1.00D-04.
 Requested convergence on             energy=1.00D-04.
 Virtual orbitals will be shifted by   0.500 hartree.
 No special actions if energy rises.
 Dynamic level shift is on during FON iterations.

 Cycle   1  Pass 1  IDiag  1:
 FoFJK:  IHMeth= 1 ICntrl=       0 DoSepK=T KAlg= 0 I1Cent=           0 FoldK=F
 IRaf=         1 NMat=       1 IRICut=       1 DoRegI=T DoRafI=F ISym2E= 0 IDoP0=0 IntGTp=1.
 FoFCou: FMM=F IPFlag=           0 FMFlag=      100000 FMFlg1=           0
         NFxFlg=           0 DoJE=T BraDBF=F KetDBF=F FulRan=T
         wScrn=  0.000000 ICntrl=       500 IOpCl=  0 I1Cent=           0 NGrid=           0
         NMat0=    1 NMatS0=      1 NMatT0=    0 NMatD0=    1 NMtDS0=    0 NMtDT0=    0
 Symmetry not used in FoFCou.
 E= -517.290764123038    
 DIIS: error= 3.33D-02 at cycle   1 NSaved=   1.
 NSaved= 1 IEnMin= 1 EnMin= -517.290764123038     IErMin= 1 ErrMin= 3.33D-02
 ErrMax= 3.33D-02  0.00D+00 EMaxC= 1.00D+00 BMatC= 1.87D-01 BMatP= 1.87D-01
 IDIUse=1 WtCom= 1.00D+00 WtEn= 0.00D+00
 Coeff-Com:  0.100D+01
 Coeff:      0.100D+01
 Gap=     0.354 Goal=   None    Shift=    0.500
 T= 1559. Gap= 0.842 NK=0 IS=   47 IE=  336 IFin=   46
          NO(<0.9)=   0  NV(>0.1)=   0     46.00e < EF      0.00e >EF  Err=0.0D+00
 GapD=    0.354 DampG=1.000 DampE=0.500 DampFc=0.5000 IDamp=-1.
 Damping current iteration by 5.00D-01
 RMSDP=1.64D-03 MaxDP=3.78D-02              OVMax= 5.31D-02

 Cycle   2  Pass 1  IDiag  1:
 E= -517.394157194793     Delta-E=       -0.103393071755 Rises=F Damp=T
 DIIS: error= 1.38D-02 at cycle   2 NSaved=   2.
 NSaved= 2 IEnMin= 2 EnMin= -517.394157194793     IErMin= 2 ErrMin= 1.38D-02
 ErrMax= 1.38D-02  0.00D+00 EMaxC= 1.00D+00 BMatC= 3.39D-02 BMatP= 1.87D-01
 IDIUse=1 WtCom= 1.00D+00 WtEn= 0.00D+00
 Coeff-Com: -0.628D+00 0.163D+01
 Coeff:     -0.628D+00 0.163D+01
 Gap=     0.351 Goal=   None    Shift=    0.500
 T= 1429. Gap= 0.849 NK=0 IS=   47 IE=  336 IFin=   46
          NO(<0.9)=   0  NV(>0.1)=   0     46.00e < EF      0.00e >EF  Err=0.0D+00
 GapD=    0.351 DampG=1.000 DampE=0.500 DampFc=0.5000 IDamp=-1.
 Damping current iteration by 5.00D-01
 RMSDP=1.11D-03 MaxDP=2.34D-02 DE=-1.03D-01 OVMax= 8.30D-03

 Cycle   3  Pass 1  IDiag  1:
 E= -517.430563934140     Delta-E=       -0.036406739347 Rises=F Damp=T
 DIIS: error= 6.03D-03 at cycle   3 NSaved=   3.
 NSaved= 3 IEnMin= 3 EnMin= -517.430563934140     IErMin= 3 ErrMin= 6.03D-03
 ErrMax= 6.03D-03  0.00D+00 EMaxC= 1.00D+00 BMatC= 6.96D-03 BMatP= 3.39D-02
 IDIUse=1 WtCom= 1.00D+00 WtEn= 0.00D+00
 Coeff-Com:  0.120D+00-0.119D+01 0.207D+01
 Coeff:      0.120D+00-0.119D+01 0.207D+01
 Gap=     0.356 Goal=   None    Shift=    0.500
 T= 1180. Gap= 0.853 NK=0 IS=   47 IE=  336 IFin=   46
          NO(<0.9)=   0  NV(>0.1)=   0     46.00e < EF      0.00e >EF  Err=0.0D+00
 GapD=    0.356 DampG=1.000 DampE=1.000 DampFc=1.0000 IDamp=-1.
 RMSDP=6.91D-04 MaxDP=1.60D-02 DE=-3.64D-02 OVMax= 2.63D-03

 Cycle   4  Pass 1  IDiag  1:
 E= -517.461091297540     Delta-E=       -0.030527363401 Rises=F Damp=F
 DIIS: error= 5.64D-04 at cycle   4 NSaved=   4.
 NSaved= 4 IEnMin= 4 EnMin= -517.461091297540     IErMin= 4 ErrMin= 5.64D-04
 ErrMax= 5.64D-04  0.00D+00 EMaxC= 1.00D+00 BMatC= 1.22D-04 BMatP= 6.96D-03
 IDIUse=1 WtCom= 1.00D+00 WtEn= 0.00D+00
 Coeff-Com:  0.678D-01-0.166D+00 0.928D-01 0.101D+01
 Coeff:      0.678D-01-0.166D+00 0.928D-01 0.101D+01
 Gap=     0.353 Goal=   None    Shift=    0.500
 RMSDP=7.12D-05 MaxDP=2.11D-03 DE=-3.05D-02 OVMax= 1.19D-03

 Cycle   5  Pass 1  IDiag  1:
 E= -517.461219438831     Delta-E=       -0.000128141291 Rises=F Damp=F
 DIIS: error= 1.62D-04 at cycle   5 NSaved=   5.
 NSaved= 5 IEnMin= 5 EnMin= -517.461219438831     IErMin= 5 ErrMin= 1.62D-04
 ErrMax= 1.62D-04  0.00D+00 EMaxC= 1.00D+00 BMatC= 1.41D-05 BMatP= 1.22D-04
 IDIUse=1 WtCom= 1.00D+00 WtEn= 0.00D+00
 Coeff-Com:  0.136D-02 0.105D+00-0.224D+00-0.471D-02 0.112D+01
 Coeff:      0.136D-02 0.105D+00-0.224D+00-0.471D-02 0.112D+01
 Gap=     0.353 Goal=   None    Shift=    0.500
 RMSDP=4.00D-05 MaxDP=1.48D-03 DE=-1.28D-04 OVMax= 7.72D-04

 Cycle   6  Pass 1  IDiag  1:
 E= -517.461243976979     Delta-E=       -0.000024538147 Rises=F Damp=F
 DIIS: error= 8.49D-05 at cycle   6 NSaved=   6.
 NSaved= 6 IEnMin= 6 EnMin= -517.461243976979     IErMin= 6 ErrMin= 8.49D-05
 ErrMax= 8.49D-05  0.00D+00 EMaxC= 1.00D+00 BMatC= 2.40D-06 BMatP= 1.41D-05
 IDIUse=1 WtCom= 1.00D+00 WtEn= 0.00D+00
 Coeff-Com: -0.113D-01 0.543D-01-0.721D-01-0.180D+00 0.701D-01 0.114D+01
 Coeff:     -0.113D-01 0.543D-01-0.721D-01-0.180D+00 0.701D-01 0.114D+01
 Gap=     0.353 Goal=   None    Shift=    0.500
 RMSDP=2.12D-05 MaxDP=6.83D-04 DE=-2.45D-05 OVMax= 3.92D-04

 Cycle   7  Pass 1  IDiag  1:
 E= -517.461249610107     Delta-E=       -0.000005633129 Rises=F Damp=F
 DIIS: error= 3.61D-05 at cycle   7 NSaved=   7.
 NSaved= 7 IEnMin= 7 EnMin= -517.461249610107     IErMin= 7 ErrMin= 3.61D-05
 ErrMax= 3.61D-05  0.00D+00 EMaxC= 1.00D+00 BMatC= 4.49D-07 BMatP= 2.40D-06
 IDIUse=1 WtCom= 1.00D+00 WtEn= 0.00D+00
 Coeff-Com: -0.163D-02-0.127D-01 0.306D-01-0.303D-01-0.192D+00-0.226D+00
 Coeff-Com:  0.143D+01
 Coeff:     -0.163D-02-0.127D-01 0.306D-01-0.303D-01-0.192D+00-0.226D+00
 Coeff:      0.143D+01
 Gap=     0.353 Goal=   None    Shift=    0.500
 RMSDP=1.10D-05 MaxDP=2.65D-04 DE=-5.63D-06 OVMax= 2.20D-04

 Cycle   8  Pass 1  IDiag  1:
 E= -517.461250998282     Delta-E=       -0.000001388174 Rises=F Damp=F
 DIIS: error= 2.04D-05 at cycle   8 NSaved=   8.
 NSaved= 8 IEnMin= 8 EnMin= -517.461250998282     IErMin= 8 ErrMin= 2.04D-05
 ErrMax= 2.04D-05  0.00D+00 EMaxC= 1.00D+00 BMatC= 9.95D-08 BMatP= 4.49D-07
 IDIUse=1 WtCom= 1.00D+00 WtEn= 0.00D+00
 Coeff-Com:  0.125D-02-0.279D-02 0.979D-03 0.347D-01-0.247D-01-0.990D-01
 Coeff-Com: -0.766D+00 0.186D+01
 Coeff:      0.125D-02-0.279D-02 0.979D-03 0.347D-01-0.247D-01-0.990D-01
 Coeff:     -0.766D+00 0.186D+01
 Gap=     0.353 Goal=   None    Shift=    0.500
 RMSDP=5.07D-06 MaxDP=1.19D-04 DE=-1.39D-06 OVMax= 1.29D-04

 Cycle   9  Pass 1  IDiag  1:
 E= -517.461251337566     Delta-E=       -0.000000339284 Rises=F Damp=F
 DIIS: error= 1.13D-05 at cycle   9 NSaved=   9.
 NSaved= 9 IEnMin= 9 EnMin= -517.461251337566     IErMin= 9 ErrMin= 1.13D-05
 ErrMax= 1.13D-05  0.00D+00 EMaxC= 1.00D+00 BMatC= 2.30D-08 BMatP= 9.95D-08
 IDIUse=1 WtCom= 1.00D+00 WtEn= 0.00D+00
 Coeff-Com: -0.474D-03 0.287D-02-0.407D-02-0.551D-02 0.216D-01 0.556D-01
 Coeff-Com:  0.310D-01-0.139D+01 0.229D+01
 Coeff:     -0.474D-03 0.287D-02-0.407D-02-0.551D-02 0.216D-01 0.556D-01
 Coeff:      0.310D-01-0.139D+01 0.229D+01
 Gap=     0.353 Goal=   None    Shift=    0.500
 RMSDP=2.21D-06 MaxDP=4.13D-05 DE=-3.39D-07 OVMax= 7.62D-05

 Cycle  10  Pass 1  IDiag  1:
 E= -517.461251419815     Delta-E=       -0.000000082249 Rises=F Damp=F
 DIIS: error= 6.25D-06 at cycle  10 NSaved=  10.
 NSaved=10 IEnMin=10 EnMin= -517.461251419815     IErMin=10 ErrMin= 6.25D-06
 ErrMax= 6.25D-06  0.00D+00 EMaxC= 1.00D+00 BMatC= 5.78D-09 BMatP= 2.30D-08
 IDIUse=1 WtCom= 1.00D+00 WtEn= 0.00D+00
 Coeff-Com: -0.171D-03 0.153D-04 0.591D-03-0.438D-02-0.391D-02 0.307D-01
 Coeff-Com:  0.910D-01-0.140D+00-0.128D+01 0.231D+01
 Coeff:     -0.171D-03 0.153D-04 0.591D-03-0.438D-02-0.391D-02 0.307D-01
 Coeff:      0.910D-01-0.140D+00-0.128D+01 0.231D+01
 Gap=     0.353 Goal=   None    Shift=    0.500
 RMSDP=1.01D-06 MaxDP=1.57D-05 DE=-8.22D-08 OVMax= 4.47D-05

 Cycle  11  Pass 1  IDiag  1:
 E= -517.461251440442     Delta-E=       -0.000000020628 Rises=F Damp=F
 DIIS: error= 3.36D-06 at cycle  11 NSaved=  11.
 NSaved=11 IEnMin=11 EnMin= -517.461251440442     IErMin=11 ErrMin= 3.36D-06
 ErrMax= 3.36D-06  0.00D+00 EMaxC= 1.00D+00 BMatC= 1.51D-09 BMatP= 5.78D-09
 IDIUse=1 WtCom= 1.00D+00 WtEn= 0.00D+00
 Coeff-Com:  0.606D-04-0.316D-03 0.432D-03 0.195D-02-0.451D-02-0.433D-02
 Coeff-Com: -0.274D-01 0.228D+00-0.787D-01-0.174D+01 0.263D+01
 Coeff:      0.606D-04-0.316D-03 0.432D-03 0.195D-02-0.451D-02-0.433D-02
 Coeff:     -0.274D-01 0.228D+00-0.787D-01-0.174D+01 0.263D+01
 Gap=     0.353 Goal=   None    Shift=    0.500
 RMSDP=4.84D-07 MaxDP=8.11D-06 DE=-2.06D-08 OVMax= 2.56D-05

 SCF Done:  E(RLC-wHPBE) =  -517.461251440     A.U. after   11 cycles
            NFock= 11  Conv=0.48D-06     -V/T= 2.0049
 KE= 5.149582275369D+02 PE=-2.668601560476D+03 EE= 8.954190997862D+02
 Leave Link  502 at Mon Jan 25 20:56:28 2021, MaxMem=  4026531840 cpu:            1070.4 elap:             134.0
 (Enter /opt/ohpc/pub/libs/gaussian/g16-A.03/sandybridge/g16/l508.exe)
 QCSCF skips out because SCF is already converged.
 Leave Link  508 at Mon Jan 25 20:56:28 2021, MaxMem=  4026531840 cpu:               0.2 elap:               0.1
 (Enter /opt/ohpc/pub/libs/gaussian/g16-A.03/sandybridge/g16/l601.exe)
 Copying SCF densities to generalized density rwf, IOpCl= 0 IROHF=0.

 **********************************************************************

            Population analysis using the SCF density.

 **********************************************************************

 Orbital symmetries:
       Occupied  (A) (A) (A) (A) (A) (A) (A) (A) (A) (A) (A) (A)
                 (A) (A) (A) (A) (A) (A) (A) (A) (A) (A) (A) (A)
                 (A) (A) (A) (A) (A) (A) (A) (A) (A) (A) (A) (A)
                 (A) (A) (A) (A) (A) (A) (A) (A) (A) (A)
       Virtual   (A) (A) (A) (A) (A) (A) (A) (A) (A) (A) (A) (A)
                 (A) (A) (A) (A) (A) (A) (A) (A) (A) (A) (A) (A)
                 (A) (A) (A) (A) (A) (A) (A) (A) (A) (A) (A) (A)
                 (A) (A) (A) (A) (A) (A) (A) (A) (A) (A) (A) (A)
                 (A) (A) (A) (A) (A) (A) (A) (A) (A) (A) (A) (A)
                 (A) (A) (A) (A) (A) (A) (A) (A) (A) (A) (A) (A)
                 (A) (A) (A) (A) (A) (A) (A) (A) (A) (A) (A) (A)
                 (A) (A) (A) (A) (A) (A) (A) (A) (A) (A) (A) (A)
                 (A) (A) (A) (A) (A) (A) (A) (A) (A) (A) (A) (A)
                 (A) (A) (A) (A) (A) (A) (A) (A) (A) (A) (A) (A)
                 (A) (A) (A) (A) (A) (A) (A) (A) (A) (A) (A) (A)
                 (A) (A) (A) (A) (A) (A) (A) (A) (A) (A) (A) (A)
                 (A) (A) (A) (A) (A) (A) (A) (A) (A) (A) (A) (A)
                 (A) (A) (A) (A) (A) (A) (A) (A) (A) (A) (A) (A)
                 (A) (A) (A) (A) (A) (A) (A) (A) (A) (A) (A) (A)
                 (A) (A) (A) (A) (A) (A) (A) (A) (A) (A) (A) (A)
                 (A) (A) (A) (A) (A) (A) (A) (A) (A) (A) (A) (A)
                 (A) (A) (A) (A) (A) (A) (A) (A) (A) (A) (A) (A)
                 (A) (A) (A) (A) (A) (A) (A) (A) (A) (A) (A) (A)
                 (A) (A) (A) (A) (A) (A) (A) (A) (A) (A) (A) (A)
                 (A) (A) (A) (A) (A) (A) (A) (A) (A) (A) (A) (A)
                 (A) (A) (A) (A) (A) (A) (A) (A) (A) (A) (A) (A)
                 (A) (A) (A) (A) (A) (A) (A) (A) (A) (A) (A) (A)
                 (A) (A) (A) (A) (A) (A) (A) (A) (A) (A) (A) (A)
                 (A) (A)
 The electronic state is 1-A.
 Alpha  occ. eigenvalues --  -14.29763 -14.29763 -14.29762 -10.22892 -10.22828
 Alpha  occ. eigenvalues --  -10.22828 -10.17285 -10.17285 -10.17285 -10.17283
 Alpha  occ. eigenvalues --  -10.17282 -10.17282  -1.19073  -1.15337  -1.15337
 Alpha  occ. eigenvalues --   -1.09680  -0.92942  -0.92942  -0.92133  -0.90847
 Alpha  occ. eigenvalues --   -0.90846  -0.89005  -0.75434  -0.75434  -0.74719
 Alpha  occ. eigenvalues --   -0.70540  -0.70285  -0.70285  -0.67651  -0.67616
 Alpha  occ. eigenvalues --   -0.67616  -0.62018  -0.62018  -0.61862  -0.61790
 Alpha  occ. eigenvalues --   -0.60681  -0.60679  -0.60436  -0.59345  -0.59344
 Alpha  occ. eigenvalues --   -0.57841  -0.57639  -0.57638  -0.49484  -0.49484
 Alpha  occ. eigenvalues --   -0.39982
 Alpha virt. eigenvalues --   -0.04688  -0.04685  -0.04550  -0.00989  -0.00987
 Alpha virt. eigenvalues --    0.00332   0.01749   0.01778   0.01779   0.04414
 Alpha virt. eigenvalues --    0.04532   0.04533   0.04592   0.04593   0.04909
 Alpha virt. eigenvalues --    0.05994   0.06022   0.06115   0.06118   0.07335
 Alpha virt. eigenvalues --    0.07343   0.08224   0.08229   0.09145   0.11522
 Alpha virt. eigenvalues --    0.11685   0.11691   0.13718   0.14179   0.14181
 Alpha virt. eigenvalues --    0.15272   0.15282   0.17786   0.18324   0.18329
 Alpha virt. eigenvalues --    0.19658   0.20477   0.21749   0.21754   0.24275
 Alpha virt. eigenvalues --    0.24474   0.24691   0.24702   0.25958   0.25961
 Alpha virt. eigenvalues --    0.27958   0.27965   0.28520   0.30800   0.30804
 Alpha virt. eigenvalues --    0.32249   0.32811   0.33790   0.33801   0.35740
 Alpha virt. eigenvalues --    0.36397   0.36406   0.36787   0.37475   0.37477
 Alpha virt. eigenvalues --    0.38017   0.39119   0.39123   0.39424   0.41092
 Alpha virt. eigenvalues --    0.41096   0.41283   0.41932   0.41936   0.43600
 Alpha virt. eigenvalues --    0.43610   0.45154   0.45323   0.46083   0.46757
 Alpha virt. eigenvalues --    0.46766   0.47665   0.48115   0.48118   0.50733
 Alpha virt. eigenvalues --    0.50735   0.55425   0.55427   0.58305   0.58314
 Alpha virt. eigenvalues --    0.58688   0.58696   0.58925   0.60502   0.63032
 Alpha virt. eigenvalues --    0.65950   0.66079   0.66082   0.73028   0.73040
 Alpha virt. eigenvalues --    0.77373   0.77379   0.77628   1.05609   1.05616
 Alpha virt. eigenvalues --    1.05695   1.10162   1.15363   1.15542   1.15556
 Alpha virt. eigenvalues --    1.16432   1.17176   1.20052   1.20058   1.22043
 Alpha virt. eigenvalues --    1.22045   1.24714   1.25110   1.25112   1.25761
 Alpha virt. eigenvalues --    1.26414   1.27228   1.27233   1.28895   1.28898
 Alpha virt. eigenvalues --    1.29672   1.31017   1.31030   1.35733   1.35744
 Alpha virt. eigenvalues --    1.35841   1.36921   1.37491   1.37496   1.37698
 Alpha virt. eigenvalues --    1.39598   1.39613   1.42070   1.42075   1.44544
 Alpha virt. eigenvalues --    1.46230   1.47115   1.47752   1.47760   1.48717
 Alpha virt. eigenvalues --    1.48721   1.49684   1.49689   1.52571   1.55165
 Alpha virt. eigenvalues --    1.55602   1.55614   1.57316   1.57467   1.57472
 Alpha virt. eigenvalues --    1.60266   1.60270   1.62467   1.63172   1.63176
 Alpha virt. eigenvalues --    1.65158   1.67234   1.67237   1.68167   1.69571
 Alpha virt. eigenvalues --    1.69573   1.69795   1.70023   1.70326   1.70332
 Alpha virt. eigenvalues --    1.70825   1.70832   1.71016   1.72501   1.72506
 Alpha virt. eigenvalues --    1.73723   1.73795   1.73805   1.74296   1.78839
 Alpha virt. eigenvalues --    1.78843   1.79507   1.79516   1.81229   1.91439
 Alpha virt. eigenvalues --    1.93623   1.93640   2.00020   2.00175   2.00183
 Alpha virt. eigenvalues --    2.02123   2.04283   2.04288   2.04895   2.07391
 Alpha virt. eigenvalues --    2.07401   2.12879   2.12888   2.14322   2.19090
 Alpha virt. eigenvalues --    2.19253   2.20081   2.20089   2.21197   2.21203
 Alpha virt. eigenvalues --    2.21365   2.22846   2.24899   2.24917   2.26456
 Alpha virt. eigenvalues --    2.26463   2.26979   2.29283   2.30496   2.30504
 Alpha virt. eigenvalues --    2.34554   2.36070   2.36082   2.43535   2.43545
 Alpha virt. eigenvalues --    2.43762   2.43899   2.43906   2.46856   2.46865
 Alpha virt. eigenvalues --    2.46912   2.48337   2.49132   2.49162   2.51459
 Alpha virt. eigenvalues --    2.52013   2.52030   2.52620   2.55150   2.58283
 Alpha virt. eigenvalues --    2.58299   2.58563   2.61832   2.61838   2.63551
 Alpha virt. eigenvalues --    2.66512   2.66521   2.68172   2.68863   2.68885
 Alpha virt. eigenvalues --    2.73629   2.73633   2.75726   2.76656   2.79201
 Alpha virt. eigenvalues --    2.79203   2.86976   2.86978   2.99803   3.00447
 Alpha virt. eigenvalues --    3.00476   3.01072   3.02328   3.02337   3.08433
 Alpha virt. eigenvalues --    3.12719   3.12723   3.19661   3.19673   3.21407
 Alpha virt. eigenvalues --    3.21641   3.21646   3.22857   3.24305   3.24319
 Alpha virt. eigenvalues --    3.25232   3.29966   3.29985   3.31474   3.35975
 Alpha virt. eigenvalues --    3.35982   3.39204   3.44469   3.62779   3.62793
 Alpha virt. eigenvalues --    3.73409   3.88514   3.88522  21.37614  21.66052
 Alpha virt. eigenvalues --   21.67960  21.67967  21.83812  21.83814  21.88021
 Alpha virt. eigenvalues --   22.10976  22.10990  31.51068  31.70251  31.70256
          Condensed to atoms (all electrons):
               1          2          3          4          5          6
     1  C    5.761468   0.099599   0.507452  -0.104674  -0.060455  -0.005264
     2  C    0.099599   5.761985  -0.104616   0.507532  -0.001215  -0.003340
     3  N    0.507452  -0.104616   6.482817  -0.002013   0.219779  -0.040439
     4  N   -0.104674   0.507532  -0.002013   6.482779  -0.000684  -0.000010
     5  C   -0.060455  -0.001215   0.219779  -0.000684   4.937662   0.418160
     6  H   -0.005264  -0.003340  -0.040439  -0.000010   0.418160   0.508135
     7  H   -0.015976   0.007171  -0.029179   0.000013   0.405572  -0.025006
     8  H    0.008709   0.000968  -0.039758   0.000005   0.403758  -0.027432
     9  C   -0.060537  -0.004964   0.219721  -0.001001  -0.048815  -0.007948
    10  H    0.008743  -0.003059  -0.039708  -0.000031   0.000325   0.004136
    11  H   -0.005304   0.006935  -0.040474   0.000055  -0.007927  -0.000708
    12  H   -0.015972   0.000784  -0.029149  -0.001818   0.008427  -0.000052
    13  C   -0.001245  -0.060481  -0.000684   0.219795   0.000005  -0.000003
    14  H   -0.003342  -0.005285  -0.000010  -0.040467  -0.000003  -0.000000
    15  H    0.007159  -0.015958   0.000013  -0.029155   0.000002  -0.000000
    16  H    0.000969   0.008737   0.000005  -0.039736   0.000001   0.000000
    17  C   -0.005044  -0.060484  -0.001006   0.219770   0.000005  -0.000001
    18  H   -0.003070   0.008707  -0.000031  -0.039765  -0.000002  -0.000000
    19  H    0.006924  -0.005253   0.000055  -0.040445   0.000012   0.000001
    20  H    0.000818  -0.015975  -0.001830  -0.029174  -0.000075   0.000002
    21  C    0.100483   0.099461  -0.104600  -0.104656  -0.005092   0.006926
    22  N   -0.104663  -0.104600  -0.002016  -0.002012  -0.001001   0.000054
    23  C   -0.005113  -0.001157  -0.001005  -0.000684   0.001547  -0.000580
    24  H    0.006922  -0.003343   0.000054  -0.000010  -0.000576  -0.000057
    25  H    0.000807   0.007220  -0.001823   0.000013  -0.000209  -0.000439
    26  H   -0.003074   0.000967  -0.000031   0.000005   0.000094   0.000035
    27  C   -0.001282  -0.004939  -0.000684  -0.001002   0.000005   0.000012
    28  H    0.000972  -0.003064   0.000005  -0.000031  -0.000003  -0.000001
    29  H   -0.003342   0.006927  -0.000010   0.000054  -0.000001   0.000001
    30  H    0.007149   0.000770   0.000013  -0.001825   0.000008   0.000000
               7          8          9         10         11         12
     1  C   -0.015976   0.008709  -0.060537   0.008743  -0.005304  -0.015972
     2  C    0.007171   0.000968  -0.004964  -0.003059   0.006935   0.000784
     3  N   -0.029179  -0.039758   0.219721  -0.039708  -0.040474  -0.029149
     4  N    0.000013   0.000005  -0.001001  -0.000031   0.000055  -0.001818
     5  C    0.405572   0.403758  -0.048815   0.000325  -0.007927   0.008427
     6  H   -0.025006  -0.027432  -0.007948   0.004136  -0.000708  -0.000052
     7  H    0.522974  -0.019851   0.008431   0.000290  -0.000054  -0.000491
     8  H   -0.019851   0.507990   0.000342  -0.003382   0.004137   0.000288
     9  C    0.008431   0.000342   4.937900   0.403669   0.418201   0.405633
    10  H    0.000290  -0.003382   0.403669   0.507944  -0.027408  -0.019818
    11  H   -0.000054   0.004137   0.418201  -0.027408   0.508153  -0.025044
    12  H   -0.000491   0.000288   0.405633  -0.019818  -0.025044   0.522817
    13  C    0.000002   0.000001   0.000006  -0.000002   0.000012  -0.000075
    14  H   -0.000000   0.000000  -0.000001  -0.000000   0.000001   0.000002
    15  H   -0.000001   0.000000   0.000008  -0.000000   0.000000   0.000014
    16  H    0.000000  -0.000000  -0.000003   0.000000  -0.000001   0.000005
    17  C    0.000008  -0.000003   0.001605   0.000094  -0.000589  -0.000200
    18  H   -0.000000   0.000000   0.000094  -0.000006   0.000035   0.000322
    19  H    0.000000  -0.000001  -0.000585   0.000035  -0.000057  -0.000434
    20  H    0.000014   0.000005  -0.000182   0.000323  -0.000437  -0.003193
    21  C    0.000801  -0.003065  -0.001303   0.000969  -0.003339   0.007123
    22  N   -0.001813  -0.000031  -0.000684   0.000005  -0.000010   0.000013
    23  C   -0.000225   0.000094   0.000004  -0.000003  -0.000001   0.000008
    24  H   -0.000436   0.000034   0.000012  -0.000001   0.000001   0.000000
    25  H   -0.003160   0.000323  -0.000074   0.000005   0.000002   0.000014
    26  H    0.000322  -0.000006  -0.000002   0.000000  -0.000000  -0.000000
    27  C   -0.000074  -0.000002   0.000005   0.000001  -0.000003   0.000002
    28  H    0.000005   0.000000   0.000001  -0.000000   0.000000   0.000000
    29  H    0.000002  -0.000000  -0.000003   0.000000  -0.000000  -0.000000
    30  H    0.000014  -0.000000   0.000002   0.000000  -0.000000  -0.000001
              13         14         15         16         17         18
     1  C   -0.001245  -0.003342   0.007159   0.000969  -0.005044  -0.003070
     2  C   -0.060481  -0.005285  -0.015958   0.008737  -0.060484   0.008707
     3  N   -0.000684  -0.000010   0.000013   0.000005  -0.001006  -0.000031
     4  N    0.219795  -0.040467  -0.029155  -0.039736   0.219770  -0.039765
     5  C    0.000005  -0.000003   0.000002   0.000001   0.000005  -0.000002
     6  H   -0.000003  -0.000000  -0.000000   0.000000  -0.000001  -0.000000
     7  H    0.000002  -0.000000  -0.000001   0.000000   0.000008  -0.000000
     8  H    0.000001   0.000000   0.000000  -0.000000  -0.000003   0.000000
     9  C    0.000006  -0.000001   0.000008  -0.000003   0.001605   0.000094
    10  H   -0.000002  -0.000000  -0.000000   0.000000   0.000094  -0.000006
    11  H    0.000012   0.000001   0.000000  -0.000001  -0.000589   0.000035
    12  H   -0.000075   0.000002   0.000014   0.000005  -0.000200   0.000322
    13  C    4.937725   0.418210   0.405579   0.403691  -0.048878   0.000345
    14  H    0.418210   0.508159  -0.025016  -0.027435  -0.007943   0.004148
    15  H    0.405579  -0.025016   0.522877  -0.019829   0.008437   0.000288
    16  H    0.403691  -0.027435  -0.019829   0.508016   0.000327  -0.003381
    17  C   -0.048878  -0.007943   0.008437   0.000327   4.937687   0.403751
    18  H    0.000345   0.004148   0.000288  -0.003381   0.403751   0.508055
    19  H   -0.007945  -0.000710  -0.000053   0.004145   0.418150  -0.027445
    20  H    0.008431  -0.000054  -0.000491   0.000289   0.405566  -0.019843
    21  C   -0.005045   0.006924   0.000769  -0.003058  -0.001233   0.000968
    22  N   -0.001004   0.000054  -0.001826  -0.000031  -0.000684   0.000005
    23  C    0.000005   0.000012  -0.000075  -0.000002   0.000005   0.000001
    24  H   -0.000001   0.000001   0.000002  -0.000000  -0.000003   0.000000
    25  H    0.000009   0.000000   0.000014  -0.000000   0.000002   0.000000
    26  H   -0.000003  -0.000001   0.000005   0.000000   0.000001  -0.000000
    27  C    0.001595  -0.000585  -0.000194   0.000094   0.000006  -0.000003
    28  H    0.000094   0.000035   0.000322  -0.000006  -0.000002   0.000000
    29  H   -0.000586  -0.000057  -0.000436   0.000035   0.000012  -0.000001
    30  H   -0.000196  -0.000435  -0.003184   0.000322  -0.000075   0.000005
              19         20         21         22         23         24
     1  C    0.006924   0.000818   0.100483  -0.104663  -0.005113   0.006922
     2  C   -0.005253  -0.015975   0.099461  -0.104600  -0.001157  -0.003343
     3  N    0.000055  -0.001830  -0.104600  -0.002016  -0.001005   0.000054
     4  N   -0.040445  -0.029174  -0.104656  -0.002012  -0.000684  -0.000010
     5  C    0.000012  -0.000075  -0.005092  -0.001001   0.001547  -0.000576
     6  H    0.000001   0.000002   0.006926   0.000054  -0.000580  -0.000057
     7  H    0.000000   0.000014   0.000801  -0.001813  -0.000225  -0.000436
     8  H   -0.000001   0.000005  -0.003065  -0.000031   0.000094   0.000034
     9  C   -0.000585  -0.000182  -0.001303  -0.000684   0.000004   0.000012
    10  H    0.000035   0.000323   0.000969   0.000005  -0.000003  -0.000001
    11  H   -0.000057  -0.000437  -0.003339  -0.000010  -0.000001   0.000001
    12  H   -0.000434  -0.003193   0.007123   0.000013   0.000008   0.000000
    13  C   -0.007945   0.008431  -0.005045  -0.001004   0.000005  -0.000001
    14  H   -0.000710  -0.000054   0.006924   0.000054   0.000012   0.000001
    15  H   -0.000053  -0.000491   0.000769  -0.001826  -0.000075   0.000002
    16  H    0.004145   0.000289  -0.003058  -0.000031  -0.000002  -0.000000
    17  C    0.418150   0.405566  -0.001233  -0.000684   0.000005  -0.000003
    18  H   -0.027445  -0.019843   0.000968   0.000005   0.000001   0.000000
    19  H    0.508149  -0.024994  -0.003334  -0.000010  -0.000003  -0.000000
    20  H   -0.024994   0.522893   0.007160   0.000013   0.000002  -0.000000
    21  C   -0.003334   0.007160   5.761485   0.507524  -0.060427  -0.005232
    22  N   -0.000010   0.000013   0.507524   6.482666   0.219855  -0.040432
    23  C   -0.000003   0.000002  -0.060427   0.219855   4.937450   0.418152
    24  H   -0.000000  -0.000000  -0.005232  -0.040432   0.418152   0.508161
    25  H   -0.000000  -0.000001  -0.015964  -0.029194   0.405490  -0.024960
    26  H    0.000000   0.000000   0.008687  -0.039788   0.403800  -0.027477
    27  C   -0.000001   0.000008  -0.060554   0.219779  -0.048933  -0.007970
    28  H   -0.000000  -0.000000   0.008746  -0.039742   0.000325   0.004156
    29  H    0.000001   0.000000  -0.005291  -0.040452  -0.007930  -0.000711
    30  H    0.000002   0.000014  -0.015966  -0.029141   0.008436  -0.000052
              25         26         27         28         29         30
     1  C    0.000807  -0.003074  -0.001282   0.000972  -0.003342   0.007149
     2  C    0.007220   0.000967  -0.004939  -0.003064   0.006927   0.000770
     3  N   -0.001823  -0.000031  -0.000684   0.000005  -0.000010   0.000013
     4  N    0.000013   0.000005  -0.001002  -0.000031   0.000054  -0.001825
     5  C   -0.000209   0.000094   0.000005  -0.000003  -0.000001   0.000008
     6  H   -0.000439   0.000035   0.000012  -0.000001   0.000001   0.000000
     7  H   -0.003160   0.000322  -0.000074   0.000005   0.000002   0.000014
     8  H    0.000323  -0.000006  -0.000002   0.000000  -0.000000  -0.000000
     9  C   -0.000074  -0.000002   0.000005   0.000001  -0.000003   0.000002
    10  H    0.000005   0.000000   0.000001  -0.000000   0.000000   0.000000
    11  H    0.000002  -0.000000  -0.000003   0.000000  -0.000000  -0.000000
    12  H    0.000014  -0.000000   0.000002   0.000000  -0.000000  -0.000001
    13  C    0.000009  -0.000003   0.001595   0.000094  -0.000586  -0.000196
    14  H    0.000000  -0.000001  -0.000585   0.000035  -0.000057  -0.000435
    15  H    0.000014   0.000005  -0.000194   0.000322  -0.000436  -0.003184
    16  H   -0.000000   0.000000   0.000094  -0.000006   0.000035   0.000322
    17  C    0.000002   0.000001   0.000006  -0.000002   0.000012  -0.000075
    18  H    0.000000  -0.000000  -0.000003   0.000000  -0.000001   0.000005
    19  H   -0.000000   0.000000  -0.000001  -0.000000   0.000001   0.000002
    20  H   -0.000001   0.000000   0.000008  -0.000000   0.000000   0.000014
    21  C   -0.015964   0.008687  -0.060554   0.008746  -0.005291  -0.015966
    22  N   -0.029194  -0.039788   0.219779  -0.039742  -0.040452  -0.029141
    23  C    0.405490   0.403800  -0.048933   0.000325  -0.007930   0.008436
    24  H   -0.024960  -0.027477  -0.007970   0.004156  -0.000711  -0.000052
    25  H    0.523015  -0.019863   0.008444   0.000291  -0.000056  -0.000492
    26  H   -0.019863   0.508108   0.000349  -0.003381   0.004154   0.000286
    27  C    0.008444   0.000349   4.937778   0.403679   0.418196   0.405582
    28  H    0.000291  -0.003381   0.403679   0.508049  -0.027433  -0.019828
    29  H   -0.000056   0.004154   0.418196  -0.027433   0.508156  -0.025020
    30  H   -0.000492   0.000286   0.405582  -0.019828  -0.025020   0.522868
 Mulliken charges:
               1
     1  C   -0.119816
     2  C   -0.120028
     3  N    0.009153
     4  N    0.009171
     5  C   -0.269305
     6  H    0.173814
     7  H    0.150648
     8  H    0.166877
     9  C   -0.269531
    10  H    0.166880
    11  H    0.173826
    12  H    0.150797
    13  C   -0.269359
    14  H    0.173796
    15  H    0.150728
    16  H    0.166845
    17  C   -0.269282
    18  H    0.166823
    19  H    0.173795
    20  H    0.150712
    21  C   -0.119866
    22  N    0.009166
    23  C   -0.269050
    24  H    0.173764
    25  H    0.150589
    26  H    0.166813
    27  C   -0.269307
    28  H    0.166810
    29  H    0.173790
    30  H    0.150742
 Sum of Mulliken charges =   1.00000
 Mulliken charges with hydrogens summed into heavy atoms:
               1
     1  C   -0.119816
     2  C   -0.120028
     3  N    0.009153
     4  N    0.009171
     5  C    0.222035
     9  C    0.221973
    13  C    0.222011
    17  C    0.222048
    21  C   -0.119866
    22  N    0.009166
    23  C    0.222116
    27  C    0.222036
 Electronic spatial extent (au):  <R**2>=           2594.6390
 Charge=              1.0000 electrons
 Dipole moment (field-independent basis, Debye):
    X=             -0.0004    Y=             -0.0003    Z=              0.0007  Tot=              0.0008
 Quadrupole moment (field-independent basis, Debye-Ang):
   XX=            -44.2283   YY=            -44.2321   ZZ=            -71.9830
   XY=              0.0015   XZ=              0.0002   YZ=              0.0002
 Traceless Quadrupole moment (field-independent basis, Debye-Ang):
   XX=              9.2529   YY=              9.2490   ZZ=            -18.5019
   XY=              0.0015   XZ=              0.0002   YZ=              0.0002
 Octapole moment (field-independent basis, Debye-Ang**2):
  XXX=              8.3735  YYY=             14.7082  ZZZ=              0.0014  XYY=             -8.3853
  XXY=            -14.7265  XXZ=              0.0010  XZZ=              0.0025  YZZ=              0.0044
  YYZ=              0.0015  XYZ=             -0.0001
 Hexadecapole moment (field-independent basis, Debye-Ang**3):
 XXXX=          -1393.5441 YYYY=          -1393.2855 ZZZZ=           -133.4393 XXXY=              0.0136
 XXXZ=              4.6808 YYYX=              0.0194 YYYZ=             -2.6476 ZZZX=             -0.0152
 ZZZY=              0.0023 XXYY=           -464.4499 XXZZ=           -277.4869 YYZZ=           -277.4616
 XXYZ=              2.6362 YYXZ=             -4.6264 ZZXY=             -0.0090
 N-N= 7.407629817128D+02 E-N=-2.668601350747D+03  KE= 5.149582275369D+02
 No NMR shielding tensors so no spin-rotation constants.
 Leave Link  601 at Mon Jan 25 20:56:29 2021, MaxMem=  4026531840 cpu:               1.7 elap:               0.2
 (Enter /opt/ohpc/pub/libs/gaussian/g16-A.03/sandybridge/g16/l9999.exe)

 Test job not archived.
 1\1\GINC-CNODE237\SP\RLC-wHPBE\TZVP\C9H18N3(1+)\RDU230\25-Jan-2021\0\\
 #P LC-wHPBE/TZVP iop(3/107=0221900000, 3/108=0221900000) scf=(conver=6
 ,fermi,ndamp=35,noincfock,novaracc,vshift=500,xqc)\\H18 C9 N3\\1,1\C,0
 ,-0.610862,0.51088,0.000115\C,0,-0.136805,-0.784324,0.000118\N,0,-1.62
 5284,1.358829,0.000149\N,0,-0.364248,-2.086765,0.000256\C,0,-1.430247,
 2.779535,-0.245115\H,0,-1.514482,3.356239,0.681778\H,0,-0.453085,2.953
 583,-0.69457\H,0,-2.189123,3.132424,-0.948067\C,0,-2.988895,0.914734,0
 .244915\H,0,-3.47163,1.599951,0.946347\H,0,-3.570653,0.893667,-0.68241
 9\H,0,-2.986873,-0.077069,0.695991\C,0,0.701968,-3.045906,0.244739\H,0
 ,1.009895,-3.54009,-0.68252\H,0,1.56061,-2.548225,0.694397\H,0,0.35036
 1,-3.805818,0.947208\C,0,-1.692259,-2.627901,-0.244928\H,0,-1.618712,-
 3.461412,-0.948079\H,0,-2.149477,-2.989362,0.681963\H,0,-2.331523,-1.8
 6843,-0.69401\C,0,0.747831,0.27381,0.000062\N,0,1.989493,0.728067,-0.0
 00089\C,0,2.287295,2.130832,0.245062\H,0,2.563599,2.644356,-0.681638\H
 ,0,1.426241,2.626112,0.692731\H,0,3.119706,2.205914,0.949371\C,0,3.122
 069,-0.151615,-0.24503\H,0,3.807758,0.3292,-0.947323\H,0,3.663007,-0.3
 67678,0.682084\H,0,2.784087,-1.084552,-0.695089\\Version=EM64L-G16RevA
 .03\State=1-A\HF=-517.4612514\RMSD=4.836e-07\Dipole=-0.0001546,0.00010
 51,-0.0002607\Quadrupole=6.8792693,6.8764122,-13.7556816,-0.0011047,-0
 .0001341,0.0001701\PG=C01 [X(C9H18N3)]\\@


 FLOATING POINT NUMBERS ARE LIKE SANDPILES:
 EVERY TIME THAT YOU MOVE ONE, YOU LOSE A LITTLE SAND 
 AND YOU PICK UP A LITTLE DIRT.
 Job cpu time:       0 days  0 hours 18 minutes 27.4 seconds.
 Elapsed time:       0 days  0 hours  2 minutes 19.3 seconds.
 File lengths (MBytes):  RWF=     92 Int=      0 D2E=      0 Chk=     12 Scr=      8
 Normal termination of Gaussian 16 at Mon Jan 25 20:56:29 2021.
