 Entering Gaussian System, Link 0=g16
 Input=mol_NN_cp_frag_tune_c2.gjf
 Output=mol_NN_cp_frag_tune_c2.log
 Initial command:
 /opt/ohpc/pub/libs/gaussian/g16-A.03/sandybridge/g16/l1.exe "/mnt/gpfs2_4m/scratch/rdu230/ondemand/projects/init_structures/gaussian/wtuning/mol_NN_cp_frag/tuning_mol_NN_cp_frag_ocycle0/Gau-15112.inp" -scrdir="/mnt/gpfs2_4m/scratch/rdu230/ondemand/projects/init_structures/gaussian/wtuning/mol_NN_cp_frag/tuning_mol_NN_cp_frag_ocycle0/"
 Entering Link 1 = /opt/ohpc/pub/libs/gaussian/g16-A.03/sandybridge/g16/l1.exe PID=     15113.
  
 Copyright (c) 1988,1990,1992,1993,1995,1998,2003,2009,2016,
            Gaussian, Inc.  All Rights Reserved.
  
 This is part of the Gaussian(R) 16 program.  It is based on
 the Gaussian(R) 09 system (copyright 2009, Gaussian, Inc.),
 the Gaussian(R) 03 system (copyright 2003, Gaussian, Inc.),
 the Gaussian(R) 98 system (copyright 1998, Gaussian, Inc.),
 the Gaussian(R) 94 system (copyright 1995, Gaussian, Inc.),
 the Gaussian 92(TM) system (copyright 1992, Gaussian, Inc.),
 the Gaussian 90(TM) system (copyright 1990, Gaussian, Inc.),
 the Gaussian 88(TM) system (copyright 1988, Gaussian, Inc.),
 the Gaussian 86(TM) system (copyright 1986, Carnegie Mellon
 University), and the Gaussian 82(TM) system (copyright 1983,
 Carnegie Mellon University). Gaussian is a federally registered
 trademark of Gaussian, Inc.
  
 This software contains proprietary and confidential information,
 including trade secrets, belonging to Gaussian, Inc.
  
 This software is provided under written license and may be
 used, copied, transmitted, or stored only in accord with that
 written license.
  
 The following legend is applicable only to US Government
 contracts under FAR:
  
                    RESTRICTED RIGHTS LEGEND
  
 Use, reproduction and disclosure by the US Government is
 subject to restrictions as set forth in subparagraphs (a)
 and (c) of the Commercial Computer Software - Restricted
 Rights clause in FAR 52.227-19.
  
 Gaussian, Inc.
 340 Quinnipiac St., Bldg. 40, Wallingford CT 06492
  
  
 ---------------------------------------------------------------
 Warning -- This program may not be used in any manner that
 competes with the business of Gaussian, Inc. or will provide
 assistance to any competitor of Gaussian, Inc.  The licensee
 of this program is prohibited from giving any competitor of
 Gaussian, Inc. access to this program.  By using this program,
 the user acknowledges that Gaussian, Inc. is engaged in the
 business of creating and licensing software in the field of
 computational chemistry and represents and warrants to the
 licensee that it is not a competitor of Gaussian, Inc. and that
 it will not use this program in any manner prohibited above.
 ---------------------------------------------------------------
  

 Cite this work as:
 Gaussian 16, Revision A.03,
 M. J. Frisch, G. W. Trucks, H. B. Schlegel, G. E. Scuseria, 
 M. A. Robb, J. R. Cheeseman, G. Scalmani, V. Barone, 
 G. A. Petersson, H. Nakatsuji, X. Li, M. Caricato, A. V. Marenich, 
 J. Bloino, B. G. Janesko, R. Gomperts, B. Mennucci, H. P. Hratchian, 
 J. V. Ortiz, A. F. Izmaylov, J. L. Sonnenberg, D. Williams-Young, 
 F. Ding, F. Lipparini, F. Egidi, J. Goings, B. Peng, A. Petrone, 
 T. Henderson, D. Ranasinghe, V. G. Zakrzewski, J. Gao, N. Rega, 
 G. Zheng, W. Liang, M. Hada, M. Ehara, K. Toyota, R. Fukuda, 
 J. Hasegawa, M. Ishida, T. Nakajima, Y. Honda, O. Kitao, H. Nakai, 
 T. Vreven, K. Throssell, J. A. Montgomery, Jr., J. E. Peralta, 
 F. Ogliaro, M. J. Bearpark, J. J. Heyd, E. N. Brothers, K. N. Kudin, 
 V. N. Staroverov, T. A. Keith, R. Kobayashi, J. Normand, 
 K. Raghavachari, A. P. Rendell, J. C. Burant, S. S. Iyengar, 
 J. Tomasi, M. Cossi, J. M. Millam, M. Klene, C. Adamo, R. Cammi, 
 J. W. Ochterski, R. L. Martin, K. Morokuma, O. Farkas, 
 J. B. Foresman, and D. J. Fox, Gaussian, Inc., Wallingford CT, 2016.
 
 ******************************************
 Gaussian 16:  EM64L-G16RevA.03 25-Dec-2016
                25-Jan-2021 
 ******************************************
 %mem=30GB
 %nproc=8
 Will use up to    8 processors via shared memory.
 ----------------------------------------------------------------------
 #P LC-wHPBE/TZVP iop(3/107=0156200000, 3/108=0156200000) scf=(conver=6
 ,fermi,ndamp=35,noincfock,novaracc,vshift=500,xqc)
 ----------------------------------------------------------------------
 1/38=1,172=1/1;
 2/12=2,17=6,18=5,40=1/2;
 3/5=19,7=101,11=2,25=1,30=1,74=-71,107=156200000,108=156200000/1,2,3;
 4//1;
 5/5=100002,6=6,8=3,10=500,13=1,18=-1,22=13,38=1,93=35/2,8;
 6/7=2,8=2,9=2,10=2,28=1/1;
 99/5=1,9=1/99;
 Leave Link    1 at Mon Jan 25 21:09:22 2021, MaxMem=  4026531840 cpu:               0.9 elap:               0.2
 (Enter /opt/ohpc/pub/libs/gaussian/g16-A.03/sandybridge/g16/l101.exe)
 ---------
 H18 C9 N3
 ---------
 Symbolic Z-matrix:
 Charge =  2 Multiplicity = 2
 C                    -0.61086   0.51088   0.00012 
 C                    -0.13681  -0.78432   0.00012 
 N                    -1.62528   1.35883   0.00015 
 N                    -0.36425  -2.08677   0.00026 
 C                    -1.43025   2.77954  -0.24512 
 H                    -1.51448   3.35624   0.68178 
 H                    -0.45309   2.95358  -0.69457 
 H                    -2.18912   3.13242  -0.94807 
 C                    -2.9889    0.91473   0.24492 
 H                    -3.47163   1.59995   0.94635 
 H                    -3.57065   0.89367  -0.68242 
 H                    -2.98687  -0.07707   0.69599 
 C                     0.70197  -3.04591   0.24474 
 H                     1.00989  -3.54009  -0.68252 
 H                     1.56061  -2.54823   0.6944 
 H                     0.35036  -3.80582   0.94721 
 C                    -1.69226  -2.6279   -0.24493 
 H                    -1.61871  -3.46141  -0.94808 
 H                    -2.14948  -2.98936   0.68196 
 H                    -2.33152  -1.86843  -0.69401 
 C                     0.74783   0.27381   0.00006 
 N                     1.98949   0.72807  -0.00009 
 C                     2.2873    2.13083   0.24506 
 H                     2.5636    2.64436  -0.68164 
 H                     1.42624   2.62611   0.69273 
 H                     3.11971   2.20591   0.94937 
 C                     3.12207  -0.15162  -0.24503 
 H                     3.80776   0.3292   -0.94732 
 H                     3.66301  -0.36768   0.68208 
 H                     2.78409  -1.08455  -0.69509 
 
 ITRead=  0  0  0  0  0  0  0  0  0  0  0  0  0  0  0  0  0  0  0  0
 ITRead=  0  0  0  0  0  0  0  0  0  0
 MicOpt= -1 -1 -1 -1 -1 -1 -1 -1 -1 -1 -1 -1 -1 -1 -1 -1 -1 -1 -1 -1
 MicOpt= -1 -1 -1 -1 -1 -1 -1 -1 -1 -1
 NAtoms=     30 NQM=       30 NQMF=       0 NMMI=      0 NMMIF=      0
                NMic=       0 NMicF=      0.
                    Isotopes and Nuclear Properties:
 (Nuclear quadrupole moments (NQMom) in fm**2, nuclear magnetic moments (NMagM)
  in nuclear magnetons)

  Atom         1           2           3           4           5           6           7           8           9          10
 IAtWgt=          12          12          14          14          12           1           1           1          12           1
 AtmWgt=  12.0000000  12.0000000  14.0030740  14.0030740  12.0000000   1.0078250   1.0078250   1.0078250  12.0000000   1.0078250
 NucSpn=           0           0           2           2           0           1           1           1           0           1
 AtZEff=  -0.0000000  -0.0000000  -0.0000000  -0.0000000  -0.0000000  -0.0000000  -0.0000000  -0.0000000  -0.0000000  -0.0000000
 NQMom=    0.0000000   0.0000000   2.0440000   2.0440000   0.0000000   0.0000000   0.0000000   0.0000000   0.0000000   0.0000000
 NMagM=    0.0000000   0.0000000   0.4037610   0.4037610   0.0000000   2.7928460   2.7928460   2.7928460   0.0000000   2.7928460
 AtZNuc=   6.0000000   6.0000000   7.0000000   7.0000000   6.0000000   1.0000000   1.0000000   1.0000000   6.0000000   1.0000000

  Atom        11          12          13          14          15          16          17          18          19          20
 IAtWgt=           1           1          12           1           1           1          12           1           1           1
 AtmWgt=   1.0078250   1.0078250  12.0000000   1.0078250   1.0078250   1.0078250  12.0000000   1.0078250   1.0078250   1.0078250
 NucSpn=           1           1           0           1           1           1           0           1           1           1
 AtZEff=  -0.0000000  -0.0000000  -0.0000000  -0.0000000  -0.0000000  -0.0000000  -0.0000000  -0.0000000  -0.0000000  -0.0000000
 NQMom=    0.0000000   0.0000000   0.0000000   0.0000000   0.0000000   0.0000000   0.0000000   0.0000000   0.0000000   0.0000000
 NMagM=    2.7928460   2.7928460   0.0000000   2.7928460   2.7928460   2.7928460   0.0000000   2.7928460   2.7928460   2.7928460
 AtZNuc=   1.0000000   1.0000000   6.0000000   1.0000000   1.0000000   1.0000000   6.0000000   1.0000000   1.0000000   1.0000000

  Atom        21          22          23          24          25          26          27          28          29          30
 IAtWgt=          12          14          12           1           1           1          12           1           1           1
 AtmWgt=  12.0000000  14.0030740  12.0000000   1.0078250   1.0078250   1.0078250  12.0000000   1.0078250   1.0078250   1.0078250
 NucSpn=           0           2           0           1           1           1           0           1           1           1
 AtZEff=  -0.0000000  -0.0000000  -0.0000000  -0.0000000  -0.0000000  -0.0000000  -0.0000000  -0.0000000  -0.0000000  -0.0000000
 NQMom=    0.0000000   2.0440000   0.0000000   0.0000000   0.0000000   0.0000000   0.0000000   0.0000000   0.0000000   0.0000000
 NMagM=    0.0000000   0.4037610   0.0000000   2.7928460   2.7928460   2.7928460   0.0000000   2.7928460   2.7928460   2.7928460
 AtZNuc=   6.0000000   7.0000000   6.0000000   1.0000000   1.0000000   1.0000000   6.0000000   1.0000000   1.0000000   1.0000000
 Leave Link  101 at Mon Jan 25 21:09:22 2021, MaxMem=  4026531840 cpu:               0.7 elap:               0.2
 (Enter /opt/ohpc/pub/libs/gaussian/g16-A.03/sandybridge/g16/l202.exe)
                          Input orientation:                          
 ---------------------------------------------------------------------
 Center     Atomic      Atomic             Coordinates (Angstroms)
 Number     Number       Type             X           Y           Z
 ---------------------------------------------------------------------
      1          6           0       -0.610862    0.510880    0.000115
      2          6           0       -0.136805   -0.784324    0.000118
      3          7           0       -1.625284    1.358829    0.000149
      4          7           0       -0.364248   -2.086765    0.000256
      5          6           0       -1.430247    2.779535   -0.245115
      6          1           0       -1.514482    3.356239    0.681778
      7          1           0       -0.453085    2.953583   -0.694570
      8          1           0       -2.189123    3.132424   -0.948067
      9          6           0       -2.988895    0.914734    0.244915
     10          1           0       -3.471630    1.599951    0.946347
     11          1           0       -3.570653    0.893667   -0.682419
     12          1           0       -2.986873   -0.077069    0.695991
     13          6           0        0.701968   -3.045906    0.244739
     14          1           0        1.009895   -3.540090   -0.682520
     15          1           0        1.560610   -2.548225    0.694397
     16          1           0        0.350361   -3.805818    0.947208
     17          6           0       -1.692259   -2.627901   -0.244928
     18          1           0       -1.618712   -3.461412   -0.948079
     19          1           0       -2.149477   -2.989362    0.681963
     20          1           0       -2.331523   -1.868430   -0.694010
     21          6           0        0.747831    0.273810    0.000062
     22          7           0        1.989493    0.728067   -0.000089
     23          6           0        2.287295    2.130832    0.245062
     24          1           0        2.563599    2.644356   -0.681638
     25          1           0        1.426241    2.626112    0.692731
     26          1           0        3.119706    2.205914    0.949371
     27          6           0        3.122069   -0.151615   -0.245030
     28          1           0        3.807758    0.329200   -0.947323
     29          1           0        3.663007   -0.367678    0.682084
     30          1           0        2.784087   -1.084552   -0.695089
 ---------------------------------------------------------------------
                    Distance matrix (angstroms):
                    1          2          3          4          5
     1  C    0.000000
     2  C    1.379233   0.000000
     3  N    1.322146   2.609344   0.000000
     4  N    2.609325   1.322151   3.669105   0.000000
     5  C    2.424526   3.799240   1.454854   4.987729   0.000000
     6  H    3.062231   4.416663   2.113419   5.604802   1.094903
     7  H    2.544460   3.815046   2.097600   5.088790   1.089563
     8  H    3.203506   4.522386   2.088700   5.609761   1.092962
     9  C    2.424472   3.328835   1.454842   3.994700   2.479314
    10  H    3.203970   4.207276   2.088642   4.913531   2.641637
    11  H    3.061493   3.882373   2.113465   4.430582   2.886013
    12  H    2.544672   3.017836   2.097600   3.376550   3.386584
    13  C    3.799222   2.424486   4.987747   1.454833   6.222705
    14  H    4.416243   3.061889   5.604428   2.113435   6.788466
    15  H    3.815159   2.544521   5.088907   2.097583   6.181661
    16  H    4.522700   3.203707   5.610140   2.088666   6.925249
    17  C    3.328875   2.424512   3.994817   1.454839   5.413780
    18  H    4.206416   3.203424   4.912627   2.088701   6.283239
    19  H    3.883806   3.062344   4.432428   2.113397   5.887014
    20  H    3.017217   2.544383   3.375771   2.097581   4.755774
    21  C    1.379220   1.379213   2.609395   2.609413   3.329083
    22  N    2.609409   2.609304   3.669397   3.669247   3.995395
    23  C    3.329198   3.799262   3.995528   4.987859   3.805418
    24  H    3.885062   4.417332   4.434428   5.605424   4.019904
    25  H    3.017236   3.814957   3.376016   5.088868   3.010418
    26  H    4.206110   4.521888   4.912586   5.609443   4.738978
    27  C    3.799180   3.328765   4.987877   3.994919   5.414353
    28  H    4.522704   4.206799   5.610328   4.913291   5.825284
    29  H    4.416209   3.882943   5.604631   4.431584   6.058538
    30  H    3.815022   3.017459   5.088813   3.376381   5.735351
                    6          7          8          9         10
     6  H    0.000000
     7  H    1.784105   0.000000
     8  H    1.778097   1.763540   0.000000
     9  C    2.885427   3.386720   2.642156   0.000000
    10  H    2.642910   3.692769   2.753562   1.092960   0.000000
    11  H    3.486134   3.736661   2.644093   1.094913   1.778067
    12  H    3.735738   4.187910   3.693261   1.089563   1.763537
    13  C    6.789044   6.181449   6.924807   5.413792   6.284518
    14  H    7.469481   6.656444   7.404504   6.057715   7.011226
    15  H    6.657255   6.021137   7.001997   5.735165   6.526430
    16  H    7.405616   7.002176   7.627598   5.824728   6.620420
    17  C    6.058079   5.735041   5.824313   3.804139   4.739201
    18  H    7.010539   6.524961   6.618462   4.738279   5.713103
    19  H    6.377293   6.331760   6.335206   4.017163   4.783281
    20  H    5.464203   5.174972   5.009328   3.009937   4.002534
    21  C    3.883834   3.017598   4.206700   3.799192   4.523047
    22  N    4.432840   3.376598   4.913291   4.987907   5.610685
    23  C    4.018190   3.011563   4.739732   5.414524   5.825706
    24  H    4.358489   3.032519   4.785140   5.888997   6.337595
    25  H    3.030026   2.358751   4.002428   4.756341   5.010635
    26  H    4.782317   4.003297   5.713349   6.283185   6.619132
    27  C    5.887412   4.756687   6.283943   6.222622   6.925621
    28  H    6.335864   5.010594   6.619717   6.925227   7.628256
    29  H    6.377613   5.465177   7.011101   6.788483   7.405703
    30  H    6.331989   5.175502   6.525312   6.181268   7.002490
                   11         12         13         14         15
    11  H    0.000000
    12  H    1.784136   0.000000
    13  C    5.885163   4.756592   0.000000
    14  H    6.374921   5.465067   1.094918   0.000000
    15  H    6.330253   5.175540   1.089562   1.784092   0.000000
    16  H    6.333656   5.010370   1.092958   1.778092   1.763563
    17  C    4.015122   3.011328   2.479279   2.885344   3.386715
    18  H    4.779891   4.003574   2.642161   2.643158   3.693200
    19  H    4.354216   3.030327   2.885325   3.485218   3.736242
    20  H    3.027335   2.360204   3.386704   3.736262   4.187899
    21  C    4.415802   3.815160   3.329037   3.883353   3.017713
    22  N    5.604304   5.088909   3.995064   4.431985   3.376439
    23  C    6.058577   5.735417   5.414045   5.886554   4.756422
    24  H    6.379182   6.333384   6.058294   6.376627   5.464646
    25  H    5.464554   5.175208   5.735596   6.331406   5.176082
    26  H    7.010395   6.524302   5.824395   6.334898   5.009753
    27  C    6.787964   6.181444   3.804429   4.016770   3.010717
    28  H    7.404711   7.002324   4.739017   4.782213   4.003060
    29  H    7.468514   6.656242   4.016457   4.354922   3.029028
    30  H    6.655541   6.021138   3.010881   3.029452   2.360065
                   16         17         18         19         20
    16  H    0.000000
    17  C    2.642153   0.000000
    18  H    2.754628   1.092964   0.000000
    19  H    2.643132   1.094911   1.778083   0.000000
    20  H    3.693179   1.089555   1.763588   1.784077   0.000000
    21  C    4.206951   3.799209   4.522320   4.416749   3.814885
    22  N    4.913272   4.987762   5.609774   5.604957   5.088664
    23  C    6.283990   6.222739   6.924859   6.789125   6.181378
    24  H    7.011156   6.789679   7.405614   7.470694   6.657898
    25  H    6.526255   6.181335   7.001567   6.657283   6.020361
    26  H    6.618927   6.924386   7.627025   7.404505   7.001205
    27  C    4.738881   5.413848   5.824435   6.058162   5.735042
    28  H    5.713249   6.283947   6.619314   7.011139   6.525681
    29  H    4.781707   5.886156   6.334444   6.376378   6.330899
    30  H    4.003180   4.756285   5.009801   5.464854   5.175319
                   21         22         23         24         25
    21  C    0.000000
    22  N    1.322147   0.000000
    23  C    2.424563   1.454831   0.000000
    24  H    3.062877   2.113355   1.094908   0.000000
    25  H    2.544279   2.097577   1.089552   1.784042   0.000000
    26  H    3.203124   2.088753   1.092976   1.778110   1.763591
    27  C    2.424472   1.454842   2.479234   2.884436   3.386886
    28  H    3.203710   2.088644   2.641868   2.641679   3.692859
    29  H    3.061848   2.113449   2.885502   3.484363   3.737113
    30  H    2.544547   2.097616   3.386647   3.735445   4.187937
                   26         27         28         29         30
    26  H    0.000000
    27  C    2.642828   0.000000
    28  H    2.755525   1.092963   0.000000
    29  H    2.643860   1.094914   1.778077   0.000000
    30  H    3.693786   1.089567   1.763581   1.784100   0.000000
 Stoichiometry    C9H18N3(2+,2)
 Framework group  C1[X(C9H18N3)]
 Deg. of freedom    84
 Full point group                 C1      NOp   1
 Largest Abelian subgroup         C1      NOp   1
 Largest concise Abelian subgroup C1      NOp   1
                         Standard orientation:                         
 ---------------------------------------------------------------------
 Center     Atomic      Atomic             Coordinates (Angstroms)
 Number     Number       Type             X           Y           Z
 ---------------------------------------------------------------------
      1          6           0       -0.610975   -0.510745   -0.000115
      2          6           0       -0.136632    0.784354   -0.000118
      3          7           0       -1.625585   -1.358470   -0.000149
      4          7           0       -0.363786    2.086845   -0.000256
      5          6           0       -1.430862   -2.779219    0.245115
      6          1           0       -1.515224   -3.355904   -0.681778
      7          1           0       -0.453738   -2.953483    0.694570
      8          1           0       -2.189816   -3.131940    0.948067
      9          6           0       -2.989097   -0.914073   -0.244915
     10          1           0       -3.471984   -1.599183   -0.946347
     11          1           0       -3.570851   -0.892877    0.682419
     12          1           0       -2.986856    0.077730   -0.695991
     13          6           0        0.702642    3.045751   -0.244739
     14          1           0        1.010678    3.539867    0.682520
     15          1           0        1.561174    2.547880   -0.694397
     16          1           0        0.351203    3.805740   -0.947208
     17          6           0       -1.691678    2.628275    0.244928
     18          1           0       -1.617946    3.461770    0.948079
     19          1           0       -2.148816    2.989837   -0.681963
     20          1           0       -2.331110    1.868946    0.694010
     21          6           0        0.747770   -0.273975   -0.000062
     22          7           0        1.989332   -0.728507    0.000089
     23          6           0        2.286824   -2.131338   -0.245062
     24          1           0        2.563014   -2.644923    0.681638
     25          1           0        1.425660   -2.626427   -0.692731
     26          1           0        3.119218   -2.206604   -0.949371
     27          6           0        3.122102    0.150924    0.245030
     28          1           0        3.807685   -0.330042    0.947323
     29          1           0        3.663088    0.366868   -0.682084
     30          1           0        2.784327    1.083936    0.695089
 ---------------------------------------------------------------------
 Rotational constants (GHZ):           0.8639071           0.8637633           0.4436577
 Leave Link  202 at Mon Jan 25 21:09:22 2021, MaxMem=  4026531840 cpu:               0.4 elap:               0.1
 (Enter /opt/ohpc/pub/libs/gaussian/g16-A.03/sandybridge/g16/l301.exe)
 Standard basis: TZVP (5D, 7F)
 Ernie: Thresh=  0.10000D-02 Tol=  0.10000D-05 Strict=F.
 There are   348 symmetry adapted cartesian basis functions of A   symmetry.
 There are   336 symmetry adapted basis functions of A   symmetry.
   336 basis functions,   564 primitive gaussians,   348 cartesian basis functions
    46 alpha electrons       45 beta electrons
       nuclear repulsion energy       740.7629817128 Hartrees.
 IExCor=33909 DFT=T Ex+Corr=LC-wHPBE ExCW=0 ScaHFX=  1.000000
 ScaDFX=  1.000000  1.000000  1.000000  1.000000 ScalE2=  1.000000  1.000000
 IRadAn=      5 IRanWt=     -1 IRanGd=            0 ICorTp=0 IEmpDi=  4
 HFx  wShort=  0.000000 wLong=  0.156200 cFull=  0.000000 cShort=  0.000000 cLong=  1.000000
 DFx  wShort=  0.000000 wLong=  0.156200 cFull=  0.000000 cShort=  1.000000 cLong=  0.000000
 NAtoms=   30 NActive=   30 NUniq=   30 SFac= 1.00D+00 NAtFMM=   60 NAOKFM=F Big=F
 Integral buffers will be    131072 words long.
 Raffenetti 2 integral format.
 Two-electron integral symmetry is turned on.
 Leave Link  301 at Mon Jan 25 21:09:22 2021, MaxMem=  4026531840 cpu:               0.5 elap:               0.1
 (Enter /opt/ohpc/pub/libs/gaussian/g16-A.03/sandybridge/g16/l302.exe)
 NPDir=0 NMtPBC=     1 NCelOv=     1 NCel=       1 NClECP=     1 NCelD=      1
         NCelK=      1 NCelE2=     1 NClLst=     1 CellRange=     0.0.
 One-electron integrals computed using PRISM.
 One-electron integral symmetry used in STVInt
 NBasis=   336 RedAO= T EigKep=  2.74D-05  NBF=   336
 NBsUse=   336 1.00D-06 EigRej= -1.00D+00 NBFU=   336
 Precomputing XC quadrature grid using
 IXCGrd= 4 IRadAn=           5 IRanWt=          -1 IRanGd=           0 AccXCQ= 0.00D+00.
 Generated NRdTot=       0 NPtTot=           0 NUsed=           0 NTot=          32
 NSgBfM=   343   343   343   343   343 MxSgAt=    30 MxSgA2=    30.
 Leave Link  302 at Mon Jan 25 21:09:25 2021, MaxMem=  4026531840 cpu:              11.8 elap:               2.4
 (Enter /opt/ohpc/pub/libs/gaussian/g16-A.03/sandybridge/g16/l303.exe)
 DipDrv:  MaxL=1.
 Leave Link  303 at Mon Jan 25 21:09:25 2021, MaxMem=  4026531840 cpu:               0.4 elap:               0.1
 (Enter /opt/ohpc/pub/libs/gaussian/g16-A.03/sandybridge/g16/l401.exe)
 ExpMin= 9.52D-02 ExpMax= 1.97D+04 ExpMxC= 6.73D+02 IAcc=3 IRadAn=         5 AccDes= 0.00D+00
 Harris functional with IExCor=33909 and IRadAn=       5 diagonalized for initial guess.
 HarFok:  IExCor=33909 AccDes= 0.00D+00 IRadAn=         5 IDoV= 1 UseB2=F ITyADJ=14
 ICtDFT=  3500011 ScaDFX=  1.000000  1.000000  1.000000  1.000000
 FoFCou: FMM=F IPFlag=           0 FMFlag=      100000 FMFlg1=           0
         NFxFlg=           0 DoJE=T BraDBF=F KetDBF=T FulRan=T
         wScrn=  0.000000 ICntrl=       500 IOpCl=  0 I1Cent=   200000004 NGrid=           0
         NMat0=    1 NMatS0=      1 NMatT0=    0 NMatD0=    1 NMtDS0=    0 NMtDT0=    0
 Petite list used in FoFCou.
 Harris En= -509.524014154544    
 JPrj=0 DoOrth=F DoCkMO=F.
 Initial guess <Sx>= 0.0000 <Sy>= 0.0000 <Sz>= 0.5000 <S**2>= 0.7500 S= 0.5000
 Leave Link  401 at Mon Jan 25 21:09:29 2021, MaxMem=  4026531840 cpu:              27.8 elap:               4.8
 (Enter /opt/ohpc/pub/libs/gaussian/g16-A.03/sandybridge/g16/l502.exe)
 Integral symmetry usage will be decided dynamically.
 UHF open shell SCF:
 Using DIIS extrapolation, IDIIS=    10.
 NGot=  4026531840 LenX=  4026283142 LenY=  4026161597
 Requested convergence on RMS density matrix=1.00D-06 within  32 cycles.
 Requested convergence on MAX density matrix=1.00D-04.
 Requested convergence on             energy=1.00D-04.
 Virtual orbitals will be shifted by   0.500 hartree.
 No special actions if energy rises.
 Dynamic level shift is on during FON iterations.

 Cycle   1  Pass 1  IDiag  1:
 FoFJK:  IHMeth= 1 ICntrl=       0 DoSepK=T KAlg= 0 I1Cent=           0 FoldK=F
 IRaf=         1 NMat=       1 IRICut=       1 DoRegI=T DoRafI=F ISym2E= 0 IDoP0=0 IntGTp=1.
 FoFCou: FMM=F IPFlag=           0 FMFlag=      100000 FMFlg1=           0
         NFxFlg=           0 DoJE=T BraDBF=F KetDBF=F FulRan=T
         wScrn=  0.000000 ICntrl=       500 IOpCl=  0 I1Cent=           0 NGrid=           0
         NMat0=    1 NMatS0=      1 NMatT0=    0 NMatD0=    1 NMtDS0=    0 NMtDT0=    0
 Symmetry not used in FoFCou.
 E= -516.813492976549    
 DIIS: error= 3.02D-02 at cycle   1 NSaved=   1.
 NSaved= 1 IEnMin= 1 EnMin= -516.813492976549     IErMin= 1 ErrMin= 3.02D-02
 ErrMax= 3.02D-02  0.00D+00 EMaxC= 1.00D+00 BMatC= 8.29D-01 BMatP= 8.29D-01
 IDIUse=1 WtCom= 1.00D+00 WtEn= 0.00D+00
 Coeff-Com:  0.100D+01
 Coeff:      0.100D+01
 Gap=     0.322 Goal=   None    Shift=    0.500
 T= 1500. Gap= 0.794 NK=0 IS=   47 IE=  336 IFin=   46
          NO(<0.9)=   0  NV(>0.1)=   0     46.00e < EF      0.00e >EF  Err=0.0D+00
 Gap=     0.209 Goal=   None    Shift=    0.500
 T= 1500. Gap= 0.674 NK=0 IS=   46 IE=  336 IFin=   45
          NO(<0.9)=   0  NV(>0.1)=   0     45.00e < EF      0.00e >EF  Err=0.0D+00
 GapD=    0.209 DampG=1.000 DampE=0.500 DampFc=0.5000 IDamp=-1.
 Damping current iteration by 5.00D-01
 RMSDP=2.79D-03 MaxDP=1.66D-01              OVMax= 7.12D-02

 Cycle   2  Pass 1  IDiag  1:
 E= -516.930833511269     Delta-E=       -0.117340534719 Rises=F Damp=T
 DIIS: error= 1.11D-02 at cycle   2 NSaved=   2.
 NSaved= 2 IEnMin= 2 EnMin= -516.930833511269     IErMin= 2 ErrMin= 1.11D-02
 ErrMax= 1.11D-02  0.00D+00 EMaxC= 1.00D+00 BMatC= 1.26D-01 BMatP= 8.29D-01
 IDIUse=1 WtCom= 1.00D+00 WtEn= 0.00D+00
 Coeff-Com: -0.495D+00 0.149D+01
 Coeff:     -0.495D+00 0.149D+01
 Gap=     0.327 Goal=   None    Shift=    0.500
 T= 1357. Gap= 0.815 NK=0 IS=   47 IE=  336 IFin=   46
          NO(<0.9)=   0  NV(>0.1)=   0     46.00e < EF      0.00e >EF  Err=0.0D+00
 Gap=     0.225 Goal=   None    Shift=    0.500
 T= 1357. Gap= 0.711 NK=0 IS=   46 IE=  336 IFin=   45
          NO(<0.9)=   0  NV(>0.1)=   0     45.00e < EF      0.00e >EF  Err=0.0D+00
 GapD=    0.225 DampG=1.000 DampE=0.500 DampFc=0.5000 IDamp=-1.
 Damping current iteration by 5.00D-01
 RMSDP=1.93D-03 MaxDP=1.37D-01 DE=-1.17D-01 OVMax= 1.69D-02

 Cycle   3  Pass 1  IDiag  1:
 E= -516.969123583196     Delta-E=       -0.038290071927 Rises=F Damp=T
 DIIS: error= 4.03D-03 at cycle   3 NSaved=   3.
 NSaved= 3 IEnMin= 3 EnMin= -516.969123583196     IErMin= 3 ErrMin= 4.03D-03
 ErrMax= 4.03D-03  0.00D+00 EMaxC= 1.00D+00 BMatC= 2.31D-02 BMatP= 1.26D-01
 IDIUse=1 WtCom= 1.00D+00 WtEn= 0.00D+00
 Coeff-Com:  0.905D-01-0.981D+00 0.189D+01
 Coeff:      0.905D-01-0.981D+00 0.189D+01
 Gap=     0.324 Goal=   None    Shift=    0.500
 T= 1084. Gap= 0.824 NK=0 IS=   47 IE=  336 IFin=   46
          NO(<0.9)=   0  NV(>0.1)=   0     46.00e < EF      0.00e >EF  Err=0.0D+00
 Gap=     0.210 Goal=   None    Shift=    0.500
 T= 1084. Gap= 0.710 NK=0 IS=   46 IE=  336 IFin=   45
          NO(<0.9)=   0  NV(>0.1)=   0     45.00e < EF      0.00e >EF  Err=0.0D+00
 GapD=    0.210 DampG=1.000 DampE=1.000 DampFc=1.0000 IDamp=-1.
 RMSDP=1.03D-03 MaxDP=7.59D-02 DE=-3.83D-02 OVMax= 5.16D-03

 Cycle   4  Pass 1  IDiag  1:
 E= -517.001244467330     Delta-E=       -0.032120884134 Rises=F Damp=F
 DIIS: error= 1.25D-03 at cycle   4 NSaved=   4.
 NSaved= 4 IEnMin= 4 EnMin= -517.001244467330     IErMin= 4 ErrMin= 1.25D-03
 ErrMax= 1.25D-03  0.00D+00 EMaxC= 1.00D+00 BMatC= 1.20D-03 BMatP= 2.31D-02
 IDIUse=1 WtCom= 1.00D+00 WtEn= 0.00D+00
 Coeff-Com:  0.740D-01-0.281D+00 0.349D+00 0.858D+00
 Coeff:      0.740D-01-0.281D+00 0.349D+00 0.858D+00
 Gap=     0.322 Goal=   None    Shift=    0.500
 T=  473. Gap= 0.822 NK=0 IS=   47 IE=  336 IFin=   46
          NO(<0.9)=   0  NV(>0.1)=   0     46.00e < EF      0.00e >EF  Err=0.0D+00
 Gap=     0.211 Goal=   None    Shift=    0.500
 T=  473. Gap= 0.711 NK=0 IS=   46 IE=  336 IFin=   45
          NO(<0.9)=   0  NV(>0.1)=   0     45.00e < EF      0.00e >EF  Err=0.0D+00
 GapD=    0.211 DampG=1.000 DampE=1.000 DampFc=1.0000 IDamp=-1.
 RMSDP=7.45D-05 MaxDP=1.33D-03 DE=-3.21D-02 OVMax= 6.32D-03

 Cycle   5  Pass 1  IDiag  1:
 E= -517.001599223197     Delta-E=       -0.000354755867 Rises=F Damp=F
 DIIS: error= 6.81D-04 at cycle   5 NSaved=   5.
 NSaved= 5 IEnMin= 5 EnMin= -517.001599223197     IErMin= 5 ErrMin= 6.81D-04
 ErrMax= 6.81D-04  0.00D+00 EMaxC= 1.00D+00 BMatC= 1.73D-04 BMatP= 1.20D-03
 IDIUse=1 WtCom= 1.00D+00 WtEn= 0.00D+00
 Coeff-Com: -0.754D-02 0.130D+00-0.253D+00-0.199D+00 0.133D+01
 Coeff:     -0.754D-02 0.130D+00-0.253D+00-0.199D+00 0.133D+01
 Gap=     0.324 Goal=   None    Shift=    0.500
 Gap=     0.212 Goal=   None    Shift=    0.500
 RMSDP=5.50D-05 MaxDP=2.53D-03 DE=-3.55D-04 OVMax= 4.59D-03

 Cycle   6  Pass 1  IDiag  1:
 E= -517.001722097984     Delta-E=       -0.000122874787 Rises=F Damp=F
 DIIS: error= 6.17D-04 at cycle   6 NSaved=   6.
 NSaved= 6 IEnMin= 6 EnMin= -517.001722097984     IErMin= 6 ErrMin= 6.17D-04
 ErrMax= 6.17D-04  0.00D+00 EMaxC= 1.00D+00 BMatC= 5.74D-05 BMatP= 1.73D-04
 IDIUse=1 WtCom= 1.00D+00 WtEn= 0.00D+00
 Coeff-Com: -0.157D-01 0.357D-01-0.263D-01-0.149D+00-0.807D+00 0.196D+01
 Coeff:     -0.157D-01 0.357D-01-0.263D-01-0.149D+00-0.807D+00 0.196D+01
 Gap=     0.324 Goal=   None    Shift=    0.500
 Gap=     0.212 Goal=   None    Shift=    0.500
 RMSDP=4.08D-05 MaxDP=2.60D-03 DE=-1.23D-04 OVMax= 4.27D-03

 Cycle   7  Pass 1  IDiag  1:
 E= -517.001788372453     Delta-E=       -0.000066274469 Rises=F Damp=F
 DIIS: error= 3.98D-04 at cycle   7 NSaved=   7.
 NSaved= 7 IEnMin= 7 EnMin= -517.001788372453     IErMin= 7 ErrMin= 3.98D-04
 ErrMax= 3.98D-04  0.00D+00 EMaxC= 1.00D+00 BMatC= 2.42D-05 BMatP= 5.74D-05
 IDIUse=1 WtCom= 1.00D+00 WtEn= 0.00D+00
 Coeff-Com:  0.187D-03-0.356D-01 0.680D-01 0.103D-01-0.529D+00-0.288D+00
 Coeff-Com:  0.177D+01
 Coeff:      0.187D-03-0.356D-01 0.680D-01 0.103D-01-0.529D+00-0.288D+00
 Coeff:      0.177D+01
 Gap=     0.325 Goal=   None    Shift=    0.500
 Gap=     0.212 Goal=   None    Shift=    0.500
 RMSDP=3.01D-05 MaxDP=2.26D-03 DE=-6.63D-05 OVMax= 3.07D-03

 Cycle   8  Pass 1  IDiag  1:
 E= -517.001820295714     Delta-E=       -0.000031923261 Rises=F Damp=F
 DIIS: error= 2.92D-04 at cycle   8 NSaved=   8.
 NSaved= 8 IEnMin= 8 EnMin= -517.001820295714     IErMin= 8 ErrMin= 2.92D-04
 ErrMax= 2.92D-04  0.00D+00 EMaxC= 1.00D+00 BMatC= 9.80D-06 BMatP= 2.42D-05
 IDIUse=1 WtCom= 1.00D+00 WtEn= 0.00D+00
 Coeff-Com:  0.517D-02-0.150D-01 0.131D-01 0.283D-01 0.370D+00-0.106D+01
 Coeff-Com: -0.457D+00 0.211D+01
 Coeff:      0.517D-02-0.150D-01 0.131D-01 0.283D-01 0.370D+00-0.106D+01
 Coeff:     -0.457D+00 0.211D+01
 Gap=     0.325 Goal=   None    Shift=    0.500
 Gap=     0.212 Goal=   None    Shift=    0.500
 RMSDP=1.93D-05 MaxDP=1.69D-03 DE=-3.19D-05 OVMax= 2.23D-03

 Cycle   9  Pass 1  IDiag  1:
 E= -517.001834613236     Delta-E=       -0.000014317522 Rises=F Damp=F
 DIIS: error= 1.82D-04 at cycle   9 NSaved=   9.
 NSaved= 9 IEnMin= 9 EnMin= -517.001834613236     IErMin= 9 ErrMin= 1.82D-04
 ErrMax= 1.82D-04  0.00D+00 EMaxC= 1.00D+00 BMatC= 3.93D-06 BMatP= 9.80D-06
 IDIUse=1 WtCom= 1.00D+00 WtEn= 0.00D+00
 Coeff-Com: -0.418D-02 0.196D-01-0.248D-01-0.496D-01 0.969D-02 0.598D+00
 Coeff-Com: -0.266D+00-0.281D+01 0.353D+01
 Coeff:     -0.418D-02 0.196D-01-0.248D-01-0.496D-01 0.969D-02 0.598D+00
 Coeff:     -0.266D+00-0.281D+01 0.353D+01
 Gap=     0.326 Goal=   None    Shift=    0.500
 Gap=     0.213 Goal=   None    Shift=    0.500
 RMSDP=1.15D-05 MaxDP=9.98D-04 DE=-1.43D-05 OVMax= 1.47D-03

 Cycle  10  Pass 1  IDiag  1:
 E= -517.001840375331     Delta-E=       -0.000005762095 Rises=F Damp=F
 DIIS: error= 1.06D-04 at cycle  10 NSaved=  10.
 NSaved=10 IEnMin=10 EnMin= -517.001840375331     IErMin=10 ErrMin= 1.06D-04
 ErrMax= 1.06D-04  0.00D+00 EMaxC= 1.00D+00 BMatC= 1.47D-06 BMatP= 3.93D-06
 IDIUse=1 WtCom= 1.00D+00 WtEn= 0.00D+00
 Coeff-Com: -0.197D-03-0.921D-03 0.188D-02-0.124D-01-0.787D-01 0.198D+00
 Coeff-Com:  0.146D+00-0.214D+00-0.187D+01 0.283D+01
 Coeff:     -0.197D-03-0.921D-03 0.188D-02-0.124D-01-0.787D-01 0.198D+00
 Coeff:      0.146D+00-0.214D+00-0.187D+01 0.283D+01
 Gap=     0.326 Goal=   None    Shift=    0.500
 Gap=     0.213 Goal=   None    Shift=    0.500
 RMSDP=5.79D-06 MaxDP=3.02D-04 DE=-5.76D-06 OVMax= 8.62D-04

 Cycle  11  Pass 1  IDiag  1:
 E= -517.001842349803     Delta-E=       -0.000001974472 Rises=F Damp=F
 DIIS: error= 6.26D-05 at cycle  11 NSaved=  11.
 NSaved=11 IEnMin=11 EnMin= -517.001842349803     IErMin=11 ErrMin= 6.26D-05
 ErrMax= 6.26D-05  0.00D+00 EMaxC= 1.00D+00 BMatC= 5.07D-07 BMatP= 1.47D-06
 IDIUse=1 WtCom= 1.00D+00 WtEn= 0.00D+00
 Coeff-Com:  0.452D-03-0.296D-02 0.438D-02 0.468D-02 0.116D-01-0.118D+00
 Coeff-Com:  0.111D+00 0.329D+00-0.621D+00-0.105D+01 0.233D+01
 Coeff:      0.452D-03-0.296D-02 0.438D-02 0.468D-02 0.116D-01-0.118D+00
 Coeff:      0.111D+00 0.329D+00-0.621D+00-0.105D+01 0.233D+01
 Gap=     0.326 Goal=   None    Shift=    0.500
 Gap=     0.213 Goal=   None    Shift=    0.500
 RMSDP=3.21D-06 MaxDP=1.38D-04 DE=-1.97D-06 OVMax= 4.91D-04

 Cycle  12  Pass 1  IDiag  1:
 E= -517.001842989645     Delta-E=       -0.000000639842 Rises=F Damp=F
 DIIS: error= 3.60D-05 at cycle  12 NSaved=  12.
 NSaved=12 IEnMin=12 EnMin= -517.001842989645     IErMin=12 ErrMin= 3.60D-05
 ErrMax= 3.60D-05  0.00D+00 EMaxC= 1.00D+00 BMatC= 1.68D-07 BMatP= 5.07D-07
 IDIUse=1 WtCom= 1.00D+00 WtEn= 0.00D+00
 Coeff-Com:  0.198D-04-0.257D-03 0.515D-03 0.139D-02 0.167D-01-0.520D-01
 Coeff-Com:  0.231D-01 0.343D-02 0.242D+00-0.748D+00-0.327D+00 0.184D+01
 Coeff:      0.198D-04-0.257D-03 0.515D-03 0.139D-02 0.167D-01-0.520D-01
 Coeff:      0.231D-01 0.343D-02 0.242D+00-0.748D+00-0.327D+00 0.184D+01
 Gap=     0.326 Goal=   None    Shift=    0.500
 Gap=     0.213 Goal=   None    Shift=    0.500
 RMSDP=1.81D-06 MaxDP=6.39D-05 DE=-6.40D-07 OVMax= 2.76D-04

 Cycle  13  Pass 1  IDiag  1:
 E= -517.001843193947     Delta-E=       -0.000000204302 Rises=F Damp=F
 DIIS: error= 2.10D-05 at cycle  13 NSaved=  13.
 NSaved=13 IEnMin=13 EnMin= -517.001843193947     IErMin=13 ErrMin= 2.10D-05
 ErrMax= 2.10D-05  0.00D+00 EMaxC= 1.00D+00 BMatC= 5.68D-08 BMatP= 1.68D-07
 IDIUse=1 WtCom= 1.00D+00 WtEn= 0.00D+00
 Coeff-Com: -0.104D-03 0.611D-03-0.888D-03-0.145D-02 0.646D-02 0.656D-02
 Coeff-Com: -0.119D-01-0.109D+00 0.280D+00-0.635D-01-0.987D+00 0.654D+00
 Coeff-Com:  0.123D+01
 Coeff:     -0.104D-03 0.611D-03-0.888D-03-0.145D-02 0.646D-02 0.656D-02
 Coeff:     -0.119D-01-0.109D+00 0.280D+00-0.635D-01-0.987D+00 0.654D+00
 Coeff:      0.123D+01
 Gap=     0.326 Goal=   None    Shift=    0.500
 Gap=     0.213 Goal=   None    Shift=    0.500
 RMSDP=1.04D-06 MaxDP=4.15D-05 DE=-2.04D-07 OVMax= 1.55D-04

 Cycle  14  Pass 1  IDiag  1:
 E= -517.001843260056     Delta-E=       -0.000000066109 Rises=F Damp=F
 DIIS: error= 1.34D-05 at cycle  14 NSaved=  14.
 NSaved=14 IEnMin=14 EnMin= -517.001843260056     IErMin=14 ErrMin= 1.34D-05
 ErrMax= 1.34D-05  0.00D+00 EMaxC= 1.00D+00 BMatC= 1.87D-08 BMatP= 5.68D-08
 IDIUse=1 WtCom= 1.00D+00 WtEn= 0.00D+00
 Coeff-Com: -0.229D-04 0.212D-03-0.414D-03-0.171D-02-0.146D-02 0.182D-01
 Coeff-Com: -0.958D-02-0.438D-01 0.401D-02 0.254D+00-0.355D+00-0.441D+00
 Coeff-Com:  0.942D-01 0.148D+01
 Coeff:     -0.229D-04 0.212D-03-0.414D-03-0.171D-02-0.146D-02 0.182D-01
 Coeff:     -0.958D-02-0.438D-01 0.401D-02 0.254D+00-0.355D+00-0.441D+00
 Coeff:      0.942D-01 0.148D+01
 Gap=     0.326 Goal=   None    Shift=    0.500
 Gap=     0.213 Goal=   None    Shift=    0.500
 RMSDP=6.26D-07 MaxDP=3.57D-05 DE=-6.61D-08 OVMax= 8.66D-05

 SCF Done:  E(ULC-wHPBE) =  -517.001843260     A.U. after   14 cycles
            NFock= 14  Conv=0.63D-06     -V/T= 2.0044
 <Sx>= 0.0000 <Sy>= 0.0000 <Sz>= 0.5000 <S**2>= 0.7623 S= 0.5061
 <L.S>= 0.000000000000E+00
 KE= 5.147334222663D+02 PE=-2.652670819734D+03 EE= 8.801725724951D+02
 Annihilation of the first spin contaminant:
 S**2 before annihilation     0.7623,   after     0.7501
 Leave Link  502 at Mon Jan 25 21:13:11 2021, MaxMem=  4026531840 cpu:            1769.2 elap:             221.4
 (Enter /opt/ohpc/pub/libs/gaussian/g16-A.03/sandybridge/g16/l508.exe)
 QCSCF skips out because SCF is already converged.
 Leave Link  508 at Mon Jan 25 21:13:11 2021, MaxMem=  4026531840 cpu:               0.1 elap:               0.1
 (Enter /opt/ohpc/pub/libs/gaussian/g16-A.03/sandybridge/g16/l601.exe)
 Copying SCF densities to generalized density rwf, IOpCl= 1 IROHF=0.

 **********************************************************************

            Population analysis using the SCF density.

 **********************************************************************

 Orbital symmetries:
 Alpha Orbitals:
       Occupied  (A) (A) (A) (A) (A) (A) (A) (A) (A) (A) (A) (A)
                 (A) (A) (A) (A) (A) (A) (A) (A) (A) (A) (A) (A)
                 (A) (A) (A) (A) (A) (A) (A) (A) (A) (A) (A) (A)
                 (A) (A) (A) (A) (A) (A) (A) (A) (A) (A)
       Virtual   (A) (A) (A) (A) (A) (A) (A) (A) (A) (A) (A) (A)
                 (A) (A) (A) (A) (A) (A) (A) (A) (A) (A) (A) (A)
                 (A) (A) (A) (A) (A) (A) (A) (A) (A) (A) (A) (A)
                 (A) (A) (A) (A) (A) (A) (A) (A) (A) (A) (A) (A)
                 (A) (A) (A) (A) (A) (A) (A) (A) (A) (A) (A) (A)
                 (A) (A) (A) (A) (A) (A) (A) (A) (A) (A) (A) (A)
                 (A) (A) (A) (A) (A) (A) (A) (A) (A) (A) (A) (A)
                 (A) (A) (A) (A) (A) (A) (A) (A) (A) (A) (A) (A)
                 (A) (A) (A) (A) (A) (A) (A) (A) (A) (A) (A) (A)
                 (A) (A) (A) (A) (A) (A) (A) (A) (A) (A) (A) (A)
                 (A) (A) (A) (A) (A) (A) (A) (A) (A) (A) (A) (A)
                 (A) (A) (A) (A) (A) (A) (A) (A) (A) (A) (A) (A)
                 (A) (A) (A) (A) (A) (A) (A) (A) (A) (A) (A) (A)
                 (A) (A) (A) (A) (A) (A) (A) (A) (A) (A) (A) (A)
                 (A) (A) (A) (A) (A) (A) (A) (A) (A) (A) (A) (A)
                 (A) (A) (A) (A) (A) (A) (A) (A) (A) (A) (A) (A)
                 (A) (A) (A) (A) (A) (A) (A) (A) (A) (A) (A) (A)
                 (A) (A) (A) (A) (A) (A) (A) (A) (A) (A) (A) (A)
                 (A) (A) (A) (A) (A) (A) (A) (A) (A) (A) (A) (A)
                 (A) (A) (A) (A) (A) (A) (A) (A) (A) (A) (A) (A)
                 (A) (A) (A) (A) (A) (A) (A) (A) (A) (A) (A) (A)
                 (A) (A) (A) (A) (A) (A) (A) (A) (A) (A) (A) (A)
                 (A) (A) (A) (A) (A) (A) (A) (A) (A) (A) (A) (A)
                 (A) (A) (A) (A) (A) (A) (A) (A) (A) (A) (A) (A)
                 (A) (A)
 Beta  Orbitals:
       Occupied  (A) (A) (A) (A) (A) (A) (A) (A) (A) (A) (A) (A)
                 (A) (A) (A) (A) (A) (A) (A) (A) (A) (A) (A) (A)
                 (A) (A) (A) (A) (A) (A) (A) (A) (A) (A) (A) (A)
                 (A) (A) (A) (A) (A) (A) (A) (A) (A)
       Virtual   (A) (A) (A) (A) (A) (A) (A) (A) (A) (A) (A) (A)
                 (A) (A) (A) (A) (A) (A) (A) (A) (A) (A) (A) (A)
                 (A) (A) (A) (A) (A) (A) (A) (A) (A) (A) (A) (A)
                 (A) (A) (A) (A) (A) (A) (A) (A) (A) (A) (A) (A)
                 (A) (A) (A) (A) (A) (A) (A) (A) (A) (A) (A) (A)
                 (A) (A) (A) (A) (A) (A) (A) (A) (A) (A) (A) (A)
                 (A) (A) (A) (A) (A) (A) (A) (A) (A) (A) (A) (A)
                 (A) (A) (A) (A) (A) (A) (A) (A) (A) (A) (A) (A)
                 (A) (A) (A) (A) (A) (A) (A) (A) (A) (A) (A) (A)
                 (A) (A) (A) (A) (A) (A) (A) (A) (A) (A) (A) (A)
                 (A) (A) (A) (A) (A) (A) (A) (A) (A) (A) (A) (A)
                 (A) (A) (A) (A) (A) (A) (A) (A) (A) (A) (A) (A)
                 (A) (A) (A) (A) (A) (A) (A) (A) (A) (A) (A) (A)
                 (A) (A) (A) (A) (A) (A) (A) (A) (A) (A) (A) (A)
                 (A) (A) (A) (A) (A) (A) (A) (A) (A) (A) (A) (A)
                 (A) (A) (A) (A) (A) (A) (A) (A) (A) (A) (A) (A)
                 (A) (A) (A) (A) (A) (A) (A) (A) (A) (A) (A) (A)
                 (A) (A) (A) (A) (A) (A) (A) (A) (A) (A) (A) (A)
                 (A) (A) (A) (A) (A) (A) (A) (A) (A) (A) (A) (A)
                 (A) (A) (A) (A) (A) (A) (A) (A) (A) (A) (A) (A)
                 (A) (A) (A) (A) (A) (A) (A) (A) (A) (A) (A) (A)
                 (A) (A) (A) (A) (A) (A) (A) (A) (A) (A) (A) (A)
                 (A) (A) (A) (A) (A) (A) (A) (A) (A) (A) (A) (A)
                 (A) (A) (A) (A) (A) (A) (A) (A) (A) (A) (A) (A)
                 (A) (A) (A)
 The electronic state is 2-A.
 Alpha  occ. eigenvalues --  -14.47220 -14.47220 -14.47219 -10.37923 -10.37859
 Alpha  occ. eigenvalues --  -10.37859 -10.29034 -10.29034 -10.29034 -10.29031
 Alpha  occ. eigenvalues --  -10.29031 -10.29031  -1.34315  -1.30546  -1.30546
 Alpha  occ. eigenvalues --   -1.25065  -1.05749  -1.05749  -1.04723  -1.04414
 Alpha  occ. eigenvalues --   -1.04414  -1.02868  -0.88754  -0.88754  -0.88080
 Alpha  occ. eigenvalues --   -0.85548  -0.84286  -0.84286  -0.81739  -0.81738
 Alpha  occ. eigenvalues --   -0.81482  -0.75740  -0.75080  -0.75079  -0.74467
 Alpha  occ. eigenvalues --   -0.73128  -0.73126  -0.72994  -0.72992  -0.72813
 Alpha  occ. eigenvalues --   -0.71282  -0.71281  -0.70437  -0.65119  -0.65118
 Alpha  occ. eigenvalues --   -0.57616
 Alpha virt. eigenvalues --   -0.25060  -0.25058  -0.21820  -0.15925  -0.15924
 Alpha virt. eigenvalues --   -0.15914  -0.15116  -0.14020  -0.14019  -0.12386
 Alpha virt. eigenvalues --   -0.12384  -0.11666  -0.11484  -0.10547  -0.10546
 Alpha virt. eigenvalues --   -0.09970  -0.09768  -0.09764  -0.08432  -0.07969
 Alpha virt. eigenvalues --   -0.07965  -0.07886  -0.07880  -0.06583  -0.04505
 Alpha virt. eigenvalues --   -0.04410  -0.04406  -0.03621  -0.03616  -0.02589
 Alpha virt. eigenvalues --   -0.00216  -0.00207   0.01632   0.01639   0.01780
 Alpha virt. eigenvalues --    0.02547   0.03919   0.04952   0.04957   0.06776
 Alpha virt. eigenvalues --    0.07976   0.07983   0.08920   0.09151   0.09160
 Alpha virt. eigenvalues --    0.10066   0.11301   0.11307   0.13641   0.13648
 Alpha virt. eigenvalues --    0.15417   0.15867   0.17744   0.17755   0.19440
 Alpha virt. eigenvalues --    0.19721   0.20315   0.20319   0.20903   0.20911
 Alpha virt. eigenvalues --    0.21869   0.22717   0.22718   0.23105   0.24641
 Alpha virt. eigenvalues --    0.24647   0.24882   0.25752   0.25754   0.27017
 Alpha virt. eigenvalues --    0.27028   0.28352   0.28790   0.29019   0.29806
 Alpha virt. eigenvalues --    0.29815   0.31063   0.31238   0.31242   0.33837
 Alpha virt. eigenvalues --    0.33841   0.37873   0.37875   0.41235   0.41354
 Alpha virt. eigenvalues --    0.41356   0.41893   0.41899   0.42817   0.46336
 Alpha virt. eigenvalues --    0.46765   0.46770   0.48320   0.54193   0.54209
 Alpha virt. eigenvalues --    0.58640   0.58645   0.59444   0.86832   0.87145
 Alpha virt. eigenvalues --    0.87151   0.89825   0.94801   0.97265   0.97279
 Alpha virt. eigenvalues --    0.98127   0.99071   1.02070   1.02076   1.03578
 Alpha virt. eigenvalues --    1.03579   1.06213   1.06218   1.06791   1.07919
 Alpha virt. eigenvalues --    1.08208   1.08873   1.08877   1.10522   1.10529
 Alpha virt. eigenvalues --    1.11690   1.12760   1.12772   1.15445   1.17156
 Alpha virt. eigenvalues --    1.17160   1.17321   1.17335   1.18996   1.19485
 Alpha virt. eigenvalues --    1.21771   1.21787   1.22732   1.22736   1.24356
 Alpha virt. eigenvalues --    1.27978   1.28616   1.28771   1.28776   1.29806
 Alpha virt. eigenvalues --    1.29816   1.31642   1.31645   1.34404   1.35811
 Alpha virt. eigenvalues --    1.36491   1.36504   1.37657   1.37661   1.38004
 Alpha virt. eigenvalues --    1.40781   1.40784   1.42958   1.44576   1.44578
 Alpha virt. eigenvalues --    1.46640   1.48243   1.48246   1.49979   1.50699
 Alpha virt. eigenvalues --    1.50699   1.51540   1.51542   1.51636   1.51687
 Alpha virt. eigenvalues --    1.51963   1.51970   1.52665   1.54168   1.54172
 Alpha virt. eigenvalues --    1.54587   1.54841   1.54854   1.55713   1.59794
 Alpha virt. eigenvalues --    1.59801   1.60326   1.60329   1.61663   1.72455
 Alpha virt. eigenvalues --    1.74340   1.74352   1.78642   1.78656   1.78823
 Alpha virt. eigenvalues --    1.82322   1.84686   1.84692   1.86400   1.88494
 Alpha virt. eigenvalues --    1.88501   1.93762   1.93902   1.93911   2.00157
 Alpha virt. eigenvalues --    2.00439   2.00447   2.00805   2.01840   2.02830
 Alpha virt. eigenvalues --    2.02837   2.03717   2.05883   2.05899   2.07424
 Alpha virt. eigenvalues --    2.07429   2.07648   2.09052   2.10634   2.10643
 Alpha virt. eigenvalues --    2.12952   2.17128   2.17140   2.23048   2.23057
 Alpha virt. eigenvalues --    2.24000   2.24147   2.24155   2.26573   2.27282
 Alpha virt. eigenvalues --    2.27289   2.27960   2.30401   2.30433   2.32162
 Alpha virt. eigenvalues --    2.33382   2.33396   2.33893   2.36630   2.38935
 Alpha virt. eigenvalues --    2.38946   2.39889   2.42775   2.42780   2.43553
 Alpha virt. eigenvalues --    2.46075   2.46087   2.47082   2.49094   2.49115
 Alpha virt. eigenvalues --    2.52412   2.52414   2.56064   2.56072   2.58591
 Alpha virt. eigenvalues --    2.58594   2.64741   2.64744   2.80490   2.82104
 Alpha virt. eigenvalues --    2.82133   2.82945   2.84030   2.84041   2.88256
 Alpha virt. eigenvalues --    2.91140   2.91144   3.00787   3.00798   3.02925
 Alpha virt. eigenvalues --    3.03157   3.03163   3.04117   3.05660   3.05673
 Alpha virt. eigenvalues --    3.06837   3.11334   3.11355   3.12314   3.15460
 Alpha virt. eigenvalues --    3.15468   3.18028   3.23232   3.41966   3.41980
 Alpha virt. eigenvalues --    3.52079   3.66329   3.66338  21.15490  21.46687
 Alpha virt. eigenvalues --   21.48785  21.48792  21.64690  21.64692  21.68912
 Alpha virt. eigenvalues --   21.88634  21.88647  31.26390  31.45578  31.45583
  Beta  occ. eigenvalues --  -14.46617 -14.46616 -14.46615 -10.37942 -10.37879
  Beta  occ. eigenvalues --  -10.37879 -10.29046 -10.29046 -10.29046 -10.29044
  Beta  occ. eigenvalues --  -10.29044 -10.29043  -1.33709  -1.29670  -1.29670
  Beta  occ. eigenvalues --   -1.24303  -1.05602  -1.05601  -1.04571  -1.04266
  Beta  occ. eigenvalues --   -1.04265  -1.02649  -0.88426  -0.88426  -0.87742
  Beta  occ. eigenvalues --   -0.84605  -0.84033  -0.84033  -0.81132  -0.80598
  Beta  occ. eigenvalues --   -0.80597  -0.75174  -0.74928  -0.74927  -0.74368
  Beta  occ. eigenvalues --   -0.72937  -0.72936  -0.72729  -0.72727  -0.72557
  Beta  occ. eigenvalues --   -0.71173  -0.71172  -0.70371  -0.63087  -0.63087
  Beta virt. eigenvalues --   -0.41835  -0.23829  -0.23826  -0.21610  -0.15909
  Beta virt. eigenvalues --   -0.15830  -0.15829  -0.14869  -0.13798  -0.13797
  Beta virt. eigenvalues --   -0.12213  -0.12212  -0.11570  -0.11424  -0.10452
  Beta virt. eigenvalues --   -0.10451  -0.09785  -0.09578  -0.09574  -0.08257
  Beta virt. eigenvalues --   -0.07799  -0.07795  -0.07718  -0.07714  -0.06443
  Beta virt. eigenvalues --   -0.04333  -0.04262  -0.04258  -0.03466  -0.03461
  Beta virt. eigenvalues --   -0.02492  -0.00081  -0.00071   0.01759   0.01766
  Beta virt. eigenvalues --    0.01912   0.02727   0.04127   0.05056   0.05060
  Beta virt. eigenvalues --    0.07032   0.08197   0.08205   0.09056   0.09315
  Beta virt. eigenvalues --    0.09323   0.10265   0.11365   0.11371   0.13825
  Beta virt. eigenvalues --    0.13832   0.15716   0.15991   0.17886   0.17898
  Beta virt. eigenvalues --    0.19785   0.19881   0.20454   0.20458   0.21102
  Beta virt. eigenvalues --    0.21110   0.22017   0.22923   0.22925   0.23322
  Beta virt. eigenvalues --    0.24872   0.24877   0.25142   0.25866   0.25868
  Beta virt. eigenvalues --    0.27364   0.27375   0.28578   0.28981   0.29362
  Beta virt. eigenvalues --    0.30015   0.30024   0.31266   0.31458   0.31462
  Beta virt. eigenvalues --    0.33951   0.33956   0.37965   0.37967   0.41546
  Beta virt. eigenvalues --    0.41557   0.41563   0.42228   0.42233   0.43002
  Beta virt. eigenvalues --    0.46593   0.47040   0.47045   0.48508   0.54375
  Beta virt. eigenvalues --    0.54391   0.58800   0.58806   0.59668   0.87029
  Beta virt. eigenvalues --    0.87391   0.87397   0.90050   0.95168   0.97410
  Beta virt. eigenvalues --    0.97425   0.98264   0.99128   1.02204   1.02210
  Beta virt. eigenvalues --    1.03742   1.03743   1.06435   1.06440   1.06924
  Beta virt. eigenvalues --    1.08070   1.08323   1.09030   1.09034   1.10689
  Beta virt. eigenvalues --    1.10696   1.11859   1.12860   1.12873   1.15697
  Beta virt. eigenvalues --    1.17287   1.17290   1.17431   1.17445   1.19140
  Beta virt. eigenvalues --    1.19615   1.21919   1.21934   1.22867   1.22871
  Beta virt. eigenvalues --    1.24689   1.28173   1.28809   1.29045   1.29050
  Beta virt. eigenvalues --    1.29965   1.29975   1.31935   1.31939   1.34660
  Beta virt. eigenvalues --    1.36058   1.36681   1.36693   1.37954   1.37958
  Beta virt. eigenvalues --    1.38574   1.41153   1.41156   1.43046   1.44701
  Beta virt. eigenvalues --    1.44704   1.46789   1.48473   1.48476   1.50207
  Beta virt. eigenvalues --    1.51231   1.51232   1.51810   1.51850   1.51851
  Beta virt. eigenvalues --    1.52009   1.52177   1.52186   1.52803   1.54357
  Beta virt. eigenvalues --    1.54361   1.55103   1.55195   1.55207   1.56075
  Beta virt. eigenvalues --    1.60032   1.60036   1.60481   1.60486   1.62150
  Beta virt. eigenvalues --    1.72484   1.74613   1.74626   1.78923   1.79309
  Beta virt. eigenvalues --    1.79321   1.82637   1.84882   1.84888   1.86612
  Beta virt. eigenvalues --    1.88798   1.88806   1.94227   1.94238   1.94247
  Beta virt. eigenvalues --    2.00510   2.01001   2.01220   2.01229   2.02499
  Beta virt. eigenvalues --    2.03007   2.03014   2.04112   2.06290   2.06307
  Beta virt. eigenvalues --    2.07785   2.07790   2.07985   2.09994   2.11363
  Beta virt. eigenvalues --    2.11372   2.13934   2.17419   2.17432   2.23182
  Beta virt. eigenvalues --    2.23191   2.24379   2.24621   2.24629   2.27097
  Beta virt. eigenvalues --    2.27533   2.27541   2.28514   2.30778   2.30810
  Beta virt. eigenvalues --    2.32411   2.33717   2.33732   2.34284   2.36819
  Beta virt. eigenvalues --    2.39475   2.39487   2.40147   2.43146   2.43151
  Beta virt. eigenvalues --    2.44137   2.46981   2.46992   2.48170   2.49707
  Beta virt. eigenvalues --    2.49727   2.52991   2.52993   2.56486   2.56813
  Beta virt. eigenvalues --    2.58927   2.58930   2.65764   2.65766   2.80911
  Beta virt. eigenvalues --    2.82377   2.82406   2.83167   2.84259   2.84270
  Beta virt. eigenvalues --    2.89123   2.91665   2.91669   3.01039   3.01050
  Beta virt. eigenvalues --    3.03153   3.03389   3.03394   3.04418   3.05792
  Beta virt. eigenvalues --    3.05805   3.06938   3.11519   3.11539   3.12695
  Beta virt. eigenvalues --    3.16309   3.16317   3.18259   3.23691   3.42324
  Beta virt. eigenvalues --    3.42337   3.52360   3.66790   3.66798  21.15472
  Beta virt. eigenvalues --   21.46673  21.48771  21.48778  21.64677  21.64680
  Beta virt. eigenvalues --   21.68899  21.88633  21.88646  31.27260  31.46450
  Beta virt. eigenvalues --   31.46454
          Condensed to atoms (all electrons):
               1          2          3          4          5          6
     1  C    6.219567  -0.169338   0.537558  -0.092296  -0.071478  -0.006004
     2  C   -0.169338   6.221062  -0.092188   0.537690  -0.000860  -0.003327
     3  N    0.537558  -0.092188   6.290769  -0.004889   0.214414  -0.022909
     4  N   -0.092296   0.537690  -0.004889   6.290712  -0.000628  -0.000003
     5  C   -0.071478  -0.000860   0.214414  -0.000628   4.993216   0.404208
     6  H   -0.006004  -0.003327  -0.022909  -0.000003   0.404208   0.436211
     7  H   -0.012012   0.012044  -0.027519   0.000029   0.393525  -0.020912
     8  H    0.006574   0.000063  -0.025703   0.000008   0.393294  -0.013356
     9  C   -0.071590   0.004200   0.214327  -0.001916  -0.046457  -0.009359
    10  H    0.006613  -0.002773  -0.025684   0.000042   0.000722   0.002171
    11  H   -0.006047   0.006577  -0.022931   0.000116  -0.009343   0.000020
    12  H   -0.012010  -0.002211  -0.027464  -0.002495   0.008345  -0.000018
    13  C   -0.000893  -0.071493  -0.000628   0.214412  -0.000010  -0.000002
    14  H   -0.003329  -0.006025  -0.000003  -0.022928  -0.000002   0.000000
    15  H    0.012025  -0.011998   0.000029  -0.027481   0.000004  -0.000000
    16  H    0.000065   0.006604   0.000008  -0.025691   0.000000  -0.000000
    17  C    0.004119  -0.071527  -0.001923   0.214399   0.000050  -0.000006
    18  H   -0.002786   0.006576   0.000042  -0.025711  -0.000000   0.000000
    19  H    0.006569  -0.005997   0.000116  -0.022907   0.000003   0.000000
    20  H   -0.002172  -0.012014  -0.002509  -0.027509  -0.000108  -0.000001
    21  C   -0.167351  -0.169588  -0.092168  -0.092234   0.004047   0.006573
    22  N   -0.092243  -0.092144  -0.004892  -0.004886  -0.001917   0.000116
    23  C    0.004047  -0.000814  -0.001920  -0.000628   0.003478  -0.000690
    24  H    0.006566  -0.003332   0.000115  -0.000003  -0.000687   0.000071
    25  H   -0.002184   0.012107  -0.002505   0.000029   0.000520  -0.000923
    26  H   -0.002790   0.000063   0.000042   0.000008   0.000040   0.000002
    27  C   -0.000930   0.004271  -0.000629  -0.001916   0.000049   0.000003
    28  H    0.000067  -0.002781   0.000008   0.000042  -0.000002   0.000000
    29  H   -0.003327   0.006570  -0.000003   0.000116  -0.000006   0.000000
    30  H    0.012012  -0.002228   0.000028  -0.002502   0.000008   0.000000
               7          8          9         10         11         12
     1  C   -0.012012   0.006574  -0.071590   0.006613  -0.006047  -0.012010
     2  C    0.012044   0.000063   0.004200  -0.002773   0.006577  -0.002211
     3  N   -0.027519  -0.025703   0.214327  -0.025684  -0.022931  -0.027464
     4  N    0.000029   0.000008  -0.001916   0.000042   0.000116  -0.002495
     5  C    0.393525   0.393294  -0.046457   0.000722  -0.009343   0.008345
     6  H   -0.020912  -0.013356  -0.009359   0.002171   0.000020  -0.000018
     7  H    0.502068  -0.019102   0.008348   0.000269  -0.000019  -0.000525
     8  H   -0.019102   0.442572   0.000734  -0.002140   0.002170   0.000267
     9  C    0.008348   0.000734   4.993496   0.393227   0.404237   0.393577
    10  H    0.000269  -0.002140   0.393227   0.442573  -0.013343  -0.019082
    11  H   -0.000019   0.002170   0.404237  -0.013343   0.436227  -0.020930
    12  H   -0.000525   0.000267   0.393577  -0.019082  -0.020930   0.501882
    13  C    0.000004   0.000000   0.000052  -0.000000   0.000003  -0.000108
    14  H   -0.000000  -0.000000  -0.000006   0.000000   0.000000  -0.000001
    15  H   -0.000002   0.000000   0.000008  -0.000000   0.000000   0.000017
    16  H    0.000000  -0.000000  -0.000002  -0.000000   0.000000   0.000011
    17  C    0.000008  -0.000002   0.003550   0.000040  -0.000701   0.000525
    18  H   -0.000000  -0.000000   0.000040  -0.000002   0.000002   0.000313
    19  H    0.000000   0.000000  -0.000698   0.000002   0.000072  -0.000919
    20  H    0.000017   0.000011   0.000553   0.000314  -0.000925  -0.003049
    21  C   -0.002192  -0.002780  -0.000936   0.000064  -0.003324   0.011978
    22  N   -0.002492   0.000042  -0.000628   0.000008  -0.000003   0.000028
    23  C    0.000496   0.000041   0.000048  -0.000002  -0.000006   0.000008
    24  H   -0.000918   0.000001   0.000003   0.000000   0.000000   0.000000
    25  H   -0.003009   0.000313  -0.000107   0.000011  -0.000001   0.000017
    26  H    0.000313  -0.000002  -0.000000  -0.000000   0.000000  -0.000000
    27  C   -0.000107  -0.000000  -0.000010   0.000000  -0.000002   0.000004
    28  H    0.000011  -0.000000   0.000000  -0.000000  -0.000000   0.000000
    29  H   -0.000001   0.000000  -0.000002  -0.000000   0.000000  -0.000000
    30  H    0.000017  -0.000000   0.000004   0.000000  -0.000000  -0.000002
              13         14         15         16         17         18
     1  C   -0.000893  -0.003329   0.012025   0.000065   0.004119  -0.002786
     2  C   -0.071493  -0.006025  -0.011998   0.006604  -0.071527   0.006576
     3  N   -0.000628  -0.000003   0.000029   0.000008  -0.001923   0.000042
     4  N    0.214412  -0.022928  -0.027481  -0.025691   0.214399  -0.025711
     5  C   -0.000010  -0.000002   0.000004   0.000000   0.000050  -0.000000
     6  H   -0.000002   0.000000  -0.000000  -0.000000  -0.000006   0.000000
     7  H    0.000004  -0.000000  -0.000002   0.000000   0.000008  -0.000000
     8  H    0.000000  -0.000000   0.000000  -0.000000  -0.000002  -0.000000
     9  C    0.000052  -0.000006   0.000008  -0.000002   0.003550   0.000040
    10  H   -0.000000   0.000000  -0.000000  -0.000000   0.000040  -0.000002
    11  H    0.000003   0.000000   0.000000   0.000000  -0.000701   0.000002
    12  H   -0.000108  -0.000001   0.000017   0.000011   0.000525   0.000313
    13  C    4.993299   0.404248   0.393527   0.393244  -0.046524   0.000736
    14  H    0.404248   0.436228  -0.020911  -0.013360  -0.009354   0.002178
    15  H    0.393527  -0.020911   0.501955  -0.019087   0.008355   0.000268
    16  H    0.393244  -0.013360  -0.019087   0.442610   0.000718  -0.002139
    17  C   -0.046524  -0.009354   0.008355   0.000718   4.993266   0.393297
    18  H    0.000736   0.002178   0.000268  -0.002139   0.393297   0.442631
    19  H   -0.009351   0.000019  -0.000019   0.002178   0.404184  -0.013367
    20  H    0.008348  -0.000019  -0.000525   0.000269   0.393519  -0.019099
    21  C    0.004093   0.006569  -0.002224  -0.002774  -0.000895   0.000064
    22  N   -0.001919   0.000116  -0.002504   0.000042  -0.000628   0.000008
    23  C    0.000050   0.000003  -0.000108  -0.000000  -0.000010   0.000000
    24  H   -0.000006   0.000000  -0.000001   0.000000  -0.000002  -0.000000
    25  H    0.000008   0.000000   0.000017  -0.000000   0.000004   0.000000
    26  H   -0.000002   0.000000   0.000011  -0.000000   0.000000  -0.000000
    27  C    0.003539  -0.000697   0.000535   0.000040   0.000051  -0.000002
    28  H    0.000040   0.000002   0.000313  -0.000002  -0.000000  -0.000000
    29  H   -0.000698   0.000072  -0.000922   0.000002   0.000003   0.000000
    30  H    0.000532  -0.000922  -0.003038   0.000313  -0.000108   0.000011
              19         20         21         22         23         24
     1  C    0.006569  -0.002172  -0.167351  -0.092243   0.004047   0.006566
     2  C   -0.005997  -0.012014  -0.169588  -0.092144  -0.000814  -0.003332
     3  N    0.000116  -0.002509  -0.092168  -0.004892  -0.001920   0.000115
     4  N   -0.022907  -0.027509  -0.092234  -0.004886  -0.000628  -0.000003
     5  C    0.000003  -0.000108   0.004047  -0.001917   0.003478  -0.000687
     6  H    0.000000  -0.000001   0.006573   0.000116  -0.000690   0.000071
     7  H    0.000000   0.000017  -0.002192  -0.002492   0.000496  -0.000918
     8  H    0.000000   0.000011  -0.002780   0.000042   0.000041   0.000001
     9  C   -0.000698   0.000553  -0.000936  -0.000628   0.000048   0.000003
    10  H    0.000002   0.000314   0.000064   0.000008  -0.000002   0.000000
    11  H    0.000072  -0.000925  -0.003324  -0.000003  -0.000006   0.000000
    12  H   -0.000919  -0.003049   0.011978   0.000028   0.000008   0.000000
    13  C   -0.009351   0.008348   0.004093  -0.001919   0.000050  -0.000006
    14  H    0.000019  -0.000019   0.006569   0.000116   0.000003   0.000000
    15  H   -0.000019  -0.000525  -0.002224  -0.002504  -0.000108  -0.000001
    16  H    0.002178   0.000269  -0.002774   0.000042  -0.000000   0.000000
    17  C    0.404184   0.393519  -0.000895  -0.000628  -0.000010  -0.000002
    18  H   -0.013367  -0.019099   0.000064   0.000008   0.000000  -0.000000
    19  H    0.436231  -0.020894  -0.003321  -0.000003  -0.000002   0.000000
    20  H   -0.020894   0.501982   0.012025   0.000029   0.000004  -0.000000
    21  C   -0.003321   0.012025   6.219728   0.537611  -0.071452  -0.005974
    22  N   -0.000003   0.000029   0.537611   6.290626   0.214491  -0.022900
    23  C   -0.000002   0.000004  -0.071452   0.214491   4.992980   0.404209
    24  H    0.000000  -0.000000  -0.005974  -0.022900   0.404209   0.436229
    25  H   -0.000000  -0.000002  -0.011999  -0.027555   0.393445  -0.020880
    26  H   -0.000000   0.000000   0.006552  -0.025707   0.393324  -0.013387
    27  C   -0.000006   0.000008  -0.071633   0.214378  -0.046585  -0.009374
    28  H    0.000000  -0.000000   0.006615  -0.025698   0.000719   0.002186
    29  H    0.000000   0.000000  -0.006029  -0.022918  -0.009340   0.000019
    30  H   -0.000001   0.000017  -0.012003  -0.027462   0.008354  -0.000018
              25         26         27         28         29         30
     1  C   -0.002184  -0.002790  -0.000930   0.000067  -0.003327   0.012012
     2  C    0.012107   0.000063   0.004271  -0.002781   0.006570  -0.002228
     3  N   -0.002505   0.000042  -0.000629   0.000008  -0.000003   0.000028
     4  N    0.000029   0.000008  -0.001916   0.000042   0.000116  -0.002502
     5  C    0.000520   0.000040   0.000049  -0.000002  -0.000006   0.000008
     6  H   -0.000923   0.000002   0.000003   0.000000   0.000000   0.000000
     7  H   -0.003009   0.000313  -0.000107   0.000011  -0.000001   0.000017
     8  H    0.000313  -0.000002  -0.000000  -0.000000   0.000000  -0.000000
     9  C   -0.000107  -0.000000  -0.000010   0.000000  -0.000002   0.000004
    10  H    0.000011  -0.000000   0.000000  -0.000000  -0.000000   0.000000
    11  H   -0.000001   0.000000  -0.000002  -0.000000   0.000000  -0.000000
    12  H    0.000017  -0.000000   0.000004   0.000000  -0.000000  -0.000002
    13  C    0.000008  -0.000002   0.003539   0.000040  -0.000698   0.000532
    14  H    0.000000   0.000000  -0.000697   0.000002   0.000072  -0.000922
    15  H    0.000017   0.000011   0.000535   0.000313  -0.000922  -0.003038
    16  H   -0.000000  -0.000000   0.000040  -0.000002   0.000002   0.000313
    17  C    0.000004   0.000000   0.000051  -0.000000   0.000003  -0.000108
    18  H    0.000000  -0.000000  -0.000002  -0.000000   0.000000   0.000011
    19  H   -0.000000  -0.000000  -0.000006   0.000000   0.000000  -0.000001
    20  H   -0.000002   0.000000   0.000008  -0.000000   0.000000   0.000017
    21  C   -0.011999   0.006552  -0.071633   0.006615  -0.006029  -0.012003
    22  N   -0.027555  -0.025707   0.214378  -0.025698  -0.022918  -0.027462
    23  C    0.393445   0.393324  -0.046585   0.000719  -0.009340   0.008354
    24  H   -0.020880  -0.013387  -0.009374   0.002186   0.000019  -0.000018
    25  H    0.502130  -0.019105   0.008361   0.000270  -0.000020  -0.000525
    26  H   -0.019105   0.442641   0.000736  -0.002139   0.002182   0.000266
    27  C    0.008361   0.000736   4.993358   0.393237   0.404233   0.393530
    28  H    0.000270  -0.002139   0.393237   0.442653  -0.013361  -0.019089
    29  H   -0.000020   0.002182   0.404233  -0.013361   0.436227  -0.020912
    30  H   -0.000525   0.000266   0.393530  -0.019089  -0.020912   0.501945
          Atomic-Atomic Spin Densities.
               1          2          3          4          5          6
     1  C   -0.053951   0.050656  -0.057125  -0.006144   0.003448  -0.000238
     2  C    0.050656  -0.053953  -0.006142  -0.057132  -0.000484  -0.000053
     3  N   -0.057125  -0.006142   0.435842   0.001845  -0.026460  -0.006147
     4  N   -0.006144  -0.057132   0.001845   0.435873  -0.000070  -0.000003
     5  C    0.003448  -0.000484  -0.026460  -0.000070  -0.007489   0.008490
     6  H   -0.000238  -0.000053  -0.006147  -0.000003   0.008490   0.019322
     7  H    0.000234  -0.000027  -0.000511   0.000005   0.001060  -0.000309
     8  H    0.000835   0.000083  -0.004480  -0.000001   0.005122  -0.002300
     9  C    0.003446   0.002684  -0.026458  -0.000349   0.002388   0.000192
    10  H    0.000830  -0.000130  -0.004462  -0.000014   0.000858   0.000548
    11  H   -0.000237   0.000482  -0.006154  -0.000022   0.000191  -0.000173
    12  H    0.000245  -0.000280  -0.000520   0.000111  -0.000042  -0.000021
    13  C   -0.000483   0.003447  -0.000070  -0.026455  -0.000001  -0.000000
    14  H   -0.000052  -0.000236  -0.000003  -0.006152  -0.000000  -0.000000
    15  H   -0.000025   0.000240   0.000005  -0.000515  -0.000001  -0.000000
    16  H    0.000082   0.000834  -0.000001  -0.004475   0.000000   0.000000
    17  C    0.002684   0.003446  -0.000350  -0.026459   0.000025   0.000003
    18  H   -0.000130   0.000834  -0.000014  -0.004481  -0.000000  -0.000000
    19  H    0.000479  -0.000234  -0.000022  -0.006149   0.000003   0.000000
    20  H   -0.000278   0.000236   0.000112  -0.000513   0.000001   0.000001
    21  C    0.050629   0.050639  -0.006132  -0.006130   0.002683   0.000482
    22  N   -0.006139  -0.006139   0.001844   0.001845  -0.000349  -0.000022
    23  C    0.002681  -0.000481  -0.000350  -0.000069   0.000141  -0.000045
    24  H    0.000480  -0.000051  -0.000022  -0.000003  -0.000045  -0.000030
    25  H   -0.000273  -0.000025   0.000114   0.000005  -0.000025  -0.000046
    26  H   -0.000132   0.000082  -0.000014  -0.000001   0.000030   0.000008
    27  C   -0.000486   0.002680  -0.000069  -0.000349   0.000025   0.000003
    28  H    0.000082  -0.000129  -0.000001  -0.000014  -0.000001  -0.000000
    29  H   -0.000053   0.000479  -0.000003  -0.000022   0.000003   0.000000
    30  H   -0.000025  -0.000280   0.000005   0.000111   0.000001   0.000000
               7          8          9         10         11         12
     1  C    0.000234   0.000835   0.003446   0.000830  -0.000237   0.000245
     2  C   -0.000027   0.000083   0.002684  -0.000130   0.000482  -0.000280
     3  N   -0.000511  -0.004480  -0.026458  -0.004462  -0.006154  -0.000520
     4  N    0.000005  -0.000001  -0.000349  -0.000014  -0.000022   0.000111
     5  C    0.001060   0.005122   0.002388   0.000858   0.000191  -0.000042
     6  H   -0.000309  -0.002300   0.000192   0.000548  -0.000173  -0.000021
     7  H    0.000878  -0.000012  -0.000043   0.000016  -0.000022  -0.000005
     8  H   -0.000012   0.013589   0.000860  -0.000322   0.000549   0.000016
     9  C   -0.000043   0.000860  -0.007494   0.005104   0.008502   0.001062
    10  H    0.000016  -0.000322   0.005104   0.013535  -0.002295  -0.000005
    11  H   -0.000022   0.000549   0.008502  -0.002295   0.019344  -0.000318
    12  H   -0.000005   0.000016   0.001062  -0.000005  -0.000318   0.000897
    13  C   -0.000001   0.000000   0.000025  -0.000000   0.000003   0.000001
    14  H   -0.000000   0.000000   0.000003  -0.000000   0.000000   0.000001
    15  H   -0.000000   0.000000   0.000001  -0.000000   0.000000   0.000001
    16  H    0.000000  -0.000000  -0.000001   0.000000  -0.000000  -0.000002
    17  C    0.000001  -0.000001   0.000139   0.000029  -0.000046  -0.000020
    18  H   -0.000000   0.000000   0.000030  -0.000001   0.000008   0.000011
    19  H    0.000000  -0.000000  -0.000046   0.000008  -0.000030  -0.000044
    20  H    0.000001  -0.000002  -0.000022   0.000011  -0.000045  -0.000035
    21  C   -0.000275  -0.000131  -0.000486   0.000082  -0.000054  -0.000026
    22  N    0.000113  -0.000014  -0.000070  -0.000001  -0.000003   0.000005
    23  C   -0.000023   0.000029   0.000025  -0.000001   0.000003   0.000001
    24  H   -0.000045   0.000008   0.000003  -0.000000   0.000000   0.000000
    25  H   -0.000036   0.000011   0.000001  -0.000002   0.000001   0.000001
    26  H    0.000011  -0.000001  -0.000000   0.000000  -0.000000  -0.000000
    27  C    0.000001  -0.000000  -0.000001   0.000000  -0.000000  -0.000001
    28  H   -0.000002   0.000000   0.000000  -0.000000   0.000000   0.000000
    29  H    0.000001  -0.000000  -0.000000   0.000000  -0.000000  -0.000000
    30  H    0.000001  -0.000000  -0.000001   0.000000  -0.000000  -0.000000
              13         14         15         16         17         18
     1  C   -0.000483  -0.000052  -0.000025   0.000082   0.002684  -0.000130
     2  C    0.003447  -0.000236   0.000240   0.000834   0.003446   0.000834
     3  N   -0.000070  -0.000003   0.000005  -0.000001  -0.000350  -0.000014
     4  N   -0.026455  -0.006152  -0.000515  -0.004475  -0.026459  -0.004481
     5  C   -0.000001  -0.000000  -0.000001   0.000000   0.000025  -0.000000
     6  H   -0.000000  -0.000000  -0.000000   0.000000   0.000003  -0.000000
     7  H   -0.000001  -0.000000  -0.000000   0.000000   0.000001  -0.000000
     8  H    0.000000   0.000000   0.000000  -0.000000  -0.000001   0.000000
     9  C    0.000025   0.000003   0.000001  -0.000001   0.000139   0.000030
    10  H   -0.000000  -0.000000  -0.000000   0.000000   0.000029  -0.000001
    11  H    0.000003   0.000000   0.000000  -0.000000  -0.000046   0.000008
    12  H    0.000001   0.000001   0.000001  -0.000002  -0.000020   0.000011
    13  C   -0.007495   0.008501   0.001060   0.005111   0.002388   0.000863
    14  H    0.008501   0.019332  -0.000314  -0.002299   0.000191   0.000550
    15  H    0.001060  -0.000314   0.000884  -0.000008  -0.000043   0.000016
    16  H    0.005111  -0.002299  -0.000008   0.013573   0.000861  -0.000322
    17  C    0.002388   0.000191  -0.000043   0.000861  -0.007490   0.005118
    18  H    0.000863   0.000550   0.000016  -0.000322   0.005118   0.013595
    19  H    0.000190  -0.000173  -0.000021   0.000549   0.008494  -0.002300
    20  H   -0.000043  -0.000022  -0.000005   0.000016   0.001059  -0.000010
    21  C    0.002678   0.000478  -0.000280  -0.000129  -0.000482   0.000082
    22  N   -0.000350  -0.000022   0.000111  -0.000014  -0.000070  -0.000001
    23  C    0.000025   0.000003   0.000001  -0.000000  -0.000001   0.000000
    24  H    0.000003   0.000000   0.000001  -0.000000  -0.000000   0.000000
    25  H    0.000001   0.000000   0.000001  -0.000000  -0.000001   0.000000
    26  H   -0.000001  -0.000000  -0.000002   0.000000   0.000000  -0.000000
    27  C    0.000138  -0.000046  -0.000021   0.000029   0.000025  -0.000001
    28  H    0.000029   0.000008   0.000011  -0.000001  -0.000000   0.000000
    29  H   -0.000046  -0.000030  -0.000044   0.000008   0.000003  -0.000000
    30  H   -0.000021  -0.000044  -0.000035   0.000011   0.000001  -0.000002
              19         20         21         22         23         24
     1  C    0.000479  -0.000278   0.050629  -0.006139   0.002681   0.000480
     2  C   -0.000234   0.000236   0.050639  -0.006139  -0.000481  -0.000051
     3  N   -0.000022   0.000112  -0.006132   0.001844  -0.000350  -0.000022
     4  N   -0.006149  -0.000513  -0.006130   0.001845  -0.000069  -0.000003
     5  C    0.000003   0.000001   0.002683  -0.000349   0.000141  -0.000045
     6  H    0.000000   0.000001   0.000482  -0.000022  -0.000045  -0.000030
     7  H    0.000000   0.000001  -0.000275   0.000113  -0.000023  -0.000045
     8  H   -0.000000  -0.000002  -0.000131  -0.000014   0.000029   0.000008
     9  C   -0.000046  -0.000022  -0.000486  -0.000070   0.000025   0.000003
    10  H    0.000008   0.000011   0.000082  -0.000001  -0.000001  -0.000000
    11  H   -0.000030  -0.000045  -0.000054  -0.000003   0.000003   0.000000
    12  H   -0.000044  -0.000035  -0.000026   0.000005   0.000001   0.000000
    13  C    0.000190  -0.000043   0.002678  -0.000350   0.000025   0.000003
    14  H   -0.000173  -0.000022   0.000478  -0.000022   0.000003   0.000000
    15  H   -0.000021  -0.000005  -0.000280   0.000111   0.000001   0.000001
    16  H    0.000549   0.000016  -0.000129  -0.000014  -0.000000  -0.000000
    17  C    0.008494   0.001059  -0.000482  -0.000070  -0.000001  -0.000000
    18  H   -0.002300  -0.000010   0.000082  -0.000001   0.000000   0.000000
    19  H    0.019313  -0.000312  -0.000051  -0.000003  -0.000000  -0.000000
    20  H   -0.000312   0.000878  -0.000023   0.000005  -0.000001  -0.000000
    21  C   -0.000051  -0.000023  -0.053978  -0.057114   0.003448  -0.000234
    22  N   -0.000003   0.000005  -0.057114   0.435854  -0.026458  -0.006146
    23  C   -0.000000  -0.000001   0.003448  -0.026458  -0.007494   0.008484
    24  H   -0.000000  -0.000000  -0.000234  -0.006146   0.008484   0.019304
    25  H   -0.000000  -0.000000   0.000225  -0.000504   0.001056  -0.000303
    26  H    0.000000   0.000000   0.000837  -0.004497   0.005135  -0.002305
    27  C    0.000003   0.000001   0.003445  -0.026448   0.002389   0.000191
    28  H   -0.000000  -0.000000   0.000834  -0.004475   0.000861   0.000550
    29  H    0.000000   0.000000  -0.000238  -0.006147   0.000190  -0.000173
    30  H    0.000001   0.000001   0.000243  -0.000516  -0.000043  -0.000021
              25         26         27         28         29         30
     1  C   -0.000273  -0.000132  -0.000486   0.000082  -0.000053  -0.000025
     2  C   -0.000025   0.000082   0.002680  -0.000129   0.000479  -0.000280
     3  N    0.000114  -0.000014  -0.000069  -0.000001  -0.000003   0.000005
     4  N    0.000005  -0.000001  -0.000349  -0.000014  -0.000022   0.000111
     5  C   -0.000025   0.000030   0.000025  -0.000001   0.000003   0.000001
     6  H   -0.000046   0.000008   0.000003  -0.000000   0.000000   0.000000
     7  H   -0.000036   0.000011   0.000001  -0.000002   0.000001   0.000001
     8  H    0.000011  -0.000001  -0.000000   0.000000  -0.000000  -0.000000
     9  C    0.000001  -0.000000  -0.000001   0.000000  -0.000000  -0.000001
    10  H   -0.000002   0.000000   0.000000  -0.000000   0.000000   0.000000
    11  H    0.000001  -0.000000  -0.000000   0.000000  -0.000000  -0.000000
    12  H    0.000001  -0.000000  -0.000001   0.000000  -0.000000  -0.000000
    13  C    0.000001  -0.000001   0.000138   0.000029  -0.000046  -0.000021
    14  H    0.000000  -0.000000  -0.000046   0.000008  -0.000030  -0.000044
    15  H    0.000001  -0.000002  -0.000021   0.000011  -0.000044  -0.000035
    16  H   -0.000000   0.000000   0.000029  -0.000001   0.000008   0.000011
    17  C   -0.000001   0.000000   0.000025  -0.000000   0.000003   0.000001
    18  H    0.000000  -0.000000  -0.000001   0.000000  -0.000000  -0.000002
    19  H   -0.000000   0.000000   0.000003  -0.000000   0.000000   0.000001
    20  H   -0.000000   0.000000   0.000001  -0.000000   0.000000   0.000001
    21  C    0.000225   0.000837   0.003445   0.000834  -0.000238   0.000243
    22  N   -0.000504  -0.004497  -0.026448  -0.004475  -0.006147  -0.000516
    23  C    0.001056   0.005135   0.002389   0.000861   0.000190  -0.000043
    24  H   -0.000303  -0.002305   0.000191   0.000550  -0.000173  -0.000021
    25  H    0.000860  -0.000016  -0.000044   0.000016  -0.000022  -0.000005
    26  H   -0.000016   0.013644   0.000864  -0.000323   0.000551   0.000016
    27  C   -0.000044   0.000864  -0.007500   0.005108   0.008499   0.001061
    28  H    0.000016  -0.000323   0.005108   0.013564  -0.002298  -0.000007
    29  H   -0.000022   0.000551   0.008499  -0.002298   0.019332  -0.000315
    30  H   -0.000005   0.000016   0.001061  -0.000007  -0.000315   0.000888
 Mulliken charges and spin densities:
               1          2
     1  C   -0.096999  -0.008958
     2  C   -0.097187  -0.008956
     3  N    0.099012   0.294257
     4  N    0.099022   0.294271
     5  C   -0.284426  -0.010497
     6  H    0.228134   0.019662
     7  H    0.171663   0.001012
     8  H    0.216995   0.013838
     9  C   -0.284692  -0.010505
    10  H    0.216972   0.013790
    11  H    0.228151   0.019686
    12  H    0.171841   0.001034
    13  C   -0.284498  -0.010502
    14  H    0.228124   0.019675
    15  H    0.171758   0.001020
    16  H    0.216953   0.013822
    17  C   -0.284408  -0.010495
    18  H    0.216942   0.013844
    19  H    0.228114   0.019656
    20  H    0.171732   0.001013
    21  C   -0.097041  -0.008978
    22  N    0.099004   0.294275
    23  C   -0.284140  -0.010493
    24  H    0.228083   0.019644
    25  H    0.171584   0.000991
    26  H    0.216954   0.013887
    27  C   -0.284441  -0.010505
    28  H    0.216909   0.013814
    29  H    0.228115   0.019674
    30  H    0.171773   0.001024
 Sum of Mulliken charges =   2.00000   1.00000
 Mulliken charges and spin densities with hydrogens summed into heavy atoms:
               1          2
     1  C   -0.096999  -0.008958
     2  C   -0.097187  -0.008956
     3  N    0.099012   0.294257
     4  N    0.099022   0.294271
     5  C    0.332366   0.024016
     9  C    0.332272   0.024005
    13  C    0.332336   0.024015
    17  C    0.332379   0.024017
    21  C   -0.097041  -0.008978
    22  N    0.099004   0.294275
    23  C    0.332480   0.024029
    27  C    0.332356   0.024007
 Electronic spatial extent (au):  <R**2>=           2550.6909
 Charge=              2.0000 electrons
 Dipole moment (field-independent basis, Debye):
    X=              0.0001    Y=              0.0000    Z=              0.0006  Tot=              0.0006
 Quadrupole moment (field-independent basis, Debye-Ang):
   XX=            -17.3707   YY=            -17.3786   ZZ=            -66.5823
   XY=             -0.0003   XZ=             -0.0014   YZ=              0.0009
 Traceless Quadrupole moment (field-independent basis, Debye-Ang):
   XX=             16.4065   YY=             16.3986   ZZ=            -32.8051
   XY=             -0.0003   XZ=             -0.0014   YZ=              0.0009
 Octapole moment (field-independent basis, Debye-Ang**2):
  XXX=             16.4102  YYY=             28.8067  ZZZ=              0.0021  XYY=            -16.4109
  XXY=            -28.8276  XXZ=              0.0023  XZZ=              0.0051  YZZ=              0.0052
  YYZ=              0.0028  XYZ=              0.0032
 Hexadecapole moment (field-independent basis, Debye-Ang**3):
 XXXX=          -1073.3739 YYYY=          -1073.1680 ZZZZ=           -120.7591 XXXY=             -0.0208
 XXXZ=              8.3374 YYYX=              0.0205 YYYZ=             -4.7298 ZZZX=             -0.0255
 ZZZY=              0.0058 XXYY=           -357.7140 XXZZ=           -245.3849 YYZZ=           -245.3661
 XXYZ=              4.7313 YYXZ=             -8.3067 ZZXY=             -0.0166
 N-N= 7.407629817128D+02 E-N=-2.652670955098D+03  KE= 5.147334222663D+02
                          Isotropic Fermi Contact Couplings
        Atom                 a.u.       MegaHertz       Gauss      10(-4) cm-1
     1  C(13)             -0.00975     -10.96185      -3.91146      -3.65648
     2  C(13)             -0.00975     -10.96276      -3.91179      -3.65678
     3  N(14)              0.02710       8.75557       3.12421       2.92055
     4  N(14)              0.02710       8.75583       3.12430       2.92063
     5  C(13)             -0.00804      -9.04266      -3.22665      -3.01631
     6  H(1)               0.01014      45.33333      16.17606      15.12157
     7  H(1)               0.00069       3.07026       1.09554       1.02413
     8  H(1)               0.00715      31.96854      11.40717      10.66356
     9  C(13)             -0.00804      -9.04368      -3.22701      -3.01665
    10  H(1)               0.00713      31.86174      11.36906      10.62793
    11  H(1)               0.01015      45.37969      16.19260      15.13704
    12  H(1)               0.00070       3.11254       1.11063       1.03823
    13  C(13)             -0.00805      -9.04552      -3.22766      -3.01726
    14  H(1)               0.01015      45.35266      16.18296      15.12802
    15  H(1)               0.00069       3.08117       1.09944       1.02777
    16  H(1)               0.00714      31.93083      11.39371      10.65098
    17  C(13)             -0.00804      -9.04159      -3.22627      -3.01595
    18  H(1)               0.00715      31.97558      11.40968      10.66590
    19  H(1)               0.01014      45.31857      16.17079      15.11665
    20  H(1)               0.00069       3.06665       1.09426       1.02292
    21  C(13)             -0.00975     -10.96357      -3.91207      -3.65705
    22  N(14)              0.02710       8.75619       3.12443       2.92075
    23  C(13)             -0.00805      -9.04462      -3.22734      -3.01696
    24  H(1)               0.01013      45.28792      16.15986      15.10643
    25  H(1)               0.00068       3.02563       1.07962       1.00924
    26  H(1)               0.00717      32.06980      11.44330      10.69734
    27  C(13)             -0.00804      -9.04318      -3.22683      -3.01648
    28  H(1)               0.00714      31.90846      11.38573      10.64352
    29  H(1)               0.01015      45.35084      16.18231      15.12741
    30  H(1)               0.00069       3.09035       1.10271       1.03083
 --------------------------------------------------------
       Center         ----  Spin Dipole Couplings  ----
                      3XX-RR        3YY-RR        3ZZ-RR
 --------------------------------------------------------
     1   Atom        0.006378     -0.000431     -0.005947
     2   Atom       -0.015025      0.020976     -0.005951
     3   Atom       -0.359492     -0.353225      0.712717
     4   Atom       -0.339958     -0.372852      0.712810
     5   Atom       -0.011282      0.001461      0.009821
     6   Atom       -0.003760      0.005739     -0.001979
     7   Atom        0.001415      0.002290     -0.003705
     8   Atom       -0.000424      0.003275     -0.002852
     9   Atom        0.000715     -0.010511      0.009796
    10   Atom        0.004286     -0.001422     -0.002865
    11   Atom        0.005659     -0.003689     -0.001971
    12   Atom        0.001414      0.002292     -0.003706
    13   Atom       -0.004956     -0.004843      0.009799
    14   Atom       -0.000450      0.002423     -0.001973
    15   Atom        0.004174     -0.000466     -0.003708
    16   Atom       -0.002026      0.004884     -0.002858
    17   Atom       -0.000846     -0.008969      0.009815
    18   Atom       -0.000408      0.003259     -0.002851
    19   Atom        0.002791     -0.000809     -0.001981
    20   Atom        0.004171     -0.000465     -0.003706
    21   Atom        0.017587     -0.011639     -0.005948
    22   Atom       -0.369746     -0.343006      0.712753
    23   Atom       -0.010467      0.000643      0.009824
    24   Atom       -0.002239      0.004223     -0.001984
    25   Atom       -0.000031      0.003737     -0.003706
    26   Atom        0.002022      0.000821     -0.002843
    27   Atom       -0.002594     -0.007203      0.009797
    28   Atom        0.005119     -0.002261     -0.002858
    29   Atom        0.003928     -0.001953     -0.001976
    30   Atom       -0.000029      0.003735     -0.003706
 --------------------------------------------------------
                        XY            XZ            YZ
 --------------------------------------------------------
     1   Atom        0.018830      0.011910     -0.014217
     2   Atom       -0.006472     -0.018289     -0.003217
     3   Atom       -0.017218     -0.123414      0.147906
     4   Atom        0.005904      0.189646      0.032998
     5   Atom       -0.001009     -0.005144     -0.002893
     6   Atom        0.000663      0.000994      0.004437
     7   Atom       -0.002425      0.001063     -0.002627
     8   Atom        0.003189     -0.002371     -0.004029
     9   Atom       -0.003179      0.003748      0.004551
    10   Atom        0.002345      0.004376      0.001608
    11   Atom       -0.001051     -0.004545     -0.000181
    12   Atom       -0.002423      0.002400     -0.001515
    13   Atom        0.006452      0.002069     -0.005517
    14   Atom        0.004569      0.002110      0.004030
    15   Atom        0.000834     -0.002506     -0.001319
    16   Atom        0.001300     -0.000793     -0.004601
    17   Atom       -0.005013      0.000056      0.005900
    18   Atom       -0.003196     -0.002305      0.004068
    19   Atom       -0.004444      0.003345     -0.003079
    20   Atom        0.000836     -0.002806      0.000393
    21   Atom       -0.012355      0.006399      0.017407
    22   Atom        0.011305     -0.066240     -0.180938
    23   Atom       -0.003281     -0.005818      0.000985
    24   Atom       -0.003543      0.002443     -0.003834
    25   Atom        0.001593      0.000111      0.002825
    26   Atom       -0.003633     -0.003603      0.002992
    27   Atom        0.006027      0.005064     -0.003008
    28   Atom        0.000012      0.004668     -0.000034
    29   Atom        0.003783     -0.004338     -0.001362
    30   Atom        0.001590      0.001744      0.002235
 --------------------------------------------------------


 ---------------------------------------------------------------------------------
              Anisotropic Spin Dipole Couplings in Principal Axis System
 ---------------------------------------------------------------------------------

       Atom             a.u.   MegaHertz   Gauss  10(-4) cm-1        Axes

              Baa    -0.0303    -4.065    -1.450    -1.356 -0.5102  0.6103  0.6060
     1 C(13)  Bbb     0.0082     1.098     0.392     0.366  0.3874 -0.4660  0.7955
              Bcc     0.0221     2.967     1.059     0.990  0.7679  0.6406  0.0014
 
              Baa    -0.0303    -4.067    -1.451    -1.357  0.7834  0.1369  0.6063
     2 C(13)  Bbb     0.0082     1.101     0.393     0.367 -0.5975 -0.1025  0.7953
              Bcc     0.0221     2.966     1.058     0.989 -0.1710  0.9853 -0.0015
 
              Baa    -0.3739   -14.419    -5.145    -4.810  0.7676  0.6409 -0.0001
     3 N(14)  Bbb    -0.3730   -14.387    -5.134    -4.799 -0.6311  0.7558 -0.1747
              Bcc     0.7469    28.806    10.279     9.609 -0.1119  0.1341  0.9846
 
              Baa    -0.3739   -14.420    -5.145    -4.810 -0.1736  0.9848  0.0004
     4 N(14)  Bbb    -0.3731   -14.388    -5.134    -4.799  0.9697  0.1710 -0.1746
              Bcc     0.7469    28.808    10.279     9.609  0.1720  0.0299  0.9846
 
              Baa    -0.0127    -1.699    -0.606    -0.567  0.9647  0.1172  0.2358
     5 C(13)  Bbb     0.0010     0.133     0.047     0.044 -0.1697  0.9615  0.2161
              Bcc     0.0117     1.566     0.559     0.522 -0.2014 -0.2485  0.9475
 
              Baa    -0.0046    -2.431    -0.867    -0.811 -0.6608 -0.2608  0.7038
     6 H(1)   Bbb    -0.0033    -1.757    -0.627    -0.586  0.7455 -0.3372  0.5750
              Bcc     0.0078     4.188     1.494     1.397  0.0874  0.9046  0.4172
 
              Baa    -0.0047    -2.506    -0.894    -0.836 -0.0269  0.3436  0.9387
     7 H(1)   Bbb    -0.0005    -0.242    -0.086    -0.081  0.8157  0.5504 -0.1781
              Bcc     0.0052     2.748     0.981     0.917 -0.5779  0.7609 -0.2951
 
              Baa    -0.0050    -2.674    -0.954    -0.892  0.2217  0.3560  0.9078
     8 H(1)   Bbb    -0.0023    -1.206    -0.430    -0.402  0.8625 -0.5058 -0.0123
              Bcc     0.0073     3.879     1.384     1.294  0.4548  0.7857 -0.4192
 
              Baa    -0.0127    -1.698    -0.606    -0.566  0.2870  0.9283 -0.2362
     9 C(13)  Bbb     0.0010     0.135     0.048     0.045  0.9161 -0.3381 -0.2156
              Bcc     0.0116     1.563     0.558     0.521  0.2800  0.1545  0.9475
 
              Baa    -0.0050    -2.673    -0.954    -0.892 -0.3892 -0.1527  0.9084
    10 H(1)   Bbb    -0.0023    -1.206    -0.430    -0.402 -0.3435  0.9391  0.0107
              Bcc     0.0073     3.879     1.384     1.294  0.8547  0.3079  0.4179
 
              Baa    -0.0046    -2.428    -0.866    -0.810  0.3751  0.6042  0.7030
    11 H(1)   Bbb    -0.0033    -1.757    -0.627    -0.586 -0.1991  0.7932 -0.5755
              Bcc     0.0078     4.186     1.494     1.396  0.9054 -0.0759 -0.4178
 
              Baa    -0.0047    -2.508    -0.895    -0.837 -0.3336  0.0878  0.9386
    12 H(1)   Bbb    -0.0005    -0.240    -0.086    -0.080  0.6866  0.7049  0.1781
              Bcc     0.0052     2.749     0.981     0.917 -0.6460  0.7038 -0.2954
 
              Baa    -0.0127    -1.698    -0.606    -0.566 -0.6607  0.7126  0.2360
    13 C(13)  Bbb     0.0010     0.135     0.048     0.045  0.7506  0.6247  0.2154
              Bcc     0.0116     1.563     0.558     0.521 -0.0061 -0.3194  0.9476
 
              Baa    -0.0046    -2.430    -0.867    -0.810  0.3355 -0.6263  0.7037
    14 H(1)   Bbb    -0.0033    -1.756    -0.627    -0.586  0.7871 -0.2240 -0.5747
              Bcc     0.0078     4.186     1.494     1.396  0.5176  0.7467  0.4178
 
              Baa    -0.0047    -2.507    -0.894    -0.836  0.2421  0.2448  0.9388
    15 H(1)   Bbb    -0.0005    -0.242    -0.086    -0.081 -0.2671  0.9471 -0.1781
              Bcc     0.0052     2.749     0.981     0.917  0.9327  0.2077 -0.2947
 
              Baa    -0.0050    -2.673    -0.954    -0.892  0.0609  0.4143  0.9081
    16 H(1)   Bbb    -0.0023    -1.207    -0.431    -0.403  0.9851 -0.1715  0.0121
              Bcc     0.0073     3.880     1.385     1.294  0.1607  0.8939 -0.4185
 
              Baa    -0.0127    -1.699    -0.606    -0.567  0.3806  0.8942 -0.2357
    17 C(13)  Bbb     0.0010     0.133     0.047     0.044  0.9175 -0.3333  0.2170
              Bcc     0.0117     1.566     0.559     0.522 -0.1155  0.2989  0.9473
 
              Baa    -0.0050    -2.674    -0.954    -0.892  0.1975 -0.3701  0.9077
    18 H(1)   Bbb    -0.0023    -1.205    -0.430    -0.402  0.8692  0.4943  0.0125
              Bcc     0.0073     3.879     1.384     1.294 -0.4533  0.7866  0.4193
 
              Baa    -0.0046    -2.431    -0.868    -0.811  0.1039  0.7020  0.7045
    19 H(1)   Bbb    -0.0033    -1.757    -0.627    -0.586  0.6648  0.4778 -0.5742
              Bcc     0.0078     4.188     1.494     1.397  0.7397 -0.5280  0.4171
 
              Baa    -0.0047    -2.507    -0.894    -0.836  0.3110 -0.1486  0.9387
    20 H(1)   Bbb    -0.0005    -0.241    -0.086    -0.081 -0.0692  0.9815  0.1783
              Bcc     0.0052     2.748     0.981     0.917  0.9479  0.1204 -0.2949
 
              Baa    -0.0303    -4.065    -1.450    -1.356  0.2737  0.7469 -0.6060
    21 C(13)  Bbb     0.0082     1.098     0.392     0.366  0.2070  0.5696  0.7954
              Bcc     0.0221     2.967     1.059     0.990  0.9393 -0.3432  0.0013
 
              Baa    -0.3739   -14.420    -5.145    -4.810  0.9389 -0.3443 -0.0001
    22 N(14)  Bbb    -0.3731   -14.388    -5.134    -4.799  0.3390  0.9244  0.1747
              Bcc     0.7469    28.808    10.279     9.609 -0.0601 -0.1641  0.9846
 
              Baa    -0.0127    -1.699    -0.606    -0.567  0.9475  0.2162  0.2357
    23 C(13)  Bbb     0.0010     0.132     0.047     0.044 -0.1657  0.9621 -0.2164
              Bcc     0.0117     1.567     0.559     0.523 -0.2735  0.1660  0.9474
 
              Baa    -0.0046    -2.433    -0.868    -0.812  0.7089 -0.0218 -0.7050
    24 H(1)   Bbb    -0.0033    -1.755    -0.626    -0.585  0.5880  0.5701  0.5737
              Bcc     0.0078     4.188     1.494     1.397 -0.3894  0.8213 -0.4170
 
              Baa    -0.0047    -2.504    -0.894    -0.835  0.0910 -0.3318  0.9389
    25 H(1)   Bbb    -0.0005    -0.244    -0.087    -0.081  0.9537 -0.2423 -0.1781
              Bcc     0.0052     2.748     0.981     0.917  0.2866  0.9117  0.2944
 
              Baa    -0.0050    -2.674    -0.954    -0.892  0.3309 -0.2593  0.9073
    26 H(1)   Bbb    -0.0023    -1.206    -0.430    -0.402  0.6401  0.7682 -0.0139
              Bcc     0.0073     3.880     1.385     1.294  0.6934 -0.5854 -0.4202
 
              Baa    -0.0127    -1.698    -0.606    -0.566 -0.5842  0.7766  0.2359
    27 C(13)  Bbb     0.0010     0.135     0.048     0.045  0.7477  0.6280 -0.2158
              Bcc     0.0116     1.563     0.558     0.521  0.3157 -0.0503  0.9475
 
              Baa    -0.0050    -2.673    -0.954    -0.892 -0.4185  0.0129  0.9081
    28 H(1)   Bbb    -0.0023    -1.206    -0.430    -0.402  0.0057  0.9999 -0.0116
              Bcc     0.0073     3.879     1.384     1.294  0.9082 -0.0004  0.4186
 
              Baa    -0.0046    -2.429    -0.867    -0.810  0.5568 -0.4413  0.7038
    29 H(1)   Bbb    -0.0033    -1.756    -0.627    -0.586 -0.0813  0.8142  0.5749
              Bcc     0.0078     4.186     1.494     1.396  0.8267  0.3772 -0.4175
 
              Baa    -0.0047    -2.507    -0.895    -0.836 -0.2842 -0.1952  0.9387
    30 H(1)   Bbb    -0.0005    -0.242    -0.086    -0.081  0.8846 -0.4310  0.1782
              Bcc     0.0052     2.749     0.981     0.917  0.3698  0.8810  0.2951
 

 ---------------------------------------------------------------------------------

 No NMR shielding tensors so no spin-rotation constants.
 Leave Link  601 at Mon Jan 25 21:13:12 2021, MaxMem=  4026531840 cpu:               7.1 elap:               1.0
 (Enter /opt/ohpc/pub/libs/gaussian/g16-A.03/sandybridge/g16/l9999.exe)

 Test job not archived.
 1\1\GINC-CNODE237\SP\ULC-wHPBE\TZVP\C9H18N3(2+,2)\RDU230\25-Jan-2021\0
 \\#P LC-wHPBE/TZVP iop(3/107=0156200000, 3/108=0156200000) scf=(conver
 =6,fermi,ndamp=35,noincfock,novaracc,vshift=500,xqc)\\H18 C9 N3\\2,2\C
 ,0,-0.610862,0.51088,0.000115\C,0,-0.136805,-0.784324,0.000118\N,0,-1.
 625284,1.358829,0.000149\N,0,-0.364248,-2.086765,0.000256\C,0,-1.43024
 7,2.779535,-0.245115\H,0,-1.514482,3.356239,0.681778\H,0,-0.453085,2.9
 53583,-0.69457\H,0,-2.189123,3.132424,-0.948067\C,0,-2.988895,0.914734
 ,0.244915\H,0,-3.47163,1.599951,0.946347\H,0,-3.570653,0.893667,-0.682
 419\H,0,-2.986873,-0.077069,0.695991\C,0,0.701968,-3.045906,0.244739\H
 ,0,1.009895,-3.54009,-0.68252\H,0,1.56061,-2.548225,0.694397\H,0,0.350
 361,-3.805818,0.947208\C,0,-1.692259,-2.627901,-0.244928\H,0,-1.618712
 ,-3.461412,-0.948079\H,0,-2.149477,-2.989362,0.681963\H,0,-2.331523,-1
 .86843,-0.69401\C,0,0.747831,0.27381,0.000062\N,0,1.989493,0.728067,-0
 .000089\C,0,2.287295,2.130832,0.245062\H,0,2.563599,2.644356,-0.681638
 \H,0,1.426241,2.626112,0.692731\H,0,3.119706,2.205914,0.949371\C,0,3.1
 22069,-0.151615,-0.24503\H,0,3.807758,0.3292,-0.947323\H,0,3.663007,-0
 .367678,0.682084\H,0,2.784087,-1.084552,-0.695089\\Version=EM64L-G16Re
 vA.03\State=2-A\HF=-517.0018433\S2=0.762316\S2-1=0.\S2A=0.750099\RMSD=
 6.259e-07\Dipole=0.00003,-0.0000113,-0.0002462\Quadrupole=12.1978363,1
 2.1919557,-24.389792,0.0001993,0.0010748,0.0006491\PG=C01 [X(C9H18N3)]
 \\@


 A MAN BEGINS CUTTING HIS WISDOM TEETH THE 1ST
 TIME HE BITES OFF MORE THAN HE CAN CHEW.
 Job cpu time:       0 days  0 hours 30 minutes 19.9 seconds.
 Elapsed time:       0 days  0 hours  3 minutes 50.5 seconds.
 File lengths (MBytes):  RWF=    112 Int=      0 D2E=      0 Chk=     16 Scr=      8
 Normal termination of Gaussian 16 at Mon Jan 25 21:13:12 2021.
