 Entering Gaussian System, Link 0=g16
 Input=mol_NN_cp_frag_tune_n9.gjf
 Output=mol_NN_cp_frag_tune_n9.log
 Initial command:
 /opt/ohpc/pub/libs/gaussian/g16-A.03/sandybridge/g16/l1.exe "/mnt/gpfs2_4m/scratch/rdu230/ondemand/projects/init_structures/gaussian/wtuning/mol_NN_cp_frag/tuning_mol_NN_cp_frag_ocycle0/Gau-18325.inp" -scrdir="/mnt/gpfs2_4m/scratch/rdu230/ondemand/projects/init_structures/gaussian/wtuning/mol_NN_cp_frag/tuning_mol_NN_cp_frag_ocycle0/"
 Entering Link 1 = /opt/ohpc/pub/libs/gaussian/g16-A.03/sandybridge/g16/l1.exe PID=     18326.
  
 Copyright (c) 1988,1990,1992,1993,1995,1998,2003,2009,2016,
            Gaussian, Inc.  All Rights Reserved.
  
 This is part of the Gaussian(R) 16 program.  It is based on
 the Gaussian(R) 09 system (copyright 2009, Gaussian, Inc.),
 the Gaussian(R) 03 system (copyright 2003, Gaussian, Inc.),
 the Gaussian(R) 98 system (copyright 1998, Gaussian, Inc.),
 the Gaussian(R) 94 system (copyright 1995, Gaussian, Inc.),
 the Gaussian 92(TM) system (copyright 1992, Gaussian, Inc.),
 the Gaussian 90(TM) system (copyright 1990, Gaussian, Inc.),
 the Gaussian 88(TM) system (copyright 1988, Gaussian, Inc.),
 the Gaussian 86(TM) system (copyright 1986, Carnegie Mellon
 University), and the Gaussian 82(TM) system (copyright 1983,
 Carnegie Mellon University). Gaussian is a federally registered
 trademark of Gaussian, Inc.
  
 This software contains proprietary and confidential information,
 including trade secrets, belonging to Gaussian, Inc.
  
 This software is provided under written license and may be
 used, copied, transmitted, or stored only in accord with that
 written license.
  
 The following legend is applicable only to US Government
 contracts under FAR:
  
                    RESTRICTED RIGHTS LEGEND
  
 Use, reproduction and disclosure by the US Government is
 subject to restrictions as set forth in subparagraphs (a)
 and (c) of the Commercial Computer Software - Restricted
 Rights clause in FAR 52.227-19.
  
 Gaussian, Inc.
 340 Quinnipiac St., Bldg. 40, Wallingford CT 06492
  
  
 ---------------------------------------------------------------
 Warning -- This program may not be used in any manner that
 competes with the business of Gaussian, Inc. or will provide
 assistance to any competitor of Gaussian, Inc.  The licensee
 of this program is prohibited from giving any competitor of
 Gaussian, Inc. access to this program.  By using this program,
 the user acknowledges that Gaussian, Inc. is engaged in the
 business of creating and licensing software in the field of
 computational chemistry and represents and warrants to the
 licensee that it is not a competitor of Gaussian, Inc. and that
 it will not use this program in any manner prohibited above.
 ---------------------------------------------------------------
  

 Cite this work as:
 Gaussian 16, Revision A.03,
 M. J. Frisch, G. W. Trucks, H. B. Schlegel, G. E. Scuseria, 
 M. A. Robb, J. R. Cheeseman, G. Scalmani, V. Barone, 
 G. A. Petersson, H. Nakatsuji, X. Li, M. Caricato, A. V. Marenich, 
 J. Bloino, B. G. Janesko, R. Gomperts, B. Mennucci, H. P. Hratchian, 
 J. V. Ortiz, A. F. Izmaylov, J. L. Sonnenberg, D. Williams-Young, 
 F. Ding, F. Lipparini, F. Egidi, J. Goings, B. Peng, A. Petrone, 
 T. Henderson, D. Ranasinghe, V. G. Zakrzewski, J. Gao, N. Rega, 
 G. Zheng, W. Liang, M. Hada, M. Ehara, K. Toyota, R. Fukuda, 
 J. Hasegawa, M. Ishida, T. Nakajima, Y. Honda, O. Kitao, H. Nakai, 
 T. Vreven, K. Throssell, J. A. Montgomery, Jr., J. E. Peralta, 
 F. Ogliaro, M. J. Bearpark, J. J. Heyd, E. N. Brothers, K. N. Kudin, 
 V. N. Staroverov, T. A. Keith, R. Kobayashi, J. Normand, 
 K. Raghavachari, A. P. Rendell, J. C. Burant, S. S. Iyengar, 
 J. Tomasi, M. Cossi, J. M. Millam, M. Klene, C. Adamo, R. Cammi, 
 J. W. Ochterski, R. L. Martin, K. Morokuma, O. Farkas, 
 J. B. Foresman, and D. J. Fox, Gaussian, Inc., Wallingford CT, 2016.
 
 ******************************************
 Gaussian 16:  EM64L-G16RevA.03 25-Dec-2016
                25-Jan-2021 
 ******************************************
 %mem=30GB
 %nproc=8
 Will use up to    8 processors via shared memory.
 ----------------------------------------------------------------------
 #P LC-wHPBE/TZVP iop(3/107=0247700000, 3/108=0247700000) scf=(conver=6
 ,fermi,ndamp=35,noincfock,novaracc,vshift=500,xqc)
 ----------------------------------------------------------------------
 1/38=1,172=1/1;
 2/12=2,17=6,18=5,40=1/2;
 3/5=19,7=101,11=2,25=1,30=1,74=-71,107=247700000,108=247700000/1,2,3;
 4//1;
 5/5=100002,6=6,8=3,10=500,13=1,18=-1,22=13,38=1,93=35/2,8;
 6/7=2,8=2,9=2,10=2,28=1/1;
 99/5=1,9=1/99;
 Leave Link    1 at Mon Jan 25 21:49:51 2021, MaxMem=  4026531840 cpu:               1.4 elap:               0.2
 (Enter /opt/ohpc/pub/libs/gaussian/g16-A.03/sandybridge/g16/l101.exe)
 ---------
 H18 C9 N3
 ---------
 Symbolic Z-matrix:
 Charge =  1 Multiplicity = 1
 C                    -0.61086   0.51088   0.00012 
 C                    -0.13681  -0.78432   0.00012 
 N                    -1.62528   1.35883   0.00015 
 N                    -0.36425  -2.08677   0.00026 
 C                    -1.43025   2.77954  -0.24512 
 H                    -1.51448   3.35624   0.68178 
 H                    -0.45309   2.95358  -0.69457 
 H                    -2.18912   3.13242  -0.94807 
 C                    -2.9889    0.91473   0.24492 
 H                    -3.47163   1.59995   0.94635 
 H                    -3.57065   0.89367  -0.68242 
 H                    -2.98687  -0.07707   0.69599 
 C                     0.70197  -3.04591   0.24474 
 H                     1.00989  -3.54009  -0.68252 
 H                     1.56061  -2.54823   0.6944 
 H                     0.35036  -3.80582   0.94721 
 C                    -1.69226  -2.6279   -0.24493 
 H                    -1.61871  -3.46141  -0.94808 
 H                    -2.14948  -2.98936   0.68196 
 H                    -2.33152  -1.86843  -0.69401 
 C                     0.74783   0.27381   0.00006 
 N                     1.98949   0.72807  -0.00009 
 C                     2.2873    2.13083   0.24506 
 H                     2.5636    2.64436  -0.68164 
 H                     1.42624   2.62611   0.69273 
 H                     3.11971   2.20591   0.94937 
 C                     3.12207  -0.15162  -0.24503 
 H                     3.80776   0.3292   -0.94732 
 H                     3.66301  -0.36768   0.68208 
 H                     2.78409  -1.08455  -0.69509 
 
 ITRead=  0  0  0  0  0  0  0  0  0  0  0  0  0  0  0  0  0  0  0  0
 ITRead=  0  0  0  0  0  0  0  0  0  0
 MicOpt= -1 -1 -1 -1 -1 -1 -1 -1 -1 -1 -1 -1 -1 -1 -1 -1 -1 -1 -1 -1
 MicOpt= -1 -1 -1 -1 -1 -1 -1 -1 -1 -1
 NAtoms=     30 NQM=       30 NQMF=       0 NMMI=      0 NMMIF=      0
                NMic=       0 NMicF=      0.
                    Isotopes and Nuclear Properties:
 (Nuclear quadrupole moments (NQMom) in fm**2, nuclear magnetic moments (NMagM)
  in nuclear magnetons)

  Atom         1           2           3           4           5           6           7           8           9          10
 IAtWgt=          12          12          14          14          12           1           1           1          12           1
 AtmWgt=  12.0000000  12.0000000  14.0030740  14.0030740  12.0000000   1.0078250   1.0078250   1.0078250  12.0000000   1.0078250
 NucSpn=           0           0           2           2           0           1           1           1           0           1
 AtZEff=  -0.0000000  -0.0000000  -0.0000000  -0.0000000  -0.0000000  -0.0000000  -0.0000000  -0.0000000  -0.0000000  -0.0000000
 NQMom=    0.0000000   0.0000000   2.0440000   2.0440000   0.0000000   0.0000000   0.0000000   0.0000000   0.0000000   0.0000000
 NMagM=    0.0000000   0.0000000   0.4037610   0.4037610   0.0000000   2.7928460   2.7928460   2.7928460   0.0000000   2.7928460
 AtZNuc=   6.0000000   6.0000000   7.0000000   7.0000000   6.0000000   1.0000000   1.0000000   1.0000000   6.0000000   1.0000000

  Atom        11          12          13          14          15          16          17          18          19          20
 IAtWgt=           1           1          12           1           1           1          12           1           1           1
 AtmWgt=   1.0078250   1.0078250  12.0000000   1.0078250   1.0078250   1.0078250  12.0000000   1.0078250   1.0078250   1.0078250
 NucSpn=           1           1           0           1           1           1           0           1           1           1
 AtZEff=  -0.0000000  -0.0000000  -0.0000000  -0.0000000  -0.0000000  -0.0000000  -0.0000000  -0.0000000  -0.0000000  -0.0000000
 NQMom=    0.0000000   0.0000000   0.0000000   0.0000000   0.0000000   0.0000000   0.0000000   0.0000000   0.0000000   0.0000000
 NMagM=    2.7928460   2.7928460   0.0000000   2.7928460   2.7928460   2.7928460   0.0000000   2.7928460   2.7928460   2.7928460
 AtZNuc=   1.0000000   1.0000000   6.0000000   1.0000000   1.0000000   1.0000000   6.0000000   1.0000000   1.0000000   1.0000000

  Atom        21          22          23          24          25          26          27          28          29          30
 IAtWgt=          12          14          12           1           1           1          12           1           1           1
 AtmWgt=  12.0000000  14.0030740  12.0000000   1.0078250   1.0078250   1.0078250  12.0000000   1.0078250   1.0078250   1.0078250
 NucSpn=           0           2           0           1           1           1           0           1           1           1
 AtZEff=  -0.0000000  -0.0000000  -0.0000000  -0.0000000  -0.0000000  -0.0000000  -0.0000000  -0.0000000  -0.0000000  -0.0000000
 NQMom=    0.0000000   2.0440000   0.0000000   0.0000000   0.0000000   0.0000000   0.0000000   0.0000000   0.0000000   0.0000000
 NMagM=    0.0000000   0.4037610   0.0000000   2.7928460   2.7928460   2.7928460   0.0000000   2.7928460   2.7928460   2.7928460
 AtZNuc=   6.0000000   7.0000000   6.0000000   1.0000000   1.0000000   1.0000000   6.0000000   1.0000000   1.0000000   1.0000000
 Leave Link  101 at Mon Jan 25 21:49:51 2021, MaxMem=  4026531840 cpu:               0.7 elap:               0.1
 (Enter /opt/ohpc/pub/libs/gaussian/g16-A.03/sandybridge/g16/l202.exe)
                          Input orientation:                          
 ---------------------------------------------------------------------
 Center     Atomic      Atomic             Coordinates (Angstroms)
 Number     Number       Type             X           Y           Z
 ---------------------------------------------------------------------
      1          6           0       -0.610862    0.510880    0.000115
      2          6           0       -0.136805   -0.784324    0.000118
      3          7           0       -1.625284    1.358829    0.000149
      4          7           0       -0.364248   -2.086765    0.000256
      5          6           0       -1.430247    2.779535   -0.245115
      6          1           0       -1.514482    3.356239    0.681778
      7          1           0       -0.453085    2.953583   -0.694570
      8          1           0       -2.189123    3.132424   -0.948067
      9          6           0       -2.988895    0.914734    0.244915
     10          1           0       -3.471630    1.599951    0.946347
     11          1           0       -3.570653    0.893667   -0.682419
     12          1           0       -2.986873   -0.077069    0.695991
     13          6           0        0.701968   -3.045906    0.244739
     14          1           0        1.009895   -3.540090   -0.682520
     15          1           0        1.560610   -2.548225    0.694397
     16          1           0        0.350361   -3.805818    0.947208
     17          6           0       -1.692259   -2.627901   -0.244928
     18          1           0       -1.618712   -3.461412   -0.948079
     19          1           0       -2.149477   -2.989362    0.681963
     20          1           0       -2.331523   -1.868430   -0.694010
     21          6           0        0.747831    0.273810    0.000062
     22          7           0        1.989493    0.728067   -0.000089
     23          6           0        2.287295    2.130832    0.245062
     24          1           0        2.563599    2.644356   -0.681638
     25          1           0        1.426241    2.626112    0.692731
     26          1           0        3.119706    2.205914    0.949371
     27          6           0        3.122069   -0.151615   -0.245030
     28          1           0        3.807758    0.329200   -0.947323
     29          1           0        3.663007   -0.367678    0.682084
     30          1           0        2.784087   -1.084552   -0.695089
 ---------------------------------------------------------------------
                    Distance matrix (angstroms):
                    1          2          3          4          5
     1  C    0.000000
     2  C    1.379233   0.000000
     3  N    1.322146   2.609344   0.000000
     4  N    2.609325   1.322151   3.669105   0.000000
     5  C    2.424526   3.799240   1.454854   4.987729   0.000000
     6  H    3.062231   4.416663   2.113419   5.604802   1.094903
     7  H    2.544460   3.815046   2.097600   5.088790   1.089563
     8  H    3.203506   4.522386   2.088700   5.609761   1.092962
     9  C    2.424472   3.328835   1.454842   3.994700   2.479314
    10  H    3.203970   4.207276   2.088642   4.913531   2.641637
    11  H    3.061493   3.882373   2.113465   4.430582   2.886013
    12  H    2.544672   3.017836   2.097600   3.376550   3.386584
    13  C    3.799222   2.424486   4.987747   1.454833   6.222705
    14  H    4.416243   3.061889   5.604428   2.113435   6.788466
    15  H    3.815159   2.544521   5.088907   2.097583   6.181661
    16  H    4.522700   3.203707   5.610140   2.088666   6.925249
    17  C    3.328875   2.424512   3.994817   1.454839   5.413780
    18  H    4.206416   3.203424   4.912627   2.088701   6.283239
    19  H    3.883806   3.062344   4.432428   2.113397   5.887014
    20  H    3.017217   2.544383   3.375771   2.097581   4.755774
    21  C    1.379220   1.379213   2.609395   2.609413   3.329083
    22  N    2.609409   2.609304   3.669397   3.669247   3.995395
    23  C    3.329198   3.799262   3.995528   4.987859   3.805418
    24  H    3.885062   4.417332   4.434428   5.605424   4.019904
    25  H    3.017236   3.814957   3.376016   5.088868   3.010418
    26  H    4.206110   4.521888   4.912586   5.609443   4.738978
    27  C    3.799180   3.328765   4.987877   3.994919   5.414353
    28  H    4.522704   4.206799   5.610328   4.913291   5.825284
    29  H    4.416209   3.882943   5.604631   4.431584   6.058538
    30  H    3.815022   3.017459   5.088813   3.376381   5.735351
                    6          7          8          9         10
     6  H    0.000000
     7  H    1.784105   0.000000
     8  H    1.778097   1.763540   0.000000
     9  C    2.885427   3.386720   2.642156   0.000000
    10  H    2.642910   3.692769   2.753562   1.092960   0.000000
    11  H    3.486134   3.736661   2.644093   1.094913   1.778067
    12  H    3.735738   4.187910   3.693261   1.089563   1.763537
    13  C    6.789044   6.181449   6.924807   5.413792   6.284518
    14  H    7.469481   6.656444   7.404504   6.057715   7.011226
    15  H    6.657255   6.021137   7.001997   5.735165   6.526430
    16  H    7.405616   7.002176   7.627598   5.824728   6.620420
    17  C    6.058079   5.735041   5.824313   3.804139   4.739201
    18  H    7.010539   6.524961   6.618462   4.738279   5.713103
    19  H    6.377293   6.331760   6.335206   4.017163   4.783281
    20  H    5.464203   5.174972   5.009328   3.009937   4.002534
    21  C    3.883834   3.017598   4.206700   3.799192   4.523047
    22  N    4.432840   3.376598   4.913291   4.987907   5.610685
    23  C    4.018190   3.011563   4.739732   5.414524   5.825706
    24  H    4.358489   3.032519   4.785140   5.888997   6.337595
    25  H    3.030026   2.358751   4.002428   4.756341   5.010635
    26  H    4.782317   4.003297   5.713349   6.283185   6.619132
    27  C    5.887412   4.756687   6.283943   6.222622   6.925621
    28  H    6.335864   5.010594   6.619717   6.925227   7.628256
    29  H    6.377613   5.465177   7.011101   6.788483   7.405703
    30  H    6.331989   5.175502   6.525312   6.181268   7.002490
                   11         12         13         14         15
    11  H    0.000000
    12  H    1.784136   0.000000
    13  C    5.885163   4.756592   0.000000
    14  H    6.374921   5.465067   1.094918   0.000000
    15  H    6.330253   5.175540   1.089562   1.784092   0.000000
    16  H    6.333656   5.010370   1.092958   1.778092   1.763563
    17  C    4.015122   3.011328   2.479279   2.885344   3.386715
    18  H    4.779891   4.003574   2.642161   2.643158   3.693200
    19  H    4.354216   3.030327   2.885325   3.485218   3.736242
    20  H    3.027335   2.360204   3.386704   3.736262   4.187899
    21  C    4.415802   3.815160   3.329037   3.883353   3.017713
    22  N    5.604304   5.088909   3.995064   4.431985   3.376439
    23  C    6.058577   5.735417   5.414045   5.886554   4.756422
    24  H    6.379182   6.333384   6.058294   6.376627   5.464646
    25  H    5.464554   5.175208   5.735596   6.331406   5.176082
    26  H    7.010395   6.524302   5.824395   6.334898   5.009753
    27  C    6.787964   6.181444   3.804429   4.016770   3.010717
    28  H    7.404711   7.002324   4.739017   4.782213   4.003060
    29  H    7.468514   6.656242   4.016457   4.354922   3.029028
    30  H    6.655541   6.021138   3.010881   3.029452   2.360065
                   16         17         18         19         20
    16  H    0.000000
    17  C    2.642153   0.000000
    18  H    2.754628   1.092964   0.000000
    19  H    2.643132   1.094911   1.778083   0.000000
    20  H    3.693179   1.089555   1.763588   1.784077   0.000000
    21  C    4.206951   3.799209   4.522320   4.416749   3.814885
    22  N    4.913272   4.987762   5.609774   5.604957   5.088664
    23  C    6.283990   6.222739   6.924859   6.789125   6.181378
    24  H    7.011156   6.789679   7.405614   7.470694   6.657898
    25  H    6.526255   6.181335   7.001567   6.657283   6.020361
    26  H    6.618927   6.924386   7.627025   7.404505   7.001205
    27  C    4.738881   5.413848   5.824435   6.058162   5.735042
    28  H    5.713249   6.283947   6.619314   7.011139   6.525681
    29  H    4.781707   5.886156   6.334444   6.376378   6.330899
    30  H    4.003180   4.756285   5.009801   5.464854   5.175319
                   21         22         23         24         25
    21  C    0.000000
    22  N    1.322147   0.000000
    23  C    2.424563   1.454831   0.000000
    24  H    3.062877   2.113355   1.094908   0.000000
    25  H    2.544279   2.097577   1.089552   1.784042   0.000000
    26  H    3.203124   2.088753   1.092976   1.778110   1.763591
    27  C    2.424472   1.454842   2.479234   2.884436   3.386886
    28  H    3.203710   2.088644   2.641868   2.641679   3.692859
    29  H    3.061848   2.113449   2.885502   3.484363   3.737113
    30  H    2.544547   2.097616   3.386647   3.735445   4.187937
                   26         27         28         29         30
    26  H    0.000000
    27  C    2.642828   0.000000
    28  H    2.755525   1.092963   0.000000
    29  H    2.643860   1.094914   1.778077   0.000000
    30  H    3.693786   1.089567   1.763581   1.784100   0.000000
 Stoichiometry    C9H18N3(1+)
 Framework group  C1[X(C9H18N3)]
 Deg. of freedom    84
 Full point group                 C1      NOp   1
 Largest Abelian subgroup         C1      NOp   1
 Largest concise Abelian subgroup C1      NOp   1
                         Standard orientation:                         
 ---------------------------------------------------------------------
 Center     Atomic      Atomic             Coordinates (Angstroms)
 Number     Number       Type             X           Y           Z
 ---------------------------------------------------------------------
      1          6           0       -0.610975   -0.510745   -0.000115
      2          6           0       -0.136632    0.784354   -0.000118
      3          7           0       -1.625585   -1.358470   -0.000149
      4          7           0       -0.363786    2.086845   -0.000256
      5          6           0       -1.430862   -2.779219    0.245115
      6          1           0       -1.515224   -3.355904   -0.681778
      7          1           0       -0.453738   -2.953483    0.694570
      8          1           0       -2.189816   -3.131940    0.948067
      9          6           0       -2.989097   -0.914073   -0.244915
     10          1           0       -3.471984   -1.599183   -0.946347
     11          1           0       -3.570851   -0.892877    0.682419
     12          1           0       -2.986856    0.077730   -0.695991
     13          6           0        0.702642    3.045751   -0.244739
     14          1           0        1.010678    3.539867    0.682520
     15          1           0        1.561174    2.547880   -0.694397
     16          1           0        0.351203    3.805740   -0.947208
     17          6           0       -1.691678    2.628275    0.244928
     18          1           0       -1.617946    3.461770    0.948079
     19          1           0       -2.148816    2.989837   -0.681963
     20          1           0       -2.331110    1.868946    0.694010
     21          6           0        0.747770   -0.273975   -0.000062
     22          7           0        1.989332   -0.728507    0.000089
     23          6           0        2.286824   -2.131338   -0.245062
     24          1           0        2.563014   -2.644923    0.681638
     25          1           0        1.425660   -2.626427   -0.692731
     26          1           0        3.119218   -2.206604   -0.949371
     27          6           0        3.122102    0.150924    0.245030
     28          1           0        3.807685   -0.330042    0.947323
     29          1           0        3.663088    0.366868   -0.682084
     30          1           0        2.784327    1.083936    0.695089
 ---------------------------------------------------------------------
 Rotational constants (GHZ):           0.8639071           0.8637633           0.4436577
 Leave Link  202 at Mon Jan 25 21:49:51 2021, MaxMem=  4026531840 cpu:               0.2 elap:               0.0
 (Enter /opt/ohpc/pub/libs/gaussian/g16-A.03/sandybridge/g16/l301.exe)
 Standard basis: TZVP (5D, 7F)
 Ernie: Thresh=  0.10000D-02 Tol=  0.10000D-05 Strict=F.
 There are   348 symmetry adapted cartesian basis functions of A   symmetry.
 There are   336 symmetry adapted basis functions of A   symmetry.
   336 basis functions,   564 primitive gaussians,   348 cartesian basis functions
    46 alpha electrons       46 beta electrons
       nuclear repulsion energy       740.7629817128 Hartrees.
 IExCor=33909 DFT=T Ex+Corr=LC-wHPBE ExCW=0 ScaHFX=  1.000000
 ScaDFX=  1.000000  1.000000  1.000000  1.000000 ScalE2=  1.000000  1.000000
 IRadAn=      5 IRanWt=     -1 IRanGd=            0 ICorTp=0 IEmpDi=  4
 HFx  wShort=  0.000000 wLong=  0.247700 cFull=  0.000000 cShort=  0.000000 cLong=  1.000000
 DFx  wShort=  0.000000 wLong=  0.247700 cFull=  0.000000 cShort=  1.000000 cLong=  0.000000
 NAtoms=   30 NActive=   30 NUniq=   30 SFac= 1.00D+00 NAtFMM=   60 NAOKFM=F Big=F
 Integral buffers will be    131072 words long.
 Raffenetti 2 integral format.
 Two-electron integral symmetry is turned on.
 Leave Link  301 at Mon Jan 25 21:49:51 2021, MaxMem=  4026531840 cpu:               0.6 elap:               0.1
 (Enter /opt/ohpc/pub/libs/gaussian/g16-A.03/sandybridge/g16/l302.exe)
 NPDir=0 NMtPBC=     1 NCelOv=     1 NCel=       1 NClECP=     1 NCelD=      1
         NCelK=      1 NCelE2=     1 NClLst=     1 CellRange=     0.0.
 One-electron integrals computed using PRISM.
 One-electron integral symmetry used in STVInt
 NBasis=   336 RedAO= T EigKep=  2.74D-05  NBF=   336
 NBsUse=   336 1.00D-06 EigRej= -1.00D+00 NBFU=   336
 Precomputing XC quadrature grid using
 IXCGrd= 4 IRadAn=           5 IRanWt=          -1 IRanGd=           0 AccXCQ= 0.00D+00.
 Generated NRdTot=       0 NPtTot=           0 NUsed=           0 NTot=          32
 NSgBfM=   343   343   343   343   343 MxSgAt=    30 MxSgA2=    30.
 Leave Link  302 at Mon Jan 25 21:49:53 2021, MaxMem=  4026531840 cpu:              12.2 elap:               2.5
 (Enter /opt/ohpc/pub/libs/gaussian/g16-A.03/sandybridge/g16/l303.exe)
 DipDrv:  MaxL=1.
 Leave Link  303 at Mon Jan 25 21:49:53 2021, MaxMem=  4026531840 cpu:               0.7 elap:               0.1
 (Enter /opt/ohpc/pub/libs/gaussian/g16-A.03/sandybridge/g16/l401.exe)
 ExpMin= 9.52D-02 ExpMax= 1.97D+04 ExpMxC= 6.73D+02 IAcc=3 IRadAn=         5 AccDes= 0.00D+00
 Harris functional with IExCor=33909 and IRadAn=       5 diagonalized for initial guess.
 HarFok:  IExCor=33909 AccDes= 0.00D+00 IRadAn=         5 IDoV= 1 UseB2=F ITyADJ=14
 ICtDFT=  3500011 ScaDFX=  1.000000  1.000000  1.000000  1.000000
 FoFCou: FMM=F IPFlag=           0 FMFlag=      100000 FMFlg1=           0
         NFxFlg=           0 DoJE=T BraDBF=F KetDBF=T FulRan=T
         wScrn=  0.000000 ICntrl=       500 IOpCl=  0 I1Cent=   200000004 NGrid=           0
         NMat0=    1 NMatS0=      1 NMatT0=    0 NMatD0=    1 NMtDS0=    0 NMtDT0=    0
 Petite list used in FoFCou.
 Harris En= -505.550582397450    
 JPrj=0 DoOrth=F DoCkMO=F.
 Leave Link  401 at Mon Jan 25 21:49:57 2021, MaxMem=  4026531840 cpu:              24.3 elap:               3.1
 (Enter /opt/ohpc/pub/libs/gaussian/g16-A.03/sandybridge/g16/l502.exe)
 Integral symmetry usage will be decided dynamically.
 Closed shell SCF:
 Using DIIS extrapolation, IDIIS=    10.
 NGot=  4026531840 LenX=  4026283142 LenY=  4026161597
 Requested convergence on RMS density matrix=1.00D-06 within  32 cycles.
 Requested convergence on MAX density matrix=1.00D-04.
 Requested convergence on             energy=1.00D-04.
 Virtual orbitals will be shifted by   0.500 hartree.
 No special actions if energy rises.
 Dynamic level shift is on during FON iterations.

 Cycle   1  Pass 1  IDiag  1:
 FoFJK:  IHMeth= 1 ICntrl=       0 DoSepK=T KAlg= 0 I1Cent=           0 FoldK=F
 IRaf=         1 NMat=       1 IRICut=       1 DoRegI=T DoRafI=F ISym2E= 0 IDoP0=0 IntGTp=1.
 FoFCou: FMM=F IPFlag=           0 FMFlag=      100000 FMFlg1=           0
         NFxFlg=           0 DoJE=T BraDBF=F KetDBF=F FulRan=T
         wScrn=  0.000000 ICntrl=       500 IOpCl=  0 I1Cent=           0 NGrid=           0
         NMat0=    1 NMatS0=      1 NMatT0=    0 NMatD0=    1 NMtDS0=    0 NMtDT0=    0
 Symmetry not used in FoFCou.
 E= -517.322525042108    
 DIIS: error= 3.23D-02 at cycle   1 NSaved=   1.
 NSaved= 1 IEnMin= 1 EnMin= -517.322525042108     IErMin= 1 ErrMin= 3.23D-02
 ErrMax= 3.23D-02  0.00D+00 EMaxC= 1.00D+00 BMatC= 1.80D-01 BMatP= 1.80D-01
 IDIUse=1 WtCom= 1.00D+00 WtEn= 0.00D+00
 Coeff-Com:  0.100D+01
 Coeff:      0.100D+01
 Gap=     0.366 Goal=   None    Shift=    0.500
 T= 1540. Gap= 0.855 NK=0 IS=   47 IE=  336 IFin=   46
          NO(<0.9)=   0  NV(>0.1)=   0     46.00e < EF      0.00e >EF  Err=0.0D+00
 GapD=    0.366 DampG=1.000 DampE=0.500 DampFc=0.5000 IDamp=-1.
 Damping current iteration by 5.00D-01
 RMSDP=1.64D-03 MaxDP=3.70D-02              OVMax= 5.10D-02

 Cycle   2  Pass 1  IDiag  1:
 E= -517.419807480336     Delta-E=       -0.097282438228 Rises=F Damp=T
 DIIS: error= 1.36D-02 at cycle   2 NSaved=   2.
 NSaved= 2 IEnMin= 2 EnMin= -517.419807480336     IErMin= 2 ErrMin= 1.36D-02
 ErrMax= 1.36D-02  0.00D+00 EMaxC= 1.00D+00 BMatC= 3.34D-02 BMatP= 1.80D-01
 IDIUse=1 WtCom= 1.00D+00 WtEn= 0.00D+00
 Coeff-Com: -0.645D+00 0.165D+01
 Coeff:     -0.645D+00 0.165D+01
 Gap=     0.362 Goal=   None    Shift=    0.500
 T= 1411. Gap= 0.860 NK=0 IS=   47 IE=  336 IFin=   46
          NO(<0.9)=   0  NV(>0.1)=   0     46.00e < EF      0.00e >EF  Err=0.0D+00
 GapD=    0.362 DampG=1.000 DampE=0.500 DampFc=0.5000 IDamp=-1.
 Damping current iteration by 5.00D-01
 RMSDP=1.13D-03 MaxDP=2.22D-02 DE=-9.73D-02 OVMax= 7.71D-03

 Cycle   3  Pass 1  IDiag  1:
 E= -517.454531549050     Delta-E=       -0.034724068714 Rises=F Damp=T
 DIIS: error= 6.03D-03 at cycle   3 NSaved=   3.
 NSaved= 3 IEnMin= 3 EnMin= -517.454531549050     IErMin= 3 ErrMin= 6.03D-03
 ErrMax= 6.03D-03  0.00D+00 EMaxC= 1.00D+00 BMatC= 7.04D-03 BMatP= 3.34D-02
 IDIUse=1 WtCom= 1.00D+00 WtEn= 0.00D+00
 Coeff-Com:  0.112D+00-0.118D+01 0.207D+01
 Coeff:      0.112D+00-0.118D+01 0.207D+01
 Gap=     0.367 Goal=   None    Shift=    0.500
 T= 1165. Gap= 0.865 NK=0 IS=   47 IE=  336 IFin=   46
          NO(<0.9)=   0  NV(>0.1)=   0     46.00e < EF      0.00e >EF  Err=0.0D+00
 GapD=    0.367 DampG=1.000 DampE=1.000 DampFc=1.0000 IDamp=-1.
 RMSDP=7.18D-04 MaxDP=1.56D-02 DE=-3.47D-02 OVMax= 2.59D-03

 Cycle   4  Pass 1  IDiag  1:
 E= -517.483868707942     Delta-E=       -0.029337158892 Rises=F Damp=F
 DIIS: error= 4.52D-04 at cycle   4 NSaved=   4.
 NSaved= 4 IEnMin= 4 EnMin= -517.483868707942     IErMin= 4 ErrMin= 4.52D-04
 ErrMax= 4.52D-04  0.00D+00 EMaxC= 1.00D+00 BMatC= 1.14D-04 BMatP= 7.04D-03
 IDIUse=1 WtCom= 1.00D+00 WtEn= 0.00D+00
 Coeff-Com:  0.689D-01-0.183D+00 0.116D+00 0.998D+00
 Coeff:      0.689D-01-0.183D+00 0.116D+00 0.998D+00
 Gap=     0.364 Goal=   None    Shift=    0.500
 RMSDP=7.54D-05 MaxDP=1.55D-03 DE=-2.93D-02 OVMax= 1.26D-03

 Cycle   5  Pass 1  IDiag  1:
 E= -517.483995063223     Delta-E=       -0.000126355281 Rises=F Damp=F
 DIIS: error= 1.90D-04 at cycle   5 NSaved=   5.
 NSaved= 5 IEnMin= 5 EnMin= -517.483995063223     IErMin= 5 ErrMin= 1.90D-04
 ErrMax= 1.90D-04  0.00D+00 EMaxC= 1.00D+00 BMatC= 1.42D-05 BMatP= 1.14D-04
 IDIUse=1 WtCom= 1.00D+00 WtEn= 0.00D+00
 Coeff-Com:  0.984D-03 0.111D+00-0.237D+00-0.262D-01 0.115D+01
 Coeff:      0.984D-03 0.111D+00-0.237D+00-0.262D-01 0.115D+01
 Gap=     0.365 Goal=   None    Shift=    0.500
 RMSDP=3.95D-05 MaxDP=1.29D-03 DE=-1.26D-04 OVMax= 1.01D-03

 Cycle   6  Pass 1  IDiag  1:
 E= -517.484022574685     Delta-E=       -0.000027511461 Rises=F Damp=F
 DIIS: error= 9.56D-05 at cycle   6 NSaved=   6.
 NSaved= 6 IEnMin= 6 EnMin= -517.484022574685     IErMin= 6 ErrMin= 9.56D-05
 ErrMax= 9.56D-05  0.00D+00 EMaxC= 1.00D+00 BMatC= 2.63D-06 BMatP= 1.42D-05
 IDIUse=1 WtCom= 1.00D+00 WtEn= 0.00D+00
 Coeff-Com: -0.120D-01 0.533D-01-0.667D-01-0.187D+00-0.798D-02 0.122D+01
 Coeff:     -0.120D-01 0.533D-01-0.667D-01-0.187D+00-0.798D-02 0.122D+01
 Gap=     0.364 Goal=   None    Shift=    0.500
 RMSDP=2.13D-05 MaxDP=6.68D-04 DE=-2.75D-05 OVMax= 4.51D-04

 Cycle   7  Pass 1  IDiag  1:
 E= -517.484029351305     Delta-E=       -0.000006776620 Rises=F Damp=F
 DIIS: error= 4.52D-05 at cycle   7 NSaved=   7.
 NSaved= 7 IEnMin= 7 EnMin= -517.484029351305     IErMin= 7 ErrMin= 4.52D-05
 ErrMax= 4.52D-05  0.00D+00 EMaxC= 1.00D+00 BMatC= 5.34D-07 BMatP= 2.63D-06
 IDIUse=1 WtCom= 1.00D+00 WtEn= 0.00D+00
 Coeff-Com: -0.164D-02-0.149D-01 0.355D-01-0.218D-01-0.225D+00-0.242D+00
 Coeff-Com:  0.147D+01
 Coeff:     -0.164D-02-0.149D-01 0.355D-01-0.218D-01-0.225D+00-0.242D+00
 Coeff:      0.147D+01
 Gap=     0.364 Goal=   None    Shift=    0.500
 RMSDP=1.04D-05 MaxDP=2.06D-04 DE=-6.78D-06 OVMax= 3.14D-04

 Cycle   8  Pass 1  IDiag  1:
 E= -517.484031079091     Delta-E=       -0.000001727786 Rises=F Damp=F
 DIIS: error= 2.48D-05 at cycle   8 NSaved=   8.
 NSaved= 8 IEnMin= 8 EnMin= -517.484031079091     IErMin= 8 ErrMin= 2.48D-05
 ErrMax= 2.48D-05  0.00D+00 EMaxC= 1.00D+00 BMatC= 1.24D-07 BMatP= 5.34D-07
 IDIUse=1 WtCom= 1.00D+00 WtEn= 0.00D+00
 Coeff-Com:  0.136D-02-0.223D-02-0.446D-03 0.398D-01-0.180D-01-0.113D+00
 Coeff-Com: -0.816D+00 0.191D+01
 Coeff:      0.136D-02-0.223D-02-0.446D-03 0.398D-01-0.180D-01-0.113D+00
 Coeff:     -0.816D+00 0.191D+01
 Gap=     0.364 Goal=   None    Shift=    0.500
 RMSDP=4.71D-06 MaxDP=9.30D-05 DE=-1.73D-06 OVMax= 1.86D-04

 Cycle   9  Pass 1  IDiag  1:
 E= -517.484031513362     Delta-E=       -0.000000434271 Rises=F Damp=F
 DIIS: error= 1.44D-05 at cycle   9 NSaved=   9.
 NSaved= 9 IEnMin= 9 EnMin= -517.484031513362     IErMin= 9 ErrMin= 1.44D-05
 ErrMax= 1.44D-05  0.00D+00 EMaxC= 1.00D+00 BMatC= 3.02D-08 BMatP= 1.24D-07
 IDIUse=1 WtCom= 1.00D+00 WtEn= 0.00D+00
 Coeff-Com: -0.684D-03 0.327D-02-0.408D-02-0.103D-01 0.174D-01 0.877D-01
 Coeff-Com:  0.105D+00-0.170D+01 0.250D+01
 Coeff:     -0.684D-03 0.327D-02-0.408D-02-0.103D-01 0.174D-01 0.877D-01
 Coeff:      0.105D+00-0.170D+01 0.250D+01
 Gap=     0.364 Goal=   None    Shift=    0.500
 RMSDP=2.09D-06 MaxDP=4.07D-05 DE=-4.34D-07 OVMax= 1.05D-04

 Cycle  10  Pass 1  IDiag  1:
 E= -517.484031621824     Delta-E=       -0.000000108462 Rises=F Damp=F
 DIIS: error= 8.72D-06 at cycle  10 NSaved=  10.
 NSaved=10 IEnMin=10 EnMin= -517.484031621824     IErMin=10 ErrMin= 8.72D-06
 ErrMax= 8.72D-06  0.00D+00 EMaxC= 1.00D+00 BMatC= 8.13D-09 BMatP= 3.02D-08
 IDIUse=1 WtCom= 1.00D+00 WtEn= 0.00D+00
 Coeff-Com: -0.203D-03-0.596D-08 0.756D-03-0.424D-02-0.921D-02 0.444D-01
 Coeff-Com:  0.825D-01-0.182D+00-0.117D+01 0.224D+01
 Coeff:     -0.203D-03-0.596D-08 0.756D-03-0.424D-02-0.921D-02 0.444D-01
 Coeff:      0.825D-01-0.182D+00-0.117D+01 0.224D+01
 Gap=     0.364 Goal=   None    Shift=    0.500
 RMSDP=9.87D-07 MaxDP=2.10D-05 DE=-1.08D-07 OVMax= 5.78D-05

 SCF Done:  E(RLC-wHPBE) =  -517.484031622     A.U. after   10 cycles
            NFock= 10  Conv=0.99D-06     -V/T= 2.0050
 KE= 5.149151401602D+02 PE=-2.668562471914D+03 EE= 8.954003184189D+02
 Leave Link  502 at Mon Jan 25 21:51:59 2021, MaxMem=  4026531840 cpu:             971.1 elap:             122.7
 (Enter /opt/ohpc/pub/libs/gaussian/g16-A.03/sandybridge/g16/l508.exe)
 QCSCF skips out because SCF is already converged.
 Leave Link  508 at Mon Jan 25 21:51:59 2021, MaxMem=  4026531840 cpu:               0.1 elap:               0.0
 (Enter /opt/ohpc/pub/libs/gaussian/g16-A.03/sandybridge/g16/l601.exe)
 Copying SCF densities to generalized density rwf, IOpCl= 0 IROHF=0.

 **********************************************************************

            Population analysis using the SCF density.

 **********************************************************************

 Orbital symmetries:
       Occupied  (A) (A) (A) (A) (A) (A) (A) (A) (A) (A) (A) (A)
                 (A) (A) (A) (A) (A) (A) (A) (A) (A) (A) (A) (A)
                 (A) (A) (A) (A) (A) (A) (A) (A) (A) (A) (A) (A)
                 (A) (A) (A) (A) (A) (A) (A) (A) (A) (A)
       Virtual   (A) (A) (A) (A) (A) (A) (A) (A) (A) (A) (A) (A)
                 (A) (A) (A) (A) (A) (A) (A) (A) (A) (A) (A) (A)
                 (A) (A) (A) (A) (A) (A) (A) (A) (A) (A) (A) (A)
                 (A) (A) (A) (A) (A) (A) (A) (A) (A) (A) (A) (A)
                 (A) (A) (A) (A) (A) (A) (A) (A) (A) (A) (A) (A)
                 (A) (A) (A) (A) (A) (A) (A) (A) (A) (A) (A) (A)
                 (A) (A) (A) (A) (A) (A) (A) (A) (A) (A) (A) (A)
                 (A) (A) (A) (A) (A) (A) (A) (A) (A) (A) (A) (A)
                 (A) (A) (A) (A) (A) (A) (A) (A) (A) (A) (A) (A)
                 (A) (A) (A) (A) (A) (A) (A) (A) (A) (A) (A) (A)
                 (A) (A) (A) (A) (A) (A) (A) (A) (A) (A) (A) (A)
                 (A) (A) (A) (A) (A) (A) (A) (A) (A) (A) (A) (A)
                 (A) (A) (A) (A) (A) (A) (A) (A) (A) (A) (A) (A)
                 (A) (A) (A) (A) (A) (A) (A) (A) (A) (A) (A) (A)
                 (A) (A) (A) (A) (A) (A) (A) (A) (A) (A) (A) (A)
                 (A) (A) (A) (A) (A) (A) (A) (A) (A) (A) (A) (A)
                 (A) (A) (A) (A) (A) (A) (A) (A) (A) (A) (A) (A)
                 (A) (A) (A) (A) (A) (A) (A) (A) (A) (A) (A) (A)
                 (A) (A) (A) (A) (A) (A) (A) (A) (A) (A) (A) (A)
                 (A) (A) (A) (A) (A) (A) (A) (A) (A) (A) (A) (A)
                 (A) (A) (A) (A) (A) (A) (A) (A) (A) (A) (A) (A)
                 (A) (A) (A) (A) (A) (A) (A) (A) (A) (A) (A) (A)
                 (A) (A) (A) (A) (A) (A) (A) (A) (A) (A) (A) (A)
                 (A) (A) (A) (A) (A) (A) (A) (A) (A) (A) (A) (A)
                 (A) (A)
 The electronic state is 1-A.
 Alpha  occ. eigenvalues --  -14.31149 -14.31149 -14.31148 -10.24472 -10.24408
 Alpha  occ. eigenvalues --  -10.24407 -10.18722 -10.18721 -10.18721 -10.18719
 Alpha  occ. eigenvalues --  -10.18719 -10.18718  -1.20646  -1.16825  -1.16825
 Alpha  occ. eigenvalues --   -1.11143  -0.94340  -0.94340  -0.93509  -0.92192
 Alpha  occ. eigenvalues --   -0.92192  -0.90308  -0.76593  -0.76593  -0.75841
 Alpha  occ. eigenvalues --   -0.71767  -0.71361  -0.71361  -0.68741  -0.68740
 Alpha  occ. eigenvalues --   -0.68659  -0.63028  -0.63027  -0.62862  -0.62817
 Alpha  occ. eigenvalues --   -0.61675  -0.61673  -0.61428  -0.60285  -0.60284
 Alpha  occ. eigenvalues --   -0.58775  -0.58580  -0.58578  -0.50353  -0.50353
 Alpha  occ. eigenvalues --   -0.40588
 Alpha virt. eigenvalues --   -0.04139  -0.04136  -0.04061  -0.00525  -0.00524
 Alpha virt. eigenvalues --    0.00855   0.02289   0.02290   0.02324   0.04987
 Alpha virt. eigenvalues --    0.05073   0.05073   0.05178   0.05179   0.05438
 Alpha virt. eigenvalues --    0.06475   0.06557   0.06659   0.06661   0.07904
 Alpha virt. eigenvalues --    0.07912   0.08828   0.08834   0.09745   0.12085
 Alpha virt. eigenvalues --    0.12268   0.12275   0.14264   0.14831   0.14833
 Alpha virt. eigenvalues --    0.15826   0.15835   0.18389   0.18958   0.18963
 Alpha virt. eigenvalues --    0.20288   0.21117   0.22346   0.22351   0.25051
 Alpha virt. eigenvalues --    0.25073   0.25399   0.25410   0.26700   0.26703
 Alpha virt. eigenvalues --    0.28609   0.28617   0.29269   0.31499   0.31502
 Alpha virt. eigenvalues --    0.32831   0.33560   0.34418   0.34429   0.36385
 Alpha virt. eigenvalues --    0.37069   0.37078   0.37454   0.38288   0.38289
 Alpha virt. eigenvalues --    0.38761   0.39917   0.39922   0.40288   0.41913
 Alpha virt. eigenvalues --    0.41916   0.42034   0.42629   0.42634   0.44314
 Alpha virt. eigenvalues --    0.44323   0.45930   0.46093   0.46942   0.47478
 Alpha virt. eigenvalues --    0.47486   0.48485   0.48850   0.48853   0.51589
 Alpha virt. eigenvalues --    0.51590   0.56118   0.56120   0.59082   0.59092
 Alpha virt. eigenvalues --    0.59415   0.59423   0.59688   0.61168   0.63791
 Alpha virt. eigenvalues --    0.66735   0.66917   0.66921   0.73879   0.73890
 Alpha virt. eigenvalues --    0.78224   0.78229   0.78390   1.06655   1.06662
 Alpha virt. eigenvalues --    1.06731   1.11206   1.16396   1.16597   1.16611
 Alpha virt. eigenvalues --    1.17467   1.18241   1.21099   1.21104   1.23107
 Alpha virt. eigenvalues --    1.23109   1.25782   1.26166   1.26168   1.26818
 Alpha virt. eigenvalues --    1.27472   1.28289   1.28294   1.29963   1.29966
 Alpha virt. eigenvalues --    1.30732   1.32074   1.32086   1.36820   1.36831
 Alpha virt. eigenvalues --    1.36847   1.37945   1.38525   1.38531   1.38785
 Alpha virt. eigenvalues --    1.40628   1.40643   1.43122   1.43127   1.45547
 Alpha virt. eigenvalues --    1.47324   1.48215   1.48864   1.48872   1.49795
 Alpha virt. eigenvalues --    1.49799   1.50802   1.50807   1.53668   1.56209
 Alpha virt. eigenvalues --    1.56680   1.56692   1.58445   1.58535   1.58540
 Alpha virt. eigenvalues --    1.61403   1.61407   1.63556   1.64255   1.64259
 Alpha virt. eigenvalues --    1.66255   1.68386   1.68389   1.69308   1.70761
 Alpha virt. eigenvalues --    1.70763   1.70990   1.71205   1.71458   1.71465
 Alpha virt. eigenvalues --    1.71981   1.71989   1.72197   1.73660   1.73664
 Alpha virt. eigenvalues --    1.74882   1.74945   1.74955   1.75460   1.79984
 Alpha virt. eigenvalues --    1.79989   1.80659   1.80668   1.82414   1.92581
 Alpha virt. eigenvalues --    1.94782   1.94798   2.01156   2.01330   2.01338
 Alpha virt. eigenvalues --    2.03265   2.05428   2.05434   2.06087   2.08578
 Alpha virt. eigenvalues --    2.08588   2.14039   2.14048   2.15478   2.20262
 Alpha virt. eigenvalues --    2.20415   2.21294   2.21302   2.22356   2.22362
 Alpha virt. eigenvalues --    2.22574   2.24057   2.26098   2.26116   2.27646
 Alpha virt. eigenvalues --    2.27654   2.28118   2.30483   2.31663   2.31671
 Alpha virt. eigenvalues --    2.35777   2.37270   2.37282   2.44729   2.44740
 Alpha virt. eigenvalues --    2.45009   2.45142   2.45148   2.48097   2.48107
 Alpha virt. eigenvalues --    2.48164   2.49521   2.50354   2.50384   2.52690
 Alpha virt. eigenvalues --    2.53231   2.53248   2.53848   2.56376   2.59521
 Alpha virt. eigenvalues --    2.59537   2.59761   2.63060   2.63066   2.64793
 Alpha virt. eigenvalues --    2.67756   2.67765   2.69440   2.70090   2.70112
 Alpha virt. eigenvalues --    2.74857   2.74861   2.76966   2.77901   2.80442
 Alpha virt. eigenvalues --    2.80445   2.88216   2.88218   3.01001   3.01628
 Alpha virt. eigenvalues --    3.01657   3.02243   3.03509   3.03518   3.09651
 Alpha virt. eigenvalues --    3.13894   3.13898   3.20891   3.20902   3.22642
 Alpha virt. eigenvalues --    3.22873   3.22878   3.24095   3.25525   3.25539
 Alpha virt. eigenvalues --    3.26452   3.31198   3.31217   3.32716   3.37218
 Alpha virt. eigenvalues --    3.37225   3.40404   3.45734   3.64047   3.64060
 Alpha virt. eigenvalues --    3.74680   3.89741   3.89749  21.38940  21.67491
 Alpha virt. eigenvalues --   21.69408  21.69415  21.85261  21.85264  21.89471
 Alpha virt. eigenvalues --   22.12298  22.12311  31.52572  31.71755  31.71759
          Condensed to atoms (all electrons):
               1          2          3          4          5          6
     1  C    5.767458   0.093996   0.508763  -0.104774  -0.059269  -0.005664
     2  C    0.093996   5.768004  -0.104714   0.508844  -0.001637  -0.003468
     3  N    0.508763  -0.104714   6.493783  -0.001717   0.215437  -0.039864
     4  N   -0.104774   0.508844  -0.001717   6.493740  -0.000674  -0.000010
     5  C   -0.059269  -0.001637   0.215437  -0.000674   4.935324   0.419470
     6  H   -0.005664  -0.003468  -0.039864  -0.000010   0.419470   0.506272
     7  H   -0.015665   0.007481  -0.029357   0.000014   0.406308  -0.024777
     8  H    0.008639   0.001024  -0.039729   0.000005   0.404860  -0.026949
     9  C   -0.059357  -0.004835   0.215379  -0.001116  -0.047459  -0.008074
    10  H    0.008673  -0.003094  -0.039680  -0.000027   0.000386   0.003830
    11  H   -0.005705   0.007011  -0.039898   0.000057  -0.008053  -0.000597
    12  H   -0.015661   0.000167  -0.029326  -0.001745   0.008304  -0.000067
    13  C   -0.001668  -0.059298  -0.000674   0.215455   0.000002  -0.000003
    14  H   -0.003470  -0.005685  -0.000010  -0.039892  -0.000003  -0.000000
    15  H    0.007470  -0.015645   0.000014  -0.029333   0.000002  -0.000000
    16  H    0.001025   0.008667   0.000005  -0.039708   0.000001   0.000000
    17  C   -0.004920  -0.059299  -0.001121   0.215430   0.000005  -0.000001
    18  H   -0.003105   0.008636  -0.000027  -0.039737  -0.000002  -0.000000
    19  H    0.007001  -0.005653   0.000057  -0.039870   0.000012   0.000001
    20  H    0.000200  -0.015662  -0.001757  -0.029354  -0.000078   0.000002
    21  C    0.094930   0.093856  -0.104698  -0.104750  -0.004968   0.007003
    22  N   -0.104762  -0.104697  -0.001721  -0.001717  -0.001116   0.000057
    23  C   -0.004992  -0.001577  -0.001119  -0.000674   0.001440  -0.000545
    24  H    0.006999  -0.003471   0.000056  -0.000010  -0.000542  -0.000048
    25  H    0.000187   0.007533  -0.001751   0.000014  -0.000447  -0.000518
    26  H   -0.003109   0.001023  -0.000027   0.000005   0.000084   0.000032
    27  C   -0.001706  -0.004810  -0.000674  -0.001117   0.000005   0.000012
    28  H    0.001028  -0.003099   0.000005  -0.000027  -0.000002  -0.000001
    29  H   -0.003470   0.007004  -0.000010   0.000057  -0.000001   0.000001
    30  H    0.007459   0.000152   0.000014  -0.001752   0.000009   0.000000
               7          8          9         10         11         12
     1  C   -0.015665   0.008639  -0.059357   0.008673  -0.005705  -0.015661
     2  C    0.007481   0.001024  -0.004835  -0.003094   0.007011   0.000167
     3  N   -0.029357  -0.039729   0.215379  -0.039680  -0.039898  -0.029326
     4  N    0.000014   0.000005  -0.001116  -0.000027   0.000057  -0.001745
     5  C    0.406308   0.404860  -0.047459   0.000386  -0.008053   0.008304
     6  H   -0.024777  -0.026949  -0.008074   0.003830  -0.000597  -0.000067
     7  H    0.523622  -0.019923   0.008308   0.000296  -0.000069  -0.000482
     8  H   -0.019923   0.506991   0.000402  -0.003278   0.003831   0.000294
     9  C    0.008308   0.000402   4.935568   0.404770   0.419510   0.406370
    10  H    0.000296  -0.003278   0.404770   0.506946  -0.026925  -0.019891
    11  H   -0.000069   0.003831   0.419510  -0.026925   0.506287  -0.024814
    12  H   -0.000482   0.000294   0.406370  -0.019891  -0.024814   0.523460
    13  C    0.000002   0.000001   0.000007  -0.000002   0.000012  -0.000078
    14  H   -0.000000   0.000000  -0.000001  -0.000000   0.000001   0.000002
    15  H   -0.000001   0.000000   0.000009  -0.000000   0.000000   0.000014
    16  H    0.000000  -0.000000  -0.000002   0.000000  -0.000001   0.000004
    17  C    0.000009  -0.000002   0.001499   0.000083  -0.000555  -0.000435
    18  H   -0.000000   0.000000   0.000083  -0.000005   0.000032   0.000325
    19  H    0.000000  -0.000001  -0.000551   0.000032  -0.000048  -0.000513
    20  H    0.000014   0.000004  -0.000419   0.000325  -0.000517  -0.003305
    21  C    0.000183  -0.003100  -0.001727   0.001025  -0.003468   0.007431
    22  N   -0.001740  -0.000027  -0.000674   0.000005  -0.000010   0.000013
    23  C   -0.000461   0.000084   0.000004  -0.000002  -0.000001   0.000009
    24  H   -0.000515   0.000032   0.000012  -0.000001   0.000001   0.000000
    25  H   -0.003273   0.000325  -0.000077   0.000004   0.000002   0.000014
    26  H    0.000325  -0.000005  -0.000002   0.000000  -0.000000  -0.000000
    27  C   -0.000077  -0.000002   0.000002   0.000001  -0.000003   0.000002
    28  H    0.000004   0.000000   0.000001  -0.000000   0.000000   0.000000
    29  H    0.000002  -0.000000  -0.000003   0.000000  -0.000000  -0.000000
    30  H    0.000014  -0.000000   0.000002   0.000000  -0.000000  -0.000001
              13         14         15         16         17         18
     1  C   -0.001668  -0.003470   0.007470   0.001025  -0.004920  -0.003105
     2  C   -0.059298  -0.005685  -0.015645   0.008667  -0.059299   0.008636
     3  N   -0.000674  -0.000010   0.000014   0.000005  -0.001121  -0.000027
     4  N    0.215455  -0.039892  -0.029333  -0.039708   0.215430  -0.039737
     5  C    0.000002  -0.000003   0.000002   0.000001   0.000005  -0.000002
     6  H   -0.000003  -0.000000  -0.000000   0.000000  -0.000001  -0.000000
     7  H    0.000002  -0.000000  -0.000001   0.000000   0.000009  -0.000000
     8  H    0.000001   0.000000   0.000000  -0.000000  -0.000002   0.000000
     9  C    0.000007  -0.000001   0.000009  -0.000002   0.001499   0.000083
    10  H   -0.000002  -0.000000  -0.000000   0.000000   0.000083  -0.000005
    11  H    0.000012   0.000001   0.000000  -0.000001  -0.000555   0.000032
    12  H   -0.000078   0.000002   0.000014   0.000004  -0.000435   0.000325
    13  C    4.935387   0.419520   0.406315   0.404793  -0.047524   0.000407
    14  H    0.419520   0.506295  -0.024786  -0.026952  -0.008068   0.003842
    15  H    0.406315  -0.024786   0.523524  -0.019902   0.008315   0.000294
    16  H    0.404793  -0.026952  -0.019902   0.507019   0.000387  -0.003277
    17  C   -0.047524  -0.008068   0.008315   0.000387   4.935344   0.404854
    18  H    0.000407   0.003842   0.000294  -0.003277   0.404854   0.507057
    19  H   -0.008071  -0.000598  -0.000068   0.003839   0.419460  -0.026963
    20  H    0.008308  -0.000069  -0.000482   0.000295   0.406302  -0.019916
    21  C   -0.004918   0.007001   0.000150  -0.003093  -0.001653   0.001024
    22  N   -0.001119   0.000056  -0.001753  -0.000027  -0.000674   0.000005
    23  C    0.000005   0.000012  -0.000078  -0.000002   0.000002   0.000001
    24  H   -0.000001   0.000001   0.000002  -0.000000  -0.000003   0.000000
    25  H    0.000009   0.000000   0.000014  -0.000000   0.000002   0.000000
    26  H   -0.000002  -0.000001   0.000004   0.000000   0.000001  -0.000000
    27  C    0.001489  -0.000552  -0.000431   0.000083   0.000006  -0.000002
    28  H    0.000084   0.000032   0.000325  -0.000005  -0.000002   0.000000
    29  H   -0.000552  -0.000048  -0.000515   0.000032   0.000012  -0.000001
    30  H   -0.000432  -0.000515  -0.003296   0.000325  -0.000078   0.000004
              19         20         21         22         23         24
     1  C    0.007001   0.000200   0.094930  -0.104762  -0.004992   0.006999
     2  C   -0.005653  -0.015662   0.093856  -0.104697  -0.001577  -0.003471
     3  N    0.000057  -0.001757  -0.104698  -0.001721  -0.001119   0.000056
     4  N   -0.039870  -0.029354  -0.104750  -0.001717  -0.000674  -0.000010
     5  C    0.000012  -0.000078  -0.004968  -0.001116   0.001440  -0.000542
     6  H    0.000001   0.000002   0.007003   0.000057  -0.000545  -0.000048
     7  H    0.000000   0.000014   0.000183  -0.001740  -0.000461  -0.000515
     8  H   -0.000001   0.000004  -0.003100  -0.000027   0.000084   0.000032
     9  C   -0.000551  -0.000419  -0.001727  -0.000674   0.000004   0.000012
    10  H    0.000032   0.000325   0.001025   0.000005  -0.000002  -0.000001
    11  H   -0.000048  -0.000517  -0.003468  -0.000010  -0.000001   0.000001
    12  H   -0.000513  -0.003305   0.007431   0.000013   0.000009   0.000000
    13  C   -0.008071   0.008308  -0.004918  -0.001119   0.000005  -0.000001
    14  H   -0.000598  -0.000069   0.007001   0.000056   0.000012   0.000001
    15  H   -0.000068  -0.000482   0.000150  -0.001753  -0.000078   0.000002
    16  H    0.003839   0.000295  -0.003093  -0.000027  -0.000002  -0.000000
    17  C    0.419460   0.406302  -0.001653  -0.000674   0.000002  -0.000003
    18  H   -0.026963  -0.019916   0.001024   0.000005   0.000001   0.000000
    19  H    0.506287  -0.024765  -0.003462  -0.000010  -0.000003  -0.000000
    20  H   -0.024765   0.523543   0.007471   0.000014   0.000002  -0.000000
    21  C   -0.003462   0.007471   5.767457   0.508838  -0.059237  -0.005632
    22  N   -0.000010   0.000014   0.508838   6.493626   0.215515  -0.039858
    23  C   -0.000003   0.000002  -0.059237   0.215515   4.935104   0.419463
    24  H   -0.000000  -0.000000  -0.005632  -0.039858   0.419463   0.506299
    25  H   -0.000000  -0.000001  -0.015651  -0.029375   0.406224  -0.024731
    26  H    0.000000   0.000000   0.008616  -0.039759   0.404902  -0.026995
    27  C   -0.000001   0.000009  -0.059374   0.215440  -0.047580  -0.008096
    28  H   -0.000000  -0.000000   0.008676  -0.039714   0.000386   0.003849
    29  H    0.000001   0.000000  -0.005692  -0.039876  -0.008055  -0.000600
    30  H    0.000002   0.000014  -0.015654  -0.029319   0.008314  -0.000067
              25         26         27         28         29         30
     1  C    0.000187  -0.003109  -0.001706   0.001028  -0.003470   0.007459
     2  C    0.007533   0.001023  -0.004810  -0.003099   0.007004   0.000152
     3  N   -0.001751  -0.000027  -0.000674   0.000005  -0.000010   0.000014
     4  N    0.000014   0.000005  -0.001117  -0.000027   0.000057  -0.001752
     5  C   -0.000447   0.000084   0.000005  -0.000002  -0.000001   0.000009
     6  H   -0.000518   0.000032   0.000012  -0.000001   0.000001   0.000000
     7  H   -0.003273   0.000325  -0.000077   0.000004   0.000002   0.000014
     8  H    0.000325  -0.000005  -0.000002   0.000000  -0.000000  -0.000000
     9  C   -0.000077  -0.000002   0.000002   0.000001  -0.000003   0.000002
    10  H    0.000004   0.000000   0.000001  -0.000000   0.000000   0.000000
    11  H    0.000002  -0.000000  -0.000003   0.000000  -0.000000  -0.000000
    12  H    0.000014  -0.000000   0.000002   0.000000  -0.000000  -0.000001
    13  C    0.000009  -0.000002   0.001489   0.000084  -0.000552  -0.000432
    14  H    0.000000  -0.000001  -0.000552   0.000032  -0.000048  -0.000515
    15  H    0.000014   0.000004  -0.000431   0.000325  -0.000515  -0.003296
    16  H   -0.000000   0.000000   0.000083  -0.000005   0.000032   0.000325
    17  C    0.000002   0.000001   0.000006  -0.000002   0.000012  -0.000078
    18  H    0.000000  -0.000000  -0.000002   0.000000  -0.000001   0.000004
    19  H   -0.000000   0.000000  -0.000001  -0.000000   0.000001   0.000002
    20  H   -0.000001   0.000000   0.000009  -0.000000   0.000000   0.000014
    21  C   -0.015651   0.008616  -0.059374   0.008676  -0.005692  -0.015654
    22  N   -0.029375  -0.039759   0.215440  -0.039714  -0.039876  -0.029319
    23  C    0.406224   0.404902  -0.047580   0.000386  -0.008055   0.008314
    24  H   -0.024731  -0.026995  -0.008096   0.003849  -0.000600  -0.000067
    25  H    0.523669  -0.019936   0.008321   0.000297  -0.000071  -0.000482
    26  H   -0.019936   0.507110   0.000410  -0.003277   0.003848   0.000292
    27  C    0.008321   0.000410   4.935442   0.404782   0.419505   0.406319
    28  H    0.000297  -0.003277   0.404782   0.507051  -0.026950  -0.019901
    29  H   -0.000071   0.003848   0.419505  -0.026950   0.506291  -0.024791
    30  H   -0.000482   0.000292   0.406319  -0.019901  -0.024791   0.523514
 Mulliken charges:
               1
     1  C   -0.116531
     2  C   -0.116752
     3  N    0.004362
     4  N    0.004382
     5  C   -0.267398
     6  H    0.173903
     7  H    0.149759
     8  H    0.166526
     9  C   -0.267627
    10  H    0.166529
    11  H    0.173916
    12  H    0.149910
    13  C   -0.267454
    14  H    0.173886
    15  H    0.149839
    16  H    0.166494
    17  C   -0.267375
    18  H    0.166472
    19  H    0.173884
    20  H    0.149821
    21  C   -0.116586
    22  N    0.004378
    23  C   -0.267141
    24  H    0.173853
    25  H    0.149697
    26  H    0.166462
    27  C   -0.267402
    28  H    0.166459
    29  H    0.173880
    30  H    0.149853
 Sum of Mulliken charges =   1.00000
 Mulliken charges with hydrogens summed into heavy atoms:
               1
     1  C   -0.116531
     2  C   -0.116752
     3  N    0.004362
     4  N    0.004382
     5  C    0.222790
     9  C    0.222728
    13  C    0.222766
    17  C    0.222802
    21  C   -0.116586
    22  N    0.004378
    23  C    0.222871
    27  C    0.222790
 Electronic spatial extent (au):  <R**2>=           2594.5618
 Charge=              1.0000 electrons
 Dipole moment (field-independent basis, Debye):
    X=             -0.0004    Y=             -0.0003    Z=              0.0007  Tot=              0.0008
 Quadrupole moment (field-independent basis, Debye-Ang):
   XX=            -44.2058   YY=            -44.2097   ZZ=            -71.9241
   XY=              0.0015   XZ=              0.0002   YZ=              0.0002
 Traceless Quadrupole moment (field-independent basis, Debye-Ang):
   XX=              9.2407   YY=              9.2369   ZZ=            -18.4776
   XY=              0.0015   XZ=              0.0002   YZ=              0.0002
 Octapole moment (field-independent basis, Debye-Ang**2):
  XXX=              8.3586  YYY=             14.6822  ZZZ=              0.0014  XYY=             -8.3705
  XXY=            -14.7005  XXZ=              0.0011  XZZ=              0.0026  YZZ=              0.0044
  YYZ=              0.0016  XYZ=             -0.0001
 Hexadecapole moment (field-independent basis, Debye-Ang**3):
 XXXX=          -1391.7362 YYYY=          -1391.4782 ZZZZ=           -133.1399 XXXY=              0.0135
 XXXZ=              4.6090 YYYX=              0.0195 YYYZ=             -2.6066 ZZZX=             -0.0154
 ZZZY=              0.0023 XXYY=           -463.8473 XXZZ=           -277.1008 YYZZ=           -277.0756
 XXYZ=              2.5952 YYXZ=             -4.5545 ZZXY=             -0.0091
 N-N= 7.407629817128D+02 E-N=-2.668562153809D+03  KE= 5.149151401602D+02
 No NMR shielding tensors so no spin-rotation constants.
 Leave Link  601 at Mon Jan 25 21:52:00 2021, MaxMem=  4026531840 cpu:               5.1 elap:               0.9
 (Enter /opt/ohpc/pub/libs/gaussian/g16-A.03/sandybridge/g16/l9999.exe)

 Test job not archived.
 1\1\GINC-CNODE237\SP\RLC-wHPBE\TZVP\C9H18N3(1+)\RDU230\25-Jan-2021\0\\
 #P LC-wHPBE/TZVP iop(3/107=0247700000, 3/108=0247700000) scf=(conver=6
 ,fermi,ndamp=35,noincfock,novaracc,vshift=500,xqc)\\H18 C9 N3\\1,1\C,0
 ,-0.610862,0.51088,0.000115\C,0,-0.136805,-0.784324,0.000118\N,0,-1.62
 5284,1.358829,0.000149\N,0,-0.364248,-2.086765,0.000256\C,0,-1.430247,
 2.779535,-0.245115\H,0,-1.514482,3.356239,0.681778\H,0,-0.453085,2.953
 583,-0.69457\H,0,-2.189123,3.132424,-0.948067\C,0,-2.988895,0.914734,0
 .244915\H,0,-3.47163,1.599951,0.946347\H,0,-3.570653,0.893667,-0.68241
 9\H,0,-2.986873,-0.077069,0.695991\C,0,0.701968,-3.045906,0.244739\H,0
 ,1.009895,-3.54009,-0.68252\H,0,1.56061,-2.548225,0.694397\H,0,0.35036
 1,-3.805818,0.947208\C,0,-1.692259,-2.627901,-0.244928\H,0,-1.618712,-
 3.461412,-0.948079\H,0,-2.149477,-2.989362,0.681963\H,0,-2.331523,-1.8
 6843,-0.69401\C,0,0.747831,0.27381,0.000062\N,0,1.989493,0.728067,-0.0
 00089\C,0,2.287295,2.130832,0.245062\H,0,2.563599,2.644356,-0.681638\H
 ,0,1.426241,2.626112,0.692731\H,0,3.119706,2.205914,0.949371\C,0,3.122
 069,-0.151615,-0.24503\H,0,3.807758,0.3292,-0.947323\H,0,3.663007,-0.3
 67678,0.682084\H,0,2.784087,-1.084552,-0.695089\\Version=EM64L-G16RevA
 .03\State=1-A\HF=-517.4840316\RMSD=9.868e-07\Dipole=-0.000155,0.000102
 9,-0.0002625\Quadrupole=6.8702431,6.8673863,-13.7376294,-0.0011078,-0.
 0001271,0.0001771\PG=C01 [X(C9H18N3)]\\@


 Money is a good servant but a bad master.
                        -- French Proverb
 Job cpu time:       0 days  0 hours 16 minutes 57.1 seconds.
 Elapsed time:       0 days  0 hours  2 minutes  9.9 seconds.
 File lengths (MBytes):  RWF=     92 Int=      0 D2E=      0 Chk=     12 Scr=      8
 Normal termination of Gaussian 16 at Mon Jan 25 21:52:00 2021.
