 Entering Gaussian System, Link 0=g16
 Input=mol_NN_cp_frag_tune_c6.gjf
 Output=mol_NN_cp_frag_tune_c6.log
 Initial command:
 /opt/ohpc/pub/libs/gaussian/g16-A.03/sandybridge/g16/l1.exe "/mnt/gpfs2_4m/scratch/rdu230/ondemand/projects/init_structures/gaussian/wtuning/mol_NN_cp_frag/tuning_mol_NN_cp_frag_ocycle0/Gau-17073.inp" -scrdir="/mnt/gpfs2_4m/scratch/rdu230/ondemand/projects/init_structures/gaussian/wtuning/mol_NN_cp_frag/tuning_mol_NN_cp_frag_ocycle0/"
 Entering Link 1 = /opt/ohpc/pub/libs/gaussian/g16-A.03/sandybridge/g16/l1.exe PID=     17074.
  
 Copyright (c) 1988,1990,1992,1993,1995,1998,2003,2009,2016,
            Gaussian, Inc.  All Rights Reserved.
  
 This is part of the Gaussian(R) 16 program.  It is based on
 the Gaussian(R) 09 system (copyright 2009, Gaussian, Inc.),
 the Gaussian(R) 03 system (copyright 2003, Gaussian, Inc.),
 the Gaussian(R) 98 system (copyright 1998, Gaussian, Inc.),
 the Gaussian(R) 94 system (copyright 1995, Gaussian, Inc.),
 the Gaussian 92(TM) system (copyright 1992, Gaussian, Inc.),
 the Gaussian 90(TM) system (copyright 1990, Gaussian, Inc.),
 the Gaussian 88(TM) system (copyright 1988, Gaussian, Inc.),
 the Gaussian 86(TM) system (copyright 1986, Carnegie Mellon
 University), and the Gaussian 82(TM) system (copyright 1983,
 Carnegie Mellon University). Gaussian is a federally registered
 trademark of Gaussian, Inc.
  
 This software contains proprietary and confidential information,
 including trade secrets, belonging to Gaussian, Inc.
  
 This software is provided under written license and may be
 used, copied, transmitted, or stored only in accord with that
 written license.
  
 The following legend is applicable only to US Government
 contracts under FAR:
  
                    RESTRICTED RIGHTS LEGEND
  
 Use, reproduction and disclosure by the US Government is
 subject to restrictions as set forth in subparagraphs (a)
 and (c) of the Commercial Computer Software - Restricted
 Rights clause in FAR 52.227-19.
  
 Gaussian, Inc.
 340 Quinnipiac St., Bldg. 40, Wallingford CT 06492
  
  
 ---------------------------------------------------------------
 Warning -- This program may not be used in any manner that
 competes with the business of Gaussian, Inc. or will provide
 assistance to any competitor of Gaussian, Inc.  The licensee
 of this program is prohibited from giving any competitor of
 Gaussian, Inc. access to this program.  By using this program,
 the user acknowledges that Gaussian, Inc. is engaged in the
 business of creating and licensing software in the field of
 computational chemistry and represents and warrants to the
 licensee that it is not a competitor of Gaussian, Inc. and that
 it will not use this program in any manner prohibited above.
 ---------------------------------------------------------------
  

 Cite this work as:
 Gaussian 16, Revision A.03,
 M. J. Frisch, G. W. Trucks, H. B. Schlegel, G. E. Scuseria, 
 M. A. Robb, J. R. Cheeseman, G. Scalmani, V. Barone, 
 G. A. Petersson, H. Nakatsuji, X. Li, M. Caricato, A. V. Marenich, 
 J. Bloino, B. G. Janesko, R. Gomperts, B. Mennucci, H. P. Hratchian, 
 J. V. Ortiz, A. F. Izmaylov, J. L. Sonnenberg, D. Williams-Young, 
 F. Ding, F. Lipparini, F. Egidi, J. Goings, B. Peng, A. Petrone, 
 T. Henderson, D. Ranasinghe, V. G. Zakrzewski, J. Gao, N. Rega, 
 G. Zheng, W. Liang, M. Hada, M. Ehara, K. Toyota, R. Fukuda, 
 J. Hasegawa, M. Ishida, T. Nakajima, Y. Honda, O. Kitao, H. Nakai, 
 T. Vreven, K. Throssell, J. A. Montgomery, Jr., J. E. Peralta, 
 F. Ogliaro, M. J. Bearpark, J. J. Heyd, E. N. Brothers, K. N. Kudin, 
 V. N. Staroverov, T. A. Keith, R. Kobayashi, J. Normand, 
 K. Raghavachari, A. P. Rendell, J. C. Burant, S. S. Iyengar, 
 J. Tomasi, M. Cossi, J. M. Millam, M. Klene, C. Adamo, R. Cammi, 
 J. W. Ochterski, R. L. Martin, K. Morokuma, O. Farkas, 
 J. B. Foresman, and D. J. Fox, Gaussian, Inc., Wallingford CT, 2016.
 
 ******************************************
 Gaussian 16:  EM64L-G16RevA.03 25-Dec-2016
                25-Jan-2021 
 ******************************************
 %mem=30GB
 %nproc=8
 Will use up to    8 processors via shared memory.
 ----------------------------------------------------------------------
 #P LC-wHPBE/TZVP iop(3/107=0236900000, 3/108=0236900000) scf=(conver=6
 ,fermi,ndamp=35,noincfock,novaracc,vshift=500,xqc)
 ----------------------------------------------------------------------
 1/38=1,172=1/1;
 2/12=2,17=6,18=5,40=1/2;
 3/5=19,7=101,11=2,25=1,30=1,74=-71,107=236900000,108=236900000/1,2,3;
 4//1;
 5/5=100002,6=6,8=3,10=500,13=1,18=-1,22=13,38=1,93=35/2,8;
 6/7=2,8=2,9=2,10=2,28=1/1;
 99/5=1,9=1/99;
 Leave Link    1 at Mon Jan 25 21:33:55 2021, MaxMem=  4026531840 cpu:               2.6 elap:               0.5
 (Enter /opt/ohpc/pub/libs/gaussian/g16-A.03/sandybridge/g16/l101.exe)
 ---------
 H18 C9 N3
 ---------
 Symbolic Z-matrix:
 Charge =  2 Multiplicity = 2
 C                    -0.61086   0.51088   0.00012 
 C                    -0.13681  -0.78432   0.00012 
 N                    -1.62528   1.35883   0.00015 
 N                    -0.36425  -2.08677   0.00026 
 C                    -1.43025   2.77954  -0.24512 
 H                    -1.51448   3.35624   0.68178 
 H                    -0.45309   2.95358  -0.69457 
 H                    -2.18912   3.13242  -0.94807 
 C                    -2.9889    0.91473   0.24492 
 H                    -3.47163   1.59995   0.94635 
 H                    -3.57065   0.89367  -0.68242 
 H                    -2.98687  -0.07707   0.69599 
 C                     0.70197  -3.04591   0.24474 
 H                     1.00989  -3.54009  -0.68252 
 H                     1.56061  -2.54823   0.6944 
 H                     0.35036  -3.80582   0.94721 
 C                    -1.69226  -2.6279   -0.24493 
 H                    -1.61871  -3.46141  -0.94808 
 H                    -2.14948  -2.98936   0.68196 
 H                    -2.33152  -1.86843  -0.69401 
 C                     0.74783   0.27381   0.00006 
 N                     1.98949   0.72807  -0.00009 
 C                     2.2873    2.13083   0.24506 
 H                     2.5636    2.64436  -0.68164 
 H                     1.42624   2.62611   0.69273 
 H                     3.11971   2.20591   0.94937 
 C                     3.12207  -0.15162  -0.24503 
 H                     3.80776   0.3292   -0.94732 
 H                     3.66301  -0.36768   0.68208 
 H                     2.78409  -1.08455  -0.69509 
 
 ITRead=  0  0  0  0  0  0  0  0  0  0  0  0  0  0  0  0  0  0  0  0
 ITRead=  0  0  0  0  0  0  0  0  0  0
 MicOpt= -1 -1 -1 -1 -1 -1 -1 -1 -1 -1 -1 -1 -1 -1 -1 -1 -1 -1 -1 -1
 MicOpt= -1 -1 -1 -1 -1 -1 -1 -1 -1 -1
 NAtoms=     30 NQM=       30 NQMF=       0 NMMI=      0 NMMIF=      0
                NMic=       0 NMicF=      0.
                    Isotopes and Nuclear Properties:
 (Nuclear quadrupole moments (NQMom) in fm**2, nuclear magnetic moments (NMagM)
  in nuclear magnetons)

  Atom         1           2           3           4           5           6           7           8           9          10
 IAtWgt=          12          12          14          14          12           1           1           1          12           1
 AtmWgt=  12.0000000  12.0000000  14.0030740  14.0030740  12.0000000   1.0078250   1.0078250   1.0078250  12.0000000   1.0078250
 NucSpn=           0           0           2           2           0           1           1           1           0           1
 AtZEff=  -0.0000000  -0.0000000  -0.0000000  -0.0000000  -0.0000000  -0.0000000  -0.0000000  -0.0000000  -0.0000000  -0.0000000
 NQMom=    0.0000000   0.0000000   2.0440000   2.0440000   0.0000000   0.0000000   0.0000000   0.0000000   0.0000000   0.0000000
 NMagM=    0.0000000   0.0000000   0.4037610   0.4037610   0.0000000   2.7928460   2.7928460   2.7928460   0.0000000   2.7928460
 AtZNuc=   6.0000000   6.0000000   7.0000000   7.0000000   6.0000000   1.0000000   1.0000000   1.0000000   6.0000000   1.0000000

  Atom        11          12          13          14          15          16          17          18          19          20
 IAtWgt=           1           1          12           1           1           1          12           1           1           1
 AtmWgt=   1.0078250   1.0078250  12.0000000   1.0078250   1.0078250   1.0078250  12.0000000   1.0078250   1.0078250   1.0078250
 NucSpn=           1           1           0           1           1           1           0           1           1           1
 AtZEff=  -0.0000000  -0.0000000  -0.0000000  -0.0000000  -0.0000000  -0.0000000  -0.0000000  -0.0000000  -0.0000000  -0.0000000
 NQMom=    0.0000000   0.0000000   0.0000000   0.0000000   0.0000000   0.0000000   0.0000000   0.0000000   0.0000000   0.0000000
 NMagM=    2.7928460   2.7928460   0.0000000   2.7928460   2.7928460   2.7928460   0.0000000   2.7928460   2.7928460   2.7928460
 AtZNuc=   1.0000000   1.0000000   6.0000000   1.0000000   1.0000000   1.0000000   6.0000000   1.0000000   1.0000000   1.0000000

  Atom        21          22          23          24          25          26          27          28          29          30
 IAtWgt=          12          14          12           1           1           1          12           1           1           1
 AtmWgt=  12.0000000  14.0030740  12.0000000   1.0078250   1.0078250   1.0078250  12.0000000   1.0078250   1.0078250   1.0078250
 NucSpn=           0           2           0           1           1           1           0           1           1           1
 AtZEff=  -0.0000000  -0.0000000  -0.0000000  -0.0000000  -0.0000000  -0.0000000  -0.0000000  -0.0000000  -0.0000000  -0.0000000
 NQMom=    0.0000000   2.0440000   0.0000000   0.0000000   0.0000000   0.0000000   0.0000000   0.0000000   0.0000000   0.0000000
 NMagM=    0.0000000   0.4037610   0.0000000   2.7928460   2.7928460   2.7928460   0.0000000   2.7928460   2.7928460   2.7928460
 AtZNuc=   6.0000000   7.0000000   6.0000000   1.0000000   1.0000000   1.0000000   6.0000000   1.0000000   1.0000000   1.0000000
 Leave Link  101 at Mon Jan 25 21:33:55 2021, MaxMem=  4026531840 cpu:               0.7 elap:               0.1
 (Enter /opt/ohpc/pub/libs/gaussian/g16-A.03/sandybridge/g16/l202.exe)
                          Input orientation:                          
 ---------------------------------------------------------------------
 Center     Atomic      Atomic             Coordinates (Angstroms)
 Number     Number       Type             X           Y           Z
 ---------------------------------------------------------------------
      1          6           0       -0.610862    0.510880    0.000115
      2          6           0       -0.136805   -0.784324    0.000118
      3          7           0       -1.625284    1.358829    0.000149
      4          7           0       -0.364248   -2.086765    0.000256
      5          6           0       -1.430247    2.779535   -0.245115
      6          1           0       -1.514482    3.356239    0.681778
      7          1           0       -0.453085    2.953583   -0.694570
      8          1           0       -2.189123    3.132424   -0.948067
      9          6           0       -2.988895    0.914734    0.244915
     10          1           0       -3.471630    1.599951    0.946347
     11          1           0       -3.570653    0.893667   -0.682419
     12          1           0       -2.986873   -0.077069    0.695991
     13          6           0        0.701968   -3.045906    0.244739
     14          1           0        1.009895   -3.540090   -0.682520
     15          1           0        1.560610   -2.548225    0.694397
     16          1           0        0.350361   -3.805818    0.947208
     17          6           0       -1.692259   -2.627901   -0.244928
     18          1           0       -1.618712   -3.461412   -0.948079
     19          1           0       -2.149477   -2.989362    0.681963
     20          1           0       -2.331523   -1.868430   -0.694010
     21          6           0        0.747831    0.273810    0.000062
     22          7           0        1.989493    0.728067   -0.000089
     23          6           0        2.287295    2.130832    0.245062
     24          1           0        2.563599    2.644356   -0.681638
     25          1           0        1.426241    2.626112    0.692731
     26          1           0        3.119706    2.205914    0.949371
     27          6           0        3.122069   -0.151615   -0.245030
     28          1           0        3.807758    0.329200   -0.947323
     29          1           0        3.663007   -0.367678    0.682084
     30          1           0        2.784087   -1.084552   -0.695089
 ---------------------------------------------------------------------
                    Distance matrix (angstroms):
                    1          2          3          4          5
     1  C    0.000000
     2  C    1.379233   0.000000
     3  N    1.322146   2.609344   0.000000
     4  N    2.609325   1.322151   3.669105   0.000000
     5  C    2.424526   3.799240   1.454854   4.987729   0.000000
     6  H    3.062231   4.416663   2.113419   5.604802   1.094903
     7  H    2.544460   3.815046   2.097600   5.088790   1.089563
     8  H    3.203506   4.522386   2.088700   5.609761   1.092962
     9  C    2.424472   3.328835   1.454842   3.994700   2.479314
    10  H    3.203970   4.207276   2.088642   4.913531   2.641637
    11  H    3.061493   3.882373   2.113465   4.430582   2.886013
    12  H    2.544672   3.017836   2.097600   3.376550   3.386584
    13  C    3.799222   2.424486   4.987747   1.454833   6.222705
    14  H    4.416243   3.061889   5.604428   2.113435   6.788466
    15  H    3.815159   2.544521   5.088907   2.097583   6.181661
    16  H    4.522700   3.203707   5.610140   2.088666   6.925249
    17  C    3.328875   2.424512   3.994817   1.454839   5.413780
    18  H    4.206416   3.203424   4.912627   2.088701   6.283239
    19  H    3.883806   3.062344   4.432428   2.113397   5.887014
    20  H    3.017217   2.544383   3.375771   2.097581   4.755774
    21  C    1.379220   1.379213   2.609395   2.609413   3.329083
    22  N    2.609409   2.609304   3.669397   3.669247   3.995395
    23  C    3.329198   3.799262   3.995528   4.987859   3.805418
    24  H    3.885062   4.417332   4.434428   5.605424   4.019904
    25  H    3.017236   3.814957   3.376016   5.088868   3.010418
    26  H    4.206110   4.521888   4.912586   5.609443   4.738978
    27  C    3.799180   3.328765   4.987877   3.994919   5.414353
    28  H    4.522704   4.206799   5.610328   4.913291   5.825284
    29  H    4.416209   3.882943   5.604631   4.431584   6.058538
    30  H    3.815022   3.017459   5.088813   3.376381   5.735351
                    6          7          8          9         10
     6  H    0.000000
     7  H    1.784105   0.000000
     8  H    1.778097   1.763540   0.000000
     9  C    2.885427   3.386720   2.642156   0.000000
    10  H    2.642910   3.692769   2.753562   1.092960   0.000000
    11  H    3.486134   3.736661   2.644093   1.094913   1.778067
    12  H    3.735738   4.187910   3.693261   1.089563   1.763537
    13  C    6.789044   6.181449   6.924807   5.413792   6.284518
    14  H    7.469481   6.656444   7.404504   6.057715   7.011226
    15  H    6.657255   6.021137   7.001997   5.735165   6.526430
    16  H    7.405616   7.002176   7.627598   5.824728   6.620420
    17  C    6.058079   5.735041   5.824313   3.804139   4.739201
    18  H    7.010539   6.524961   6.618462   4.738279   5.713103
    19  H    6.377293   6.331760   6.335206   4.017163   4.783281
    20  H    5.464203   5.174972   5.009328   3.009937   4.002534
    21  C    3.883834   3.017598   4.206700   3.799192   4.523047
    22  N    4.432840   3.376598   4.913291   4.987907   5.610685
    23  C    4.018190   3.011563   4.739732   5.414524   5.825706
    24  H    4.358489   3.032519   4.785140   5.888997   6.337595
    25  H    3.030026   2.358751   4.002428   4.756341   5.010635
    26  H    4.782317   4.003297   5.713349   6.283185   6.619132
    27  C    5.887412   4.756687   6.283943   6.222622   6.925621
    28  H    6.335864   5.010594   6.619717   6.925227   7.628256
    29  H    6.377613   5.465177   7.011101   6.788483   7.405703
    30  H    6.331989   5.175502   6.525312   6.181268   7.002490
                   11         12         13         14         15
    11  H    0.000000
    12  H    1.784136   0.000000
    13  C    5.885163   4.756592   0.000000
    14  H    6.374921   5.465067   1.094918   0.000000
    15  H    6.330253   5.175540   1.089562   1.784092   0.000000
    16  H    6.333656   5.010370   1.092958   1.778092   1.763563
    17  C    4.015122   3.011328   2.479279   2.885344   3.386715
    18  H    4.779891   4.003574   2.642161   2.643158   3.693200
    19  H    4.354216   3.030327   2.885325   3.485218   3.736242
    20  H    3.027335   2.360204   3.386704   3.736262   4.187899
    21  C    4.415802   3.815160   3.329037   3.883353   3.017713
    22  N    5.604304   5.088909   3.995064   4.431985   3.376439
    23  C    6.058577   5.735417   5.414045   5.886554   4.756422
    24  H    6.379182   6.333384   6.058294   6.376627   5.464646
    25  H    5.464554   5.175208   5.735596   6.331406   5.176082
    26  H    7.010395   6.524302   5.824395   6.334898   5.009753
    27  C    6.787964   6.181444   3.804429   4.016770   3.010717
    28  H    7.404711   7.002324   4.739017   4.782213   4.003060
    29  H    7.468514   6.656242   4.016457   4.354922   3.029028
    30  H    6.655541   6.021138   3.010881   3.029452   2.360065
                   16         17         18         19         20
    16  H    0.000000
    17  C    2.642153   0.000000
    18  H    2.754628   1.092964   0.000000
    19  H    2.643132   1.094911   1.778083   0.000000
    20  H    3.693179   1.089555   1.763588   1.784077   0.000000
    21  C    4.206951   3.799209   4.522320   4.416749   3.814885
    22  N    4.913272   4.987762   5.609774   5.604957   5.088664
    23  C    6.283990   6.222739   6.924859   6.789125   6.181378
    24  H    7.011156   6.789679   7.405614   7.470694   6.657898
    25  H    6.526255   6.181335   7.001567   6.657283   6.020361
    26  H    6.618927   6.924386   7.627025   7.404505   7.001205
    27  C    4.738881   5.413848   5.824435   6.058162   5.735042
    28  H    5.713249   6.283947   6.619314   7.011139   6.525681
    29  H    4.781707   5.886156   6.334444   6.376378   6.330899
    30  H    4.003180   4.756285   5.009801   5.464854   5.175319
                   21         22         23         24         25
    21  C    0.000000
    22  N    1.322147   0.000000
    23  C    2.424563   1.454831   0.000000
    24  H    3.062877   2.113355   1.094908   0.000000
    25  H    2.544279   2.097577   1.089552   1.784042   0.000000
    26  H    3.203124   2.088753   1.092976   1.778110   1.763591
    27  C    2.424472   1.454842   2.479234   2.884436   3.386886
    28  H    3.203710   2.088644   2.641868   2.641679   3.692859
    29  H    3.061848   2.113449   2.885502   3.484363   3.737113
    30  H    2.544547   2.097616   3.386647   3.735445   4.187937
                   26         27         28         29         30
    26  H    0.000000
    27  C    2.642828   0.000000
    28  H    2.755525   1.092963   0.000000
    29  H    2.643860   1.094914   1.778077   0.000000
    30  H    3.693786   1.089567   1.763581   1.784100   0.000000
 Stoichiometry    C9H18N3(2+,2)
 Framework group  C1[X(C9H18N3)]
 Deg. of freedom    84
 Full point group                 C1      NOp   1
 Largest Abelian subgroup         C1      NOp   1
 Largest concise Abelian subgroup C1      NOp   1
                         Standard orientation:                         
 ---------------------------------------------------------------------
 Center     Atomic      Atomic             Coordinates (Angstroms)
 Number     Number       Type             X           Y           Z
 ---------------------------------------------------------------------
      1          6           0       -0.610975   -0.510745   -0.000115
      2          6           0       -0.136632    0.784354   -0.000118
      3          7           0       -1.625585   -1.358470   -0.000149
      4          7           0       -0.363786    2.086845   -0.000256
      5          6           0       -1.430862   -2.779219    0.245115
      6          1           0       -1.515224   -3.355904   -0.681778
      7          1           0       -0.453738   -2.953483    0.694570
      8          1           0       -2.189816   -3.131940    0.948067
      9          6           0       -2.989097   -0.914073   -0.244915
     10          1           0       -3.471984   -1.599183   -0.946347
     11          1           0       -3.570851   -0.892877    0.682419
     12          1           0       -2.986856    0.077730   -0.695991
     13          6           0        0.702642    3.045751   -0.244739
     14          1           0        1.010678    3.539867    0.682520
     15          1           0        1.561174    2.547880   -0.694397
     16          1           0        0.351203    3.805740   -0.947208
     17          6           0       -1.691678    2.628275    0.244928
     18          1           0       -1.617946    3.461770    0.948079
     19          1           0       -2.148816    2.989837   -0.681963
     20          1           0       -2.331110    1.868946    0.694010
     21          6           0        0.747770   -0.273975   -0.000062
     22          7           0        1.989332   -0.728507    0.000089
     23          6           0        2.286824   -2.131338   -0.245062
     24          1           0        2.563014   -2.644923    0.681638
     25          1           0        1.425660   -2.626427   -0.692731
     26          1           0        3.119218   -2.206604   -0.949371
     27          6           0        3.122102    0.150924    0.245030
     28          1           0        3.807685   -0.330042    0.947323
     29          1           0        3.663088    0.366868   -0.682084
     30          1           0        2.784327    1.083936    0.695089
 ---------------------------------------------------------------------
 Rotational constants (GHZ):           0.8639071           0.8637633           0.4436577
 Leave Link  202 at Mon Jan 25 21:33:55 2021, MaxMem=  4026531840 cpu:               0.1 elap:               0.0
 (Enter /opt/ohpc/pub/libs/gaussian/g16-A.03/sandybridge/g16/l301.exe)
 Standard basis: TZVP (5D, 7F)
 Ernie: Thresh=  0.10000D-02 Tol=  0.10000D-05 Strict=F.
 There are   348 symmetry adapted cartesian basis functions of A   symmetry.
 There are   336 symmetry adapted basis functions of A   symmetry.
   336 basis functions,   564 primitive gaussians,   348 cartesian basis functions
    46 alpha electrons       45 beta electrons
       nuclear repulsion energy       740.7629817128 Hartrees.
 IExCor=33909 DFT=T Ex+Corr=LC-wHPBE ExCW=0 ScaHFX=  1.000000
 ScaDFX=  1.000000  1.000000  1.000000  1.000000 ScalE2=  1.000000  1.000000
 IRadAn=      5 IRanWt=     -1 IRanGd=            0 ICorTp=0 IEmpDi=  4
 HFx  wShort=  0.000000 wLong=  0.236900 cFull=  0.000000 cShort=  0.000000 cLong=  1.000000
 DFx  wShort=  0.000000 wLong=  0.236900 cFull=  0.000000 cShort=  1.000000 cLong=  0.000000
 NAtoms=   30 NActive=   30 NUniq=   30 SFac= 1.00D+00 NAtFMM=   60 NAOKFM=F Big=F
 Integral buffers will be    131072 words long.
 Raffenetti 2 integral format.
 Two-electron integral symmetry is turned on.
 Leave Link  301 at Mon Jan 25 21:33:55 2021, MaxMem=  4026531840 cpu:               0.4 elap:               0.1
 (Enter /opt/ohpc/pub/libs/gaussian/g16-A.03/sandybridge/g16/l302.exe)
 NPDir=0 NMtPBC=     1 NCelOv=     1 NCel=       1 NClECP=     1 NCelD=      1
         NCelK=      1 NCelE2=     1 NClLst=     1 CellRange=     0.0.
 One-electron integrals computed using PRISM.
 One-electron integral symmetry used in STVInt
 NBasis=   336 RedAO= T EigKep=  2.74D-05  NBF=   336
 NBsUse=   336 1.00D-06 EigRej= -1.00D+00 NBFU=   336
 Precomputing XC quadrature grid using
 IXCGrd= 4 IRadAn=           5 IRanWt=          -1 IRanGd=           0 AccXCQ= 0.00D+00.
 Generated NRdTot=       0 NPtTot=           0 NUsed=           0 NTot=          32
 NSgBfM=   343   343   343   343   343 MxSgAt=    30 MxSgA2=    30.
 Leave Link  302 at Mon Jan 25 21:33:56 2021, MaxMem=  4026531840 cpu:               3.8 elap:               0.5
 (Enter /opt/ohpc/pub/libs/gaussian/g16-A.03/sandybridge/g16/l303.exe)
 DipDrv:  MaxL=1.
 Leave Link  303 at Mon Jan 25 21:33:56 2021, MaxMem=  4026531840 cpu:               0.6 elap:               0.1
 (Enter /opt/ohpc/pub/libs/gaussian/g16-A.03/sandybridge/g16/l401.exe)
 ExpMin= 9.52D-02 ExpMax= 1.97D+04 ExpMxC= 6.73D+02 IAcc=3 IRadAn=         5 AccDes= 0.00D+00
 Harris functional with IExCor=33909 and IRadAn=       5 diagonalized for initial guess.
 HarFok:  IExCor=33909 AccDes= 0.00D+00 IRadAn=         5 IDoV= 1 UseB2=F ITyADJ=14
 ICtDFT=  3500011 ScaDFX=  1.000000  1.000000  1.000000  1.000000
 FoFCou: FMM=F IPFlag=           0 FMFlag=      100000 FMFlg1=           0
         NFxFlg=           0 DoJE=T BraDBF=F KetDBF=T FulRan=T
         wScrn=  0.000000 ICntrl=       500 IOpCl=  0 I1Cent=   200000004 NGrid=           0
         NMat0=    1 NMatS0=      1 NMatT0=    0 NMatD0=    1 NMtDS0=    0 NMtDT0=    0
 Petite list used in FoFCou.
 Harris En= -505.884934383901    
 JPrj=0 DoOrth=F DoCkMO=F.
 Initial guess <Sx>= 0.0000 <Sy>= 0.0000 <Sz>= 0.5000 <S**2>= 0.7500 S= 0.5000
 Leave Link  401 at Mon Jan 25 21:33:59 2021, MaxMem=  4026531840 cpu:              24.5 elap:               3.2
 (Enter /opt/ohpc/pub/libs/gaussian/g16-A.03/sandybridge/g16/l502.exe)
 Integral symmetry usage will be decided dynamically.
 UHF open shell SCF:
 Using DIIS extrapolation, IDIIS=    10.
 NGot=  4026531840 LenX=  4026283142 LenY=  4026161597
 Requested convergence on RMS density matrix=1.00D-06 within  32 cycles.
 Requested convergence on MAX density matrix=1.00D-04.
 Requested convergence on             energy=1.00D-04.
 Virtual orbitals will be shifted by   0.500 hartree.
 No special actions if energy rises.
 Dynamic level shift is on during FON iterations.

 Cycle   1  Pass 1  IDiag  1:
 FoFJK:  IHMeth= 1 ICntrl=       0 DoSepK=T KAlg= 0 I1Cent=           0 FoldK=F
 IRaf=         1 NMat=       1 IRICut=       1 DoRegI=T DoRafI=F ISym2E= 0 IDoP0=0 IntGTp=1.
 FoFCou: FMM=F IPFlag=           0 FMFlag=      100000 FMFlg1=           0
         NFxFlg=           0 DoJE=T BraDBF=F KetDBF=F FulRan=T
         wScrn=  0.000000 ICntrl=       500 IOpCl=  0 I1Cent=           0 NGrid=           0
         NMat0=    1 NMatS0=      1 NMatT0=    0 NMatD0=    1 NMtDS0=    0 NMtDT0=    0
 Symmetry not used in FoFCou.
 E= -516.895293418867    
 DIIS: error= 2.75D-02 at cycle   1 NSaved=   1.
 NSaved= 1 IEnMin= 1 EnMin= -516.895293418867     IErMin= 1 ErrMin= 2.75D-02
 ErrMax= 2.75D-02  0.00D+00 EMaxC= 1.00D+00 BMatC= 7.81D-01 BMatP= 7.81D-01
 IDIUse=1 WtCom= 1.00D+00 WtEn= 0.00D+00
 Coeff-Com:  0.100D+01
 Coeff:      0.100D+01
 Gap=     0.449 Goal=   None    Shift=    0.500
 T= 1443. Gap= 0.843 NK=0 IS=   47 IE=  336 IFin=   46
          NO(<0.9)=   0  NV(>0.1)=   0     46.00e < EF      0.00e >EF  Err=0.0D+00
 Gap=     0.240 Goal=   None    Shift=    0.500
 T= 1443. Gap= 0.707 NK=0 IS=   46 IE=  336 IFin=   45
          NO(<0.9)=   0  NV(>0.1)=   0     45.00e < EF      0.00e >EF  Err=0.0D+00
 GapD=    0.240 DampG=1.000 DampE=0.500 DampFc=0.5000 IDamp=-1.
 Damping current iteration by 5.00D-01
 RMSDP=2.75D-03 MaxDP=1.62D-01              OVMax= 6.35D-02

 Cycle   2  Pass 1  IDiag  1:
 E= -517.000973606139     Delta-E=       -0.105680187272 Rises=F Damp=T
 DIIS: error= 1.07D-02 at cycle   2 NSaved=   2.
 NSaved= 2 IEnMin= 2 EnMin= -517.000973606139     IErMin= 2 ErrMin= 1.07D-02
 ErrMax= 1.07D-02  0.00D+00 EMaxC= 1.00D+00 BMatC= 1.30D-01 BMatP= 7.81D-01
 IDIUse=1 WtCom= 1.00D+00 WtEn= 0.00D+00
 Coeff-Com: -0.543D+00 0.154D+01
 Coeff:     -0.543D+00 0.154D+01
 Gap=     0.371 Goal=   None    Shift=    0.500
 T= 1306. Gap= 0.859 NK=0 IS=   47 IE=  336 IFin=   46
          NO(<0.9)=   0  NV(>0.1)=   0     46.00e < EF      0.00e >EF  Err=0.0D+00
 Gap=     0.257 Goal=   None    Shift=    0.500
 T= 1306. Gap= 0.744 NK=0 IS=   46 IE=  336 IFin=   45
          NO(<0.9)=   0  NV(>0.1)=   0     45.00e < EF      0.00e >EF  Err=0.0D+00
 GapD=    0.257 DampG=1.000 DampE=0.500 DampFc=0.5000 IDamp=-1.
 Damping current iteration by 5.00D-01
 RMSDP=1.95D-03 MaxDP=1.32D-01 DE=-1.06D-01 OVMax= 1.84D-02

 Cycle   3  Pass 1  IDiag  1:
 E= -517.037221455546     Delta-E=       -0.036247849408 Rises=F Damp=T
 DIIS: error= 4.22D-03 at cycle   3 NSaved=   3.
 NSaved= 3 IEnMin= 3 EnMin= -517.037221455546     IErMin= 3 ErrMin= 4.22D-03
 ErrMax= 4.22D-03  0.00D+00 EMaxC= 1.00D+00 BMatC= 2.63D-02 BMatP= 1.30D-01
 IDIUse=1 WtCom= 1.00D+00 WtEn= 0.00D+00
 Coeff-Com:  0.753D-01-0.100D+01 0.193D+01
 Coeff:      0.753D-01-0.100D+01 0.193D+01
 Gap=     0.370 Goal=   None    Shift=    0.500
 T= 1044. Gap= 0.870 NK=0 IS=   47 IE=  336 IFin=   46
          NO(<0.9)=   0  NV(>0.1)=   0     46.00e < EF      0.00e >EF  Err=0.0D+00
 Gap=     0.244 Goal=   None    Shift=    0.500
 T= 1044. Gap= 0.744 NK=0 IS=   46 IE=  336 IFin=   45
          NO(<0.9)=   0  NV(>0.1)=   0     45.00e < EF      0.00e >EF  Err=0.0D+00
 GapD=    0.244 DampG=1.000 DampE=1.000 DampFc=1.0000 IDamp=-1.
 RMSDP=1.09D-03 MaxDP=7.21D-02 DE=-3.62D-02 OVMax= 7.17D-03

 Cycle   4  Pass 1  IDiag  1:
 E= -517.068487199215     Delta-E=       -0.031265743669 Rises=F Damp=F
 DIIS: error= 1.51D-03 at cycle   4 NSaved=   4.
 NSaved= 4 IEnMin= 4 EnMin= -517.068487199215     IErMin= 4 ErrMin= 1.51D-03
 ErrMax= 1.51D-03  0.00D+00 EMaxC= 1.00D+00 BMatC= 1.02D-03 BMatP= 2.63D-02
 IDIUse=1 WtCom= 1.00D+00 WtEn= 0.00D+00
 Coeff-Com:  0.678D-01-0.241D+00 0.255D+00 0.919D+00
 Coeff:      0.678D-01-0.241D+00 0.255D+00 0.919D+00
 Gap=     0.368 Goal=   None    Shift=    0.500
 T=  475. Gap= 0.868 NK=0 IS=   47 IE=  336 IFin=   46
          NO(<0.9)=   0  NV(>0.1)=   0     46.00e < EF      0.00e >EF  Err=0.0D+00
 Gap=     0.246 Goal=   None    Shift=    0.500
 T=  475. Gap= 0.746 NK=0 IS=   46 IE=  336 IFin=   45
          NO(<0.9)=   0  NV(>0.1)=   0     45.00e < EF      0.00e >EF  Err=0.0D+00
 GapD=    0.246 DampG=1.000 DampE=1.000 DampFc=1.0000 IDamp=-1.
 RMSDP=9.61D-05 MaxDP=2.85D-03 DE=-3.13D-02 OVMax= 7.74D-03

 Cycle   5  Pass 1  IDiag  1:
 E= -517.068919184598     Delta-E=       -0.000431985382 Rises=F Damp=F
 DIIS: error= 1.06D-03 at cycle   5 NSaved=   5.
 NSaved= 5 IEnMin= 5 EnMin= -517.068919184598     IErMin= 5 ErrMin= 1.06D-03
 ErrMax= 1.06D-03  0.00D+00 EMaxC= 1.00D+00 BMatC= 2.51D-04 BMatP= 1.02D-03
 IDIUse=1 WtCom= 1.00D+00 WtEn= 0.00D+00
 Coeff-Com: -0.190D-01 0.202D+00-0.364D+00-0.361D+00 0.154D+01
 Coeff:     -0.190D-01 0.202D+00-0.364D+00-0.361D+00 0.154D+01
 Gap=     0.371 Goal=   None    Shift=    0.500
 Gap=     0.247 Goal=   None    Shift=    0.500
 GapD=    0.247 DampG=1.000 DampE=1.000 DampFc=1.0000 IDamp=-1.
 RMSDP=6.60D-05 MaxDP=3.33D-03 DE=-4.32D-04 OVMax= 6.56D-03

 Cycle   6  Pass 1  IDiag  1:
 E= -517.069151771370     Delta-E=       -0.000232586773 Rises=F Damp=F
 DIIS: error= 8.74D-04 at cycle   6 NSaved=   6.
 NSaved= 6 IEnMin= 6 EnMin= -517.069151771370     IErMin= 6 ErrMin= 8.74D-04
 ErrMax= 8.74D-04  0.00D+00 EMaxC= 1.00D+00 BMatC= 1.05D-04 BMatP= 2.51D-04
 IDIUse=1 WtCom= 1.00D+00 WtEn= 0.00D+00
 Coeff-Com: -0.181D-01 0.124D-01 0.376D-01-0.197D+00-0.115D+01 0.232D+01
 Coeff:     -0.181D-01 0.124D-01 0.376D-01-0.197D+00-0.115D+01 0.232D+01
 Gap=     0.372 Goal=   None    Shift=    0.500
 Gap=     0.249 Goal=   None    Shift=    0.500
 RMSDP=5.75D-05 MaxDP=3.55D-03 DE=-2.33D-04 OVMax= 6.47D-03

 Cycle   7  Pass 1  IDiag  1:
 E= -517.069293117326     Delta-E=       -0.000141345956 Rises=F Damp=F
 DIIS: error= 5.39D-04 at cycle   7 NSaved=   7.
 NSaved= 7 IEnMin= 7 EnMin= -517.069293117326     IErMin= 7 ErrMin= 5.39D-04
 ErrMax= 5.39D-04  0.00D+00 EMaxC= 1.00D+00 BMatC= 4.08D-05 BMatP= 1.05D-04
 IDIUse=1 WtCom= 1.00D+00 WtEn= 0.00D+00
 Coeff-Com:  0.133D-02-0.394D-01 0.766D-01 0.438D-01-0.497D+00-0.393D+00
 Coeff-Com:  0.181D+01
 Coeff:      0.133D-02-0.394D-01 0.766D-01 0.438D-01-0.497D+00-0.393D+00
 Coeff:      0.181D+01
 Gap=     0.373 Goal=   None    Shift=    0.500
 Gap=     0.249 Goal=   None    Shift=    0.500
 RMSDP=3.73D-05 MaxDP=3.04D-03 DE=-1.41D-04 OVMax= 4.28D-03

 Cycle   8  Pass 1  IDiag  1:
 E= -517.069352082994     Delta-E=       -0.000058965668 Rises=F Damp=F
 DIIS: error= 3.66D-04 at cycle   8 NSaved=   8.
 NSaved= 8 IEnMin= 8 EnMin= -517.069352082994     IErMin= 8 ErrMin= 3.66D-04
 ErrMax= 3.66D-04  0.00D+00 EMaxC= 1.00D+00 BMatC= 1.60D-05 BMatP= 4.08D-05
 IDIUse=1 WtCom= 1.00D+00 WtEn= 0.00D+00
 Coeff-Com:  0.446D-02-0.520D-03-0.141D-01 0.374D-01 0.439D+00-0.984D+00
 Coeff-Com: -0.689D+00 0.221D+01
 Coeff:      0.446D-02-0.520D-03-0.141D-01 0.374D-01 0.439D+00-0.984D+00
 Coeff:     -0.689D+00 0.221D+01
 Gap=     0.373 Goal=   None    Shift=    0.500
 Gap=     0.249 Goal=   None    Shift=    0.500
 RMSDP=2.35D-05 MaxDP=1.77D-03 DE=-5.90D-05 OVMax= 2.98D-03

 Cycle   9  Pass 1  IDiag  1:
 E= -517.069376365181     Delta-E=       -0.000024282187 Rises=F Damp=F
 DIIS: error= 2.13D-04 at cycle   9 NSaved=   9.
 NSaved= 9 IEnMin= 9 EnMin= -517.069376365181     IErMin= 9 ErrMin= 2.13D-04
 ErrMax= 2.13D-04  0.00D+00 EMaxC= 1.00D+00 BMatC= 6.10D-06 BMatP= 1.60D-05
 IDIUse=1 WtCom= 1.00D+00 WtEn= 0.00D+00
 Coeff-Com: -0.363D-02 0.134D-01-0.157D-01-0.997D-01-0.368D-02 0.775D+00
 Coeff-Com: -0.699D+00-0.210D+01 0.314D+01
 Coeff:     -0.363D-02 0.134D-01-0.157D-01-0.997D-01-0.368D-02 0.775D+00
 Coeff:     -0.699D+00-0.210D+01 0.314D+01
 Gap=     0.374 Goal=   None    Shift=    0.500
 Gap=     0.250 Goal=   None    Shift=    0.500
 RMSDP=1.31D-05 MaxDP=8.22D-04 DE=-2.43D-05 OVMax= 1.88D-03

 Cycle  10  Pass 1  IDiag  1:
 E= -517.069385224100     Delta-E=       -0.000008858919 Rises=F Damp=F
 DIIS: error= 1.20D-04 at cycle  10 NSaved=  10.
 NSaved=10 IEnMin=10 EnMin= -517.069385224100     IErMin=10 ErrMin= 1.20D-04
 ErrMax= 1.20D-04  0.00D+00 EMaxC= 1.00D+00 BMatC= 1.96D-06 BMatP= 6.10D-06
 IDIUse=1 WtCom= 1.00D+00 WtEn= 0.00D+00
 Coeff-Com:  0.648D-03-0.469D-02 0.725D-02 0.110D-01-0.407D-01-0.687D-01
 Coeff-Com:  0.301D+00 0.145D+00-0.214D+01 0.278D+01
 Coeff:      0.648D-03-0.469D-02 0.725D-02 0.110D-01-0.407D-01-0.687D-01
 Coeff:      0.301D+00 0.145D+00-0.214D+01 0.278D+01
 Gap=     0.374 Goal=   None    Shift=    0.500
 Gap=     0.250 Goal=   None    Shift=    0.500
 RMSDP=7.05D-06 MaxDP=3.54D-04 DE=-8.86D-06 OVMax= 1.03D-03

 Cycle  11  Pass 1  IDiag  1:
 E= -517.069387875741     Delta-E=       -0.000002651640 Rises=F Damp=F
 DIIS: error= 6.62D-05 at cycle  11 NSaved=  11.
 NSaved=11 IEnMin=11 EnMin= -517.069387875741     IErMin=11 ErrMin= 6.62D-05
 ErrMax= 6.62D-05  0.00D+00 EMaxC= 1.00D+00 BMatC= 5.87D-07 BMatP= 1.96D-06
 IDIUse=1 WtCom= 1.00D+00 WtEn= 0.00D+00
 Coeff-Com: -0.326D-03 0.937D-03-0.659D-03-0.560D-02 0.216D-01-0.773D-02
 Coeff-Com: -0.379D-01-0.104D+00 0.742D+00-0.242D+01 0.282D+01
 Coeff:     -0.326D-03 0.937D-03-0.659D-03-0.560D-02 0.216D-01-0.773D-02
 Coeff:     -0.379D-01-0.104D+00 0.742D+00-0.242D+01 0.282D+01
 Gap=     0.374 Goal=   None    Shift=    0.500
 Gap=     0.250 Goal=   None    Shift=    0.500
 RMSDP=3.81D-06 MaxDP=1.98D-04 DE=-2.65D-06 OVMax= 5.59D-04

 Cycle  12  Pass 1  IDiag  1:
 E= -517.069388636374     Delta-E=       -0.000000760633 Rises=F Damp=F
 DIIS: error= 3.50D-05 at cycle  12 NSaved=  12.
 NSaved=12 IEnMin=12 EnMin= -517.069388636374     IErMin=12 ErrMin= 3.50D-05
 ErrMax= 3.50D-05  0.00D+00 EMaxC= 1.00D+00 BMatC= 1.75D-07 BMatP= 5.87D-07
 IDIUse=1 WtCom= 1.00D+00 WtEn= 0.00D+00
 Coeff-Com: -0.217D-03 0.119D-02-0.178D-02-0.879D-02 0.127D-01 0.447D-01
 Coeff-Com: -0.930D-01-0.119D+00 0.577D+00-0.836D+00-0.507D+00 0.193D+01
 Coeff:     -0.217D-03 0.119D-02-0.178D-02-0.879D-02 0.127D-01 0.447D-01
 Coeff:     -0.930D-01-0.119D+00 0.577D+00-0.836D+00-0.507D+00 0.193D+01
 Gap=     0.374 Goal=   None    Shift=    0.500
 Gap=     0.250 Goal=   None    Shift=    0.500
 RMSDP=2.03D-06 MaxDP=9.90D-05 DE=-7.61D-07 OVMax= 2.99D-04

 Cycle  13  Pass 1  IDiag  1:
 E= -517.069388851679     Delta-E=       -0.000000215305 Rises=F Damp=F
 DIIS: error= 1.84D-05 at cycle  13 NSaved=  13.
 NSaved=13 IEnMin=13 EnMin= -517.069388851679     IErMin=13 ErrMin= 1.84D-05
 ErrMax= 1.84D-05  0.00D+00 EMaxC= 1.00D+00 BMatC= 5.31D-08 BMatP= 1.75D-07
 IDIUse=1 WtCom= 1.00D+00 WtEn= 0.00D+00
 Coeff-Com: -0.155D-04 0.327D-03-0.723D-03-0.435D-02 0.221D-02 0.295D-01
 Coeff-Com: -0.432D-01-0.456D-01 0.101D+00 0.238D+00-0.118D+01 0.730D+00
 Coeff-Com:  0.117D+01
 Coeff:     -0.155D-04 0.327D-03-0.723D-03-0.435D-02 0.221D-02 0.295D-01
 Coeff:     -0.432D-01-0.456D-01 0.101D+00 0.238D+00-0.118D+01 0.730D+00
 Coeff:      0.117D+01
 Gap=     0.374 Goal=   None    Shift=    0.500
 Gap=     0.250 Goal=   None    Shift=    0.500
 RMSDP=1.12D-06 MaxDP=5.53D-05 DE=-2.15D-07 OVMax= 1.59D-04

 Cycle  14  Pass 1  IDiag  1:
 E= -517.069388913420     Delta-E=       -0.000000061742 Rises=F Damp=F
 DIIS: error= 9.81D-06 at cycle  14 NSaved=  14.
 NSaved=14 IEnMin=14 EnMin= -517.069388913420     IErMin=14 ErrMin= 9.81D-06
 ErrMax= 9.81D-06  0.00D+00 EMaxC= 1.00D+00 BMatC= 1.50D-08 BMatP= 5.31D-08
 IDIUse=1 WtCom= 1.00D+00 WtEn= 0.00D+00
 Coeff-Com:  0.683D-04-0.384D-03 0.554D-03 0.163D-02-0.258D-02-0.103D-01
 Coeff-Com:  0.247D-01 0.239D-01-0.174D+00 0.335D+00-0.128D+00-0.573D+00
 Coeff-Com: -0.286D+00 0.179D+01
 Coeff:      0.683D-04-0.384D-03 0.554D-03 0.163D-02-0.258D-02-0.103D-01
 Coeff:      0.247D-01 0.239D-01-0.174D+00 0.335D+00-0.128D+00-0.573D+00
 Coeff:     -0.286D+00 0.179D+01
 Gap=     0.374 Goal=   None    Shift=    0.500
 Gap=     0.250 Goal=   None    Shift=    0.500
 RMSDP=6.45D-07 MaxDP=3.64D-05 DE=-6.17D-08 OVMax= 8.52D-05

 SCF Done:  E(ULC-wHPBE) =  -517.069388913     A.U. after   14 cycles
            NFock= 14  Conv=0.64D-06     -V/T= 2.0048
 <Sx>= 0.0000 <Sy>= 0.0000 <Sz>= 0.5000 <S**2>= 0.7749 S= 0.5124
 <L.S>= 0.000000000000E+00
 KE= 5.146049575552D+02 PE=-2.652484944145D+03 EE= 8.800476159633D+02
 Annihilation of the first spin contaminant:
 S**2 before annihilation     0.7749,   after     0.7504
 Leave Link  502 at Mon Jan 25 21:37:51 2021, MaxMem=  4026531840 cpu:            1779.5 elap:             232.2
 (Enter /opt/ohpc/pub/libs/gaussian/g16-A.03/sandybridge/g16/l508.exe)
 QCSCF skips out because SCF is already converged.
 Leave Link  508 at Mon Jan 25 21:37:51 2021, MaxMem=  4026531840 cpu:               0.0 elap:               0.0
 (Enter /opt/ohpc/pub/libs/gaussian/g16-A.03/sandybridge/g16/l601.exe)
 Copying SCF densities to generalized density rwf, IOpCl= 1 IROHF=0.

 **********************************************************************

            Population analysis using the SCF density.

 **********************************************************************

 Orbital symmetries:
 Alpha Orbitals:
       Occupied  (A) (A) (A) (A) (A) (A) (A) (A) (A) (A) (A) (A)
                 (A) (A) (A) (A) (A) (A) (A) (A) (A) (A) (A) (A)
                 (A) (A) (A) (A) (A) (A) (A) (A) (A) (A) (A) (A)
                 (A) (A) (A) (A) (A) (A) (A) (A) (A) (A)
       Virtual   (A) (A) (A) (A) (A) (A) (A) (A) (A) (A) (A) (A)
                 (A) (A) (A) (A) (A) (A) (A) (A) (A) (A) (A) (A)
                 (A) (A) (A) (A) (A) (A) (A) (A) (A) (A) (A) (A)
                 (A) (A) (A) (A) (A) (A) (A) (A) (A) (A) (A) (A)
                 (A) (A) (A) (A) (A) (A) (A) (A) (A) (A) (A) (A)
                 (A) (A) (A) (A) (A) (A) (A) (A) (A) (A) (A) (A)
                 (A) (A) (A) (A) (A) (A) (A) (A) (A) (A) (A) (A)
                 (A) (A) (A) (A) (A) (A) (A) (A) (A) (A) (A) (A)
                 (A) (A) (A) (A) (A) (A) (A) (A) (A) (A) (A) (A)
                 (A) (A) (A) (A) (A) (A) (A) (A) (A) (A) (A) (A)
                 (A) (A) (A) (A) (A) (A) (A) (A) (A) (A) (A) (A)
                 (A) (A) (A) (A) (A) (A) (A) (A) (A) (A) (A) (A)
                 (A) (A) (A) (A) (A) (A) (A) (A) (A) (A) (A) (A)
                 (A) (A) (A) (A) (A) (A) (A) (A) (A) (A) (A) (A)
                 (A) (A) (A) (A) (A) (A) (A) (A) (A) (A) (A) (A)
                 (A) (A) (A) (A) (A) (A) (A) (A) (A) (A) (A) (A)
                 (A) (A) (A) (A) (A) (A) (A) (A) (A) (A) (A) (A)
                 (A) (A) (A) (A) (A) (A) (A) (A) (A) (A) (A) (A)
                 (A) (A) (A) (A) (A) (A) (A) (A) (A) (A) (A) (A)
                 (A) (A) (A) (A) (A) (A) (A) (A) (A) (A) (A) (A)
                 (A) (A) (A) (A) (A) (A) (A) (A) (A) (A) (A) (A)
                 (A) (A) (A) (A) (A) (A) (A) (A) (A) (A) (A) (A)
                 (A) (A) (A) (A) (A) (A) (A) (A) (A) (A) (A) (A)
                 (A) (A) (A) (A) (A) (A) (A) (A) (A) (A) (A) (A)
                 (A) (A)
 Beta  Orbitals:
       Occupied  (A) (A) (A) (A) (A) (A) (A) (A) (A) (A) (A) (A)
                 (A) (A) (A) (A) (A) (A) (A) (A) (A) (A) (A) (A)
                 (A) (A) (A) (A) (A) (A) (A) (A) (A) (A) (A) (A)
                 (A) (A) (A) (A) (A) (A) (A) (A) (A)
       Virtual   (A) (A) (A) (A) (A) (A) (A) (A) (A) (A) (A) (A)
                 (A) (A) (A) (A) (A) (A) (A) (A) (A) (A) (A) (A)
                 (A) (A) (A) (A) (A) (A) (A) (A) (A) (A) (A) (A)
                 (A) (A) (A) (A) (A) (A) (A) (A) (A) (A) (A) (A)
                 (A) (A) (A) (A) (A) (A) (A) (A) (A) (A) (A) (A)
                 (A) (A) (A) (A) (A) (A) (A) (A) (A) (A) (A) (A)
                 (A) (A) (A) (A) (A) (A) (A) (A) (A) (A) (A) (A)
                 (A) (A) (A) (A) (A) (A) (A) (A) (A) (A) (A) (A)
                 (A) (A) (A) (A) (A) (A) (A) (A) (A) (A) (A) (A)
                 (A) (A) (A) (A) (A) (A) (A) (A) (A) (A) (A) (A)
                 (A) (A) (A) (A) (A) (A) (A) (A) (A) (A) (A) (A)
                 (A) (A) (A) (A) (A) (A) (A) (A) (A) (A) (A) (A)
                 (A) (A) (A) (A) (A) (A) (A) (A) (A) (A) (A) (A)
                 (A) (A) (A) (A) (A) (A) (A) (A) (A) (A) (A) (A)
                 (A) (A) (A) (A) (A) (A) (A) (A) (A) (A) (A) (A)
                 (A) (A) (A) (A) (A) (A) (A) (A) (A) (A) (A) (A)
                 (A) (A) (A) (A) (A) (A) (A) (A) (A) (A) (A) (A)
                 (A) (A) (A) (A) (A) (A) (A) (A) (A) (A) (A) (A)
                 (A) (A) (A) (A) (A) (A) (A) (A) (A) (A) (A) (A)
                 (A) (A) (A) (A) (A) (A) (A) (A) (A) (A) (A) (A)
                 (A) (A) (A) (A) (A) (A) (A) (A) (A) (A) (A) (A)
                 (A) (A) (A) (A) (A) (A) (A) (A) (A) (A) (A) (A)
                 (A) (A) (A) (A) (A) (A) (A) (A) (A) (A) (A) (A)
                 (A) (A) (A) (A) (A) (A) (A) (A) (A) (A) (A) (A)
                 (A) (A) (A)
 The electronic state is 2-A.
 Alpha  occ. eigenvalues --  -14.51920 -14.51919 -14.51918 -10.42825 -10.42760
 Alpha  occ. eigenvalues --  -10.42760 -10.33554 -10.33554 -10.33554 -10.33552
 Alpha  occ. eigenvalues --  -10.33551 -10.33551  -1.39354  -1.35410  -1.35410
 Alpha  occ. eigenvalues --   -1.29878  -1.10318  -1.10318  -1.09241  -1.08857
 Alpha  occ. eigenvalues --   -1.08856  -1.07195  -0.92770  -0.92770  -0.92002
 Alpha  occ. eigenvalues --   -0.89811  -0.88063  -0.88063  -0.85733  -0.85733
 Alpha  occ. eigenvalues --   -0.85063  -0.79309  -0.78574  -0.78573  -0.77993
 Alpha  occ. eigenvalues --   -0.76558  -0.76556  -0.76387  -0.76386  -0.76275
 Alpha  occ. eigenvalues --   -0.74645  -0.74644  -0.73733  -0.68357  -0.68357
 Alpha  occ. eigenvalues --   -0.60233
 Alpha virt. eigenvalues --   -0.22867  -0.22865  -0.19740  -0.13903  -0.13901
 Alpha virt. eigenvalues --   -0.13460  -0.13067  -0.11753  -0.11752  -0.10005
 Alpha virt. eigenvalues --   -0.10004  -0.09408  -0.09373  -0.08447  -0.08447
 Alpha virt. eigenvalues --   -0.07753  -0.07366  -0.07362  -0.06393  -0.05790
 Alpha virt. eigenvalues --   -0.05784  -0.05622  -0.05619  -0.04368  -0.02207
 Alpha virt. eigenvalues --   -0.02067  -0.02063  -0.01221  -0.01217  -0.00447
 Alpha virt. eigenvalues --    0.01989   0.01999   0.03973   0.03979   0.04173
 Alpha virt. eigenvalues --    0.05073   0.06436   0.07377   0.07381   0.09252
 Alpha virt. eigenvalues --    0.10522   0.10530   0.11289   0.11805   0.11814
 Alpha virt. eigenvalues --    0.12747   0.13737   0.13743   0.16066   0.16072
 Alpha virt. eigenvalues --    0.17664   0.18664   0.20119   0.20130   0.21935
 Alpha virt. eigenvalues --    0.22234   0.23014   0.23019   0.23415   0.23424
 Alpha virt. eigenvalues --    0.24321   0.25379   0.25381   0.25648   0.27252
 Alpha virt. eigenvalues --    0.27258   0.27501   0.28173   0.28176   0.29594
 Alpha virt. eigenvalues --    0.29605   0.30965   0.31460   0.31733   0.32262
 Alpha virt. eigenvalues --    0.32272   0.33737   0.33769   0.33773   0.36669
 Alpha virt. eigenvalues --    0.36671   0.40430   0.40431   0.43906   0.44181
 Alpha virt. eigenvalues --    0.44186   0.44418   0.44424   0.45221   0.49003
 Alpha virt. eigenvalues --    0.49714   0.49718   0.51104   0.56934   0.56949
 Alpha virt. eigenvalues --    0.61503   0.61508   0.62100   0.90274   0.90633
 Alpha virt. eigenvalues --    0.90640   0.93326   0.98221   1.00765   1.00779
 Alpha virt. eigenvalues --    1.01548   1.02595   1.05547   1.05554   1.07090
 Alpha virt. eigenvalues --    1.07091   1.09691   1.09696   1.10309   1.11332
 Alpha virt. eigenvalues --    1.11814   1.12405   1.12410   1.14044   1.14051
 Alpha virt. eigenvalues --    1.15201   1.16244   1.16256   1.18809   1.20600
 Alpha virt. eigenvalues --    1.20604   1.20919   1.20932   1.22365   1.23086
 Alpha virt. eigenvalues --    1.25197   1.25212   1.26224   1.26228   1.27644
 Alpha virt. eigenvalues --    1.31585   1.32298   1.32400   1.32405   1.33426
 Alpha virt. eigenvalues --    1.33436   1.35337   1.35340   1.38050   1.39262
 Alpha virt. eigenvalues --    1.40019   1.40032   1.41165   1.41169   1.41675
 Alpha virt. eigenvalues --    1.44492   1.44495   1.46541   1.48130   1.48133
 Alpha virt. eigenvalues --    1.50201   1.51940   1.51944   1.53677   1.54419
 Alpha virt. eigenvalues --    1.54420   1.55297   1.55302   1.55490   1.55538
 Alpha virt. eigenvalues --    1.55701   1.55706   1.56474   1.57976   1.57979
 Alpha virt. eigenvalues --    1.58374   1.58618   1.58630   1.59508   1.63541
 Alpha virt. eigenvalues --    1.63548   1.64084   1.64088   1.65456   1.76196
 Alpha virt. eigenvalues --    1.78083   1.78094   1.82360   1.82373   1.82538
 Alpha virt. eigenvalues --    1.86038   1.88418   1.88424   1.90277   1.92323
 Alpha virt. eigenvalues --    1.92329   1.97424   1.97646   1.97656   2.03980
 Alpha virt. eigenvalues --    2.04298   2.04306   2.04590   2.05690   2.06600
 Alpha virt. eigenvalues --    2.06607   2.07606   2.09757   2.09773   2.11261
 Alpha virt. eigenvalues --    2.11266   2.11370   2.12853   2.14365   2.14374
 Alpha virt. eigenvalues --    2.16780   2.20990   2.21002   2.26880   2.26889
 Alpha virt. eigenvalues --    2.27977   2.28090   2.28097   2.30349   2.31249
 Alpha virt. eigenvalues --    2.31256   2.31958   2.34342   2.34375   2.36083
 Alpha virt. eigenvalues --    2.37319   2.37334   2.37856   2.40577   2.42878
 Alpha virt. eigenvalues --    2.42889   2.43746   2.46710   2.46716   2.47504
 Alpha virt. eigenvalues --    2.49991   2.50004   2.51020   2.52993   2.53015
 Alpha virt. eigenvalues --    2.56281   2.56283   2.59981   2.60001   2.62502
 Alpha virt. eigenvalues --    2.62505   2.68622   2.68624   2.84356   2.85939
 Alpha virt. eigenvalues --    2.85968   2.86758   2.87866   2.87876   2.92089
 Alpha virt. eigenvalues --    2.94883   2.94887   3.04743   3.04754   3.06920
 Alpha virt. eigenvalues --    3.07138   3.07144   3.08110   3.09617   3.09630
 Alpha virt. eigenvalues --    3.10787   3.15303   3.15324   3.16283   3.19372
 Alpha virt. eigenvalues --    3.19381   3.21849   3.27180   3.45929   3.45943
 Alpha virt. eigenvalues --    3.56054   3.70178   3.70187  21.19685  21.51193
 Alpha virt. eigenvalues --   21.53308  21.53315  21.69219  21.69222  21.73442
 Alpha virt. eigenvalues --   21.92820  21.92833  31.30760  31.49946  31.49950
  Beta  occ. eigenvalues --  -14.51268 -14.51268 -14.51266 -10.42870 -10.42807
  Beta  occ. eigenvalues --  -10.42806 -10.33572 -10.33571 -10.33571 -10.33569
  Beta  occ. eigenvalues --  -10.33569 -10.33568  -1.38741  -1.34467  -1.34467
  Beta  occ. eigenvalues --   -1.28982  -1.10172  -1.10172  -1.09083  -1.08723
  Beta  occ. eigenvalues --   -1.08723  -1.06961  -0.92399  -0.92399  -0.91616
  Beta  occ. eigenvalues --   -0.88818  -0.87792  -0.87792  -0.84679  -0.84343
  Beta  occ. eigenvalues --   -0.84342  -0.78433  -0.78419  -0.78418  -0.77886
  Beta  occ. eigenvalues --   -0.76266  -0.76265  -0.76117  -0.76116  -0.75945
  Beta  occ. eigenvalues --   -0.74527  -0.74526  -0.73663  -0.65610  -0.65610
  Beta virt. eigenvalues --   -0.40655  -0.21267  -0.21265  -0.19536  -0.13827
  Beta virt. eigenvalues --   -0.13826  -0.13482  -0.12820  -0.11571  -0.11570
  Beta virt. eigenvalues --   -0.09820  -0.09819  -0.09366  -0.09286  -0.08372
  Beta virt. eigenvalues --   -0.08371  -0.07582  -0.07178  -0.07173  -0.06204
  Beta virt. eigenvalues --   -0.05648  -0.05642  -0.05423  -0.05420  -0.04252
  Beta virt. eigenvalues --   -0.02051  -0.01933  -0.01928  -0.01093  -0.01088
  Beta virt. eigenvalues --   -0.00376   0.02103   0.02113   0.04076   0.04082
  Beta virt. eigenvalues --    0.04304   0.05229   0.06630   0.07460   0.07464
  Beta virt. eigenvalues --    0.09549   0.10755   0.10763   0.11422   0.11977
  Beta virt. eigenvalues --    0.11985   0.12947   0.13774   0.13781   0.16235
  Beta virt. eigenvalues --    0.16241   0.17982   0.18789   0.20240   0.20252
  Beta virt. eigenvalues --    0.22089   0.22583   0.23133   0.23138   0.23620
  Beta virt. eigenvalues --    0.23629   0.24455   0.25582   0.25584   0.25900
  Beta virt. eigenvalues --    0.27484   0.27489   0.27753   0.28282   0.28284
  Beta virt. eigenvalues --    0.29930   0.29941   0.31190   0.31621   0.32136
  Beta virt. eigenvalues --    0.32511   0.32520   0.33992   0.34001   0.34004
  Beta virt. eigenvalues --    0.36777   0.36780   0.40516   0.40518   0.44249
  Beta virt. eigenvalues --    0.44355   0.44360   0.44781   0.44787   0.45380
  Beta virt. eigenvalues --    0.49268   0.49996   0.50000   0.51274   0.57107
  Beta virt. eigenvalues --    0.57122   0.61652   0.61658   0.62351   0.90466
  Beta virt. eigenvalues --    0.90901   0.90908   0.93544   0.98597   1.00905
  Beta virt. eigenvalues --    1.00919   1.01661   1.02646   1.05669   1.05675
  Beta virt. eigenvalues --    1.07236   1.07238   1.09889   1.09893   1.10432
  Beta virt. eigenvalues --    1.11467   1.11921   1.12559   1.12563   1.14202
  Beta virt. eigenvalues --    1.14208   1.15364   1.16336   1.16348   1.18988
  Beta virt. eigenvalues --    1.20652   1.20656   1.21009   1.21022   1.22504
  Beta virt. eigenvalues --    1.23207   1.25330   1.25345   1.26319   1.26322
  Beta virt. eigenvalues --    1.27958   1.31769   1.32484   1.32630   1.32635
  Beta virt. eigenvalues --    1.33578   1.33589   1.35620   1.35623   1.38297
  Beta virt. eigenvalues --    1.39484   1.40177   1.40190   1.41454   1.41457
  Beta virt. eigenvalues --    1.42270   1.44877   1.44880   1.46620   1.48244
  Beta virt. eigenvalues --    1.48247   1.50338   1.52178   1.52181   1.53903
  Beta virt. eigenvalues --    1.54937   1.54939   1.55648   1.55651   1.55659
  Beta virt. eigenvalues --    1.55872   1.55888   1.55896   1.56619   1.58151
  Beta virt. eigenvalues --    1.58155   1.58888   1.58965   1.58977   1.59862
  Beta virt. eigenvalues --    1.63768   1.63771   1.64231   1.64237   1.65959
  Beta virt. eigenvalues --    1.76211   1.78358   1.78371   1.82536   1.83004
  Beta virt. eigenvalues --    1.83016   1.86344   1.88602   1.88608   1.90477
  Beta virt. eigenvalues --    1.92630   1.92637   1.97889   1.97994   1.98003
  Beta virt. eigenvalues --    2.04330   2.04782   2.05120   2.05129   2.06390
  Beta virt. eigenvalues --    2.06772   2.06779   2.08010   2.10171   2.10188
  Beta virt. eigenvalues --    2.11620   2.11625   2.11701   2.13841   2.15116
  Beta virt. eigenvalues --    2.15124   2.17797   2.21281   2.21293   2.26986
  Beta virt. eigenvalues --    2.26995   2.28357   2.28584   2.28591   2.30856
  Beta virt. eigenvalues --    2.31513   2.31521   2.32517   2.34717   2.34750
  Beta virt. eigenvalues --    2.36343   2.37651   2.37665   2.38242   2.40768
  Beta virt. eigenvalues --    2.43435   2.43446   2.44003   2.47086   2.47091
  Beta virt. eigenvalues --    2.48105   2.50932   2.50942   2.52160   2.53612
  Beta virt. eigenvalues --    2.53633   2.56875   2.56877   2.60419   2.60774
  Beta virt. eigenvalues --    2.62858   2.62861   2.69655   2.69657   2.84791
  Beta virt. eigenvalues --    2.86206   2.86235   2.86972   2.88092   2.88102
  Beta virt. eigenvalues --    2.93000   2.95390   2.95394   3.04995   3.05006
  Beta virt. eigenvalues --    3.07141   3.07363   3.07369   3.08407   3.09737
  Beta virt. eigenvalues --    3.09750   3.10882   3.15488   3.15509   3.16678
  Beta virt. eigenvalues --    3.20257   3.20265   3.22075   3.27666   3.46315
  Beta virt. eigenvalues --    3.46328   3.56359   3.70652   3.70661  21.19627
  Beta virt. eigenvalues --   21.51169  21.53286  21.53293  21.69199  21.69202
  Beta virt. eigenvalues --   21.73422  21.92779  21.92793  31.31688  31.50876
  Beta virt. eigenvalues --   31.50881
          Condensed to atoms (all electrons):
               1          2          3          4          5          6
     1  C    6.261260  -0.195756   0.548189  -0.094447  -0.067506  -0.006698
     2  C   -0.195756   6.262821  -0.094334   0.548320  -0.002308  -0.003519
     3  N    0.548189  -0.094334   6.300230  -0.004217   0.206264  -0.021866
     4  N   -0.094447   0.548320  -0.004217   6.300162  -0.000597  -0.000004
     5  C   -0.067506  -0.002308   0.206264  -0.000597   4.984864   0.406988
     6  H   -0.006698  -0.003519  -0.021866  -0.000004   0.406988   0.433647
     7  H   -0.010784   0.013102  -0.028489   0.000029   0.395862  -0.020541
     8  H    0.006505   0.000160  -0.025865   0.000008   0.396047  -0.012583
     9  C   -0.067637   0.003477   0.206183  -0.002122  -0.043584  -0.009584
    10  H    0.006545  -0.002722  -0.025847   0.000044   0.000630   0.001715
    11  H   -0.006741   0.006612  -0.021884   0.000130  -0.009567   0.000169
    12  H   -0.010787  -0.003938  -0.028432  -0.002460   0.008070  -0.000027
    13  C   -0.002345  -0.067527  -0.000597   0.206269  -0.000018  -0.000002
    14  H   -0.003521  -0.006720  -0.000004  -0.021884  -0.000002   0.000000
    15  H    0.013084  -0.010771   0.000029  -0.028451   0.000004  -0.000000
    16  H    0.000162   0.006536   0.000008  -0.025854   0.000000   0.000000
    17  C    0.003384  -0.067555  -0.002128   0.206251   0.000040  -0.000007
    18  H   -0.002736   0.006506   0.000044  -0.025874  -0.000001   0.000000
    19  H    0.006604  -0.006690   0.000129  -0.021864   0.000003   0.000000
    20  H   -0.003905  -0.010784  -0.002475  -0.028483  -0.000114  -0.000001
    21  C   -0.193636  -0.196009  -0.094322  -0.094370   0.003312   0.006610
    22  N   -0.094397  -0.094287  -0.004221  -0.004215  -0.002122   0.000129
    23  C    0.003305  -0.002258  -0.002125  -0.000597   0.002948  -0.000617
    24  H    0.006602  -0.003524   0.000128  -0.000004  -0.000614   0.000075
    25  H   -0.003922   0.013172  -0.002471   0.000029  -0.000166  -0.000987
    26  H   -0.002739   0.000160   0.000044   0.000008   0.000019   0.000001
    27  C   -0.002385   0.003549  -0.000597  -0.002122   0.000039   0.000003
    28  H    0.000165  -0.002730   0.000008   0.000044  -0.000001   0.000000
    29  H   -0.003519   0.006605  -0.000004   0.000129  -0.000007   0.000000
    30  H    0.013070  -0.003958   0.000029  -0.002468   0.000010  -0.000000
               7          8          9         10         11         12
     1  C   -0.010784   0.006505  -0.067637   0.006545  -0.006741  -0.010787
     2  C    0.013102   0.000160   0.003477  -0.002722   0.006612  -0.003938
     3  N   -0.028489  -0.025865   0.206183  -0.025847  -0.021884  -0.028432
     4  N    0.000029   0.000008  -0.002122   0.000044   0.000130  -0.002460
     5  C    0.395862   0.396047  -0.043584   0.000630  -0.009567   0.008070
     6  H   -0.020541  -0.012583  -0.009584   0.001715   0.000169  -0.000027
     7  H    0.504356  -0.018930   0.008072   0.000260  -0.000029  -0.000502
     8  H   -0.018930   0.441347   0.000643  -0.002002   0.001713   0.000258
     9  C    0.008072   0.000643   4.985157   0.395979   0.407015   0.395917
    10  H    0.000260  -0.002002   0.395979   0.441347  -0.012569  -0.018910
    11  H   -0.000029   0.001713   0.407015  -0.012569   0.433660  -0.020558
    12  H   -0.000502   0.000258   0.395917  -0.018910  -0.020558   0.504158
    13  C    0.000004   0.000000   0.000042  -0.000001   0.000003  -0.000114
    14  H   -0.000000   0.000000  -0.000007   0.000000   0.000000  -0.000001
    15  H   -0.000002   0.000000   0.000010  -0.000000  -0.000000   0.000018
    16  H    0.000000  -0.000000  -0.000001  -0.000000   0.000000   0.000011
    17  C    0.000010  -0.000001   0.003020   0.000019  -0.000628  -0.000155
    18  H   -0.000000  -0.000000   0.000019  -0.000001   0.000001   0.000303
    19  H   -0.000000   0.000000  -0.000625   0.000001   0.000076  -0.000984
    20  H    0.000018   0.000011  -0.000133   0.000303  -0.000990  -0.003277
    21  C   -0.003925  -0.002729  -0.002388   0.000161  -0.003517   0.013032
    22  N   -0.002458   0.000044  -0.000597   0.000008  -0.000004   0.000029
    23  C   -0.000186   0.000019   0.000038  -0.000001  -0.000007   0.000010
    24  H   -0.000982   0.000001   0.000003   0.000000   0.000000  -0.000000
    25  H   -0.003239   0.000303  -0.000113   0.000011  -0.000001   0.000018
    26  H    0.000303  -0.000001  -0.000001  -0.000000   0.000000  -0.000000
    27  C   -0.000113  -0.000001  -0.000018   0.000000  -0.000002   0.000004
    28  H    0.000011  -0.000000   0.000000  -0.000000   0.000000   0.000000
    29  H   -0.000001   0.000000  -0.000002   0.000000   0.000000  -0.000000
    30  H    0.000018  -0.000000   0.000004   0.000000  -0.000000  -0.000002
              13         14         15         16         17         18
     1  C   -0.002345  -0.003521   0.013084   0.000162   0.003384  -0.002736
     2  C   -0.067527  -0.006720  -0.010771   0.006536  -0.067555   0.006506
     3  N   -0.000597  -0.000004   0.000029   0.000008  -0.002128   0.000044
     4  N    0.206269  -0.021884  -0.028451  -0.025854   0.206251  -0.025874
     5  C   -0.000018  -0.000002   0.000004   0.000000   0.000040  -0.000001
     6  H   -0.000002   0.000000  -0.000000   0.000000  -0.000007   0.000000
     7  H    0.000004  -0.000000  -0.000002   0.000000   0.000010  -0.000000
     8  H    0.000000   0.000000   0.000000  -0.000000  -0.000001  -0.000000
     9  C    0.000042  -0.000007   0.000010  -0.000001   0.003020   0.000019
    10  H   -0.000001   0.000000  -0.000000  -0.000000   0.000019  -0.000001
    11  H    0.000003   0.000000  -0.000000   0.000000  -0.000628   0.000001
    12  H   -0.000114  -0.000001   0.000018   0.000011  -0.000155   0.000303
    13  C    4.984946   0.407027   0.395865   0.395998  -0.043655   0.000646
    14  H    0.407027   0.433662  -0.020539  -0.012588  -0.009579   0.001721
    15  H    0.395865  -0.020539   0.504242  -0.018915   0.008080   0.000259
    16  H    0.395998  -0.012588  -0.018915   0.441384   0.000627  -0.002001
    17  C   -0.043655  -0.009579   0.008080   0.000627   4.984900   0.396052
    18  H    0.000646   0.001721   0.000259  -0.002001   0.396052   0.441405
    19  H   -0.009577   0.000168  -0.000028   0.001721   0.406964  -0.012595
    20  H    0.008072  -0.000028  -0.000502   0.000260   0.395854  -0.018927
    21  C    0.003364   0.006605  -0.003959  -0.002723  -0.002335   0.000162
    22  N   -0.002125   0.000129  -0.002470   0.000044  -0.000597   0.000008
    23  C    0.000040   0.000003  -0.000114  -0.000001  -0.000018   0.000000
    24  H   -0.000007   0.000000  -0.000001   0.000000  -0.000002   0.000000
    25  H    0.000011  -0.000000   0.000018  -0.000000   0.000004   0.000000
    26  H   -0.000001   0.000000   0.000011  -0.000000   0.000000  -0.000000
    27  C    0.003009  -0.000624  -0.000149   0.000019   0.000041  -0.000001
    28  H    0.000019   0.000001   0.000303  -0.000001  -0.000001  -0.000000
    29  H   -0.000625   0.000076  -0.000987   0.000001   0.000003   0.000000
    30  H   -0.000150  -0.000987  -0.003266   0.000303  -0.000114   0.000011
              19         20         21         22         23         24
     1  C    0.006604  -0.003905  -0.193636  -0.094397   0.003305   0.006602
     2  C   -0.006690  -0.010784  -0.196009  -0.094287  -0.002258  -0.003524
     3  N    0.000129  -0.002475  -0.094322  -0.004221  -0.002125   0.000128
     4  N   -0.021864  -0.028483  -0.094370  -0.004215  -0.000597  -0.000004
     5  C    0.000003  -0.000114   0.003312  -0.002122   0.002948  -0.000614
     6  H    0.000000  -0.000001   0.006610   0.000129  -0.000617   0.000075
     7  H   -0.000000   0.000018  -0.003925  -0.002458  -0.000186  -0.000982
     8  H    0.000000   0.000011  -0.002729   0.000044   0.000019   0.000001
     9  C   -0.000625  -0.000133  -0.002388  -0.000597   0.000038   0.000003
    10  H    0.000001   0.000303   0.000161   0.000008  -0.000001   0.000000
    11  H    0.000076  -0.000990  -0.003517  -0.000004  -0.000007   0.000000
    12  H   -0.000984  -0.003277   0.013032   0.000029   0.000010  -0.000000
    13  C   -0.009577   0.008072   0.003364  -0.002125   0.000040  -0.000007
    14  H    0.000168  -0.000028   0.006605   0.000129   0.000003   0.000000
    15  H   -0.000028  -0.000502  -0.003959  -0.002470  -0.000114  -0.000001
    16  H    0.001721   0.000260  -0.002723   0.000044  -0.000001   0.000000
    17  C    0.406964   0.395854  -0.002335  -0.000597  -0.000018  -0.000002
    18  H   -0.012595  -0.018927   0.000162   0.000008   0.000000   0.000000
    19  H    0.433670  -0.020522  -0.003514  -0.000004  -0.000002   0.000000
    20  H   -0.020522   0.504278   0.013086   0.000029   0.000004  -0.000000
    21  C   -0.003514   0.013086   6.261378   0.548247  -0.067467  -0.006669
    22  N   -0.000004   0.000029   0.548247   6.300075   0.206345  -0.021858
    23  C   -0.000002   0.000004  -0.067467   0.206345   4.984608   0.406991
    24  H    0.000000  -0.000000  -0.006669  -0.021858   0.406991   0.433667
    25  H   -0.000000  -0.000002  -0.010765  -0.028532   0.395778  -0.020508
    26  H    0.000000   0.000000   0.006483  -0.025869   0.396079  -0.012615
    27  C   -0.000007   0.000010  -0.067675   0.206240  -0.043718  -0.009599
    28  H    0.000000  -0.000000   0.006546  -0.025861   0.000628   0.001727
    29  H    0.000000  -0.000000  -0.006722  -0.021873  -0.009564   0.000168
    30  H   -0.000001   0.000018  -0.010778  -0.028433   0.008079  -0.000028
              25         26         27         28         29         30
     1  C   -0.003922  -0.002739  -0.002385   0.000165  -0.003519   0.013070
     2  C    0.013172   0.000160   0.003549  -0.002730   0.006605  -0.003958
     3  N   -0.002471   0.000044  -0.000597   0.000008  -0.000004   0.000029
     4  N    0.000029   0.000008  -0.002122   0.000044   0.000129  -0.002468
     5  C   -0.000166   0.000019   0.000039  -0.000001  -0.000007   0.000010
     6  H   -0.000987   0.000001   0.000003   0.000000   0.000000  -0.000000
     7  H   -0.003239   0.000303  -0.000113   0.000011  -0.000001   0.000018
     8  H    0.000303  -0.000001  -0.000001  -0.000000   0.000000  -0.000000
     9  C   -0.000113  -0.000001  -0.000018   0.000000  -0.000002   0.000004
    10  H    0.000011  -0.000000   0.000000  -0.000000   0.000000   0.000000
    11  H   -0.000001   0.000000  -0.000002   0.000000   0.000000  -0.000000
    12  H    0.000018  -0.000000   0.000004   0.000000  -0.000000  -0.000002
    13  C    0.000011  -0.000001   0.003009   0.000019  -0.000625  -0.000150
    14  H   -0.000000   0.000000  -0.000624   0.000001   0.000076  -0.000987
    15  H    0.000018   0.000011  -0.000149   0.000303  -0.000987  -0.003266
    16  H   -0.000000  -0.000000   0.000019  -0.000001   0.000001   0.000303
    17  C    0.000004   0.000000   0.000041  -0.000001   0.000003  -0.000114
    18  H    0.000000  -0.000000  -0.000001  -0.000000   0.000000   0.000011
    19  H   -0.000000   0.000000  -0.000007   0.000000   0.000000  -0.000001
    20  H   -0.000002   0.000000   0.000010  -0.000000  -0.000000   0.000018
    21  C   -0.010765   0.006483  -0.067675   0.006546  -0.006722  -0.010778
    22  N   -0.028532  -0.025869   0.206240  -0.025861  -0.021873  -0.028433
    23  C    0.395778   0.396079  -0.043718   0.000628  -0.009564   0.008079
    24  H   -0.020508  -0.012615  -0.009599   0.001727   0.000168  -0.000028
    25  H    0.504434  -0.018934   0.008085   0.000260  -0.000030  -0.000502
    26  H   -0.018934   0.441413   0.000645  -0.002000   0.001725   0.000257
    27  C    0.008085   0.000645   4.985010   0.395992   0.407011   0.395869
    28  H    0.000260  -0.002000   0.395992   0.441426  -0.012587  -0.018916
    29  H   -0.000030   0.001725   0.407011  -0.012587   0.433660  -0.020539
    30  H   -0.000502   0.000257   0.395869  -0.018916  -0.020539   0.504229
          Atomic-Atomic Spin Densities.
               1          2          3          4          5          6
     1  C   -0.078675   0.059128  -0.067013  -0.005941   0.004732  -0.000168
     2  C    0.059128  -0.078644  -0.005941  -0.067014  -0.000788  -0.000050
     3  N   -0.067013  -0.005941   0.473333   0.001880  -0.029050  -0.006126
     4  N   -0.005941  -0.067014   0.001880   0.473364  -0.000073  -0.000002
     5  C    0.004732  -0.000788  -0.029050  -0.000073  -0.010798   0.008663
     6  H   -0.000168  -0.000050  -0.006126  -0.000002   0.008663   0.019164
     7  H   -0.000126  -0.000060  -0.000280   0.000007   0.000918  -0.000266
     8  H    0.000821   0.000048  -0.004533  -0.000001   0.004999  -0.002169
     9  C    0.004730   0.003008  -0.029049  -0.000377   0.002467   0.000162
    10  H    0.000816  -0.000112  -0.004514  -0.000009   0.000909   0.000457
    11  H   -0.000167   0.000402  -0.006133  -0.000026   0.000161  -0.000131
    12  H   -0.000114  -0.000122  -0.000289   0.000160  -0.000059  -0.000027
    13  C   -0.000786   0.004730  -0.000073  -0.029045  -0.000001  -0.000000
    14  H   -0.000049  -0.000166  -0.000002  -0.006131  -0.000000  -0.000000
    15  H   -0.000057  -0.000118   0.000007  -0.000284  -0.000001  -0.000000
    16  H    0.000048   0.000820  -0.000001  -0.004528   0.000000   0.000000
    17  C    0.003008   0.004730  -0.000378  -0.029047   0.000026   0.000002
    18  H   -0.000113   0.000820  -0.000009  -0.004535   0.000000  -0.000000
    19  H    0.000399  -0.000164  -0.000026  -0.006129   0.000002   0.000000
    20  H   -0.000121  -0.000124   0.000160  -0.000283   0.000000   0.000002
    21  C    0.059114   0.059094  -0.005925  -0.005928   0.003007   0.000401
    22  N   -0.005934  -0.005936   0.001879   0.001879  -0.000378  -0.000026
    23  C    0.003004  -0.000786  -0.000378  -0.000073   0.000192  -0.000039
    24  H    0.000399  -0.000049  -0.000026  -0.000002  -0.000040  -0.000022
    25  H   -0.000115  -0.000056   0.000162   0.000007  -0.000047  -0.000060
    26  H   -0.000114   0.000048  -0.000009  -0.000001   0.000023   0.000006
    27  C   -0.000789   0.003004  -0.000073  -0.000378   0.000026   0.000002
    28  H    0.000048  -0.000112  -0.000001  -0.000009  -0.000001  -0.000000
    29  H   -0.000050   0.000399  -0.000002  -0.000026   0.000002   0.000000
    30  H   -0.000058  -0.000124   0.000007   0.000159   0.000001   0.000000
               7          8          9         10         11         12
     1  C   -0.000126   0.000821   0.004730   0.000816  -0.000167  -0.000114
     2  C   -0.000060   0.000048   0.003008  -0.000112   0.000402  -0.000122
     3  N   -0.000280  -0.004533  -0.029049  -0.004514  -0.006133  -0.000289
     4  N    0.000007  -0.000001  -0.000377  -0.000009  -0.000026   0.000160
     5  C    0.000918   0.004999   0.002467   0.000909   0.000161  -0.000059
     6  H   -0.000266  -0.002169   0.000162   0.000457  -0.000131  -0.000027
     7  H    0.001248  -0.000054  -0.000060   0.000019  -0.000028  -0.000012
     8  H   -0.000054   0.013953   0.000912  -0.000278   0.000458   0.000018
     9  C   -0.000060   0.000912  -0.010802   0.004981   0.008675   0.000922
    10  H    0.000019  -0.000278   0.004981   0.013899  -0.002165  -0.000047
    11  H   -0.000028   0.000458   0.008675  -0.002165   0.019186  -0.000274
    12  H   -0.000012   0.000018   0.000922  -0.000047  -0.000274   0.001267
    13  C   -0.000001   0.000000   0.000026   0.000000   0.000002   0.000001
    14  H   -0.000000   0.000000   0.000002  -0.000000   0.000000   0.000002
    15  H   -0.000001   0.000000   0.000002  -0.000000   0.000000   0.000003
    16  H    0.000000  -0.000000  -0.000001   0.000000  -0.000000  -0.000002
    17  C    0.000002  -0.000001   0.000189   0.000023  -0.000040  -0.000043
    18  H   -0.000000   0.000000   0.000023  -0.000000   0.000006   0.000012
    19  H    0.000000  -0.000000  -0.000041   0.000006  -0.000022  -0.000058
    20  H    0.000003  -0.000002  -0.000044   0.000012  -0.000059  -0.000088
    21  C   -0.000117  -0.000113  -0.000790   0.000048  -0.000051  -0.000059
    22  N    0.000162  -0.000009  -0.000073  -0.000001  -0.000002   0.000007
    23  C   -0.000045   0.000023   0.000026  -0.000001   0.000002   0.000001
    24  H   -0.000059   0.000006   0.000002  -0.000000   0.000000   0.000000
    25  H   -0.000089   0.000012   0.000001  -0.000002   0.000002   0.000003
    26  H    0.000012  -0.000000   0.000000   0.000000  -0.000000  -0.000000
    27  C    0.000001   0.000000  -0.000001   0.000000  -0.000000  -0.000001
    28  H   -0.000002   0.000000   0.000000  -0.000000   0.000000   0.000000
    29  H    0.000002  -0.000000  -0.000000   0.000000  -0.000000  -0.000000
    30  H    0.000003  -0.000000  -0.000001   0.000000  -0.000000  -0.000001
              13         14         15         16         17         18
     1  C   -0.000786  -0.000049  -0.000057   0.000048   0.003008  -0.000113
     2  C    0.004730  -0.000166  -0.000118   0.000820   0.004730   0.000820
     3  N   -0.000073  -0.000002   0.000007  -0.000001  -0.000378  -0.000009
     4  N   -0.029045  -0.006131  -0.000284  -0.004528  -0.029047  -0.004535
     5  C   -0.000001  -0.000000  -0.000001   0.000000   0.000026   0.000000
     6  H   -0.000000  -0.000000  -0.000000   0.000000   0.000002  -0.000000
     7  H   -0.000001  -0.000000  -0.000001   0.000000   0.000002  -0.000000
     8  H    0.000000   0.000000   0.000000  -0.000000  -0.000001   0.000000
     9  C    0.000026   0.000002   0.000002  -0.000001   0.000189   0.000023
    10  H    0.000000  -0.000000  -0.000000   0.000000   0.000023  -0.000000
    11  H    0.000002   0.000000   0.000000  -0.000000  -0.000040   0.000006
    12  H    0.000001   0.000002   0.000003  -0.000002  -0.000043   0.000012
    13  C   -0.010804   0.008674   0.000920   0.004989   0.002467   0.000914
    14  H    0.008674   0.019175  -0.000271  -0.002168   0.000161   0.000459
    15  H    0.000920  -0.000271   0.001254  -0.000050  -0.000060   0.000019
    16  H    0.004989  -0.002168  -0.000050   0.013937   0.000912  -0.000278
    17  C    0.002467   0.000161  -0.000060   0.000912  -0.010800   0.004996
    18  H    0.000914   0.000459   0.000019  -0.000278   0.004996   0.013960
    19  H    0.000160  -0.000131  -0.000027   0.000458   0.008667  -0.002169
    20  H   -0.000060  -0.000027  -0.000012   0.000019   0.000918  -0.000051
    21  C    0.003002   0.000398  -0.000123  -0.000112  -0.000787   0.000047
    22  N   -0.000378  -0.000026   0.000159  -0.000009  -0.000073  -0.000001
    23  C    0.000026   0.000002   0.000001   0.000000  -0.000001   0.000000
    24  H    0.000002   0.000000   0.000002  -0.000000  -0.000000   0.000000
    25  H    0.000002   0.000000   0.000003  -0.000000  -0.000001   0.000000
    26  H   -0.000001  -0.000000  -0.000002   0.000000   0.000000  -0.000000
    27  C    0.000189  -0.000040  -0.000044   0.000023   0.000026  -0.000001
    28  H    0.000023   0.000006   0.000012  -0.000000   0.000000   0.000000
    29  H   -0.000040  -0.000022  -0.000059   0.000006   0.000002  -0.000000
    30  H   -0.000044  -0.000059  -0.000088   0.000012   0.000001  -0.000002
              19         20         21         22         23         24
     1  C    0.000399  -0.000121   0.059114  -0.005934   0.003004   0.000399
     2  C   -0.000164  -0.000124   0.059094  -0.005936  -0.000786  -0.000049
     3  N   -0.000026   0.000160  -0.005925   0.001879  -0.000378  -0.000026
     4  N   -0.006129  -0.000283  -0.005928   0.001879  -0.000073  -0.000002
     5  C    0.000002   0.000000   0.003007  -0.000378   0.000192  -0.000040
     6  H    0.000000   0.000002   0.000401  -0.000026  -0.000039  -0.000022
     7  H    0.000000   0.000003  -0.000117   0.000162  -0.000045  -0.000059
     8  H   -0.000000  -0.000002  -0.000113  -0.000009   0.000023   0.000006
     9  C   -0.000041  -0.000044  -0.000790  -0.000073   0.000026   0.000002
    10  H    0.000006   0.000012   0.000048  -0.000001  -0.000001  -0.000000
    11  H   -0.000022  -0.000059  -0.000051  -0.000002   0.000002   0.000000
    12  H   -0.000058  -0.000088  -0.000059   0.000007   0.000001   0.000000
    13  C    0.000160  -0.000060   0.003002  -0.000378   0.000026   0.000002
    14  H   -0.000131  -0.000027   0.000398  -0.000026   0.000002   0.000000
    15  H   -0.000027  -0.000012  -0.000123   0.000159   0.000001   0.000002
    16  H    0.000458   0.000019  -0.000112  -0.000009   0.000000  -0.000000
    17  C    0.008667   0.000918  -0.000787  -0.000073  -0.000001  -0.000000
    18  H   -0.002169  -0.000051   0.000047  -0.000001   0.000000   0.000000
    19  H    0.019156  -0.000269  -0.000048  -0.000002  -0.000000  -0.000000
    20  H   -0.000269   0.001248  -0.000055   0.000007  -0.000001  -0.000000
    21  C   -0.000048  -0.000055  -0.078691  -0.066999   0.004732  -0.000165
    22  N   -0.000002   0.000007  -0.066999   0.473346  -0.029045  -0.006126
    23  C   -0.000000  -0.000001   0.004732  -0.029045  -0.010804   0.008657
    24  H   -0.000000  -0.000000  -0.000165  -0.006126   0.008657   0.019148
    25  H   -0.000000  -0.000001  -0.000136  -0.000274   0.000915  -0.000261
    26  H    0.000000   0.000000   0.000824  -0.004551   0.005012  -0.002174
    27  C    0.000002   0.000002   0.004728  -0.029038   0.002468   0.000160
    28  H   -0.000000  -0.000000   0.000820  -0.004528   0.000913   0.000459
    29  H    0.000000   0.000000  -0.000168  -0.006127   0.000160  -0.000131
    30  H    0.000002   0.000003  -0.000116  -0.000285  -0.000060  -0.000027
              25         26         27         28         29         30
     1  C   -0.000115  -0.000114  -0.000789   0.000048  -0.000050  -0.000058
     2  C   -0.000056   0.000048   0.003004  -0.000112   0.000399  -0.000124
     3  N    0.000162  -0.000009  -0.000073  -0.000001  -0.000002   0.000007
     4  N    0.000007  -0.000001  -0.000378  -0.000009  -0.000026   0.000159
     5  C   -0.000047   0.000023   0.000026  -0.000001   0.000002   0.000001
     6  H   -0.000060   0.000006   0.000002  -0.000000   0.000000   0.000000
     7  H   -0.000089   0.000012   0.000001  -0.000002   0.000002   0.000003
     8  H    0.000012  -0.000000   0.000000   0.000000  -0.000000  -0.000000
     9  C    0.000001   0.000000  -0.000001   0.000000  -0.000000  -0.000001
    10  H   -0.000002   0.000000   0.000000  -0.000000   0.000000   0.000000
    11  H    0.000002  -0.000000  -0.000000   0.000000  -0.000000  -0.000000
    12  H    0.000003  -0.000000  -0.000001   0.000000  -0.000000  -0.000001
    13  C    0.000002  -0.000001   0.000189   0.000023  -0.000040  -0.000044
    14  H    0.000000  -0.000000  -0.000040   0.000006  -0.000022  -0.000059
    15  H    0.000003  -0.000002  -0.000044   0.000012  -0.000059  -0.000088
    16  H   -0.000000   0.000000   0.000023  -0.000000   0.000006   0.000012
    17  C   -0.000001   0.000000   0.000026   0.000000   0.000002   0.000001
    18  H    0.000000  -0.000000  -0.000001   0.000000  -0.000000  -0.000002
    19  H   -0.000000   0.000000   0.000002  -0.000000   0.000000   0.000002
    20  H   -0.000001   0.000000   0.000002  -0.000000   0.000000   0.000003
    21  C   -0.000136   0.000824   0.004728   0.000820  -0.000168  -0.000116
    22  N   -0.000274  -0.004551  -0.029038  -0.004528  -0.006127  -0.000285
    23  C    0.000915   0.005012   0.002468   0.000913   0.000160  -0.000060
    24  H   -0.000261  -0.002174   0.000160   0.000459  -0.000131  -0.000027
    25  H    0.001231  -0.000058  -0.000061   0.000019  -0.000028  -0.000012
    26  H   -0.000058   0.014008   0.000916  -0.000279   0.000460   0.000019
    27  C   -0.000061   0.000916  -0.010810   0.004986   0.008671   0.000920
    28  H    0.000019  -0.000279   0.004986   0.013930  -0.002168  -0.000049
    29  H   -0.000028   0.000460   0.008671  -0.002168   0.019175  -0.000272
    30  H   -0.000012   0.000019   0.000920  -0.000049  -0.000272   0.001258
 Mulliken charges and spin densities:
               1          2
     1  C   -0.095417  -0.024142
     2  C   -0.095630  -0.024136
     3  N    0.098592   0.317596
     4  N    0.098607   0.317613
     5  C   -0.278494  -0.015103
     6  H    0.227098   0.019773
     7  H    0.168137   0.001176
     8  H    0.215051   0.014091
     9  C   -0.278769  -0.015112
    10  H    0.215030   0.014042
    11  H    0.227117   0.019797
    12  H    0.168320   0.001199
    13  C   -0.278571  -0.015109
    14  H    0.227089   0.019786
    15  H    0.168232   0.001184
    16  H    0.215010   0.014075
    17  C   -0.278475  -0.015101
    18  H    0.215000   0.014096
    19  H    0.227077   0.019767
    20  H    0.168202   0.001177
    21  C   -0.095484  -0.024166
    22  N    0.098594   0.317618
    23  C   -0.278202  -0.015100
    24  H    0.227046   0.019755
    25  H    0.168050   0.001155
    26  H    0.215012   0.014139
    27  C   -0.278516  -0.015112
    28  H    0.214968   0.014067
    29  H    0.227081   0.019785
    30  H    0.168248   0.001188
 Sum of Mulliken charges =   2.00000   1.00000
 Mulliken charges and spin densities with hydrogens summed into heavy atoms:
               1          2
     1  C   -0.095417  -0.024142
     2  C   -0.095630  -0.024136
     3  N    0.098592   0.317596
     4  N    0.098607   0.317613
     5  C    0.331791   0.019936
     9  C    0.331698   0.019926
    13  C    0.331760   0.019935
    17  C    0.331803   0.019939
    21  C   -0.095484  -0.024166
    22  N    0.098594   0.317618
    23  C    0.331906   0.019950
    27  C    0.331781   0.019929
 Electronic spatial extent (au):  <R**2>=           2550.8258
 Charge=              2.0000 electrons
 Dipole moment (field-independent basis, Debye):
    X=              0.0001    Y=              0.0000    Z=              0.0006  Tot=              0.0006
 Quadrupole moment (field-independent basis, Debye-Ang):
   XX=            -17.5109   YY=            -17.5188   ZZ=            -66.4834
   XY=             -0.0002   XZ=             -0.0014   YZ=              0.0008
 Traceless Quadrupole moment (field-independent basis, Debye-Ang):
   XX=             16.3268   YY=             16.3189   ZZ=            -32.6457
   XY=             -0.0002   XZ=             -0.0014   YZ=              0.0008
 Octapole moment (field-independent basis, Debye-Ang**2):
  XXX=             16.3302  YYY=             28.6664  ZZZ=              0.0021  XYY=            -16.3309
  XXY=            -28.6870  XXZ=              0.0024  XZZ=              0.0051  YZZ=              0.0053
  YYZ=              0.0028  XYZ=              0.0031
 Hexadecapole moment (field-independent basis, Debye-Ang**3):
 XXXX=          -1072.3530 YYYY=          -1072.1482 ZZZZ=           -120.2550 XXXY=             -0.0202
 XXXZ=              8.1411 YYYX=              0.0205 YYYZ=             -4.6176 ZZZX=             -0.0256
 ZZZY=              0.0058 XXYY=           -357.3742 XXZZ=           -244.8638 YYZZ=           -244.8453
 XXYZ=              4.6188 YYXZ=             -8.1090 ZZXY=             -0.0166
 N-N= 7.407629817128D+02 E-N=-2.652484942084D+03  KE= 5.146049575552D+02
                          Isotropic Fermi Contact Couplings
        Atom                 a.u.       MegaHertz       Gauss      10(-4) cm-1
     1  C(13)             -0.01054     -11.84571      -4.22684      -3.95130
     2  C(13)             -0.01054     -11.84675      -4.22722      -3.95165
     3  N(14)              0.03117      10.07125       3.59367       3.35941
     4  N(14)              0.03117      10.07158       3.59379       3.35952
     5  C(13)             -0.00847      -9.51629      -3.39565      -3.17429
     6  H(1)               0.00998      44.61737      15.92059      14.88275
     7  H(1)               0.00072       3.24039       1.15625       1.08088
     8  H(1)               0.00705      31.52365      11.24842      10.51516
     9  C(13)             -0.00847      -9.51736      -3.39603      -3.17465
    10  H(1)               0.00703      31.41931      11.21119      10.48035
    11  H(1)               0.00999      44.66453      15.93741      14.89848
    12  H(1)               0.00073       3.28216       1.17116       1.09481
    13  C(13)             -0.00847      -9.51923      -3.39670      -3.17527
    14  H(1)               0.00999      44.63842      15.92810      14.88977
    15  H(1)               0.00073       3.25126       1.16013       1.08450
    16  H(1)               0.00704      31.48695      11.23533      10.50292
    17  C(13)             -0.00846      -9.51552      -3.39537      -3.17403
    18  H(1)               0.00705      31.53158      11.25125      10.51780
    19  H(1)               0.00998      44.60454      15.91601      14.87847
    20  H(1)               0.00072       3.23674       1.15495       1.07966
    21  C(13)             -0.01054     -11.84772      -4.22756      -3.95197
    22  N(14)              0.03117      10.07205       3.59396       3.35967
    23  C(13)             -0.00847      -9.51850      -3.39644      -3.17503
    24  H(1)               0.00997      44.57397      15.90510      14.86828
    25  H(1)               0.00072       3.19635       1.14054       1.06619
    26  H(1)               0.00707      31.62374      11.28414      10.54854
    27  C(13)             -0.00847      -9.51713      -3.39595      -3.17457
    28  H(1)               0.00704      31.46615      11.22790      10.49598
    29  H(1)               0.00999      44.63696      15.92758      14.88929
    30  H(1)               0.00073       3.26016       1.16331       1.08747
 --------------------------------------------------------
       Center         ----  Spin Dipole Couplings  ----
                      3XX-RR        3YY-RR        3ZZ-RR
 --------------------------------------------------------
     1   Atom        0.017384      0.010261     -0.027645
     2   Atom       -0.005005      0.032655     -0.027650
     3   Atom       -0.385558     -0.378778      0.764337
     4   Atom       -0.364422     -0.400017      0.764439
     5   Atom       -0.010263      0.002430      0.007833
     6   Atom       -0.003734      0.006035     -0.002300
     7   Atom        0.001338      0.002353     -0.003692
     8   Atom       -0.000786      0.003637     -0.002851
     9   Atom        0.001577     -0.009387      0.007809
    10   Atom        0.004584     -0.001720     -0.002864
    11   Atom        0.005887     -0.003595     -0.002292
    12   Atom        0.001387      0.002306     -0.003693
    13   Atom       -0.003654     -0.004158      0.007812
    14   Atom       -0.000145      0.002439     -0.002294
    15   Atom        0.004399     -0.000704     -0.003695
    16   Atom       -0.001969      0.004827     -0.002858
    17   Atom        0.000401     -0.008230      0.007829
    18   Atom       -0.000125      0.002975     -0.002850
    19   Atom        0.003166     -0.000864     -0.002302
    20   Atom        0.004413     -0.000720     -0.003693
    21   Atom        0.029110     -0.001463     -0.027647
    22   Atom       -0.396659     -0.367724      0.764383
    23   Atom       -0.009650      0.001814      0.007836
    24   Atom       -0.002292      0.004597     -0.002305
    25   Atom       -0.000248      0.003942     -0.003693
    26   Atom        0.001667      0.001176     -0.002843
    27   Atom       -0.001881     -0.005930      0.007811
    28   Atom        0.005197     -0.002340     -0.002857
    29   Atom        0.004010     -0.001713     -0.002297
    30   Atom       -0.000214      0.003907     -0.003693
 --------------------------------------------------------
                        XY            XZ            YZ
 --------------------------------------------------------
     1   Atom        0.019698      0.012760     -0.015229
     2   Atom       -0.006771     -0.019585     -0.003449
     3   Atom       -0.018631     -0.131124      0.157144
     4   Atom        0.006389      0.201492      0.035058
     5   Atom       -0.001317     -0.004418     -0.003688
     6   Atom        0.000494      0.000893      0.004252
     7   Atom       -0.002671      0.001078     -0.002718
     8   Atom        0.003071     -0.002198     -0.004138
     9   Atom       -0.003459      0.004401      0.003696
    10   Atom        0.002108      0.004454      0.001419
    11   Atom       -0.001257     -0.004345     -0.000115
    12   Atom       -0.002678      0.002487     -0.001546
    13   Atom        0.006479      0.001003     -0.005654
    14   Atom        0.004731      0.002067      0.003824
    15   Atom        0.000944     -0.002576     -0.001379
    16   Atom        0.001677     -0.000996     -0.004573
    17   Atom       -0.004837     -0.000995      0.005669
    18   Atom       -0.003451     -0.002486      0.003973
    19   Atom       -0.004477      0.003235     -0.002899
    20   Atom        0.000898     -0.002892      0.000426
    21   Atom       -0.012925      0.006858      0.018643
    22   Atom        0.012233     -0.070380     -0.192241
    23   Atom       -0.003027     -0.005403      0.001978
    24   Atom       -0.003498      0.002285     -0.003694
    25   Atom        0.001739      0.000094      0.002916
    26   Atom       -0.003772     -0.003477      0.003153
    27   Atom        0.006159      0.005389     -0.001983
    28   Atom        0.000384      0.004677      0.000170
    29   Atom        0.003985     -0.004127     -0.001357
    30   Atom        0.001774      0.001816      0.002293
 --------------------------------------------------------


 ---------------------------------------------------------------------------------
              Anisotropic Spin Dipole Couplings in Principal Axis System
 ---------------------------------------------------------------------------------

       Atom             a.u.   MegaHertz   Gauss  10(-4) cm-1        Axes

              Baa    -0.0395    -5.300    -1.891    -1.768 -0.3287  0.3930  0.8588
     1 C(13)  Bbb     0.0057     0.759     0.271     0.253 -0.5502  0.6594 -0.5123
              Bcc     0.0338     4.541     1.620     1.515  0.7676  0.6409  0.0006
 
              Baa    -0.0395    -5.303    -1.892    -1.769  0.5047  0.0884  0.8588
     2 C(13)  Bbb     0.0057     0.762     0.272     0.254  0.8461  0.1469 -0.5124
              Bcc     0.0338     4.540     1.620     1.515 -0.1714  0.9852 -0.0007
 
              Baa    -0.4011   -15.470    -5.520    -5.160  0.7674  0.6411 -0.0001
     3 N(14)  Bbb    -0.3992   -15.397    -5.494    -5.136 -0.6314  0.7558 -0.1732
              Bcc     0.8003    30.867    11.014    10.296 -0.1110  0.1330  0.9849
 
              Baa    -0.4011   -15.471    -5.520    -5.160 -0.1727  0.9850  0.0002
     4 N(14)  Bbb    -0.3993   -15.398    -5.495    -5.136  0.9701  0.1701 -0.1731
              Bcc     0.8004    30.869    11.015    10.297  0.1705  0.0297  0.9849
 
              Baa    -0.0116    -1.559    -0.556    -0.520  0.9567  0.1545  0.2466
     5 C(13)  Bbb     0.0013     0.179     0.064     0.060 -0.2371  0.9052  0.3527
              Bcc     0.0103     1.379     0.492     0.460 -0.1688 -0.3959  0.9026
 
              Baa    -0.0046    -2.447    -0.873    -0.816 -0.6195 -0.2667  0.7383
     6 H(1)   Bbb    -0.0033    -1.756    -0.626    -0.586  0.7819 -0.2924  0.5505
              Bcc     0.0079     4.202     1.500     1.402  0.0690  0.9183  0.3897
 
              Baa    -0.0047    -2.526    -0.901    -0.843 -0.0098  0.3548  0.9349
     7 H(1)   Bbb    -0.0007    -0.369    -0.131    -0.123  0.8174  0.5414 -0.1969
              Bcc     0.0054     2.895     1.033     0.966 -0.5760  0.7622 -0.2954
 
              Baa    -0.0050    -2.669    -0.952    -0.890  0.2115  0.3601  0.9086
     8 H(1)   Bbb    -0.0024    -1.258    -0.449    -0.420  0.8840 -0.4671 -0.0207
              Bcc     0.0074     3.927     1.401     1.310  0.4170  0.8076 -0.4170
 
              Baa    -0.0116    -1.557    -0.556    -0.519  0.3222  0.9139 -0.2470
     9 C(13)  Bbb     0.0014     0.182     0.065     0.061  0.8485 -0.3945 -0.3527
              Bcc     0.0102     1.375     0.491     0.459  0.4197  0.0960  0.9026
 
              Baa    -0.0050    -2.669    -0.952    -0.890 -0.3913 -0.1419  0.9093
    10 H(1)   Bbb    -0.0024    -1.259    -0.449    -0.420 -0.3015  0.9533  0.0190
              Bcc     0.0074     3.927     1.401     1.310  0.8695  0.2668  0.4158
 
              Baa    -0.0046    -2.444    -0.872    -0.815  0.3737  0.5624  0.7376
    11 H(1)   Bbb    -0.0033    -1.756    -0.626    -0.586 -0.1484  0.8212 -0.5510
              Bcc     0.0079     4.200     1.499     1.401  0.9156 -0.0964 -0.3903
 
              Baa    -0.0047    -2.528    -0.902    -0.843 -0.3476  0.0730  0.9348
    12 H(1)   Bbb    -0.0007    -0.367    -0.131    -0.122  0.6780  0.7082  0.1968
              Bcc     0.0054     2.895     1.033     0.966 -0.6477  0.7022 -0.2956
 
              Baa    -0.0116    -1.557    -0.556    -0.520 -0.6306  0.7358  0.2468
    13 C(13)  Bbb     0.0014     0.182     0.065     0.061  0.7657  0.5380  0.3524
              Bcc     0.0102     1.375     0.491     0.459 -0.1265 -0.4112  0.9027
 
              Baa    -0.0046    -2.445    -0.873    -0.816  0.3002 -0.6042  0.7381
    14 H(1)   Bbb    -0.0033    -1.754    -0.626    -0.585  0.7860 -0.2818 -0.5503
              Bcc     0.0079     4.200     1.499     1.401  0.5405  0.7453  0.3903
 
              Baa    -0.0047    -2.527    -0.902    -0.843  0.2363  0.2644  0.9350
    15 H(1)   Bbb    -0.0007    -0.369    -0.132    -0.123 -0.2742  0.9413 -0.1969
              Bcc     0.0054     2.895     1.033     0.966  0.9322  0.2099 -0.2949
 
              Baa    -0.0050    -2.669    -0.952    -0.890  0.0714  0.4107  0.9090
    16 H(1)   Bbb    -0.0024    -1.259    -0.449    -0.420  0.9764 -0.2149  0.0204
              Bcc     0.0074     3.928     1.402     1.310  0.2037  0.8861 -0.4164
 
              Baa    -0.0116    -1.558    -0.556    -0.520  0.3443  0.9059 -0.2465
    17 C(13)  Bbb     0.0013     0.179     0.064     0.060  0.9023 -0.2467  0.3536
              Bcc     0.0103     1.379     0.492     0.460 -0.2595  0.3442  0.9023
 
              Baa    -0.0050    -2.669    -0.952    -0.890  0.2061 -0.3633  0.9086
    18 H(1)   Bbb    -0.0024    -1.257    -0.449    -0.419  0.8464  0.5322  0.0209
              Bcc     0.0074     3.926     1.401     1.310 -0.4911  0.7647  0.4172
 
              Baa    -0.0046    -2.447    -0.873    -0.816  0.0781  0.6693  0.7389
    19 H(1)   Bbb    -0.0033    -1.755    -0.626    -0.585  0.6442  0.5317 -0.5497
              Bcc     0.0079     4.202     1.500     1.402  0.7608 -0.5190  0.3897
 
              Baa    -0.0047    -2.527    -0.902    -0.843  0.3121 -0.1690  0.9349
    20 H(1)   Bbb    -0.0007    -0.368    -0.131    -0.123 -0.0606  0.9785  0.1971
              Bcc     0.0054     2.895     1.033     0.966  0.9481  0.1182 -0.2952
 
              Baa    -0.0395    -5.300    -1.891    -1.768 -0.1764 -0.4809  0.8588
    21 C(13)  Bbb     0.0057     0.759     0.271     0.253  0.2947  0.8067  0.5123
              Bcc     0.0338     4.541     1.620     1.515  0.9392 -0.3435  0.0006
 
              Baa    -0.4011   -15.471    -5.520    -5.161  0.9389 -0.3441 -0.0001
    22 N(14)  Bbb    -0.3993   -15.399    -5.495    -5.136  0.3389  0.9247  0.1733
              Bcc     0.8004    30.870    11.015    10.297 -0.0596 -0.1627  0.9849
 
              Baa    -0.0116    -1.559    -0.556    -0.520  0.9526  0.1784  0.2465
    23 C(13)  Bbb     0.0013     0.179     0.064     0.060 -0.0832  0.9320 -0.3529
              Bcc     0.0103     1.379     0.492     0.460 -0.2927  0.3156  0.9026
 
              Baa    -0.0046    -2.449    -0.874    -0.817 -0.6723  0.0412  0.7392
    24 H(1)   Bbb    -0.0033    -1.754    -0.626    -0.585  0.6373  0.5403  0.5495
              Bcc     0.0079     4.203     1.500     1.402 -0.3767  0.8405 -0.3895
 
              Baa    -0.0047    -2.525    -0.901    -0.842  0.1109 -0.3366  0.9351
    25 H(1)   Bbb    -0.0007    -0.370    -0.132    -0.123  0.9523 -0.2333 -0.1969
              Bcc     0.0054     2.895     1.033     0.966  0.2845  0.9123  0.2946
 
              Baa    -0.0050    -2.670    -0.953    -0.890  0.3227 -0.2665  0.9082
    26 H(1)   Bbb    -0.0024    -1.257    -0.449    -0.419  0.6734  0.7390 -0.0224
              Bcc     0.0074     3.927     1.401     1.310  0.6652 -0.6188 -0.4179
 
              Baa    -0.0116    -1.557    -0.556    -0.519 -0.6124  0.7510  0.2467
    27 C(13)  Bbb     0.0014     0.182     0.065     0.061  0.6650  0.6582 -0.3529
              Bcc     0.0102     1.375     0.491     0.459  0.4274  0.0521  0.9026
 
              Baa    -0.0050    -2.669    -0.952    -0.890 -0.4169  0.0020  0.9090
    28 H(1)   Bbb    -0.0024    -1.258    -0.449    -0.420 -0.0385  0.9991 -0.0199
              Bcc     0.0074     3.927     1.401     1.310  0.9081  0.0433  0.4164
 
              Baa    -0.0046    -2.445    -0.873    -0.816  0.5413 -0.4026  0.7382
    29 H(1)   Bbb    -0.0033    -1.755    -0.626    -0.585 -0.1383  0.8234  0.5504
              Bcc     0.0079     4.200     1.499     1.401  0.8294  0.4000 -0.3900
 
              Baa    -0.0047    -2.527    -0.902    -0.843 -0.3024 -0.1859  0.9349
    30 H(1)   Bbb    -0.0007    -0.368    -0.131    -0.123  0.8776 -0.4370  0.1970
              Bcc     0.0054     2.895     1.033     0.966  0.3719  0.8800  0.2954
 

 ---------------------------------------------------------------------------------

 No NMR shielding tensors so no spin-rotation constants.
 Leave Link  601 at Mon Jan 25 21:37:53 2021, MaxMem=  4026531840 cpu:              11.7 elap:               2.4
 (Enter /opt/ohpc/pub/libs/gaussian/g16-A.03/sandybridge/g16/l9999.exe)

 Test job not archived.
 1\1\GINC-CNODE237\SP\ULC-wHPBE\TZVP\C9H18N3(2+,2)\RDU230\25-Jan-2021\0
 \\#P LC-wHPBE/TZVP iop(3/107=0236900000, 3/108=0236900000) scf=(conver
 =6,fermi,ndamp=35,noincfock,novaracc,vshift=500,xqc)\\H18 C9 N3\\2,2\C
 ,0,-0.610862,0.51088,0.000115\C,0,-0.136805,-0.784324,0.000118\N,0,-1.
 625284,1.358829,0.000149\N,0,-0.364248,-2.086765,0.000256\C,0,-1.43024
 7,2.779535,-0.245115\H,0,-1.514482,3.356239,0.681778\H,0,-0.453085,2.9
 53583,-0.69457\H,0,-2.189123,3.132424,-0.948067\C,0,-2.988895,0.914734
 ,0.244915\H,0,-3.47163,1.599951,0.946347\H,0,-3.570653,0.893667,-0.682
 419\H,0,-2.986873,-0.077069,0.695991\C,0,0.701968,-3.045906,0.244739\H
 ,0,1.009895,-3.54009,-0.68252\H,0,1.56061,-2.548225,0.694397\H,0,0.350
 361,-3.805818,0.947208\C,0,-1.692259,-2.627901,-0.244928\H,0,-1.618712
 ,-3.461412,-0.948079\H,0,-2.149477,-2.989362,0.681963\H,0,-2.331523,-1
 .86843,-0.69401\C,0,0.747831,0.27381,0.000062\N,0,1.989493,0.728067,-0
 .000089\C,0,2.287295,2.130832,0.245062\H,0,2.563599,2.644356,-0.681638
 \H,0,1.426241,2.626112,0.692731\H,0,3.119706,2.205914,0.949371\C,0,3.1
 22069,-0.151615,-0.24503\H,0,3.807758,0.3292,-0.947323\H,0,3.663007,-0
 .367678,0.682084\H,0,2.784087,-1.084552,-0.695089\\Version=EM64L-G16Re
 vA.03\State=2-A\HF=-517.0693889\S2=0.774928\S2-1=0.\S2A=0.750387\RMSD=
 6.446e-07\Dipole=0.0000325,-0.0000171,-0.000243\Quadrupole=12.1385704,
 12.1326943,-24.2712647,0.0001771,0.0010126,0.0006273\PG=C01 [X(C9H18N3
 )]\\@


 IT PROBABLY IS NOT POSSIBLE FOR A SCIENTIST TO INTERROGATE NATURE 
 FROM A WHOLLY DISINTERESTED VIEWPOINT.
 EVEN IF HE HAS NO PARTICULAR AXE TO GRIND, HE IS LIKELY TO HAVE 
 A DISTINCTIVE WAY OF VIEWING NATURE.

                                                   -- JOHN LOSEE
 Job cpu time:       0 days  0 hours 30 minutes 24.6 seconds.
 Elapsed time:       0 days  0 hours  3 minutes 59.3 seconds.
 File lengths (MBytes):  RWF=    112 Int=      0 D2E=      0 Chk=     16 Scr=      8
 Normal termination of Gaussian 16 at Mon Jan 25 21:37:54 2021.
