 Entering Gaussian System, Link 0=g16
 Input=mol_NN_cp_frag_tune_n1.gjf
 Output=mol_NN_cp_frag_tune_n1.log
 Initial command:
 /opt/ohpc/pub/libs/gaussian/g16-A.03/sandybridge/g16/l1.exe "/mnt/gpfs2_4m/scratch/rdu230/ondemand/projects/init_structures/gaussian/wtuning/mol_NN_cp_frag/tuning_mol_NN_cp_frag_ocycle0/Gau-14391.inp" -scrdir="/mnt/gpfs2_4m/scratch/rdu230/ondemand/projects/init_structures/gaussian/wtuning/mol_NN_cp_frag/tuning_mol_NN_cp_frag_ocycle0/"
 Entering Link 1 = /opt/ohpc/pub/libs/gaussian/g16-A.03/sandybridge/g16/l1.exe PID=     14392.
  
 Copyright (c) 1988,1990,1992,1993,1995,1998,2003,2009,2016,
            Gaussian, Inc.  All Rights Reserved.
  
 This is part of the Gaussian(R) 16 program.  It is based on
 the Gaussian(R) 09 system (copyright 2009, Gaussian, Inc.),
 the Gaussian(R) 03 system (copyright 2003, Gaussian, Inc.),
 the Gaussian(R) 98 system (copyright 1998, Gaussian, Inc.),
 the Gaussian(R) 94 system (copyright 1995, Gaussian, Inc.),
 the Gaussian 92(TM) system (copyright 1992, Gaussian, Inc.),
 the Gaussian 90(TM) system (copyright 1990, Gaussian, Inc.),
 the Gaussian 88(TM) system (copyright 1988, Gaussian, Inc.),
 the Gaussian 86(TM) system (copyright 1986, Carnegie Mellon
 University), and the Gaussian 82(TM) system (copyright 1983,
 Carnegie Mellon University). Gaussian is a federally registered
 trademark of Gaussian, Inc.
  
 This software contains proprietary and confidential information,
 including trade secrets, belonging to Gaussian, Inc.
  
 This software is provided under written license and may be
 used, copied, transmitted, or stored only in accord with that
 written license.
  
 The following legend is applicable only to US Government
 contracts under FAR:
  
                    RESTRICTED RIGHTS LEGEND
  
 Use, reproduction and disclosure by the US Government is
 subject to restrictions as set forth in subparagraphs (a)
 and (c) of the Commercial Computer Software - Restricted
 Rights clause in FAR 52.227-19.
  
 Gaussian, Inc.
 340 Quinnipiac St., Bldg. 40, Wallingford CT 06492
  
  
 ---------------------------------------------------------------
 Warning -- This program may not be used in any manner that
 competes with the business of Gaussian, Inc. or will provide
 assistance to any competitor of Gaussian, Inc.  The licensee
 of this program is prohibited from giving any competitor of
 Gaussian, Inc. access to this program.  By using this program,
 the user acknowledges that Gaussian, Inc. is engaged in the
 business of creating and licensing software in the field of
 computational chemistry and represents and warrants to the
 licensee that it is not a competitor of Gaussian, Inc. and that
 it will not use this program in any manner prohibited above.
 ---------------------------------------------------------------
  

 Cite this work as:
 Gaussian 16, Revision A.03,
 M. J. Frisch, G. W. Trucks, H. B. Schlegel, G. E. Scuseria, 
 M. A. Robb, J. R. Cheeseman, G. Scalmani, V. Barone, 
 G. A. Petersson, H. Nakatsuji, X. Li, M. Caricato, A. V. Marenich, 
 J. Bloino, B. G. Janesko, R. Gomperts, B. Mennucci, H. P. Hratchian, 
 J. V. Ortiz, A. F. Izmaylov, J. L. Sonnenberg, D. Williams-Young, 
 F. Ding, F. Lipparini, F. Egidi, J. Goings, B. Peng, A. Petrone, 
 T. Henderson, D. Ranasinghe, V. G. Zakrzewski, J. Gao, N. Rega, 
 G. Zheng, W. Liang, M. Hada, M. Ehara, K. Toyota, R. Fukuda, 
 J. Hasegawa, M. Ishida, T. Nakajima, Y. Honda, O. Kitao, H. Nakai, 
 T. Vreven, K. Throssell, J. A. Montgomery, Jr., J. E. Peralta, 
 F. Ogliaro, M. J. Bearpark, J. J. Heyd, E. N. Brothers, K. N. Kudin, 
 V. N. Staroverov, T. A. Keith, R. Kobayashi, J. Normand, 
 K. Raghavachari, A. P. Rendell, J. C. Burant, S. S. Iyengar, 
 J. Tomasi, M. Cossi, J. M. Millam, M. Klene, C. Adamo, R. Cammi, 
 J. W. Ochterski, R. L. Martin, K. Morokuma, O. Farkas, 
 J. B. Foresman, and D. J. Fox, Gaussian, Inc., Wallingford CT, 2016.
 
 ******************************************
 Gaussian 16:  EM64L-G16RevA.03 25-Dec-2016
                25-Jan-2021 
 ******************************************
 %mem=30GB
 %nproc=8
 Will use up to    8 processors via shared memory.
 ----------------------------------------------------------------------
 #P LC-wHPBE/TZVP iop(3/107=0328100000, 3/108=0328100000) scf=(conver=6
 ,fermi,ndamp=35,noincfock,novaracc,vshift=500,xqc)
 ----------------------------------------------------------------------
 1/38=1,172=1/1;
 2/12=2,17=6,18=5,40=1/2;
 3/5=19,7=101,11=2,25=1,30=1,74=-71,107=328100000,108=328100000/1,2,3;
 4//1;
 5/5=100002,6=6,8=3,10=500,13=1,18=-1,22=13,38=1,93=35/2,8;
 6/7=2,8=2,9=2,10=2,28=1/1;
 99/5=1,9=1/99;
 Leave Link    1 at Mon Jan 25 21:00:19 2021, MaxMem=  4026531840 cpu:               1.7 elap:               0.3
 (Enter /opt/ohpc/pub/libs/gaussian/g16-A.03/sandybridge/g16/l101.exe)
 ---------
 H18 C9 N3
 ---------
 Symbolic Z-matrix:
 Charge =  1 Multiplicity = 1
 C                    -0.61086   0.51088   0.00012 
 C                    -0.13681  -0.78432   0.00012 
 N                    -1.62528   1.35883   0.00015 
 N                    -0.36425  -2.08677   0.00026 
 C                    -1.43025   2.77954  -0.24512 
 H                    -1.51448   3.35624   0.68178 
 H                    -0.45309   2.95358  -0.69457 
 H                    -2.18912   3.13242  -0.94807 
 C                    -2.9889    0.91473   0.24492 
 H                    -3.47163   1.59995   0.94635 
 H                    -3.57065   0.89367  -0.68242 
 H                    -2.98687  -0.07707   0.69599 
 C                     0.70197  -3.04591   0.24474 
 H                     1.00989  -3.54009  -0.68252 
 H                     1.56061  -2.54823   0.6944 
 H                     0.35036  -3.80582   0.94721 
 C                    -1.69226  -2.6279   -0.24493 
 H                    -1.61871  -3.46141  -0.94808 
 H                    -2.14948  -2.98936   0.68196 
 H                    -2.33152  -1.86843  -0.69401 
 C                     0.74783   0.27381   0.00006 
 N                     1.98949   0.72807  -0.00009 
 C                     2.2873    2.13083   0.24506 
 H                     2.5636    2.64436  -0.68164 
 H                     1.42624   2.62611   0.69273 
 H                     3.11971   2.20591   0.94937 
 C                     3.12207  -0.15162  -0.24503 
 H                     3.80776   0.3292   -0.94732 
 H                     3.66301  -0.36768   0.68208 
 H                     2.78409  -1.08455  -0.69509 
 
 ITRead=  0  0  0  0  0  0  0  0  0  0  0  0  0  0  0  0  0  0  0  0
 ITRead=  0  0  0  0  0  0  0  0  0  0
 MicOpt= -1 -1 -1 -1 -1 -1 -1 -1 -1 -1 -1 -1 -1 -1 -1 -1 -1 -1 -1 -1
 MicOpt= -1 -1 -1 -1 -1 -1 -1 -1 -1 -1
 NAtoms=     30 NQM=       30 NQMF=       0 NMMI=      0 NMMIF=      0
                NMic=       0 NMicF=      0.
                    Isotopes and Nuclear Properties:
 (Nuclear quadrupole moments (NQMom) in fm**2, nuclear magnetic moments (NMagM)
  in nuclear magnetons)

  Atom         1           2           3           4           5           6           7           8           9          10
 IAtWgt=          12          12          14          14          12           1           1           1          12           1
 AtmWgt=  12.0000000  12.0000000  14.0030740  14.0030740  12.0000000   1.0078250   1.0078250   1.0078250  12.0000000   1.0078250
 NucSpn=           0           0           2           2           0           1           1           1           0           1
 AtZEff=  -0.0000000  -0.0000000  -0.0000000  -0.0000000  -0.0000000  -0.0000000  -0.0000000  -0.0000000  -0.0000000  -0.0000000
 NQMom=    0.0000000   0.0000000   2.0440000   2.0440000   0.0000000   0.0000000   0.0000000   0.0000000   0.0000000   0.0000000
 NMagM=    0.0000000   0.0000000   0.4037610   0.4037610   0.0000000   2.7928460   2.7928460   2.7928460   0.0000000   2.7928460
 AtZNuc=   6.0000000   6.0000000   7.0000000   7.0000000   6.0000000   1.0000000   1.0000000   1.0000000   6.0000000   1.0000000

  Atom        11          12          13          14          15          16          17          18          19          20
 IAtWgt=           1           1          12           1           1           1          12           1           1           1
 AtmWgt=   1.0078250   1.0078250  12.0000000   1.0078250   1.0078250   1.0078250  12.0000000   1.0078250   1.0078250   1.0078250
 NucSpn=           1           1           0           1           1           1           0           1           1           1
 AtZEff=  -0.0000000  -0.0000000  -0.0000000  -0.0000000  -0.0000000  -0.0000000  -0.0000000  -0.0000000  -0.0000000  -0.0000000
 NQMom=    0.0000000   0.0000000   0.0000000   0.0000000   0.0000000   0.0000000   0.0000000   0.0000000   0.0000000   0.0000000
 NMagM=    2.7928460   2.7928460   0.0000000   2.7928460   2.7928460   2.7928460   0.0000000   2.7928460   2.7928460   2.7928460
 AtZNuc=   1.0000000   1.0000000   6.0000000   1.0000000   1.0000000   1.0000000   6.0000000   1.0000000   1.0000000   1.0000000

  Atom        21          22          23          24          25          26          27          28          29          30
 IAtWgt=          12          14          12           1           1           1          12           1           1           1
 AtmWgt=  12.0000000  14.0030740  12.0000000   1.0078250   1.0078250   1.0078250  12.0000000   1.0078250   1.0078250   1.0078250
 NucSpn=           0           2           0           1           1           1           0           1           1           1
 AtZEff=  -0.0000000  -0.0000000  -0.0000000  -0.0000000  -0.0000000  -0.0000000  -0.0000000  -0.0000000  -0.0000000  -0.0000000
 NQMom=    0.0000000   2.0440000   0.0000000   0.0000000   0.0000000   0.0000000   0.0000000   0.0000000   0.0000000   0.0000000
 NMagM=    0.0000000   0.4037610   0.0000000   2.7928460   2.7928460   2.7928460   0.0000000   2.7928460   2.7928460   2.7928460
 AtZNuc=   6.0000000   7.0000000   6.0000000   1.0000000   1.0000000   1.0000000   6.0000000   1.0000000   1.0000000   1.0000000
 Leave Link  101 at Mon Jan 25 21:00:19 2021, MaxMem=  4026531840 cpu:               0.6 elap:               0.1
 (Enter /opt/ohpc/pub/libs/gaussian/g16-A.03/sandybridge/g16/l202.exe)
                          Input orientation:                          
 ---------------------------------------------------------------------
 Center     Atomic      Atomic             Coordinates (Angstroms)
 Number     Number       Type             X           Y           Z
 ---------------------------------------------------------------------
      1          6           0       -0.610862    0.510880    0.000115
      2          6           0       -0.136805   -0.784324    0.000118
      3          7           0       -1.625284    1.358829    0.000149
      4          7           0       -0.364248   -2.086765    0.000256
      5          6           0       -1.430247    2.779535   -0.245115
      6          1           0       -1.514482    3.356239    0.681778
      7          1           0       -0.453085    2.953583   -0.694570
      8          1           0       -2.189123    3.132424   -0.948067
      9          6           0       -2.988895    0.914734    0.244915
     10          1           0       -3.471630    1.599951    0.946347
     11          1           0       -3.570653    0.893667   -0.682419
     12          1           0       -2.986873   -0.077069    0.695991
     13          6           0        0.701968   -3.045906    0.244739
     14          1           0        1.009895   -3.540090   -0.682520
     15          1           0        1.560610   -2.548225    0.694397
     16          1           0        0.350361   -3.805818    0.947208
     17          6           0       -1.692259   -2.627901   -0.244928
     18          1           0       -1.618712   -3.461412   -0.948079
     19          1           0       -2.149477   -2.989362    0.681963
     20          1           0       -2.331523   -1.868430   -0.694010
     21          6           0        0.747831    0.273810    0.000062
     22          7           0        1.989493    0.728067   -0.000089
     23          6           0        2.287295    2.130832    0.245062
     24          1           0        2.563599    2.644356   -0.681638
     25          1           0        1.426241    2.626112    0.692731
     26          1           0        3.119706    2.205914    0.949371
     27          6           0        3.122069   -0.151615   -0.245030
     28          1           0        3.807758    0.329200   -0.947323
     29          1           0        3.663007   -0.367678    0.682084
     30          1           0        2.784087   -1.084552   -0.695089
 ---------------------------------------------------------------------
                    Distance matrix (angstroms):
                    1          2          3          4          5
     1  C    0.000000
     2  C    1.379233   0.000000
     3  N    1.322146   2.609344   0.000000
     4  N    2.609325   1.322151   3.669105   0.000000
     5  C    2.424526   3.799240   1.454854   4.987729   0.000000
     6  H    3.062231   4.416663   2.113419   5.604802   1.094903
     7  H    2.544460   3.815046   2.097600   5.088790   1.089563
     8  H    3.203506   4.522386   2.088700   5.609761   1.092962
     9  C    2.424472   3.328835   1.454842   3.994700   2.479314
    10  H    3.203970   4.207276   2.088642   4.913531   2.641637
    11  H    3.061493   3.882373   2.113465   4.430582   2.886013
    12  H    2.544672   3.017836   2.097600   3.376550   3.386584
    13  C    3.799222   2.424486   4.987747   1.454833   6.222705
    14  H    4.416243   3.061889   5.604428   2.113435   6.788466
    15  H    3.815159   2.544521   5.088907   2.097583   6.181661
    16  H    4.522700   3.203707   5.610140   2.088666   6.925249
    17  C    3.328875   2.424512   3.994817   1.454839   5.413780
    18  H    4.206416   3.203424   4.912627   2.088701   6.283239
    19  H    3.883806   3.062344   4.432428   2.113397   5.887014
    20  H    3.017217   2.544383   3.375771   2.097581   4.755774
    21  C    1.379220   1.379213   2.609395   2.609413   3.329083
    22  N    2.609409   2.609304   3.669397   3.669247   3.995395
    23  C    3.329198   3.799262   3.995528   4.987859   3.805418
    24  H    3.885062   4.417332   4.434428   5.605424   4.019904
    25  H    3.017236   3.814957   3.376016   5.088868   3.010418
    26  H    4.206110   4.521888   4.912586   5.609443   4.738978
    27  C    3.799180   3.328765   4.987877   3.994919   5.414353
    28  H    4.522704   4.206799   5.610328   4.913291   5.825284
    29  H    4.416209   3.882943   5.604631   4.431584   6.058538
    30  H    3.815022   3.017459   5.088813   3.376381   5.735351
                    6          7          8          9         10
     6  H    0.000000
     7  H    1.784105   0.000000
     8  H    1.778097   1.763540   0.000000
     9  C    2.885427   3.386720   2.642156   0.000000
    10  H    2.642910   3.692769   2.753562   1.092960   0.000000
    11  H    3.486134   3.736661   2.644093   1.094913   1.778067
    12  H    3.735738   4.187910   3.693261   1.089563   1.763537
    13  C    6.789044   6.181449   6.924807   5.413792   6.284518
    14  H    7.469481   6.656444   7.404504   6.057715   7.011226
    15  H    6.657255   6.021137   7.001997   5.735165   6.526430
    16  H    7.405616   7.002176   7.627598   5.824728   6.620420
    17  C    6.058079   5.735041   5.824313   3.804139   4.739201
    18  H    7.010539   6.524961   6.618462   4.738279   5.713103
    19  H    6.377293   6.331760   6.335206   4.017163   4.783281
    20  H    5.464203   5.174972   5.009328   3.009937   4.002534
    21  C    3.883834   3.017598   4.206700   3.799192   4.523047
    22  N    4.432840   3.376598   4.913291   4.987907   5.610685
    23  C    4.018190   3.011563   4.739732   5.414524   5.825706
    24  H    4.358489   3.032519   4.785140   5.888997   6.337595
    25  H    3.030026   2.358751   4.002428   4.756341   5.010635
    26  H    4.782317   4.003297   5.713349   6.283185   6.619132
    27  C    5.887412   4.756687   6.283943   6.222622   6.925621
    28  H    6.335864   5.010594   6.619717   6.925227   7.628256
    29  H    6.377613   5.465177   7.011101   6.788483   7.405703
    30  H    6.331989   5.175502   6.525312   6.181268   7.002490
                   11         12         13         14         15
    11  H    0.000000
    12  H    1.784136   0.000000
    13  C    5.885163   4.756592   0.000000
    14  H    6.374921   5.465067   1.094918   0.000000
    15  H    6.330253   5.175540   1.089562   1.784092   0.000000
    16  H    6.333656   5.010370   1.092958   1.778092   1.763563
    17  C    4.015122   3.011328   2.479279   2.885344   3.386715
    18  H    4.779891   4.003574   2.642161   2.643158   3.693200
    19  H    4.354216   3.030327   2.885325   3.485218   3.736242
    20  H    3.027335   2.360204   3.386704   3.736262   4.187899
    21  C    4.415802   3.815160   3.329037   3.883353   3.017713
    22  N    5.604304   5.088909   3.995064   4.431985   3.376439
    23  C    6.058577   5.735417   5.414045   5.886554   4.756422
    24  H    6.379182   6.333384   6.058294   6.376627   5.464646
    25  H    5.464554   5.175208   5.735596   6.331406   5.176082
    26  H    7.010395   6.524302   5.824395   6.334898   5.009753
    27  C    6.787964   6.181444   3.804429   4.016770   3.010717
    28  H    7.404711   7.002324   4.739017   4.782213   4.003060
    29  H    7.468514   6.656242   4.016457   4.354922   3.029028
    30  H    6.655541   6.021138   3.010881   3.029452   2.360065
                   16         17         18         19         20
    16  H    0.000000
    17  C    2.642153   0.000000
    18  H    2.754628   1.092964   0.000000
    19  H    2.643132   1.094911   1.778083   0.000000
    20  H    3.693179   1.089555   1.763588   1.784077   0.000000
    21  C    4.206951   3.799209   4.522320   4.416749   3.814885
    22  N    4.913272   4.987762   5.609774   5.604957   5.088664
    23  C    6.283990   6.222739   6.924859   6.789125   6.181378
    24  H    7.011156   6.789679   7.405614   7.470694   6.657898
    25  H    6.526255   6.181335   7.001567   6.657283   6.020361
    26  H    6.618927   6.924386   7.627025   7.404505   7.001205
    27  C    4.738881   5.413848   5.824435   6.058162   5.735042
    28  H    5.713249   6.283947   6.619314   7.011139   6.525681
    29  H    4.781707   5.886156   6.334444   6.376378   6.330899
    30  H    4.003180   4.756285   5.009801   5.464854   5.175319
                   21         22         23         24         25
    21  C    0.000000
    22  N    1.322147   0.000000
    23  C    2.424563   1.454831   0.000000
    24  H    3.062877   2.113355   1.094908   0.000000
    25  H    2.544279   2.097577   1.089552   1.784042   0.000000
    26  H    3.203124   2.088753   1.092976   1.778110   1.763591
    27  C    2.424472   1.454842   2.479234   2.884436   3.386886
    28  H    3.203710   2.088644   2.641868   2.641679   3.692859
    29  H    3.061848   2.113449   2.885502   3.484363   3.737113
    30  H    2.544547   2.097616   3.386647   3.735445   4.187937
                   26         27         28         29         30
    26  H    0.000000
    27  C    2.642828   0.000000
    28  H    2.755525   1.092963   0.000000
    29  H    2.643860   1.094914   1.778077   0.000000
    30  H    3.693786   1.089567   1.763581   1.784100   0.000000
 Stoichiometry    C9H18N3(1+)
 Framework group  C1[X(C9H18N3)]
 Deg. of freedom    84
 Full point group                 C1      NOp   1
 Largest Abelian subgroup         C1      NOp   1
 Largest concise Abelian subgroup C1      NOp   1
                         Standard orientation:                         
 ---------------------------------------------------------------------
 Center     Atomic      Atomic             Coordinates (Angstroms)
 Number     Number       Type             X           Y           Z
 ---------------------------------------------------------------------
      1          6           0       -0.610975   -0.510745   -0.000115
      2          6           0       -0.136632    0.784354   -0.000118
      3          7           0       -1.625585   -1.358470   -0.000149
      4          7           0       -0.363786    2.086845   -0.000256
      5          6           0       -1.430862   -2.779219    0.245115
      6          1           0       -1.515224   -3.355904   -0.681778
      7          1           0       -0.453738   -2.953483    0.694570
      8          1           0       -2.189816   -3.131940    0.948067
      9          6           0       -2.989097   -0.914073   -0.244915
     10          1           0       -3.471984   -1.599183   -0.946347
     11          1           0       -3.570851   -0.892877    0.682419
     12          1           0       -2.986856    0.077730   -0.695991
     13          6           0        0.702642    3.045751   -0.244739
     14          1           0        1.010678    3.539867    0.682520
     15          1           0        1.561174    2.547880   -0.694397
     16          1           0        0.351203    3.805740   -0.947208
     17          6           0       -1.691678    2.628275    0.244928
     18          1           0       -1.617946    3.461770    0.948079
     19          1           0       -2.148816    2.989837   -0.681963
     20          1           0       -2.331110    1.868946    0.694010
     21          6           0        0.747770   -0.273975   -0.000062
     22          7           0        1.989332   -0.728507    0.000089
     23          6           0        2.286824   -2.131338   -0.245062
     24          1           0        2.563014   -2.644923    0.681638
     25          1           0        1.425660   -2.626427   -0.692731
     26          1           0        3.119218   -2.206604   -0.949371
     27          6           0        3.122102    0.150924    0.245030
     28          1           0        3.807685   -0.330042    0.947323
     29          1           0        3.663088    0.366868   -0.682084
     30          1           0        2.784327    1.083936    0.695089
 ---------------------------------------------------------------------
 Rotational constants (GHZ):           0.8639071           0.8637633           0.4436577
 Leave Link  202 at Mon Jan 25 21:00:19 2021, MaxMem=  4026531840 cpu:               0.6 elap:               0.1
 (Enter /opt/ohpc/pub/libs/gaussian/g16-A.03/sandybridge/g16/l301.exe)
 Standard basis: TZVP (5D, 7F)
 Ernie: Thresh=  0.10000D-02 Tol=  0.10000D-05 Strict=F.
 There are   348 symmetry adapted cartesian basis functions of A   symmetry.
 There are   336 symmetry adapted basis functions of A   symmetry.
   336 basis functions,   564 primitive gaussians,   348 cartesian basis functions
    46 alpha electrons       46 beta electrons
       nuclear repulsion energy       740.7629817128 Hartrees.
 IExCor=33909 DFT=T Ex+Corr=LC-wHPBE ExCW=0 ScaHFX=  1.000000
 ScaDFX=  1.000000  1.000000  1.000000  1.000000 ScalE2=  1.000000  1.000000
 IRadAn=      5 IRanWt=     -1 IRanGd=            0 ICorTp=0 IEmpDi=  4
 HFx  wShort=  0.000000 wLong=  0.328100 cFull=  0.000000 cShort=  0.000000 cLong=  1.000000
 DFx  wShort=  0.000000 wLong=  0.328100 cFull=  0.000000 cShort=  1.000000 cLong=  0.000000
 NAtoms=   30 NActive=   30 NUniq=   30 SFac= 1.00D+00 NAtFMM=   60 NAOKFM=F Big=F
 Integral buffers will be    131072 words long.
 Raffenetti 2 integral format.
 Two-electron integral symmetry is turned on.
 Leave Link  301 at Mon Jan 25 21:00:19 2021, MaxMem=  4026531840 cpu:               0.4 elap:               0.1
 (Enter /opt/ohpc/pub/libs/gaussian/g16-A.03/sandybridge/g16/l302.exe)
 NPDir=0 NMtPBC=     1 NCelOv=     1 NCel=       1 NClECP=     1 NCelD=      1
         NCelK=      1 NCelE2=     1 NClLst=     1 CellRange=     0.0.
 One-electron integrals computed using PRISM.
 One-electron integral symmetry used in STVInt
 NBasis=   336 RedAO= T EigKep=  2.74D-05  NBF=   336
 NBsUse=   336 1.00D-06 EigRej= -1.00D+00 NBFU=   336
 Precomputing XC quadrature grid using
 IXCGrd= 4 IRadAn=           5 IRanWt=          -1 IRanGd=           0 AccXCQ= 0.00D+00.
 Generated NRdTot=       0 NPtTot=           0 NUsed=           0 NTot=          32
 NSgBfM=   343   343   343   343   343 MxSgAt=    30 MxSgA2=    30.
 Leave Link  302 at Mon Jan 25 21:00:22 2021, MaxMem=  4026531840 cpu:              12.0 elap:               2.4
 (Enter /opt/ohpc/pub/libs/gaussian/g16-A.03/sandybridge/g16/l303.exe)
 DipDrv:  MaxL=1.
 Leave Link  303 at Mon Jan 25 21:00:22 2021, MaxMem=  4026531840 cpu:               1.4 elap:               0.3
 (Enter /opt/ohpc/pub/libs/gaussian/g16-A.03/sandybridge/g16/l401.exe)
 ExpMin= 9.52D-02 ExpMax= 1.97D+04 ExpMxC= 6.73D+02 IAcc=3 IRadAn=         5 AccDes= 0.00D+00
 Harris functional with IExCor=33909 and IRadAn=       5 diagonalized for initial guess.
 HarFok:  IExCor=33909 AccDes= 0.00D+00 IRadAn=         5 IDoV= 1 UseB2=F ITyADJ=14
 ICtDFT=  3500011 ScaDFX=  1.000000  1.000000  1.000000  1.000000
 FoFCou: FMM=F IPFlag=           0 FMFlag=      100000 FMFlg1=           0
         NFxFlg=           0 DoJE=T BraDBF=F KetDBF=T FulRan=T
         wScrn=  0.000000 ICntrl=       500 IOpCl=  0 I1Cent=   200000004 NGrid=           0
         NMat0=    1 NMatS0=      1 NMatT0=    0 NMatD0=    1 NMtDS0=    0 NMtDT0=    0
 Petite list used in FoFCou.
 Harris En= -502.221422307000    
 JPrj=0 DoOrth=F DoCkMO=F.
 Leave Link  401 at Mon Jan 25 21:00:27 2021, MaxMem=  4026531840 cpu:              25.1 elap:               4.6
 (Enter /opt/ohpc/pub/libs/gaussian/g16-A.03/sandybridge/g16/l502.exe)
 Integral symmetry usage will be decided dynamically.
 Closed shell SCF:
 Using DIIS extrapolation, IDIIS=    10.
 NGot=  4026531840 LenX=  4026283142 LenY=  4026161597
 Requested convergence on RMS density matrix=1.00D-06 within  32 cycles.
 Requested convergence on MAX density matrix=1.00D-04.
 Requested convergence on             energy=1.00D-04.
 Virtual orbitals will be shifted by   0.500 hartree.
 No special actions if energy rises.
 Dynamic level shift is on during FON iterations.

 Cycle   1  Pass 1  IDiag  1:
 FoFJK:  IHMeth= 1 ICntrl=       0 DoSepK=T KAlg= 0 I1Cent=           0 FoldK=F
 IRaf=         1 NMat=       1 IRICut=       1 DoRegI=T DoRafI=F ISym2E= 0 IDoP0=0 IntGTp=1.
 FoFCou: FMM=F IPFlag=           0 FMFlag=      100000 FMFlg1=           0
         NFxFlg=           0 DoJE=T BraDBF=F KetDBF=F FulRan=T
         wScrn=  0.000000 ICntrl=       500 IOpCl=  0 I1Cent=           0 NGrid=           0
         NMat0=    1 NMatS0=      1 NMatT0=    0 NMatD0=    1 NMtDS0=    0 NMtDT0=    0
 Symmetry not used in FoFCou.
 E= -517.410936135294    
 DIIS: error= 2.82D-02 at cycle   1 NSaved=   1.
 NSaved= 1 IEnMin= 1 EnMin= -517.410936135294     IErMin= 1 ErrMin= 2.82D-02
 ErrMax= 2.82D-02  0.00D+00 EMaxC= 1.00D+00 BMatC= 1.56D-01 BMatP= 1.56D-01
 IDIUse=1 WtCom= 1.00D+00 WtEn= 0.00D+00
 Coeff-Com:  0.100D+01
 Coeff:      0.100D+01
 Gap=     0.397 Goal=   None    Shift=    0.500
 T= 1458. Gap= 0.888 NK=0 IS=   47 IE=  336 IFin=   46
          NO(<0.9)=   0  NV(>0.1)=   0     46.00e < EF      0.00e >EF  Err=0.0D+00
 GapD=    0.397 DampG=1.000 DampE=0.500 DampFc=0.5000 IDamp=-1.
 Damping current iteration by 5.00D-01
 RMSDP=1.66D-03 MaxDP=3.53D-02              OVMax= 4.45D-02

 Cycle   2  Pass 1  IDiag  1:
 E= -517.490298095301     Delta-E=       -0.079361960007 Rises=F Damp=T
 DIIS: error= 1.23D-02 at cycle   2 NSaved=   2.
 NSaved= 2 IEnMin= 2 EnMin= -517.490298095301     IErMin= 2 ErrMin= 1.23D-02
 ErrMax= 1.23D-02  0.00D+00 EMaxC= 1.00D+00 BMatC= 3.14D-02 BMatP= 1.56D-01
 IDIUse=1 WtCom= 1.00D+00 WtEn= 0.00D+00
 Coeff-Com: -0.690D+00 0.169D+01
 Coeff:     -0.690D+00 0.169D+01
 Gap=     0.391 Goal=   None    Shift=    0.500
 T= 1333. Gap= 0.885 NK=0 IS=   47 IE=  336 IFin=   46
          NO(<0.9)=   0  NV(>0.1)=   0     46.00e < EF      0.00e >EF  Err=0.0D+00
 GapD=    0.391 DampG=1.000 DampE=0.500 DampFc=0.5000 IDamp=-1.
 Damping current iteration by 5.00D-01
 RMSDP=1.23D-03 MaxDP=2.49D-02 DE=-7.94D-02 OVMax= 7.34D-03

 Cycle   3  Pass 1  IDiag  1:
 E= -517.520025880716     Delta-E=       -0.029727785415 Rises=F Damp=T
 DIIS: error= 5.66D-03 at cycle   3 NSaved=   3.
 NSaved= 3 IEnMin= 3 EnMin= -517.520025880716     IErMin= 3 ErrMin= 5.66D-03
 ErrMax= 5.66D-03  0.00D+00 EMaxC= 1.00D+00 BMatC= 7.23D-03 BMatP= 3.14D-02
 IDIUse=1 WtCom= 1.00D+00 WtEn= 0.00D+00
 Coeff-Com:  0.870D-01-0.116D+01 0.207D+01
 Coeff:      0.870D-01-0.116D+01 0.207D+01
 Gap=     0.393 Goal=   None    Shift=    0.500
 T= 1095. Gap= 0.892 NK=0 IS=   47 IE=  336 IFin=   46
          NO(<0.9)=   0  NV(>0.1)=   0     46.00e < EF      0.00e >EF  Err=0.0D+00
 GapD=    0.393 DampG=1.000 DampE=1.000 DampFc=1.0000 IDamp=-1.
 RMSDP=8.20D-04 MaxDP=1.71D-02 DE=-2.97D-02 OVMax= 4.82D-03

 Cycle   4  Pass 1  IDiag  1:
 E= -517.546225337098     Delta-E=       -0.026199456383 Rises=F Damp=F
 DIIS: error= 8.07D-04 at cycle   4 NSaved=   4.
 NSaved= 4 IEnMin= 4 EnMin= -517.546225337098     IErMin= 4 ErrMin= 8.07D-04
 ErrMax= 8.07D-04  0.00D+00 EMaxC= 1.00D+00 BMatC= 1.30D-04 BMatP= 7.23D-03
 IDIUse=1 WtCom= 1.00D+00 WtEn= 0.00D+00
 Coeff-Com:  0.772D-01-0.197D+00 0.827D-01 0.104D+01
 Coeff:      0.772D-01-0.197D+00 0.827D-01 0.104D+01
 Gap=     0.391 Goal=   None    Shift=    0.500
 RMSDP=1.16D-04 MaxDP=2.10D-03 DE=-2.62D-02 OVMax= 2.21D-03

 Cycle   5  Pass 1  IDiag  1:
 E= -517.546423149545     Delta-E=       -0.000197812447 Rises=F Damp=F
 DIIS: error= 3.91D-04 at cycle   5 NSaved=   5.
 NSaved= 5 IEnMin= 5 EnMin= -517.546423149545     IErMin= 5 ErrMin= 3.91D-04
 ErrMax= 3.91D-04  0.00D+00 EMaxC= 1.00D+00 BMatC= 2.18D-05 BMatP= 1.30D-04
 IDIUse=1 WtCom= 1.00D+00 WtEn= 0.00D+00
 Coeff-Com: -0.321D-02 0.161D+00-0.328D+00-0.123D+00 0.129D+01
 Coeff:     -0.321D-02 0.161D+00-0.328D+00-0.123D+00 0.129D+01
 Gap=     0.391 Goal=   None    Shift=    0.500
 RMSDP=5.90D-05 MaxDP=8.74D-04 DE=-1.98D-04 OVMax= 1.99D-03

 Cycle   6  Pass 1  IDiag  1:
 E= -517.546481532629     Delta-E=       -0.000058383083 Rises=F Damp=F
 DIIS: error= 2.46D-04 at cycle   6 NSaved=   6.
 NSaved= 6 IEnMin= 6 EnMin= -517.546481532629     IErMin= 6 ErrMin= 2.46D-04
 ErrMax= 2.46D-04  0.00D+00 EMaxC= 1.00D+00 BMatC= 5.02D-06 BMatP= 2.18D-05
 IDIUse=1 WtCom= 1.00D+00 WtEn= 0.00D+00
 Coeff-Com: -0.157D-01 0.527D-01-0.473D-01-0.186D+00-0.263D+00 0.146D+01
 Coeff:     -0.157D-01 0.527D-01-0.473D-01-0.186D+00-0.263D+00 0.146D+01
 Gap=     0.392 Goal=   None    Shift=    0.500
 RMSDP=3.17D-05 MaxDP=7.37D-04 DE=-5.84D-05 OVMax= 1.06D-03

 Cycle   7  Pass 1  IDiag  1:
 E= -517.546497489893     Delta-E=       -0.000015957264 Rises=F Damp=F
 DIIS: error= 1.17D-04 at cycle   7 NSaved=   7.
 NSaved= 7 IEnMin= 7 EnMin= -517.546497489893     IErMin= 7 ErrMin= 1.17D-04
 ErrMax= 1.17D-04  0.00D+00 EMaxC= 1.00D+00 BMatC= 1.22D-06 BMatP= 5.02D-06
 IDIUse=1 WtCom= 1.00D+00 WtEn= 0.00D+00
 Coeff-Com: -0.198D-02-0.211D-01 0.520D-01 0.159D-01-0.349D+00-0.255D+00
 Coeff-Com:  0.156D+01
 Coeff:     -0.198D-02-0.211D-01 0.520D-01 0.159D-01-0.349D+00-0.255D+00
 Coeff:      0.156D+01
 Gap=     0.392 Goal=   None    Shift=    0.500
 RMSDP=1.46D-05 MaxDP=4.15D-04 DE=-1.60D-05 OVMax= 6.80D-04

 Cycle   8  Pass 1  IDiag  1:
 E= -517.546501816308     Delta-E=       -0.000004326415 Rises=F Damp=F
 DIIS: error= 6.48D-05 at cycle   8 NSaved=   8.
 NSaved= 8 IEnMin= 8 EnMin= -517.546501816308     IErMin= 8 ErrMin= 6.48D-05
 ErrMax= 6.48D-05  0.00D+00 EMaxC= 1.00D+00 BMatC= 3.18D-07 BMatP= 1.22D-06
 IDIUse=1 WtCom= 1.00D+00 WtEn= 0.00D+00
 Coeff-Com:  0.225D-02-0.533D-03-0.721D-02 0.501D-01 0.300D-01-0.194D+00
 Coeff-Com: -0.957D+00 0.208D+01
 Coeff:      0.225D-02-0.533D-03-0.721D-02 0.501D-01 0.300D-01-0.194D+00
 Coeff:     -0.957D+00 0.208D+01
 Gap=     0.392 Goal=   None    Shift=    0.500
 RMSDP=7.48D-06 MaxDP=2.81D-04 DE=-4.33D-06 OVMax= 3.91D-04

 Cycle   9  Pass 1  IDiag  1:
 E= -517.546502982974     Delta-E=       -0.000001166666 Rises=F Damp=F
 DIIS: error= 3.51D-05 at cycle   9 NSaved=   9.
 NSaved= 9 IEnMin= 9 EnMin= -517.546502982974     IErMin= 9 ErrMin= 3.51D-05
 ErrMax= 3.51D-05  0.00D+00 EMaxC= 1.00D+00 BMatC= 8.43D-08 BMatP= 3.18D-07
 IDIUse=1 WtCom= 1.00D+00 WtEn= 0.00D+00
 Coeff-Com: -0.132D-02 0.455D-02-0.434D-02-0.177D-01-0.551D-02 0.185D+00
 Coeff-Com:  0.124D+00-0.200D+01 0.272D+01
 Coeff:     -0.132D-02 0.455D-02-0.434D-02-0.177D-01-0.551D-02 0.185D+00
 Coeff:      0.124D+00-0.200D+01 0.272D+01
 Gap=     0.392 Goal=   None    Shift=    0.500
 RMSDP=4.02D-06 MaxDP=1.70D-04 DE=-1.17D-06 OVMax= 2.10D-04

 Cycle  10  Pass 1  IDiag  1:
 E= -517.546503282569     Delta-E=       -0.000000299595 Rises=F Damp=F
 DIIS: error= 1.90D-05 at cycle  10 NSaved=  10.
 NSaved=10 IEnMin=10 EnMin= -517.546503282569     IErMin=10 ErrMin= 1.90D-05
 ErrMax= 1.90D-05  0.00D+00 EMaxC= 1.00D+00 BMatC= 2.43D-08 BMatP= 8.43D-08
 IDIUse=1 WtCom= 1.00D+00 WtEn= 0.00D+00
 Coeff-Com: -0.122D-03 0.154D-05 0.504D-03 0.176D-02-0.199D-01 0.456D-01
 Coeff-Com: -0.934D-04 0.108D+00-0.146D+01 0.233D+01
 Coeff:     -0.122D-03 0.154D-05 0.504D-03 0.176D-02-0.199D-01 0.456D-01
 Coeff:     -0.934D-04 0.108D+00-0.146D+01 0.233D+01
 Gap=     0.392 Goal=   None    Shift=    0.500
 RMSDP=2.02D-06 MaxDP=8.43D-05 DE=-3.00D-07 OVMax= 1.08D-04

 Cycle  11  Pass 1  IDiag  1:
 E= -517.546503358191     Delta-E=       -0.000000075622 Rises=F Damp=F
 DIIS: error= 9.57D-06 at cycle  11 NSaved=  11.
 NSaved=11 IEnMin=11 EnMin= -517.546503358191     IErMin=11 ErrMin= 9.57D-06
 ErrMax= 9.57D-06  0.00D+00 EMaxC= 1.00D+00 BMatC= 6.59D-09 BMatP= 2.43D-08
 IDIUse=1 WtCom= 1.00D+00 WtEn= 0.00D+00
 Coeff-Com:  0.764D-04-0.168D-03 0.930D-04 0.255D-02-0.151D-02-0.153D-01
 Coeff-Com: -0.870D-02 0.173D+00-0.463D-01-0.160D+01 0.250D+01
 Coeff:      0.764D-04-0.168D-03 0.930D-04 0.255D-02-0.151D-02-0.153D-01
 Coeff:     -0.870D-02 0.173D+00-0.463D-01-0.160D+01 0.250D+01
 Gap=     0.392 Goal=   None    Shift=    0.500
 RMSDP=1.01D-06 MaxDP=4.08D-05 DE=-7.56D-08 OVMax= 5.32D-05

 Cycle  12  Pass 1  IDiag  1:
 E= -517.546503376798     Delta-E=       -0.000000018607 Rises=F Damp=F
 DIIS: error= 5.00D-06 at cycle  12 NSaved=  12.
 NSaved=12 IEnMin=12 EnMin= -517.546503376798     IErMin=12 ErrMin= 5.00D-06
 ErrMax= 5.00D-06  0.00D+00 EMaxC= 1.00D+00 BMatC= 1.90D-09 BMatP= 6.59D-09
 IDIUse=1 WtCom= 1.00D+00 WtEn= 0.00D+00
 Coeff-Com: -0.638D-04 0.344D-03-0.446D-03-0.560D-03-0.226D-03 0.847D-02
 Coeff-Com:  0.501D-02-0.946D-01 0.307D+00-0.409D+00-0.954D+00 0.214D+01
 Coeff:     -0.638D-04 0.344D-03-0.446D-03-0.560D-03-0.226D-03 0.847D-02
 Coeff:      0.501D-02-0.946D-01 0.307D+00-0.409D+00-0.954D+00 0.214D+01
 Gap=     0.392 Goal=   None    Shift=    0.500
 RMSDP=4.85D-07 MaxDP=1.85D-05 DE=-1.86D-08 OVMax= 2.65D-05

 SCF Done:  E(RLC-wHPBE) =  -517.546503377     A.U. after   12 cycles
            NFock= 12  Conv=0.49D-06     -V/T= 2.0054
 KE= 5.147881784929D+02 PE=-2.668449902427D+03 EE= 8.953522388446D+02
 Leave Link  502 at Mon Jan 25 21:03:00 2021, MaxMem=  4026531840 cpu:            1180.4 elap:             153.1
 (Enter /opt/ohpc/pub/libs/gaussian/g16-A.03/sandybridge/g16/l508.exe)
 QCSCF skips out because SCF is already converged.
 Leave Link  508 at Mon Jan 25 21:03:00 2021, MaxMem=  4026531840 cpu:               0.1 elap:               0.0
 (Enter /opt/ohpc/pub/libs/gaussian/g16-A.03/sandybridge/g16/l601.exe)
 Copying SCF densities to generalized density rwf, IOpCl= 0 IROHF=0.

 **********************************************************************

            Population analysis using the SCF density.

 **********************************************************************

 Orbital symmetries:
       Occupied  (A) (A) (A) (A) (A) (A) (A) (A) (A) (A) (A) (A)
                 (A) (A) (A) (A) (A) (A) (A) (A) (A) (A) (A) (A)
                 (A) (A) (A) (A) (A) (A) (A) (A) (A) (A) (A) (A)
                 (A) (A) (A) (A) (A) (A) (A) (A) (A) (A)
       Virtual   (A) (A) (A) (A) (A) (A) (A) (A) (A) (A) (A) (A)
                 (A) (A) (A) (A) (A) (A) (A) (A) (A) (A) (A) (A)
                 (A) (A) (A) (A) (A) (A) (A) (A) (A) (A) (A) (A)
                 (A) (A) (A) (A) (A) (A) (A) (A) (A) (A) (A) (A)
                 (A) (A) (A) (A) (A) (A) (A) (A) (A) (A) (A) (A)
                 (A) (A) (A) (A) (A) (A) (A) (A) (A) (A) (A) (A)
                 (A) (A) (A) (A) (A) (A) (A) (A) (A) (A) (A) (A)
                 (A) (A) (A) (A) (A) (A) (A) (A) (A) (A) (A) (A)
                 (A) (A) (A) (A) (A) (A) (A) (A) (A) (A) (A) (A)
                 (A) (A) (A) (A) (A) (A) (A) (A) (A) (A) (A) (A)
                 (A) (A) (A) (A) (A) (A) (A) (A) (A) (A) (A) (A)
                 (A) (A) (A) (A) (A) (A) (A) (A) (A) (A) (A) (A)
                 (A) (A) (A) (A) (A) (A) (A) (A) (A) (A) (A) (A)
                 (A) (A) (A) (A) (A) (A) (A) (A) (A) (A) (A) (A)
                 (A) (A) (A) (A) (A) (A) (A) (A) (A) (A) (A) (A)
                 (A) (A) (A) (A) (A) (A) (A) (A) (A) (A) (A) (A)
                 (A) (A) (A) (A) (A) (A) (A) (A) (A) (A) (A) (A)
                 (A) (A) (A) (A) (A) (A) (A) (A) (A) (A) (A) (A)
                 (A) (A) (A) (A) (A) (A) (A) (A) (A) (A) (A) (A)
                 (A) (A) (A) (A) (A) (A) (A) (A) (A) (A) (A) (A)
                 (A) (A) (A) (A) (A) (A) (A) (A) (A) (A) (A) (A)
                 (A) (A) (A) (A) (A) (A) (A) (A) (A) (A) (A) (A)
                 (A) (A) (A) (A) (A) (A) (A) (A) (A) (A) (A) (A)
                 (A) (A) (A) (A) (A) (A) (A) (A) (A) (A) (A) (A)
                 (A) (A)
 The electronic state is 1-A.
 Alpha  occ. eigenvalues --  -14.35422 -14.35422 -14.35421 -10.29378 -10.29308
 Alpha  occ. eigenvalues --  -10.29307 -10.23186 -10.23185 -10.23185 -10.23182
 Alpha  occ. eigenvalues --  -10.23182 -10.23181  -1.25426  -1.21302  -1.21301
 Alpha  occ. eigenvalues --   -1.15460  -0.98387  -0.98387  -0.97497  -0.96047
 Alpha  occ. eigenvalues --   -0.96046  -0.94021  -0.79787  -0.79787  -0.78903
 Alpha  occ. eigenvalues --   -0.75121  -0.74282  -0.74282  -0.71800  -0.71799
 Alpha  occ. eigenvalues --   -0.71374  -0.65731  -0.65730  -0.65523  -0.65504
 Alpha  occ. eigenvalues --   -0.64336  -0.64334  -0.64087  -0.62791  -0.62790
 Alpha  occ. eigenvalues --   -0.61276  -0.61094  -0.61092  -0.52618  -0.52618
 Alpha  occ. eigenvalues --   -0.42162
 Alpha virt. eigenvalues --   -0.02989  -0.02838  -0.02835   0.00479   0.00481
 Alpha virt. eigenvalues --    0.02041   0.03416   0.03417   0.03648   0.06179
 Alpha virt. eigenvalues --    0.06180   0.06291   0.06630   0.06634   0.06636
 Alpha virt. eigenvalues --    0.07515   0.07746   0.07864   0.07867   0.09215
 Alpha virt. eigenvalues --    0.09223   0.10229   0.10235   0.11170   0.13339
 Alpha virt. eigenvalues --    0.13585   0.13592   0.15504   0.16366   0.16370
 Alpha virt. eigenvalues --    0.17078   0.17087   0.19743   0.20497   0.20501
 Alpha virt. eigenvalues --    0.21741   0.22593   0.23701   0.23706   0.26427
 Alpha virt. eigenvalues --    0.27083   0.27106   0.27119   0.28552   0.28555
 Alpha virt. eigenvalues --    0.30164   0.30172   0.31191   0.33291   0.33293
 Alpha virt. eigenvalues --    0.34226   0.35360   0.35951   0.35963   0.37979
 Alpha virt. eigenvalues --    0.38782   0.38791   0.39058   0.40418   0.40419
 Alpha virt. eigenvalues --    0.40738   0.42031   0.42036   0.42629   0.43994
 Alpha virt. eigenvalues --    0.44104   0.44107   0.44396   0.44403   0.46153
 Alpha virt. eigenvalues --    0.46161   0.47977   0.48104   0.49283   0.49286
 Alpha virt. eigenvalues --    0.49294   0.50645   0.50707   0.50710   0.53878
 Alpha virt. eigenvalues --    0.53880   0.57839   0.57841   0.61000   0.61011
 Alpha virt. eigenvalues --    0.61318   0.61323   0.61630   0.62880   0.65721
 Alpha virt. eigenvalues --    0.68721   0.69126   0.69131   0.76187   0.76197
 Alpha virt. eigenvalues --    0.80362   0.80506   0.80512   1.09562   1.09568
 Alpha virt. eigenvalues --    1.09612   1.14129   1.19271   1.19561   1.19575
 Alpha virt. eigenvalues --    1.20391   1.21235   1.24039   1.24044   1.26104
 Alpha virt. eigenvalues --    1.26107   1.28809   1.29145   1.29147   1.29767
 Alpha virt. eigenvalues --    1.30489   1.31281   1.31286   1.32975   1.32979
 Alpha virt. eigenvalues --    1.33735   1.35076   1.35088   1.39711   1.39909
 Alpha virt. eigenvalues --    1.39919   1.40806   1.41472   1.41477   1.41863
 Alpha virt. eigenvalues --    1.43518   1.43532   1.46080   1.46084   1.48349
 Alpha virt. eigenvalues --    1.50408   1.51335   1.52021   1.52029   1.52848
 Alpha virt. eigenvalues --    1.52852   1.53986   1.53991   1.56778   1.59140
 Alpha virt. eigenvalues --    1.59734   1.59745   1.61572   1.61578   1.61671
 Alpha virt. eigenvalues --    1.64655   1.64659   1.66667   1.67314   1.67317
 Alpha virt. eigenvalues --    1.69365   1.71687   1.71690   1.72590   1.74182
 Alpha virt. eigenvalues --    1.74185   1.74425   1.74596   1.74681   1.74688
 Alpha virt. eigenvalues --    1.75312   1.75321   1.75597   1.76996   1.77001
 Alpha virt. eigenvalues --    1.78208   1.78244   1.78255   1.78812   1.83276
 Alpha virt. eigenvalues --    1.83280   1.83992   1.84001   1.85834   1.95867
 Alpha virt. eigenvalues --    1.98124   1.98141   2.04450   2.04682   2.04690
 Alpha virt. eigenvalues --    2.06561   2.08735   2.08741   2.09532   2.12016
 Alpha virt. eigenvalues --    2.12026   2.17393   2.17402   2.18831   2.23649
 Alpha virt. eigenvalues --    2.23762   2.24820   2.24828   2.25697   2.25703
 Alpha virt. eigenvalues --    2.26089   2.27572   2.29570   2.29588   2.31098
 Alpha virt. eigenvalues --    2.31106   2.31408   2.33983   2.35046   2.35054
 Alpha virt. eigenvalues --    2.39373   2.40767   2.40780   2.48220   2.48232
 Alpha virt. eigenvalues --    2.48674   2.48813   2.48819   2.51760   2.51769
 Alpha virt. eigenvalues --    2.51844   2.53005   2.53928   2.53958   2.56316
 Alpha virt. eigenvalues --    2.56798   2.56815   2.57452   2.59969   2.63158
 Alpha virt. eigenvalues --    2.63175   2.63260   2.66671   2.66677   2.68455
 Alpha virt. eigenvalues --    2.71417   2.71427   2.73187   2.73698   2.73720
 Alpha virt. eigenvalues --    2.78486   2.78491   2.80613   2.81579   2.84114
 Alpha virt. eigenvalues --    2.84117   2.91902   2.91904   3.04493   3.05066
 Alpha virt. eigenvalues --    3.05095   3.05643   3.06945   3.06954   3.13232
 Alpha virt. eigenvalues --    3.17349   3.17353   3.24491   3.24503   3.26252
 Alpha virt. eigenvalues --    3.26475   3.26479   3.27719   3.29094   3.29107
 Alpha virt. eigenvalues --    3.30013   3.34804   3.34823   3.36364   3.40880
 Alpha virt. eigenvalues --    3.40887   3.43950   3.49486   3.67807   3.67821
 Alpha virt. eigenvalues --    3.78466   3.93379   3.93387  21.43047  21.71947
 Alpha virt. eigenvalues --   21.73891  21.73898  21.89750  21.89752  21.93959
 Alpha virt. eigenvalues --   22.16394  22.16407  31.57274  31.76455  31.76460
          Condensed to atoms (all electrons):
               1          2          3          4          5          6
     1  C    5.790981   0.073362   0.511980  -0.105040  -0.056939  -0.006815
     2  C    0.073362   5.791601  -0.104973   0.512064  -0.003045  -0.003818
     3  N    0.511980  -0.104973   6.535170  -0.000918   0.200896  -0.038199
     4  N   -0.105040   0.512064  -0.000918   6.535114  -0.000654  -0.000010
     5  C   -0.056939  -0.003045   0.200896  -0.000654   4.938327   0.422840
     6  H   -0.006815  -0.003818  -0.038199  -0.000010   0.422840   0.499981
     7  H   -0.015118   0.008147  -0.029713   0.000016   0.408219  -0.024371
     8  H    0.008320   0.001168  -0.039520   0.000005   0.408039  -0.025789
     9  C   -0.057047  -0.004591   0.200838  -0.001422  -0.043933  -0.008395
    10  H    0.008356  -0.003155  -0.039474  -0.000018   0.000513   0.003012
    11  H   -0.006856   0.007148  -0.038227   0.000066  -0.008375  -0.000315
    12  H   -0.015117  -0.001269  -0.029678  -0.001525   0.007984  -0.000104
    13  C   -0.003079  -0.056975  -0.000654   0.200920  -0.000007  -0.000003
    14  H   -0.003819  -0.006836  -0.000010  -0.038224  -0.000003  -0.000000
    15  H    0.008138  -0.015097   0.000016  -0.029688   0.000002  -0.000000
    16  H    0.001169   0.008349   0.000005  -0.039502   0.000001   0.000000
    17  C   -0.004690  -0.056972  -0.001427   0.200895   0.000006  -0.000002
    18  H   -0.003166   0.008316  -0.000018  -0.039530  -0.000003  -0.000000
    19  H    0.007138  -0.006803   0.000066  -0.038205   0.000012   0.000001
    20  H   -0.001240  -0.015114  -0.001538  -0.029713  -0.000082   0.000003
    21  C    0.074448   0.073235  -0.104953  -0.104995  -0.004740   0.007143
    22  N   -0.105021  -0.104949  -0.000922  -0.000918  -0.001422   0.000066
    23  C   -0.004770  -0.002977  -0.001425  -0.000654   0.001327  -0.000445
    24  H    0.007138  -0.003820   0.000065  -0.000009  -0.000442  -0.000025
    25  H   -0.001256   0.008207  -0.001532   0.000016  -0.001122  -0.000758
    26  H   -0.003171   0.001167  -0.000018   0.000005   0.000055   0.000025
    27  C   -0.003122  -0.004563  -0.000654  -0.001423   0.000005   0.000012
    28  H    0.001172  -0.003160   0.000005  -0.000018  -0.000000  -0.000001
    29  H   -0.003819   0.007140  -0.000009   0.000066  -0.000002   0.000001
    30  H    0.008125  -0.001288   0.000016  -0.001533   0.000011   0.000000
               7          8          9         10         11         12
     1  C   -0.015118   0.008320  -0.057047   0.008356  -0.006856  -0.015117
     2  C    0.008147   0.001168  -0.004591  -0.003155   0.007148  -0.001269
     3  N   -0.029713  -0.039520   0.200838  -0.039474  -0.038227  -0.029678
     4  N    0.000016   0.000005  -0.001422  -0.000018   0.000066  -0.001525
     5  C    0.408219   0.408039  -0.043933   0.000513  -0.008375   0.007984
     6  H   -0.024371  -0.025789  -0.008395   0.003012  -0.000315  -0.000104
     7  H    0.524557  -0.020280   0.007986   0.000302  -0.000106  -0.000462
     8  H   -0.020280   0.502933   0.000530  -0.003025   0.003014   0.000300
     9  C    0.007986   0.000530   4.938587   0.407951   0.422879   0.408283
    10  H    0.000302  -0.003025   0.407951   0.502888  -0.025764  -0.020247
    11  H   -0.000106   0.003014   0.422879  -0.025764   0.499992  -0.024406
    12  H   -0.000462   0.000300   0.408283  -0.020247  -0.024406   0.524380
    13  C    0.000002   0.000001   0.000007  -0.000003   0.000012  -0.000082
    14  H   -0.000000   0.000000  -0.000002  -0.000000   0.000001   0.000003
    15  H   -0.000002   0.000000   0.000011  -0.000000   0.000000   0.000016
    16  H    0.000000  -0.000000  -0.000000   0.000000  -0.000001   0.000002
    17  C    0.000011  -0.000000   0.001387   0.000055  -0.000455  -0.001105
    18  H   -0.000000   0.000000   0.000055  -0.000003   0.000025   0.000330
    19  H    0.000000  -0.000001  -0.000451   0.000025  -0.000024  -0.000754
    20  H    0.000016   0.000002  -0.001095   0.000331  -0.000759  -0.003697
    21  C   -0.001257  -0.003161  -0.003142   0.001169  -0.003818   0.008093
    22  N   -0.001520  -0.000018  -0.000654   0.000005  -0.000009   0.000015
    23  C   -0.001132   0.000055   0.000004   0.000000  -0.000002   0.000011
    24  H   -0.000754   0.000024   0.000012  -0.000001   0.000001   0.000000
    25  H   -0.003668   0.000331  -0.000081   0.000002   0.000003   0.000016
    26  H    0.000330  -0.000003  -0.000003   0.000000  -0.000000  -0.000000
    27  C   -0.000081  -0.000003  -0.000007   0.000001  -0.000003   0.000002
    28  H    0.000002   0.000000   0.000001  -0.000000   0.000000   0.000000
    29  H    0.000004  -0.000000  -0.000003   0.000000  -0.000000  -0.000000
    30  H    0.000016  -0.000000   0.000002   0.000000  -0.000000  -0.000002
              13         14         15         16         17         18
     1  C   -0.003079  -0.003819   0.008138   0.001169  -0.004690  -0.003166
     2  C   -0.056975  -0.006836  -0.015097   0.008349  -0.056972   0.008316
     3  N   -0.000654  -0.000010   0.000016   0.000005  -0.001427  -0.000018
     4  N    0.200920  -0.038224  -0.029688  -0.039502   0.200895  -0.039530
     5  C   -0.000007  -0.000003   0.000002   0.000001   0.000006  -0.000003
     6  H   -0.000003  -0.000000  -0.000000   0.000000  -0.000002  -0.000000
     7  H    0.000002  -0.000000  -0.000002   0.000000   0.000011  -0.000000
     8  H    0.000001   0.000000   0.000000  -0.000000  -0.000000   0.000000
     9  C    0.000007  -0.000002   0.000011  -0.000000   0.001387   0.000055
    10  H   -0.000003  -0.000000  -0.000000   0.000000   0.000055  -0.000003
    11  H    0.000012   0.000001   0.000000  -0.000001  -0.000455   0.000025
    12  H   -0.000082   0.000003   0.000016   0.000002  -0.001105   0.000330
    13  C    4.938389   0.422890   0.408227   0.407976  -0.044004   0.000536
    14  H    0.422890   0.500002  -0.024378  -0.025792  -0.008390   0.003023
    15  H    0.408227  -0.024378   0.524457  -0.020259   0.007994   0.000300
    16  H    0.407976  -0.025792  -0.020259   0.502961   0.000514  -0.003024
    17  C   -0.044004  -0.008390   0.007994   0.000514   4.938334   0.408038
    18  H    0.000536   0.003023   0.000300  -0.003024   0.408038   0.502998
    19  H   -0.008393  -0.000316  -0.000105   0.003022   0.422829  -0.025804
    20  H    0.007987  -0.000105  -0.000462   0.000301   0.408209  -0.020274
    21  C   -0.004681   0.007139  -0.001293  -0.003154  -0.003054   0.001167
    22  N   -0.001425   0.000066  -0.001535  -0.000018  -0.000654   0.000005
    23  C    0.000006   0.000012  -0.000082  -0.000003  -0.000007   0.000001
    24  H   -0.000002   0.000001   0.000004  -0.000000  -0.000003   0.000000
    25  H    0.000011   0.000000   0.000016  -0.000000   0.000002   0.000000
    26  H   -0.000000  -0.000001   0.000002   0.000000   0.000001  -0.000000
    27  C    0.001377  -0.000452  -0.001104   0.000055   0.000006  -0.000000
    28  H    0.000055   0.000025   0.000330  -0.000003  -0.000003   0.000000
    29  H   -0.000452  -0.000024  -0.000756   0.000025   0.000012  -0.000001
    30  H   -0.001104  -0.000756  -0.003688   0.000330  -0.000082   0.000002
              19         20         21         22         23         24
     1  C    0.007138  -0.001240   0.074448  -0.105021  -0.004770   0.007138
     2  C   -0.006803  -0.015114   0.073235  -0.104949  -0.002977  -0.003820
     3  N    0.000066  -0.001538  -0.104953  -0.000922  -0.001425   0.000065
     4  N   -0.038205  -0.029713  -0.104995  -0.000918  -0.000654  -0.000009
     5  C    0.000012  -0.000082  -0.004740  -0.001422   0.001327  -0.000442
     6  H    0.000001   0.000003   0.007143   0.000066  -0.000445  -0.000025
     7  H    0.000000   0.000016  -0.001257  -0.001520  -0.001132  -0.000754
     8  H   -0.000001   0.000002  -0.003161  -0.000018   0.000055   0.000024
     9  C   -0.000451  -0.001095  -0.003142  -0.000654   0.000004   0.000012
    10  H    0.000025   0.000331   0.001169   0.000005   0.000000  -0.000001
    11  H   -0.000024  -0.000759  -0.003818  -0.000009  -0.000002   0.000001
    12  H   -0.000754  -0.003697   0.008093   0.000015   0.000011   0.000000
    13  C   -0.008393   0.007987  -0.004681  -0.001425   0.000006  -0.000002
    14  H   -0.000316  -0.000105   0.007139   0.000066   0.000012   0.000001
    15  H   -0.000105  -0.000462  -0.001293  -0.001535  -0.000082   0.000004
    16  H    0.003022   0.000301  -0.003154  -0.000018  -0.000003  -0.000000
    17  C    0.422829   0.408209  -0.003054  -0.000654  -0.000007  -0.000003
    18  H   -0.025804  -0.020274   0.001167   0.000005   0.000001   0.000000
    19  H    0.500000  -0.024358  -0.003810  -0.000009  -0.000003  -0.000000
    20  H   -0.024358   0.524487   0.008142   0.000016   0.000002  -0.000000
    21  C   -0.003810   0.008142   5.790901   0.512062  -0.056896  -0.006783
    22  N   -0.000009   0.000016   0.512062   6.534994   0.200984  -0.038195
    23  C   -0.000003   0.000002  -0.056896   0.200984   4.938085   0.422835
    24  H   -0.000000  -0.000000  -0.006783  -0.038195   0.422835   0.500011
    25  H   -0.000000  -0.000002  -0.015099  -0.029738   0.408130  -0.024326
    26  H    0.000000   0.000000   0.008297  -0.039551   0.408084  -0.025836
    27  C   -0.000002   0.000011  -0.057060   0.200908  -0.044064  -0.008417
    28  H   -0.000000  -0.000000   0.008358  -0.039509   0.000513   0.003030
    29  H    0.000001   0.000000  -0.006842  -0.038207  -0.008377  -0.000317
    30  H    0.000003   0.000016  -0.015108  -0.029674   0.007993  -0.000104
              25         26         27         28         29         30
     1  C   -0.001256  -0.003171  -0.003122   0.001172  -0.003819   0.008125
     2  C    0.008207   0.001167  -0.004563  -0.003160   0.007140  -0.001288
     3  N   -0.001532  -0.000018  -0.000654   0.000005  -0.000009   0.000016
     4  N    0.000016   0.000005  -0.001423  -0.000018   0.000066  -0.001533
     5  C   -0.001122   0.000055   0.000005  -0.000000  -0.000002   0.000011
     6  H   -0.000758   0.000025   0.000012  -0.000001   0.000001   0.000000
     7  H   -0.003668   0.000330  -0.000081   0.000002   0.000004   0.000016
     8  H    0.000331  -0.000003  -0.000003   0.000000  -0.000000  -0.000000
     9  C   -0.000081  -0.000003  -0.000007   0.000001  -0.000003   0.000002
    10  H    0.000002   0.000000   0.000001  -0.000000   0.000000   0.000000
    11  H    0.000003  -0.000000  -0.000003   0.000000  -0.000000  -0.000000
    12  H    0.000016  -0.000000   0.000002   0.000000  -0.000000  -0.000002
    13  C    0.000011  -0.000000   0.001377   0.000055  -0.000452  -0.001104
    14  H    0.000000  -0.000001  -0.000452   0.000025  -0.000024  -0.000756
    15  H    0.000016   0.000002  -0.001104   0.000330  -0.000756  -0.003688
    16  H   -0.000000   0.000000   0.000055  -0.000003   0.000025   0.000330
    17  C    0.000002   0.000001   0.000006  -0.000003   0.000012  -0.000082
    18  H    0.000000  -0.000000  -0.000000   0.000000  -0.000001   0.000002
    19  H   -0.000000   0.000000  -0.000002  -0.000000   0.000001   0.000003
    20  H   -0.000002   0.000000   0.000011  -0.000000   0.000000   0.000016
    21  C   -0.015099   0.008297  -0.057060   0.008358  -0.006842  -0.015108
    22  N   -0.029738  -0.039551   0.200908  -0.039509  -0.038207  -0.029674
    23  C    0.408130   0.408084  -0.044064   0.000513  -0.008377   0.007993
    24  H   -0.024326  -0.025836  -0.008417   0.003030  -0.000317  -0.000104
    25  H    0.524622  -0.020294   0.007999   0.000302  -0.000108  -0.000462
    26  H   -0.020294   0.503050   0.000539  -0.003024   0.003030   0.000298
    27  C    0.007999   0.000539   4.938449   0.407965   0.422874   0.408230
    28  H    0.000302  -0.003024   0.407965   0.502992  -0.025790  -0.020258
    29  H   -0.000108   0.003030   0.422874  -0.025790   0.499997  -0.024382
    30  H   -0.000462   0.000298   0.408230  -0.020258  -0.024382   0.524444
 Mulliken charges:
               1
     1  C   -0.100242
     2  C   -0.100498
     3  N   -0.015195
     4  N   -0.015171
     5  C   -0.267468
     6  H    0.175962
     7  H    0.148857
     8  H    0.167079
     9  C   -0.267706
    10  H    0.167081
    11  H    0.175976
    12  H    0.149014
    13  C   -0.267528
    14  H    0.175946
    15  H    0.148938
    16  H    0.167047
    17  C   -0.267445
    18  H    0.167026
    19  H    0.175942
    20  H    0.148917
    21  C   -0.100305
    22  N   -0.015173
    23  C   -0.267206
    24  H    0.175912
    25  H    0.148789
    26  H    0.167018
    27  C   -0.267478
    28  H    0.167014
    29  H    0.175941
    30  H    0.148953
 Sum of Mulliken charges =   1.00000
 Mulliken charges with hydrogens summed into heavy atoms:
               1
     1  C   -0.100242
     2  C   -0.100498
     3  N   -0.015195
     4  N   -0.015171
     5  C    0.224430
     9  C    0.224365
    13  C    0.224404
    17  C    0.224442
    21  C   -0.100305
    22  N   -0.015173
    23  C    0.224513
    27  C    0.224430
 Electronic spatial extent (au):  <R**2>=           2594.2504
 Charge=              1.0000 electrons
 Dipole moment (field-independent basis, Debye):
    X=             -0.0004    Y=             -0.0002    Z=              0.0007  Tot=              0.0008
 Quadrupole moment (field-independent basis, Debye-Ang):
   XX=            -44.0924   YY=            -44.0963   ZZ=            -71.7320
   XY=              0.0015   XZ=              0.0001   YZ=              0.0003
 Traceless Quadrupole moment (field-independent basis, Debye-Ang):
   XX=              9.2145   YY=              9.2106   ZZ=            -18.4251
   XY=              0.0015   XZ=              0.0001   YZ=              0.0003
 Octapole moment (field-independent basis, Debye-Ang**2):
  XXX=              8.3278  YYY=             14.6281  ZZZ=              0.0015  XYY=             -8.3396
  XXY=            -14.6463  XXZ=              0.0011  XZZ=              0.0026  YZZ=              0.0045
  YYZ=              0.0017  XYZ=             -0.0002
 Hexadecapole moment (field-independent basis, Debye-Ang**3):
 XXXX=          -1385.1420 YYYY=          -1384.8850 ZZZZ=           -132.1333 XXXY=              0.0132
 XXXZ=              4.4175 YYYX=              0.0196 YYYZ=             -2.4972 ZZZX=             -0.0158
 ZZZY=              0.0025 XXYY=           -461.6492 XXZZ=           -275.7458 YYZZ=           -275.7212
 XXYZ=              2.4859 YYXZ=             -4.3627 ZZXY=             -0.0093
 N-N= 7.407629817128D+02 E-N=-2.668449880427D+03  KE= 5.147881784929D+02
 No NMR shielding tensors so no spin-rotation constants.
 Leave Link  601 at Mon Jan 25 21:03:00 2021, MaxMem=  4026531840 cpu:               3.1 elap:               0.7
 (Enter /opt/ohpc/pub/libs/gaussian/g16-A.03/sandybridge/g16/l9999.exe)

 Test job not archived.
 1\1\GINC-CNODE237\SP\RLC-wHPBE\TZVP\C9H18N3(1+)\RDU230\25-Jan-2021\0\\
 #P LC-wHPBE/TZVP iop(3/107=0328100000, 3/108=0328100000) scf=(conver=6
 ,fermi,ndamp=35,noincfock,novaracc,vshift=500,xqc)\\H18 C9 N3\\1,1\C,0
 ,-0.610862,0.51088,0.000115\C,0,-0.136805,-0.784324,0.000118\N,0,-1.62
 5284,1.358829,0.000149\N,0,-0.364248,-2.086765,0.000256\C,0,-1.430247,
 2.779535,-0.245115\H,0,-1.514482,3.356239,0.681778\H,0,-0.453085,2.953
 583,-0.69457\H,0,-2.189123,3.132424,-0.948067\C,0,-2.988895,0.914734,0
 .244915\H,0,-3.47163,1.599951,0.946347\H,0,-3.570653,0.893667,-0.68241
 9\H,0,-2.986873,-0.077069,0.695991\C,0,0.701968,-3.045906,0.244739\H,0
 ,1.009895,-3.54009,-0.68252\H,0,1.56061,-2.548225,0.694397\H,0,0.35036
 1,-3.805818,0.947208\C,0,-1.692259,-2.627901,-0.244928\H,0,-1.618712,-
 3.461412,-0.948079\H,0,-2.149477,-2.989362,0.681963\H,0,-2.331523,-1.8
 6843,-0.69401\C,0,0.747831,0.27381,0.000062\N,0,1.989493,0.728067,-0.0
 00089\C,0,2.287295,2.130832,0.245062\H,0,2.563599,2.644356,-0.681638\H
 ,0,1.426241,2.626112,0.692731\H,0,3.119706,2.205914,0.949371\C,0,3.122
 069,-0.151615,-0.24503\H,0,3.807758,0.3292,-0.947323\H,0,3.663007,-0.3
 67678,0.682084\H,0,2.784087,-1.084552,-0.695089\\Version=EM64L-G16RevA
 .03\State=1-A\HF=-517.5465034\RMSD=4.852e-07\Dipole=-0.0001531,0.00009
 81,-0.0002687\Quadrupole=6.8507272,6.8478914,-13.6986186,-0.0011069,-0
 .0001027,0.0001996\PG=C01 [X(C9H18N3)]\\@


 NO SCIENCE HAS EVER MADE MORE RAPID PROGRESS IN A
 SHORTER TIME THAN CHEMISTRY.
   -- MARTIN HEINRICH KLOPROTH, 1791
 (FIRST PROFESSOR OF CHEMISTRY AT THE UNIVERSITY OF BERLIN)
 Job cpu time:       0 days  0 hours 20 minutes 26.0 seconds.
 Elapsed time:       0 days  0 hours  2 minutes 41.7 seconds.
 File lengths (MBytes):  RWF=     92 Int=      0 D2E=      0 Chk=     12 Scr=      8
 Normal termination of Gaussian 16 at Mon Jan 25 21:03:00 2021.
