 Entering Gaussian System, Link 0=g16
 Input=mol_NN_cp_frag_tune_n10.gjf
 Output=mol_NN_cp_frag_tune_n10.log
 Initial command:
 /opt/ohpc/pub/libs/gaussian/g16-A.03/sandybridge/g16/l1.exe "/mnt/gpfs2_4m/scratch/rdu230/ondemand/projects/init_structures/gaussian/wtuning/mol_NN_cp_frag/tuning_mol_NN_cp_frag_ocycle0/Gau-18821.inp" -scrdir="/mnt/gpfs2_4m/scratch/rdu230/ondemand/projects/init_structures/gaussian/wtuning/mol_NN_cp_frag/tuning_mol_NN_cp_frag_ocycle0/"
 Entering Link 1 = /opt/ohpc/pub/libs/gaussian/g16-A.03/sandybridge/g16/l1.exe PID=     18822.
  
 Copyright (c) 1988,1990,1992,1993,1995,1998,2003,2009,2016,
            Gaussian, Inc.  All Rights Reserved.
  
 This is part of the Gaussian(R) 16 program.  It is based on
 the Gaussian(R) 09 system (copyright 2009, Gaussian, Inc.),
 the Gaussian(R) 03 system (copyright 2003, Gaussian, Inc.),
 the Gaussian(R) 98 system (copyright 1998, Gaussian, Inc.),
 the Gaussian(R) 94 system (copyright 1995, Gaussian, Inc.),
 the Gaussian 92(TM) system (copyright 1992, Gaussian, Inc.),
 the Gaussian 90(TM) system (copyright 1990, Gaussian, Inc.),
 the Gaussian 88(TM) system (copyright 1988, Gaussian, Inc.),
 the Gaussian 86(TM) system (copyright 1986, Carnegie Mellon
 University), and the Gaussian 82(TM) system (copyright 1983,
 Carnegie Mellon University). Gaussian is a federally registered
 trademark of Gaussian, Inc.
  
 This software contains proprietary and confidential information,
 including trade secrets, belonging to Gaussian, Inc.
  
 This software is provided under written license and may be
 used, copied, transmitted, or stored only in accord with that
 written license.
  
 The following legend is applicable only to US Government
 contracts under FAR:
  
                    RESTRICTED RIGHTS LEGEND
  
 Use, reproduction and disclosure by the US Government is
 subject to restrictions as set forth in subparagraphs (a)
 and (c) of the Commercial Computer Software - Restricted
 Rights clause in FAR 52.227-19.
  
 Gaussian, Inc.
 340 Quinnipiac St., Bldg. 40, Wallingford CT 06492
  
  
 ---------------------------------------------------------------
 Warning -- This program may not be used in any manner that
 competes with the business of Gaussian, Inc. or will provide
 assistance to any competitor of Gaussian, Inc.  The licensee
 of this program is prohibited from giving any competitor of
 Gaussian, Inc. access to this program.  By using this program,
 the user acknowledges that Gaussian, Inc. is engaged in the
 business of creating and licensing software in the field of
 computational chemistry and represents and warrants to the
 licensee that it is not a competitor of Gaussian, Inc. and that
 it will not use this program in any manner prohibited above.
 ---------------------------------------------------------------
  

 Cite this work as:
 Gaussian 16, Revision A.03,
 M. J. Frisch, G. W. Trucks, H. B. Schlegel, G. E. Scuseria, 
 M. A. Robb, J. R. Cheeseman, G. Scalmani, V. Barone, 
 G. A. Petersson, H. Nakatsuji, X. Li, M. Caricato, A. V. Marenich, 
 J. Bloino, B. G. Janesko, R. Gomperts, B. Mennucci, H. P. Hratchian, 
 J. V. Ortiz, A. F. Izmaylov, J. L. Sonnenberg, D. Williams-Young, 
 F. Ding, F. Lipparini, F. Egidi, J. Goings, B. Peng, A. Petrone, 
 T. Henderson, D. Ranasinghe, V. G. Zakrzewski, J. Gao, N. Rega, 
 G. Zheng, W. Liang, M. Hada, M. Ehara, K. Toyota, R. Fukuda, 
 J. Hasegawa, M. Ishida, T. Nakajima, Y. Honda, O. Kitao, H. Nakai, 
 T. Vreven, K. Throssell, J. A. Montgomery, Jr., J. E. Peralta, 
 F. Ogliaro, M. J. Bearpark, J. J. Heyd, E. N. Brothers, K. N. Kudin, 
 V. N. Staroverov, T. A. Keith, R. Kobayashi, J. Normand, 
 K. Raghavachari, A. P. Rendell, J. C. Burant, S. S. Iyengar, 
 J. Tomasi, M. Cossi, J. M. Millam, M. Klene, C. Adamo, R. Cammi, 
 J. W. Ochterski, R. L. Martin, K. Morokuma, O. Farkas, 
 J. B. Foresman, and D. J. Fox, Gaussian, Inc., Wallingford CT, 2016.
 
 ******************************************
 Gaussian 16:  EM64L-G16RevA.03 25-Dec-2016
                25-Jan-2021 
 ******************************************
 %mem=30GB
 %nproc=8
 Will use up to    8 processors via shared memory.
 ----------------------------------------------------------------------
 #P LC-wHPBE/TZVP iop(3/107=0248100000, 3/108=0248100000) scf=(conver=6
 ,fermi,ndamp=35,noincfock,novaracc,vshift=500,xqc)
 ----------------------------------------------------------------------
 1/38=1,172=1/1;
 2/12=2,17=6,18=5,40=1/2;
 3/5=19,7=101,11=2,25=1,30=1,74=-71,107=248100000,108=248100000/1,2,3;
 4//1;
 5/5=100002,6=6,8=3,10=500,13=1,18=-1,22=13,38=1,93=35/2,8;
 6/7=2,8=2,9=2,10=2,28=1/1;
 99/5=1,9=1/99;
 Leave Link    1 at Mon Jan 25 21:55:52 2021, MaxMem=  4026531840 cpu:               1.3 elap:               0.2
 (Enter /opt/ohpc/pub/libs/gaussian/g16-A.03/sandybridge/g16/l101.exe)
 ---------
 H18 C9 N3
 ---------
 Symbolic Z-matrix:
 Charge =  1 Multiplicity = 1
 C                    -0.61086   0.51088   0.00012 
 C                    -0.13681  -0.78432   0.00012 
 N                    -1.62528   1.35883   0.00015 
 N                    -0.36425  -2.08677   0.00026 
 C                    -1.43025   2.77954  -0.24512 
 H                    -1.51448   3.35624   0.68178 
 H                    -0.45309   2.95358  -0.69457 
 H                    -2.18912   3.13242  -0.94807 
 C                    -2.9889    0.91473   0.24492 
 H                    -3.47163   1.59995   0.94635 
 H                    -3.57065   0.89367  -0.68242 
 H                    -2.98687  -0.07707   0.69599 
 C                     0.70197  -3.04591   0.24474 
 H                     1.00989  -3.54009  -0.68252 
 H                     1.56061  -2.54823   0.6944 
 H                     0.35036  -3.80582   0.94721 
 C                    -1.69226  -2.6279   -0.24493 
 H                    -1.61871  -3.46141  -0.94808 
 H                    -2.14948  -2.98936   0.68196 
 H                    -2.33152  -1.86843  -0.69401 
 C                     0.74783   0.27381   0.00006 
 N                     1.98949   0.72807  -0.00009 
 C                     2.2873    2.13083   0.24506 
 H                     2.5636    2.64436  -0.68164 
 H                     1.42624   2.62611   0.69273 
 H                     3.11971   2.20591   0.94937 
 C                     3.12207  -0.15162  -0.24503 
 H                     3.80776   0.3292   -0.94732 
 H                     3.66301  -0.36768   0.68208 
 H                     2.78409  -1.08455  -0.69509 
 
 ITRead=  0  0  0  0  0  0  0  0  0  0  0  0  0  0  0  0  0  0  0  0
 ITRead=  0  0  0  0  0  0  0  0  0  0
 MicOpt= -1 -1 -1 -1 -1 -1 -1 -1 -1 -1 -1 -1 -1 -1 -1 -1 -1 -1 -1 -1
 MicOpt= -1 -1 -1 -1 -1 -1 -1 -1 -1 -1
 NAtoms=     30 NQM=       30 NQMF=       0 NMMI=      0 NMMIF=      0
                NMic=       0 NMicF=      0.
                    Isotopes and Nuclear Properties:
 (Nuclear quadrupole moments (NQMom) in fm**2, nuclear magnetic moments (NMagM)
  in nuclear magnetons)

  Atom         1           2           3           4           5           6           7           8           9          10
 IAtWgt=          12          12          14          14          12           1           1           1          12           1
 AtmWgt=  12.0000000  12.0000000  14.0030740  14.0030740  12.0000000   1.0078250   1.0078250   1.0078250  12.0000000   1.0078250
 NucSpn=           0           0           2           2           0           1           1           1           0           1
 AtZEff=  -0.0000000  -0.0000000  -0.0000000  -0.0000000  -0.0000000  -0.0000000  -0.0000000  -0.0000000  -0.0000000  -0.0000000
 NQMom=    0.0000000   0.0000000   2.0440000   2.0440000   0.0000000   0.0000000   0.0000000   0.0000000   0.0000000   0.0000000
 NMagM=    0.0000000   0.0000000   0.4037610   0.4037610   0.0000000   2.7928460   2.7928460   2.7928460   0.0000000   2.7928460
 AtZNuc=   6.0000000   6.0000000   7.0000000   7.0000000   6.0000000   1.0000000   1.0000000   1.0000000   6.0000000   1.0000000

  Atom        11          12          13          14          15          16          17          18          19          20
 IAtWgt=           1           1          12           1           1           1          12           1           1           1
 AtmWgt=   1.0078250   1.0078250  12.0000000   1.0078250   1.0078250   1.0078250  12.0000000   1.0078250   1.0078250   1.0078250
 NucSpn=           1           1           0           1           1           1           0           1           1           1
 AtZEff=  -0.0000000  -0.0000000  -0.0000000  -0.0000000  -0.0000000  -0.0000000  -0.0000000  -0.0000000  -0.0000000  -0.0000000
 NQMom=    0.0000000   0.0000000   0.0000000   0.0000000   0.0000000   0.0000000   0.0000000   0.0000000   0.0000000   0.0000000
 NMagM=    2.7928460   2.7928460   0.0000000   2.7928460   2.7928460   2.7928460   0.0000000   2.7928460   2.7928460   2.7928460
 AtZNuc=   1.0000000   1.0000000   6.0000000   1.0000000   1.0000000   1.0000000   6.0000000   1.0000000   1.0000000   1.0000000

  Atom        21          22          23          24          25          26          27          28          29          30
 IAtWgt=          12          14          12           1           1           1          12           1           1           1
 AtmWgt=  12.0000000  14.0030740  12.0000000   1.0078250   1.0078250   1.0078250  12.0000000   1.0078250   1.0078250   1.0078250
 NucSpn=           0           2           0           1           1           1           0           1           1           1
 AtZEff=  -0.0000000  -0.0000000  -0.0000000  -0.0000000  -0.0000000  -0.0000000  -0.0000000  -0.0000000  -0.0000000  -0.0000000
 NQMom=    0.0000000   2.0440000   0.0000000   0.0000000   0.0000000   0.0000000   0.0000000   0.0000000   0.0000000   0.0000000
 NMagM=    0.0000000   0.4037610   0.0000000   2.7928460   2.7928460   2.7928460   0.0000000   2.7928460   2.7928460   2.7928460
 AtZNuc=   6.0000000   7.0000000   6.0000000   1.0000000   1.0000000   1.0000000   6.0000000   1.0000000   1.0000000   1.0000000
 Leave Link  101 at Mon Jan 25 21:55:52 2021, MaxMem=  4026531840 cpu:               1.2 elap:               0.3
 (Enter /opt/ohpc/pub/libs/gaussian/g16-A.03/sandybridge/g16/l202.exe)
                          Input orientation:                          
 ---------------------------------------------------------------------
 Center     Atomic      Atomic             Coordinates (Angstroms)
 Number     Number       Type             X           Y           Z
 ---------------------------------------------------------------------
      1          6           0       -0.610862    0.510880    0.000115
      2          6           0       -0.136805   -0.784324    0.000118
      3          7           0       -1.625284    1.358829    0.000149
      4          7           0       -0.364248   -2.086765    0.000256
      5          6           0       -1.430247    2.779535   -0.245115
      6          1           0       -1.514482    3.356239    0.681778
      7          1           0       -0.453085    2.953583   -0.694570
      8          1           0       -2.189123    3.132424   -0.948067
      9          6           0       -2.988895    0.914734    0.244915
     10          1           0       -3.471630    1.599951    0.946347
     11          1           0       -3.570653    0.893667   -0.682419
     12          1           0       -2.986873   -0.077069    0.695991
     13          6           0        0.701968   -3.045906    0.244739
     14          1           0        1.009895   -3.540090   -0.682520
     15          1           0        1.560610   -2.548225    0.694397
     16          1           0        0.350361   -3.805818    0.947208
     17          6           0       -1.692259   -2.627901   -0.244928
     18          1           0       -1.618712   -3.461412   -0.948079
     19          1           0       -2.149477   -2.989362    0.681963
     20          1           0       -2.331523   -1.868430   -0.694010
     21          6           0        0.747831    0.273810    0.000062
     22          7           0        1.989493    0.728067   -0.000089
     23          6           0        2.287295    2.130832    0.245062
     24          1           0        2.563599    2.644356   -0.681638
     25          1           0        1.426241    2.626112    0.692731
     26          1           0        3.119706    2.205914    0.949371
     27          6           0        3.122069   -0.151615   -0.245030
     28          1           0        3.807758    0.329200   -0.947323
     29          1           0        3.663007   -0.367678    0.682084
     30          1           0        2.784087   -1.084552   -0.695089
 ---------------------------------------------------------------------
                    Distance matrix (angstroms):
                    1          2          3          4          5
     1  C    0.000000
     2  C    1.379233   0.000000
     3  N    1.322146   2.609344   0.000000
     4  N    2.609325   1.322151   3.669105   0.000000
     5  C    2.424526   3.799240   1.454854   4.987729   0.000000
     6  H    3.062231   4.416663   2.113419   5.604802   1.094903
     7  H    2.544460   3.815046   2.097600   5.088790   1.089563
     8  H    3.203506   4.522386   2.088700   5.609761   1.092962
     9  C    2.424472   3.328835   1.454842   3.994700   2.479314
    10  H    3.203970   4.207276   2.088642   4.913531   2.641637
    11  H    3.061493   3.882373   2.113465   4.430582   2.886013
    12  H    2.544672   3.017836   2.097600   3.376550   3.386584
    13  C    3.799222   2.424486   4.987747   1.454833   6.222705
    14  H    4.416243   3.061889   5.604428   2.113435   6.788466
    15  H    3.815159   2.544521   5.088907   2.097583   6.181661
    16  H    4.522700   3.203707   5.610140   2.088666   6.925249
    17  C    3.328875   2.424512   3.994817   1.454839   5.413780
    18  H    4.206416   3.203424   4.912627   2.088701   6.283239
    19  H    3.883806   3.062344   4.432428   2.113397   5.887014
    20  H    3.017217   2.544383   3.375771   2.097581   4.755774
    21  C    1.379220   1.379213   2.609395   2.609413   3.329083
    22  N    2.609409   2.609304   3.669397   3.669247   3.995395
    23  C    3.329198   3.799262   3.995528   4.987859   3.805418
    24  H    3.885062   4.417332   4.434428   5.605424   4.019904
    25  H    3.017236   3.814957   3.376016   5.088868   3.010418
    26  H    4.206110   4.521888   4.912586   5.609443   4.738978
    27  C    3.799180   3.328765   4.987877   3.994919   5.414353
    28  H    4.522704   4.206799   5.610328   4.913291   5.825284
    29  H    4.416209   3.882943   5.604631   4.431584   6.058538
    30  H    3.815022   3.017459   5.088813   3.376381   5.735351
                    6          7          8          9         10
     6  H    0.000000
     7  H    1.784105   0.000000
     8  H    1.778097   1.763540   0.000000
     9  C    2.885427   3.386720   2.642156   0.000000
    10  H    2.642910   3.692769   2.753562   1.092960   0.000000
    11  H    3.486134   3.736661   2.644093   1.094913   1.778067
    12  H    3.735738   4.187910   3.693261   1.089563   1.763537
    13  C    6.789044   6.181449   6.924807   5.413792   6.284518
    14  H    7.469481   6.656444   7.404504   6.057715   7.011226
    15  H    6.657255   6.021137   7.001997   5.735165   6.526430
    16  H    7.405616   7.002176   7.627598   5.824728   6.620420
    17  C    6.058079   5.735041   5.824313   3.804139   4.739201
    18  H    7.010539   6.524961   6.618462   4.738279   5.713103
    19  H    6.377293   6.331760   6.335206   4.017163   4.783281
    20  H    5.464203   5.174972   5.009328   3.009937   4.002534
    21  C    3.883834   3.017598   4.206700   3.799192   4.523047
    22  N    4.432840   3.376598   4.913291   4.987907   5.610685
    23  C    4.018190   3.011563   4.739732   5.414524   5.825706
    24  H    4.358489   3.032519   4.785140   5.888997   6.337595
    25  H    3.030026   2.358751   4.002428   4.756341   5.010635
    26  H    4.782317   4.003297   5.713349   6.283185   6.619132
    27  C    5.887412   4.756687   6.283943   6.222622   6.925621
    28  H    6.335864   5.010594   6.619717   6.925227   7.628256
    29  H    6.377613   5.465177   7.011101   6.788483   7.405703
    30  H    6.331989   5.175502   6.525312   6.181268   7.002490
                   11         12         13         14         15
    11  H    0.000000
    12  H    1.784136   0.000000
    13  C    5.885163   4.756592   0.000000
    14  H    6.374921   5.465067   1.094918   0.000000
    15  H    6.330253   5.175540   1.089562   1.784092   0.000000
    16  H    6.333656   5.010370   1.092958   1.778092   1.763563
    17  C    4.015122   3.011328   2.479279   2.885344   3.386715
    18  H    4.779891   4.003574   2.642161   2.643158   3.693200
    19  H    4.354216   3.030327   2.885325   3.485218   3.736242
    20  H    3.027335   2.360204   3.386704   3.736262   4.187899
    21  C    4.415802   3.815160   3.329037   3.883353   3.017713
    22  N    5.604304   5.088909   3.995064   4.431985   3.376439
    23  C    6.058577   5.735417   5.414045   5.886554   4.756422
    24  H    6.379182   6.333384   6.058294   6.376627   5.464646
    25  H    5.464554   5.175208   5.735596   6.331406   5.176082
    26  H    7.010395   6.524302   5.824395   6.334898   5.009753
    27  C    6.787964   6.181444   3.804429   4.016770   3.010717
    28  H    7.404711   7.002324   4.739017   4.782213   4.003060
    29  H    7.468514   6.656242   4.016457   4.354922   3.029028
    30  H    6.655541   6.021138   3.010881   3.029452   2.360065
                   16         17         18         19         20
    16  H    0.000000
    17  C    2.642153   0.000000
    18  H    2.754628   1.092964   0.000000
    19  H    2.643132   1.094911   1.778083   0.000000
    20  H    3.693179   1.089555   1.763588   1.784077   0.000000
    21  C    4.206951   3.799209   4.522320   4.416749   3.814885
    22  N    4.913272   4.987762   5.609774   5.604957   5.088664
    23  C    6.283990   6.222739   6.924859   6.789125   6.181378
    24  H    7.011156   6.789679   7.405614   7.470694   6.657898
    25  H    6.526255   6.181335   7.001567   6.657283   6.020361
    26  H    6.618927   6.924386   7.627025   7.404505   7.001205
    27  C    4.738881   5.413848   5.824435   6.058162   5.735042
    28  H    5.713249   6.283947   6.619314   7.011139   6.525681
    29  H    4.781707   5.886156   6.334444   6.376378   6.330899
    30  H    4.003180   4.756285   5.009801   5.464854   5.175319
                   21         22         23         24         25
    21  C    0.000000
    22  N    1.322147   0.000000
    23  C    2.424563   1.454831   0.000000
    24  H    3.062877   2.113355   1.094908   0.000000
    25  H    2.544279   2.097577   1.089552   1.784042   0.000000
    26  H    3.203124   2.088753   1.092976   1.778110   1.763591
    27  C    2.424472   1.454842   2.479234   2.884436   3.386886
    28  H    3.203710   2.088644   2.641868   2.641679   3.692859
    29  H    3.061848   2.113449   2.885502   3.484363   3.737113
    30  H    2.544547   2.097616   3.386647   3.735445   4.187937
                   26         27         28         29         30
    26  H    0.000000
    27  C    2.642828   0.000000
    28  H    2.755525   1.092963   0.000000
    29  H    2.643860   1.094914   1.778077   0.000000
    30  H    3.693786   1.089567   1.763581   1.784100   0.000000
 Stoichiometry    C9H18N3(1+)
 Framework group  C1[X(C9H18N3)]
 Deg. of freedom    84
 Full point group                 C1      NOp   1
 Largest Abelian subgroup         C1      NOp   1
 Largest concise Abelian subgroup C1      NOp   1
                         Standard orientation:                         
 ---------------------------------------------------------------------
 Center     Atomic      Atomic             Coordinates (Angstroms)
 Number     Number       Type             X           Y           Z
 ---------------------------------------------------------------------
      1          6           0       -0.610975   -0.510745   -0.000115
      2          6           0       -0.136632    0.784354   -0.000118
      3          7           0       -1.625585   -1.358470   -0.000149
      4          7           0       -0.363786    2.086845   -0.000256
      5          6           0       -1.430862   -2.779219    0.245115
      6          1           0       -1.515224   -3.355904   -0.681778
      7          1           0       -0.453738   -2.953483    0.694570
      8          1           0       -2.189816   -3.131940    0.948067
      9          6           0       -2.989097   -0.914073   -0.244915
     10          1           0       -3.471984   -1.599183   -0.946347
     11          1           0       -3.570851   -0.892877    0.682419
     12          1           0       -2.986856    0.077730   -0.695991
     13          6           0        0.702642    3.045751   -0.244739
     14          1           0        1.010678    3.539867    0.682520
     15          1           0        1.561174    2.547880   -0.694397
     16          1           0        0.351203    3.805740   -0.947208
     17          6           0       -1.691678    2.628275    0.244928
     18          1           0       -1.617946    3.461770    0.948079
     19          1           0       -2.148816    2.989837   -0.681963
     20          1           0       -2.331110    1.868946    0.694010
     21          6           0        0.747770   -0.273975   -0.000062
     22          7           0        1.989332   -0.728507    0.000089
     23          6           0        2.286824   -2.131338   -0.245062
     24          1           0        2.563014   -2.644923    0.681638
     25          1           0        1.425660   -2.626427   -0.692731
     26          1           0        3.119218   -2.206604   -0.949371
     27          6           0        3.122102    0.150924    0.245030
     28          1           0        3.807685   -0.330042    0.947323
     29          1           0        3.663088    0.366868   -0.682084
     30          1           0        2.784327    1.083936    0.695089
 ---------------------------------------------------------------------
 Rotational constants (GHZ):           0.8639071           0.8637633           0.4436577
 Leave Link  202 at Mon Jan 25 21:55:52 2021, MaxMem=  4026531840 cpu:               0.4 elap:               0.1
 (Enter /opt/ohpc/pub/libs/gaussian/g16-A.03/sandybridge/g16/l301.exe)
 Standard basis: TZVP (5D, 7F)
 Ernie: Thresh=  0.10000D-02 Tol=  0.10000D-05 Strict=F.
 There are   348 symmetry adapted cartesian basis functions of A   symmetry.
 There are   336 symmetry adapted basis functions of A   symmetry.
   336 basis functions,   564 primitive gaussians,   348 cartesian basis functions
    46 alpha electrons       46 beta electrons
       nuclear repulsion energy       740.7629817128 Hartrees.
 IExCor=33909 DFT=T Ex+Corr=LC-wHPBE ExCW=0 ScaHFX=  1.000000
 ScaDFX=  1.000000  1.000000  1.000000  1.000000 ScalE2=  1.000000  1.000000
 IRadAn=      5 IRanWt=     -1 IRanGd=            0 ICorTp=0 IEmpDi=  4
 HFx  wShort=  0.000000 wLong=  0.248100 cFull=  0.000000 cShort=  0.000000 cLong=  1.000000
 DFx  wShort=  0.000000 wLong=  0.248100 cFull=  0.000000 cShort=  1.000000 cLong=  0.000000
 NAtoms=   30 NActive=   30 NUniq=   30 SFac= 1.00D+00 NAtFMM=   60 NAOKFM=F Big=F
 Integral buffers will be    131072 words long.
 Raffenetti 2 integral format.
 Two-electron integral symmetry is turned on.
 Leave Link  301 at Mon Jan 25 21:55:52 2021, MaxMem=  4026531840 cpu:               0.4 elap:               0.1
 (Enter /opt/ohpc/pub/libs/gaussian/g16-A.03/sandybridge/g16/l302.exe)
 NPDir=0 NMtPBC=     1 NCelOv=     1 NCel=       1 NClECP=     1 NCelD=      1
         NCelK=      1 NCelE2=     1 NClLst=     1 CellRange=     0.0.
 One-electron integrals computed using PRISM.
 One-electron integral symmetry used in STVInt
 NBasis=   336 RedAO= T EigKep=  2.74D-05  NBF=   336
 NBsUse=   336 1.00D-06 EigRej= -1.00D+00 NBFU=   336
 Precomputing XC quadrature grid using
 IXCGrd= 4 IRadAn=           5 IRanWt=          -1 IRanGd=           0 AccXCQ= 0.00D+00.
 Generated NRdTot=       0 NPtTot=           0 NUsed=           0 NTot=          32
 NSgBfM=   343   343   343   343   343 MxSgAt=    30 MxSgA2=    30.
 Leave Link  302 at Mon Jan 25 21:55:54 2021, MaxMem=  4026531840 cpu:              15.5 elap:               2.2
 (Enter /opt/ohpc/pub/libs/gaussian/g16-A.03/sandybridge/g16/l303.exe)
 DipDrv:  MaxL=1.
 Leave Link  303 at Mon Jan 25 21:55:55 2021, MaxMem=  4026531840 cpu:               1.6 elap:               0.3
 (Enter /opt/ohpc/pub/libs/gaussian/g16-A.03/sandybridge/g16/l401.exe)
 ExpMin= 9.52D-02 ExpMax= 1.97D+04 ExpMxC= 6.73D+02 IAcc=3 IRadAn=         5 AccDes= 0.00D+00
 Harris functional with IExCor=33909 and IRadAn=       5 diagonalized for initial guess.
 HarFok:  IExCor=33909 AccDes= 0.00D+00 IRadAn=         5 IDoV= 1 UseB2=F ITyADJ=14
 ICtDFT=  3500011 ScaDFX=  1.000000  1.000000  1.000000  1.000000
 FoFCou: FMM=F IPFlag=           0 FMFlag=      100000 FMFlg1=           0
         NFxFlg=           0 DoJE=T BraDBF=F KetDBF=T FulRan=T
         wScrn=  0.000000 ICntrl=       500 IOpCl=  0 I1Cent=   200000004 NGrid=           0
         NMat0=    1 NMatS0=      1 NMatT0=    0 NMatD0=    1 NMtDS0=    0 NMtDT0=    0
 Petite list used in FoFCou.
 Harris En= -505.533282364559    
 JPrj=0 DoOrth=F DoCkMO=F.
 Leave Link  401 at Mon Jan 25 21:55:58 2021, MaxMem=  4026531840 cpu:              24.1 elap:               3.0
 (Enter /opt/ohpc/pub/libs/gaussian/g16-A.03/sandybridge/g16/l502.exe)
 Integral symmetry usage will be decided dynamically.
 Closed shell SCF:
 Using DIIS extrapolation, IDIIS=    10.
 NGot=  4026531840 LenX=  4026283142 LenY=  4026161597
 Requested convergence on RMS density matrix=1.00D-06 within  32 cycles.
 Requested convergence on MAX density matrix=1.00D-04.
 Requested convergence on             energy=1.00D-04.
 Virtual orbitals will be shifted by   0.500 hartree.
 No special actions if energy rises.
 Dynamic level shift is on during FON iterations.

 Cycle   1  Pass 1  IDiag  1:
 FoFJK:  IHMeth= 1 ICntrl=       0 DoSepK=T KAlg= 0 I1Cent=           0 FoldK=F
 IRaf=         1 NMat=       1 IRICut=       1 DoRegI=T DoRafI=F ISym2E= 0 IDoP0=0 IntGTp=1.
 FoFCou: FMM=F IPFlag=           0 FMFlag=      100000 FMFlg1=           0
         NFxFlg=           0 DoJE=T BraDBF=F KetDBF=F FulRan=T
         wScrn=  0.000000 ICntrl=       500 IOpCl=  0 I1Cent=           0 NGrid=           0
         NMat0=    1 NMatS0=      1 NMatT0=    0 NMatD0=    1 NMtDS0=    0 NMtDT0=    0
 Symmetry not used in FoFCou.
 E= -517.323009516229    
 DIIS: error= 3.22D-02 at cycle   1 NSaved=   1.
 NSaved= 1 IEnMin= 1 EnMin= -517.323009516229     IErMin= 1 ErrMin= 3.22D-02
 ErrMax= 3.22D-02  0.00D+00 EMaxC= 1.00D+00 BMatC= 1.80D-01 BMatP= 1.80D-01
 IDIUse=1 WtCom= 1.00D+00 WtEn= 0.00D+00
 Coeff-Com:  0.100D+01
 Coeff:      0.100D+01
 Gap=     0.366 Goal=   None    Shift=    0.500
 T= 1539. Gap= 0.855 NK=0 IS=   47 IE=  336 IFin=   46
          NO(<0.9)=   0  NV(>0.1)=   0     46.00e < EF      0.00e >EF  Err=0.0D+00
 GapD=    0.366 DampG=1.000 DampE=0.500 DampFc=0.5000 IDamp=-1.
 Damping current iteration by 5.00D-01
 RMSDP=1.64D-03 MaxDP=3.70D-02              OVMax= 5.10D-02

 Cycle   2  Pass 1  IDiag  1:
 E= -517.420197575960     Delta-E=       -0.097188059731 Rises=F Damp=T
 DIIS: error= 1.36D-02 at cycle   2 NSaved=   2.
 NSaved= 2 IEnMin= 2 EnMin= -517.420197575960     IErMin= 2 ErrMin= 1.36D-02
 ErrMax= 1.36D-02  0.00D+00 EMaxC= 1.00D+00 BMatC= 3.34D-02 BMatP= 1.80D-01
 IDIUse=1 WtCom= 1.00D+00 WtEn= 0.00D+00
 Coeff-Com: -0.646D+00 0.165D+01
 Coeff:     -0.646D+00 0.165D+01
 Gap=     0.362 Goal=   None    Shift=    0.500
 T= 1411. Gap= 0.860 NK=0 IS=   47 IE=  336 IFin=   46
          NO(<0.9)=   0  NV(>0.1)=   0     46.00e < EF      0.00e >EF  Err=0.0D+00
 GapD=    0.362 DampG=1.000 DampE=0.500 DampFc=0.5000 IDamp=-1.
 Damping current iteration by 5.00D-01
 RMSDP=1.13D-03 MaxDP=2.22D-02 DE=-9.72D-02 OVMax= 7.70D-03

 Cycle   3  Pass 1  IDiag  1:
 E= -517.454895290277     Delta-E=       -0.034697714317 Rises=F Damp=T
 DIIS: error= 6.03D-03 at cycle   3 NSaved=   3.
 NSaved= 3 IEnMin= 3 EnMin= -517.454895290277     IErMin= 3 ErrMin= 6.03D-03
 ErrMax= 6.03D-03  0.00D+00 EMaxC= 1.00D+00 BMatC= 7.04D-03 BMatP= 3.34D-02
 IDIUse=1 WtCom= 1.00D+00 WtEn= 0.00D+00
 Coeff-Com:  0.112D+00-0.118D+01 0.207D+01
 Coeff:      0.112D+00-0.118D+01 0.207D+01
 Gap=     0.367 Goal=   None    Shift=    0.500
 T= 1165. Gap= 0.865 NK=0 IS=   47 IE=  336 IFin=   46
          NO(<0.9)=   0  NV(>0.1)=   0     46.00e < EF      0.00e >EF  Err=0.0D+00
 GapD=    0.367 DampG=1.000 DampE=1.000 DampFc=1.0000 IDamp=-1.
 RMSDP=7.18D-04 MaxDP=1.56D-02 DE=-3.47D-02 OVMax= 2.60D-03

 Cycle   4  Pass 1  IDiag  1:
 E= -517.484214094410     Delta-E=       -0.029318804133 Rises=F Damp=F
 DIIS: error= 4.50D-04 at cycle   4 NSaved=   4.
 NSaved= 4 IEnMin= 4 EnMin= -517.484214094410     IErMin= 4 ErrMin= 4.50D-04
 ErrMax= 4.50D-04  0.00D+00 EMaxC= 1.00D+00 BMatC= 1.14D-04 BMatP= 7.04D-03
 IDIUse=1 WtCom= 1.00D+00 WtEn= 0.00D+00
 Coeff-Com:  0.689D-01-0.183D+00 0.116D+00 0.998D+00
 Coeff:      0.689D-01-0.183D+00 0.116D+00 0.998D+00
 Gap=     0.364 Goal=   None    Shift=    0.500
 RMSDP=7.55D-05 MaxDP=1.54D-03 DE=-2.93D-02 OVMax= 1.26D-03

 Cycle   5  Pass 1  IDiag  1:
 E= -517.484340507960     Delta-E=       -0.000126413550 Rises=F Damp=F
 DIIS: error= 1.91D-04 at cycle   5 NSaved=   5.
 NSaved= 5 IEnMin= 5 EnMin= -517.484340507960     IErMin= 5 ErrMin= 1.91D-04
 ErrMax= 1.91D-04  0.00D+00 EMaxC= 1.00D+00 BMatC= 1.42D-05 BMatP= 1.14D-04
 IDIUse=1 WtCom= 1.00D+00 WtEn= 0.00D+00
 Coeff-Com:  0.970D-03 0.111D+00-0.237D+00-0.267D-01 0.115D+01
 Coeff:      0.970D-03 0.111D+00-0.237D+00-0.267D-01 0.115D+01
 Gap=     0.365 Goal=   None    Shift=    0.500
 RMSDP=3.95D-05 MaxDP=1.29D-03 DE=-1.26D-04 OVMax= 1.01D-03

 Cycle   6  Pass 1  IDiag  1:
 E= -517.484368089255     Delta-E=       -0.000027581295 Rises=F Damp=F
 DIIS: error= 9.64D-05 at cycle   6 NSaved=   6.
 NSaved= 6 IEnMin= 6 EnMin= -517.484368089255     IErMin= 6 ErrMin= 9.64D-05
 ErrMax= 9.64D-05  0.00D+00 EMaxC= 1.00D+00 BMatC= 2.63D-06 BMatP= 1.42D-05
 IDIUse=1 WtCom= 1.00D+00 WtEn= 0.00D+00
 Coeff-Com: -0.121D-01 0.533D-01-0.666D-01-0.188D+00-0.921D-02 0.122D+01
 Coeff:     -0.121D-01 0.533D-01-0.666D-01-0.188D+00-0.921D-02 0.122D+01
 Gap=     0.365 Goal=   None    Shift=    0.500
 RMSDP=2.13D-05 MaxDP=6.67D-04 DE=-2.76D-05 OVMax= 4.53D-04

 Cycle   7  Pass 1  IDiag  1:
 E= -517.484374890862     Delta-E=       -0.000006801606 Rises=F Damp=F
 DIIS: error= 4.56D-05 at cycle   7 NSaved=   7.
 NSaved= 7 IEnMin= 7 EnMin= -517.484374890862     IErMin= 7 ErrMin= 4.56D-05
 ErrMax= 4.56D-05  0.00D+00 EMaxC= 1.00D+00 BMatC= 5.36D-07 BMatP= 2.63D-06
 IDIUse=1 WtCom= 1.00D+00 WtEn= 0.00D+00
 Coeff-Com: -0.164D-02-0.149D-01 0.356D-01-0.216D-01-0.225D+00-0.243D+00
 Coeff-Com:  0.147D+01
 Coeff:     -0.164D-02-0.149D-01 0.356D-01-0.216D-01-0.225D+00-0.243D+00
 Coeff:      0.147D+01
 Gap=     0.365 Goal=   None    Shift=    0.500
 RMSDP=1.04D-05 MaxDP=2.05D-04 DE=-6.80D-06 OVMax= 3.15D-04

 Cycle   8  Pass 1  IDiag  1:
 E= -517.484376626103     Delta-E=       -0.000001735241 Rises=F Damp=F
 DIIS: error= 2.50D-05 at cycle   8 NSaved=   8.
 NSaved= 8 IEnMin= 8 EnMin= -517.484376626103     IErMin= 8 ErrMin= 2.50D-05
 ErrMax= 2.50D-05  0.00D+00 EMaxC= 1.00D+00 BMatC= 1.25D-07 BMatP= 5.36D-07
 IDIUse=1 WtCom= 1.00D+00 WtEn= 0.00D+00
 Coeff-Com:  0.137D-02-0.222D-02-0.473D-03 0.399D-01-0.179D-01-0.113D+00
 Coeff-Com: -0.817D+00 0.191D+01
 Coeff:      0.137D-02-0.222D-02-0.473D-03 0.399D-01-0.179D-01-0.113D+00
 Coeff:     -0.817D+00 0.191D+01
 Gap=     0.365 Goal=   None    Shift=    0.500
 RMSDP=4.71D-06 MaxDP=9.26D-05 DE=-1.74D-06 OVMax= 1.87D-04

 Cycle   9  Pass 1  IDiag  1:
 E= -517.484377062536     Delta-E=       -0.000000436433 Rises=F Damp=F
 DIIS: error= 1.45D-05 at cycle   9 NSaved=   9.
 NSaved= 9 IEnMin= 9 EnMin= -517.484377062536     IErMin= 9 ErrMin= 1.45D-05
 ErrMax= 1.45D-05  0.00D+00 EMaxC= 1.00D+00 BMatC= 3.04D-08 BMatP= 1.25D-07
 IDIUse=1 WtCom= 1.00D+00 WtEn= 0.00D+00
 Coeff-Com: -0.687D-03 0.328D-02-0.408D-02-0.104D-01 0.173D-01 0.882D-01
 Coeff-Com:  0.106D+00-0.171D+01 0.251D+01
 Coeff:     -0.687D-03 0.328D-02-0.408D-02-0.104D-01 0.173D-01 0.882D-01
 Coeff:      0.106D+00-0.171D+01 0.251D+01
 Gap=     0.365 Goal=   None    Shift=    0.500
 RMSDP=2.09D-06 MaxDP=4.09D-05 DE=-4.36D-07 OVMax= 1.05D-04

 Cycle  10  Pass 1  IDiag  1:
 E= -517.484377171565     Delta-E=       -0.000000109030 Rises=F Damp=F
 DIIS: error= 8.79D-06 at cycle  10 NSaved=  10.
 NSaved=10 IEnMin=10 EnMin= -517.484377171565     IErMin=10 ErrMin= 8.79D-06
 ErrMax= 8.79D-06  0.00D+00 EMaxC= 1.00D+00 BMatC= 8.18D-09 BMatP= 3.04D-08
 IDIUse=1 WtCom= 1.00D+00 WtEn= 0.00D+00
 Coeff-Com: -0.203D-03 0.753D-06 0.757D-03-0.424D-02-0.929D-02 0.446D-01
 Coeff-Com:  0.823D-01-0.183D+00-0.117D+01 0.224D+01
 Coeff:     -0.203D-03 0.753D-06 0.757D-03-0.424D-02-0.929D-02 0.446D-01
 Coeff:      0.823D-01-0.183D+00-0.117D+01 0.224D+01
 Gap=     0.365 Goal=   None    Shift=    0.500
 RMSDP=9.89D-07 MaxDP=2.11D-05 DE=-1.09D-07 OVMax= 5.81D-05

 SCF Done:  E(RLC-wHPBE) =  -517.484377172     A.U. after   10 cycles
            NFock= 10  Conv=0.99D-06     -V/T= 2.0050
 KE= 5.149144762474D+02 PE=-2.668561870191D+03 EE= 8.954000350590D+02
 Leave Link  502 at Mon Jan 25 21:58:00 2021, MaxMem=  4026531840 cpu:             974.0 elap:             122.1
 (Enter /opt/ohpc/pub/libs/gaussian/g16-A.03/sandybridge/g16/l508.exe)
 QCSCF skips out because SCF is already converged.
 Leave Link  508 at Mon Jan 25 21:58:00 2021, MaxMem=  4026531840 cpu:               0.0 elap:               0.0
 (Enter /opt/ohpc/pub/libs/gaussian/g16-A.03/sandybridge/g16/l601.exe)
 Copying SCF densities to generalized density rwf, IOpCl= 0 IROHF=0.

 **********************************************************************

            Population analysis using the SCF density.

 **********************************************************************

 Orbital symmetries:
       Occupied  (A) (A) (A) (A) (A) (A) (A) (A) (A) (A) (A) (A)
                 (A) (A) (A) (A) (A) (A) (A) (A) (A) (A) (A) (A)
                 (A) (A) (A) (A) (A) (A) (A) (A) (A) (A) (A) (A)
                 (A) (A) (A) (A) (A) (A) (A) (A) (A) (A)
       Virtual   (A) (A) (A) (A) (A) (A) (A) (A) (A) (A) (A) (A)
                 (A) (A) (A) (A) (A) (A) (A) (A) (A) (A) (A) (A)
                 (A) (A) (A) (A) (A) (A) (A) (A) (A) (A) (A) (A)
                 (A) (A) (A) (A) (A) (A) (A) (A) (A) (A) (A) (A)
                 (A) (A) (A) (A) (A) (A) (A) (A) (A) (A) (A) (A)
                 (A) (A) (A) (A) (A) (A) (A) (A) (A) (A) (A) (A)
                 (A) (A) (A) (A) (A) (A) (A) (A) (A) (A) (A) (A)
                 (A) (A) (A) (A) (A) (A) (A) (A) (A) (A) (A) (A)
                 (A) (A) (A) (A) (A) (A) (A) (A) (A) (A) (A) (A)
                 (A) (A) (A) (A) (A) (A) (A) (A) (A) (A) (A) (A)
                 (A) (A) (A) (A) (A) (A) (A) (A) (A) (A) (A) (A)
                 (A) (A) (A) (A) (A) (A) (A) (A) (A) (A) (A) (A)
                 (A) (A) (A) (A) (A) (A) (A) (A) (A) (A) (A) (A)
                 (A) (A) (A) (A) (A) (A) (A) (A) (A) (A) (A) (A)
                 (A) (A) (A) (A) (A) (A) (A) (A) (A) (A) (A) (A)
                 (A) (A) (A) (A) (A) (A) (A) (A) (A) (A) (A) (A)
                 (A) (A) (A) (A) (A) (A) (A) (A) (A) (A) (A) (A)
                 (A) (A) (A) (A) (A) (A) (A) (A) (A) (A) (A) (A)
                 (A) (A) (A) (A) (A) (A) (A) (A) (A) (A) (A) (A)
                 (A) (A) (A) (A) (A) (A) (A) (A) (A) (A) (A) (A)
                 (A) (A) (A) (A) (A) (A) (A) (A) (A) (A) (A) (A)
                 (A) (A) (A) (A) (A) (A) (A) (A) (A) (A) (A) (A)
                 (A) (A) (A) (A) (A) (A) (A) (A) (A) (A) (A) (A)
                 (A) (A) (A) (A) (A) (A) (A) (A) (A) (A) (A) (A)
                 (A) (A)
 The electronic state is 1-A.
 Alpha  occ. eigenvalues --  -14.31170 -14.31170 -14.31169 -10.24497 -10.24432
 Alpha  occ. eigenvalues --  -10.24431 -10.18744 -10.18744 -10.18743 -10.18742
 Alpha  occ. eigenvalues --  -10.18741 -10.18741  -1.20670  -1.16848  -1.16848
 Alpha  occ. eigenvalues --   -1.11166  -0.94361  -0.94361  -0.93530  -0.92213
 Alpha  occ. eigenvalues --   -0.92212  -0.90328  -0.76611  -0.76611  -0.75858
 Alpha  occ. eigenvalues --   -0.71785  -0.71377  -0.71377  -0.68758  -0.68757
 Alpha  occ. eigenvalues --   -0.68674  -0.63043  -0.63042  -0.62877  -0.62833
 Alpha  occ. eigenvalues --   -0.61690  -0.61688  -0.61443  -0.60299  -0.60298
 Alpha  occ. eigenvalues --   -0.58789  -0.58594  -0.58592  -0.50366  -0.50366
 Alpha  occ. eigenvalues --   -0.40597
 Alpha virt. eigenvalues --   -0.04131  -0.04128  -0.04054  -0.00519  -0.00517
 Alpha virt. eigenvalues --    0.00862   0.02296   0.02297   0.02333   0.04995
 Alpha virt. eigenvalues --    0.05080   0.05081   0.05187   0.05188   0.05446
 Alpha virt. eigenvalues --    0.06482   0.06565   0.06667   0.06669   0.07912
 Alpha virt. eigenvalues --    0.07920   0.08837   0.08843   0.09753   0.12093
 Alpha virt. eigenvalues --    0.12277   0.12284   0.14272   0.14840   0.14843
 Alpha virt. eigenvalues --    0.15834   0.15843   0.18397   0.18967   0.18972
 Alpha virt. eigenvalues --    0.20298   0.21126   0.22354   0.22359   0.25062
 Alpha virt. eigenvalues --    0.25082   0.25409   0.25421   0.26711   0.26714
 Alpha virt. eigenvalues --    0.28619   0.28626   0.29280   0.31509   0.31513
 Alpha virt. eigenvalues --    0.32840   0.33571   0.34427   0.34438   0.36394
 Alpha virt. eigenvalues --    0.37079   0.37088   0.37464   0.38300   0.38302
 Alpha virt. eigenvalues --    0.38772   0.39929   0.39934   0.40300   0.41925
 Alpha virt. eigenvalues --    0.41929   0.42045   0.42640   0.42645   0.44324
 Alpha virt. eigenvalues --    0.44334   0.45941   0.46104   0.46955   0.47488
 Alpha virt. eigenvalues --    0.47497   0.48497   0.48861   0.48864   0.51601
 Alpha virt. eigenvalues --    0.51603   0.56129   0.56130   0.59093   0.59103
 Alpha virt. eigenvalues --    0.59426   0.59434   0.59699   0.61177   0.63803
 Alpha virt. eigenvalues --    0.66747   0.66930   0.66933   0.73892   0.73903
 Alpha virt. eigenvalues --    0.78237   0.78242   0.78401   1.06671   1.06678
 Alpha virt. eigenvalues --    1.06746   1.11222   1.16412   1.16613   1.16627
 Alpha virt. eigenvalues --    1.17483   1.18257   1.21115   1.21120   1.23123
 Alpha virt. eigenvalues --    1.23125   1.25798   1.26182   1.26184   1.26834
 Alpha virt. eigenvalues --    1.27488   1.28305   1.28310   1.29979   1.29982
 Alpha virt. eigenvalues --    1.30748   1.32090   1.32102   1.36837   1.36848
 Alpha virt. eigenvalues --    1.36862   1.37960   1.38541   1.38546   1.38801
 Alpha virt. eigenvalues --    1.40644   1.40659   1.43138   1.43142   1.45562
 Alpha virt. eigenvalues --    1.47340   1.48232   1.48881   1.48888   1.49811
 Alpha virt. eigenvalues --    1.49816   1.50819   1.50824   1.53685   1.56224
 Alpha virt. eigenvalues --    1.56696   1.56708   1.58462   1.58552   1.58556
 Alpha virt. eigenvalues --    1.61420   1.61424   1.63572   1.64272   1.64275
 Alpha virt. eigenvalues --    1.66272   1.68403   1.68406   1.69325   1.70779
 Alpha virt. eigenvalues --    1.70782   1.71008   1.71223   1.71475   1.71482
 Alpha virt. eigenvalues --    1.71999   1.72006   1.72215   1.73677   1.73682
 Alpha virt. eigenvalues --    1.74900   1.74962   1.74973   1.75478   1.80002
 Alpha virt. eigenvalues --    1.80006   1.80676   1.80686   1.82432   1.92599
 Alpha virt. eigenvalues --    1.94799   1.94816   2.01173   2.01348   2.01356
 Alpha virt. eigenvalues --    2.03282   2.05445   2.05451   2.06105   2.08596
 Alpha virt. eigenvalues --    2.08606   2.14057   2.14066   2.15496   2.20280
 Alpha virt. eigenvalues --    2.20433   2.21313   2.21320   2.22373   2.22379
 Alpha virt. eigenvalues --    2.22592   2.24075   2.26116   2.26134   2.27665
 Alpha virt. eigenvalues --    2.27672   2.28136   2.30501   2.31681   2.31689
 Alpha virt. eigenvalues --    2.35795   2.37288   2.37301   2.44748   2.44758
 Alpha virt. eigenvalues --    2.45028   2.45161   2.45167   2.48116   2.48126
 Alpha virt. eigenvalues --    2.48183   2.49539   2.50372   2.50402   2.52709
 Alpha virt. eigenvalues --    2.53250   2.53267   2.53867   2.56395   2.59540
 Alpha virt. eigenvalues --    2.59555   2.59779   2.63079   2.63085   2.64812
 Alpha virt. eigenvalues --    2.67775   2.67784   2.69459   2.70109   2.70131
 Alpha virt. eigenvalues --    2.74876   2.74880   2.76985   2.77920   2.80461
 Alpha virt. eigenvalues --    2.80464   2.88235   2.88237   3.01019   3.01646
 Alpha virt. eigenvalues --    3.01675   3.02261   3.03527   3.03536   3.09669
 Alpha virt. eigenvalues --    3.13912   3.13916   3.20910   3.20921   3.22661
 Alpha virt. eigenvalues --    3.22892   3.22897   3.24114   3.25544   3.25558
 Alpha virt. eigenvalues --    3.26471   3.31216   3.31236   3.32735   3.37237
 Alpha virt. eigenvalues --    3.37244   3.40423   3.45753   3.64067   3.64080
 Alpha virt. eigenvalues --    3.74699   3.89759   3.89768  21.38961  21.67513
 Alpha virt. eigenvalues --   21.69430  21.69438  21.85284  21.85287  21.89493
 Alpha virt. eigenvalues --   22.12318  22.12331  31.52595  31.71778  31.71783
          Condensed to atoms (all electrons):
               1          2          3          4          5          6
     1  C    5.767560   0.093903   0.508783  -0.104775  -0.059253  -0.005670
     2  C    0.093903   5.768107  -0.104715   0.508863  -0.001644  -0.003470
     3  N    0.508783  -0.104715   6.493965  -0.001712   0.215367  -0.039855
     4  N   -0.104775   0.508863  -0.001712   6.493922  -0.000673  -0.000010
     5  C   -0.059253  -0.001644   0.215367  -0.000673   4.935303   0.419490
     6  H   -0.005670  -0.003470  -0.039855  -0.000010   0.419490   0.506242
     7  H   -0.015660   0.007485  -0.029360   0.000014   0.406319  -0.024774
     8  H    0.008637   0.001025  -0.039728   0.000005   0.404877  -0.026942
     9  C   -0.059341  -0.004834   0.215309  -0.001118  -0.047439  -0.008075
    10  H    0.008672  -0.003095  -0.039680  -0.000027   0.000387   0.003826
    11  H   -0.005711   0.007012  -0.039889   0.000057  -0.008055  -0.000595
    12  H   -0.015657   0.000158  -0.029329  -0.001744   0.008302  -0.000067
    13  C   -0.001674  -0.059282  -0.000674   0.215385   0.000002  -0.000003
    14  H   -0.003472  -0.005691  -0.000010  -0.039883  -0.000003  -0.000000
    15  H    0.007474  -0.015641   0.000014  -0.029335   0.000002  -0.000000
    16  H    0.001026   0.008666   0.000005  -0.039707   0.000001   0.000000
    17  C   -0.004918  -0.059283  -0.001122   0.215360   0.000005  -0.000001
    18  H   -0.003106   0.008635  -0.000027  -0.039736  -0.000002  -0.000000
    19  H    0.007002  -0.005659   0.000057  -0.039861   0.000012   0.000001
    20  H    0.000191  -0.015658  -0.001756  -0.029356  -0.000078   0.000002
    21  C    0.094837   0.093763  -0.104699  -0.104752  -0.004966   0.007004
    22  N   -0.104763  -0.104698  -0.001716  -0.001712  -0.001118   0.000057
    23  C   -0.004990  -0.001583  -0.001121  -0.000674   0.001438  -0.000545
    24  H    0.007000  -0.003473   0.000056  -0.000010  -0.000541  -0.000047
    25  H    0.000178   0.007538  -0.001750   0.000014  -0.000450  -0.000519
    26  H   -0.003110   0.001024  -0.000027   0.000005   0.000084   0.000032
    27  C   -0.001713  -0.004808  -0.000674  -0.001119   0.000005   0.000012
    28  H    0.001029  -0.003100   0.000005  -0.000027  -0.000002  -0.000001
    29  H   -0.003472   0.007005  -0.000010   0.000057  -0.000001   0.000001
    30  H    0.007464   0.000143   0.000014  -0.001751   0.000009   0.000000
               7          8          9         10         11         12
     1  C   -0.015660   0.008637  -0.059341   0.008672  -0.005711  -0.015657
     2  C    0.007485   0.001025  -0.004834  -0.003095   0.007012   0.000158
     3  N   -0.029360  -0.039728   0.215309  -0.039680  -0.039889  -0.029329
     4  N    0.000014   0.000005  -0.001118  -0.000027   0.000057  -0.001744
     5  C    0.406319   0.404877  -0.047439   0.000387  -0.008055   0.008302
     6  H   -0.024774  -0.026942  -0.008075   0.003826  -0.000595  -0.000067
     7  H    0.523631  -0.019925   0.008306   0.000296  -0.000069  -0.000482
     8  H   -0.019925   0.506975   0.000403  -0.003277   0.003827   0.000294
     9  C    0.008306   0.000403   4.935547   0.404787   0.419530   0.406381
    10  H    0.000296  -0.003277   0.404787   0.506929  -0.026918  -0.019892
    11  H   -0.000069   0.003827   0.419530  -0.026918   0.506257  -0.024811
    12  H   -0.000482   0.000294   0.406381  -0.019892  -0.024811   0.523469
    13  C    0.000002   0.000001   0.000007  -0.000002   0.000012  -0.000078
    14  H   -0.000000   0.000000  -0.000001  -0.000000   0.000001   0.000002
    15  H   -0.000001   0.000000   0.000009  -0.000000   0.000000   0.000014
    16  H    0.000000  -0.000000  -0.000002   0.000000  -0.000001   0.000004
    17  C    0.000009  -0.000002   0.001497   0.000083  -0.000555  -0.000439
    18  H   -0.000000   0.000000   0.000083  -0.000005   0.000032   0.000325
    19  H    0.000000  -0.000001  -0.000551   0.000032  -0.000048  -0.000515
    20  H    0.000014   0.000004  -0.000423   0.000325  -0.000518  -0.003306
    21  C    0.000174  -0.003100  -0.001734   0.001026  -0.003470   0.007436
    22  N   -0.001739  -0.000027  -0.000674   0.000005  -0.000010   0.000013
    23  C   -0.000465   0.000084   0.000004  -0.000002  -0.000001   0.000009
    24  H   -0.000516   0.000032   0.000012  -0.000001   0.000001   0.000000
    25  H   -0.003275   0.000325  -0.000077   0.000004   0.000002   0.000014
    26  H    0.000325  -0.000005  -0.000002   0.000000  -0.000000  -0.000000
    27  C   -0.000077  -0.000002   0.000002   0.000001  -0.000003   0.000002
    28  H    0.000004   0.000000   0.000001  -0.000000   0.000000   0.000000
    29  H    0.000002  -0.000000  -0.000003   0.000000  -0.000000  -0.000000
    30  H    0.000014  -0.000000   0.000002   0.000000  -0.000000  -0.000001
              13         14         15         16         17         18
     1  C   -0.001674  -0.003472   0.007474   0.001026  -0.004918  -0.003106
     2  C   -0.059282  -0.005691  -0.015641   0.008666  -0.059283   0.008635
     3  N   -0.000674  -0.000010   0.000014   0.000005  -0.001122  -0.000027
     4  N    0.215385  -0.039883  -0.029335  -0.039707   0.215360  -0.039736
     5  C    0.000002  -0.000003   0.000002   0.000001   0.000005  -0.000002
     6  H   -0.000003  -0.000000  -0.000000   0.000000  -0.000001  -0.000000
     7  H    0.000002  -0.000000  -0.000001   0.000000   0.000009  -0.000000
     8  H    0.000001   0.000000   0.000000  -0.000000  -0.000002   0.000000
     9  C    0.000007  -0.000001   0.000009  -0.000002   0.001497   0.000083
    10  H   -0.000002  -0.000000  -0.000000   0.000000   0.000083  -0.000005
    11  H    0.000012   0.000001   0.000000  -0.000001  -0.000555   0.000032
    12  H   -0.000078   0.000002   0.000014   0.000004  -0.000439   0.000325
    13  C    4.935366   0.419540   0.406326   0.404810  -0.047504   0.000407
    14  H    0.419540   0.506265  -0.024783  -0.026945  -0.008070   0.003837
    15  H    0.406326  -0.024783   0.523533  -0.019903   0.008313   0.000294
    16  H    0.404810  -0.026945  -0.019903   0.507002   0.000388  -0.003276
    17  C   -0.047504  -0.008070   0.008313   0.000388   4.935323   0.404871
    18  H    0.000407   0.003837   0.000294  -0.003276   0.404871   0.507040
    19  H   -0.008073  -0.000597  -0.000068   0.003834   0.419480  -0.026956
    20  H    0.008306  -0.000069  -0.000482   0.000295   0.406313  -0.019917
    21  C   -0.004916   0.007002   0.000141  -0.003093  -0.001660   0.001024
    22  N   -0.001121   0.000056  -0.001752  -0.000027  -0.000674   0.000005
    23  C    0.000005   0.000012  -0.000078  -0.000002   0.000002   0.000001
    24  H   -0.000001   0.000001   0.000002  -0.000000  -0.000003   0.000000
    25  H    0.000009   0.000000   0.000014  -0.000000   0.000002   0.000000
    26  H   -0.000002  -0.000001   0.000004   0.000000   0.000001  -0.000000
    27  C    0.001487  -0.000551  -0.000434   0.000083   0.000006  -0.000002
    28  H    0.000083   0.000032   0.000325  -0.000005  -0.000002   0.000000
    29  H   -0.000552  -0.000048  -0.000516   0.000032   0.000012  -0.000001
    30  H   -0.000435  -0.000516  -0.003298   0.000325  -0.000078   0.000004
              19         20         21         22         23         24
     1  C    0.007002   0.000191   0.094837  -0.104763  -0.004990   0.007000
     2  C   -0.005659  -0.015658   0.093763  -0.104698  -0.001583  -0.003473
     3  N    0.000057  -0.001756  -0.104699  -0.001716  -0.001121   0.000056
     4  N   -0.039861  -0.029356  -0.104752  -0.001712  -0.000674  -0.000010
     5  C    0.000012  -0.000078  -0.004966  -0.001118   0.001438  -0.000541
     6  H    0.000001   0.000002   0.007004   0.000057  -0.000545  -0.000047
     7  H    0.000000   0.000014   0.000174  -0.001739  -0.000465  -0.000516
     8  H   -0.000001   0.000004  -0.003100  -0.000027   0.000084   0.000032
     9  C   -0.000551  -0.000423  -0.001734  -0.000674   0.000004   0.000012
    10  H    0.000032   0.000325   0.001026   0.000005  -0.000002  -0.000001
    11  H   -0.000048  -0.000518  -0.003470  -0.000010  -0.000001   0.000001
    12  H   -0.000515  -0.003306   0.007436   0.000013   0.000009   0.000000
    13  C   -0.008073   0.008306  -0.004916  -0.001121   0.000005  -0.000001
    14  H   -0.000597  -0.000069   0.007002   0.000056   0.000012   0.000001
    15  H   -0.000068  -0.000482   0.000141  -0.001752  -0.000078   0.000002
    16  H    0.003834   0.000295  -0.003093  -0.000027  -0.000002  -0.000000
    17  C    0.419480   0.406313  -0.001660  -0.000674   0.000002  -0.000003
    18  H   -0.026956  -0.019917   0.001024   0.000005   0.000001   0.000000
    19  H    0.506257  -0.024762  -0.003463  -0.000010  -0.000003  -0.000000
    20  H   -0.024762   0.523552   0.007476   0.000014   0.000002  -0.000000
    21  C   -0.003463   0.007476   5.767559   0.508858  -0.059221  -0.005638
    22  N   -0.000010   0.000014   0.508858   6.493807   0.215446  -0.039849
    23  C   -0.000003   0.000002  -0.059221   0.215446   4.935083   0.419482
    24  H   -0.000000  -0.000000  -0.005638  -0.039849   0.419482   0.506269
    25  H   -0.000000  -0.000001  -0.015647  -0.029377   0.406235  -0.024728
    26  H    0.000000   0.000000   0.008615  -0.039758   0.404919  -0.026988
    27  C   -0.000001   0.000009  -0.059358   0.215370  -0.047560  -0.008098
    28  H   -0.000000  -0.000000   0.008675  -0.039713   0.000386   0.003844
    29  H    0.000001   0.000000  -0.005698  -0.039867  -0.008057  -0.000598
    30  H    0.000002   0.000014  -0.015650  -0.029322   0.008312  -0.000067
              25         26         27         28         29         30
     1  C    0.000178  -0.003110  -0.001713   0.001029  -0.003472   0.007464
     2  C    0.007538   0.001024  -0.004808  -0.003100   0.007005   0.000143
     3  N   -0.001750  -0.000027  -0.000674   0.000005  -0.000010   0.000014
     4  N    0.000014   0.000005  -0.001119  -0.000027   0.000057  -0.001751
     5  C   -0.000450   0.000084   0.000005  -0.000002  -0.000001   0.000009
     6  H   -0.000519   0.000032   0.000012  -0.000001   0.000001   0.000000
     7  H   -0.003275   0.000325  -0.000077   0.000004   0.000002   0.000014
     8  H    0.000325  -0.000005  -0.000002   0.000000  -0.000000  -0.000000
     9  C   -0.000077  -0.000002   0.000002   0.000001  -0.000003   0.000002
    10  H    0.000004   0.000000   0.000001  -0.000000   0.000000   0.000000
    11  H    0.000002  -0.000000  -0.000003   0.000000  -0.000000  -0.000000
    12  H    0.000014  -0.000000   0.000002   0.000000  -0.000000  -0.000001
    13  C    0.000009  -0.000002   0.001487   0.000083  -0.000552  -0.000435
    14  H    0.000000  -0.000001  -0.000551   0.000032  -0.000048  -0.000516
    15  H    0.000014   0.000004  -0.000434   0.000325  -0.000516  -0.003298
    16  H   -0.000000   0.000000   0.000083  -0.000005   0.000032   0.000325
    17  C    0.000002   0.000001   0.000006  -0.000002   0.000012  -0.000078
    18  H    0.000000  -0.000000  -0.000002   0.000000  -0.000001   0.000004
    19  H   -0.000000   0.000000  -0.000001  -0.000000   0.000001   0.000002
    20  H   -0.000001   0.000000   0.000009  -0.000000   0.000000   0.000014
    21  C   -0.015647   0.008615  -0.059358   0.008675  -0.005698  -0.015650
    22  N   -0.029377  -0.039758   0.215370  -0.039713  -0.039867  -0.029322
    23  C    0.406235   0.404919  -0.047560   0.000386  -0.008057   0.008312
    24  H   -0.024728  -0.026988  -0.008098   0.003844  -0.000598  -0.000067
    25  H    0.523678  -0.019938   0.008319   0.000297  -0.000071  -0.000482
    26  H   -0.019938   0.507093   0.000411  -0.003276   0.003843   0.000292
    27  C    0.008319   0.000411   4.935420   0.404799   0.419525   0.406330
    28  H    0.000297  -0.003276   0.404799   0.507034  -0.026943  -0.019902
    29  H   -0.000071   0.003843   0.419525  -0.026943   0.506262  -0.024788
    30  H   -0.000482   0.000292   0.406330  -0.019902  -0.024788   0.523523
 Mulliken charges:
               1
     1  C   -0.116471
     2  C   -0.116692
     3  N    0.004280
     4  N    0.004300
     5  C   -0.267377
     6  H    0.173907
     7  H    0.149748
     8  H    0.166523
     9  C   -0.267606
    10  H    0.166526
    11  H    0.173920
    12  H    0.149899
    13  C   -0.267432
    14  H    0.173890
    15  H    0.149828
    16  H    0.166491
    17  C   -0.267354
    18  H    0.166469
    19  H    0.173888
    20  H    0.149810
    21  C   -0.116526
    22  N    0.004296
    23  C   -0.267120
    24  H    0.173857
    25  H    0.149686
    26  H    0.166459
    27  C   -0.267381
    28  H    0.166456
    29  H    0.173884
    30  H    0.149842
 Sum of Mulliken charges =   1.00000
 Mulliken charges with hydrogens summed into heavy atoms:
               1
     1  C   -0.116471
     2  C   -0.116692
     3  N    0.004280
     4  N    0.004300
     5  C    0.222801
     9  C    0.222738
    13  C    0.222776
    17  C    0.222813
    21  C   -0.116526
    22  N    0.004296
    23  C    0.222882
    27  C    0.222801
 Electronic spatial extent (au):  <R**2>=           2594.5606
 Charge=              1.0000 electrons
 Dipole moment (field-independent basis, Debye):
    X=             -0.0004    Y=             -0.0003    Z=              0.0007  Tot=              0.0008
 Quadrupole moment (field-independent basis, Debye-Ang):
   XX=            -44.2054   YY=            -44.2093   ZZ=            -71.9232
   XY=              0.0015   XZ=              0.0002   YZ=              0.0002
 Traceless Quadrupole moment (field-independent basis, Debye-Ang):
   XX=              9.2405   YY=              9.2367   ZZ=            -18.4772
   XY=              0.0015   XZ=              0.0002   YZ=              0.0002
 Octapole moment (field-independent basis, Debye-Ang**2):
  XXX=              8.3584  YYY=             14.6818  ZZZ=              0.0014  XYY=             -8.3703
  XXY=            -14.7002  XXZ=              0.0011  XZZ=              0.0026  YZZ=              0.0044
  YYZ=              0.0016  XYZ=             -0.0001
 Hexadecapole moment (field-independent basis, Debye-Ang**3):
 XXXX=          -1391.7069 YYYY=          -1391.4489 ZZZZ=           -133.1351 XXXY=              0.0135
 XXXZ=              4.6080 YYYX=              0.0195 YYYZ=             -2.6060 ZZZX=             -0.0154
 ZZZY=              0.0023 XXYY=           -463.8376 XXZZ=           -277.0946 YYZZ=           -277.0695
 XXYZ=              2.5946 YYXZ=             -4.5535 ZZXY=             -0.0091
 N-N= 7.407629817128D+02 E-N=-2.668561552758D+03  KE= 5.149144762474D+02
 No NMR shielding tensors so no spin-rotation constants.
 Leave Link  601 at Mon Jan 25 21:58:01 2021, MaxMem=  4026531840 cpu:               7.0 elap:               1.2
 (Enter /opt/ohpc/pub/libs/gaussian/g16-A.03/sandybridge/g16/l9999.exe)

 Test job not archived.
 1\1\GINC-CNODE237\SP\RLC-wHPBE\TZVP\C9H18N3(1+)\RDU230\25-Jan-2021\0\\
 #P LC-wHPBE/TZVP iop(3/107=0248100000, 3/108=0248100000) scf=(conver=6
 ,fermi,ndamp=35,noincfock,novaracc,vshift=500,xqc)\\H18 C9 N3\\1,1\C,0
 ,-0.610862,0.51088,0.000115\C,0,-0.136805,-0.784324,0.000118\N,0,-1.62
 5284,1.358829,0.000149\N,0,-0.364248,-2.086765,0.000256\C,0,-1.430247,
 2.779535,-0.245115\H,0,-1.514482,3.356239,0.681778\H,0,-0.453085,2.953
 583,-0.69457\H,0,-2.189123,3.132424,-0.948067\C,0,-2.988895,0.914734,0
 .244915\H,0,-3.47163,1.599951,0.946347\H,0,-3.570653,0.893667,-0.68241
 9\H,0,-2.986873,-0.077069,0.695991\C,0,0.701968,-3.045906,0.244739\H,0
 ,1.009895,-3.54009,-0.68252\H,0,1.56061,-2.548225,0.694397\H,0,0.35036
 1,-3.805818,0.947208\C,0,-1.692259,-2.627901,-0.244928\H,0,-1.618712,-
 3.461412,-0.948079\H,0,-2.149477,-2.989362,0.681963\H,0,-2.331523,-1.8
 6843,-0.69401\C,0,0.747831,0.27381,0.000062\N,0,1.989493,0.728067,-0.0
 00089\C,0,2.287295,2.130832,0.245062\H,0,2.563599,2.644356,-0.681638\H
 ,0,1.426241,2.626112,0.692731\H,0,3.119706,2.205914,0.949371\C,0,3.122
 069,-0.151615,-0.24503\H,0,3.807758,0.3292,-0.947323\H,0,3.663007,-0.3
 67678,0.682084\H,0,2.784087,-1.084552,-0.695089\\Version=EM64L-G16RevA
 .03\State=1-A\HF=-517.4843772\RMSD=9.890e-07\Dipole=-0.000155,0.000102
 9,-0.0002626\Quadrupole=6.8701126,6.8672559,-13.7373685,-0.0011078,-0.
 000127,0.0001772\PG=C01 [X(C9H18N3)]\\@


 LET US LEARN TO DREAM, GENTLEMEN, THEN PERHAPS WE SHALL
 DISCOVER THE TRUTH;  BUT LET US BEWARE OF PUBLISHING
 OUR DREAMS ABROAD BEFORE THEY HAVE BEEN SCRUTINIZED
 BY OUR VIGILANT INTELLECT ... LET US ALWAYS ALLOW
 THE FRUIT TO HANG UNTIL IT IS RIPE.  UNRIPE FRUIT
 BRINGS EVEN THE GROWER BUT LITTLE PROFIT; IT DAMAGES
 THE HEALTH OF THOSE WHO CONSUME IT; IT ENDANGERS
 PARTICULARLY THE YOUTH WHO CANNOT YET DISTINGUISH
 BETWEEN RIPE AND UNRIPE FRUIT.

                                  -- KEKULE, 1890
 Job cpu time:       0 days  0 hours 17 minutes  5.8 seconds.
 Elapsed time:       0 days  0 hours  2 minutes  9.6 seconds.
 File lengths (MBytes):  RWF=     92 Int=      0 D2E=      0 Chk=     12 Scr=      8
 Normal termination of Gaussian 16 at Mon Jan 25 21:58:01 2021.
