 Entering Gaussian System, Link 0=g16
 Input=mol_NN_cp_frag_tune_n8.gjf
 Output=mol_NN_cp_frag_tune_n8.log
 Initial command:
 /opt/ohpc/pub/libs/gaussian/g16-A.03/sandybridge/g16/l1.exe "/mnt/gpfs2_4m/scratch/rdu230/ondemand/projects/init_structures/gaussian/wtuning/mol_NN_cp_frag/tuning_mol_NN_cp_frag_ocycle0/Gau-17854.inp" -scrdir="/mnt/gpfs2_4m/scratch/rdu230/ondemand/projects/init_structures/gaussian/wtuning/mol_NN_cp_frag/tuning_mol_NN_cp_frag_ocycle0/"
 Entering Link 1 = /opt/ohpc/pub/libs/gaussian/g16-A.03/sandybridge/g16/l1.exe PID=     17855.
  
 Copyright (c) 1988,1990,1992,1993,1995,1998,2003,2009,2016,
            Gaussian, Inc.  All Rights Reserved.
  
 This is part of the Gaussian(R) 16 program.  It is based on
 the Gaussian(R) 09 system (copyright 2009, Gaussian, Inc.),
 the Gaussian(R) 03 system (copyright 2003, Gaussian, Inc.),
 the Gaussian(R) 98 system (copyright 1998, Gaussian, Inc.),
 the Gaussian(R) 94 system (copyright 1995, Gaussian, Inc.),
 the Gaussian 92(TM) system (copyright 1992, Gaussian, Inc.),
 the Gaussian 90(TM) system (copyright 1990, Gaussian, Inc.),
 the Gaussian 88(TM) system (copyright 1988, Gaussian, Inc.),
 the Gaussian 86(TM) system (copyright 1986, Carnegie Mellon
 University), and the Gaussian 82(TM) system (copyright 1983,
 Carnegie Mellon University). Gaussian is a federally registered
 trademark of Gaussian, Inc.
  
 This software contains proprietary and confidential information,
 including trade secrets, belonging to Gaussian, Inc.
  
 This software is provided under written license and may be
 used, copied, transmitted, or stored only in accord with that
 written license.
  
 The following legend is applicable only to US Government
 contracts under FAR:
  
                    RESTRICTED RIGHTS LEGEND
  
 Use, reproduction and disclosure by the US Government is
 subject to restrictions as set forth in subparagraphs (a)
 and (c) of the Commercial Computer Software - Restricted
 Rights clause in FAR 52.227-19.
  
 Gaussian, Inc.
 340 Quinnipiac St., Bldg. 40, Wallingford CT 06492
  
  
 ---------------------------------------------------------------
 Warning -- This program may not be used in any manner that
 competes with the business of Gaussian, Inc. or will provide
 assistance to any competitor of Gaussian, Inc.  The licensee
 of this program is prohibited from giving any competitor of
 Gaussian, Inc. access to this program.  By using this program,
 the user acknowledges that Gaussian, Inc. is engaged in the
 business of creating and licensing software in the field of
 computational chemistry and represents and warrants to the
 licensee that it is not a competitor of Gaussian, Inc. and that
 it will not use this program in any manner prohibited above.
 ---------------------------------------------------------------
  

 Cite this work as:
 Gaussian 16, Revision A.03,
 M. J. Frisch, G. W. Trucks, H. B. Schlegel, G. E. Scuseria, 
 M. A. Robb, J. R. Cheeseman, G. Scalmani, V. Barone, 
 G. A. Petersson, H. Nakatsuji, X. Li, M. Caricato, A. V. Marenich, 
 J. Bloino, B. G. Janesko, R. Gomperts, B. Mennucci, H. P. Hratchian, 
 J. V. Ortiz, A. F. Izmaylov, J. L. Sonnenberg, D. Williams-Young, 
 F. Ding, F. Lipparini, F. Egidi, J. Goings, B. Peng, A. Petrone, 
 T. Henderson, D. Ranasinghe, V. G. Zakrzewski, J. Gao, N. Rega, 
 G. Zheng, W. Liang, M. Hada, M. Ehara, K. Toyota, R. Fukuda, 
 J. Hasegawa, M. Ishida, T. Nakajima, Y. Honda, O. Kitao, H. Nakai, 
 T. Vreven, K. Throssell, J. A. Montgomery, Jr., J. E. Peralta, 
 F. Ogliaro, M. J. Bearpark, J. J. Heyd, E. N. Brothers, K. N. Kudin, 
 V. N. Staroverov, T. A. Keith, R. Kobayashi, J. Normand, 
 K. Raghavachari, A. P. Rendell, J. C. Burant, S. S. Iyengar, 
 J. Tomasi, M. Cossi, J. M. Millam, M. Klene, C. Adamo, R. Cammi, 
 J. W. Ochterski, R. L. Martin, K. Morokuma, O. Farkas, 
 J. B. Foresman, and D. J. Fox, Gaussian, Inc., Wallingford CT, 2016.
 
 ******************************************
 Gaussian 16:  EM64L-G16RevA.03 25-Dec-2016
                25-Jan-2021 
 ******************************************
 %mem=30GB
 %nproc=8
 Will use up to    8 processors via shared memory.
 ----------------------------------------------------------------------
 #P LC-wHPBE/TZVP iop(3/107=0249300000, 3/108=0249300000) scf=(conver=6
 ,fermi,ndamp=35,noincfock,novaracc,vshift=500,xqc)
 ----------------------------------------------------------------------
 1/38=1,172=1/1;
 2/12=2,17=6,18=5,40=1/2;
 3/5=19,7=101,11=2,25=1,30=1,74=-71,107=249300000,108=249300000/1,2,3;
 4//1;
 5/5=100002,6=6,8=3,10=500,13=1,18=-1,22=13,38=1,93=35/2,8;
 6/7=2,8=2,9=2,10=2,28=1/1;
 99/5=1,9=1/99;
 Leave Link    1 at Mon Jan 25 21:43:54 2021, MaxMem=  4026531840 cpu:               1.4 elap:               0.3
 (Enter /opt/ohpc/pub/libs/gaussian/g16-A.03/sandybridge/g16/l101.exe)
 ---------
 H18 C9 N3
 ---------
 Symbolic Z-matrix:
 Charge =  1 Multiplicity = 1
 C                    -0.61086   0.51088   0.00012 
 C                    -0.13681  -0.78432   0.00012 
 N                    -1.62528   1.35883   0.00015 
 N                    -0.36425  -2.08677   0.00026 
 C                    -1.43025   2.77954  -0.24512 
 H                    -1.51448   3.35624   0.68178 
 H                    -0.45309   2.95358  -0.69457 
 H                    -2.18912   3.13242  -0.94807 
 C                    -2.9889    0.91473   0.24492 
 H                    -3.47163   1.59995   0.94635 
 H                    -3.57065   0.89367  -0.68242 
 H                    -2.98687  -0.07707   0.69599 
 C                     0.70197  -3.04591   0.24474 
 H                     1.00989  -3.54009  -0.68252 
 H                     1.56061  -2.54823   0.6944 
 H                     0.35036  -3.80582   0.94721 
 C                    -1.69226  -2.6279   -0.24493 
 H                    -1.61871  -3.46141  -0.94808 
 H                    -2.14948  -2.98936   0.68196 
 H                    -2.33152  -1.86843  -0.69401 
 C                     0.74783   0.27381   0.00006 
 N                     1.98949   0.72807  -0.00009 
 C                     2.2873    2.13083   0.24506 
 H                     2.5636    2.64436  -0.68164 
 H                     1.42624   2.62611   0.69273 
 H                     3.11971   2.20591   0.94937 
 C                     3.12207  -0.15162  -0.24503 
 H                     3.80776   0.3292   -0.94732 
 H                     3.66301  -0.36768   0.68208 
 H                     2.78409  -1.08455  -0.69509 
 
 ITRead=  0  0  0  0  0  0  0  0  0  0  0  0  0  0  0  0  0  0  0  0
 ITRead=  0  0  0  0  0  0  0  0  0  0
 MicOpt= -1 -1 -1 -1 -1 -1 -1 -1 -1 -1 -1 -1 -1 -1 -1 -1 -1 -1 -1 -1
 MicOpt= -1 -1 -1 -1 -1 -1 -1 -1 -1 -1
 NAtoms=     30 NQM=       30 NQMF=       0 NMMI=      0 NMMIF=      0
                NMic=       0 NMicF=      0.
                    Isotopes and Nuclear Properties:
 (Nuclear quadrupole moments (NQMom) in fm**2, nuclear magnetic moments (NMagM)
  in nuclear magnetons)

  Atom         1           2           3           4           5           6           7           8           9          10
 IAtWgt=          12          12          14          14          12           1           1           1          12           1
 AtmWgt=  12.0000000  12.0000000  14.0030740  14.0030740  12.0000000   1.0078250   1.0078250   1.0078250  12.0000000   1.0078250
 NucSpn=           0           0           2           2           0           1           1           1           0           1
 AtZEff=  -0.0000000  -0.0000000  -0.0000000  -0.0000000  -0.0000000  -0.0000000  -0.0000000  -0.0000000  -0.0000000  -0.0000000
 NQMom=    0.0000000   0.0000000   2.0440000   2.0440000   0.0000000   0.0000000   0.0000000   0.0000000   0.0000000   0.0000000
 NMagM=    0.0000000   0.0000000   0.4037610   0.4037610   0.0000000   2.7928460   2.7928460   2.7928460   0.0000000   2.7928460
 AtZNuc=   6.0000000   6.0000000   7.0000000   7.0000000   6.0000000   1.0000000   1.0000000   1.0000000   6.0000000   1.0000000

  Atom        11          12          13          14          15          16          17          18          19          20
 IAtWgt=           1           1          12           1           1           1          12           1           1           1
 AtmWgt=   1.0078250   1.0078250  12.0000000   1.0078250   1.0078250   1.0078250  12.0000000   1.0078250   1.0078250   1.0078250
 NucSpn=           1           1           0           1           1           1           0           1           1           1
 AtZEff=  -0.0000000  -0.0000000  -0.0000000  -0.0000000  -0.0000000  -0.0000000  -0.0000000  -0.0000000  -0.0000000  -0.0000000
 NQMom=    0.0000000   0.0000000   0.0000000   0.0000000   0.0000000   0.0000000   0.0000000   0.0000000   0.0000000   0.0000000
 NMagM=    2.7928460   2.7928460   0.0000000   2.7928460   2.7928460   2.7928460   0.0000000   2.7928460   2.7928460   2.7928460
 AtZNuc=   1.0000000   1.0000000   6.0000000   1.0000000   1.0000000   1.0000000   6.0000000   1.0000000   1.0000000   1.0000000

  Atom        21          22          23          24          25          26          27          28          29          30
 IAtWgt=          12          14          12           1           1           1          12           1           1           1
 AtmWgt=  12.0000000  14.0030740  12.0000000   1.0078250   1.0078250   1.0078250  12.0000000   1.0078250   1.0078250   1.0078250
 NucSpn=           0           2           0           1           1           1           0           1           1           1
 AtZEff=  -0.0000000  -0.0000000  -0.0000000  -0.0000000  -0.0000000  -0.0000000  -0.0000000  -0.0000000  -0.0000000  -0.0000000
 NQMom=    0.0000000   2.0440000   0.0000000   0.0000000   0.0000000   0.0000000   0.0000000   0.0000000   0.0000000   0.0000000
 NMagM=    0.0000000   0.4037610   0.0000000   2.7928460   2.7928460   2.7928460   0.0000000   2.7928460   2.7928460   2.7928460
 AtZNuc=   6.0000000   7.0000000   6.0000000   1.0000000   1.0000000   1.0000000   6.0000000   1.0000000   1.0000000   1.0000000
 Leave Link  101 at Mon Jan 25 21:43:55 2021, MaxMem=  4026531840 cpu:               0.8 elap:               0.2
 (Enter /opt/ohpc/pub/libs/gaussian/g16-A.03/sandybridge/g16/l202.exe)
                          Input orientation:                          
 ---------------------------------------------------------------------
 Center     Atomic      Atomic             Coordinates (Angstroms)
 Number     Number       Type             X           Y           Z
 ---------------------------------------------------------------------
      1          6           0       -0.610862    0.510880    0.000115
      2          6           0       -0.136805   -0.784324    0.000118
      3          7           0       -1.625284    1.358829    0.000149
      4          7           0       -0.364248   -2.086765    0.000256
      5          6           0       -1.430247    2.779535   -0.245115
      6          1           0       -1.514482    3.356239    0.681778
      7          1           0       -0.453085    2.953583   -0.694570
      8          1           0       -2.189123    3.132424   -0.948067
      9          6           0       -2.988895    0.914734    0.244915
     10          1           0       -3.471630    1.599951    0.946347
     11          1           0       -3.570653    0.893667   -0.682419
     12          1           0       -2.986873   -0.077069    0.695991
     13          6           0        0.701968   -3.045906    0.244739
     14          1           0        1.009895   -3.540090   -0.682520
     15          1           0        1.560610   -2.548225    0.694397
     16          1           0        0.350361   -3.805818    0.947208
     17          6           0       -1.692259   -2.627901   -0.244928
     18          1           0       -1.618712   -3.461412   -0.948079
     19          1           0       -2.149477   -2.989362    0.681963
     20          1           0       -2.331523   -1.868430   -0.694010
     21          6           0        0.747831    0.273810    0.000062
     22          7           0        1.989493    0.728067   -0.000089
     23          6           0        2.287295    2.130832    0.245062
     24          1           0        2.563599    2.644356   -0.681638
     25          1           0        1.426241    2.626112    0.692731
     26          1           0        3.119706    2.205914    0.949371
     27          6           0        3.122069   -0.151615   -0.245030
     28          1           0        3.807758    0.329200   -0.947323
     29          1           0        3.663007   -0.367678    0.682084
     30          1           0        2.784087   -1.084552   -0.695089
 ---------------------------------------------------------------------
                    Distance matrix (angstroms):
                    1          2          3          4          5
     1  C    0.000000
     2  C    1.379233   0.000000
     3  N    1.322146   2.609344   0.000000
     4  N    2.609325   1.322151   3.669105   0.000000
     5  C    2.424526   3.799240   1.454854   4.987729   0.000000
     6  H    3.062231   4.416663   2.113419   5.604802   1.094903
     7  H    2.544460   3.815046   2.097600   5.088790   1.089563
     8  H    3.203506   4.522386   2.088700   5.609761   1.092962
     9  C    2.424472   3.328835   1.454842   3.994700   2.479314
    10  H    3.203970   4.207276   2.088642   4.913531   2.641637
    11  H    3.061493   3.882373   2.113465   4.430582   2.886013
    12  H    2.544672   3.017836   2.097600   3.376550   3.386584
    13  C    3.799222   2.424486   4.987747   1.454833   6.222705
    14  H    4.416243   3.061889   5.604428   2.113435   6.788466
    15  H    3.815159   2.544521   5.088907   2.097583   6.181661
    16  H    4.522700   3.203707   5.610140   2.088666   6.925249
    17  C    3.328875   2.424512   3.994817   1.454839   5.413780
    18  H    4.206416   3.203424   4.912627   2.088701   6.283239
    19  H    3.883806   3.062344   4.432428   2.113397   5.887014
    20  H    3.017217   2.544383   3.375771   2.097581   4.755774
    21  C    1.379220   1.379213   2.609395   2.609413   3.329083
    22  N    2.609409   2.609304   3.669397   3.669247   3.995395
    23  C    3.329198   3.799262   3.995528   4.987859   3.805418
    24  H    3.885062   4.417332   4.434428   5.605424   4.019904
    25  H    3.017236   3.814957   3.376016   5.088868   3.010418
    26  H    4.206110   4.521888   4.912586   5.609443   4.738978
    27  C    3.799180   3.328765   4.987877   3.994919   5.414353
    28  H    4.522704   4.206799   5.610328   4.913291   5.825284
    29  H    4.416209   3.882943   5.604631   4.431584   6.058538
    30  H    3.815022   3.017459   5.088813   3.376381   5.735351
                    6          7          8          9         10
     6  H    0.000000
     7  H    1.784105   0.000000
     8  H    1.778097   1.763540   0.000000
     9  C    2.885427   3.386720   2.642156   0.000000
    10  H    2.642910   3.692769   2.753562   1.092960   0.000000
    11  H    3.486134   3.736661   2.644093   1.094913   1.778067
    12  H    3.735738   4.187910   3.693261   1.089563   1.763537
    13  C    6.789044   6.181449   6.924807   5.413792   6.284518
    14  H    7.469481   6.656444   7.404504   6.057715   7.011226
    15  H    6.657255   6.021137   7.001997   5.735165   6.526430
    16  H    7.405616   7.002176   7.627598   5.824728   6.620420
    17  C    6.058079   5.735041   5.824313   3.804139   4.739201
    18  H    7.010539   6.524961   6.618462   4.738279   5.713103
    19  H    6.377293   6.331760   6.335206   4.017163   4.783281
    20  H    5.464203   5.174972   5.009328   3.009937   4.002534
    21  C    3.883834   3.017598   4.206700   3.799192   4.523047
    22  N    4.432840   3.376598   4.913291   4.987907   5.610685
    23  C    4.018190   3.011563   4.739732   5.414524   5.825706
    24  H    4.358489   3.032519   4.785140   5.888997   6.337595
    25  H    3.030026   2.358751   4.002428   4.756341   5.010635
    26  H    4.782317   4.003297   5.713349   6.283185   6.619132
    27  C    5.887412   4.756687   6.283943   6.222622   6.925621
    28  H    6.335864   5.010594   6.619717   6.925227   7.628256
    29  H    6.377613   5.465177   7.011101   6.788483   7.405703
    30  H    6.331989   5.175502   6.525312   6.181268   7.002490
                   11         12         13         14         15
    11  H    0.000000
    12  H    1.784136   0.000000
    13  C    5.885163   4.756592   0.000000
    14  H    6.374921   5.465067   1.094918   0.000000
    15  H    6.330253   5.175540   1.089562   1.784092   0.000000
    16  H    6.333656   5.010370   1.092958   1.778092   1.763563
    17  C    4.015122   3.011328   2.479279   2.885344   3.386715
    18  H    4.779891   4.003574   2.642161   2.643158   3.693200
    19  H    4.354216   3.030327   2.885325   3.485218   3.736242
    20  H    3.027335   2.360204   3.386704   3.736262   4.187899
    21  C    4.415802   3.815160   3.329037   3.883353   3.017713
    22  N    5.604304   5.088909   3.995064   4.431985   3.376439
    23  C    6.058577   5.735417   5.414045   5.886554   4.756422
    24  H    6.379182   6.333384   6.058294   6.376627   5.464646
    25  H    5.464554   5.175208   5.735596   6.331406   5.176082
    26  H    7.010395   6.524302   5.824395   6.334898   5.009753
    27  C    6.787964   6.181444   3.804429   4.016770   3.010717
    28  H    7.404711   7.002324   4.739017   4.782213   4.003060
    29  H    7.468514   6.656242   4.016457   4.354922   3.029028
    30  H    6.655541   6.021138   3.010881   3.029452   2.360065
                   16         17         18         19         20
    16  H    0.000000
    17  C    2.642153   0.000000
    18  H    2.754628   1.092964   0.000000
    19  H    2.643132   1.094911   1.778083   0.000000
    20  H    3.693179   1.089555   1.763588   1.784077   0.000000
    21  C    4.206951   3.799209   4.522320   4.416749   3.814885
    22  N    4.913272   4.987762   5.609774   5.604957   5.088664
    23  C    6.283990   6.222739   6.924859   6.789125   6.181378
    24  H    7.011156   6.789679   7.405614   7.470694   6.657898
    25  H    6.526255   6.181335   7.001567   6.657283   6.020361
    26  H    6.618927   6.924386   7.627025   7.404505   7.001205
    27  C    4.738881   5.413848   5.824435   6.058162   5.735042
    28  H    5.713249   6.283947   6.619314   7.011139   6.525681
    29  H    4.781707   5.886156   6.334444   6.376378   6.330899
    30  H    4.003180   4.756285   5.009801   5.464854   5.175319
                   21         22         23         24         25
    21  C    0.000000
    22  N    1.322147   0.000000
    23  C    2.424563   1.454831   0.000000
    24  H    3.062877   2.113355   1.094908   0.000000
    25  H    2.544279   2.097577   1.089552   1.784042   0.000000
    26  H    3.203124   2.088753   1.092976   1.778110   1.763591
    27  C    2.424472   1.454842   2.479234   2.884436   3.386886
    28  H    3.203710   2.088644   2.641868   2.641679   3.692859
    29  H    3.061848   2.113449   2.885502   3.484363   3.737113
    30  H    2.544547   2.097616   3.386647   3.735445   4.187937
                   26         27         28         29         30
    26  H    0.000000
    27  C    2.642828   0.000000
    28  H    2.755525   1.092963   0.000000
    29  H    2.643860   1.094914   1.778077   0.000000
    30  H    3.693786   1.089567   1.763581   1.784100   0.000000
 Stoichiometry    C9H18N3(1+)
 Framework group  C1[X(C9H18N3)]
 Deg. of freedom    84
 Full point group                 C1      NOp   1
 Largest Abelian subgroup         C1      NOp   1
 Largest concise Abelian subgroup C1      NOp   1
                         Standard orientation:                         
 ---------------------------------------------------------------------
 Center     Atomic      Atomic             Coordinates (Angstroms)
 Number     Number       Type             X           Y           Z
 ---------------------------------------------------------------------
      1          6           0       -0.610975   -0.510745   -0.000115
      2          6           0       -0.136632    0.784354   -0.000118
      3          7           0       -1.625585   -1.358470   -0.000149
      4          7           0       -0.363786    2.086845   -0.000256
      5          6           0       -1.430862   -2.779219    0.245115
      6          1           0       -1.515224   -3.355904   -0.681778
      7          1           0       -0.453738   -2.953483    0.694570
      8          1           0       -2.189816   -3.131940    0.948067
      9          6           0       -2.989097   -0.914073   -0.244915
     10          1           0       -3.471984   -1.599183   -0.946347
     11          1           0       -3.570851   -0.892877    0.682419
     12          1           0       -2.986856    0.077730   -0.695991
     13          6           0        0.702642    3.045751   -0.244739
     14          1           0        1.010678    3.539867    0.682520
     15          1           0        1.561174    2.547880   -0.694397
     16          1           0        0.351203    3.805740   -0.947208
     17          6           0       -1.691678    2.628275    0.244928
     18          1           0       -1.617946    3.461770    0.948079
     19          1           0       -2.148816    2.989837   -0.681963
     20          1           0       -2.331110    1.868946    0.694010
     21          6           0        0.747770   -0.273975   -0.000062
     22          7           0        1.989332   -0.728507    0.000089
     23          6           0        2.286824   -2.131338   -0.245062
     24          1           0        2.563014   -2.644923    0.681638
     25          1           0        1.425660   -2.626427   -0.692731
     26          1           0        3.119218   -2.206604   -0.949371
     27          6           0        3.122102    0.150924    0.245030
     28          1           0        3.807685   -0.330042    0.947323
     29          1           0        3.663088    0.366868   -0.682084
     30          1           0        2.784327    1.083936    0.695089
 ---------------------------------------------------------------------
 Rotational constants (GHZ):           0.8639071           0.8637633           0.4436577
 Leave Link  202 at Mon Jan 25 21:43:55 2021, MaxMem=  4026531840 cpu:               0.4 elap:               0.1
 (Enter /opt/ohpc/pub/libs/gaussian/g16-A.03/sandybridge/g16/l301.exe)
 Standard basis: TZVP (5D, 7F)
 Ernie: Thresh=  0.10000D-02 Tol=  0.10000D-05 Strict=F.
 There are   348 symmetry adapted cartesian basis functions of A   symmetry.
 There are   336 symmetry adapted basis functions of A   symmetry.
   336 basis functions,   564 primitive gaussians,   348 cartesian basis functions
    46 alpha electrons       46 beta electrons
       nuclear repulsion energy       740.7629817128 Hartrees.
 IExCor=33909 DFT=T Ex+Corr=LC-wHPBE ExCW=0 ScaHFX=  1.000000
 ScaDFX=  1.000000  1.000000  1.000000  1.000000 ScalE2=  1.000000  1.000000
 IRadAn=      5 IRanWt=     -1 IRanGd=            0 ICorTp=0 IEmpDi=  4
 HFx  wShort=  0.000000 wLong=  0.249300 cFull=  0.000000 cShort=  0.000000 cLong=  1.000000
 DFx  wShort=  0.000000 wLong=  0.249300 cFull=  0.000000 cShort=  1.000000 cLong=  0.000000
 NAtoms=   30 NActive=   30 NUniq=   30 SFac= 1.00D+00 NAtFMM=   60 NAOKFM=F Big=F
 Integral buffers will be    131072 words long.
 Raffenetti 2 integral format.
 Two-electron integral symmetry is turned on.
 Leave Link  301 at Mon Jan 25 21:43:55 2021, MaxMem=  4026531840 cpu:               0.4 elap:               0.1
 (Enter /opt/ohpc/pub/libs/gaussian/g16-A.03/sandybridge/g16/l302.exe)
 NPDir=0 NMtPBC=     1 NCelOv=     1 NCel=       1 NClECP=     1 NCelD=      1
         NCelK=      1 NCelE2=     1 NClLst=     1 CellRange=     0.0.
 One-electron integrals computed using PRISM.
 One-electron integral symmetry used in STVInt
 NBasis=   336 RedAO= T EigKep=  2.74D-05  NBF=   336
 NBsUse=   336 1.00D-06 EigRej= -1.00D+00 NBFU=   336
 Precomputing XC quadrature grid using
 IXCGrd= 4 IRadAn=           5 IRanWt=          -1 IRanGd=           0 AccXCQ= 0.00D+00.
 Generated NRdTot=       0 NPtTot=           0 NUsed=           0 NTot=          32
 NSgBfM=   343   343   343   343   343 MxSgAt=    30 MxSgA2=    30.
 Leave Link  302 at Mon Jan 25 21:43:55 2021, MaxMem=  4026531840 cpu:               3.7 elap:               0.5
 (Enter /opt/ohpc/pub/libs/gaussian/g16-A.03/sandybridge/g16/l303.exe)
 DipDrv:  MaxL=1.
 Leave Link  303 at Mon Jan 25 21:43:55 2021, MaxMem=  4026531840 cpu:               0.4 elap:               0.1
 (Enter /opt/ohpc/pub/libs/gaussian/g16-A.03/sandybridge/g16/l401.exe)
 ExpMin= 9.52D-02 ExpMax= 1.97D+04 ExpMxC= 6.73D+02 IAcc=3 IRadAn=         5 AccDes= 0.00D+00
 Harris functional with IExCor=33909 and IRadAn=       5 diagonalized for initial guess.
 HarFok:  IExCor=33909 AccDes= 0.00D+00 IRadAn=         5 IDoV= 1 UseB2=F ITyADJ=14
 ICtDFT=  3500011 ScaDFX=  1.000000  1.000000  1.000000  1.000000
 FoFCou: FMM=F IPFlag=           0 FMFlag=      100000 FMFlg1=           0
         NFxFlg=           0 DoJE=T BraDBF=F KetDBF=T FulRan=T
         wScrn=  0.000000 ICntrl=       500 IOpCl=  0 I1Cent=   200000004 NGrid=           0
         NMat0=    1 NMatS0=      1 NMatT0=    0 NMatD0=    1 NMtDS0=    0 NMtDT0=    0
 Petite list used in FoFCou.
 Harris En= -505.481426630944    
 JPrj=0 DoOrth=F DoCkMO=F.
 Leave Link  401 at Mon Jan 25 21:43:59 2021, MaxMem=  4026531840 cpu:              24.2 elap:               3.3
 (Enter /opt/ohpc/pub/libs/gaussian/g16-A.03/sandybridge/g16/l502.exe)
 Integral symmetry usage will be decided dynamically.
 Closed shell SCF:
 Using DIIS extrapolation, IDIIS=    10.
 NGot=  4026531840 LenX=  4026283142 LenY=  4026161597
 Requested convergence on RMS density matrix=1.00D-06 within  32 cycles.
 Requested convergence on MAX density matrix=1.00D-04.
 Requested convergence on             energy=1.00D-04.
 Virtual orbitals will be shifted by   0.500 hartree.
 No special actions if energy rises.
 Dynamic level shift is on during FON iterations.

 Cycle   1  Pass 1  IDiag  1:
 FoFJK:  IHMeth= 1 ICntrl=       0 DoSepK=T KAlg= 0 I1Cent=           0 FoldK=F
 IRaf=         1 NMat=       1 IRICut=       1 DoRegI=T DoRafI=F ISym2E= 0 IDoP0=0 IntGTp=1.
 FoFCou: FMM=F IPFlag=           0 FMFlag=      100000 FMFlg1=           0
         NFxFlg=           0 DoJE=T BraDBF=F KetDBF=F FulRan=T
         wScrn=  0.000000 ICntrl=       500 IOpCl=  0 I1Cent=           0 NGrid=           0
         NMat0=    1 NMatS0=      1 NMatT0=    0 NMatD0=    1 NMtDS0=    0 NMtDT0=    0
 Symmetry not used in FoFCou.
 E= -517.324461129539    
 DIIS: error= 3.22D-02 at cycle   1 NSaved=   1.
 NSaved= 1 IEnMin= 1 EnMin= -517.324461129539     IErMin= 1 ErrMin= 3.22D-02
 ErrMax= 3.22D-02  0.00D+00 EMaxC= 1.00D+00 BMatC= 1.79D-01 BMatP= 1.79D-01
 IDIUse=1 WtCom= 1.00D+00 WtEn= 0.00D+00
 Coeff-Com:  0.100D+01
 Coeff:      0.100D+01
 Gap=     0.367 Goal=   None    Shift=    0.500
 T= 1538. Gap= 0.855 NK=0 IS=   47 IE=  336 IFin=   46
          NO(<0.9)=   0  NV(>0.1)=   0     46.00e < EF      0.00e >EF  Err=0.0D+00
 GapD=    0.367 DampG=1.000 DampE=0.500 DampFc=0.5000 IDamp=-1.
 Damping current iteration by 5.00D-01
 RMSDP=1.64D-03 MaxDP=3.70D-02              OVMax= 5.09D-02

 Cycle   2  Pass 1  IDiag  1:
 E= -517.421366183059     Delta-E=       -0.096905053520 Rises=F Damp=T
 DIIS: error= 1.36D-02 at cycle   2 NSaved=   2.
 NSaved= 2 IEnMin= 2 EnMin= -517.421366183059     IErMin= 2 ErrMin= 1.36D-02
 ErrMax= 1.36D-02  0.00D+00 EMaxC= 1.00D+00 BMatC= 3.34D-02 BMatP= 1.79D-01
 IDIUse=1 WtCom= 1.00D+00 WtEn= 0.00D+00
 Coeff-Com: -0.646D+00 0.165D+01
 Coeff:     -0.646D+00 0.165D+01
 Gap=     0.363 Goal=   None    Shift=    0.500
 T= 1410. Gap= 0.860 NK=0 IS=   47 IE=  336 IFin=   46
          NO(<0.9)=   0  NV(>0.1)=   0     46.00e < EF      0.00e >EF  Err=0.0D+00
 GapD=    0.363 DampG=1.000 DampE=0.500 DampFc=0.5000 IDamp=-1.
 Damping current iteration by 5.00D-01
 RMSDP=1.13D-03 MaxDP=2.22D-02 DE=-9.69D-02 OVMax= 7.68D-03

 Cycle   3  Pass 1  IDiag  1:
 E= -517.455984821569     Delta-E=       -0.034618638510 Rises=F Damp=T
 DIIS: error= 6.03D-03 at cycle   3 NSaved=   3.
 NSaved= 3 IEnMin= 3 EnMin= -517.455984821569     IErMin= 3 ErrMin= 6.03D-03
 ErrMax= 6.03D-03  0.00D+00 EMaxC= 1.00D+00 BMatC= 7.04D-03 BMatP= 3.34D-02
 IDIUse=1 WtCom= 1.00D+00 WtEn= 0.00D+00
 Coeff-Com:  0.111D+00-0.118D+01 0.207D+01
 Coeff:      0.111D+00-0.118D+01 0.207D+01
 Gap=     0.367 Goal=   None    Shift=    0.500
 T= 1164. Gap= 0.865 NK=0 IS=   47 IE=  336 IFin=   46
          NO(<0.9)=   0  NV(>0.1)=   0     46.00e < EF      0.00e >EF  Err=0.0D+00
 GapD=    0.367 DampG=1.000 DampE=1.000 DampFc=1.0000 IDamp=-1.
 RMSDP=7.20D-04 MaxDP=1.57D-02 DE=-3.46D-02 OVMax= 2.62D-03

 Cycle   4  Pass 1  IDiag  1:
 E= -517.485248618264     Delta-E=       -0.029263796695 Rises=F Damp=F
 DIIS: error= 4.45D-04 at cycle   4 NSaved=   4.
 NSaved= 4 IEnMin= 4 EnMin= -517.485248618264     IErMin= 4 ErrMin= 4.45D-04
 ErrMax= 4.45D-04  0.00D+00 EMaxC= 1.00D+00 BMatC= 1.14D-04 BMatP= 7.04D-03
 IDIUse=1 WtCom= 1.00D+00 WtEn= 0.00D+00
 Coeff-Com:  0.690D-01-0.184D+00 0.117D+00 0.997D+00
 Coeff:      0.690D-01-0.184D+00 0.117D+00 0.997D+00
 Gap=     0.365 Goal=   None    Shift=    0.500
 RMSDP=7.58D-05 MaxDP=1.52D-03 DE=-2.93D-02 OVMax= 1.26D-03

 Cycle   5  Pass 1  IDiag  1:
 E= -517.485375222758     Delta-E=       -0.000126604494 Rises=F Damp=F
 DIIS: error= 1.94D-04 at cycle   5 NSaved=   5.
 NSaved= 5 IEnMin= 5 EnMin= -517.485375222758     IErMin= 5 ErrMin= 1.94D-04
 ErrMax= 1.94D-04  0.00D+00 EMaxC= 1.00D+00 BMatC= 1.42D-05 BMatP= 1.14D-04
 IDIUse=1 WtCom= 1.00D+00 WtEn= 0.00D+00
 Coeff-Com:  0.924D-03 0.112D+00-0.238D+00-0.281D-01 0.115D+01
 Coeff:      0.924D-03 0.112D+00-0.238D+00-0.281D-01 0.115D+01
 Gap=     0.365 Goal=   None    Shift=    0.500
 RMSDP=3.96D-05 MaxDP=1.28D-03 DE=-1.27D-04 OVMax= 1.03D-03

 Cycle   6  Pass 1  IDiag  1:
 E= -517.485403018279     Delta-E=       -0.000027795521 Rises=F Damp=F
 DIIS: error= 9.87D-05 at cycle   6 NSaved=   6.
 NSaved= 6 IEnMin= 6 EnMin= -517.485403018279     IErMin= 6 ErrMin= 9.87D-05
 ErrMax= 9.87D-05  0.00D+00 EMaxC= 1.00D+00 BMatC= 2.65D-06 BMatP= 1.42D-05
 IDIUse=1 WtCom= 1.00D+00 WtEn= 0.00D+00
 Coeff-Com: -0.121D-01 0.533D-01-0.664D-01-0.188D+00-0.129D-01 0.123D+01
 Coeff:     -0.121D-01 0.533D-01-0.664D-01-0.188D+00-0.129D-01 0.123D+01
 Gap=     0.365 Goal=   None    Shift=    0.500
 RMSDP=2.14D-05 MaxDP=6.67D-04 DE=-2.78D-05 OVMax= 4.61D-04

 Cycle   7  Pass 1  IDiag  1:
 E= -517.485409896283     Delta-E=       -0.000006878004 Rises=F Damp=F
 DIIS: error= 4.67D-05 at cycle   7 NSaved=   7.
 NSaved= 7 IEnMin= 7 EnMin= -517.485409896283     IErMin= 7 ErrMin= 4.67D-05
 ErrMax= 4.67D-05  0.00D+00 EMaxC= 1.00D+00 BMatC= 5.42D-07 BMatP= 2.65D-06
 IDIUse=1 WtCom= 1.00D+00 WtEn= 0.00D+00
 Coeff-Com: -0.164D-02-0.150D-01 0.358D-01-0.211D-01-0.227D+00-0.243D+00
 Coeff-Com:  0.147D+01
 Coeff:     -0.164D-02-0.150D-01 0.358D-01-0.211D-01-0.227D+00-0.243D+00
 Coeff:      0.147D+01
 Gap=     0.365 Goal=   None    Shift=    0.500
 RMSDP=1.04D-05 MaxDP=2.02D-04 DE=-6.88D-06 OVMax= 3.20D-04

 Cycle   8  Pass 1  IDiag  1:
 E= -517.485411654145     Delta-E=       -0.000001757863 Rises=F Damp=F
 DIIS: error= 2.56D-05 at cycle   8 NSaved=   8.
 NSaved= 8 IEnMin= 8 EnMin= -517.485411654145     IErMin= 8 ErrMin= 2.56D-05
 ErrMax= 2.56D-05  0.00D+00 EMaxC= 1.00D+00 BMatC= 1.26D-07 BMatP= 5.42D-07
 IDIUse=1 WtCom= 1.00D+00 WtEn= 0.00D+00
 Coeff-Com:  0.138D-02-0.220D-02-0.554D-03 0.402D-01-0.175D-01-0.114D+00
 Coeff-Com: -0.820D+00 0.191D+01
 Coeff:      0.138D-02-0.220D-02-0.554D-03 0.402D-01-0.175D-01-0.114D+00
 Coeff:     -0.820D+00 0.191D+01
 Gap=     0.365 Goal=   None    Shift=    0.500
 RMSDP=4.71D-06 MaxDP=9.14D-05 DE=-1.76D-06 OVMax= 1.90D-04

 Cycle   9  Pass 1  IDiag  1:
 E= -517.485412097094     Delta-E=       -0.000000442948 Rises=F Damp=F
 DIIS: error= 1.49D-05 at cycle   9 NSaved=   9.
 NSaved= 9 IEnMin= 9 EnMin= -517.485412097094     IErMin= 9 ErrMin= 1.49D-05
 ErrMax= 1.49D-05  0.00D+00 EMaxC= 1.00D+00 BMatC= 3.09D-08 BMatP= 1.26D-07
 IDIUse=1 WtCom= 1.00D+00 WtEn= 0.00D+00
 Coeff-Com: -0.698D-03 0.330D-02-0.409D-02-0.107D-01 0.171D-01 0.899D-01
 Coeff-Com:  0.109D+00-0.172D+01 0.252D+01
 Coeff:     -0.698D-03 0.330D-02-0.409D-02-0.107D-01 0.171D-01 0.899D-01
 Coeff:      0.109D+00-0.172D+01 0.252D+01
 Gap=     0.365 Goal=   None    Shift=    0.500
 RMSDP=2.10D-06 MaxDP=4.15D-05 DE=-4.43D-07 OVMax= 1.07D-04

 Cycle  10  Pass 1  IDiag  1:
 E= -517.485412207959     Delta-E=       -0.000000110865 Rises=F Damp=F
 DIIS: error= 8.98D-06 at cycle  10 NSaved=  10.
 NSaved=10 IEnMin=10 EnMin= -517.485412207959     IErMin=10 ErrMin= 8.98D-06
 ErrMax= 8.98D-06  0.00D+00 EMaxC= 1.00D+00 BMatC= 8.34D-09 BMatP= 3.09D-08
 IDIUse=1 WtCom= 1.00D+00 WtEn= 0.00D+00
 Coeff-Com: -0.205D-03 0.320D-05 0.760D-03-0.422D-02-0.954D-02 0.453D-01
 Coeff-Com:  0.818D-01-0.185D+00-0.116D+01 0.223D+01
 Coeff:     -0.205D-03 0.320D-05 0.760D-03-0.422D-02-0.954D-02 0.453D-01
 Coeff:      0.818D-01-0.185D+00-0.116D+01 0.223D+01
 Gap=     0.365 Goal=   None    Shift=    0.500
 RMSDP=9.96D-07 MaxDP=2.13D-05 DE=-1.11D-07 OVMax= 5.90D-05

 SCF Done:  E(RLC-wHPBE) =  -517.485412208     A.U. after   10 cycles
            NFock= 10  Conv=0.10D-05     -V/T= 2.0050
 KE= 5.149124856866D+02 PE=-2.668560067129D+03 EE= 8.953991875218D+02
 Leave Link  502 at Mon Jan 25 21:46:00 2021, MaxMem=  4026531840 cpu:             971.1 elap:             121.7
 (Enter /opt/ohpc/pub/libs/gaussian/g16-A.03/sandybridge/g16/l508.exe)
 QCSCF skips out because SCF is already converged.
 Leave Link  508 at Mon Jan 25 21:46:00 2021, MaxMem=  4026531840 cpu:               0.1 elap:               0.0
 (Enter /opt/ohpc/pub/libs/gaussian/g16-A.03/sandybridge/g16/l601.exe)
 Copying SCF densities to generalized density rwf, IOpCl= 0 IROHF=0.

 **********************************************************************

            Population analysis using the SCF density.

 **********************************************************************

 Orbital symmetries:
       Occupied  (A) (A) (A) (A) (A) (A) (A) (A) (A) (A) (A) (A)
                 (A) (A) (A) (A) (A) (A) (A) (A) (A) (A) (A) (A)
                 (A) (A) (A) (A) (A) (A) (A) (A) (A) (A) (A) (A)
                 (A) (A) (A) (A) (A) (A) (A) (A) (A) (A)
       Virtual   (A) (A) (A) (A) (A) (A) (A) (A) (A) (A) (A) (A)
                 (A) (A) (A) (A) (A) (A) (A) (A) (A) (A) (A) (A)
                 (A) (A) (A) (A) (A) (A) (A) (A) (A) (A) (A) (A)
                 (A) (A) (A) (A) (A) (A) (A) (A) (A) (A) (A) (A)
                 (A) (A) (A) (A) (A) (A) (A) (A) (A) (A) (A) (A)
                 (A) (A) (A) (A) (A) (A) (A) (A) (A) (A) (A) (A)
                 (A) (A) (A) (A) (A) (A) (A) (A) (A) (A) (A) (A)
                 (A) (A) (A) (A) (A) (A) (A) (A) (A) (A) (A) (A)
                 (A) (A) (A) (A) (A) (A) (A) (A) (A) (A) (A) (A)
                 (A) (A) (A) (A) (A) (A) (A) (A) (A) (A) (A) (A)
                 (A) (A) (A) (A) (A) (A) (A) (A) (A) (A) (A) (A)
                 (A) (A) (A) (A) (A) (A) (A) (A) (A) (A) (A) (A)
                 (A) (A) (A) (A) (A) (A) (A) (A) (A) (A) (A) (A)
                 (A) (A) (A) (A) (A) (A) (A) (A) (A) (A) (A) (A)
                 (A) (A) (A) (A) (A) (A) (A) (A) (A) (A) (A) (A)
                 (A) (A) (A) (A) (A) (A) (A) (A) (A) (A) (A) (A)
                 (A) (A) (A) (A) (A) (A) (A) (A) (A) (A) (A) (A)
                 (A) (A) (A) (A) (A) (A) (A) (A) (A) (A) (A) (A)
                 (A) (A) (A) (A) (A) (A) (A) (A) (A) (A) (A) (A)
                 (A) (A) (A) (A) (A) (A) (A) (A) (A) (A) (A) (A)
                 (A) (A) (A) (A) (A) (A) (A) (A) (A) (A) (A) (A)
                 (A) (A) (A) (A) (A) (A) (A) (A) (A) (A) (A) (A)
                 (A) (A) (A) (A) (A) (A) (A) (A) (A) (A) (A) (A)
                 (A) (A) (A) (A) (A) (A) (A) (A) (A) (A) (A) (A)
                 (A) (A)
 The electronic state is 1-A.
 Alpha  occ. eigenvalues --  -14.31235 -14.31235 -14.31233 -10.24570 -10.24506
 Alpha  occ. eigenvalues --  -10.24505 -10.18811 -10.18811 -10.18810 -10.18808
 Alpha  occ. eigenvalues --  -10.18808 -10.18807  -1.20743  -1.16917  -1.16916
 Alpha  occ. eigenvalues --   -1.11233  -0.94425  -0.94425  -0.93593  -0.92274
 Alpha  occ. eigenvalues --   -0.92274  -0.90388  -0.76663  -0.76663  -0.75908
 Alpha  occ. eigenvalues --   -0.71841  -0.71426  -0.71426  -0.68808  -0.68808
 Alpha  occ. eigenvalues --   -0.68719  -0.63088  -0.63088  -0.62921  -0.62878
 Alpha  occ. eigenvalues --   -0.61734  -0.61732  -0.61487  -0.60341  -0.60340
 Alpha  occ. eigenvalues --   -0.58831  -0.58636  -0.58634  -0.50405  -0.50404
 Alpha  occ. eigenvalues --   -0.40624
 Alpha virt. eigenvalues --   -0.04107  -0.04104  -0.04034  -0.00499  -0.00498
 Alpha virt. eigenvalues --    0.00884   0.02318   0.02319   0.02357   0.05019
 Alpha virt. eigenvalues --    0.05102   0.05102   0.05214   0.05215   0.05468
 Alpha virt. eigenvalues --    0.06502   0.06588   0.06690   0.06692   0.07937
 Alpha virt. eigenvalues --    0.07945   0.08863   0.08869   0.09779   0.12117
 Alpha virt. eigenvalues --    0.12302   0.12309   0.14295   0.14868   0.14871
 Alpha virt. eigenvalues --    0.15857   0.15867   0.18423   0.18995   0.19000
 Alpha virt. eigenvalues --    0.20325   0.21154   0.22380   0.22385   0.25097
 Alpha virt. eigenvalues --    0.25107   0.25440   0.25451   0.26743   0.26747
 Alpha virt. eigenvalues --    0.28647   0.28655   0.29313   0.31540   0.31544
 Alpha virt. eigenvalues --    0.32865   0.33603   0.34454   0.34465   0.36423
 Alpha virt. eigenvalues --    0.37109   0.37117   0.37493   0.38336   0.38338
 Alpha virt. eigenvalues --    0.38805   0.39965   0.39969   0.40339   0.41962
 Alpha virt. eigenvalues --    0.41965   0.42078   0.42670   0.42675   0.44356
 Alpha virt. eigenvalues --    0.44365   0.45976   0.46138   0.46993   0.47520
 Alpha virt. eigenvalues --    0.47529   0.48533   0.48893   0.48896   0.51640
 Alpha virt. eigenvalues --    0.51641   0.56159   0.56161   0.59127   0.59137
 Alpha virt. eigenvalues --    0.59458   0.59466   0.59733   0.61207   0.63836
 Alpha virt. eigenvalues --    0.66781   0.66967   0.66970   0.73930   0.73941
 Alpha virt. eigenvalues --    0.78275   0.78280   0.78435   1.06719   1.06725
 Alpha virt. eigenvalues --    1.06793   1.11269   1.16458   1.16661   1.16675
 Alpha virt. eigenvalues --    1.17530   1.18306   1.21162   1.21167   1.23171
 Alpha virt. eigenvalues --    1.23173   1.25846   1.26230   1.26232   1.26882
 Alpha virt. eigenvalues --    1.27536   1.28353   1.28358   1.30028   1.30031
 Alpha virt. eigenvalues --    1.30797   1.32138   1.32150   1.36886   1.36897
 Alpha virt. eigenvalues --    1.36908   1.38006   1.38588   1.38593   1.38851
 Alpha virt. eigenvalues --    1.40691   1.40705   1.43185   1.43190   1.45608
 Alpha virt. eigenvalues --    1.47390   1.48282   1.48931   1.48939   1.49860
 Alpha virt. eigenvalues --    1.49864   1.50870   1.50875   1.53734   1.56272
 Alpha virt. eigenvalues --    1.56745   1.56757   1.58514   1.58600   1.58604
 Alpha virt. eigenvalues --    1.61472   1.61476   1.63622   1.64321   1.64324
 Alpha virt. eigenvalues --    1.66322   1.68455   1.68459   1.69378   1.70834
 Alpha virt. eigenvalues --    1.70836   1.71062   1.71277   1.71527   1.71534
 Alpha virt. eigenvalues --    1.72051   1.72059   1.72269   1.73730   1.73735
 Alpha virt. eigenvalues --    1.74953   1.75015   1.75025   1.75531   1.80054
 Alpha virt. eigenvalues --    1.80058   1.80729   1.80738   1.82486   1.92651
 Alpha virt. eigenvalues --    1.94852   1.94869   2.01225   2.01400   2.01409
 Alpha virt. eigenvalues --    2.03334   2.05498   2.05503   2.06160   2.08650
 Alpha virt. eigenvalues --    2.08660   2.14110   2.14119   2.15549   2.20333
 Alpha virt. eigenvalues --    2.20486   2.21368   2.21376   2.22426   2.22432
 Alpha virt. eigenvalues --    2.22647   2.24131   2.26171   2.26189   2.27719
 Alpha virt. eigenvalues --    2.27726   2.28188   2.30556   2.31734   2.31742
 Alpha virt. eigenvalues --    2.35851   2.37343   2.37356   2.44802   2.44813
 Alpha virt. eigenvalues --    2.45085   2.45218   2.45224   2.48173   2.48183
 Alpha virt. eigenvalues --    2.48240   2.49593   2.50428   2.50458   2.52766
 Alpha virt. eigenvalues --    2.53305   2.53323   2.53923   2.56451   2.59596
 Alpha virt. eigenvalues --    2.59612   2.59834   2.63135   2.63141   2.64869
 Alpha virt. eigenvalues --    2.67832   2.67841   2.69517   2.70165   2.70187
 Alpha virt. eigenvalues --    2.74932   2.74937   2.77042   2.77977   2.80518
 Alpha virt. eigenvalues --    2.80521   2.88292   2.88294   3.01074   3.01700
 Alpha virt. eigenvalues --    3.01729   3.02315   3.03581   3.03590   3.09725
 Alpha virt. eigenvalues --    3.13966   3.13970   3.20966   3.20978   3.22718
 Alpha virt. eigenvalues --    3.22948   3.22953   3.24170   3.25600   3.25614
 Alpha virt. eigenvalues --    3.26527   3.31273   3.31292   3.32792   3.37294
 Alpha virt. eigenvalues --    3.37301   3.40478   3.45811   3.64125   3.64138
 Alpha virt. eigenvalues --    3.74758   3.89816   3.89824  21.39022  21.67580
 Alpha virt. eigenvalues --   21.69498  21.69505  21.85351  21.85354  21.89560
 Alpha virt. eigenvalues --   22.12379  22.12393  31.52665  31.71848  31.71853
          Condensed to atoms (all electrons):
               1          2          3          4          5          6
     1  C    5.767868   0.093622   0.508841  -0.104779  -0.059204  -0.005689
     2  C    0.093622   5.768417  -0.104719   0.508922  -0.001664  -0.003476
     3  N    0.508841  -0.104719   6.494512  -0.001699   0.215158  -0.039829
     4  N   -0.104779   0.508922  -0.001699   6.494468  -0.000673  -0.000010
     5  C   -0.059204  -0.001664   0.215158  -0.000673   4.935241   0.419548
     6  H   -0.005689  -0.003476  -0.039829  -0.000010   0.419548   0.506153
     7  H   -0.015648   0.007498  -0.029367   0.000014   0.406352  -0.024765
     8  H    0.008633   0.001027  -0.039727   0.000005   0.404928  -0.026921
     9  C   -0.059292  -0.004828   0.215100  -0.001123  -0.047379  -0.008081
    10  H    0.008668  -0.003096  -0.039678  -0.000027   0.000389   0.003812
    11  H   -0.005729   0.007015  -0.039862   0.000057  -0.008060  -0.000590
    12  H   -0.015644   0.000131  -0.029336  -0.001741   0.008297  -0.000067
    13  C   -0.001695  -0.059233  -0.000674   0.215176   0.000002  -0.000003
    14  H   -0.003478  -0.005710  -0.000010  -0.039856  -0.000003  -0.000000
    15  H    0.007487  -0.015628   0.000014  -0.029343   0.000002  -0.000000
    16  H    0.001028   0.008662   0.000005  -0.039705   0.000001   0.000000
    17  C   -0.004913  -0.059234  -0.001127   0.215151   0.000005  -0.000001
    18  H   -0.003107   0.008631  -0.000027  -0.039734  -0.000002  -0.000000
    19  H    0.007005  -0.005678   0.000057  -0.039835   0.000012   0.000001
    20  H    0.000164  -0.015646  -0.001753  -0.029364  -0.000078   0.000002
    21  C    0.094558   0.093481  -0.104702  -0.104755  -0.004961   0.007007
    22  N   -0.104766  -0.104702  -0.001703  -0.001699  -0.001123   0.000057
    23  C   -0.004985  -0.001603  -0.001126  -0.000673   0.001434  -0.000543
    24  H    0.007003  -0.003479   0.000056  -0.000010  -0.000540  -0.000047
    25  H    0.000151   0.007551  -0.001746   0.000014  -0.000461  -0.000522
    26  H   -0.003111   0.001026  -0.000027   0.000005   0.000083   0.000032
    27  C   -0.001733  -0.004803  -0.000674  -0.001124   0.000005   0.000012
    28  H    0.001032  -0.003101   0.000005  -0.000027  -0.000002  -0.000001
    29  H   -0.003478   0.007008  -0.000010   0.000057  -0.000001   0.000001
    30  H    0.007477   0.000117   0.000014  -0.001748   0.000009   0.000000
               7          8          9         10         11         12
     1  C   -0.015648   0.008633  -0.059292   0.008668  -0.005729  -0.015644
     2  C    0.007498   0.001027  -0.004828  -0.003096   0.007015   0.000131
     3  N   -0.029367  -0.039727   0.215100  -0.039678  -0.039862  -0.029336
     4  N    0.000014   0.000005  -0.001123  -0.000027   0.000057  -0.001741
     5  C    0.406352   0.404928  -0.047379   0.000389  -0.008060   0.008297
     6  H   -0.024765  -0.026921  -0.008081   0.003812  -0.000590  -0.000067
     7  H    0.523657  -0.019929   0.008300   0.000296  -0.000070  -0.000482
     8  H   -0.019929   0.506923   0.000406  -0.003272   0.003813   0.000294
     9  C    0.008300   0.000406   4.935485   0.404838   0.419588   0.406413
    10  H    0.000296  -0.003272   0.404838   0.506878  -0.026897  -0.019896
    11  H   -0.000070   0.003813   0.419588  -0.026897   0.506168  -0.024802
    12  H   -0.000482   0.000294   0.406413  -0.019896  -0.024802   0.523495
    13  C    0.000002   0.000001   0.000007  -0.000002   0.000012  -0.000078
    14  H   -0.000000   0.000000  -0.000001  -0.000000   0.000001   0.000002
    15  H   -0.000001   0.000000   0.000009  -0.000000   0.000000   0.000014
    16  H    0.000000  -0.000000  -0.000002   0.000000  -0.000001   0.000004
    17  C    0.000009  -0.000002   0.001493   0.000083  -0.000553  -0.000450
    18  H   -0.000000   0.000000   0.000083  -0.000005   0.000032   0.000325
    19  H    0.000000  -0.000001  -0.000549   0.000032  -0.000047  -0.000518
    20  H    0.000014   0.000004  -0.000434   0.000325  -0.000522  -0.003312
    21  C    0.000147  -0.003102  -0.001754   0.001028  -0.003476   0.007449
    22  N   -0.001736  -0.000027  -0.000673   0.000005  -0.000010   0.000013
    23  C   -0.000476   0.000083   0.000004  -0.000002  -0.000001   0.000009
    24  H   -0.000519   0.000032   0.000012  -0.000001   0.000001   0.000000
    25  H   -0.003280   0.000325  -0.000077   0.000004   0.000002   0.000014
    26  H    0.000325  -0.000005  -0.000002   0.000000  -0.000000  -0.000000
    27  C   -0.000077  -0.000002   0.000002   0.000001  -0.000003   0.000002
    28  H    0.000004   0.000000   0.000001  -0.000000   0.000000   0.000000
    29  H    0.000002  -0.000000  -0.000003   0.000000  -0.000000  -0.000000
    30  H    0.000014  -0.000000   0.000002   0.000000  -0.000000  -0.000001
              13         14         15         16         17         18
     1  C   -0.001695  -0.003478   0.007487   0.001028  -0.004913  -0.003107
     2  C   -0.059233  -0.005710  -0.015628   0.008662  -0.059234   0.008631
     3  N   -0.000674  -0.000010   0.000014   0.000005  -0.001127  -0.000027
     4  N    0.215176  -0.039856  -0.029343  -0.039705   0.215151  -0.039734
     5  C    0.000002  -0.000003   0.000002   0.000001   0.000005  -0.000002
     6  H   -0.000003  -0.000000  -0.000000   0.000000  -0.000001  -0.000000
     7  H    0.000002  -0.000000  -0.000001   0.000000   0.000009  -0.000000
     8  H    0.000001   0.000000   0.000000  -0.000000  -0.000002   0.000000
     9  C    0.000007  -0.000001   0.000009  -0.000002   0.001493   0.000083
    10  H   -0.000002  -0.000000  -0.000000   0.000000   0.000083  -0.000005
    11  H    0.000012   0.000001   0.000000  -0.000001  -0.000553   0.000032
    12  H   -0.000078   0.000002   0.000014   0.000004  -0.000450   0.000325
    13  C    4.935304   0.419598   0.406359   0.404861  -0.047443   0.000410
    14  H    0.419598   0.506176  -0.024774  -0.026924  -0.008076   0.003823
    15  H    0.406359  -0.024774   0.523560  -0.019907   0.008307   0.000294
    16  H    0.404861  -0.026924  -0.019907   0.506951   0.000390  -0.003271
    17  C   -0.047443  -0.008076   0.008307   0.000390   4.935261   0.404922
    18  H    0.000410   0.003823   0.000294  -0.003271   0.404922   0.506989
    19  H   -0.008078  -0.000592  -0.000069   0.003821   0.419538  -0.026935
    20  H    0.008301  -0.000069  -0.000482   0.000295   0.406345  -0.019921
    21  C   -0.004911   0.007005   0.000114  -0.003095  -0.001679   0.001027
    22  N   -0.001126   0.000057  -0.001749  -0.000027  -0.000673   0.000005
    23  C    0.000005   0.000012  -0.000078  -0.000002   0.000002   0.000001
    24  H   -0.000001   0.000001   0.000002  -0.000000  -0.000003   0.000000
    25  H    0.000009   0.000000   0.000014  -0.000000   0.000002   0.000000
    26  H   -0.000002  -0.000001   0.000004   0.000000   0.000001  -0.000000
    27  C    0.001483  -0.000550  -0.000445   0.000083   0.000006  -0.000002
    28  H    0.000083   0.000032   0.000325  -0.000005  -0.000002   0.000000
    29  H   -0.000550  -0.000047  -0.000520   0.000032   0.000012  -0.000001
    30  H   -0.000446  -0.000520  -0.003303   0.000325  -0.000078   0.000004
              19         20         21         22         23         24
     1  C    0.007005   0.000164   0.094558  -0.104766  -0.004985   0.007003
     2  C   -0.005678  -0.015646   0.093481  -0.104702  -0.001603  -0.003479
     3  N    0.000057  -0.001753  -0.104702  -0.001703  -0.001126   0.000056
     4  N   -0.039835  -0.029364  -0.104755  -0.001699  -0.000673  -0.000010
     5  C    0.000012  -0.000078  -0.004961  -0.001123   0.001434  -0.000540
     6  H    0.000001   0.000002   0.007007   0.000057  -0.000543  -0.000047
     7  H    0.000000   0.000014   0.000147  -0.001736  -0.000476  -0.000519
     8  H   -0.000001   0.000004  -0.003102  -0.000027   0.000083   0.000032
     9  C   -0.000549  -0.000434  -0.001754  -0.000673   0.000004   0.000012
    10  H    0.000032   0.000325   0.001028   0.000005  -0.000002  -0.000001
    11  H   -0.000047  -0.000522  -0.003476  -0.000010  -0.000001   0.000001
    12  H   -0.000518  -0.003312   0.007449   0.000013   0.000009   0.000000
    13  C   -0.008078   0.008301  -0.004911  -0.001126   0.000005  -0.000001
    14  H   -0.000592  -0.000069   0.007005   0.000057   0.000012   0.000001
    15  H   -0.000069  -0.000482   0.000114  -0.001749  -0.000078   0.000002
    16  H    0.003821   0.000295  -0.003095  -0.000027  -0.000002  -0.000000
    17  C    0.419538   0.406345  -0.001679  -0.000673   0.000002  -0.000003
    18  H   -0.026935  -0.019921   0.001027   0.000005   0.000001   0.000000
    19  H    0.506168  -0.024753  -0.003469  -0.000010  -0.000003  -0.000000
    20  H   -0.024753   0.523579   0.007489   0.000014   0.000002  -0.000000
    21  C   -0.003469   0.007489   5.767867   0.508916  -0.059171  -0.005657
    22  N   -0.000010   0.000014   0.508916   6.494354   0.215237  -0.039823
    23  C   -0.000003   0.000002  -0.059171   0.215237   4.935020   0.419541
    24  H   -0.000000  -0.000000  -0.005657  -0.039823   0.419541   0.506179
    25  H   -0.000000  -0.000001  -0.015634  -0.029385   0.406268  -0.024719
    26  H    0.000000   0.000000   0.008611  -0.039757   0.404970  -0.026967
    27  C   -0.000001   0.000009  -0.059309   0.215161  -0.047500  -0.008103
    28  H   -0.000000  -0.000000   0.008671  -0.039711   0.000389   0.003831
    29  H    0.000001   0.000000  -0.005716  -0.039841  -0.008062  -0.000593
    30  H    0.000002   0.000014  -0.015637  -0.029329   0.008307  -0.000068
              25         26         27         28         29         30
     1  C    0.000151  -0.003111  -0.001733   0.001032  -0.003478   0.007477
     2  C    0.007551   0.001026  -0.004803  -0.003101   0.007008   0.000117
     3  N   -0.001746  -0.000027  -0.000674   0.000005  -0.000010   0.000014
     4  N    0.000014   0.000005  -0.001124  -0.000027   0.000057  -0.001748
     5  C   -0.000461   0.000083   0.000005  -0.000002  -0.000001   0.000009
     6  H   -0.000522   0.000032   0.000012  -0.000001   0.000001   0.000000
     7  H   -0.003280   0.000325  -0.000077   0.000004   0.000002   0.000014
     8  H    0.000325  -0.000005  -0.000002   0.000000  -0.000000  -0.000000
     9  C   -0.000077  -0.000002   0.000002   0.000001  -0.000003   0.000002
    10  H    0.000004   0.000000   0.000001  -0.000000   0.000000   0.000000
    11  H    0.000002  -0.000000  -0.000003   0.000000  -0.000000  -0.000000
    12  H    0.000014  -0.000000   0.000002   0.000000  -0.000000  -0.000001
    13  C    0.000009  -0.000002   0.001483   0.000083  -0.000550  -0.000446
    14  H    0.000000  -0.000001  -0.000550   0.000032  -0.000047  -0.000520
    15  H    0.000014   0.000004  -0.000445   0.000325  -0.000520  -0.003303
    16  H   -0.000000   0.000000   0.000083  -0.000005   0.000032   0.000325
    17  C    0.000002   0.000001   0.000006  -0.000002   0.000012  -0.000078
    18  H    0.000000  -0.000000  -0.000002   0.000000  -0.000001   0.000004
    19  H   -0.000000   0.000000  -0.000001  -0.000000   0.000001   0.000002
    20  H   -0.000001   0.000000   0.000009  -0.000000   0.000000   0.000014
    21  C   -0.015634   0.008611  -0.059309   0.008671  -0.005716  -0.015637
    22  N   -0.029385  -0.039757   0.215161  -0.039711  -0.039841  -0.029329
    23  C    0.406268   0.404970  -0.047500   0.000389  -0.008062   0.008307
    24  H   -0.024719  -0.026967  -0.008103   0.003831  -0.000593  -0.000068
    25  H    0.523705  -0.019942   0.008314   0.000297  -0.000072  -0.000482
    26  H   -0.019942   0.507042   0.000414  -0.003271   0.003829   0.000292
    27  C    0.008314   0.000414   4.935358   0.404850   0.419583   0.406363
    28  H    0.000297  -0.003271   0.404850   0.506983  -0.026922  -0.019906
    29  H   -0.000072   0.003829   0.419583  -0.026922   0.506172  -0.024778
    30  H   -0.000482   0.000292   0.406363  -0.019906  -0.024778   0.523549
 Mulliken charges:
               1
     1  C   -0.116288
     2  C   -0.116510
     3  N    0.004035
     4  N    0.004055
     5  C   -0.267315
     6  H    0.173920
     7  H    0.149714
     8  H    0.166514
     9  C   -0.267544
    10  H    0.166517
    11  H    0.173932
    12  H    0.149865
    13  C   -0.267371
    14  H    0.173903
    15  H    0.149794
    16  H    0.166482
    17  C   -0.267292
    18  H    0.166460
    19  H    0.173901
    20  H    0.149776
    21  C   -0.116344
    22  N    0.004051
    23  C   -0.267058
    24  H    0.173870
    25  H    0.149652
    26  H    0.166450
    27  C   -0.267319
    28  H    0.166447
    29  H    0.173896
    30  H    0.149808
 Sum of Mulliken charges =   1.00000
 Mulliken charges with hydrogens summed into heavy atoms:
               1
     1  C   -0.116288
     2  C   -0.116510
     3  N    0.004035
     4  N    0.004055
     5  C    0.222833
     9  C    0.222770
    13  C    0.222808
    17  C    0.222844
    21  C   -0.116344
    22  N    0.004051
    23  C    0.222914
    27  C    0.222833
 Electronic spatial extent (au):  <R**2>=           2594.5567
 Charge=              1.0000 electrons
 Dipole moment (field-independent basis, Debye):
    X=             -0.0004    Y=             -0.0003    Z=              0.0007  Tot=              0.0008
 Quadrupole moment (field-independent basis, Debye-Ang):
   XX=            -44.2042   YY=            -44.2081   ZZ=            -71.9204
   XY=              0.0015   XZ=              0.0002   YZ=              0.0002
 Traceless Quadrupole moment (field-independent basis, Debye-Ang):
   XX=              9.2400   YY=              9.2362   ZZ=            -18.4762
   XY=              0.0015   XZ=              0.0002   YZ=              0.0002
 Octapole moment (field-independent basis, Debye-Ang**2):
  XXX=              8.3578  YYY=             14.6807  ZZZ=              0.0014  XYY=             -8.3697
  XXY=            -14.6991  XXZ=              0.0011  XZZ=              0.0026  YZZ=              0.0044
  YYZ=              0.0016  XYZ=             -0.0001
 Hexadecapole moment (field-independent basis, Debye-Ang**3):
 XXXX=          -1391.6187 YYYY=          -1391.3607 ZZZZ=           -133.1209 XXXY=              0.0135
 XXXZ=              4.6048 YYYX=              0.0195 YYYZ=             -2.6042 ZZZX=             -0.0154
 ZZZY=              0.0023 XXYY=           -463.8082 XXZZ=           -277.0760 YYZZ=           -277.0509
 XXYZ=              2.5928 YYXZ=             -4.5503 ZZXY=             -0.0091
 N-N= 7.407629817128D+02 E-N=-2.668559751733D+03  KE= 5.149124856866D+02
 No NMR shielding tensors so no spin-rotation constants.
 Leave Link  601 at Mon Jan 25 21:46:01 2021, MaxMem=  4026531840 cpu:               1.6 elap:               0.2
 (Enter /opt/ohpc/pub/libs/gaussian/g16-A.03/sandybridge/g16/l9999.exe)

 Test job not archived.
 1\1\GINC-CNODE237\SP\RLC-wHPBE\TZVP\C9H18N3(1+)\RDU230\25-Jan-2021\0\\
 #P LC-wHPBE/TZVP iop(3/107=0249300000, 3/108=0249300000) scf=(conver=6
 ,fermi,ndamp=35,noincfock,novaracc,vshift=500,xqc)\\H18 C9 N3\\1,1\C,0
 ,-0.610862,0.51088,0.000115\C,0,-0.136805,-0.784324,0.000118\N,0,-1.62
 5284,1.358829,0.000149\N,0,-0.364248,-2.086765,0.000256\C,0,-1.430247,
 2.779535,-0.245115\H,0,-1.514482,3.356239,0.681778\H,0,-0.453085,2.953
 583,-0.69457\H,0,-2.189123,3.132424,-0.948067\C,0,-2.988895,0.914734,0
 .244915\H,0,-3.47163,1.599951,0.946347\H,0,-3.570653,0.893667,-0.68241
 9\H,0,-2.986873,-0.077069,0.695991\C,0,0.701968,-3.045906,0.244739\H,0
 ,1.009895,-3.54009,-0.68252\H,0,1.56061,-2.548225,0.694397\H,0,0.35036
 1,-3.805818,0.947208\C,0,-1.692259,-2.627901,-0.244928\H,0,-1.618712,-
 3.461412,-0.948079\H,0,-2.149477,-2.989362,0.681963\H,0,-2.331523,-1.8
 6843,-0.69401\C,0,0.747831,0.27381,0.000062\N,0,1.989493,0.728067,-0.0
 00089\C,0,2.287295,2.130832,0.245062\H,0,2.563599,2.644356,-0.681638\H
 ,0,1.426241,2.626112,0.692731\H,0,3.119706,2.205914,0.949371\C,0,3.122
 069,-0.151615,-0.24503\H,0,3.807758,0.3292,-0.947323\H,0,3.663007,-0.3
 67678,0.682084\H,0,2.784087,-1.084552,-0.695089\\Version=EM64L-G16RevA
 .03\State=1-A\HF=-517.4854122\RMSD=9.960e-07\Dipole=-0.000155,0.000102
 8,-0.0002627\Quadrupole=6.869723,6.8668667,-13.7365897,-0.0011079,-0.0
 001266,0.0001775\PG=C01 [X(C9H18N3)]\\@


 THE WORLD IS MADE UP OF THE WILLS, THE WON'TS, AND THE CANT'S:
 THE WILLS DO EVERYTHING,
 THE WON'TS DO NOTHING,
 THE CAN'TS CAN'T DO ANYTHING.

                               -- FROM WALT DISNEY'S "BLACK HOLE"
 Job cpu time:       0 days  0 hours 16 minutes 45.1 seconds.
 Elapsed time:       0 days  0 hours  2 minutes  6.5 seconds.
 File lengths (MBytes):  RWF=     92 Int=      0 D2E=      0 Chk=     12 Scr=      8
 Normal termination of Gaussian 16 at Mon Jan 25 21:46:01 2021.
