 Entering Gaussian System, Link 0=g16
 Input=mol_NN_cp_frag_tune_c7.gjf
 Output=mol_NN_cp_frag_tune_c7.log
 Initial command:
 /opt/ohpc/pub/libs/gaussian/g16-A.03/sandybridge/g16/l1.exe "/mnt/gpfs2_4m/scratch/rdu230/ondemand/projects/init_structures/gaussian/wtuning/mol_NN_cp_frag/tuning_mol_NN_cp_frag_ocycle0/Gau-17575.inp" -scrdir="/mnt/gpfs2_4m/scratch/rdu230/ondemand/projects/init_structures/gaussian/wtuning/mol_NN_cp_frag/tuning_mol_NN_cp_frag_ocycle0/"
 Entering Link 1 = /opt/ohpc/pub/libs/gaussian/g16-A.03/sandybridge/g16/l1.exe PID=     17576.
  
 Copyright (c) 1988,1990,1992,1993,1995,1998,2003,2009,2016,
            Gaussian, Inc.  All Rights Reserved.
  
 This is part of the Gaussian(R) 16 program.  It is based on
 the Gaussian(R) 09 system (copyright 2009, Gaussian, Inc.),
 the Gaussian(R) 03 system (copyright 2003, Gaussian, Inc.),
 the Gaussian(R) 98 system (copyright 1998, Gaussian, Inc.),
 the Gaussian(R) 94 system (copyright 1995, Gaussian, Inc.),
 the Gaussian 92(TM) system (copyright 1992, Gaussian, Inc.),
 the Gaussian 90(TM) system (copyright 1990, Gaussian, Inc.),
 the Gaussian 88(TM) system (copyright 1988, Gaussian, Inc.),
 the Gaussian 86(TM) system (copyright 1986, Carnegie Mellon
 University), and the Gaussian 82(TM) system (copyright 1983,
 Carnegie Mellon University). Gaussian is a federally registered
 trademark of Gaussian, Inc.
  
 This software contains proprietary and confidential information,
 including trade secrets, belonging to Gaussian, Inc.
  
 This software is provided under written license and may be
 used, copied, transmitted, or stored only in accord with that
 written license.
  
 The following legend is applicable only to US Government
 contracts under FAR:
  
                    RESTRICTED RIGHTS LEGEND
  
 Use, reproduction and disclosure by the US Government is
 subject to restrictions as set forth in subparagraphs (a)
 and (c) of the Commercial Computer Software - Restricted
 Rights clause in FAR 52.227-19.
  
 Gaussian, Inc.
 340 Quinnipiac St., Bldg. 40, Wallingford CT 06492
  
  
 ---------------------------------------------------------------
 Warning -- This program may not be used in any manner that
 competes with the business of Gaussian, Inc. or will provide
 assistance to any competitor of Gaussian, Inc.  The licensee
 of this program is prohibited from giving any competitor of
 Gaussian, Inc. access to this program.  By using this program,
 the user acknowledges that Gaussian, Inc. is engaged in the
 business of creating and licensing software in the field of
 computational chemistry and represents and warrants to the
 licensee that it is not a competitor of Gaussian, Inc. and that
 it will not use this program in any manner prohibited above.
 ---------------------------------------------------------------
  

 Cite this work as:
 Gaussian 16, Revision A.03,
 M. J. Frisch, G. W. Trucks, H. B. Schlegel, G. E. Scuseria, 
 M. A. Robb, J. R. Cheeseman, G. Scalmani, V. Barone, 
 G. A. Petersson, H. Nakatsuji, X. Li, M. Caricato, A. V. Marenich, 
 J. Bloino, B. G. Janesko, R. Gomperts, B. Mennucci, H. P. Hratchian, 
 J. V. Ortiz, A. F. Izmaylov, J. L. Sonnenberg, D. Williams-Young, 
 F. Ding, F. Lipparini, F. Egidi, J. Goings, B. Peng, A. Petrone, 
 T. Henderson, D. Ranasinghe, V. G. Zakrzewski, J. Gao, N. Rega, 
 G. Zheng, W. Liang, M. Hada, M. Ehara, K. Toyota, R. Fukuda, 
 J. Hasegawa, M. Ishida, T. Nakajima, Y. Honda, O. Kitao, H. Nakai, 
 T. Vreven, K. Throssell, J. A. Montgomery, Jr., J. E. Peralta, 
 F. Ogliaro, M. J. Bearpark, J. J. Heyd, E. N. Brothers, K. N. Kudin, 
 V. N. Staroverov, T. A. Keith, R. Kobayashi, J. Normand, 
 K. Raghavachari, A. P. Rendell, J. C. Burant, S. S. Iyengar, 
 J. Tomasi, M. Cossi, J. M. Millam, M. Klene, C. Adamo, R. Cammi, 
 J. W. Ochterski, R. L. Martin, K. Morokuma, O. Farkas, 
 J. B. Foresman, and D. J. Fox, Gaussian, Inc., Wallingford CT, 2016.
 
 ******************************************
 Gaussian 16:  EM64L-G16RevA.03 25-Dec-2016
                25-Jan-2021 
 ******************************************
 %mem=30GB
 %nproc=8
 Will use up to    8 processors via shared memory.
 ----------------------------------------------------------------------
 #P LC-wHPBE/TZVP iop(3/107=0247300000, 3/108=0247300000) scf=(conver=6
 ,fermi,ndamp=35,noincfock,novaracc,vshift=500,xqc)
 ----------------------------------------------------------------------
 1/38=1,172=1/1;
 2/12=2,17=6,18=5,40=1/2;
 3/5=19,7=101,11=2,25=1,30=1,74=-71,107=247300000,108=247300000/1,2,3;
 4//1;
 5/5=100002,6=6,8=3,10=500,13=1,18=-1,22=13,38=1,93=35/2,8;
 6/7=2,8=2,9=2,10=2,28=1/1;
 99/5=1,9=1/99;
 Leave Link    1 at Mon Jan 25 21:40:01 2021, MaxMem=  4026531840 cpu:               1.8 elap:               0.3
 (Enter /opt/ohpc/pub/libs/gaussian/g16-A.03/sandybridge/g16/l101.exe)
 ---------
 H18 C9 N3
 ---------
 Symbolic Z-matrix:
 Charge =  2 Multiplicity = 2
 C                    -0.61086   0.51088   0.00012 
 C                    -0.13681  -0.78432   0.00012 
 N                    -1.62528   1.35883   0.00015 
 N                    -0.36425  -2.08677   0.00026 
 C                    -1.43025   2.77954  -0.24512 
 H                    -1.51448   3.35624   0.68178 
 H                    -0.45309   2.95358  -0.69457 
 H                    -2.18912   3.13242  -0.94807 
 C                    -2.9889    0.91473   0.24492 
 H                    -3.47163   1.59995   0.94635 
 H                    -3.57065   0.89367  -0.68242 
 H                    -2.98687  -0.07707   0.69599 
 C                     0.70197  -3.04591   0.24474 
 H                     1.00989  -3.54009  -0.68252 
 H                     1.56061  -2.54823   0.6944 
 H                     0.35036  -3.80582   0.94721 
 C                    -1.69226  -2.6279   -0.24493 
 H                    -1.61871  -3.46141  -0.94808 
 H                    -2.14948  -2.98936   0.68196 
 H                    -2.33152  -1.86843  -0.69401 
 C                     0.74783   0.27381   0.00006 
 N                     1.98949   0.72807  -0.00009 
 C                     2.2873    2.13083   0.24506 
 H                     2.5636    2.64436  -0.68164 
 H                     1.42624   2.62611   0.69273 
 H                     3.11971   2.20591   0.94937 
 C                     3.12207  -0.15162  -0.24503 
 H                     3.80776   0.3292   -0.94732 
 H                     3.66301  -0.36768   0.68208 
 H                     2.78409  -1.08455  -0.69509 
 
 ITRead=  0  0  0  0  0  0  0  0  0  0  0  0  0  0  0  0  0  0  0  0
 ITRead=  0  0  0  0  0  0  0  0  0  0
 MicOpt= -1 -1 -1 -1 -1 -1 -1 -1 -1 -1 -1 -1 -1 -1 -1 -1 -1 -1 -1 -1
 MicOpt= -1 -1 -1 -1 -1 -1 -1 -1 -1 -1
 NAtoms=     30 NQM=       30 NQMF=       0 NMMI=      0 NMMIF=      0
                NMic=       0 NMicF=      0.
                    Isotopes and Nuclear Properties:
 (Nuclear quadrupole moments (NQMom) in fm**2, nuclear magnetic moments (NMagM)
  in nuclear magnetons)

  Atom         1           2           3           4           5           6           7           8           9          10
 IAtWgt=          12          12          14          14          12           1           1           1          12           1
 AtmWgt=  12.0000000  12.0000000  14.0030740  14.0030740  12.0000000   1.0078250   1.0078250   1.0078250  12.0000000   1.0078250
 NucSpn=           0           0           2           2           0           1           1           1           0           1
 AtZEff=  -0.0000000  -0.0000000  -0.0000000  -0.0000000  -0.0000000  -0.0000000  -0.0000000  -0.0000000  -0.0000000  -0.0000000
 NQMom=    0.0000000   0.0000000   2.0440000   2.0440000   0.0000000   0.0000000   0.0000000   0.0000000   0.0000000   0.0000000
 NMagM=    0.0000000   0.0000000   0.4037610   0.4037610   0.0000000   2.7928460   2.7928460   2.7928460   0.0000000   2.7928460
 AtZNuc=   6.0000000   6.0000000   7.0000000   7.0000000   6.0000000   1.0000000   1.0000000   1.0000000   6.0000000   1.0000000

  Atom        11          12          13          14          15          16          17          18          19          20
 IAtWgt=           1           1          12           1           1           1          12           1           1           1
 AtmWgt=   1.0078250   1.0078250  12.0000000   1.0078250   1.0078250   1.0078250  12.0000000   1.0078250   1.0078250   1.0078250
 NucSpn=           1           1           0           1           1           1           0           1           1           1
 AtZEff=  -0.0000000  -0.0000000  -0.0000000  -0.0000000  -0.0000000  -0.0000000  -0.0000000  -0.0000000  -0.0000000  -0.0000000
 NQMom=    0.0000000   0.0000000   0.0000000   0.0000000   0.0000000   0.0000000   0.0000000   0.0000000   0.0000000   0.0000000
 NMagM=    2.7928460   2.7928460   0.0000000   2.7928460   2.7928460   2.7928460   0.0000000   2.7928460   2.7928460   2.7928460
 AtZNuc=   1.0000000   1.0000000   6.0000000   1.0000000   1.0000000   1.0000000   6.0000000   1.0000000   1.0000000   1.0000000

  Atom        21          22          23          24          25          26          27          28          29          30
 IAtWgt=          12          14          12           1           1           1          12           1           1           1
 AtmWgt=  12.0000000  14.0030740  12.0000000   1.0078250   1.0078250   1.0078250  12.0000000   1.0078250   1.0078250   1.0078250
 NucSpn=           0           2           0           1           1           1           0           1           1           1
 AtZEff=  -0.0000000  -0.0000000  -0.0000000  -0.0000000  -0.0000000  -0.0000000  -0.0000000  -0.0000000  -0.0000000  -0.0000000
 NQMom=    0.0000000   2.0440000   0.0000000   0.0000000   0.0000000   0.0000000   0.0000000   0.0000000   0.0000000   0.0000000
 NMagM=    0.0000000   0.4037610   0.0000000   2.7928460   2.7928460   2.7928460   0.0000000   2.7928460   2.7928460   2.7928460
 AtZNuc=   6.0000000   7.0000000   6.0000000   1.0000000   1.0000000   1.0000000   6.0000000   1.0000000   1.0000000   1.0000000
 Leave Link  101 at Mon Jan 25 21:40:01 2021, MaxMem=  4026531840 cpu:               0.7 elap:               0.1
 (Enter /opt/ohpc/pub/libs/gaussian/g16-A.03/sandybridge/g16/l202.exe)
                          Input orientation:                          
 ---------------------------------------------------------------------
 Center     Atomic      Atomic             Coordinates (Angstroms)
 Number     Number       Type             X           Y           Z
 ---------------------------------------------------------------------
      1          6           0       -0.610862    0.510880    0.000115
      2          6           0       -0.136805   -0.784324    0.000118
      3          7           0       -1.625284    1.358829    0.000149
      4          7           0       -0.364248   -2.086765    0.000256
      5          6           0       -1.430247    2.779535   -0.245115
      6          1           0       -1.514482    3.356239    0.681778
      7          1           0       -0.453085    2.953583   -0.694570
      8          1           0       -2.189123    3.132424   -0.948067
      9          6           0       -2.988895    0.914734    0.244915
     10          1           0       -3.471630    1.599951    0.946347
     11          1           0       -3.570653    0.893667   -0.682419
     12          1           0       -2.986873   -0.077069    0.695991
     13          6           0        0.701968   -3.045906    0.244739
     14          1           0        1.009895   -3.540090   -0.682520
     15          1           0        1.560610   -2.548225    0.694397
     16          1           0        0.350361   -3.805818    0.947208
     17          6           0       -1.692259   -2.627901   -0.244928
     18          1           0       -1.618712   -3.461412   -0.948079
     19          1           0       -2.149477   -2.989362    0.681963
     20          1           0       -2.331523   -1.868430   -0.694010
     21          6           0        0.747831    0.273810    0.000062
     22          7           0        1.989493    0.728067   -0.000089
     23          6           0        2.287295    2.130832    0.245062
     24          1           0        2.563599    2.644356   -0.681638
     25          1           0        1.426241    2.626112    0.692731
     26          1           0        3.119706    2.205914    0.949371
     27          6           0        3.122069   -0.151615   -0.245030
     28          1           0        3.807758    0.329200   -0.947323
     29          1           0        3.663007   -0.367678    0.682084
     30          1           0        2.784087   -1.084552   -0.695089
 ---------------------------------------------------------------------
                    Distance matrix (angstroms):
                    1          2          3          4          5
     1  C    0.000000
     2  C    1.379233   0.000000
     3  N    1.322146   2.609344   0.000000
     4  N    2.609325   1.322151   3.669105   0.000000
     5  C    2.424526   3.799240   1.454854   4.987729   0.000000
     6  H    3.062231   4.416663   2.113419   5.604802   1.094903
     7  H    2.544460   3.815046   2.097600   5.088790   1.089563
     8  H    3.203506   4.522386   2.088700   5.609761   1.092962
     9  C    2.424472   3.328835   1.454842   3.994700   2.479314
    10  H    3.203970   4.207276   2.088642   4.913531   2.641637
    11  H    3.061493   3.882373   2.113465   4.430582   2.886013
    12  H    2.544672   3.017836   2.097600   3.376550   3.386584
    13  C    3.799222   2.424486   4.987747   1.454833   6.222705
    14  H    4.416243   3.061889   5.604428   2.113435   6.788466
    15  H    3.815159   2.544521   5.088907   2.097583   6.181661
    16  H    4.522700   3.203707   5.610140   2.088666   6.925249
    17  C    3.328875   2.424512   3.994817   1.454839   5.413780
    18  H    4.206416   3.203424   4.912627   2.088701   6.283239
    19  H    3.883806   3.062344   4.432428   2.113397   5.887014
    20  H    3.017217   2.544383   3.375771   2.097581   4.755774
    21  C    1.379220   1.379213   2.609395   2.609413   3.329083
    22  N    2.609409   2.609304   3.669397   3.669247   3.995395
    23  C    3.329198   3.799262   3.995528   4.987859   3.805418
    24  H    3.885062   4.417332   4.434428   5.605424   4.019904
    25  H    3.017236   3.814957   3.376016   5.088868   3.010418
    26  H    4.206110   4.521888   4.912586   5.609443   4.738978
    27  C    3.799180   3.328765   4.987877   3.994919   5.414353
    28  H    4.522704   4.206799   5.610328   4.913291   5.825284
    29  H    4.416209   3.882943   5.604631   4.431584   6.058538
    30  H    3.815022   3.017459   5.088813   3.376381   5.735351
                    6          7          8          9         10
     6  H    0.000000
     7  H    1.784105   0.000000
     8  H    1.778097   1.763540   0.000000
     9  C    2.885427   3.386720   2.642156   0.000000
    10  H    2.642910   3.692769   2.753562   1.092960   0.000000
    11  H    3.486134   3.736661   2.644093   1.094913   1.778067
    12  H    3.735738   4.187910   3.693261   1.089563   1.763537
    13  C    6.789044   6.181449   6.924807   5.413792   6.284518
    14  H    7.469481   6.656444   7.404504   6.057715   7.011226
    15  H    6.657255   6.021137   7.001997   5.735165   6.526430
    16  H    7.405616   7.002176   7.627598   5.824728   6.620420
    17  C    6.058079   5.735041   5.824313   3.804139   4.739201
    18  H    7.010539   6.524961   6.618462   4.738279   5.713103
    19  H    6.377293   6.331760   6.335206   4.017163   4.783281
    20  H    5.464203   5.174972   5.009328   3.009937   4.002534
    21  C    3.883834   3.017598   4.206700   3.799192   4.523047
    22  N    4.432840   3.376598   4.913291   4.987907   5.610685
    23  C    4.018190   3.011563   4.739732   5.414524   5.825706
    24  H    4.358489   3.032519   4.785140   5.888997   6.337595
    25  H    3.030026   2.358751   4.002428   4.756341   5.010635
    26  H    4.782317   4.003297   5.713349   6.283185   6.619132
    27  C    5.887412   4.756687   6.283943   6.222622   6.925621
    28  H    6.335864   5.010594   6.619717   6.925227   7.628256
    29  H    6.377613   5.465177   7.011101   6.788483   7.405703
    30  H    6.331989   5.175502   6.525312   6.181268   7.002490
                   11         12         13         14         15
    11  H    0.000000
    12  H    1.784136   0.000000
    13  C    5.885163   4.756592   0.000000
    14  H    6.374921   5.465067   1.094918   0.000000
    15  H    6.330253   5.175540   1.089562   1.784092   0.000000
    16  H    6.333656   5.010370   1.092958   1.778092   1.763563
    17  C    4.015122   3.011328   2.479279   2.885344   3.386715
    18  H    4.779891   4.003574   2.642161   2.643158   3.693200
    19  H    4.354216   3.030327   2.885325   3.485218   3.736242
    20  H    3.027335   2.360204   3.386704   3.736262   4.187899
    21  C    4.415802   3.815160   3.329037   3.883353   3.017713
    22  N    5.604304   5.088909   3.995064   4.431985   3.376439
    23  C    6.058577   5.735417   5.414045   5.886554   4.756422
    24  H    6.379182   6.333384   6.058294   6.376627   5.464646
    25  H    5.464554   5.175208   5.735596   6.331406   5.176082
    26  H    7.010395   6.524302   5.824395   6.334898   5.009753
    27  C    6.787964   6.181444   3.804429   4.016770   3.010717
    28  H    7.404711   7.002324   4.739017   4.782213   4.003060
    29  H    7.468514   6.656242   4.016457   4.354922   3.029028
    30  H    6.655541   6.021138   3.010881   3.029452   2.360065
                   16         17         18         19         20
    16  H    0.000000
    17  C    2.642153   0.000000
    18  H    2.754628   1.092964   0.000000
    19  H    2.643132   1.094911   1.778083   0.000000
    20  H    3.693179   1.089555   1.763588   1.784077   0.000000
    21  C    4.206951   3.799209   4.522320   4.416749   3.814885
    22  N    4.913272   4.987762   5.609774   5.604957   5.088664
    23  C    6.283990   6.222739   6.924859   6.789125   6.181378
    24  H    7.011156   6.789679   7.405614   7.470694   6.657898
    25  H    6.526255   6.181335   7.001567   6.657283   6.020361
    26  H    6.618927   6.924386   7.627025   7.404505   7.001205
    27  C    4.738881   5.413848   5.824435   6.058162   5.735042
    28  H    5.713249   6.283947   6.619314   7.011139   6.525681
    29  H    4.781707   5.886156   6.334444   6.376378   6.330899
    30  H    4.003180   4.756285   5.009801   5.464854   5.175319
                   21         22         23         24         25
    21  C    0.000000
    22  N    1.322147   0.000000
    23  C    2.424563   1.454831   0.000000
    24  H    3.062877   2.113355   1.094908   0.000000
    25  H    2.544279   2.097577   1.089552   1.784042   0.000000
    26  H    3.203124   2.088753   1.092976   1.778110   1.763591
    27  C    2.424472   1.454842   2.479234   2.884436   3.386886
    28  H    3.203710   2.088644   2.641868   2.641679   3.692859
    29  H    3.061848   2.113449   2.885502   3.484363   3.737113
    30  H    2.544547   2.097616   3.386647   3.735445   4.187937
                   26         27         28         29         30
    26  H    0.000000
    27  C    2.642828   0.000000
    28  H    2.755525   1.092963   0.000000
    29  H    2.643860   1.094914   1.778077   0.000000
    30  H    3.693786   1.089567   1.763581   1.784100   0.000000
 Stoichiometry    C9H18N3(2+,2)
 Framework group  C1[X(C9H18N3)]
 Deg. of freedom    84
 Full point group                 C1      NOp   1
 Largest Abelian subgroup         C1      NOp   1
 Largest concise Abelian subgroup C1      NOp   1
                         Standard orientation:                         
 ---------------------------------------------------------------------
 Center     Atomic      Atomic             Coordinates (Angstroms)
 Number     Number       Type             X           Y           Z
 ---------------------------------------------------------------------
      1          6           0       -0.610975   -0.510745   -0.000115
      2          6           0       -0.136632    0.784354   -0.000118
      3          7           0       -1.625585   -1.358470   -0.000149
      4          7           0       -0.363786    2.086845   -0.000256
      5          6           0       -1.430862   -2.779219    0.245115
      6          1           0       -1.515224   -3.355904   -0.681778
      7          1           0       -0.453738   -2.953483    0.694570
      8          1           0       -2.189816   -3.131940    0.948067
      9          6           0       -2.989097   -0.914073   -0.244915
     10          1           0       -3.471984   -1.599183   -0.946347
     11          1           0       -3.570851   -0.892877    0.682419
     12          1           0       -2.986856    0.077730   -0.695991
     13          6           0        0.702642    3.045751   -0.244739
     14          1           0        1.010678    3.539867    0.682520
     15          1           0        1.561174    2.547880   -0.694397
     16          1           0        0.351203    3.805740   -0.947208
     17          6           0       -1.691678    2.628275    0.244928
     18          1           0       -1.617946    3.461770    0.948079
     19          1           0       -2.148816    2.989837   -0.681963
     20          1           0       -2.331110    1.868946    0.694010
     21          6           0        0.747770   -0.273975   -0.000062
     22          7           0        1.989332   -0.728507    0.000089
     23          6           0        2.286824   -2.131338   -0.245062
     24          1           0        2.563014   -2.644923    0.681638
     25          1           0        1.425660   -2.626427   -0.692731
     26          1           0        3.119218   -2.206604   -0.949371
     27          6           0        3.122102    0.150924    0.245030
     28          1           0        3.807685   -0.330042    0.947323
     29          1           0        3.663088    0.366868   -0.682084
     30          1           0        2.784327    1.083936    0.695089
 ---------------------------------------------------------------------
 Rotational constants (GHZ):           0.8639071           0.8637633           0.4436577
 Leave Link  202 at Mon Jan 25 21:40:01 2021, MaxMem=  4026531840 cpu:               0.1 elap:               0.0
 (Enter /opt/ohpc/pub/libs/gaussian/g16-A.03/sandybridge/g16/l301.exe)
 Standard basis: TZVP (5D, 7F)
 Ernie: Thresh=  0.10000D-02 Tol=  0.10000D-05 Strict=F.
 There are   348 symmetry adapted cartesian basis functions of A   symmetry.
 There are   336 symmetry adapted basis functions of A   symmetry.
   336 basis functions,   564 primitive gaussians,   348 cartesian basis functions
    46 alpha electrons       45 beta electrons
       nuclear repulsion energy       740.7629817128 Hartrees.
 IExCor=33909 DFT=T Ex+Corr=LC-wHPBE ExCW=0 ScaHFX=  1.000000
 ScaDFX=  1.000000  1.000000  1.000000  1.000000 ScalE2=  1.000000  1.000000
 IRadAn=      5 IRanWt=     -1 IRanGd=            0 ICorTp=0 IEmpDi=  4
 HFx  wShort=  0.000000 wLong=  0.247300 cFull=  0.000000 cShort=  0.000000 cLong=  1.000000
 DFx  wShort=  0.000000 wLong=  0.247300 cFull=  0.000000 cShort=  1.000000 cLong=  0.000000
 NAtoms=   30 NActive=   30 NUniq=   30 SFac= 1.00D+00 NAtFMM=   60 NAOKFM=F Big=F
 Integral buffers will be    131072 words long.
 Raffenetti 2 integral format.
 Two-electron integral symmetry is turned on.
 Leave Link  301 at Mon Jan 25 21:40:01 2021, MaxMem=  4026531840 cpu:               0.6 elap:               0.1
 (Enter /opt/ohpc/pub/libs/gaussian/g16-A.03/sandybridge/g16/l302.exe)
 NPDir=0 NMtPBC=     1 NCelOv=     1 NCel=       1 NClECP=     1 NCelD=      1
         NCelK=      1 NCelE2=     1 NClLst=     1 CellRange=     0.0.
 One-electron integrals computed using PRISM.
 One-electron integral symmetry used in STVInt
 NBasis=   336 RedAO= T EigKep=  2.74D-05  NBF=   336
 NBsUse=   336 1.00D-06 EigRej= -1.00D+00 NBFU=   336
 Precomputing XC quadrature grid using
 IXCGrd= 4 IRadAn=           5 IRanWt=          -1 IRanGd=           0 AccXCQ= 0.00D+00.
 Generated NRdTot=       0 NPtTot=           0 NUsed=           0 NTot=          32
 NSgBfM=   343   343   343   343   343 MxSgAt=    30 MxSgA2=    30.
 Leave Link  302 at Mon Jan 25 21:40:03 2021, MaxMem=  4026531840 cpu:              10.9 elap:               1.7
 (Enter /opt/ohpc/pub/libs/gaussian/g16-A.03/sandybridge/g16/l303.exe)
 DipDrv:  MaxL=1.
 Leave Link  303 at Mon Jan 25 21:40:03 2021, MaxMem=  4026531840 cpu:               1.3 elap:               0.2
 (Enter /opt/ohpc/pub/libs/gaussian/g16-A.03/sandybridge/g16/l401.exe)
 ExpMin= 9.52D-02 ExpMax= 1.97D+04 ExpMxC= 6.73D+02 IAcc=3 IRadAn=         5 AccDes= 0.00D+00
 Harris functional with IExCor=33909 and IRadAn=       5 diagonalized for initial guess.
 HarFok:  IExCor=33909 AccDes= 0.00D+00 IRadAn=         5 IDoV= 1 UseB2=F ITyADJ=14
 ICtDFT=  3500011 ScaDFX=  1.000000  1.000000  1.000000  1.000000
 FoFCou: FMM=F IPFlag=           0 FMFlag=      100000 FMFlg1=           0
         NFxFlg=           0 DoJE=T BraDBF=F KetDBF=T FulRan=T
         wScrn=  0.000000 ICntrl=       500 IOpCl=  0 I1Cent=   200000004 NGrid=           0
         NMat0=    1 NMatS0=      1 NMatT0=    0 NMatD0=    1 NMtDS0=    0 NMtDT0=    0
 Petite list used in FoFCou.
 Harris En= -505.437337363730    
 JPrj=0 DoOrth=F DoCkMO=F.
 Initial guess <Sx>= 0.0000 <Sy>= 0.0000 <Sz>= 0.5000 <S**2>= 0.7500 S= 0.5000
 Leave Link  401 at Mon Jan 25 21:40:08 2021, MaxMem=  4026531840 cpu:              27.0 elap:               4.5
 (Enter /opt/ohpc/pub/libs/gaussian/g16-A.03/sandybridge/g16/l502.exe)
 Integral symmetry usage will be decided dynamically.
 UHF open shell SCF:
 Using DIIS extrapolation, IDIIS=    10.
 NGot=  4026531840 LenX=  4026283142 LenY=  4026161597
 Requested convergence on RMS density matrix=1.00D-06 within  32 cycles.
 Requested convergence on MAX density matrix=1.00D-04.
 Requested convergence on             energy=1.00D-04.
 Virtual orbitals will be shifted by   0.500 hartree.
 No special actions if energy rises.
 Dynamic level shift is on during FON iterations.

 Cycle   1  Pass 1  IDiag  1:
 FoFJK:  IHMeth= 1 ICntrl=       0 DoSepK=T KAlg= 0 I1Cent=           0 FoldK=F
 IRaf=         1 NMat=       1 IRICut=       1 DoRegI=T DoRafI=F ISym2E= 0 IDoP0=0 IntGTp=1.
 FoFCou: FMM=F IPFlag=           0 FMFlag=      100000 FMFlg1=           0
         NFxFlg=           0 DoJE=T BraDBF=F KetDBF=F FulRan=T
         wScrn=  0.000000 ICntrl=       500 IOpCl=  0 I1Cent=           0 NGrid=           0
         NMat0=    1 NMatS0=      1 NMatT0=    0 NMatD0=    1 NMtDS0=    0 NMtDT0=    0
 Symmetry not used in FoFCou.
 E= -516.905338807547    
 DIIS: error= 2.70D-02 at cycle   1 NSaved=   1.
 NSaved= 1 IEnMin= 1 EnMin= -516.905338807547     IErMin= 1 ErrMin= 2.70D-02
 ErrMax= 2.70D-02  0.00D+00 EMaxC= 1.00D+00 BMatC= 7.75D-01 BMatP= 7.75D-01
 IDIUse=1 WtCom= 1.00D+00 WtEn= 0.00D+00
 Coeff-Com:  0.100D+01
 Coeff:      0.100D+01
 Gap=     0.454 Goal=   None    Shift=    0.500
 T= 1433. Gap= 0.848 NK=0 IS=   47 IE=  336 IFin=   46
          NO(<0.9)=   0  NV(>0.1)=   0     46.00e < EF      0.00e >EF  Err=0.0D+00
 Gap=     0.243 Goal=   None    Shift=    0.500
 T= 1433. Gap= 0.710 NK=0 IS=   46 IE=  336 IFin=   45
          NO(<0.9)=   0  NV(>0.1)=   0     45.00e < EF      0.00e >EF  Err=0.0D+00
 GapD=    0.243 DampG=1.000 DampE=0.500 DampFc=0.5000 IDamp=-1.
 Damping current iteration by 5.00D-01
 RMSDP=2.75D-03 MaxDP=1.62D-01              OVMax= 6.31D-02

 Cycle   2  Pass 1  IDiag  1:
 E= -517.009633948525     Delta-E=       -0.104295140979 Rises=F Damp=T
 DIIS: error= 1.05D-02 at cycle   2 NSaved=   2.
 NSaved= 2 IEnMin= 2 EnMin= -517.009633948525     IErMin= 2 ErrMin= 1.05D-02
 ErrMax= 1.05D-02  0.00D+00 EMaxC= 1.00D+00 BMatC= 1.30D-01 BMatP= 7.75D-01
 IDIUse=1 WtCom= 1.00D+00 WtEn= 0.00D+00
 Coeff-Com: -0.548D+00 0.155D+01
 Coeff:     -0.548D+00 0.155D+01
 Gap=     0.376 Goal=   None    Shift=    0.500
 T= 1297. Gap= 0.864 NK=0 IS=   47 IE=  336 IFin=   46
          NO(<0.9)=   0  NV(>0.1)=   0     46.00e < EF      0.00e >EF  Err=0.0D+00
 Gap=     0.261 Goal=   None    Shift=    0.500
 T= 1297. Gap= 0.747 NK=0 IS=   46 IE=  336 IFin=   45
          NO(<0.9)=   0  NV(>0.1)=   0     45.00e < EF      0.00e >EF  Err=0.0D+00
 GapD=    0.261 DampG=1.000 DampE=0.500 DampFc=0.5000 IDamp=-1.
 Damping current iteration by 5.00D-01
 RMSDP=1.96D-03 MaxDP=1.32D-01 DE=-1.04D-01 OVMax= 1.86D-02

 Cycle   3  Pass 1  IDiag  1:
 E= -517.045637586325     Delta-E=       -0.036003637800 Rises=F Damp=T
 DIIS: error= 4.35D-03 at cycle   3 NSaved=   3.
 NSaved= 3 IEnMin= 3 EnMin= -517.045637586325     IErMin= 3 ErrMin= 4.35D-03
 ErrMax= 4.35D-03  0.00D+00 EMaxC= 1.00D+00 BMatC= 2.67D-02 BMatP= 1.30D-01
 IDIUse=1 WtCom= 1.00D+00 WtEn= 0.00D+00
 Coeff-Com:  0.744D-01-0.101D+01 0.193D+01
 Coeff:      0.744D-01-0.101D+01 0.193D+01
 Gap=     0.375 Goal=   None    Shift=    0.500
 T= 1038. Gap= 0.875 NK=0 IS=   47 IE=  336 IFin=   46
          NO(<0.9)=   0  NV(>0.1)=   0     46.00e < EF      0.00e >EF  Err=0.0D+00
 Gap=     0.247 Goal=   None    Shift=    0.500
 T= 1038. Gap= 0.747 NK=0 IS=   46 IE=  336 IFin=   45
          NO(<0.9)=   0  NV(>0.1)=   0     45.00e < EF      0.00e >EF  Err=0.0D+00
 GapD=    0.247 DampG=1.000 DampE=1.000 DampFc=1.0000 IDamp=-1.
 RMSDP=1.10D-03 MaxDP=7.17D-02 DE=-3.60D-02 OVMax= 7.48D-03

 Cycle   4  Pass 1  IDiag  1:
 E= -517.076852266169     Delta-E=       -0.031214679844 Rises=F Damp=F
 DIIS: error= 1.56D-03 at cycle   4 NSaved=   4.
 NSaved= 4 IEnMin= 4 EnMin= -517.076852266169     IErMin= 4 ErrMin= 1.56D-03
 ErrMax= 1.56D-03  0.00D+00 EMaxC= 1.00D+00 BMatC= 1.03D-03 BMatP= 2.67D-02
 IDIUse=1 WtCom= 1.00D+00 WtEn= 0.00D+00
 Coeff-Com:  0.676D-01-0.236D+00 0.239D+00 0.929D+00
 Coeff:      0.676D-01-0.236D+00 0.239D+00 0.929D+00
 Gap=     0.373 Goal=   None    Shift=    0.500
 T=  477. Gap= 0.873 NK=0 IS=   47 IE=  336 IFin=   46
          NO(<0.9)=   0  NV(>0.1)=   0     46.00e < EF      0.00e >EF  Err=0.0D+00
 Gap=     0.249 Goal=   None    Shift=    0.500
 T=  477. Gap= 0.750 NK=0 IS=   46 IE=  336 IFin=   45
          NO(<0.9)=   0  NV(>0.1)=   0     45.00e < EF      0.00e >EF  Err=0.0D+00
 GapD=    0.249 DampG=1.000 DampE=1.000 DampFc=1.0000 IDamp=-1.
 RMSDP=1.01D-04 MaxDP=3.07D-03 DE=-3.12D-02 OVMax= 7.91D-03

 Cycle   5  Pass 1  IDiag  1:
 E= -517.077308087634     Delta-E=       -0.000455821465 Rises=F Damp=F
 DIIS: error= 1.10D-03 at cycle   5 NSaved=   5.
 NSaved= 5 IEnMin= 5 EnMin= -517.077308087634     IErMin= 5 ErrMin= 1.10D-03
 ErrMax= 1.10D-03  0.00D+00 EMaxC= 1.00D+00 BMatC= 2.68D-04 BMatP= 1.03D-03
 IDIUse=1 WtCom= 1.00D+00 WtEn= 0.00D+00
 Coeff-Com: -0.205D-01 0.212D+00-0.381D+00-0.379D+00 0.157D+01
 Coeff:     -0.205D-01 0.212D+00-0.381D+00-0.379D+00 0.157D+01
 Gap=     0.376 Goal=   None    Shift=    0.500
 Gap=     0.251 Goal=   None    Shift=    0.500
 GapD=    0.251 DampG=1.000 DampE=1.000 DampFc=1.0000 IDamp=-1.
 RMSDP=6.93D-05 MaxDP=3.39D-03 DE=-4.56D-04 OVMax= 6.81D-03

 Cycle   6  Pass 1  IDiag  1:
 E= -517.077561814027     Delta-E=       -0.000253726393 Rises=F Damp=F
 DIIS: error= 9.00D-04 at cycle   6 NSaved=   6.
 NSaved= 6 IEnMin= 6 EnMin= -517.077561814027     IErMin= 6 ErrMin= 9.00D-04
 ErrMax= 9.00D-04  0.00D+00 EMaxC= 1.00D+00 BMatC= 1.14D-04 BMatP= 2.68D-04
 IDIUse=1 WtCom= 1.00D+00 WtEn= 0.00D+00
 Coeff-Com: -0.181D-01 0.851D-02 0.472D-01-0.200D+00-0.118D+01 0.234D+01
 Coeff:     -0.181D-01 0.851D-02 0.472D-01-0.200D+00-0.118D+01 0.234D+01
 Gap=     0.377 Goal=   None    Shift=    0.500
 Gap=     0.253 Goal=   None    Shift=    0.500
 RMSDP=6.00D-05 MaxDP=3.77D-03 DE=-2.54D-04 OVMax= 6.71D-03

 Cycle   7  Pass 1  IDiag  1:
 E= -517.077715573772     Delta-E=       -0.000153759745 Rises=F Damp=F
 DIIS: error= 5.53D-04 at cycle   7 NSaved=   7.
 NSaved= 7 IEnMin= 7 EnMin= -517.077715573772     IErMin= 7 ErrMin= 5.53D-04
 ErrMax= 5.53D-04  0.00D+00 EMaxC= 1.00D+00 BMatC= 4.35D-05 BMatP= 1.14D-04
 IDIUse=1 WtCom= 1.00D+00 WtEn= 0.00D+00
 Coeff-Com:  0.161D-02-0.391D-01 0.757D-01 0.509D-01-0.476D+00-0.447D+00
 Coeff-Com:  0.183D+01
 Coeff:      0.161D-02-0.391D-01 0.757D-01 0.509D-01-0.476D+00-0.447D+00
 Coeff:      0.183D+01
 Gap=     0.378 Goal=   None    Shift=    0.500
 Gap=     0.253 Goal=   None    Shift=    0.500
 RMSDP=3.83D-05 MaxDP=3.09D-03 DE=-1.54D-04 OVMax= 4.42D-03

 Cycle   8  Pass 1  IDiag  1:
 E= -517.077778818822     Delta-E=       -0.000063245050 Rises=F Damp=F
 DIIS: error= 3.73D-04 at cycle   8 NSaved=   8.
 NSaved= 8 IEnMin= 8 EnMin= -517.077778818822     IErMin= 8 ErrMin= 3.73D-04
 ErrMax= 3.73D-04  0.00D+00 EMaxC= 1.00D+00 BMatC= 1.70D-05 BMatP= 4.35D-05
 IDIUse=1 WtCom= 1.00D+00 WtEn= 0.00D+00
 Coeff-Com:  0.435D-02 0.829D-03-0.168D-01 0.363D-01 0.436D+00-0.964D+00
 Coeff-Com: -0.695D+00 0.220D+01
 Coeff:      0.435D-02 0.829D-03-0.168D-01 0.363D-01 0.436D+00-0.964D+00
 Coeff:     -0.695D+00 0.220D+01
 Gap=     0.379 Goal=   None    Shift=    0.500
 Gap=     0.253 Goal=   None    Shift=    0.500
 RMSDP=2.39D-05 MaxDP=1.71D-03 DE=-6.32D-05 OVMax= 3.06D-03

 Cycle   9  Pass 1  IDiag  1:
 E= -517.077804561011     Delta-E=       -0.000025742188 Rises=F Damp=F
 DIIS: error= 2.16D-04 at cycle   9 NSaved=   9.
 NSaved= 9 IEnMin= 9 EnMin= -517.077804561011     IErMin= 9 ErrMin= 2.16D-04
 ErrMax= 2.16D-04  0.00D+00 EMaxC= 1.00D+00 BMatC= 6.43D-06 BMatP= 1.70D-05
 IDIUse=1 WtCom= 1.00D+00 WtEn= 0.00D+00
 Coeff-Com: -0.341D-02 0.121D-01-0.141D-01-0.103D+00 0.304D-02 0.774D+00
 Coeff-Com: -0.768D+00-0.195D+01 0.305D+01
 Coeff:     -0.341D-02 0.121D-01-0.141D-01-0.103D+00 0.304D-02 0.774D+00
 Coeff:     -0.768D+00-0.195D+01 0.305D+01
 Gap=     0.379 Goal=   None    Shift=    0.500
 Gap=     0.253 Goal=   None    Shift=    0.500
 RMSDP=1.33D-05 MaxDP=7.82D-04 DE=-2.57D-05 OVMax= 1.92D-03

 Cycle  10  Pass 1  IDiag  1:
 E= -517.077813855547     Delta-E=       -0.000009294536 Rises=F Damp=F
 DIIS: error= 1.21D-04 at cycle  10 NSaved=  10.
 NSaved=10 IEnMin=10 EnMin= -517.077813855547     IErMin=10 ErrMin= 1.21D-04
 ErrMax= 1.21D-04  0.00D+00 EMaxC= 1.00D+00 BMatC= 2.03D-06 BMatP= 6.43D-06
 IDIUse=1 WtCom= 1.00D+00 WtEn= 0.00D+00
 Coeff-Com:  0.632D-03-0.467D-02 0.742D-02 0.148D-01-0.413D-01-0.933D-01
 Coeff-Com:  0.344D+00 0.133D+00-0.215D+01 0.279D+01
 Coeff:      0.632D-03-0.467D-02 0.742D-02 0.148D-01-0.413D-01-0.933D-01
 Coeff:      0.344D+00 0.133D+00-0.215D+01 0.279D+01
 Gap=     0.379 Goal=   None    Shift=    0.500
 Gap=     0.253 Goal=   None    Shift=    0.500
 RMSDP=7.23D-06 MaxDP=3.68D-04 DE=-9.29D-06 OVMax= 1.05D-03

 Cycle  11  Pass 1  IDiag  1:
 E= -517.077816611922     Delta-E=       -0.000002756375 Rises=F Damp=F
 DIIS: error= 6.66D-05 at cycle  11 NSaved=  11.
 NSaved=11 IEnMin=11 EnMin= -517.077816611922     IErMin=11 ErrMin= 6.66D-05
 ErrMax= 6.66D-05  0.00D+00 EMaxC= 1.00D+00 BMatC= 6.06D-07 BMatP= 2.03D-06
 IDIUse=1 WtCom= 1.00D+00 WtEn= 0.00D+00
 Coeff-Com: -0.368D-03 0.119D-02-0.113D-02-0.985D-02 0.238D-01 0.193D-01
 Coeff-Com: -0.835D-01-0.135D+00 0.907D+00-0.260D+01 0.288D+01
 Coeff:     -0.368D-03 0.119D-02-0.113D-02-0.985D-02 0.238D-01 0.193D-01
 Coeff:     -0.835D-01-0.135D+00 0.907D+00-0.260D+01 0.288D+01
 Gap=     0.379 Goal=   None    Shift=    0.500
 Gap=     0.253 Goal=   None    Shift=    0.500
 RMSDP=3.89D-06 MaxDP=2.08D-04 DE=-2.76D-06 OVMax= 5.66D-04

 Cycle  12  Pass 1  IDiag  1:
 E= -517.077817394158     Delta-E=       -0.000000782236 Rises=F Damp=F
 DIIS: error= 3.49D-05 at cycle  12 NSaved=  12.
 NSaved=12 IEnMin=12 EnMin= -517.077817394158     IErMin=12 ErrMin= 3.49D-05
 ErrMax= 3.49D-05  0.00D+00 EMaxC= 1.00D+00 BMatC= 1.79D-07 BMatP= 6.06D-07
 IDIUse=1 WtCom= 1.00D+00 WtEn= 0.00D+00
 Coeff-Com: -0.194D-03 0.114D-02-0.178D-02-0.960D-02 0.131D-01 0.497D-01
 Coeff-Com: -0.106D+00-0.102D+00 0.557D+00-0.787D+00-0.563D+00 0.195D+01
 Coeff:     -0.194D-03 0.114D-02-0.178D-02-0.960D-02 0.131D-01 0.497D-01
 Coeff:     -0.106D+00-0.102D+00 0.557D+00-0.787D+00-0.563D+00 0.195D+01
 Gap=     0.379 Goal=   None    Shift=    0.500
 Gap=     0.253 Goal=   None    Shift=    0.500
 RMSDP=2.06D-06 MaxDP=1.03D-04 DE=-7.82D-07 OVMax= 3.00D-04

 Cycle  13  Pass 1  IDiag  1:
 E= -517.077817613031     Delta-E=       -0.000000218873 Rises=F Damp=F
 DIIS: error= 1.82D-05 at cycle  13 NSaved=  13.
 NSaved=13 IEnMin=13 EnMin= -517.077817613031     IErMin=13 ErrMin= 1.82D-05
 ErrMax= 1.82D-05  0.00D+00 EMaxC= 1.00D+00 BMatC= 5.35D-08 BMatP= 1.79D-07
 IDIUse=1 WtCom= 1.00D+00 WtEn= 0.00D+00
 Coeff-Com:  0.973D-05 0.207D-03-0.557D-03-0.343D-02 0.148D-02 0.241D-01
 Coeff-Com: -0.364D-01-0.259D-01 0.336D-01 0.337D+00-0.123D+01 0.716D+00
 Coeff-Com:  0.119D+01
 Coeff:      0.973D-05 0.207D-03-0.557D-03-0.343D-02 0.148D-02 0.241D-01
 Coeff:     -0.364D-01-0.259D-01 0.336D-01 0.337D+00-0.123D+01 0.716D+00
 Coeff:      0.119D+01
 Gap=     0.379 Goal=   None    Shift=    0.500
 Gap=     0.253 Goal=   None    Shift=    0.500
 RMSDP=1.13D-06 MaxDP=5.67D-05 DE=-2.19D-07 OVMax= 1.59D-04

 Cycle  14  Pass 1  IDiag  1:
 E= -517.077817675105     Delta-E=       -0.000000062073 Rises=F Damp=F
 DIIS: error= 9.67D-06 at cycle  14 NSaved=  14.
 NSaved=14 IEnMin=14 EnMin= -517.077817675105     IErMin=14 ErrMin= 9.67D-06
 ErrMax= 9.67D-06  0.00D+00 EMaxC= 1.00D+00 BMatC= 1.50D-08 BMatP= 5.35D-08
 IDIUse=1 WtCom= 1.00D+00 WtEn= 0.00D+00
 Coeff-Com:  0.622D-04-0.391D-03 0.603D-03 0.203D-02-0.311D-02-0.123D-01
 Coeff-Com:  0.304D-01 0.204D-01-0.177D+00 0.338D+00-0.125D+00-0.585D+00
 Coeff-Com: -0.261D+00 0.177D+01
 Coeff:      0.622D-04-0.391D-03 0.603D-03 0.203D-02-0.311D-02-0.123D-01
 Coeff:      0.304D-01 0.204D-01-0.177D+00 0.338D+00-0.125D+00-0.585D+00
 Coeff:     -0.261D+00 0.177D+01
 Gap=     0.379 Goal=   None    Shift=    0.500
 Gap=     0.253 Goal=   None    Shift=    0.500
 RMSDP=6.46D-07 MaxDP=3.59D-05 DE=-6.21D-08 OVMax= 8.44D-05

 SCF Done:  E(ULC-wHPBE) =  -517.077817675     A.U. after   14 cycles
            NFock= 14  Conv=0.65D-06     -V/T= 2.0048
 <Sx>= 0.0000 <Sy>= 0.0000 <Sz>= 0.5000 <S**2>= 0.7768 S= 0.5133
 <L.S>= 0.000000000000E+00
 KE= 5.145881384167D+02 PE=-2.652461685413D+03 EE= 8.800327476081D+02
 Annihilation of the first spin contaminant:
 S**2 before annihilation     0.7768,   after     0.7504
 Leave Link  502 at Mon Jan 25 21:43:53 2021, MaxMem=  4026531840 cpu:            1775.9 elap:             224.7
 (Enter /opt/ohpc/pub/libs/gaussian/g16-A.03/sandybridge/g16/l508.exe)
 QCSCF skips out because SCF is already converged.
 Leave Link  508 at Mon Jan 25 21:43:53 2021, MaxMem=  4026531840 cpu:               0.2 elap:               0.1
 (Enter /opt/ohpc/pub/libs/gaussian/g16-A.03/sandybridge/g16/l601.exe)
 Copying SCF densities to generalized density rwf, IOpCl= 1 IROHF=0.

 **********************************************************************

            Population analysis using the SCF density.

 **********************************************************************

 Orbital symmetries:
 Alpha Orbitals:
       Occupied  (A) (A) (A) (A) (A) (A) (A) (A) (A) (A) (A) (A)
                 (A) (A) (A) (A) (A) (A) (A) (A) (A) (A) (A) (A)
                 (A) (A) (A) (A) (A) (A) (A) (A) (A) (A) (A) (A)
                 (A) (A) (A) (A) (A) (A) (A) (A) (A) (A)
       Virtual   (A) (A) (A) (A) (A) (A) (A) (A) (A) (A) (A) (A)
                 (A) (A) (A) (A) (A) (A) (A) (A) (A) (A) (A) (A)
                 (A) (A) (A) (A) (A) (A) (A) (A) (A) (A) (A) (A)
                 (A) (A) (A) (A) (A) (A) (A) (A) (A) (A) (A) (A)
                 (A) (A) (A) (A) (A) (A) (A) (A) (A) (A) (A) (A)
                 (A) (A) (A) (A) (A) (A) (A) (A) (A) (A) (A) (A)
                 (A) (A) (A) (A) (A) (A) (A) (A) (A) (A) (A) (A)
                 (A) (A) (A) (A) (A) (A) (A) (A) (A) (A) (A) (A)
                 (A) (A) (A) (A) (A) (A) (A) (A) (A) (A) (A) (A)
                 (A) (A) (A) (A) (A) (A) (A) (A) (A) (A) (A) (A)
                 (A) (A) (A) (A) (A) (A) (A) (A) (A) (A) (A) (A)
                 (A) (A) (A) (A) (A) (A) (A) (A) (A) (A) (A) (A)
                 (A) (A) (A) (A) (A) (A) (A) (A) (A) (A) (A) (A)
                 (A) (A) (A) (A) (A) (A) (A) (A) (A) (A) (A) (A)
                 (A) (A) (A) (A) (A) (A) (A) (A) (A) (A) (A) (A)
                 (A) (A) (A) (A) (A) (A) (A) (A) (A) (A) (A) (A)
                 (A) (A) (A) (A) (A) (A) (A) (A) (A) (A) (A) (A)
                 (A) (A) (A) (A) (A) (A) (A) (A) (A) (A) (A) (A)
                 (A) (A) (A) (A) (A) (A) (A) (A) (A) (A) (A) (A)
                 (A) (A) (A) (A) (A) (A) (A) (A) (A) (A) (A) (A)
                 (A) (A) (A) (A) (A) (A) (A) (A) (A) (A) (A) (A)
                 (A) (A) (A) (A) (A) (A) (A) (A) (A) (A) (A) (A)
                 (A) (A) (A) (A) (A) (A) (A) (A) (A) (A) (A) (A)
                 (A) (A) (A) (A) (A) (A) (A) (A) (A) (A) (A) (A)
                 (A) (A)
 Beta  Orbitals:
       Occupied  (A) (A) (A) (A) (A) (A) (A) (A) (A) (A) (A) (A)
                 (A) (A) (A) (A) (A) (A) (A) (A) (A) (A) (A) (A)
                 (A) (A) (A) (A) (A) (A) (A) (A) (A) (A) (A) (A)
                 (A) (A) (A) (A) (A) (A) (A) (A) (A)
       Virtual   (A) (A) (A) (A) (A) (A) (A) (A) (A) (A) (A) (A)
                 (A) (A) (A) (A) (A) (A) (A) (A) (A) (A) (A) (A)
                 (A) (A) (A) (A) (A) (A) (A) (A) (A) (A) (A) (A)
                 (A) (A) (A) (A) (A) (A) (A) (A) (A) (A) (A) (A)
                 (A) (A) (A) (A) (A) (A) (A) (A) (A) (A) (A) (A)
                 (A) (A) (A) (A) (A) (A) (A) (A) (A) (A) (A) (A)
                 (A) (A) (A) (A) (A) (A) (A) (A) (A) (A) (A) (A)
                 (A) (A) (A) (A) (A) (A) (A) (A) (A) (A) (A) (A)
                 (A) (A) (A) (A) (A) (A) (A) (A) (A) (A) (A) (A)
                 (A) (A) (A) (A) (A) (A) (A) (A) (A) (A) (A) (A)
                 (A) (A) (A) (A) (A) (A) (A) (A) (A) (A) (A) (A)
                 (A) (A) (A) (A) (A) (A) (A) (A) (A) (A) (A) (A)
                 (A) (A) (A) (A) (A) (A) (A) (A) (A) (A) (A) (A)
                 (A) (A) (A) (A) (A) (A) (A) (A) (A) (A) (A) (A)
                 (A) (A) (A) (A) (A) (A) (A) (A) (A) (A) (A) (A)
                 (A) (A) (A) (A) (A) (A) (A) (A) (A) (A) (A) (A)
                 (A) (A) (A) (A) (A) (A) (A) (A) (A) (A) (A) (A)
                 (A) (A) (A) (A) (A) (A) (A) (A) (A) (A) (A) (A)
                 (A) (A) (A) (A) (A) (A) (A) (A) (A) (A) (A) (A)
                 (A) (A) (A) (A) (A) (A) (A) (A) (A) (A) (A) (A)
                 (A) (A) (A) (A) (A) (A) (A) (A) (A) (A) (A) (A)
                 (A) (A) (A) (A) (A) (A) (A) (A) (A) (A) (A) (A)
                 (A) (A) (A) (A) (A) (A) (A) (A) (A) (A) (A) (A)
                 (A) (A) (A) (A) (A) (A) (A) (A) (A) (A) (A) (A)
                 (A) (A) (A)
 The electronic state is 2-A.
 Alpha  occ. eigenvalues --  -14.52517 -14.52517 -14.52516 -10.43457 -10.43391
 Alpha  occ. eigenvalues --  -10.43391 -10.34135 -10.34135 -10.34135 -10.34132
 Alpha  occ. eigenvalues --  -10.34132 -10.34132  -1.40000  -1.36028  -1.36028
 Alpha  occ. eigenvalues --   -1.30480  -1.10883  -1.10882  -1.09798  -1.09400
 Alpha  occ. eigenvalues --   -1.09399  -1.07721  -0.93244  -0.93244  -0.92462
 Alpha  occ. eigenvalues --   -0.90316  -0.88502  -0.88502  -0.86203  -0.86202
 Alpha  occ. eigenvalues --   -0.85475  -0.79709  -0.78974  -0.78973  -0.78394
 Alpha  occ. eigenvalues --   -0.76953  -0.76951  -0.76769  -0.76767  -0.76672
 Alpha  occ. eigenvalues --   -0.75030  -0.75029  -0.74109  -0.68719  -0.68719
 Alpha  occ. eigenvalues --   -0.60523
 Alpha virt. eigenvalues --   -0.22642  -0.22640  -0.19540  -0.13712  -0.13710
 Alpha virt. eigenvalues --   -0.13202  -0.12865  -0.11528  -0.11527  -0.09759
 Alpha virt. eigenvalues --   -0.09758  -0.09209  -0.09144  -0.08246  -0.08245
 Alpha virt. eigenvalues --   -0.07537  -0.07124  -0.07119  -0.06200  -0.05577
 Alpha virt. eigenvalues --   -0.05572  -0.05395  -0.05392  -0.04149  -0.01981
 Alpha virt. eigenvalues --   -0.01832  -0.01828  -0.00978  -0.00973  -0.00241
 Alpha virt. eigenvalues --    0.02203   0.02212   0.04209   0.04215   0.04410
 Alpha virt. eigenvalues --    0.05330   0.06695   0.07622   0.07626   0.09512
 Alpha virt. eigenvalues --    0.10789   0.10797   0.11525   0.12085   0.12094
 Alpha virt. eigenvalues --    0.13040   0.13983   0.13989   0.16323   0.16328
 Alpha virt. eigenvalues --    0.17887   0.18963   0.20363   0.20375   0.22171
 Alpha virt. eigenvalues --    0.22535   0.23294   0.23300   0.23706   0.23715
 Alpha virt. eigenvalues --    0.24583   0.25679   0.25681   0.25935   0.27543
 Alpha virt. eigenvalues --    0.27548   0.27787   0.28434   0.28437   0.29872
 Alpha virt. eigenvalues --    0.29883   0.31253   0.31751   0.32042   0.32520
 Alpha virt. eigenvalues --    0.32529   0.34035   0.34040   0.34044   0.36990
 Alpha virt. eigenvalues --    0.36993   0.40700   0.40702   0.44196   0.44487
 Alpha virt. eigenvalues --    0.44493   0.44690   0.44696   0.45481   0.49291
 Alpha virt. eigenvalues --    0.50046   0.50050   0.51405   0.57243   0.57258
 Alpha virt. eigenvalues --    0.61822   0.61827   0.62390   0.90679   0.91044
 Alpha virt. eigenvalues --    0.91050   0.93739   0.98624   1.01179   1.01193
 Alpha virt. eigenvalues --    1.01953   1.03013   1.05959   1.05966   1.07507
 Alpha virt. eigenvalues --    1.07508   1.10104   1.10108   1.10728   1.11735
 Alpha virt. eigenvalues --    1.12245   1.12825   1.12829   1.14463   1.14469
 Alpha virt. eigenvalues --    1.15618   1.16660   1.16672   1.19209   1.21012
 Alpha virt. eigenvalues --    1.21016   1.21349   1.21362   1.22761   1.23516
 Alpha virt. eigenvalues --    1.25601   1.25616   1.26638   1.26641   1.28031
 Alpha virt. eigenvalues --    1.32014   1.32739   1.32832   1.32838   1.33860
 Alpha virt. eigenvalues --    1.33871   1.35780   1.35784   1.38486   1.39671
 Alpha virt. eigenvalues --    1.40439   1.40451   1.41586   1.41590   1.42117
 Alpha virt. eigenvalues --    1.44940   1.44943   1.46972   1.48553   1.48556
 Alpha virt. eigenvalues --    1.50626   1.52386   1.52390   1.54124   1.54867
 Alpha virt. eigenvalues --    1.54868   1.55748   1.55753   1.55956   1.56005
 Alpha virt. eigenvalues --    1.56157   1.56162   1.56936   1.58438   1.58441
 Alpha virt. eigenvalues --    1.58832   1.59074   1.59087   1.59968   1.63996
 Alpha virt. eigenvalues --    1.64004   1.64539   1.64542   1.65916   1.76648
 Alpha virt. eigenvalues --    1.78537   1.78549   1.82813   1.82826   1.82992
 Alpha virt. eigenvalues --    1.86487   1.88870   1.88876   1.90748   1.92788
 Alpha virt. eigenvalues --    1.92794   1.97869   1.98100   1.98109   2.04444
 Alpha virt. eigenvalues --    2.04769   2.04777   2.05048   2.06160   2.07056
 Alpha virt. eigenvalues --    2.07063   2.08081   2.10229   2.10245   2.11728
 Alpha virt. eigenvalues --    2.11733   2.11820   2.13319   2.14819   2.14828
 Alpha virt. eigenvalues --    2.17249   2.21463   2.21475   2.27350   2.27359
 Alpha virt. eigenvalues --    2.28467   2.28577   2.28584   2.30814   2.31739
 Alpha virt. eigenvalues --    2.31746   2.32451   2.34826   2.34858   2.36566
 Alpha virt. eigenvalues --    2.37803   2.37817   2.38343   2.41062   2.43363
 Alpha virt. eigenvalues --    2.43374   2.44218   2.47195   2.47200   2.47991
 Alpha virt. eigenvalues --    2.50474   2.50486   2.51507   2.53472   2.53494
 Alpha virt. eigenvalues --    2.56759   2.56761   2.60465   2.60484   2.62985
 Alpha virt. eigenvalues --    2.62988   2.69105   2.69107   2.84830   2.86405
 Alpha virt. eigenvalues --    2.86434   2.87221   2.88332   2.88343   2.92558
 Alpha virt. eigenvalues --    2.95342   2.95346   3.05228   3.05239   3.07410
 Alpha virt. eigenvalues --    3.07626   3.07631   3.08600   3.10101   3.10114
 Alpha virt. eigenvalues --    3.11271   3.15789   3.15810   3.16771   3.19854
 Alpha virt. eigenvalues --    3.19862   3.22321   3.27670   3.46420   3.46434
 Alpha virt. eigenvalues --    3.56549   3.70655   3.70663  21.20223  21.51772
 Alpha virt. eigenvalues --   21.53889  21.53896  21.69801  21.69804  21.74024
 Alpha virt. eigenvalues --   21.93357  21.93370  31.31328  31.50514  31.50518
  Beta  occ. eigenvalues --  -14.51860 -14.51859 -14.51857 -10.43505 -10.43441
  Beta  occ. eigenvalues --  -10.43441 -10.34153 -10.34153 -10.34153 -10.34150
  Beta  occ. eigenvalues --  -10.34150 -10.34150  -1.39385  -1.35074  -1.35074
  Beta  occ. eigenvalues --   -1.29563  -1.10737  -1.10736  -1.09639  -1.09269
  Beta  occ. eigenvalues --   -1.09268  -1.07485  -0.92867  -0.92867  -0.92070
  Beta  occ. eigenvalues --   -0.89306  -0.88228  -0.88228  -0.85086  -0.84768
  Beta  occ. eigenvalues --   -0.84768  -0.78818  -0.78817  -0.78793  -0.78286
  Beta  occ. eigenvalues --   -0.76643  -0.76642  -0.76503  -0.76501  -0.76331
  Beta  occ. eigenvalues --   -0.74910  -0.74909  -0.74039  -0.65888  -0.65888
  Beta virt. eigenvalues --   -0.40544  -0.21000  -0.20997  -0.19336  -0.13639
  Beta virt. eigenvalues --   -0.13638  -0.13228  -0.12618  -0.11352  -0.11351
  Beta virt. eigenvalues --   -0.09571  -0.09571  -0.09169  -0.09058  -0.08172
  Beta virt. eigenvalues --   -0.08172  -0.07367  -0.06935  -0.06930  -0.06009
  Beta virt. eigenvalues --   -0.05438  -0.05432  -0.05193  -0.05190  -0.04035
  Beta virt. eigenvalues --   -0.01826  -0.01699  -0.01695  -0.00852  -0.00848
  Beta virt. eigenvalues --   -0.00173   0.02314   0.02323   0.04309   0.04315
  Beta virt. eigenvalues --    0.04542   0.05483   0.06886   0.07702   0.07706
  Beta virt. eigenvalues --    0.09817   0.11023   0.11032   0.11658   0.12259
  Beta virt. eigenvalues --    0.12266   0.13240   0.14017   0.14024   0.16491
  Beta virt. eigenvalues --    0.16496   0.18208   0.19089   0.20482   0.20493
  Beta virt. eigenvalues --    0.22325   0.22882   0.23412   0.23418   0.23912
  Beta virt. eigenvalues --    0.23921   0.24717   0.25882   0.25884   0.26194
  Beta virt. eigenvalues --    0.27775   0.27780   0.28038   0.28543   0.28546
  Beta virt. eigenvalues --    0.30207   0.30218   0.31477   0.31910   0.32451
  Beta virt. eigenvalues --    0.32776   0.32785   0.34273   0.34276   0.34298
  Beta virt. eigenvalues --    0.37097   0.37100   0.40786   0.40788   0.44543
  Beta virt. eigenvalues --    0.44658   0.44664   0.45057   0.45063   0.45636
  Beta virt. eigenvalues --    0.49558   0.50329   0.50333   0.51573   0.57415
  Beta virt. eigenvalues --    0.57430   0.61970   0.61975   0.62644   0.90870
  Beta virt. eigenvalues --    0.91314   0.91321   0.93956   0.99003   1.01319
  Beta virt. eigenvalues --    1.01333   1.02063   1.03063   1.06079   1.06085
  Beta virt. eigenvalues --    1.07651   1.07653   1.10299   1.10303   1.10849
  Beta virt. eigenvalues --    1.11868   1.12351   1.12978   1.12983   1.14619
  Beta virt. eigenvalues --    1.14626   1.15781   1.16751   1.16763   1.19379
  Beta virt. eigenvalues --    1.21054   1.21058   1.21437   1.21450   1.22899
  Beta virt. eigenvalues --    1.23636   1.25733   1.25748   1.26727   1.26730
  Beta virt. eigenvalues --    1.28342   1.32197   1.32925   1.33057   1.33062
  Beta virt. eigenvalues --    1.34012   1.34023   1.36062   1.36066   1.38732
  Beta virt. eigenvalues --    1.39891   1.40593   1.40606   1.41873   1.41877
  Beta virt. eigenvalues --    1.42716   1.45327   1.45330   1.47049   1.48666
  Beta virt. eigenvalues --    1.48668   1.50761   1.52625   1.52629   1.54350
  Beta virt. eigenvalues --    1.55381   1.55384   1.56106   1.56110   1.56124
  Beta virt. eigenvalues --    1.56339   1.56342   1.56349   1.57081   1.58611
  Beta virt. eigenvalues --    1.58614   1.59345   1.59420   1.59433   1.60322
  Beta virt. eigenvalues --    1.64222   1.64224   1.64685   1.64691   1.66421
  Beta virt. eigenvalues --    1.76662   1.78812   1.78825   1.82978   1.83455
  Beta virt. eigenvalues --    1.83467   1.86792   1.89052   1.89058   1.90946
  Beta virt. eigenvalues --    1.93096   1.93103   1.98333   1.98449   1.98458
  Beta virt. eigenvalues --    2.04793   2.05239   2.05596   2.05605   2.06865
  Beta virt. eigenvalues --    2.07228   2.07235   2.08486   2.10644   2.10661
  Beta virt. eigenvalues --    2.12086   2.12092   2.12151   2.14312   2.15572
  Beta virt. eigenvalues --    2.15580   2.18273   2.21753   2.21766   2.27452
  Beta virt. eigenvalues --    2.27462   2.28848   2.29073   2.29081   2.31318
  Beta virt. eigenvalues --    2.32004   2.32012   2.33011   2.35200   2.35233
  Beta virt. eigenvalues --    2.36828   2.38133   2.38148   2.38729   2.41252
  Beta virt. eigenvalues --    2.43922   2.43934   2.44475   2.47571   2.47576
  Beta virt. eigenvalues --    2.48594   2.51419   2.51429   2.52654   2.54092
  Beta virt. eigenvalues --    2.54113   2.57356   2.57358   2.60905   2.61261
  Beta virt. eigenvalues --    2.63345   2.63347   2.70139   2.70141   2.85266
  Beta virt. eigenvalues --    2.86672   2.86700   2.87434   2.88558   2.88568
  Beta virt. eigenvalues --    2.93476   2.95847   2.95851   3.05480   3.05491
  Beta virt. eigenvalues --    3.07630   3.07850   3.07855   3.08896   3.10220
  Beta virt. eigenvalues --    3.10233   3.11364   3.15975   3.15995   3.17167
  Beta virt. eigenvalues --    3.20744   3.20752   3.22546   3.28159   3.46810
  Beta virt. eigenvalues --    3.46823   3.56857   3.71130   3.71139  21.20159
  Beta virt. eigenvalues --   21.51747  21.53866  21.53873  21.69780  21.69783
  Beta virt. eigenvalues --   21.74003  21.93311  21.93325  31.32264  31.51452
  Beta virt. eigenvalues --   31.51456
          Condensed to atoms (all electrons):
               1          2          3          4          5          6
     1  C    6.266980  -0.199596   0.549579  -0.094652  -0.067163  -0.006802
     2  C   -0.199596   6.268552  -0.094538   0.549709  -0.002518  -0.003545
     3  N    0.549579  -0.094538   6.302537  -0.004133   0.204919  -0.021721
     4  N   -0.094652   0.549709  -0.004133   6.302467  -0.000594  -0.000004
     5  C   -0.067163  -0.002518   0.204919  -0.000594   4.984979   0.407311
     6  H   -0.006802  -0.003545  -0.021721  -0.000004   0.407311   0.433187
     7  H   -0.010662   0.013209  -0.028593   0.000029   0.396134  -0.020514
     8  H    0.006477   0.000173  -0.025875   0.000008   0.396399  -0.012511
     9  C   -0.067297   0.003398   0.204839  -0.002146  -0.043260  -0.009614
    10  H    0.006517  -0.002715  -0.025858   0.000044   0.000620   0.001658
    11  H   -0.006845   0.006608  -0.021739   0.000132  -0.009597   0.000187
    12  H   -0.010666  -0.004130  -0.028535  -0.002451   0.008038  -0.000029
    13  C   -0.002555  -0.067186  -0.000594   0.204925  -0.000019  -0.000002
    14  H   -0.003546  -0.006824  -0.000004  -0.021739  -0.000002   0.000000
    15  H    0.013192  -0.010649   0.000029  -0.028555   0.000004  -0.000000
    16  H    0.000175   0.006508   0.000008  -0.025865   0.000000   0.000000
    17  C    0.003303  -0.067213  -0.002152   0.204907   0.000039  -0.000007
    18  H   -0.002728   0.006477   0.000044  -0.025884  -0.000001   0.000000
    19  H    0.006601  -0.006794   0.000131  -0.021720   0.000003   0.000000
    20  H   -0.004098  -0.010662  -0.002467  -0.028587  -0.000114  -0.000001
    21  C   -0.197454  -0.199847  -0.094527  -0.094572   0.003231   0.006607
    22  N   -0.094602  -0.094490  -0.004136  -0.004130  -0.002146   0.000131
    23  C    0.003223  -0.002467  -0.002148  -0.000594   0.002903  -0.000607
    24  H    0.006600  -0.003549   0.000130  -0.000004  -0.000604   0.000075
    25  H   -0.004115   0.013280  -0.002463   0.000029  -0.000255  -0.000999
    26  H   -0.002732   0.000173   0.000044   0.000008   0.000016   0.000001
    27  C   -0.002596   0.003470  -0.000594  -0.002145   0.000038   0.000003
    28  H    0.000178  -0.002723   0.000008   0.000044  -0.000001   0.000000
    29  H   -0.003544   0.006602  -0.000004   0.000131  -0.000007   0.000000
    30  H    0.013176  -0.004151   0.000029  -0.002460   0.000011  -0.000000
               7          8          9         10         11         12
     1  C   -0.010662   0.006477  -0.067297   0.006517  -0.006845  -0.010666
     2  C    0.013209   0.000173   0.003398  -0.002715   0.006608  -0.004130
     3  N   -0.028593  -0.025875   0.204839  -0.025858  -0.021739  -0.028535
     4  N    0.000029   0.000008  -0.002146   0.000044   0.000132  -0.002451
     5  C    0.396134   0.396399  -0.043260   0.000620  -0.009597   0.008038
     6  H   -0.020514  -0.012511  -0.009614   0.001658   0.000187  -0.000029
     7  H    0.504556  -0.018924   0.008041   0.000258  -0.000030  -0.000500
     8  H   -0.018924   0.441076   0.000633  -0.001990   0.001657   0.000257
     9  C    0.008041   0.000633   4.985274   0.396332   0.407337   0.396190
    10  H    0.000258  -0.001990   0.396332   0.441075  -0.012497  -0.018904
    11  H   -0.000030   0.001657   0.407337  -0.012497   0.433200  -0.020531
    12  H   -0.000500   0.000257   0.396190  -0.018904  -0.020531   0.504356
    13  C    0.000004   0.000000   0.000040  -0.000001   0.000003  -0.000114
    14  H   -0.000000   0.000000  -0.000007   0.000000   0.000000  -0.000001
    15  H   -0.000002   0.000000   0.000011  -0.000000  -0.000000   0.000018
    16  H    0.000000  -0.000000  -0.000001  -0.000000   0.000000   0.000011
    17  C    0.000011  -0.000001   0.002975   0.000016  -0.000619  -0.000243
    18  H   -0.000000  -0.000000   0.000016  -0.000001   0.000001   0.000301
    19  H   -0.000000   0.000000  -0.000615   0.000001   0.000076  -0.000997
    20  H    0.000018   0.000011  -0.000222   0.000302  -0.001003  -0.003314
    21  C   -0.004118  -0.002722  -0.002598   0.000174  -0.003542   0.013138
    22  N   -0.002449   0.000044  -0.000594   0.000008  -0.000004   0.000029
    23  C   -0.000274   0.000017   0.000037  -0.000001  -0.000007   0.000011
    24  H   -0.000994   0.000001   0.000003   0.000000   0.000000  -0.000000
    25  H   -0.003276   0.000301  -0.000113   0.000011  -0.000001   0.000018
    26  H    0.000301  -0.000001  -0.000001  -0.000000   0.000000  -0.000000
    27  C   -0.000113  -0.000001  -0.000019   0.000000  -0.000002   0.000004
    28  H    0.000011  -0.000000   0.000000  -0.000000   0.000000   0.000000
    29  H   -0.000001   0.000000  -0.000002   0.000000   0.000000  -0.000000
    30  H    0.000018  -0.000000   0.000004   0.000000  -0.000000  -0.000002
              13         14         15         16         17         18
     1  C   -0.002555  -0.003546   0.013192   0.000175   0.003303  -0.002728
     2  C   -0.067186  -0.006824  -0.010649   0.006508  -0.067213   0.006477
     3  N   -0.000594  -0.000004   0.000029   0.000008  -0.002152   0.000044
     4  N    0.204925  -0.021739  -0.028555  -0.025865   0.204907  -0.025884
     5  C   -0.000019  -0.000002   0.000004   0.000000   0.000039  -0.000001
     6  H   -0.000002   0.000000  -0.000000   0.000000  -0.000007   0.000000
     7  H    0.000004  -0.000000  -0.000002   0.000000   0.000011  -0.000000
     8  H    0.000000   0.000000   0.000000  -0.000000  -0.000001  -0.000000
     9  C    0.000040  -0.000007   0.000011  -0.000001   0.002975   0.000016
    10  H   -0.000001   0.000000  -0.000000  -0.000000   0.000016  -0.000001
    11  H    0.000003   0.000000  -0.000000   0.000000  -0.000619   0.000001
    12  H   -0.000114  -0.000001   0.000018   0.000011  -0.000243   0.000301
    13  C    4.985061   0.407349   0.396138   0.396350  -0.043332   0.000637
    14  H    0.407349   0.433202  -0.020512  -0.012516  -0.009609   0.001664
    15  H    0.396138  -0.020512   0.504442  -0.018909   0.008049   0.000257
    16  H    0.396350  -0.012516  -0.018909   0.441113   0.000617  -0.001989
    17  C   -0.043332  -0.009609   0.008049   0.000617   4.985013   0.396405
    18  H    0.000637   0.001664   0.000257  -0.001989   0.396405   0.441133
    19  H   -0.009607   0.000186  -0.000030   0.001664   0.407287  -0.012524
    20  H    0.008041  -0.000030  -0.000500   0.000258   0.396126  -0.018921
    21  C    0.003284   0.006602  -0.004152  -0.002716  -0.002544   0.000175
    22  N   -0.002148   0.000131  -0.002462   0.000044  -0.000594   0.000008
    23  C    0.000039   0.000003  -0.000114  -0.000001  -0.000019   0.000000
    24  H   -0.000007   0.000000  -0.000001   0.000000  -0.000002   0.000000
    25  H    0.000011  -0.000000   0.000018  -0.000000   0.000004   0.000000
    26  H   -0.000001   0.000000   0.000011  -0.000000   0.000000  -0.000000
    27  C    0.002964  -0.000615  -0.000238   0.000016   0.000040  -0.000001
    28  H    0.000016   0.000001   0.000301  -0.000001  -0.000001  -0.000000
    29  H   -0.000616   0.000076  -0.001000   0.000001   0.000003   0.000000
    30  H   -0.000239  -0.000999  -0.003303   0.000301  -0.000114   0.000011
              19         20         21         22         23         24
     1  C    0.006601  -0.004098  -0.197454  -0.094602   0.003223   0.006600
     2  C   -0.006794  -0.010662  -0.199847  -0.094490  -0.002467  -0.003549
     3  N    0.000131  -0.002467  -0.094527  -0.004136  -0.002148   0.000130
     4  N   -0.021720  -0.028587  -0.094572  -0.004130  -0.000594  -0.000004
     5  C    0.000003  -0.000114   0.003231  -0.002146   0.002903  -0.000604
     6  H    0.000000  -0.000001   0.006607   0.000131  -0.000607   0.000075
     7  H   -0.000000   0.000018  -0.004118  -0.002449  -0.000274  -0.000994
     8  H    0.000000   0.000011  -0.002722   0.000044   0.000017   0.000001
     9  C   -0.000615  -0.000222  -0.002598  -0.000594   0.000037   0.000003
    10  H    0.000001   0.000302   0.000174   0.000008  -0.000001   0.000000
    11  H    0.000076  -0.001003  -0.003542  -0.000004  -0.000007   0.000000
    12  H   -0.000997  -0.003314   0.013138   0.000029   0.000011  -0.000000
    13  C   -0.009607   0.008041   0.003284  -0.002148   0.000039  -0.000007
    14  H    0.000186  -0.000030   0.006602   0.000131   0.000003   0.000000
    15  H   -0.000030  -0.000500  -0.004152  -0.002462  -0.000114  -0.000001
    16  H    0.001664   0.000258  -0.002716   0.000044  -0.000001   0.000000
    17  C    0.407287   0.396126  -0.002544  -0.000594  -0.000019  -0.000002
    18  H   -0.012524  -0.018921   0.000175   0.000008   0.000000   0.000000
    19  H    0.433210  -0.020495  -0.003539  -0.000004  -0.000002   0.000000
    20  H   -0.020495   0.504479   0.013194   0.000029   0.000004  -0.000000
    21  C   -0.003539   0.013194   6.267089   0.549636  -0.067123  -0.006774
    22  N   -0.000004   0.000029   0.549636   6.302380   0.205001  -0.021713
    23  C   -0.000002   0.000004  -0.067123   0.205001   4.984720   0.407314
    24  H    0.000000  -0.000000  -0.006774  -0.021713   0.407314   0.433207
    25  H   -0.000000  -0.000002  -0.010643  -0.028637   0.396050  -0.020481
    26  H    0.000000   0.000000   0.006455  -0.025879   0.396431  -0.012544
    27  C   -0.000007   0.000011  -0.067335   0.204897  -0.043395  -0.009629
    28  H    0.000000  -0.000000   0.006518  -0.025872   0.000618   0.001670
    29  H    0.000000  -0.000000  -0.006826  -0.021728  -0.009595   0.000186
    30  H   -0.000001   0.000018  -0.010656  -0.028537   0.008048  -0.000029
              25         26         27         28         29         30
     1  C   -0.004115  -0.002732  -0.002596   0.000178  -0.003544   0.013176
     2  C    0.013280   0.000173   0.003470  -0.002723   0.006602  -0.004151
     3  N   -0.002463   0.000044  -0.000594   0.000008  -0.000004   0.000029
     4  N    0.000029   0.000008  -0.002145   0.000044   0.000131  -0.002460
     5  C   -0.000255   0.000016   0.000038  -0.000001  -0.000007   0.000011
     6  H   -0.000999   0.000001   0.000003   0.000000   0.000000  -0.000000
     7  H   -0.003276   0.000301  -0.000113   0.000011  -0.000001   0.000018
     8  H    0.000301  -0.000001  -0.000001  -0.000000   0.000000  -0.000000
     9  C   -0.000113  -0.000001  -0.000019   0.000000  -0.000002   0.000004
    10  H    0.000011  -0.000000   0.000000  -0.000000   0.000000   0.000000
    11  H   -0.000001   0.000000  -0.000002   0.000000   0.000000  -0.000000
    12  H    0.000018  -0.000000   0.000004   0.000000  -0.000000  -0.000002
    13  C    0.000011  -0.000001   0.002964   0.000016  -0.000616  -0.000239
    14  H   -0.000000   0.000000  -0.000615   0.000001   0.000076  -0.000999
    15  H    0.000018   0.000011  -0.000238   0.000301  -0.001000  -0.003303
    16  H   -0.000000  -0.000000   0.000016  -0.000001   0.000001   0.000301
    17  C    0.000004   0.000000   0.000040  -0.000001   0.000003  -0.000114
    18  H    0.000000  -0.000000  -0.000001  -0.000000   0.000000   0.000011
    19  H   -0.000000   0.000000  -0.000007   0.000000   0.000000  -0.000001
    20  H   -0.000002   0.000000   0.000011  -0.000000  -0.000000   0.000018
    21  C   -0.010643   0.006455  -0.067335   0.006518  -0.006826  -0.010656
    22  N   -0.028637  -0.025879   0.204897  -0.025872  -0.021728  -0.028537
    23  C    0.396050   0.396431  -0.043395   0.000618  -0.009595   0.008048
    24  H   -0.020481  -0.012544  -0.009629   0.001670   0.000186  -0.000029
    25  H    0.504636  -0.018928   0.008054   0.000259  -0.000031  -0.000500
    26  H   -0.018928   0.441142   0.000635  -0.001989   0.001668   0.000256
    27  C    0.008054   0.000635   4.985125   0.396345   0.407334   0.396141
    28  H    0.000259  -0.001989   0.396345   0.441154  -0.012515  -0.018910
    29  H   -0.000031   0.001668   0.407334  -0.012515   0.433200  -0.020512
    30  H   -0.000500   0.000256   0.396141  -0.018910  -0.020512   0.504428
          Atomic-Atomic Spin Densities.
               1          2          3          4          5          6
     1  C   -0.081528   0.060074  -0.068344  -0.005901   0.004901  -0.000157
     2  C    0.060074  -0.081493  -0.005901  -0.068344  -0.000825  -0.000050
     3  N   -0.068344  -0.005901   0.478192   0.001883  -0.029407  -0.006123
     4  N   -0.005901  -0.068344   0.001883   0.478223  -0.000074  -0.000002
     5  C    0.004901  -0.000825  -0.029407  -0.000074  -0.011211   0.008686
     6  H   -0.000157  -0.000050  -0.006123  -0.000002   0.008686   0.019148
     7  H   -0.000177  -0.000064  -0.000249   0.000008   0.000900  -0.000261
     8  H    0.000817   0.000043  -0.004533  -0.000001   0.004994  -0.002147
     9  C    0.004898   0.003040  -0.029406  -0.000381   0.002486   0.000159
    10  H    0.000813  -0.000109  -0.004514  -0.000009   0.000913   0.000444
    11  H   -0.000156   0.000391  -0.006130  -0.000026   0.000159  -0.000126
    12  H   -0.000165  -0.000098  -0.000258   0.000165  -0.000062  -0.000028
    13  C   -0.000823   0.004898  -0.000074  -0.029401  -0.000001  -0.000000
    14  H   -0.000048  -0.000155  -0.000002  -0.006128  -0.000000  -0.000000
    15  H   -0.000061  -0.000169   0.000008  -0.000253  -0.000001  -0.000000
    16  H    0.000043   0.000817  -0.000001  -0.004528   0.000000   0.000000
    17  C    0.003040   0.004898  -0.000381  -0.029404   0.000026   0.000002
    18  H   -0.000110   0.000817  -0.000009  -0.004535   0.000000  -0.000000
    19  H    0.000388  -0.000153  -0.000026  -0.006126   0.000002   0.000000
    20  H   -0.000096  -0.000175   0.000166  -0.000252   0.000000   0.000002
    21  C    0.060062   0.060038  -0.005885  -0.005889   0.003039   0.000390
    22  N   -0.005895  -0.005896   0.001882   0.001883  -0.000381  -0.000026
    23  C    0.003035  -0.000823  -0.000382  -0.000074   0.000198  -0.000039
    24  H    0.000389  -0.000048  -0.000026  -0.000002  -0.000039  -0.000021
    25  H   -0.000090  -0.000061   0.000168   0.000008  -0.000050  -0.000062
    26  H   -0.000111   0.000043  -0.000009  -0.000001   0.000023   0.000006
    27  C   -0.000826   0.003035  -0.000073  -0.000381   0.000026   0.000002
    28  H    0.000043  -0.000109  -0.000001  -0.000009  -0.000001  -0.000000
    29  H   -0.000049   0.000388  -0.000002  -0.000026   0.000002   0.000000
    30  H   -0.000062  -0.000100   0.000008   0.000165   0.000002   0.000000
               7          8          9         10         11         12
     1  C   -0.000177   0.000817   0.004898   0.000813  -0.000156  -0.000165
     2  C   -0.000064   0.000043   0.003040  -0.000109   0.000391  -0.000098
     3  N   -0.000249  -0.004533  -0.029406  -0.004514  -0.006130  -0.000258
     4  N    0.000008  -0.000001  -0.000381  -0.000009  -0.000026   0.000165
     5  C    0.000900   0.004994   0.002486   0.000913   0.000159  -0.000062
     6  H   -0.000261  -0.002147   0.000159   0.000444  -0.000126  -0.000028
     7  H    0.001300  -0.000061  -0.000063   0.000019  -0.000028  -0.000013
     8  H   -0.000061   0.013983   0.000915  -0.000270   0.000445   0.000019
     9  C   -0.000063   0.000915  -0.011215   0.004975   0.008698   0.000904
    10  H    0.000019  -0.000270   0.004975   0.013930  -0.002142  -0.000054
    11  H   -0.000028   0.000445   0.008698  -0.002142   0.019169  -0.000269
    12  H   -0.000013   0.000019   0.000904  -0.000054  -0.000269   0.001319
    13  C   -0.000001   0.000000   0.000026   0.000000   0.000002   0.000001
    14  H   -0.000000   0.000000   0.000002  -0.000000   0.000000   0.000002
    15  H   -0.000001   0.000000   0.000002  -0.000000   0.000000   0.000003
    16  H    0.000000  -0.000000  -0.000001   0.000000  -0.000000  -0.000002
    17  C    0.000002  -0.000001   0.000196   0.000022  -0.000039  -0.000046
    18  H   -0.000000   0.000000   0.000023  -0.000000   0.000006   0.000012
    19  H    0.000000  -0.000000  -0.000040   0.000006  -0.000021  -0.000060
    20  H    0.000003  -0.000002  -0.000048   0.000012  -0.000061  -0.000095
    21  C   -0.000092  -0.000110  -0.000827   0.000043  -0.000050  -0.000064
    22  N    0.000167  -0.000009  -0.000074  -0.000001  -0.000002   0.000008
    23  C   -0.000048   0.000022   0.000026  -0.000001   0.000002   0.000002
    24  H   -0.000061   0.000006   0.000002  -0.000000   0.000000   0.000000
    25  H   -0.000096   0.000012   0.000001  -0.000002   0.000002   0.000003
    26  H    0.000012  -0.000000   0.000000   0.000000  -0.000000  -0.000000
    27  C    0.000001   0.000000  -0.000001   0.000000  -0.000000  -0.000001
    28  H   -0.000002   0.000000   0.000000  -0.000000   0.000000   0.000000
    29  H    0.000002  -0.000000  -0.000000   0.000000  -0.000000  -0.000000
    30  H    0.000003  -0.000000  -0.000001   0.000000  -0.000000  -0.000001
              13         14         15         16         17         18
     1  C   -0.000823  -0.000048  -0.000061   0.000043   0.003040  -0.000110
     2  C    0.004898  -0.000155  -0.000169   0.000817   0.004898   0.000817
     3  N   -0.000074  -0.000002   0.000008  -0.000001  -0.000381  -0.000009
     4  N   -0.029401  -0.006128  -0.000253  -0.004528  -0.029404  -0.004535
     5  C   -0.000001  -0.000000  -0.000001   0.000000   0.000026   0.000000
     6  H   -0.000000  -0.000000  -0.000000   0.000000   0.000002  -0.000000
     7  H   -0.000001  -0.000000  -0.000001   0.000000   0.000002  -0.000000
     8  H    0.000000   0.000000   0.000000  -0.000000  -0.000001   0.000000
     9  C    0.000026   0.000002   0.000002  -0.000001   0.000196   0.000023
    10  H    0.000000  -0.000000  -0.000000   0.000000   0.000022  -0.000000
    11  H    0.000002   0.000000   0.000000  -0.000000  -0.000039   0.000006
    12  H    0.000001   0.000002   0.000003  -0.000002  -0.000046   0.000012
    13  C   -0.011217   0.008697   0.000902   0.004983   0.002486   0.000917
    14  H    0.008697   0.019158  -0.000265  -0.002146   0.000158   0.000446
    15  H    0.000902  -0.000265   0.001306  -0.000057  -0.000062   0.000019
    16  H    0.004983  -0.002146  -0.000057   0.013968   0.000915  -0.000271
    17  C    0.002486   0.000158  -0.000062   0.000915  -0.011214   0.004990
    18  H    0.000917   0.000446   0.000019  -0.000271   0.004990   0.013990
    19  H    0.000158  -0.000126  -0.000028   0.000445   0.008690  -0.002147
    20  H   -0.000063  -0.000028  -0.000013   0.000019   0.000900  -0.000059
    21  C    0.003033   0.000387  -0.000099  -0.000108  -0.000824   0.000043
    22  N   -0.000381  -0.000026   0.000165  -0.000009  -0.000074  -0.000001
    23  C    0.000026   0.000002   0.000000   0.000000  -0.000001   0.000000
    24  H    0.000002   0.000000   0.000002  -0.000000  -0.000000   0.000000
    25  H    0.000002   0.000000   0.000003  -0.000000  -0.000001   0.000000
    26  H   -0.000001  -0.000000  -0.000002   0.000000   0.000000  -0.000000
    27  C    0.000195  -0.000040  -0.000047   0.000023   0.000026  -0.000001
    28  H    0.000023   0.000006   0.000012  -0.000000   0.000000   0.000000
    29  H   -0.000040  -0.000021  -0.000060   0.000006   0.000002  -0.000000
    30  H   -0.000047  -0.000060  -0.000095   0.000012   0.000001  -0.000002
              19         20         21         22         23         24
     1  C    0.000388  -0.000096   0.060062  -0.005895   0.003035   0.000389
     2  C   -0.000153  -0.000175   0.060038  -0.005896  -0.000823  -0.000048
     3  N   -0.000026   0.000166  -0.005885   0.001882  -0.000382  -0.000026
     4  N   -0.006126  -0.000252  -0.005889   0.001883  -0.000074  -0.000002
     5  C    0.000002   0.000000   0.003039  -0.000381   0.000198  -0.000039
     6  H    0.000000   0.000002   0.000390  -0.000026  -0.000039  -0.000021
     7  H    0.000000   0.000003  -0.000092   0.000167  -0.000048  -0.000061
     8  H   -0.000000  -0.000002  -0.000110  -0.000009   0.000022   0.000006
     9  C   -0.000040  -0.000048  -0.000827  -0.000074   0.000026   0.000002
    10  H    0.000006   0.000012   0.000043  -0.000001  -0.000001  -0.000000
    11  H   -0.000021  -0.000061  -0.000050  -0.000002   0.000002   0.000000
    12  H   -0.000060  -0.000095  -0.000064   0.000008   0.000002   0.000000
    13  C    0.000158  -0.000063   0.003033  -0.000381   0.000026   0.000002
    14  H   -0.000126  -0.000028   0.000387  -0.000026   0.000002   0.000000
    15  H   -0.000028  -0.000013  -0.000099   0.000165   0.000000   0.000002
    16  H    0.000445   0.000019  -0.000108  -0.000009   0.000000  -0.000000
    17  C    0.008690   0.000900  -0.000824  -0.000074  -0.000001  -0.000000
    18  H   -0.002147  -0.000059   0.000043  -0.000001   0.000000   0.000000
    19  H    0.019139  -0.000263  -0.000047  -0.000002  -0.000000  -0.000000
    20  H   -0.000263   0.001300  -0.000059   0.000008  -0.000001  -0.000000
    21  C   -0.000047  -0.000059  -0.081543  -0.068329   0.004900  -0.000153
    22  N   -0.000002   0.000008  -0.068329   0.478206  -0.029402  -0.006123
    23  C   -0.000000  -0.000001   0.004900  -0.029402  -0.011217   0.008680
    24  H   -0.000000  -0.000000  -0.000153  -0.006123   0.008680   0.019131
    25  H   -0.000000  -0.000001  -0.000187  -0.000243   0.000897  -0.000255
    26  H    0.000000   0.000000   0.000821  -0.004551   0.005007  -0.002152
    27  C    0.000002   0.000002   0.004897  -0.029395   0.002487   0.000158
    28  H   -0.000000  -0.000000   0.000817  -0.004528   0.000916   0.000446
    29  H    0.000000   0.000000  -0.000157  -0.006124   0.000158  -0.000127
    30  H    0.000002   0.000003  -0.000167  -0.000254  -0.000062  -0.000028
              25         26         27         28         29         30
     1  C   -0.000090  -0.000111  -0.000826   0.000043  -0.000049  -0.000062
     2  C   -0.000061   0.000043   0.003035  -0.000109   0.000388  -0.000100
     3  N    0.000168  -0.000009  -0.000073  -0.000001  -0.000002   0.000008
     4  N    0.000008  -0.000001  -0.000381  -0.000009  -0.000026   0.000165
     5  C   -0.000050   0.000023   0.000026  -0.000001   0.000002   0.000002
     6  H   -0.000062   0.000006   0.000002  -0.000000   0.000000   0.000000
     7  H   -0.000096   0.000012   0.000001  -0.000002   0.000002   0.000003
     8  H    0.000012  -0.000000   0.000000   0.000000  -0.000000  -0.000000
     9  C    0.000001   0.000000  -0.000001   0.000000  -0.000000  -0.000001
    10  H   -0.000002   0.000000   0.000000  -0.000000   0.000000   0.000000
    11  H    0.000002  -0.000000  -0.000000   0.000000  -0.000000  -0.000000
    12  H    0.000003  -0.000000  -0.000001   0.000000  -0.000000  -0.000001
    13  C    0.000002  -0.000001   0.000195   0.000023  -0.000040  -0.000047
    14  H    0.000000  -0.000000  -0.000040   0.000006  -0.000021  -0.000060
    15  H    0.000003  -0.000002  -0.000047   0.000012  -0.000060  -0.000095
    16  H   -0.000000   0.000000   0.000023  -0.000000   0.000006   0.000012
    17  C   -0.000001   0.000000   0.000026   0.000000   0.000002   0.000001
    18  H    0.000000  -0.000000  -0.000001   0.000000  -0.000000  -0.000002
    19  H   -0.000000   0.000000   0.000002  -0.000000   0.000000   0.000002
    20  H   -0.000001   0.000000   0.000002  -0.000000   0.000000   0.000003
    21  C   -0.000187   0.000821   0.004897   0.000817  -0.000157  -0.000167
    22  N   -0.000243  -0.004551  -0.029395  -0.004528  -0.006124  -0.000254
    23  C    0.000897   0.005007   0.002487   0.000916   0.000158  -0.000062
    24  H   -0.000255  -0.002152   0.000158   0.000446  -0.000127  -0.000028
    25  H    0.001283  -0.000065  -0.000064   0.000019  -0.000028  -0.000013
    26  H   -0.000065   0.014039   0.000919  -0.000271   0.000446   0.000019
    27  C   -0.000064   0.000919  -0.011223   0.004980   0.008695   0.000902
    28  H    0.000019  -0.000271   0.004980   0.013960  -0.002146  -0.000056
    29  H   -0.000028   0.000446   0.008695  -0.002146   0.019159  -0.000266
    30  H   -0.000013   0.000019   0.000902  -0.000056  -0.000266   0.001310
 Mulliken charges and spin densities:
               1          2
     1  C   -0.094346  -0.026096
     2  C   -0.094564  -0.026089
     3  N    0.097782   0.320571
     4  N    0.097799   0.320588
     5  C   -0.278365  -0.015694
     6  H    0.227195   0.019799
     7  H    0.167861   0.001198
     8  H    0.214971   0.014122
     9  C   -0.278641  -0.015703
    10  H    0.214949   0.014074
    11  H    0.227214   0.019823
    12  H    0.168045   0.001222
    13  C   -0.278442  -0.015701
    14  H    0.227187   0.019812
    15  H    0.167956   0.001207
    16  H    0.214930   0.014106
    17  C   -0.278346  -0.015692
    18  H    0.214919   0.014128
    19  H    0.227174   0.019793
    20  H    0.167925   0.001200
    21  C   -0.094416  -0.026121
    22  N    0.097786   0.320593
    23  C   -0.278072  -0.015691
    24  H    0.227144   0.019781
    25  H    0.167773   0.001178
    26  H    0.214931   0.014171
    27  C   -0.278388  -0.015703
    28  H    0.214888   0.014099
    29  H    0.227178   0.019812
    30  H    0.167972   0.001211
 Sum of Mulliken charges =   2.00000   1.00000
 Mulliken charges and spin densities with hydrogens summed into heavy atoms:
               1          2
     1  C   -0.094346  -0.026096
     2  C   -0.094564  -0.026089
     3  N    0.097782   0.320571
     4  N    0.097799   0.320588
     5  C    0.331661   0.019426
     9  C    0.331567   0.019416
    13  C    0.331630   0.019425
    17  C    0.331673   0.019429
    21  C   -0.094416  -0.026121
    22  N    0.097786   0.320593
    23  C    0.331776   0.019439
    27  C    0.331651   0.019419
 Electronic spatial extent (au):  <R**2>=           2550.8319
 Charge=              2.0000 electrons
 Dipole moment (field-independent basis, Debye):
    X=              0.0001    Y=              0.0000    Z=              0.0006  Tot=              0.0006
 Quadrupole moment (field-independent basis, Debye-Ang):
   XX=            -17.5225   YY=            -17.5304   ZZ=            -66.4686
   XY=             -0.0002   XZ=             -0.0014   YZ=              0.0008
 Traceless Quadrupole moment (field-independent basis, Debye-Ang):
   XX=             16.3180   YY=             16.3101   ZZ=            -32.6281
   XY=             -0.0002   XZ=             -0.0014   YZ=              0.0008
 Octapole moment (field-independent basis, Debye-Ang**2):
  XXX=             16.3211  YYY=             28.6504  ZZZ=              0.0022  XYY=            -16.3218
  XXY=            -28.6710  XXZ=              0.0024  XZZ=              0.0051  YZZ=              0.0053
  YYZ=              0.0028  XYZ=              0.0030
 Hexadecapole moment (field-independent basis, Debye-Ang**3):
 XXXX=          -1072.0735 YYYY=          -1071.8688 ZZZZ=           -120.1764 XXXY=             -0.0201
 XXXZ=              8.1163 YYYX=              0.0205 YYYZ=             -4.6035 ZZZX=             -0.0256
 ZZZY=              0.0058 XXYY=           -357.2810 XXZZ=           -244.7714 YYZZ=           -244.7530
 XXYZ=              4.6047 YYXZ=             -8.0842 ZZXY=             -0.0166
 N-N= 7.407629817128D+02 E-N=-2.652461681081D+03  KE= 5.145881384167D+02
                          Isotropic Fermi Contact Couplings
        Atom                 a.u.       MegaHertz       Gauss      10(-4) cm-1
     1  C(13)             -0.01066     -11.98095      -4.27510      -3.99642
     2  C(13)             -0.01066     -11.98200      -4.27548      -3.99677
     3  N(14)              0.03178      10.26693       3.66349       3.42468
     4  N(14)              0.03178      10.26726       3.66361       3.42479
     5  C(13)             -0.00853      -9.58969      -3.42184      -3.19878
     6  H(1)               0.00997      44.55321      15.89769      14.86135
     7  H(1)               0.00073       3.26559       1.16524       1.08928
     8  H(1)               0.00704      31.47979      11.23277      10.50053
     9  C(13)             -0.00853      -9.59078      -3.42223      -3.19914
    10  H(1)               0.00702      31.37572      11.19564      10.46581
    11  H(1)               0.00998      44.60044      15.91455      14.87710
    12  H(1)               0.00074       3.30731       1.18013       1.10320
    13  C(13)             -0.00853      -9.59266      -3.42290      -3.19977
    14  H(1)               0.00997      44.57442      15.90526      14.86843
    15  H(1)               0.00073       3.27646       1.16912       1.09291
    16  H(1)               0.00703      31.44319      11.21971      10.48832
    17  C(13)             -0.00853      -9.58896      -3.42158      -3.19853
    18  H(1)               0.00704      31.48781      11.23563      10.50320
    19  H(1)               0.00996      44.54057      15.89318      14.85713
    20  H(1)               0.00073       3.26193       1.16394       1.08806
    21  C(13)             -0.01066     -11.98299      -4.27583      -3.99710
    22  N(14)              0.03178      10.26774       3.66379       3.42495
    23  C(13)             -0.00853      -9.59194      -3.42264      -3.19953
    24  H(1)               0.00996      44.51004      15.88229      14.84695
    25  H(1)               0.00072       3.22161       1.14955       1.07461
    26  H(1)               0.00707      31.57976      11.26844      10.53387
    27  C(13)             -0.00853      -9.59059      -3.42216      -3.19908
    28  H(1)               0.00703      31.42257      11.21235      10.48144
    29  H(1)               0.00997      44.57302      15.90476      14.86796
    30  H(1)               0.00073       3.28534       1.17229       1.09587
 --------------------------------------------------------
       Center         ----  Spin Dipole Couplings  ----
                      3XX-RR        3YY-RR        3ZZ-RR
 --------------------------------------------------------
     1   Atom        0.018776      0.011621     -0.030397
     2   Atom       -0.003717      0.034119     -0.030402
     3   Atom       -0.388906     -0.382060      0.770966
     4   Atom       -0.367560     -0.403509      0.771069
     5   Atom       -0.010145      0.002520      0.007626
     6   Atom       -0.003732      0.006074     -0.002341
     7   Atom        0.001331      0.002360     -0.003691
     8   Atom       -0.000830      0.003684     -0.002853
     9   Atom        0.001653     -0.009254      0.007602
    10   Atom        0.004624     -0.001758     -0.002866
    11   Atom        0.005917     -0.003584     -0.002333
    12   Atom        0.001382      0.002310     -0.003692
    13   Atom       -0.003504     -0.004100      0.007604
    14   Atom       -0.000106      0.002441     -0.002335
    15   Atom        0.004430     -0.000736     -0.003694
    16   Atom       -0.001964      0.004824     -0.002860
    17   Atom        0.000537     -0.008158      0.007621
    18   Atom       -0.000091      0.002943     -0.002853
    19   Atom        0.003214     -0.000871     -0.002343
    20   Atom        0.004444     -0.000752     -0.003692
    21   Atom        0.030557     -0.000158     -0.030399
    22   Atom       -0.400117     -0.370896      0.771013
    23   Atom       -0.009564      0.001936      0.007628
    24   Atom       -0.002299      0.004645     -0.002346
    25   Atom       -0.000275      0.003967     -0.003692
    26   Atom        0.001625      0.001220     -0.002845
    27   Atom       -0.001822     -0.005781      0.007603
    28   Atom        0.005211     -0.002351     -0.002859
    29   Atom        0.004021     -0.001683     -0.002338
    30   Atom       -0.000240      0.003932     -0.003692
 --------------------------------------------------------
                        XY            XZ            YZ
 --------------------------------------------------------
     1   Atom        0.019789      0.012864     -0.015353
     2   Atom       -0.006803     -0.019744     -0.003478
     3   Atom       -0.018816     -0.132136      0.158356
     4   Atom        0.006453      0.203046      0.035329
     5   Atom       -0.001361     -0.004334     -0.003772
     6   Atom        0.000472      0.000881      0.004231
     7   Atom       -0.002704      0.001079     -0.002730
     8   Atom        0.003058     -0.002177     -0.004154
     9   Atom       -0.003495      0.004468      0.003599
    10   Atom        0.002080      0.004465      0.001395
    11   Atom       -0.001283     -0.004323     -0.000108
    12   Atom       -0.002711      0.002498     -0.001549
    13   Atom        0.006473      0.000885     -0.005664
    14   Atom        0.004752      0.002063      0.003801
    15   Atom        0.000956     -0.002584     -0.001387
    16   Atom        0.001724     -0.001022     -0.004571
    17   Atom       -0.004803     -0.001110      0.005638
    18   Atom       -0.003484     -0.002510      0.003962
    19   Atom       -0.004482      0.003224     -0.002879
    20   Atom        0.000909     -0.002903      0.000430
    21   Atom       -0.012985      0.006914      0.018794
    22   Atom        0.012355     -0.070923     -0.193725
    23   Atom       -0.002984     -0.005352      0.002086
    24   Atom       -0.003494      0.002267     -0.003679
    25   Atom        0.001760      0.000092      0.002927
    26   Atom       -0.003791     -0.003462      0.003175
    27   Atom        0.006169      0.005420     -0.001869
    28   Atom        0.000430      0.004680      0.000197
    29   Atom        0.004012     -0.004104     -0.001356
    30   Atom        0.001796      0.001825      0.002300
 --------------------------------------------------------


 ---------------------------------------------------------------------------------
              Anisotropic Spin Dipole Couplings in Principal Axis System
 ---------------------------------------------------------------------------------

       Atom             a.u.   MegaHertz   Gauss  10(-4) cm-1        Axes

              Baa    -0.0414    -5.555    -1.982    -1.853 -0.3088  0.3691  0.8766
     1 C(13)  Bbb     0.0061     0.817     0.291     0.272 -0.5616  0.6730 -0.4813
              Bcc     0.0353     4.738     1.691     1.580  0.7676  0.6409  0.0005
 
              Baa    -0.0414    -5.557    -1.983    -1.854  0.4741  0.0831  0.8765
     2 C(13)  Bbb     0.0061     0.819     0.292     0.273  0.8636  0.1500 -0.4813
              Bcc     0.0353     4.738     1.690     1.580 -0.1714  0.9852 -0.0006
 
              Baa    -0.4046   -15.605    -5.568    -5.205  0.7674  0.6411 -0.0001
     3 N(14)  Bbb    -0.4026   -15.528    -5.541    -5.179 -0.6315  0.7558 -0.1731
              Bcc     0.8072    31.132    11.109    10.385 -0.1109  0.1329  0.9849
 
              Baa    -0.4046   -15.606    -5.569    -5.206 -0.1726  0.9850  0.0002
     4 N(14)  Bbb    -0.4026   -15.528    -5.541    -5.180  0.9701  0.1700 -0.1730
              Bcc     0.8073    31.134    11.109    10.385  0.1704  0.0296  0.9849
 
              Baa    -0.0115    -1.543    -0.551    -0.515  0.9555  0.1596  0.2480
     5 C(13)  Bbb     0.0013     0.180     0.064     0.060 -0.2454  0.8965  0.3688
              Bcc     0.0102     1.363     0.486     0.455 -0.1635 -0.4133  0.8958
 
              Baa    -0.0046    -2.451    -0.874    -0.817 -0.6138 -0.2675  0.7428
     6 H(1)   Bbb    -0.0033    -1.756    -0.627    -0.586  0.7866 -0.2867  0.5468
              Bcc     0.0079     4.207     1.501     1.403  0.0667  0.9199  0.3864
 
              Baa    -0.0047    -2.529    -0.903    -0.844 -0.0073  0.3564  0.9343
     7 H(1)   Bbb    -0.0007    -0.384    -0.137    -0.128  0.8173  0.5404 -0.1998
              Bcc     0.0055     2.914     1.040     0.972 -0.5761  0.7622 -0.2953
 
              Baa    -0.0050    -2.670    -0.953    -0.891  0.2097  0.3607  0.9088
     8 H(1)   Bbb    -0.0024    -1.266    -0.452    -0.422  0.8865 -0.4622 -0.0211
              Bcc     0.0074     3.936     1.404     1.313  0.4124  0.8101 -0.4167
 
              Baa    -0.0115    -1.542    -0.550    -0.514  0.3270  0.9118 -0.2484
     9 C(13)  Bbb     0.0014     0.182     0.065     0.061  0.8384 -0.4012 -0.3689
              Bcc     0.0101     1.359     0.485     0.453  0.4360  0.0877  0.8957
 
              Baa    -0.0050    -2.670    -0.953    -0.890 -0.3916 -0.1400  0.9094
    10 H(1)   Bbb    -0.0024    -1.267    -0.452    -0.423 -0.2962  0.9549  0.0194
              Bcc     0.0074     3.937     1.405     1.313  0.8711  0.2618  0.4154
 
              Baa    -0.0046    -2.448    -0.874    -0.817  0.3733  0.5566  0.7422
    11 H(1)   Bbb    -0.0033    -1.756    -0.627    -0.586 -0.1419  0.8249 -0.5472
              Bcc     0.0079     4.205     1.500     1.403  0.9168 -0.0990 -0.3870
 
              Baa    -0.0047    -2.531    -0.903    -0.844 -0.3496  0.0707  0.9342
    12 H(1)   Bbb    -0.0007    -0.383    -0.137    -0.128  0.6770  0.7084  0.1997
              Bcc     0.0055     2.914     1.040     0.972 -0.6476  0.7023 -0.2956
 
              Baa    -0.0115    -1.542    -0.550    -0.514 -0.6264  0.7389  0.2482
    13 C(13)  Bbb     0.0014     0.183     0.065     0.061  0.7665  0.5259  0.3687
              Bcc     0.0101     1.359     0.485     0.453 -0.1419 -0.4212  0.8958
 
              Baa    -0.0046    -2.449    -0.874    -0.817  0.2953 -0.6010  0.7426
    14 H(1)   Bbb    -0.0033    -1.755    -0.626    -0.586  0.7859 -0.2892 -0.5466
              Bcc     0.0079     4.205     1.500     1.403  0.5433  0.7451  0.3869
 
              Baa    -0.0047    -2.530    -0.903    -0.844  0.2354  0.2673  0.9344
    15 H(1)   Bbb    -0.0007    -0.385    -0.137    -0.128 -0.2749  0.9405 -0.1997
              Bcc     0.0055     2.915     1.040     0.972  0.9322  0.2098 -0.2949
 
              Baa    -0.0050    -2.670    -0.953    -0.891  0.0731  0.4100  0.9091
    16 H(1)   Bbb    -0.0024    -1.267    -0.452    -0.423  0.9752 -0.2203  0.0209
              Bcc     0.0074     3.937     1.405     1.313  0.2088  0.8851 -0.4160
 
              Baa    -0.0115    -1.543    -0.550    -0.515  0.3394  0.9074 -0.2479
    17 C(13)  Bbb     0.0013     0.179     0.064     0.060  0.8989 -0.2351  0.3698
              Bcc     0.0102     1.363     0.486     0.455 -0.2772  0.3484  0.8954
 
              Baa    -0.0050    -2.670    -0.953    -0.891  0.2075 -0.3621  0.9088
    18 H(1)   Bbb    -0.0024    -1.266    -0.452    -0.422  0.8434  0.5369  0.0214
              Bcc     0.0074     3.936     1.404     1.313 -0.4956  0.7620  0.4168
 
              Baa    -0.0046    -2.451    -0.875    -0.818  0.0746  0.6647  0.7434
    19 H(1)   Bbb    -0.0033    -1.756    -0.627    -0.586  0.6417  0.5387 -0.5460
              Bcc     0.0079     4.207     1.501     1.403  0.7633 -0.5178  0.3863
 
              Baa    -0.0047    -2.530    -0.903    -0.844  0.3123 -0.1720  0.9343
    20 H(1)   Bbb    -0.0007    -0.384    -0.137    -0.128 -0.0597  0.9780  0.2000
              Bcc     0.0055     2.914     1.040     0.972  0.9481  0.1182 -0.2951
 
              Baa    -0.0414    -5.554    -1.982    -1.853 -0.1658 -0.4518  0.8766
    21 C(13)  Bbb     0.0061     0.816     0.291     0.272  0.3009  0.8234  0.4812
              Bcc     0.0353     4.738     1.691     1.581  0.9391 -0.3435  0.0006
 
              Baa    -0.4046   -15.606    -5.569    -5.206  0.9389 -0.3441 -0.0001
    22 N(14)  Bbb    -0.4026   -15.529    -5.541    -5.180  0.3389  0.9247  0.1731
              Bcc     0.8073    31.135    11.110    10.385 -0.0595 -0.1626  0.9849
 
              Baa    -0.0115    -1.543    -0.551    -0.515  0.9532  0.1732  0.2479
    23 C(13)  Bbb     0.0013     0.180     0.064     0.060 -0.0725  0.9266 -0.3690
              Bcc     0.0102     1.363     0.486     0.455 -0.2936  0.3337  0.8958
 
              Baa    -0.0046    -2.453    -0.875    -0.818 -0.6671  0.0439  0.7437
    24 H(1)   Bbb    -0.0033    -1.755    -0.626    -0.585  0.6437  0.5365  0.5458
              Bcc     0.0079     4.207     1.501     1.403 -0.3751  0.8427 -0.3862
 
              Baa    -0.0047    -2.528    -0.902    -0.843  0.1138 -0.3372  0.9345
    25 H(1)   Bbb    -0.0007    -0.386    -0.138    -0.129  0.9519 -0.2324 -0.1998
              Bcc     0.0055     2.914     1.040     0.972  0.2845  0.9123  0.2946
 
              Baa    -0.0050    -2.670    -0.953    -0.891  0.3212 -0.2677  0.9084
    26 H(1)   Bbb    -0.0024    -1.266    -0.452    -0.422  0.6774  0.7352 -0.0229
              Bcc     0.0074     3.936     1.405     1.313  0.6617 -0.6227 -0.4175
 
              Baa    -0.0115    -1.541    -0.550    -0.514 -0.6162  0.7475  0.2481
    27 C(13)  Bbb     0.0014     0.182     0.065     0.061  0.6533  0.6611 -0.3691
              Bcc     0.0101     1.359     0.485     0.453  0.4399  0.0654  0.8957
 
              Baa    -0.0050    -2.670    -0.953    -0.891 -0.4165  0.0001  0.9091
    28 H(1)   Bbb    -0.0024    -1.267    -0.452    -0.423 -0.0441  0.9988 -0.0203
              Bcc     0.0074     3.937     1.405     1.313  0.9080  0.0485  0.4160
 
              Baa    -0.0046    -2.449    -0.874    -0.817  0.5390 -0.3972  0.7427
    29 H(1)   Bbb    -0.0033    -1.756    -0.626    -0.586 -0.1456  0.8246  0.5467
              Bcc     0.0079     4.205     1.500     1.403  0.8296  0.4028 -0.3866
 
              Baa    -0.0047    -2.530    -0.903    -0.844 -0.3051 -0.1845  0.9343
    30 H(1)   Bbb    -0.0007    -0.384    -0.137    -0.128  0.8767 -0.4375  0.1999
              Bcc     0.0055     2.914     1.040     0.972  0.3718  0.8801  0.2953
 

 ---------------------------------------------------------------------------------

 No NMR shielding tensors so no spin-rotation constants.
 Leave Link  601 at Mon Jan 25 21:43:54 2021, MaxMem=  4026531840 cpu:               8.1 elap:               1.2
 (Enter /opt/ohpc/pub/libs/gaussian/g16-A.03/sandybridge/g16/l9999.exe)

 Test job not archived.
 1\1\GINC-CNODE237\SP\ULC-wHPBE\TZVP\C9H18N3(2+,2)\RDU230\25-Jan-2021\0
 \\#P LC-wHPBE/TZVP iop(3/107=0247300000, 3/108=0247300000) scf=(conver
 =6,fermi,ndamp=35,noincfock,novaracc,vshift=500,xqc)\\H18 C9 N3\\2,2\C
 ,0,-0.610862,0.51088,0.000115\C,0,-0.136805,-0.784324,0.000118\N,0,-1.
 625284,1.358829,0.000149\N,0,-0.364248,-2.086765,0.000256\C,0,-1.43024
 7,2.779535,-0.245115\H,0,-1.514482,3.356239,0.681778\H,0,-0.453085,2.9
 53583,-0.69457\H,0,-2.189123,3.132424,-0.948067\C,0,-2.988895,0.914734
 ,0.244915\H,0,-3.47163,1.599951,0.946347\H,0,-3.570653,0.893667,-0.682
 419\H,0,-2.986873,-0.077069,0.695991\C,0,0.701968,-3.045906,0.244739\H
 ,0,1.009895,-3.54009,-0.68252\H,0,1.56061,-2.548225,0.694397\H,0,0.350
 361,-3.805818,0.947208\C,0,-1.692259,-2.627901,-0.244928\H,0,-1.618712
 ,-3.461412,-0.948079\H,0,-2.149477,-2.989362,0.681963\H,0,-2.331523,-1
 .86843,-0.69401\C,0,0.747831,0.27381,0.000062\N,0,1.989493,0.728067,-0
 .000089\C,0,2.287295,2.130832,0.245062\H,0,2.563599,2.644356,-0.681638
 \H,0,1.426241,2.626112,0.692731\H,0,3.119706,2.205914,0.949371\C,0,3.1
 22069,-0.151615,-0.24503\H,0,3.807758,0.3292,-0.947323\H,0,3.663007,-0
 .367678,0.682084\H,0,2.784087,-1.084552,-0.695089\\Version=EM64L-G16Re
 vA.03\State=2-A\HF=-517.0778177\S2=0.776823\S2-1=0.\S2A=0.750447\RMSD=
 6.460e-07\Dipole=0.0000337,-0.0000172,-0.0002427\Quadrupole=12.1320341
 ,12.126157,-24.2581911,0.0001761,0.0010054,0.0006248\PG=C01 [X(C9H18N3
 )]\\@


 TIME IS IN FACT THE HERO OF THE PLOT. THE TIME
 WITH WHICH WE HAVE TO DEAL IS OF THE ORDER OF TWO
 BILLION YEARS...GIVEN SO MUCH TIME, THE "IMPOSSIBLE"
 BECOMES POSSIBLE, THE POSSIBLE PROBABLE, THE PROBABLE
 VIRTUALLY CERTAIN.  ONE HAS ONLY TO WAIT, TIME
 ITSELF PERFORMS THE MIRACLES.
 "ORIGIN OF LIFE" LECTURES, GEORGE WALD, 1954
 Job cpu time:       0 days  0 hours 30 minutes 27.3 seconds.
 Elapsed time:       0 days  0 hours  3 minutes 53.1 seconds.
 File lengths (MBytes):  RWF=    112 Int=      0 D2E=      0 Chk=     16 Scr=      8
 Normal termination of Gaussian 16 at Mon Jan 25 21:43:54 2021.
