 Entering Gaussian System, Link 0=g16
 Input=mol_NN_cp_frag_tune_c3.gjf
 Output=mol_NN_cp_frag_tune_c3.log
 Initial command:
 /opt/ohpc/pub/libs/gaussian/g16-A.03/sandybridge/g16/l1.exe "/mnt/gpfs2_4m/scratch/rdu230/ondemand/projects/init_structures/gaussian/wtuning/mol_NN_cp_frag/tuning_mol_NN_cp_frag_ocycle0/Gau-15615.inp" -scrdir="/mnt/gpfs2_4m/scratch/rdu230/ondemand/projects/init_structures/gaussian/wtuning/mol_NN_cp_frag/tuning_mol_NN_cp_frag_ocycle0/"
 Entering Link 1 = /opt/ohpc/pub/libs/gaussian/g16-A.03/sandybridge/g16/l1.exe PID=     15616.
  
 Copyright (c) 1988,1990,1992,1993,1995,1998,2003,2009,2016,
            Gaussian, Inc.  All Rights Reserved.
  
 This is part of the Gaussian(R) 16 program.  It is based on
 the Gaussian(R) 09 system (copyright 2009, Gaussian, Inc.),
 the Gaussian(R) 03 system (copyright 2003, Gaussian, Inc.),
 the Gaussian(R) 98 system (copyright 1998, Gaussian, Inc.),
 the Gaussian(R) 94 system (copyright 1995, Gaussian, Inc.),
 the Gaussian 92(TM) system (copyright 1992, Gaussian, Inc.),
 the Gaussian 90(TM) system (copyright 1990, Gaussian, Inc.),
 the Gaussian 88(TM) system (copyright 1988, Gaussian, Inc.),
 the Gaussian 86(TM) system (copyright 1986, Carnegie Mellon
 University), and the Gaussian 82(TM) system (copyright 1983,
 Carnegie Mellon University). Gaussian is a federally registered
 trademark of Gaussian, Inc.
  
 This software contains proprietary and confidential information,
 including trade secrets, belonging to Gaussian, Inc.
  
 This software is provided under written license and may be
 used, copied, transmitted, or stored only in accord with that
 written license.
  
 The following legend is applicable only to US Government
 contracts under FAR:
  
                    RESTRICTED RIGHTS LEGEND
  
 Use, reproduction and disclosure by the US Government is
 subject to restrictions as set forth in subparagraphs (a)
 and (c) of the Commercial Computer Software - Restricted
 Rights clause in FAR 52.227-19.
  
 Gaussian, Inc.
 340 Quinnipiac St., Bldg. 40, Wallingford CT 06492
  
  
 ---------------------------------------------------------------
 Warning -- This program may not be used in any manner that
 competes with the business of Gaussian, Inc. or will provide
 assistance to any competitor of Gaussian, Inc.  The licensee
 of this program is prohibited from giving any competitor of
 Gaussian, Inc. access to this program.  By using this program,
 the user acknowledges that Gaussian, Inc. is engaged in the
 business of creating and licensing software in the field of
 computational chemistry and represents and warrants to the
 licensee that it is not a competitor of Gaussian, Inc. and that
 it will not use this program in any manner prohibited above.
 ---------------------------------------------------------------
  

 Cite this work as:
 Gaussian 16, Revision A.03,
 M. J. Frisch, G. W. Trucks, H. B. Schlegel, G. E. Scuseria, 
 M. A. Robb, J. R. Cheeseman, G. Scalmani, V. Barone, 
 G. A. Petersson, H. Nakatsuji, X. Li, M. Caricato, A. V. Marenich, 
 J. Bloino, B. G. Janesko, R. Gomperts, B. Mennucci, H. P. Hratchian, 
 J. V. Ortiz, A. F. Izmaylov, J. L. Sonnenberg, D. Williams-Young, 
 F. Ding, F. Lipparini, F. Egidi, J. Goings, B. Peng, A. Petrone, 
 T. Henderson, D. Ranasinghe, V. G. Zakrzewski, J. Gao, N. Rega, 
 G. Zheng, W. Liang, M. Hada, M. Ehara, K. Toyota, R. Fukuda, 
 J. Hasegawa, M. Ishida, T. Nakajima, Y. Honda, O. Kitao, H. Nakai, 
 T. Vreven, K. Throssell, J. A. Montgomery, Jr., J. E. Peralta, 
 F. Ogliaro, M. J. Bearpark, J. J. Heyd, E. N. Brothers, K. N. Kudin, 
 V. N. Staroverov, T. A. Keith, R. Kobayashi, J. Normand, 
 K. Raghavachari, A. P. Rendell, J. C. Burant, S. S. Iyengar, 
 J. Tomasi, M. Cossi, J. M. Millam, M. Klene, C. Adamo, R. Cammi, 
 J. W. Ochterski, R. L. Martin, K. Morokuma, O. Farkas, 
 J. B. Foresman, and D. J. Fox, Gaussian, Inc., Wallingford CT, 2016.
 
 ******************************************
 Gaussian 16:  EM64L-G16RevA.03 25-Dec-2016
                25-Jan-2021 
 ******************************************
 %mem=30GB
 %nproc=8
 Will use up to    8 processors via shared memory.
 ----------------------------------------------------------------------
 #P LC-wHPBE/TZVP iop(3/107=0255800000, 3/108=0255800000) scf=(conver=6
 ,fermi,ndamp=35,noincfock,novaracc,vshift=500,xqc)
 ----------------------------------------------------------------------
 1/38=1,172=1/1;
 2/12=2,17=6,18=5,40=1/2;
 3/5=19,7=101,11=2,25=1,30=1,74=-71,107=255800000,108=255800000/1,2,3;
 4//1;
 5/5=100002,6=6,8=3,10=500,13=1,18=-1,22=13,38=1,93=35/2,8;
 6/7=2,8=2,9=2,10=2,28=1/1;
 99/5=1,9=1/99;
 Leave Link    1 at Mon Jan 25 21:15:33 2021, MaxMem=  4026531840 cpu:               1.6 elap:               0.3
 (Enter /opt/ohpc/pub/libs/gaussian/g16-A.03/sandybridge/g16/l101.exe)
 ---------
 H18 C9 N3
 ---------
 Symbolic Z-matrix:
 Charge =  2 Multiplicity = 2
 C                    -0.61086   0.51088   0.00012 
 C                    -0.13681  -0.78432   0.00012 
 N                    -1.62528   1.35883   0.00015 
 N                    -0.36425  -2.08677   0.00026 
 C                    -1.43025   2.77954  -0.24512 
 H                    -1.51448   3.35624   0.68178 
 H                    -0.45309   2.95358  -0.69457 
 H                    -2.18912   3.13242  -0.94807 
 C                    -2.9889    0.91473   0.24492 
 H                    -3.47163   1.59995   0.94635 
 H                    -3.57065   0.89367  -0.68242 
 H                    -2.98687  -0.07707   0.69599 
 C                     0.70197  -3.04591   0.24474 
 H                     1.00989  -3.54009  -0.68252 
 H                     1.56061  -2.54823   0.6944 
 H                     0.35036  -3.80582   0.94721 
 C                    -1.69226  -2.6279   -0.24493 
 H                    -1.61871  -3.46141  -0.94808 
 H                    -2.14948  -2.98936   0.68196 
 H                    -2.33152  -1.86843  -0.69401 
 C                     0.74783   0.27381   0.00006 
 N                     1.98949   0.72807  -0.00009 
 C                     2.2873    2.13083   0.24506 
 H                     2.5636    2.64436  -0.68164 
 H                     1.42624   2.62611   0.69273 
 H                     3.11971   2.20591   0.94937 
 C                     3.12207  -0.15162  -0.24503 
 H                     3.80776   0.3292   -0.94732 
 H                     3.66301  -0.36768   0.68208 
 H                     2.78409  -1.08455  -0.69509 
 
 ITRead=  0  0  0  0  0  0  0  0  0  0  0  0  0  0  0  0  0  0  0  0
 ITRead=  0  0  0  0  0  0  0  0  0  0
 MicOpt= -1 -1 -1 -1 -1 -1 -1 -1 -1 -1 -1 -1 -1 -1 -1 -1 -1 -1 -1 -1
 MicOpt= -1 -1 -1 -1 -1 -1 -1 -1 -1 -1
 NAtoms=     30 NQM=       30 NQMF=       0 NMMI=      0 NMMIF=      0
                NMic=       0 NMicF=      0.
                    Isotopes and Nuclear Properties:
 (Nuclear quadrupole moments (NQMom) in fm**2, nuclear magnetic moments (NMagM)
  in nuclear magnetons)

  Atom         1           2           3           4           5           6           7           8           9          10
 IAtWgt=          12          12          14          14          12           1           1           1          12           1
 AtmWgt=  12.0000000  12.0000000  14.0030740  14.0030740  12.0000000   1.0078250   1.0078250   1.0078250  12.0000000   1.0078250
 NucSpn=           0           0           2           2           0           1           1           1           0           1
 AtZEff=  -0.0000000  -0.0000000  -0.0000000  -0.0000000  -0.0000000  -0.0000000  -0.0000000  -0.0000000  -0.0000000  -0.0000000
 NQMom=    0.0000000   0.0000000   2.0440000   2.0440000   0.0000000   0.0000000   0.0000000   0.0000000   0.0000000   0.0000000
 NMagM=    0.0000000   0.0000000   0.4037610   0.4037610   0.0000000   2.7928460   2.7928460   2.7928460   0.0000000   2.7928460
 AtZNuc=   6.0000000   6.0000000   7.0000000   7.0000000   6.0000000   1.0000000   1.0000000   1.0000000   6.0000000   1.0000000

  Atom        11          12          13          14          15          16          17          18          19          20
 IAtWgt=           1           1          12           1           1           1          12           1           1           1
 AtmWgt=   1.0078250   1.0078250  12.0000000   1.0078250   1.0078250   1.0078250  12.0000000   1.0078250   1.0078250   1.0078250
 NucSpn=           1           1           0           1           1           1           0           1           1           1
 AtZEff=  -0.0000000  -0.0000000  -0.0000000  -0.0000000  -0.0000000  -0.0000000  -0.0000000  -0.0000000  -0.0000000  -0.0000000
 NQMom=    0.0000000   0.0000000   0.0000000   0.0000000   0.0000000   0.0000000   0.0000000   0.0000000   0.0000000   0.0000000
 NMagM=    2.7928460   2.7928460   0.0000000   2.7928460   2.7928460   2.7928460   0.0000000   2.7928460   2.7928460   2.7928460
 AtZNuc=   1.0000000   1.0000000   6.0000000   1.0000000   1.0000000   1.0000000   6.0000000   1.0000000   1.0000000   1.0000000

  Atom        21          22          23          24          25          26          27          28          29          30
 IAtWgt=          12          14          12           1           1           1          12           1           1           1
 AtmWgt=  12.0000000  14.0030740  12.0000000   1.0078250   1.0078250   1.0078250  12.0000000   1.0078250   1.0078250   1.0078250
 NucSpn=           0           2           0           1           1           1           0           1           1           1
 AtZEff=  -0.0000000  -0.0000000  -0.0000000  -0.0000000  -0.0000000  -0.0000000  -0.0000000  -0.0000000  -0.0000000  -0.0000000
 NQMom=    0.0000000   2.0440000   0.0000000   0.0000000   0.0000000   0.0000000   0.0000000   0.0000000   0.0000000   0.0000000
 NMagM=    0.0000000   0.4037610   0.0000000   2.7928460   2.7928460   2.7928460   0.0000000   2.7928460   2.7928460   2.7928460
 AtZNuc=   6.0000000   7.0000000   6.0000000   1.0000000   1.0000000   1.0000000   6.0000000   1.0000000   1.0000000   1.0000000
 Leave Link  101 at Mon Jan 25 21:15:33 2021, MaxMem=  4026531840 cpu:               0.7 elap:               0.1
 (Enter /opt/ohpc/pub/libs/gaussian/g16-A.03/sandybridge/g16/l202.exe)
                          Input orientation:                          
 ---------------------------------------------------------------------
 Center     Atomic      Atomic             Coordinates (Angstroms)
 Number     Number       Type             X           Y           Z
 ---------------------------------------------------------------------
      1          6           0       -0.610862    0.510880    0.000115
      2          6           0       -0.136805   -0.784324    0.000118
      3          7           0       -1.625284    1.358829    0.000149
      4          7           0       -0.364248   -2.086765    0.000256
      5          6           0       -1.430247    2.779535   -0.245115
      6          1           0       -1.514482    3.356239    0.681778
      7          1           0       -0.453085    2.953583   -0.694570
      8          1           0       -2.189123    3.132424   -0.948067
      9          6           0       -2.988895    0.914734    0.244915
     10          1           0       -3.471630    1.599951    0.946347
     11          1           0       -3.570653    0.893667   -0.682419
     12          1           0       -2.986873   -0.077069    0.695991
     13          6           0        0.701968   -3.045906    0.244739
     14          1           0        1.009895   -3.540090   -0.682520
     15          1           0        1.560610   -2.548225    0.694397
     16          1           0        0.350361   -3.805818    0.947208
     17          6           0       -1.692259   -2.627901   -0.244928
     18          1           0       -1.618712   -3.461412   -0.948079
     19          1           0       -2.149477   -2.989362    0.681963
     20          1           0       -2.331523   -1.868430   -0.694010
     21          6           0        0.747831    0.273810    0.000062
     22          7           0        1.989493    0.728067   -0.000089
     23          6           0        2.287295    2.130832    0.245062
     24          1           0        2.563599    2.644356   -0.681638
     25          1           0        1.426241    2.626112    0.692731
     26          1           0        3.119706    2.205914    0.949371
     27          6           0        3.122069   -0.151615   -0.245030
     28          1           0        3.807758    0.329200   -0.947323
     29          1           0        3.663007   -0.367678    0.682084
     30          1           0        2.784087   -1.084552   -0.695089
 ---------------------------------------------------------------------
                    Distance matrix (angstroms):
                    1          2          3          4          5
     1  C    0.000000
     2  C    1.379233   0.000000
     3  N    1.322146   2.609344   0.000000
     4  N    2.609325   1.322151   3.669105   0.000000
     5  C    2.424526   3.799240   1.454854   4.987729   0.000000
     6  H    3.062231   4.416663   2.113419   5.604802   1.094903
     7  H    2.544460   3.815046   2.097600   5.088790   1.089563
     8  H    3.203506   4.522386   2.088700   5.609761   1.092962
     9  C    2.424472   3.328835   1.454842   3.994700   2.479314
    10  H    3.203970   4.207276   2.088642   4.913531   2.641637
    11  H    3.061493   3.882373   2.113465   4.430582   2.886013
    12  H    2.544672   3.017836   2.097600   3.376550   3.386584
    13  C    3.799222   2.424486   4.987747   1.454833   6.222705
    14  H    4.416243   3.061889   5.604428   2.113435   6.788466
    15  H    3.815159   2.544521   5.088907   2.097583   6.181661
    16  H    4.522700   3.203707   5.610140   2.088666   6.925249
    17  C    3.328875   2.424512   3.994817   1.454839   5.413780
    18  H    4.206416   3.203424   4.912627   2.088701   6.283239
    19  H    3.883806   3.062344   4.432428   2.113397   5.887014
    20  H    3.017217   2.544383   3.375771   2.097581   4.755774
    21  C    1.379220   1.379213   2.609395   2.609413   3.329083
    22  N    2.609409   2.609304   3.669397   3.669247   3.995395
    23  C    3.329198   3.799262   3.995528   4.987859   3.805418
    24  H    3.885062   4.417332   4.434428   5.605424   4.019904
    25  H    3.017236   3.814957   3.376016   5.088868   3.010418
    26  H    4.206110   4.521888   4.912586   5.609443   4.738978
    27  C    3.799180   3.328765   4.987877   3.994919   5.414353
    28  H    4.522704   4.206799   5.610328   4.913291   5.825284
    29  H    4.416209   3.882943   5.604631   4.431584   6.058538
    30  H    3.815022   3.017459   5.088813   3.376381   5.735351
                    6          7          8          9         10
     6  H    0.000000
     7  H    1.784105   0.000000
     8  H    1.778097   1.763540   0.000000
     9  C    2.885427   3.386720   2.642156   0.000000
    10  H    2.642910   3.692769   2.753562   1.092960   0.000000
    11  H    3.486134   3.736661   2.644093   1.094913   1.778067
    12  H    3.735738   4.187910   3.693261   1.089563   1.763537
    13  C    6.789044   6.181449   6.924807   5.413792   6.284518
    14  H    7.469481   6.656444   7.404504   6.057715   7.011226
    15  H    6.657255   6.021137   7.001997   5.735165   6.526430
    16  H    7.405616   7.002176   7.627598   5.824728   6.620420
    17  C    6.058079   5.735041   5.824313   3.804139   4.739201
    18  H    7.010539   6.524961   6.618462   4.738279   5.713103
    19  H    6.377293   6.331760   6.335206   4.017163   4.783281
    20  H    5.464203   5.174972   5.009328   3.009937   4.002534
    21  C    3.883834   3.017598   4.206700   3.799192   4.523047
    22  N    4.432840   3.376598   4.913291   4.987907   5.610685
    23  C    4.018190   3.011563   4.739732   5.414524   5.825706
    24  H    4.358489   3.032519   4.785140   5.888997   6.337595
    25  H    3.030026   2.358751   4.002428   4.756341   5.010635
    26  H    4.782317   4.003297   5.713349   6.283185   6.619132
    27  C    5.887412   4.756687   6.283943   6.222622   6.925621
    28  H    6.335864   5.010594   6.619717   6.925227   7.628256
    29  H    6.377613   5.465177   7.011101   6.788483   7.405703
    30  H    6.331989   5.175502   6.525312   6.181268   7.002490
                   11         12         13         14         15
    11  H    0.000000
    12  H    1.784136   0.000000
    13  C    5.885163   4.756592   0.000000
    14  H    6.374921   5.465067   1.094918   0.000000
    15  H    6.330253   5.175540   1.089562   1.784092   0.000000
    16  H    6.333656   5.010370   1.092958   1.778092   1.763563
    17  C    4.015122   3.011328   2.479279   2.885344   3.386715
    18  H    4.779891   4.003574   2.642161   2.643158   3.693200
    19  H    4.354216   3.030327   2.885325   3.485218   3.736242
    20  H    3.027335   2.360204   3.386704   3.736262   4.187899
    21  C    4.415802   3.815160   3.329037   3.883353   3.017713
    22  N    5.604304   5.088909   3.995064   4.431985   3.376439
    23  C    6.058577   5.735417   5.414045   5.886554   4.756422
    24  H    6.379182   6.333384   6.058294   6.376627   5.464646
    25  H    5.464554   5.175208   5.735596   6.331406   5.176082
    26  H    7.010395   6.524302   5.824395   6.334898   5.009753
    27  C    6.787964   6.181444   3.804429   4.016770   3.010717
    28  H    7.404711   7.002324   4.739017   4.782213   4.003060
    29  H    7.468514   6.656242   4.016457   4.354922   3.029028
    30  H    6.655541   6.021138   3.010881   3.029452   2.360065
                   16         17         18         19         20
    16  H    0.000000
    17  C    2.642153   0.000000
    18  H    2.754628   1.092964   0.000000
    19  H    2.643132   1.094911   1.778083   0.000000
    20  H    3.693179   1.089555   1.763588   1.784077   0.000000
    21  C    4.206951   3.799209   4.522320   4.416749   3.814885
    22  N    4.913272   4.987762   5.609774   5.604957   5.088664
    23  C    6.283990   6.222739   6.924859   6.789125   6.181378
    24  H    7.011156   6.789679   7.405614   7.470694   6.657898
    25  H    6.526255   6.181335   7.001567   6.657283   6.020361
    26  H    6.618927   6.924386   7.627025   7.404505   7.001205
    27  C    4.738881   5.413848   5.824435   6.058162   5.735042
    28  H    5.713249   6.283947   6.619314   7.011139   6.525681
    29  H    4.781707   5.886156   6.334444   6.376378   6.330899
    30  H    4.003180   4.756285   5.009801   5.464854   5.175319
                   21         22         23         24         25
    21  C    0.000000
    22  N    1.322147   0.000000
    23  C    2.424563   1.454831   0.000000
    24  H    3.062877   2.113355   1.094908   0.000000
    25  H    2.544279   2.097577   1.089552   1.784042   0.000000
    26  H    3.203124   2.088753   1.092976   1.778110   1.763591
    27  C    2.424472   1.454842   2.479234   2.884436   3.386886
    28  H    3.203710   2.088644   2.641868   2.641679   3.692859
    29  H    3.061848   2.113449   2.885502   3.484363   3.737113
    30  H    2.544547   2.097616   3.386647   3.735445   4.187937
                   26         27         28         29         30
    26  H    0.000000
    27  C    2.642828   0.000000
    28  H    2.755525   1.092963   0.000000
    29  H    2.643860   1.094914   1.778077   0.000000
    30  H    3.693786   1.089567   1.763581   1.784100   0.000000
 Stoichiometry    C9H18N3(2+,2)
 Framework group  C1[X(C9H18N3)]
 Deg. of freedom    84
 Full point group                 C1      NOp   1
 Largest Abelian subgroup         C1      NOp   1
 Largest concise Abelian subgroup C1      NOp   1
                         Standard orientation:                         
 ---------------------------------------------------------------------
 Center     Atomic      Atomic             Coordinates (Angstroms)
 Number     Number       Type             X           Y           Z
 ---------------------------------------------------------------------
      1          6           0       -0.610975   -0.510745   -0.000115
      2          6           0       -0.136632    0.784354   -0.000118
      3          7           0       -1.625585   -1.358470   -0.000149
      4          7           0       -0.363786    2.086845   -0.000256
      5          6           0       -1.430862   -2.779219    0.245115
      6          1           0       -1.515224   -3.355904   -0.681778
      7          1           0       -0.453738   -2.953483    0.694570
      8          1           0       -2.189816   -3.131940    0.948067
      9          6           0       -2.989097   -0.914073   -0.244915
     10          1           0       -3.471984   -1.599183   -0.946347
     11          1           0       -3.570851   -0.892877    0.682419
     12          1           0       -2.986856    0.077730   -0.695991
     13          6           0        0.702642    3.045751   -0.244739
     14          1           0        1.010678    3.539867    0.682520
     15          1           0        1.561174    2.547880   -0.694397
     16          1           0        0.351203    3.805740   -0.947208
     17          6           0       -1.691678    2.628275    0.244928
     18          1           0       -1.617946    3.461770    0.948079
     19          1           0       -2.148816    2.989837   -0.681963
     20          1           0       -2.331110    1.868946    0.694010
     21          6           0        0.747770   -0.273975   -0.000062
     22          7           0        1.989332   -0.728507    0.000089
     23          6           0        2.286824   -2.131338   -0.245062
     24          1           0        2.563014   -2.644923    0.681638
     25          1           0        1.425660   -2.626427   -0.692731
     26          1           0        3.119218   -2.206604   -0.949371
     27          6           0        3.122102    0.150924    0.245030
     28          1           0        3.807685   -0.330042    0.947323
     29          1           0        3.663088    0.366868   -0.682084
     30          1           0        2.784327    1.083936    0.695089
 ---------------------------------------------------------------------
 Rotational constants (GHZ):           0.8639071           0.8637633           0.4436577
 Leave Link  202 at Mon Jan 25 21:15:33 2021, MaxMem=  4026531840 cpu:               0.2 elap:               0.0
 (Enter /opt/ohpc/pub/libs/gaussian/g16-A.03/sandybridge/g16/l301.exe)
 Standard basis: TZVP (5D, 7F)
 Ernie: Thresh=  0.10000D-02 Tol=  0.10000D-05 Strict=F.
 There are   348 symmetry adapted cartesian basis functions of A   symmetry.
 There are   336 symmetry adapted basis functions of A   symmetry.
   336 basis functions,   564 primitive gaussians,   348 cartesian basis functions
    46 alpha electrons       45 beta electrons
       nuclear repulsion energy       740.7629817128 Hartrees.
 IExCor=33909 DFT=T Ex+Corr=LC-wHPBE ExCW=0 ScaHFX=  1.000000
 ScaDFX=  1.000000  1.000000  1.000000  1.000000 ScalE2=  1.000000  1.000000
 IRadAn=      5 IRanWt=     -1 IRanGd=            0 ICorTp=0 IEmpDi=  4
 HFx  wShort=  0.000000 wLong=  0.255800 cFull=  0.000000 cShort=  0.000000 cLong=  1.000000
 DFx  wShort=  0.000000 wLong=  0.255800 cFull=  0.000000 cShort=  1.000000 cLong=  0.000000
 NAtoms=   30 NActive=   30 NUniq=   30 SFac= 1.00D+00 NAtFMM=   60 NAOKFM=F Big=F
 Integral buffers will be    131072 words long.
 Raffenetti 2 integral format.
 Two-electron integral symmetry is turned on.
 Leave Link  301 at Mon Jan 25 21:15:33 2021, MaxMem=  4026531840 cpu:               0.3 elap:               0.1
 (Enter /opt/ohpc/pub/libs/gaussian/g16-A.03/sandybridge/g16/l302.exe)
 NPDir=0 NMtPBC=     1 NCelOv=     1 NCel=       1 NClECP=     1 NCelD=      1
         NCelK=      1 NCelE2=     1 NClLst=     1 CellRange=     0.0.
 One-electron integrals computed using PRISM.
 One-electron integral symmetry used in STVInt
 NBasis=   336 RedAO= T EigKep=  2.74D-05  NBF=   336
 NBsUse=   336 1.00D-06 EigRej= -1.00D+00 NBFU=   336
 Precomputing XC quadrature grid using
 IXCGrd= 4 IRadAn=           5 IRanWt=          -1 IRanGd=           0 AccXCQ= 0.00D+00.
 Generated NRdTot=       0 NPtTot=           0 NUsed=           0 NTot=          32
 NSgBfM=   343   343   343   343   343 MxSgAt=    30 MxSgA2=    30.
 Leave Link  302 at Mon Jan 25 21:15:36 2021, MaxMem=  4026531840 cpu:              13.5 elap:               2.3
 (Enter /opt/ohpc/pub/libs/gaussian/g16-A.03/sandybridge/g16/l303.exe)
 DipDrv:  MaxL=1.
 Leave Link  303 at Mon Jan 25 21:15:36 2021, MaxMem=  4026531840 cpu:               1.8 elap:               0.4
 (Enter /opt/ohpc/pub/libs/gaussian/g16-A.03/sandybridge/g16/l401.exe)
 ExpMin= 9.52D-02 ExpMax= 1.97D+04 ExpMxC= 6.73D+02 IAcc=3 IRadAn=         5 AccDes= 0.00D+00
 Harris functional with IExCor=33909 and IRadAn=       5 diagonalized for initial guess.
 HarFok:  IExCor=33909 AccDes= 0.00D+00 IRadAn=         5 IDoV= 1 UseB2=F ITyADJ=14
 ICtDFT=  3500011 ScaDFX=  1.000000  1.000000  1.000000  1.000000
 FoFCou: FMM=F IPFlag=           0 FMFlag=      100000 FMFlg1=           0
         NFxFlg=           0 DoJE=T BraDBF=F KetDBF=T FulRan=T
         wScrn=  0.000000 ICntrl=       500 IOpCl=  0 I1Cent=   200000004 NGrid=           0
         NMat0=    1 NMatS0=      1 NMatT0=    0 NMatD0=    1 NMtDS0=    0 NMtDT0=    0
 Petite list used in FoFCou.
 Harris En= -505.075186689249    
 JPrj=0 DoOrth=F DoCkMO=F.
 Initial guess <Sx>= 0.0000 <Sy>= 0.0000 <Sz>= 0.5000 <S**2>= 0.7500 S= 0.5000
 Leave Link  401 at Mon Jan 25 21:15:39 2021, MaxMem=  4026531840 cpu:              24.3 elap:               3.5
 (Enter /opt/ohpc/pub/libs/gaussian/g16-A.03/sandybridge/g16/l502.exe)
 Integral symmetry usage will be decided dynamically.
 UHF open shell SCF:
 Using DIIS extrapolation, IDIIS=    10.
 NGot=  4026531840 LenX=  4026283142 LenY=  4026161597
 Requested convergence on RMS density matrix=1.00D-06 within  32 cycles.
 Requested convergence on MAX density matrix=1.00D-04.
 Requested convergence on             energy=1.00D-04.
 Virtual orbitals will be shifted by   0.500 hartree.
 No special actions if energy rises.
 Dynamic level shift is on during FON iterations.

 Cycle   1  Pass 1  IDiag  1:
 FoFJK:  IHMeth= 1 ICntrl=       0 DoSepK=T KAlg= 0 I1Cent=           0 FoldK=F
 IRaf=         1 NMat=       1 IRICut=       1 DoRegI=T DoRafI=F ISym2E= 0 IDoP0=0 IntGTp=1.
 FoFCou: FMM=F IPFlag=           0 FMFlag=      100000 FMFlg1=           0
         NFxFlg=           0 DoJE=T BraDBF=F KetDBF=F FulRan=T
         wScrn=  0.000000 ICntrl=       500 IOpCl=  0 I1Cent=           0 NGrid=           0
         NMat0=    1 NMatS0=      1 NMatT0=    0 NMatD0=    1 NMtDS0=    0 NMtDT0=    0
 Symmetry not used in FoFCou.
 E= -516.913353845349    
 DIIS: error= 2.66D-02 at cycle   1 NSaved=   1.
 NSaved= 1 IEnMin= 1 EnMin= -516.913353845349     IErMin= 1 ErrMin= 2.66D-02
 ErrMax= 2.66D-02  0.00D+00 EMaxC= 1.00D+00 BMatC= 7.70D-01 BMatP= 7.70D-01
 IDIUse=1 WtCom= 1.00D+00 WtEn= 0.00D+00
 Coeff-Com:  0.100D+01
 Coeff:      0.100D+01
 Gap=     0.458 Goal=   None    Shift=    0.500
 T= 1425. Gap= 0.852 NK=0 IS=   47 IE=  336 IFin=   46
          NO(<0.9)=   0  NV(>0.1)=   0     46.00e < EF      0.00e >EF  Err=0.0D+00
 Gap=     0.245 Goal=   None    Shift=    0.500
 T= 1425. Gap= 0.712 NK=0 IS=   46 IE=  336 IFin=   45
          NO(<0.9)=   0  NV(>0.1)=   0     45.00e < EF      0.00e >EF  Err=0.0D+00
 GapD=    0.245 DampG=1.000 DampE=0.500 DampFc=0.5000 IDamp=-1.
 Damping current iteration by 5.00D-01
 RMSDP=2.75D-03 MaxDP=1.62D-01              OVMax= 6.28D-02

 Cycle   2  Pass 1  IDiag  1:
 E= -517.016553430012     Delta-E=       -0.103199584663 Rises=F Damp=T
 DIIS: error= 1.04D-02 at cycle   2 NSaved=   2.
 NSaved= 2 IEnMin= 2 EnMin= -517.016553430012     IErMin= 2 ErrMin= 1.04D-02
 ErrMax= 1.04D-02  0.00D+00 EMaxC= 1.00D+00 BMatC= 1.30D-01 BMatP= 7.70D-01
 IDIUse=1 WtCom= 1.00D+00 WtEn= 0.00D+00
 Coeff-Com: -0.551D+00 0.155D+01
 Coeff:     -0.551D+00 0.155D+01
 Gap=     0.379 Goal=   None    Shift=    0.500
 T= 1289. Gap= 0.867 NK=0 IS=   47 IE=  336 IFin=   46
          NO(<0.9)=   0  NV(>0.1)=   0     46.00e < EF      0.00e >EF  Err=0.0D+00
 Gap=     0.263 Goal=   None    Shift=    0.500
 T= 1289. Gap= 0.749 NK=0 IS=   46 IE=  336 IFin=   45
          NO(<0.9)=   0  NV(>0.1)=   0     45.00e < EF      0.00e >EF  Err=0.0D+00
 GapD=    0.263 DampG=1.000 DampE=0.500 DampFc=0.5000 IDamp=-1.
 Damping current iteration by 5.00D-01
 RMSDP=1.96D-03 MaxDP=1.31D-01 DE=-1.03D-01 OVMax= 1.87D-02

 Cycle   3  Pass 1  IDiag  1:
 E= -517.052370254938     Delta-E=       -0.035816824926 Rises=F Damp=T
 DIIS: error= 4.46D-03 at cycle   3 NSaved=   3.
 NSaved= 3 IEnMin= 3 EnMin= -517.052370254938     IErMin= 3 ErrMin= 4.46D-03
 ErrMax= 4.46D-03  0.00D+00 EMaxC= 1.00D+00 BMatC= 2.71D-02 BMatP= 1.30D-01
 IDIUse=1 WtCom= 1.00D+00 WtEn= 0.00D+00
 Coeff-Com:  0.738D-01-0.101D+01 0.194D+01
 Coeff:      0.738D-01-0.101D+01 0.194D+01
 Gap=     0.379 Goal=   None    Shift=    0.500
 T= 1032. Gap= 0.879 NK=0 IS=   47 IE=  336 IFin=   46
          NO(<0.9)=   0  NV(>0.1)=   0     46.00e < EF      0.00e >EF  Err=0.0D+00
 Gap=     0.250 Goal=   None    Shift=    0.500
 T= 1032. Gap= 0.750 NK=0 IS=   46 IE=  336 IFin=   45
          NO(<0.9)=   0  NV(>0.1)=   0     45.00e < EF      0.00e >EF  Err=0.0D+00
 GapD=    0.250 DampG=1.000 DampE=1.000 DampFc=1.0000 IDamp=-1.
 RMSDP=1.11D-03 MaxDP=7.13D-02 DE=-3.58D-02 OVMax= 7.74D-03

 Cycle   4  Pass 1  IDiag  1:
 E= -517.083562909220     Delta-E=       -0.031192654282 Rises=F Damp=F
 DIIS: error= 1.61D-03 at cycle   4 NSaved=   4.
 NSaved= 4 IEnMin= 4 EnMin= -517.083562909220     IErMin= 4 ErrMin= 1.61D-03
 ErrMax= 1.61D-03  0.00D+00 EMaxC= 1.00D+00 BMatC= 1.04D-03 BMatP= 2.71D-02
 IDIUse=1 WtCom= 1.00D+00 WtEn= 0.00D+00
 Coeff-Com:  0.675D-01-0.231D+00 0.225D+00 0.939D+00
 Coeff:      0.675D-01-0.231D+00 0.225D+00 0.939D+00
 Gap=     0.377 Goal=   None    Shift=    0.500
 T=  479. Gap= 0.877 NK=0 IS=   47 IE=  336 IFin=   46
          NO(<0.9)=   0  NV(>0.1)=   0     46.00e < EF      0.00e >EF  Err=0.0D+00
 Gap=     0.252 Goal=   None    Shift=    0.500
 T=  479. Gap= 0.752 NK=0 IS=   46 IE=  336 IFin=   45
          NO(<0.9)=   0  NV(>0.1)=   0     45.00e < EF      0.00e >EF  Err=0.0D+00
 GapD=    0.252 DampG=1.000 DampE=1.000 DampFc=1.0000 IDamp=-1.
 RMSDP=1.06D-04 MaxDP=3.24D-03 DE=-3.12D-02 OVMax= 8.06D-03

 Cycle   5  Pass 1  IDiag  1:
 E= -517.084040520569     Delta-E=       -0.000477611349 Rises=F Damp=F
 DIIS: error= 1.13D-03 at cycle   5 NSaved=   5.
 NSaved= 5 IEnMin= 5 EnMin= -517.084040520569     IErMin= 5 ErrMin= 1.13D-03
 ErrMax= 1.13D-03  0.00D+00 EMaxC= 1.00D+00 BMatC= 2.83D-04 BMatP= 1.04D-03
 IDIUse=1 WtCom= 1.00D+00 WtEn= 0.00D+00
 Coeff-Com: -0.217D-01 0.221D+00-0.394D+00-0.392D+00 0.159D+01
 Coeff:     -0.217D-01 0.221D+00-0.394D+00-0.392D+00 0.159D+01
 Gap=     0.380 Goal=   None    Shift=    0.500
 Gap=     0.254 Goal=   None    Shift=    0.500
 GapD=    0.254 DampG=1.000 DampE=1.000 DampFc=1.0000 IDamp=-1.
 RMSDP=7.21D-05 MaxDP=3.43D-03 DE=-4.78D-04 OVMax= 7.00D-03

 Cycle   6  Pass 1  IDiag  1:
 E= -517.084312451129     Delta-E=       -0.000271930560 Rises=F Damp=F
 DIIS: error= 9.21D-04 at cycle   6 NSaved=   6.
 NSaved= 6 IEnMin= 6 EnMin= -517.084312451129     IErMin= 6 ErrMin= 9.21D-04
 ErrMax= 9.21D-04  0.00D+00 EMaxC= 1.00D+00 BMatC= 1.21D-04 BMatP= 2.83D-04
 IDIUse=1 WtCom= 1.00D+00 WtEn= 0.00D+00
 Coeff-Com: -0.181D-01 0.527D-02 0.552D-01-0.201D+00-0.120D+01 0.236D+01
 Coeff:     -0.181D-01 0.527D-02 0.552D-01-0.201D+00-0.120D+01 0.236D+01
 Gap=     0.381 Goal=   None    Shift=    0.500
 Gap=     0.256 Goal=   None    Shift=    0.500
 RMSDP=6.20D-05 MaxDP=3.99D-03 DE=-2.72D-04 OVMax= 6.90D-03

 Cycle   7  Pass 1  IDiag  1:
 E= -517.084476605883     Delta-E=       -0.000164154754 Rises=F Damp=F
 DIIS: error= 5.64D-04 at cycle   7 NSaved=   7.
 NSaved= 7 IEnMin= 7 EnMin= -517.084476605883     IErMin= 7 ErrMin= 5.64D-04
 ErrMax= 5.64D-04  0.00D+00 EMaxC= 1.00D+00 BMatC= 4.58D-05 BMatP= 1.21D-04
 IDIUse=1 WtCom= 1.00D+00 WtEn= 0.00D+00
 Coeff-Com:  0.189D-02-0.388D-01 0.745D-01 0.572D-01-0.455D+00-0.500D+00
 Coeff-Com:  0.186D+01
 Coeff:      0.189D-02-0.388D-01 0.745D-01 0.572D-01-0.455D+00-0.500D+00
 Coeff:      0.186D+01
 Gap=     0.382 Goal=   None    Shift=    0.500
 Gap=     0.256 Goal=   None    Shift=    0.500
 RMSDP=3.91D-05 MaxDP=3.13D-03 DE=-1.64D-04 OVMax= 4.52D-03

 Cycle   8  Pass 1  IDiag  1:
 E= -517.084543492337     Delta-E=       -0.000066886454 Rises=F Damp=F
 DIIS: error= 3.79D-04 at cycle   8 NSaved=   8.
 NSaved= 8 IEnMin= 8 EnMin= -517.084543492337     IErMin= 8 ErrMin= 3.79D-04
 ErrMax= 3.79D-04  0.00D+00 EMaxC= 1.00D+00 BMatC= 1.79D-05 BMatP= 4.58D-05
 IDIUse=1 WtCom= 1.00D+00 WtEn= 0.00D+00
 Coeff-Com:  0.426D-02 0.173D-02-0.185D-01 0.347D-01 0.431D+00-0.946D+00
 Coeff-Com: -0.695D+00 0.219D+01
 Coeff:      0.426D-02 0.173D-02-0.185D-01 0.347D-01 0.431D+00-0.946D+00
 Coeff:     -0.695D+00 0.219D+01
 Gap=     0.383 Goal=   None    Shift=    0.500
 Gap=     0.256 Goal=   None    Shift=    0.500
 RMSDP=2.42D-05 MaxDP=1.65D-03 DE=-6.69D-05 OVMax= 3.12D-03

 Cycle   9  Pass 1  IDiag  1:
 E= -517.084570439442     Delta-E=       -0.000026947106 Rises=F Damp=F
 DIIS: error= 2.19D-04 at cycle   9 NSaved=   9.
 NSaved= 9 IEnMin= 9 EnMin= -517.084570439442     IErMin= 9 ErrMin= 2.19D-04
 ErrMax= 2.19D-04  0.00D+00 EMaxC= 1.00D+00 BMatC= 6.72D-06 BMatP= 1.79D-05
 IDIUse=1 WtCom= 1.00D+00 WtEn= 0.00D+00
 Coeff-Com: -0.325D-02 0.112D-01-0.129D-01-0.105D+00 0.783D-02 0.773D+00
 Coeff-Com: -0.826D+00-0.182D+01 0.298D+01
 Coeff:     -0.325D-02 0.112D-01-0.129D-01-0.105D+00 0.783D-02 0.773D+00
 Coeff:     -0.826D+00-0.182D+01 0.298D+01
 Gap=     0.383 Goal=   None    Shift=    0.500
 Gap=     0.256 Goal=   None    Shift=    0.500
 RMSDP=1.35D-05 MaxDP=7.49D-04 DE=-2.69D-05 OVMax= 1.95D-03

 Cycle  10  Pass 1  IDiag  1:
 E= -517.084580096454     Delta-E=       -0.000009657012 Rises=F Damp=F
 DIIS: error= 1.22D-04 at cycle  10 NSaved=  10.
 NSaved=10 IEnMin=10 EnMin= -517.084580096454     IErMin=10 ErrMin= 1.22D-04
 ErrMax= 1.22D-04  0.00D+00 EMaxC= 1.00D+00 BMatC= 2.10D-06 BMatP= 6.72D-06
 IDIUse=1 WtCom= 1.00D+00 WtEn= 0.00D+00
 Coeff-Com:  0.598D-03-0.458D-02 0.749D-02 0.174D-01-0.422D-01-0.110D+00
 Coeff-Com:  0.379D+00 0.109D+00-0.215D+01 0.280D+01
 Coeff:      0.598D-03-0.458D-02 0.749D-02 0.174D-01-0.422D-01-0.110D+00
 Coeff:      0.379D+00 0.109D+00-0.215D+01 0.280D+01
 Gap=     0.383 Goal=   None    Shift=    0.500
 Gap=     0.257 Goal=   None    Shift=    0.500
 RMSDP=7.38D-06 MaxDP=3.80D-04 DE=-9.66D-06 OVMax= 1.06D-03

 Cycle  11  Pass 1  IDiag  1:
 E= -517.084582941779     Delta-E=       -0.000002845325 Rises=F Damp=F
 DIIS: error= 6.69D-05 at cycle  11 NSaved=  11.
 NSaved=11 IEnMin=11 EnMin= -517.084582941779     IErMin=11 ErrMin= 6.69D-05
 ErrMax= 6.69D-05  0.00D+00 EMaxC= 1.00D+00 BMatC= 6.22D-07 BMatP= 2.10D-06
 IDIUse=1 WtCom= 1.00D+00 WtEn= 0.00D+00
 Coeff-Com: -0.369D-03 0.127D-02-0.136D-02-0.130D-01 0.256D-01 0.388D-01
 Coeff-Com: -0.121D+00-0.145D+00 0.101D+01-0.270D+01 0.291D+01
 Coeff:     -0.369D-03 0.127D-02-0.136D-02-0.130D-01 0.256D-01 0.388D-01
 Coeff:     -0.121D+00-0.145D+00 0.101D+01-0.270D+01 0.291D+01
 Gap=     0.383 Goal=   None    Shift=    0.500
 Gap=     0.257 Goal=   None    Shift=    0.500
 RMSDP=3.96D-06 MaxDP=2.17D-04 DE=-2.85D-06 OVMax= 5.71D-04

 Cycle  12  Pass 1  IDiag  1:
 E= -517.084583742657     Delta-E=       -0.000000800878 Rises=F Damp=F
 DIIS: error= 3.48D-05 at cycle  12 NSaved=  12.
 NSaved=12 IEnMin=12 EnMin= -517.084583742657     IErMin=12 ErrMin= 3.48D-05
 ErrMax= 3.48D-05  0.00D+00 EMaxC= 1.00D+00 BMatC= 1.82D-07 BMatP= 6.22D-07
 IDIUse=1 WtCom= 1.00D+00 WtEn= 0.00D+00
 Coeff-Com: -0.172D-03 0.107D-02-0.175D-02-0.988D-02 0.132D-01 0.517D-01
 Coeff-Com: -0.114D+00-0.853D-01 0.525D+00-0.722D+00-0.635D+00 0.198D+01
 Coeff:     -0.172D-03 0.107D-02-0.175D-02-0.988D-02 0.132D-01 0.517D-01
 Coeff:     -0.114D+00-0.853D-01 0.525D+00-0.722D+00-0.635D+00 0.198D+01
 Gap=     0.383 Goal=   None    Shift=    0.500
 Gap=     0.257 Goal=   None    Shift=    0.500
 RMSDP=2.08D-06 MaxDP=1.07D-04 DE=-8.01D-07 OVMax= 3.01D-04

 Cycle  13  Pass 1  IDiag  1:
 E= -517.084583964776     Delta-E=       -0.000000222119 Rises=F Damp=F
 DIIS: error= 1.81D-05 at cycle  13 NSaved=  13.
 NSaved=13 IEnMin=13 EnMin= -517.084583964776     IErMin=13 ErrMin= 1.81D-05
 ErrMax= 1.81D-05  0.00D+00 EMaxC= 1.00D+00 BMatC= 5.39D-08 BMatP= 1.82D-07
 IDIUse=1 WtCom= 1.00D+00 WtEn= 0.00D+00
 Coeff-Com:  0.219D-04 0.133D-03-0.436D-03-0.254D-02 0.748D-03 0.191D-01
 Coeff-Com: -0.286D-01-0.132D-01-0.188D-01 0.415D+00-0.128D+01 0.707D+00
 Coeff-Com:  0.120D+01
 Coeff:      0.219D-04 0.133D-03-0.436D-03-0.254D-02 0.748D-03 0.191D-01
 Coeff:     -0.286D-01-0.132D-01-0.188D-01 0.415D+00-0.128D+01 0.707D+00
 Coeff:      0.120D+01
 Gap=     0.383 Goal=   None    Shift=    0.500
 Gap=     0.257 Goal=   None    Shift=    0.500
 RMSDP=1.14D-06 MaxDP=5.79D-05 DE=-2.22D-07 OVMax= 1.59D-04

 Cycle  14  Pass 1  IDiag  1:
 E= -517.084584027208     Delta-E=       -0.000000062432 Rises=F Damp=F
 DIIS: error= 9.57D-06 at cycle  14 NSaved=  14.
 NSaved=14 IEnMin=14 EnMin= -517.084584027208     IErMin=14 ErrMin= 9.57D-06
 ErrMax= 9.57D-06  0.00D+00 EMaxC= 1.00D+00 BMatC= 1.51D-08 BMatP= 5.39D-08
 IDIUse=1 WtCom= 1.00D+00 WtEn= 0.00D+00
 Coeff-Com:  0.560D-04-0.388D-03 0.629D-03 0.223D-02-0.350D-02-0.131D-01
 Coeff-Com:  0.340D-01 0.159D-01-0.175D+00 0.335D+00-0.120D+00-0.595D+00
 Coeff-Com: -0.231D+00 0.175D+01
 Coeff:      0.560D-04-0.388D-03 0.629D-03 0.223D-02-0.350D-02-0.131D-01
 Coeff:      0.340D-01 0.159D-01-0.175D+00 0.335D+00-0.120D+00-0.595D+00
 Coeff:     -0.231D+00 0.175D+01
 Gap=     0.383 Goal=   None    Shift=    0.500
 Gap=     0.257 Goal=   None    Shift=    0.500
 RMSDP=6.48D-07 MaxDP=3.55D-05 DE=-6.24D-08 OVMax= 8.39D-05

 SCF Done:  E(ULC-wHPBE) =  -517.084584027     A.U. after   14 cycles
            NFock= 14  Conv=0.65D-06     -V/T= 2.0049
 <Sx>= 0.0000 <Sy>= 0.0000 <Sz>= 0.5000 <S**2>= 0.7784 S= 0.5141
 <L.S>= 0.000000000000E+00
 KE= 5.145744712397D+02 PE=-2.652442952033D+03 EE= 8.800209150531D+02
 Annihilation of the first spin contaminant:
 S**2 before annihilation     0.7784,   after     0.7505
 Leave Link  502 at Mon Jan 25 21:19:26 2021, MaxMem=  4026531840 cpu:            1778.1 elap:             226.2
 (Enter /opt/ohpc/pub/libs/gaussian/g16-A.03/sandybridge/g16/l508.exe)
 QCSCF skips out because SCF is already converged.
 Leave Link  508 at Mon Jan 25 21:19:26 2021, MaxMem=  4026531840 cpu:               0.2 elap:               0.0
 (Enter /opt/ohpc/pub/libs/gaussian/g16-A.03/sandybridge/g16/l601.exe)
 Copying SCF densities to generalized density rwf, IOpCl= 1 IROHF=0.

 **********************************************************************

            Population analysis using the SCF density.

 **********************************************************************

 Orbital symmetries:
 Alpha Orbitals:
       Occupied  (A) (A) (A) (A) (A) (A) (A) (A) (A) (A) (A) (A)
                 (A) (A) (A) (A) (A) (A) (A) (A) (A) (A) (A) (A)
                 (A) (A) (A) (A) (A) (A) (A) (A) (A) (A) (A) (A)
                 (A) (A) (A) (A) (A) (A) (A) (A) (A) (A)
       Virtual   (A) (A) (A) (A) (A) (A) (A) (A) (A) (A) (A) (A)
                 (A) (A) (A) (A) (A) (A) (A) (A) (A) (A) (A) (A)
                 (A) (A) (A) (A) (A) (A) (A) (A) (A) (A) (A) (A)
                 (A) (A) (A) (A) (A) (A) (A) (A) (A) (A) (A) (A)
                 (A) (A) (A) (A) (A) (A) (A) (A) (A) (A) (A) (A)
                 (A) (A) (A) (A) (A) (A) (A) (A) (A) (A) (A) (A)
                 (A) (A) (A) (A) (A) (A) (A) (A) (A) (A) (A) (A)
                 (A) (A) (A) (A) (A) (A) (A) (A) (A) (A) (A) (A)
                 (A) (A) (A) (A) (A) (A) (A) (A) (A) (A) (A) (A)
                 (A) (A) (A) (A) (A) (A) (A) (A) (A) (A) (A) (A)
                 (A) (A) (A) (A) (A) (A) (A) (A) (A) (A) (A) (A)
                 (A) (A) (A) (A) (A) (A) (A) (A) (A) (A) (A) (A)
                 (A) (A) (A) (A) (A) (A) (A) (A) (A) (A) (A) (A)
                 (A) (A) (A) (A) (A) (A) (A) (A) (A) (A) (A) (A)
                 (A) (A) (A) (A) (A) (A) (A) (A) (A) (A) (A) (A)
                 (A) (A) (A) (A) (A) (A) (A) (A) (A) (A) (A) (A)
                 (A) (A) (A) (A) (A) (A) (A) (A) (A) (A) (A) (A)
                 (A) (A) (A) (A) (A) (A) (A) (A) (A) (A) (A) (A)
                 (A) (A) (A) (A) (A) (A) (A) (A) (A) (A) (A) (A)
                 (A) (A) (A) (A) (A) (A) (A) (A) (A) (A) (A) (A)
                 (A) (A) (A) (A) (A) (A) (A) (A) (A) (A) (A) (A)
                 (A) (A) (A) (A) (A) (A) (A) (A) (A) (A) (A) (A)
                 (A) (A) (A) (A) (A) (A) (A) (A) (A) (A) (A) (A)
                 (A) (A) (A) (A) (A) (A) (A) (A) (A) (A) (A) (A)
                 (A) (A)
 Beta  Orbitals:
       Occupied  (A) (A) (A) (A) (A) (A) (A) (A) (A) (A) (A) (A)
                 (A) (A) (A) (A) (A) (A) (A) (A) (A) (A) (A) (A)
                 (A) (A) (A) (A) (A) (A) (A) (A) (A) (A) (A) (A)
                 (A) (A) (A) (A) (A) (A) (A) (A) (A)
       Virtual   (A) (A) (A) (A) (A) (A) (A) (A) (A) (A) (A) (A)
                 (A) (A) (A) (A) (A) (A) (A) (A) (A) (A) (A) (A)
                 (A) (A) (A) (A) (A) (A) (A) (A) (A) (A) (A) (A)
                 (A) (A) (A) (A) (A) (A) (A) (A) (A) (A) (A) (A)
                 (A) (A) (A) (A) (A) (A) (A) (A) (A) (A) (A) (A)
                 (A) (A) (A) (A) (A) (A) (A) (A) (A) (A) (A) (A)
                 (A) (A) (A) (A) (A) (A) (A) (A) (A) (A) (A) (A)
                 (A) (A) (A) (A) (A) (A) (A) (A) (A) (A) (A) (A)
                 (A) (A) (A) (A) (A) (A) (A) (A) (A) (A) (A) (A)
                 (A) (A) (A) (A) (A) (A) (A) (A) (A) (A) (A) (A)
                 (A) (A) (A) (A) (A) (A) (A) (A) (A) (A) (A) (A)
                 (A) (A) (A) (A) (A) (A) (A) (A) (A) (A) (A) (A)
                 (A) (A) (A) (A) (A) (A) (A) (A) (A) (A) (A) (A)
                 (A) (A) (A) (A) (A) (A) (A) (A) (A) (A) (A) (A)
                 (A) (A) (A) (A) (A) (A) (A) (A) (A) (A) (A) (A)
                 (A) (A) (A) (A) (A) (A) (A) (A) (A) (A) (A) (A)
                 (A) (A) (A) (A) (A) (A) (A) (A) (A) (A) (A) (A)
                 (A) (A) (A) (A) (A) (A) (A) (A) (A) (A) (A) (A)
                 (A) (A) (A) (A) (A) (A) (A) (A) (A) (A) (A) (A)
                 (A) (A) (A) (A) (A) (A) (A) (A) (A) (A) (A) (A)
                 (A) (A) (A) (A) (A) (A) (A) (A) (A) (A) (A) (A)
                 (A) (A) (A) (A) (A) (A) (A) (A) (A) (A) (A) (A)
                 (A) (A) (A) (A) (A) (A) (A) (A) (A) (A) (A) (A)
                 (A) (A) (A) (A) (A) (A) (A) (A) (A) (A) (A) (A)
                 (A) (A) (A)
 The electronic state is 2-A.
 Alpha  occ. eigenvalues --  -14.53004 -14.53004 -14.53003 -10.43972 -10.43907
 Alpha  occ. eigenvalues --  -10.43906 -10.34610 -10.34609 -10.34609 -10.34607
 Alpha  occ. eigenvalues --  -10.34607 -10.34606  -1.40526  -1.36530  -1.36530
 Alpha  occ. eigenvalues --   -1.30968  -1.11339  -1.11338  -1.10248  -1.09838
 Alpha  occ. eigenvalues --   -1.09837  -1.08144  -0.93624  -0.93624  -0.92830
 Alpha  occ. eigenvalues --   -0.90720  -0.88853  -0.88853  -0.86578  -0.86578
 Alpha  occ. eigenvalues --   -0.85804  -0.80026  -0.79292  -0.79291  -0.78714
 Alpha  occ. eigenvalues --   -0.77267  -0.77265  -0.77071  -0.77070  -0.76988
 Alpha  occ. eigenvalues --   -0.75336  -0.75335  -0.74409  -0.69006  -0.69005
 Alpha  occ. eigenvalues --   -0.60754
 Alpha virt. eigenvalues --   -0.22467  -0.22465  -0.19386  -0.13565  -0.13564
 Alpha virt. eigenvalues --   -0.13000  -0.12710  -0.11354  -0.11353  -0.09566
 Alpha virt. eigenvalues --   -0.09565  -0.09055  -0.08967  -0.08091  -0.08090
 Alpha virt. eigenvalues --   -0.07371  -0.06936  -0.06931  -0.06051  -0.05413
 Alpha virt. eigenvalues --   -0.05408  -0.05218  -0.05215  -0.03979  -0.01806
 Alpha virt. eigenvalues --   -0.01650  -0.01646  -0.00788  -0.00784  -0.00082
 Alpha virt. eigenvalues --    0.02367   0.02376   0.04393   0.04399   0.04593
 Alpha virt. eigenvalues --    0.05529   0.06895   0.07811   0.07816   0.09717
 Alpha virt. eigenvalues --    0.10997   0.11006   0.11706   0.12304   0.12313
 Alpha virt. eigenvalues --    0.13272   0.14174   0.14180   0.16525   0.16530
 Alpha virt. eigenvalues --    0.18060   0.19196   0.20554   0.20565   0.22357
 Alpha virt. eigenvalues --    0.22772   0.23513   0.23519   0.23940   0.23948
 Alpha virt. eigenvalues --    0.24788   0.25917   0.25919   0.26165   0.27773
 Alpha virt. eigenvalues --    0.27778   0.28014   0.28639   0.28642   0.30092
 Alpha virt. eigenvalues --    0.30103   0.31481   0.31980   0.32288   0.32721
 Alpha virt. eigenvalues --    0.32731   0.34252   0.34256   0.34273   0.37246
 Alpha virt. eigenvalues --    0.37249   0.40912   0.40914   0.44424   0.44726
 Alpha virt. eigenvalues --    0.44733   0.44906   0.44912   0.45686   0.49519
 Alpha virt. eigenvalues --    0.50310   0.50313   0.51641   0.57489   0.57504
 Alpha virt. eigenvalues --    0.62075   0.62080   0.62619   0.91003   0.91372
 Alpha virt. eigenvalues --    0.91378   0.94071   0.98947   1.01511   1.01526
 Alpha virt. eigenvalues --    1.02279   1.03348   1.06290   1.06296   1.07841
 Alpha virt. eigenvalues --    1.07843   1.10435   1.10440   1.11064   1.12059
 Alpha virt. eigenvalues --    1.12592   1.13162   1.13166   1.14799   1.14805
 Alpha virt. eigenvalues --    1.15954   1.16994   1.17006   1.19531   1.21343
 Alpha virt. eigenvalues --    1.21347   1.21694   1.21708   1.23078   1.23862
 Alpha virt. eigenvalues --    1.25925   1.25939   1.26970   1.26973   1.28341
 Alpha virt. eigenvalues --    1.32359   1.33093   1.33180   1.33185   1.34210
 Alpha virt. eigenvalues --    1.34221   1.36137   1.36141   1.38837   1.40000
 Alpha virt. eigenvalues --    1.40776   1.40789   1.41925   1.41929   1.42473
 Alpha virt. eigenvalues --    1.45301   1.45304   1.47318   1.48892   1.48895
 Alpha virt. eigenvalues --    1.50967   1.52745   1.52749   1.54484   1.55228
 Alpha virt. eigenvalues --    1.55229   1.56110   1.56116   1.56332   1.56382
 Alpha virt. eigenvalues --    1.56525   1.56530   1.57307   1.58810   1.58813
 Alpha virt. eigenvalues --    1.59200   1.59442   1.59455   1.60340   1.64364
 Alpha virt. eigenvalues --    1.64371   1.64905   1.64909   1.66288   1.77013
 Alpha virt. eigenvalues --    1.78904   1.78915   1.83178   1.83192   1.83360
 Alpha virt. eigenvalues --    1.86850   1.89234   1.89241   1.91128   1.93163
 Alpha virt. eigenvalues --    1.93170   1.98228   1.98466   1.98476   2.04819
 Alpha virt. eigenvalues --    2.05149   2.05157   2.05417   2.06539   2.07424
 Alpha virt. eigenvalues --    2.07431   2.08464   2.10610   2.10627   2.12105
 Alpha virt. eigenvalues --    2.12110   2.12184   2.13696   2.15185   2.15194
 Alpha virt. eigenvalues --    2.17629   2.21844   2.21857   2.27730   2.27740
 Alpha virt. eigenvalues --    2.28863   2.28971   2.28978   2.31190   2.32135
 Alpha virt. eigenvalues --    2.32143   2.32850   2.35217   2.35249   2.36957
 Alpha virt. eigenvalues --    2.38193   2.38207   2.38737   2.41453   2.43756
 Alpha virt. eigenvalues --    2.43767   2.44600   2.47587   2.47592   2.48386
 Alpha virt. eigenvalues --    2.50864   2.50877   2.51902   2.53860   2.53882
 Alpha virt. eigenvalues --    2.57147   2.57149   2.60856   2.60876   2.63377
 Alpha virt. eigenvalues --    2.63380   2.69497   2.69499   2.85213   2.86782
 Alpha virt. eigenvalues --    2.86811   2.87595   2.88709   2.88720   2.92938
 Alpha virt. eigenvalues --    2.95713   2.95717   3.05621   3.05632   3.07805
 Alpha virt. eigenvalues --    3.08020   3.08025   3.08996   3.10493   3.10506
 Alpha virt. eigenvalues --    3.11661   3.16183   3.16204   3.17166   3.20243
 Alpha virt. eigenvalues --    3.20252   3.22703   3.28066   3.46818   3.46832
 Alpha virt. eigenvalues --    3.56950   3.71041   3.71049  21.20662  21.52244
 Alpha virt. eigenvalues --   21.54364  21.54371  21.70276  21.70279  21.74499
 Alpha virt. eigenvalues --   21.93795  21.93809  31.31793  31.50979  31.50984
  Beta  occ. eigenvalues --  -14.52342 -14.52341 -14.52339 -10.44023 -10.43959
  Beta  occ. eigenvalues --  -10.43959 -10.34628 -10.34628 -10.34628 -10.34625
  Beta  occ. eigenvalues --  -10.34625 -10.34624  -1.39910  -1.35568  -1.35567
  Beta  occ. eigenvalues --   -1.30034  -1.11193  -1.11192  -1.10089  -1.09708
  Beta  occ. eigenvalues --   -1.09708  -1.07907  -0.93241  -0.93241  -0.92432
  Beta  occ. eigenvalues --   -0.89694  -0.88576  -0.88576  -0.85410  -0.85106
  Beta  occ. eigenvalues --   -0.85106  -0.79136  -0.79135  -0.79077  -0.78604
  Beta  occ. eigenvalues --   -0.76943  -0.76941  -0.76810  -0.76808  -0.76639
  Beta  occ. eigenvalues --   -0.75215  -0.75214  -0.74337  -0.66108  -0.66108
  Beta virt. eigenvalues --   -0.40457  -0.20790  -0.20788  -0.19183  -0.13495
  Beta virt. eigenvalues --   -0.13493  -0.13028  -0.12462  -0.11183  -0.11182
  Beta virt. eigenvalues --   -0.09377  -0.09377  -0.09018  -0.08882  -0.08019
  Beta virt. eigenvalues --   -0.08018  -0.07202  -0.06746  -0.06741  -0.05860
  Beta virt. eigenvalues --   -0.05276  -0.05270  -0.05014  -0.05010  -0.03867
  Beta virt. eigenvalues --   -0.01653  -0.01518  -0.01514  -0.00666  -0.00661
  Beta virt. eigenvalues --   -0.00017   0.02476   0.02485   0.04490   0.04496
  Beta virt. eigenvalues --    0.04725   0.05680   0.07084   0.07889   0.07893
  Beta virt. eigenvalues --    0.10029   0.11233   0.11242   0.11840   0.12479
  Beta virt. eigenvalues --    0.12487   0.13472   0.14205   0.14212   0.16692
  Beta virt. eigenvalues --    0.16697   0.18383   0.19324   0.20671   0.20682
  Beta virt. eigenvalues --    0.22510   0.23117   0.23631   0.23636   0.24145
  Beta virt. eigenvalues --    0.24154   0.24923   0.26121   0.26123   0.26429
  Beta virt. eigenvalues --    0.28006   0.28011   0.28264   0.28750   0.28753
  Beta virt. eigenvalues --    0.30425   0.30436   0.31704   0.32140   0.32702
  Beta virt. eigenvalues --    0.32983   0.32993   0.34487   0.34491   0.34540
  Beta virt. eigenvalues --    0.37353   0.37355   0.40998   0.41000   0.44774
  Beta virt. eigenvalues --    0.44896   0.44903   0.45275   0.45281   0.45838
  Beta virt. eigenvalues --    0.49786   0.50593   0.50597   0.51808   0.57661
  Beta virt. eigenvalues --    0.57676   0.62221   0.62227   0.62876   0.91194
  Beta virt. eigenvalues --    0.91645   0.91652   0.94287   0.99330   1.01651
  Beta virt. eigenvalues --    1.01665   1.02385   1.03397   1.06408   1.06414
  Beta virt. eigenvalues --    1.07984   1.07986   1.10627   1.10632   1.11184
  Beta virt. eigenvalues --    1.12191   1.12697   1.13315   1.13320   1.14955
  Beta virt. eigenvalues --    1.14961   1.16116   1.17084   1.17096   1.19695
  Beta virt. eigenvalues --    1.21377   1.21381   1.21781   1.21794   1.23216
  Beta virt. eigenvalues --    1.23981   1.26055   1.26070   1.27055   1.27058
  Beta virt. eigenvalues --    1.28650   1.32541   1.33279   1.33400   1.33405
  Beta virt. eigenvalues --    1.34362   1.34373   1.36418   1.36422   1.39082
  Beta virt. eigenvalues --    1.40218   1.40928   1.40940   1.42211   1.42214
  Beta virt. eigenvalues --    1.43075   1.45690   1.45693   1.47395   1.49004
  Beta virt. eigenvalues --    1.49007   1.51100   1.52986   1.52989   1.54711
  Beta virt. eigenvalues --    1.55739   1.55742   1.56475   1.56480   1.56500
  Beta virt. eigenvalues --    1.56705   1.56712   1.56721   1.57454   1.58982
  Beta virt. eigenvalues --    1.58985   1.59713   1.59787   1.59800   1.60692
  Beta virt. eigenvalues --    1.64588   1.64591   1.65051   1.65057   1.66794
  Beta virt. eigenvalues --    1.77025   1.79179   1.79192   1.83335   1.83820
  Beta virt. eigenvalues --    1.83832   1.87153   1.89416   1.89422   1.91325
  Beta virt. eigenvalues --    1.93472   1.93479   1.98692   1.98816   1.98825
  Beta virt. eigenvalues --    2.05167   2.05608   2.05981   2.05989   2.07248
  Beta virt. eigenvalues --    2.07595   2.07602   2.08870   2.11026   2.11043
  Beta virt. eigenvalues --    2.12463   2.12468   2.12514   2.14693   2.15940
  Beta virt. eigenvalues --    2.15948   2.18657   2.22135   2.22147   2.27830
  Beta virt. eigenvalues --    2.27839   2.29244   2.29469   2.29477   2.31691
  Beta virt. eigenvalues --    2.32402   2.32411   2.33411   2.35591   2.35624
  Beta virt. eigenvalues --    2.37221   2.38524   2.38539   2.39122   2.41644
  Beta virt. eigenvalues --    2.44317   2.44329   2.44856   2.47963   2.47968
  Beta virt. eigenvalues --    2.48990   2.51813   2.51824   2.53055   2.54481
  Beta virt. eigenvalues --    2.54501   2.57745   2.57747   2.61299   2.61654
  Beta virt. eigenvalues --    2.63738   2.63741   2.70532   2.70534   2.85650
  Beta virt. eigenvalues --    2.87047   2.87076   2.87807   2.88934   2.88945
  Beta virt. eigenvalues --    2.93861   2.96217   2.96221   3.05872   3.05883
  Beta virt. eigenvalues --    3.08024   3.08243   3.08248   3.09291   3.10611
  Beta virt. eigenvalues --    3.10624   3.11754   3.16369   3.16389   3.17563
  Beta virt. eigenvalues --    3.21137   3.21145   3.22928   3.28559   3.47211
  Beta virt. eigenvalues --    3.47224   3.57260   3.71518   3.71526  21.20594
  Beta virt. eigenvalues --   21.52219  21.54340  21.54347  21.70255  21.70257
  Beta virt. eigenvalues --   21.74477  21.93746  21.93759  31.32735  31.51923
  Beta virt. eigenvalues --   31.51927
          Condensed to atoms (all electrons):
               1          2          3          4          5          6
     1  C    6.271676  -0.202767   0.550700  -0.094815  -0.066911  -0.006888
     2  C   -0.202767   6.273256  -0.094700   0.550830  -0.002692  -0.003565
     3  N    0.550700  -0.094700   6.304585  -0.004065   0.203789  -0.021602
     4  N   -0.094815   0.550830  -0.004065   6.304514  -0.000591  -0.000004
     5  C   -0.066911  -0.002692   0.203789  -0.000591   4.985262   0.407565
     6  H   -0.006888  -0.003565  -0.021602  -0.000004   0.407565   0.432795
     7  H   -0.010569   0.013291  -0.028674   0.000029   0.396351  -0.020495
     8  H    0.006452   0.000184  -0.025881   0.000008   0.396682  -0.012457
     9  C   -0.067047   0.003335   0.203709  -0.002164  -0.043005  -0.009638
    10  H    0.006492  -0.002709  -0.025864   0.000044   0.000612   0.001612
    11  H   -0.006931   0.006605  -0.021619   0.000133  -0.009622   0.000200
    12  H   -0.010573  -0.004280  -0.028616  -0.002443   0.008014  -0.000030
    13  C   -0.002730  -0.066934  -0.000592   0.203796  -0.000020  -0.000002
    14  H   -0.003567  -0.006910  -0.000004  -0.021619  -0.000002   0.000000
    15  H    0.013273  -0.010556   0.000029  -0.028635   0.000004  -0.000000
    16  H    0.000186   0.006483   0.000008  -0.025871   0.000000   0.000000
    17  C    0.003239  -0.066961  -0.002171   0.203777   0.000038  -0.000007
    18  H   -0.002722   0.006452   0.000045  -0.025890  -0.000001   0.000000
    19  H    0.006598  -0.006880   0.000132  -0.021601   0.000003   0.000000
    20  H   -0.004249  -0.010569  -0.002459  -0.028668  -0.000114  -0.000001
    21  C   -0.200606  -0.203016  -0.094689  -0.094733   0.003166   0.006604
    22  N   -0.094764  -0.094651  -0.004068  -0.004063  -0.002165   0.000132
    23  C    0.003158  -0.002640  -0.002167  -0.000591   0.002871  -0.000600
    24  H    0.006596  -0.003569   0.000132  -0.000004  -0.000597   0.000076
    25  H   -0.004267   0.013362  -0.002455   0.000029  -0.000327  -0.001010
    26  H   -0.002726   0.000184   0.000045   0.000008   0.000014   0.000001
    27  C   -0.002771   0.003407  -0.000592  -0.002164   0.000037   0.000003
    28  H    0.000188  -0.002717   0.000008   0.000044  -0.000001   0.000000
    29  H   -0.003565   0.006598  -0.000004   0.000133  -0.000007   0.000000
    30  H    0.013258  -0.004301   0.000029  -0.002452   0.000011  -0.000000
               7          8          9         10         11         12
     1  C   -0.010569   0.006452  -0.067047   0.006492  -0.006931  -0.010573
     2  C    0.013291   0.000184   0.003335  -0.002709   0.006605  -0.004280
     3  N   -0.028674  -0.025881   0.203709  -0.025864  -0.021619  -0.028616
     4  N    0.000029   0.000008  -0.002164   0.000044   0.000133  -0.002443
     5  C    0.396351   0.396682  -0.043005   0.000612  -0.009622   0.008014
     6  H   -0.020495  -0.012457  -0.009638   0.001612   0.000200  -0.000030
     7  H    0.504698  -0.018921   0.008016   0.000257  -0.000031  -0.000498
     8  H   -0.018921   0.440837   0.000626  -0.001982   0.001611   0.000255
     9  C    0.008016   0.000626   4.985558   0.396615   0.407591   0.396407
    10  H    0.000257  -0.001982   0.396615   0.440837  -0.012443  -0.018901
    11  H   -0.000031   0.001611   0.407591  -0.012443   0.432807  -0.020513
    12  H   -0.000498   0.000255   0.396407  -0.018901  -0.020513   0.504497
    13  C    0.000004   0.000000   0.000039  -0.000001   0.000003  -0.000114
    14  H   -0.000000   0.000000  -0.000007   0.000000   0.000000  -0.000001
    15  H   -0.000002   0.000000   0.000011  -0.000000  -0.000000   0.000018
    16  H    0.000000  -0.000000  -0.000001  -0.000000   0.000000   0.000011
    17  C    0.000011  -0.000001   0.002942   0.000014  -0.000611  -0.000314
    18  H   -0.000000  -0.000000   0.000014  -0.000001   0.000001   0.000300
    19  H   -0.000000   0.000000  -0.000608   0.000001   0.000077  -0.001007
    20  H    0.000018   0.000011  -0.000294   0.000300  -0.001013  -0.003345
    21  C   -0.004269  -0.002716  -0.002773   0.000185  -0.003562   0.013219
    22  N   -0.002441   0.000044  -0.000592   0.000008  -0.000004   0.000029
    23  C   -0.000346   0.000015   0.000036  -0.000001  -0.000007   0.000011
    24  H   -0.001005   0.000001   0.000003   0.000000   0.000000  -0.000000
    25  H   -0.003308   0.000300  -0.000113   0.000011  -0.000001   0.000018
    26  H    0.000300  -0.000001  -0.000001  -0.000000   0.000000  -0.000000
    27  C   -0.000113  -0.000001  -0.000020   0.000000  -0.000002   0.000004
    28  H    0.000011  -0.000000   0.000000  -0.000000   0.000000   0.000000
    29  H   -0.000001   0.000000  -0.000002   0.000000   0.000000  -0.000000
    30  H    0.000018  -0.000000   0.000004   0.000000  -0.000000  -0.000002
              13         14         15         16         17         18
     1  C   -0.002730  -0.003567   0.013273   0.000186   0.003239  -0.002722
     2  C   -0.066934  -0.006910  -0.010556   0.006483  -0.066961   0.006452
     3  N   -0.000592  -0.000004   0.000029   0.000008  -0.002171   0.000045
     4  N    0.203796  -0.021619  -0.028635  -0.025871   0.203777  -0.025890
     5  C   -0.000020  -0.000002   0.000004   0.000000   0.000038  -0.000001
     6  H   -0.000002   0.000000  -0.000000   0.000000  -0.000007   0.000000
     7  H    0.000004  -0.000000  -0.000002   0.000000   0.000011  -0.000000
     8  H    0.000000   0.000000   0.000000  -0.000000  -0.000001  -0.000000
     9  C    0.000039  -0.000007   0.000011  -0.000001   0.002942   0.000014
    10  H   -0.000001   0.000000  -0.000000  -0.000000   0.000014  -0.000001
    11  H    0.000003   0.000000  -0.000000   0.000000  -0.000611   0.000001
    12  H   -0.000114  -0.000001   0.000018   0.000011  -0.000314   0.000300
    13  C    4.985344   0.407603   0.396354   0.396633  -0.043077   0.000629
    14  H    0.407603   0.432810  -0.020493  -0.012462  -0.009633   0.001618
    15  H    0.396354  -0.020493   0.504584  -0.018907   0.008024   0.000256
    16  H    0.396633  -0.012462  -0.018907   0.440875   0.000609  -0.001980
    17  C   -0.043077  -0.009633   0.008024   0.000609   4.985295   0.396688
    18  H    0.000629   0.001618   0.000256  -0.001980   0.396688   0.440895
    19  H   -0.009631   0.000200  -0.000031   0.001619   0.407541  -0.012470
    20  H    0.008016  -0.000031  -0.000498   0.000256   0.396343  -0.018919
    21  C    0.003221   0.006599  -0.004303  -0.002709  -0.002717   0.000185
    22  N   -0.002167   0.000133  -0.002454   0.000044  -0.000591   0.000008
    23  C    0.000038   0.000003  -0.000114  -0.000001  -0.000020   0.000000
    24  H   -0.000007   0.000000  -0.000001   0.000000  -0.000002   0.000000
    25  H    0.000011  -0.000000   0.000018  -0.000000   0.000004   0.000000
    26  H   -0.000001   0.000000   0.000011  -0.000000   0.000000  -0.000000
    27  C    0.002932  -0.000607  -0.000309   0.000014   0.000039  -0.000001
    28  H    0.000014   0.000001   0.000300  -0.000001  -0.000001  -0.000000
    29  H   -0.000608   0.000077  -0.001010   0.000001   0.000003   0.000000
    30  H   -0.000311  -0.001010  -0.003334   0.000300  -0.000114   0.000011
              19         20         21         22         23         24
     1  C    0.006598  -0.004249  -0.200606  -0.094764   0.003158   0.006596
     2  C   -0.006880  -0.010569  -0.203016  -0.094651  -0.002640  -0.003569
     3  N    0.000132  -0.002459  -0.094689  -0.004068  -0.002167   0.000132
     4  N   -0.021601  -0.028668  -0.094733  -0.004063  -0.000591  -0.000004
     5  C    0.000003  -0.000114   0.003166  -0.002165   0.002871  -0.000597
     6  H    0.000000  -0.000001   0.006604   0.000132  -0.000600   0.000076
     7  H   -0.000000   0.000018  -0.004269  -0.002441  -0.000346  -0.001005
     8  H    0.000000   0.000011  -0.002716   0.000044   0.000015   0.000001
     9  C   -0.000608  -0.000294  -0.002773  -0.000592   0.000036   0.000003
    10  H    0.000001   0.000300   0.000185   0.000008  -0.000001   0.000000
    11  H    0.000077  -0.001013  -0.003562  -0.000004  -0.000007   0.000000
    12  H   -0.001007  -0.003345   0.013219   0.000029   0.000011  -0.000000
    13  C   -0.009631   0.008016   0.003221  -0.002167   0.000038  -0.000007
    14  H    0.000200  -0.000031   0.006599   0.000133   0.000003   0.000000
    15  H   -0.000031  -0.000498  -0.004303  -0.002454  -0.000114  -0.000001
    16  H    0.001619   0.000256  -0.002709   0.000044  -0.000001   0.000000
    17  C    0.407541   0.396343  -0.002717  -0.000591  -0.000020  -0.000002
    18  H   -0.012470  -0.018919   0.000185   0.000008   0.000000   0.000000
    19  H    0.432818  -0.020477  -0.003559  -0.000004  -0.000002   0.000000
    20  H   -0.020477   0.504622   0.013276   0.000029   0.000004  -0.000000
    21  C   -0.003559   0.013276   6.271776   0.550757  -0.066869  -0.006860
    22  N   -0.000004   0.000029   0.550757   6.304426   0.203872  -0.021595
    23  C   -0.000002   0.000004  -0.066869   0.203872   4.985001   0.407569
    24  H    0.000000  -0.000000  -0.006860  -0.021595   0.407569   0.432815
    25  H   -0.000000  -0.000002  -0.010549  -0.028718   0.396266  -0.020463
    26  H    0.000000   0.000000   0.006430  -0.025885   0.396714  -0.012490
    27  C   -0.000007   0.000011  -0.067084   0.203768  -0.043141  -0.009653
    28  H    0.000000  -0.000000   0.006493  -0.025878   0.000610   0.001625
    29  H    0.000000  -0.000000  -0.006912  -0.021608  -0.009619   0.000199
    30  H   -0.000001   0.000018  -0.010563  -0.028618   0.008023  -0.000030
              25         26         27         28         29         30
     1  C   -0.004267  -0.002726  -0.002771   0.000188  -0.003565   0.013258
     2  C    0.013362   0.000184   0.003407  -0.002717   0.006598  -0.004301
     3  N   -0.002455   0.000045  -0.000592   0.000008  -0.000004   0.000029
     4  N    0.000029   0.000008  -0.002164   0.000044   0.000133  -0.002452
     5  C   -0.000327   0.000014   0.000037  -0.000001  -0.000007   0.000011
     6  H   -0.001010   0.000001   0.000003   0.000000   0.000000  -0.000000
     7  H   -0.003308   0.000300  -0.000113   0.000011  -0.000001   0.000018
     8  H    0.000300  -0.000001  -0.000001  -0.000000   0.000000  -0.000000
     9  C   -0.000113  -0.000001  -0.000020   0.000000  -0.000002   0.000004
    10  H    0.000011  -0.000000   0.000000  -0.000000   0.000000   0.000000
    11  H   -0.000001   0.000000  -0.000002   0.000000   0.000000  -0.000000
    12  H    0.000018  -0.000000   0.000004   0.000000  -0.000000  -0.000002
    13  C    0.000011  -0.000001   0.002932   0.000014  -0.000608  -0.000311
    14  H   -0.000000   0.000000  -0.000607   0.000001   0.000077  -0.001010
    15  H    0.000018   0.000011  -0.000309   0.000300  -0.001010  -0.003334
    16  H   -0.000000  -0.000000   0.000014  -0.000001   0.000001   0.000300
    17  C    0.000004   0.000000   0.000039  -0.000001   0.000003  -0.000114
    18  H    0.000000  -0.000000  -0.000001  -0.000000   0.000000   0.000011
    19  H   -0.000000   0.000000  -0.000007   0.000000   0.000000  -0.000001
    20  H   -0.000002   0.000000   0.000011  -0.000000  -0.000000   0.000018
    21  C   -0.010549   0.006430  -0.067084   0.006493  -0.006912  -0.010563
    22  N   -0.028718  -0.025885   0.203768  -0.025878  -0.021608  -0.028618
    23  C    0.396266   0.396714  -0.043141   0.000610  -0.009619   0.008023
    24  H   -0.020463  -0.012490  -0.009653   0.001625   0.000199  -0.000030
    25  H    0.504780  -0.018925   0.008029   0.000257  -0.000032  -0.000499
    26  H   -0.018925   0.440903   0.000628  -0.001980   0.001623   0.000254
    27  C    0.008029   0.000628   4.985409   0.396628   0.407588   0.396358
    28  H    0.000257  -0.001980   0.396628   0.440916  -0.012462  -0.018908
    29  H   -0.000032   0.001623   0.407588  -0.012462   0.432807  -0.020493
    30  H   -0.000499   0.000254   0.396358  -0.018908  -0.020493   0.504570
          Atomic-Atomic Spin Densities.
               1          2          3          4          5          6
     1  C   -0.083836   0.060841  -0.069433  -0.005866   0.005037  -0.000147
     2  C    0.060841  -0.083799  -0.005866  -0.069432  -0.000854  -0.000049
     3  N   -0.069433  -0.005866   0.482134   0.001886  -0.029698  -0.006121
     4  N   -0.005866  -0.069432   0.001886   0.482165  -0.000074  -0.000002
     5  C    0.005037  -0.000854  -0.029698  -0.000074  -0.011544   0.008705
     6  H   -0.000147  -0.000049  -0.006121  -0.000002   0.008705   0.019135
     7  H   -0.000219  -0.000068  -0.000224   0.000008   0.000886  -0.000256
     8  H    0.000814   0.000039  -0.004533  -0.000001   0.004991  -0.002128
     9  C    0.005034   0.003064  -0.029698  -0.000383   0.002503   0.000158
    10  H    0.000810  -0.000106  -0.004513  -0.000008   0.000915   0.000432
    11  H   -0.000147   0.000382  -0.006127  -0.000026   0.000158  -0.000122
    12  H   -0.000206  -0.000078  -0.000233   0.000170  -0.000064  -0.000028
    13  C   -0.000852   0.005034  -0.000074  -0.029693  -0.000001  -0.000000
    14  H   -0.000048  -0.000146  -0.000002  -0.006126  -0.000000  -0.000000
    15  H   -0.000064  -0.000210   0.000008  -0.000228  -0.000001  -0.000000
    16  H    0.000039   0.000814  -0.000001  -0.004527   0.000000   0.000000
    17  C    0.003064   0.005035  -0.000384  -0.029695   0.000026   0.000002
    18  H   -0.000107   0.000814  -0.000008  -0.004534   0.000000  -0.000000
    19  H    0.000379  -0.000144  -0.000026  -0.006124   0.000002   0.000000
    20  H   -0.000076  -0.000217   0.000170  -0.000227   0.000000   0.000002
    21  C    0.060829   0.060803  -0.005849  -0.005854   0.003063   0.000381
    22  N   -0.005859  -0.005861   0.001885   0.001886  -0.000384  -0.000026
    23  C    0.003059  -0.000852  -0.000384  -0.000074   0.000203  -0.000038
    24  H    0.000380  -0.000047  -0.000026  -0.000002  -0.000038  -0.000020
    25  H   -0.000070  -0.000064   0.000172   0.000008  -0.000053  -0.000063
    26  H   -0.000108   0.000039  -0.000008  -0.000001   0.000022   0.000006
    27  C   -0.000855   0.003059  -0.000074  -0.000384   0.000026   0.000002
    28  H    0.000039  -0.000106  -0.000001  -0.000008  -0.000001  -0.000000
    29  H   -0.000049   0.000379  -0.000002  -0.000026   0.000002   0.000000
    30  H   -0.000066  -0.000080   0.000008   0.000169   0.000002   0.000000
               7          8          9         10         11         12
     1  C   -0.000219   0.000814   0.005034   0.000810  -0.000147  -0.000206
     2  C   -0.000068   0.000039   0.003064  -0.000106   0.000382  -0.000078
     3  N   -0.000224  -0.004533  -0.029698  -0.004513  -0.006127  -0.000233
     4  N    0.000008  -0.000001  -0.000383  -0.000008  -0.000026   0.000170
     5  C    0.000886   0.004991   0.002503   0.000915   0.000158  -0.000064
     6  H   -0.000256  -0.002128   0.000158   0.000432  -0.000122  -0.000028
     7  H    0.001343  -0.000067  -0.000065   0.000019  -0.000028  -0.000013
     8  H   -0.000067   0.014005   0.000917  -0.000264   0.000433   0.000019
     9  C   -0.000065   0.000917  -0.011548   0.004972   0.008717   0.000889
    10  H    0.000019  -0.000264   0.004972   0.013952  -0.002124  -0.000060
    11  H   -0.000028   0.000433   0.008717  -0.002124   0.019157  -0.000264
    12  H   -0.000013   0.000019   0.000889  -0.000060  -0.000264   0.001361
    13  C   -0.000001   0.000000   0.000026   0.000000   0.000002   0.000001
    14  H   -0.000000   0.000000   0.000002  -0.000000   0.000000   0.000002
    15  H   -0.000001   0.000000   0.000002  -0.000000   0.000000   0.000003
    16  H    0.000000  -0.000000  -0.000001   0.000000  -0.000000  -0.000002
    17  C    0.000002  -0.000001   0.000201   0.000022  -0.000039  -0.000049
    18  H   -0.000000   0.000000   0.000022  -0.000000   0.000006   0.000012
    19  H    0.000000  -0.000000  -0.000039   0.000006  -0.000020  -0.000061
    20  H    0.000003  -0.000002  -0.000051   0.000012  -0.000062  -0.000100
    21  C   -0.000072  -0.000107  -0.000856   0.000039  -0.000050  -0.000067
    22  N    0.000172  -0.000008  -0.000074  -0.000001  -0.000002   0.000008
    23  C   -0.000051   0.000022   0.000026  -0.000001   0.000002   0.000002
    24  H   -0.000062   0.000006   0.000002  -0.000000   0.000000   0.000000
    25  H   -0.000101   0.000012   0.000001  -0.000002   0.000002   0.000003
    26  H    0.000012  -0.000000   0.000000   0.000000  -0.000000  -0.000000
    27  C    0.000001   0.000000  -0.000001   0.000000  -0.000000  -0.000001
    28  H   -0.000002   0.000000   0.000000  -0.000000   0.000000   0.000000
    29  H    0.000002  -0.000000  -0.000000   0.000000  -0.000000  -0.000000
    30  H    0.000003  -0.000000  -0.000001   0.000000  -0.000000  -0.000001
              13         14         15         16         17         18
     1  C   -0.000852  -0.000048  -0.000064   0.000039   0.003064  -0.000107
     2  C    0.005034  -0.000146  -0.000210   0.000814   0.005035   0.000814
     3  N   -0.000074  -0.000002   0.000008  -0.000001  -0.000384  -0.000008
     4  N   -0.029693  -0.006126  -0.000228  -0.004527  -0.029695  -0.004534
     5  C   -0.000001  -0.000000  -0.000001   0.000000   0.000026   0.000000
     6  H   -0.000000  -0.000000  -0.000000   0.000000   0.000002  -0.000000
     7  H   -0.000001  -0.000000  -0.000001   0.000000   0.000002  -0.000000
     8  H    0.000000   0.000000   0.000000  -0.000000  -0.000001   0.000000
     9  C    0.000026   0.000002   0.000002  -0.000001   0.000201   0.000022
    10  H    0.000000  -0.000000  -0.000000   0.000000   0.000022  -0.000000
    11  H    0.000002   0.000000   0.000000  -0.000000  -0.000039   0.000006
    12  H    0.000001   0.000002   0.000003  -0.000002  -0.000049   0.000012
    13  C   -0.011551   0.008716   0.000888   0.004980   0.002503   0.000919
    14  H    0.008716   0.019146  -0.000261  -0.002128   0.000157   0.000434
    15  H    0.000888  -0.000261   0.001349  -0.000063  -0.000064   0.000019
    16  H    0.004980  -0.002128  -0.000063   0.013990   0.000917  -0.000264
    17  C    0.002503   0.000157  -0.000064   0.000917  -0.011547   0.004987
    18  H    0.000919   0.000434   0.000019  -0.000264   0.004987   0.014013
    19  H    0.000156  -0.000122  -0.000028   0.000433   0.008709  -0.002128
    20  H   -0.000065  -0.000028  -0.000013   0.000019   0.000886  -0.000065
    21  C    0.003057   0.000378  -0.000079  -0.000106  -0.000853   0.000039
    22  N   -0.000384  -0.000026   0.000169  -0.000008  -0.000074  -0.000001
    23  C    0.000026   0.000002   0.000000   0.000000  -0.000001   0.000000
    24  H    0.000002   0.000000   0.000002  -0.000000  -0.000000   0.000000
    25  H    0.000002   0.000000   0.000003  -0.000000  -0.000001   0.000000
    26  H   -0.000001  -0.000000  -0.000002   0.000000   0.000000  -0.000000
    27  C    0.000200  -0.000039  -0.000050   0.000022   0.000026  -0.000001
    28  H    0.000022   0.000006   0.000012  -0.000000   0.000000   0.000000
    29  H   -0.000039  -0.000020  -0.000062   0.000006   0.000002  -0.000000
    30  H   -0.000050  -0.000062  -0.000100   0.000012   0.000001  -0.000002
              19         20         21         22         23         24
     1  C    0.000379  -0.000076   0.060829  -0.005859   0.003059   0.000380
     2  C   -0.000144  -0.000217   0.060803  -0.005861  -0.000852  -0.000047
     3  N   -0.000026   0.000170  -0.005849   0.001885  -0.000384  -0.000026
     4  N   -0.006124  -0.000227  -0.005854   0.001886  -0.000074  -0.000002
     5  C    0.000002   0.000000   0.003063  -0.000384   0.000203  -0.000038
     6  H    0.000000   0.000002   0.000381  -0.000026  -0.000038  -0.000020
     7  H    0.000000   0.000003  -0.000072   0.000172  -0.000051  -0.000062
     8  H   -0.000000  -0.000002  -0.000107  -0.000008   0.000022   0.000006
     9  C   -0.000039  -0.000051  -0.000856  -0.000074   0.000026   0.000002
    10  H    0.000006   0.000012   0.000039  -0.000001  -0.000001  -0.000000
    11  H   -0.000020  -0.000062  -0.000050  -0.000002   0.000002   0.000000
    12  H   -0.000061  -0.000100  -0.000067   0.000008   0.000002   0.000000
    13  C    0.000156  -0.000065   0.003057  -0.000384   0.000026   0.000002
    14  H   -0.000122  -0.000028   0.000378  -0.000026   0.000002   0.000000
    15  H   -0.000028  -0.000013  -0.000079   0.000169   0.000000   0.000002
    16  H    0.000433   0.000019  -0.000106  -0.000008   0.000000  -0.000000
    17  C    0.008709   0.000886  -0.000853  -0.000074  -0.000001  -0.000000
    18  H   -0.002128  -0.000065   0.000039  -0.000001   0.000000   0.000000
    19  H    0.019127  -0.000259  -0.000046  -0.000002  -0.000000  -0.000000
    20  H   -0.000259   0.001343  -0.000062   0.000008  -0.000001  -0.000000
    21  C   -0.000046  -0.000062  -0.083851  -0.069417   0.005036  -0.000144
    22  N   -0.000002   0.000008  -0.069417   0.482148  -0.029693  -0.006121
    23  C   -0.000000  -0.000001   0.005036  -0.029693  -0.011550   0.008699
    24  H   -0.000000  -0.000000  -0.000144  -0.006121   0.008699   0.019119
    25  H   -0.000000  -0.000001  -0.000228  -0.000218   0.000882  -0.000251
    26  H    0.000000   0.000000   0.000818  -0.004551   0.005004  -0.002133
    27  C    0.000002   0.000002   0.005033  -0.029687   0.002504   0.000157
    28  H   -0.000000  -0.000000   0.000814  -0.004527   0.000918   0.000434
    29  H    0.000000   0.000000  -0.000148  -0.006122   0.000156  -0.000123
    30  H    0.000002   0.000003  -0.000208  -0.000229  -0.000064  -0.000028
              25         26         27         28         29         30
     1  C   -0.000070  -0.000108  -0.000855   0.000039  -0.000049  -0.000066
     2  C   -0.000064   0.000039   0.003059  -0.000106   0.000379  -0.000080
     3  N    0.000172  -0.000008  -0.000074  -0.000001  -0.000002   0.000008
     4  N    0.000008  -0.000001  -0.000384  -0.000008  -0.000026   0.000169
     5  C   -0.000053   0.000022   0.000026  -0.000001   0.000002   0.000002
     6  H   -0.000063   0.000006   0.000002  -0.000000   0.000000   0.000000
     7  H   -0.000101   0.000012   0.000001  -0.000002   0.000002   0.000003
     8  H    0.000012  -0.000000   0.000000   0.000000  -0.000000  -0.000000
     9  C    0.000001   0.000000  -0.000001   0.000000  -0.000000  -0.000001
    10  H   -0.000002   0.000000   0.000000  -0.000000   0.000000   0.000000
    11  H    0.000002  -0.000000  -0.000000   0.000000  -0.000000  -0.000000
    12  H    0.000003  -0.000000  -0.000001   0.000000  -0.000000  -0.000001
    13  C    0.000002  -0.000001   0.000200   0.000022  -0.000039  -0.000050
    14  H    0.000000  -0.000000  -0.000039   0.000006  -0.000020  -0.000062
    15  H    0.000003  -0.000002  -0.000050   0.000012  -0.000062  -0.000100
    16  H   -0.000000   0.000000   0.000022  -0.000000   0.000006   0.000012
    17  C   -0.000001   0.000000   0.000026   0.000000   0.000002   0.000001
    18  H    0.000000  -0.000000  -0.000001   0.000000  -0.000000  -0.000002
    19  H   -0.000000   0.000000   0.000002  -0.000000   0.000000   0.000002
    20  H   -0.000001   0.000000   0.000002  -0.000000   0.000000   0.000003
    21  C   -0.000228   0.000818   0.005033   0.000814  -0.000148  -0.000208
    22  N   -0.000218  -0.004551  -0.029687  -0.004527  -0.006122  -0.000229
    23  C    0.000882   0.005004   0.002504   0.000918   0.000156  -0.000064
    24  H   -0.000251  -0.002133   0.000157   0.000434  -0.000123  -0.000028
    25  H    0.001325  -0.000072  -0.000066   0.000019  -0.000029  -0.000013
    26  H   -0.000072   0.014061   0.000921  -0.000265   0.000435   0.000019
    27  C   -0.000066   0.000921  -0.011556   0.004977   0.008714   0.000888
    28  H    0.000019  -0.000265   0.004977   0.013982  -0.002127  -0.000063
    29  H   -0.000029   0.000435   0.008714  -0.002127   0.019146  -0.000262
    30  H   -0.000013   0.000019   0.000888  -0.000063  -0.000262   0.001352
 Mulliken charges and spin densities:
               1          2
     1  C   -0.093348  -0.027681
     2  C   -0.093568  -0.027674
     3  N    0.097012   0.322978
     4  N    0.097029   0.322995
     5  C   -0.278366  -0.016172
     6  H    0.227310   0.019822
     7  H    0.167670   0.001217
     8  H    0.214934   0.014147
     9  C   -0.278643  -0.016181
    10  H    0.214912   0.014099
    11  H    0.227330   0.019846
    12  H    0.167855   0.001240
    13  C   -0.278443  -0.016178
    14  H    0.227302   0.019835
    15  H    0.167765   0.001226
    16  H    0.214893   0.014132
    17  C   -0.278346  -0.016170
    18  H    0.214883   0.014153
    19  H    0.227289   0.019816
    20  H    0.167734   0.001218
    21  C   -0.093419  -0.027707
    22  N    0.097017   0.323000
    23  C   -0.278072  -0.016168
    24  H    0.227258   0.019804
    25  H    0.167581   0.001196
    26  H    0.214895   0.014196
    27  C   -0.278389  -0.016181
    28  H    0.214851   0.014124
    29  H    0.227294   0.019835
    30  H    0.167781   0.001230
 Sum of Mulliken charges =   2.00000   1.00000
 Mulliken charges and spin densities with hydrogens summed into heavy atoms:
               1          2
     1  C   -0.093348  -0.027681
     2  C   -0.093568  -0.027674
     3  N    0.097012   0.322978
     4  N    0.097029   0.322995
     5  C    0.331548   0.019015
     9  C    0.331454   0.019005
    13  C    0.331517   0.019014
    17  C    0.331559   0.019018
    21  C   -0.093419  -0.027707
    22  N    0.097017   0.323000
    23  C    0.331662   0.019029
    27  C    0.331538   0.019008
 Electronic spatial extent (au):  <R**2>=           2550.8348
 Charge=              2.0000 electrons
 Dipole moment (field-independent basis, Debye):
    X=              0.0001    Y=              0.0000    Z=              0.0006  Tot=              0.0006
 Quadrupole moment (field-independent basis, Debye-Ang):
   XX=            -17.5305   YY=            -17.5384   ZZ=            -66.4562
   XY=             -0.0002   XZ=             -0.0013   YZ=              0.0008
 Traceless Quadrupole moment (field-independent basis, Debye-Ang):
   XX=             16.3112   YY=             16.3033   ZZ=            -32.6145
   XY=             -0.0002   XZ=             -0.0013   YZ=              0.0008
 Octapole moment (field-independent basis, Debye-Ang**2):
  XXX=             16.3139  YYY=             28.6378  ZZZ=              0.0022  XYY=            -16.3146
  XXY=            -28.6584  XXZ=              0.0024  XZZ=              0.0051  YZZ=              0.0053
  YYZ=              0.0028  XYZ=              0.0030
 Hexadecapole moment (field-independent basis, Debye-Ang**3):
 XXXX=          -1071.8191 YYYY=          -1071.6145 ZZZZ=           -120.1102 XXXY=             -0.0201
 XXXZ=              8.0965 YYYX=              0.0205 YYYZ=             -4.5921 ZZZX=             -0.0256
 ZZZY=              0.0058 XXYY=           -357.1962 XXZZ=           -244.6919 YYZZ=           -244.6736
 XXYZ=              4.5933 YYXZ=             -8.0642 ZZXY=             -0.0166
 N-N= 7.407629817128D+02 E-N=-2.652442946037D+03  KE= 5.145744712397D+02
                          Isotropic Fermi Contact Couplings
        Atom                 a.u.       MegaHertz       Gauss      10(-4) cm-1
     1  C(13)             -0.01076     -12.09600      -4.31615      -4.03479
     2  C(13)             -0.01076     -12.09706      -4.31653      -4.03514
     3  N(14)              0.03228      10.43108       3.72207       3.47943
     4  N(14)              0.03228      10.43142       3.72219       3.47955
     5  C(13)             -0.00859      -9.65189      -3.44403      -3.21952
     6  H(1)               0.00996      44.50559      15.88070      14.84547
     7  H(1)               0.00074       3.28666       1.17276       1.09631
     8  H(1)               0.00704      31.44673      11.22097      10.48950
     9  C(13)             -0.00859      -9.65299      -3.44443      -3.21989
    10  H(1)               0.00701      31.34286      11.18391      10.45485
    11  H(1)               0.00997      44.55288      15.89758      14.86124
    12  H(1)               0.00074       3.32835       1.18764       1.11022
    13  C(13)             -0.00859      -9.65487      -3.44510      -3.22052
    14  H(1)               0.00996      44.52693      15.88832      14.85259
    15  H(1)               0.00074       3.29753       1.17664       1.09994
    16  H(1)               0.00703      31.41019      11.20794      10.47731
    17  C(13)             -0.00858      -9.65118      -3.44378      -3.21929
    18  H(1)               0.00704      31.45480      11.22386      10.49219
    19  H(1)               0.00995      44.49310      15.87624      14.84130
    20  H(1)               0.00073       3.28300       1.17146       1.09509
    21  C(13)             -0.01076     -12.09806      -4.31689      -4.03548
    22  N(14)              0.03229      10.43192       3.72237       3.47971
    23  C(13)             -0.00859      -9.65416      -3.44484      -3.22028
    24  H(1)               0.00995      44.46261      15.86536      14.83113
    25  H(1)               0.00073       3.24272       1.15708       1.08166
    26  H(1)               0.00706      31.54661      11.25661      10.52281
    27  C(13)             -0.00859      -9.65283      -3.44437      -3.21984
    28  H(1)               0.00702      31.38972      11.20063      10.47048
    29  H(1)               0.00996      44.52558      15.88783      14.85213
    30  H(1)               0.00074       3.30639       1.17980       1.10289
 --------------------------------------------------------
       Center         ----  Spin Dipole Couplings  ----
                      3XX-RR        3YY-RR        3ZZ-RR
 --------------------------------------------------------
     1   Atom        0.019899      0.012718     -0.032617
     2   Atom       -0.002675      0.035296     -0.032622
     3   Atom       -0.391618     -0.384717      0.776335
     4   Atom       -0.370102     -0.406336      0.776438
     5   Atom       -0.010051      0.002587      0.007464
     6   Atom       -0.003731      0.006105     -0.002374
     7   Atom        0.001325      0.002365     -0.003690
     8   Atom       -0.000866      0.003722     -0.002856
     9   Atom        0.001709     -0.009149      0.007440
    10   Atom        0.004656     -0.001788     -0.002868
    11   Atom        0.005942     -0.003576     -0.002366
    12   Atom        0.001377      0.002314     -0.003692
    13   Atom       -0.003386     -0.004057      0.007442
    14   Atom       -0.000075      0.002443     -0.002368
    15   Atom        0.004455     -0.000761     -0.003694
    16   Atom       -0.001960      0.004822     -0.002862
    17   Atom        0.000642     -0.008102      0.007460
    18   Atom       -0.000063      0.002918     -0.002855
    19   Atom        0.003253     -0.000877     -0.002376
    20   Atom        0.004470     -0.000778     -0.003691
    21   Atom        0.031722      0.000897     -0.032618
    22   Atom       -0.402919     -0.373465      0.776384
    23   Atom       -0.009496      0.002030      0.007466
    24   Atom       -0.002305      0.004684     -0.002379
    25   Atom       -0.000296      0.003988     -0.003692
    26   Atom        0.001592      0.001255     -0.002847
    27   Atom       -0.001779     -0.005663      0.007442
    28   Atom        0.005222     -0.002361     -0.002862
    29   Atom        0.004030     -0.001659     -0.002371
    30   Atom       -0.000260      0.003952     -0.003691
 --------------------------------------------------------
                        XY            XZ            YZ
 --------------------------------------------------------
     1   Atom        0.019860      0.012947     -0.015452
     2   Atom       -0.006827     -0.019871     -0.003500
     3   Atom       -0.018966     -0.132959      0.159343
     4   Atom        0.006504      0.204311      0.035548
     5   Atom       -0.001398     -0.004267     -0.003838
     6   Atom        0.000455      0.000872      0.004215
     7   Atom       -0.002731      0.001080     -0.002739
     8   Atom        0.003049     -0.002160     -0.004167
     9   Atom       -0.003525      0.004521      0.003521
    10   Atom        0.002059      0.004475      0.001376
    11   Atom       -0.001304     -0.004305     -0.000102
    12   Atom       -0.002738      0.002507     -0.001551
    13   Atom        0.006466      0.000792     -0.005671
    14   Atom        0.004770      0.002060      0.003783
    15   Atom        0.000966     -0.002591     -0.001393
    16   Atom        0.001762     -0.001043     -0.004570
    17   Atom       -0.004774     -0.001200      0.005613
    18   Atom       -0.003511     -0.002530      0.003953
    19   Atom       -0.004486      0.003214     -0.002863
    20   Atom        0.000917     -0.002911      0.000434
    21   Atom       -0.013031      0.006959      0.018915
    22   Atom        0.012453     -0.071365     -0.194931
    23   Atom       -0.002948     -0.005312      0.002170
    24   Atom       -0.003490      0.002253     -0.003667
    25   Atom        0.001777      0.000089      0.002936
    26   Atom       -0.003807     -0.003450      0.003193
    27   Atom        0.006176      0.005443     -0.001778
    28   Atom        0.000467      0.004683      0.000218
    29   Atom        0.004033     -0.004085     -0.001356
    30   Atom        0.001814      0.001833      0.002305
 --------------------------------------------------------


 ---------------------------------------------------------------------------------
              Anisotropic Spin Dipole Couplings in Principal Axis System
 ---------------------------------------------------------------------------------

       Atom             a.u.   MegaHertz   Gauss  10(-4) cm-1        Axes

              Baa    -0.0430    -5.771    -2.059    -1.925 -0.2939  0.3513  0.8890
     1 C(13)  Bbb     0.0065     0.874     0.312     0.291 -0.5696  0.6825 -0.4580
              Bcc     0.0365     4.897     1.747     1.633  0.7676  0.6409  0.0005
 
              Baa    -0.0430    -5.773    -2.060    -1.926  0.4512  0.0791  0.8889
     2 C(13)  Bbb     0.0065     0.877     0.313     0.292  0.8758  0.1521 -0.4581
              Bcc     0.0365     4.896     1.747     1.633 -0.1714  0.9852 -0.0006
 
              Baa    -0.4074   -15.714    -5.607    -5.242  0.7674  0.6411 -0.0001
     3 N(14)  Bbb    -0.4053   -15.633    -5.578    -5.215 -0.6315  0.7558 -0.1730
              Bcc     0.8128    31.347    11.185    10.456 -0.1108  0.1328  0.9849
 
              Baa    -0.4075   -15.715    -5.608    -5.242 -0.1726  0.9850  0.0002
     4 N(14)  Bbb    -0.4054   -15.634    -5.579    -5.215  0.9702  0.1700 -0.1728
              Bcc     0.8128    31.349    11.186    10.457  0.1703  0.0296  0.9850
 
              Baa    -0.0114    -1.530    -0.546    -0.510  0.9545  0.1637  0.2492
     5 C(13)  Bbb     0.0013     0.179     0.064     0.060 -0.2521  0.8893  0.3815
              Bcc     0.0101     1.351     0.482     0.451 -0.1591 -0.4269  0.8902
 
              Baa    -0.0046    -2.454    -0.876    -0.819 -0.6091 -0.2680  0.7465
     6 H(1)   Bbb    -0.0033    -1.757    -0.627    -0.586  0.7905 -0.2821  0.5436
              Bcc     0.0079     4.211     1.503     1.405  0.0649  0.9212  0.3837
 
              Baa    -0.0047    -2.532    -0.904    -0.845 -0.0052  0.3578  0.9338
     7 H(1)   Bbb    -0.0007    -0.397    -0.142    -0.133  0.8173  0.5396 -0.2022
              Bcc     0.0055     2.929     1.045     0.977 -0.5762  0.7621 -0.2952
 
              Baa    -0.0050    -2.671    -0.953    -0.891  0.2082  0.3612  0.9090
     8 H(1)   Bbb    -0.0024    -1.273    -0.454    -0.425  0.8886 -0.4582 -0.0214
              Bcc     0.0074     3.944     1.407     1.316  0.4087  0.8122 -0.4163
 
              Baa    -0.0114    -1.529    -0.546    -0.510  0.3309  0.9101 -0.2495
     9 C(13)  Bbb     0.0014     0.182     0.065     0.061  0.8302 -0.4064 -0.3816
              Bcc     0.0100     1.347     0.481     0.449  0.4487  0.0809  0.8900
 
              Baa    -0.0050    -2.670    -0.953    -0.891 -0.3918 -0.1384  0.9096
    10 H(1)   Bbb    -0.0024    -1.274    -0.455    -0.425 -0.2920  0.9562  0.0197
              Bcc     0.0074     3.945     1.408     1.316  0.8725  0.2579  0.4151
 
              Baa    -0.0046    -2.452    -0.875    -0.818  0.3731  0.5518  0.7458
    11 H(1)   Bbb    -0.0033    -1.757    -0.627    -0.586 -0.1367  0.8278 -0.5441
              Bcc     0.0079     4.209     1.502     1.404  0.9177 -0.1010 -0.3843
 
              Baa    -0.0047    -2.534    -0.904    -0.845 -0.3513  0.0689  0.9337
    12 H(1)   Bbb    -0.0007    -0.396    -0.141    -0.132  0.6762  0.7085  0.2021
              Bcc     0.0055     2.930     1.045     0.977 -0.6476  0.7024 -0.2955
 
              Baa    -0.0114    -1.529    -0.546    -0.510 -0.6230  0.7414  0.2493
    13 C(13)  Bbb     0.0014     0.182     0.065     0.061  0.7669  0.5162  0.3814
              Bcc     0.0100     1.347     0.481     0.449 -0.1541 -0.4288  0.8902
 
              Baa    -0.0046    -2.453    -0.875    -0.818  0.2914 -0.5984  0.7463
    14 H(1)   Bbb    -0.0033    -1.756    -0.627    -0.586  0.7858 -0.2952 -0.5435
              Bcc     0.0079     4.209     1.502     1.404  0.5455  0.7448  0.3843
 
              Baa    -0.0047    -2.533    -0.904    -0.845  0.2346  0.2696  0.9339
    15 H(1)   Bbb    -0.0007    -0.397    -0.142    -0.133 -0.2754  0.9398 -0.2022
              Bcc     0.0055     2.930     1.045     0.977  0.9323  0.2097 -0.2948
 
              Baa    -0.0050    -2.671    -0.953    -0.891  0.0746  0.4094  0.9093
    16 H(1)   Bbb    -0.0024    -1.274    -0.455    -0.425  0.9742 -0.2246  0.0212
              Bcc     0.0074     3.945     1.408     1.316  0.2129  0.8843 -0.4156
 
              Baa    -0.0114    -1.530    -0.546    -0.510  0.3353  0.9086 -0.2491
    17 C(13)  Bbb     0.0013     0.179     0.064     0.060  0.8960 -0.2258  0.3824
              Bcc     0.0101     1.351     0.482     0.451 -0.2912  0.3514  0.8898
 
              Baa    -0.0050    -2.671    -0.953    -0.891  0.2087 -0.3610  0.9089
    18 H(1)   Bbb    -0.0024    -1.273    -0.454    -0.425  0.8410  0.5407  0.0216
              Bcc     0.0074     3.944     1.407     1.315 -0.4992  0.7598  0.4164
 
              Baa    -0.0046    -2.455    -0.876    -0.819  0.0717  0.6609  0.7471
    19 H(1)   Bbb    -0.0033    -1.757    -0.627    -0.586  0.6396  0.5443 -0.5429
              Bcc     0.0079     4.212     1.503     1.405  0.7654 -0.5168  0.3836
 
              Baa    -0.0047    -2.532    -0.904    -0.845  0.3123 -0.1744  0.9338
    20 H(1)   Bbb    -0.0007    -0.397    -0.142    -0.132 -0.0590  0.9775  0.2024
              Bcc     0.0055     2.929     1.045     0.977  0.9481  0.1183 -0.2950
 
              Baa    -0.0430    -5.770    -2.059    -1.925 -0.1578 -0.4299  0.8890
    21 C(13)  Bbb     0.0065     0.873     0.312     0.291  0.3052  0.8350  0.4579
              Bcc     0.0365     4.897     1.747     1.633  0.9391 -0.3435  0.0005
 
              Baa    -0.4075   -15.716    -5.608    -5.242  0.9389 -0.3441 -0.0001
    22 N(14)  Bbb    -0.4054   -15.634    -5.579    -5.215  0.3389  0.9248  0.1730
              Bcc     0.8128    31.350    11.186    10.457 -0.0595 -0.1625  0.9849
 
              Baa    -0.0114    -1.530    -0.546    -0.511  0.9536  0.1690  0.2490
    23 C(13)  Bbb     0.0013     0.179     0.064     0.060 -0.0638  0.9221 -0.3816
              Bcc     0.0101     1.351     0.482     0.451 -0.2941  0.3481  0.8902
 
              Baa    -0.0046    -2.456    -0.876    -0.819 -0.6629  0.0460  0.7473
    24 H(1)   Bbb    -0.0033    -1.756    -0.626    -0.586  0.6488  0.5335  0.5426
              Bcc     0.0079     4.212     1.503     1.405 -0.3737  0.8445 -0.3835
 
              Baa    -0.0047    -2.530    -0.903    -0.844  0.1162 -0.3378  0.9340
    25 H(1)   Bbb    -0.0007    -0.399    -0.142    -0.133  0.9516 -0.2316 -0.2022
              Bcc     0.0055     2.929     1.045     0.977  0.2846  0.9123  0.2945
 
              Baa    -0.0050    -2.671    -0.953    -0.891  0.3200 -0.2687  0.9085
    26 H(1)   Bbb    -0.0024    -1.273    -0.454    -0.425  0.6807  0.7322 -0.0232
              Bcc     0.0074     3.944     1.407     1.316  0.6590 -0.6259 -0.4172
 
              Baa    -0.0114    -1.529    -0.546    -0.510 -0.6193  0.7445  0.2492
    27 C(13)  Bbb     0.0014     0.182     0.065     0.061  0.6437  0.6632 -0.3818
              Bcc     0.0100     1.347     0.481     0.449  0.4496  0.0760  0.8900
 
              Baa    -0.0050    -2.671    -0.953    -0.891 -0.4162 -0.0015  0.9093
    28 H(1)   Bbb    -0.0024    -1.274    -0.455    -0.425 -0.0485  0.9986 -0.0206
              Bcc     0.0074     3.945     1.408     1.316  0.9080  0.0527  0.4157
 
              Baa    -0.0046    -2.453    -0.875    -0.818  0.5371 -0.3928  0.7464
    29 H(1)   Bbb    -0.0033    -1.757    -0.627    -0.586 -0.1515  0.8256  0.5435
              Bcc     0.0079     4.209     1.502     1.404  0.8298  0.4050 -0.3840
 
              Baa    -0.0047    -2.533    -0.904    -0.845 -0.3073 -0.1834  0.9338
    30 H(1)   Bbb    -0.0007    -0.397    -0.142    -0.132  0.8760 -0.4378  0.2023
              Bcc     0.0055     2.930     1.045     0.977  0.3717  0.8802  0.2952
 

 ---------------------------------------------------------------------------------

 No NMR shielding tensors so no spin-rotation constants.
 Leave Link  601 at Mon Jan 25 21:19:27 2021, MaxMem=  4026531840 cpu:              10.1 elap:               1.7
 (Enter /opt/ohpc/pub/libs/gaussian/g16-A.03/sandybridge/g16/l9999.exe)

 Test job not archived.
 1\1\GINC-CNODE237\SP\ULC-wHPBE\TZVP\C9H18N3(2+,2)\RDU230\25-Jan-2021\0
 \\#P LC-wHPBE/TZVP iop(3/107=0255800000, 3/108=0255800000) scf=(conver
 =6,fermi,ndamp=35,noincfock,novaracc,vshift=500,xqc)\\H18 C9 N3\\2,2\C
 ,0,-0.610862,0.51088,0.000115\C,0,-0.136805,-0.784324,0.000118\N,0,-1.
 625284,1.358829,0.000149\N,0,-0.364248,-2.086765,0.000256\C,0,-1.43024
 7,2.779535,-0.245115\H,0,-1.514482,3.356239,0.681778\H,0,-0.453085,2.9
 53583,-0.69457\H,0,-2.189123,3.132424,-0.948067\C,0,-2.988895,0.914734
 ,0.244915\H,0,-3.47163,1.599951,0.946347\H,0,-3.570653,0.893667,-0.682
 419\H,0,-2.986873,-0.077069,0.695991\C,0,0.701968,-3.045906,0.244739\H
 ,0,1.009895,-3.54009,-0.68252\H,0,1.56061,-2.548225,0.694397\H,0,0.350
 361,-3.805818,0.947208\C,0,-1.692259,-2.627901,-0.244928\H,0,-1.618712
 ,-3.461412,-0.948079\H,0,-2.149477,-2.989362,0.681963\H,0,-2.331523,-1
 .86843,-0.69401\C,0,0.747831,0.27381,0.000062\N,0,1.989493,0.728067,-0
 .000089\C,0,2.287295,2.130832,0.245062\H,0,2.563599,2.644356,-0.681638
 \H,0,1.426241,2.626112,0.692731\H,0,3.119706,2.205914,0.949371\C,0,3.1
 22069,-0.151615,-0.24503\H,0,3.807758,0.3292,-0.947323\H,0,3.663007,-0
 .367678,0.682084\H,0,2.784087,-1.084552,-0.695089\\Version=EM64L-G16Re
 vA.03\State=2-A\HF=-517.084584\S2=0.778398\S2-1=0.\S2A=0.7505\RMSD=6.4
 76e-07\Dipole=0.0000346,-0.0000172,-0.0002426\Quadrupole=12.1269663,12
 .1210882,-24.2480545,0.0001754,0.0009998,0.0006229\PG=C01 [X(C9H18N3)]
 \\@


 THE BEST WAY TO CONVINCE A FOOL THAT HE IS WRONG 
 IS TO LET HIM HAVE HIS OWN WAY.

                                         JOSH BILLINGS
 Job cpu time:       0 days  0 hours 30 minutes 31.6 seconds.
 Elapsed time:       0 days  0 hours  3 minutes 54.8 seconds.
 File lengths (MBytes):  RWF=    112 Int=      0 D2E=      0 Chk=     16 Scr=      8
 Normal termination of Gaussian 16 at Mon Jan 25 21:19:28 2021.
