 Entering Gaussian System, Link 0=g16
 Input=mol_NN_ma_frag_tune_n4.gjf
 Output=mol_NN_ma_frag_tune_n4.log
 Initial command:
 /opt/ohpc/pub/libs/gaussian/g16-A.03/sandybridge/g16/l1.exe "/mnt/gpfs2_4m/scratch/rdu230/ondemand/projects/init_structures/wtuning/mol_NN_ma_frag/tuning_mol_NN_ma_frag_ocycle0/Gau-222605.inp" -scrdir="/mnt/gpfs2_4m/scratch/rdu230/ondemand/projects/init_structures/wtuning/mol_NN_ma_frag/tuning_mol_NN_ma_frag_ocycle0/"
 Entering Link 1 = /opt/ohpc/pub/libs/gaussian/g16-A.03/sandybridge/g16/l1.exe PID=    222606.
  
 Copyright (c) 1988,1990,1992,1993,1995,1998,2003,2009,2016,
            Gaussian, Inc.  All Rights Reserved.
  
 This is part of the Gaussian(R) 16 program.  It is based on
 the Gaussian(R) 09 system (copyright 2009, Gaussian, Inc.),
 the Gaussian(R) 03 system (copyright 2003, Gaussian, Inc.),
 the Gaussian(R) 98 system (copyright 1998, Gaussian, Inc.),
 the Gaussian(R) 94 system (copyright 1995, Gaussian, Inc.),
 the Gaussian 92(TM) system (copyright 1992, Gaussian, Inc.),
 the Gaussian 90(TM) system (copyright 1990, Gaussian, Inc.),
 the Gaussian 88(TM) system (copyright 1988, Gaussian, Inc.),
 the Gaussian 86(TM) system (copyright 1986, Carnegie Mellon
 University), and the Gaussian 82(TM) system (copyright 1983,
 Carnegie Mellon University). Gaussian is a federally registered
 trademark of Gaussian, Inc.
  
 This software contains proprietary and confidential information,
 including trade secrets, belonging to Gaussian, Inc.
  
 This software is provided under written license and may be
 used, copied, transmitted, or stored only in accord with that
 written license.
  
 The following legend is applicable only to US Government
 contracts under FAR:
  
                    RESTRICTED RIGHTS LEGEND
  
 Use, reproduction and disclosure by the US Government is
 subject to restrictions as set forth in subparagraphs (a)
 and (c) of the Commercial Computer Software - Restricted
 Rights clause in FAR 52.227-19.
  
 Gaussian, Inc.
 340 Quinnipiac St., Bldg. 40, Wallingford CT 06492
  
  
 ---------------------------------------------------------------
 Warning -- This program may not be used in any manner that
 competes with the business of Gaussian, Inc. or will provide
 assistance to any competitor of Gaussian, Inc.  The licensee
 of this program is prohibited from giving any competitor of
 Gaussian, Inc. access to this program.  By using this program,
 the user acknowledges that Gaussian, Inc. is engaged in the
 business of creating and licensing software in the field of
 computational chemistry and represents and warrants to the
 licensee that it is not a competitor of Gaussian, Inc. and that
 it will not use this program in any manner prohibited above.
 ---------------------------------------------------------------
  

 Cite this work as:
 Gaussian 16, Revision A.03,
 M. J. Frisch, G. W. Trucks, H. B. Schlegel, G. E. Scuseria, 
 M. A. Robb, J. R. Cheeseman, G. Scalmani, V. Barone, 
 G. A. Petersson, H. Nakatsuji, X. Li, M. Caricato, A. V. Marenich, 
 J. Bloino, B. G. Janesko, R. Gomperts, B. Mennucci, H. P. Hratchian, 
 J. V. Ortiz, A. F. Izmaylov, J. L. Sonnenberg, D. Williams-Young, 
 F. Ding, F. Lipparini, F. Egidi, J. Goings, B. Peng, A. Petrone, 
 T. Henderson, D. Ranasinghe, V. G. Zakrzewski, J. Gao, N. Rega, 
 G. Zheng, W. Liang, M. Hada, M. Ehara, K. Toyota, R. Fukuda, 
 J. Hasegawa, M. Ishida, T. Nakajima, Y. Honda, O. Kitao, H. Nakai, 
 T. Vreven, K. Throssell, J. A. Montgomery, Jr., J. E. Peralta, 
 F. Ogliaro, M. J. Bearpark, J. J. Heyd, E. N. Brothers, K. N. Kudin, 
 V. N. Staroverov, T. A. Keith, R. Kobayashi, J. Normand, 
 K. Raghavachari, A. P. Rendell, J. C. Burant, S. S. Iyengar, 
 J. Tomasi, M. Cossi, J. M. Millam, M. Klene, C. Adamo, R. Cammi, 
 J. W. Ochterski, R. L. Martin, K. Morokuma, O. Farkas, 
 J. B. Foresman, and D. J. Fox, Gaussian, Inc., Wallingford CT, 2016.
 
 ******************************************
 Gaussian 16:  EM64L-G16RevA.03 25-Dec-2016
                17-Jan-2021 
 ******************************************
 %mem=30GB
 %nproc=8
 Will use up to    8 processors via shared memory.
 ----------------------------------------------------------------------
 #P LC-wHPBE/TZVP iop(3/107=0191100000, 3/108=0191100000) scf=(conver=6
 ,fermi,ndamp=35,noincfock,novaracc,vshift=500,xqc)
 ----------------------------------------------------------------------
 1/38=1,172=1/1;
 2/12=2,17=6,18=5,40=1/2;
 3/5=19,7=101,11=2,25=1,30=1,74=-71,107=191100000,108=191100000/1,2,3;
 4//1;
 5/5=100002,6=6,8=3,10=500,13=1,18=-1,22=13,38=1,93=35/2,8;
 6/7=2,8=2,9=2,10=2,28=1/1;
 99/5=1,9=1/99;
 Leave Link    1 at Sun Jan 17 01:17:13 2021, MaxMem=  4026531840 cpu:               1.0 elap:               0.2
 (Enter /opt/ohpc/pub/libs/gaussian/g16-A.03/sandybridge/g16/l101.exe)
 -------------
 H21 C21 N1 O3
 -------------
 Symbolic Z-matrix:
 Charge =  0 Multiplicity = 1
 N                     0.05409   0.06385   0.07778 
 C                    -0.27515  -1.31173   0.10351 
 C                    -1.26086  -1.828    -0.72375 
 C                     0.38614  -2.18481   0.97022 
 C                    -1.59838  -3.17565  -0.68844 
 C                     0.07458  -3.52631   0.99444 
 C                    -0.9252   -4.03443   0.16791 
 H                    -1.78464  -1.16438  -1.40515 
 H                     1.15863  -1.79704   1.62743 
 H                    -2.37944  -3.53752  -1.34742 
 H                     0.58885  -4.20682   1.6658 
 C                    -0.97037   1.03417  -0.01973 
 C                    -2.13478   0.91761   0.72487 
 C                    -0.8358    2.13366  -0.86988 
 C                    -3.15199   1.85817   0.62358 
 C                    -1.82978   3.08391  -0.95816 
 C                    -3.00054   2.95278  -0.21561 
 H                    -2.25549   0.0704    1.39325 
 H                     0.06751   2.24073  -1.46278 
 H                    -4.04824   1.72666   1.21914 
 H                    -1.72525   3.94105  -1.61593 
 O                    -3.92845   3.93673  -0.3802 
 C                    -5.12182   3.84028   0.36528 
 H                    -5.68112   2.93041   0.11545 
 H                    -4.92595   3.85922   1.44425 
 H                    -5.71991   4.71092   0.09647 
 O                    -1.16822  -5.37078   0.27384 
 C                    -2.17046  -5.91972  -0.55288 
 H                    -3.15107  -5.47272  -0.34881 
 H                    -1.93022  -5.79407  -1.61562 
 H                    -2.20858  -6.98373  -0.31961 
 C                     1.40926   0.46648   0.09184 
 C                     2.37233  -0.23261  -0.62022 
 C                     1.81221   1.5815    0.83064 
 C                     3.70783   0.15075  -0.59385 
 C                     3.12996   1.98224   0.84232 
 C                     4.09269   1.26717   0.13358 
 H                     2.07868  -1.10065  -1.20262 
 H                     1.07325   2.13934   1.39782 
 H                     4.42957  -0.42769  -1.1593 
 H                     3.44395   2.85      1.41388 
 O                     5.36958   1.73498   0.21808 
 C                     6.36851   1.03735  -0.49227 
 H                     6.46071   0.00087  -0.14547 
 H                     6.17312   1.04121  -1.57151 
 H                     7.30357   1.5625   -0.29766 
 
 ITRead=  0  0  0  0  0  0  0  0  0  0  0  0  0  0  0  0  0  0  0  0
 ITRead=  0  0  0  0  0  0  0  0  0  0  0  0  0  0  0  0  0  0  0  0
 ITRead=  0  0  0  0  0  0
 MicOpt= -1 -1 -1 -1 -1 -1 -1 -1 -1 -1 -1 -1 -1 -1 -1 -1 -1 -1 -1 -1
 MicOpt= -1 -1 -1 -1 -1 -1 -1 -1 -1 -1 -1 -1 -1 -1 -1 -1 -1 -1 -1 -1
 MicOpt= -1 -1 -1 -1 -1 -1
 NAtoms=     46 NQM=       46 NQMF=       0 NMMI=      0 NMMIF=      0
                NMic=       0 NMicF=      0.
                    Isotopes and Nuclear Properties:
 (Nuclear quadrupole moments (NQMom) in fm**2, nuclear magnetic moments (NMagM)
  in nuclear magnetons)

  Atom         1           2           3           4           5           6           7           8           9          10
 IAtWgt=          14          12          12          12          12          12          12           1           1           1
 AtmWgt=  14.0030740  12.0000000  12.0000000  12.0000000  12.0000000  12.0000000  12.0000000   1.0078250   1.0078250   1.0078250
 NucSpn=           2           0           0           0           0           0           0           1           1           1
 AtZEff=  -0.0000000  -0.0000000  -0.0000000  -0.0000000  -0.0000000  -0.0000000  -0.0000000  -0.0000000  -0.0000000  -0.0000000
 NQMom=    2.0440000   0.0000000   0.0000000   0.0000000   0.0000000   0.0000000   0.0000000   0.0000000   0.0000000   0.0000000
 NMagM=    0.4037610   0.0000000   0.0000000   0.0000000   0.0000000   0.0000000   0.0000000   2.7928460   2.7928460   2.7928460
 AtZNuc=   7.0000000   6.0000000   6.0000000   6.0000000   6.0000000   6.0000000   6.0000000   1.0000000   1.0000000   1.0000000

  Atom        11          12          13          14          15          16          17          18          19          20
 IAtWgt=           1          12          12          12          12          12          12           1           1           1
 AtmWgt=   1.0078250  12.0000000  12.0000000  12.0000000  12.0000000  12.0000000  12.0000000   1.0078250   1.0078250   1.0078250
 NucSpn=           1           0           0           0           0           0           0           1           1           1
 AtZEff=  -0.0000000  -0.0000000  -0.0000000  -0.0000000  -0.0000000  -0.0000000  -0.0000000  -0.0000000  -0.0000000  -0.0000000
 NQMom=    0.0000000   0.0000000   0.0000000   0.0000000   0.0000000   0.0000000   0.0000000   0.0000000   0.0000000   0.0000000
 NMagM=    2.7928460   0.0000000   0.0000000   0.0000000   0.0000000   0.0000000   0.0000000   2.7928460   2.7928460   2.7928460
 AtZNuc=   1.0000000   6.0000000   6.0000000   6.0000000   6.0000000   6.0000000   6.0000000   1.0000000   1.0000000   1.0000000

  Atom        21          22          23          24          25          26          27          28          29          30
 IAtWgt=           1          16          12           1           1           1          16          12           1           1
 AtmWgt=   1.0078250  15.9949146  12.0000000   1.0078250   1.0078250   1.0078250  15.9949146  12.0000000   1.0078250   1.0078250
 NucSpn=           1           0           0           1           1           1           0           0           1           1
 AtZEff=  -0.0000000  -0.0000000  -0.0000000  -0.0000000  -0.0000000  -0.0000000  -0.0000000  -0.0000000  -0.0000000  -0.0000000
 NQMom=    0.0000000   0.0000000   0.0000000   0.0000000   0.0000000   0.0000000   0.0000000   0.0000000   0.0000000   0.0000000
 NMagM=    2.7928460   0.0000000   0.0000000   2.7928460   2.7928460   2.7928460   0.0000000   0.0000000   2.7928460   2.7928460
 AtZNuc=   1.0000000   8.0000000   6.0000000   1.0000000   1.0000000   1.0000000   8.0000000   6.0000000   1.0000000   1.0000000

  Atom        31          32          33          34          35          36          37          38          39          40
 IAtWgt=           1          12          12          12          12          12          12           1           1           1
 AtmWgt=   1.0078250  12.0000000  12.0000000  12.0000000  12.0000000  12.0000000  12.0000000   1.0078250   1.0078250   1.0078250
 NucSpn=           1           0           0           0           0           0           0           1           1           1
 AtZEff=  -0.0000000  -0.0000000  -0.0000000  -0.0000000  -0.0000000  -0.0000000  -0.0000000  -0.0000000  -0.0000000  -0.0000000
 NQMom=    0.0000000   0.0000000   0.0000000   0.0000000   0.0000000   0.0000000   0.0000000   0.0000000   0.0000000   0.0000000
 NMagM=    2.7928460   0.0000000   0.0000000   0.0000000   0.0000000   0.0000000   0.0000000   2.7928460   2.7928460   2.7928460
 AtZNuc=   1.0000000   6.0000000   6.0000000   6.0000000   6.0000000   6.0000000   6.0000000   1.0000000   1.0000000   1.0000000

  Atom        41          42          43          44          45          46
 IAtWgt=           1          16          12           1           1           1
 AtmWgt=   1.0078250  15.9949146  12.0000000   1.0078250   1.0078250   1.0078250
 NucSpn=           1           0           0           1           1           1
 AtZEff=  -0.0000000  -0.0000000  -0.0000000  -0.0000000  -0.0000000  -0.0000000
 NQMom=    0.0000000   0.0000000   0.0000000   0.0000000   0.0000000   0.0000000
 NMagM=    2.7928460   0.0000000   0.0000000   2.7928460   2.7928460   2.7928460
 AtZNuc=   1.0000000   8.0000000   6.0000000   1.0000000   1.0000000   1.0000000
 Leave Link  101 at Sun Jan 17 01:17:13 2021, MaxMem=  4026531840 cpu:               0.8 elap:               0.1
 (Enter /opt/ohpc/pub/libs/gaussian/g16-A.03/sandybridge/g16/l202.exe)
                          Input orientation:                          
 ---------------------------------------------------------------------
 Center     Atomic      Atomic             Coordinates (Angstroms)
 Number     Number       Type             X           Y           Z
 ---------------------------------------------------------------------
      1          7           0        0.054086    0.063852    0.077784
      2          6           0       -0.275154   -1.311734    0.103506
      3          6           0       -1.260864   -1.827996   -0.723750
      4          6           0        0.386135   -2.184815    0.970218
      5          6           0       -1.598384   -3.175646   -0.688444
      6          6           0        0.074577   -3.526309    0.994438
      7          6           0       -0.925200   -4.034430    0.167909
      8          1           0       -1.784639   -1.164375   -1.405148
      9          1           0        1.158634   -1.797039    1.627427
     10          1           0       -2.379444   -3.537517   -1.347421
     11          1           0        0.588853   -4.206820    1.665799
     12          6           0       -0.970368    1.034170   -0.019727
     13          6           0       -2.134785    0.917606    0.724871
     14          6           0       -0.835797    2.133662   -0.869883
     15          6           0       -3.151989    1.858174    0.623575
     16          6           0       -1.829782    3.083912   -0.958163
     17          6           0       -3.000537    2.952781   -0.215611
     18          1           0       -2.255494    0.070396    1.393250
     19          1           0        0.067507    2.240735   -1.462783
     20          1           0       -4.048238    1.726664    1.219136
     21          1           0       -1.725247    3.941045   -1.615932
     22          8           0       -3.928451    3.936733   -0.380204
     23          6           0       -5.121818    3.840279    0.365278
     24          1           0       -5.681122    2.930406    0.115451
     25          1           0       -4.925953    3.859223    1.444250
     26          1           0       -5.719912    4.710924    0.096466
     27          8           0       -1.168220   -5.370782    0.273837
     28          6           0       -2.170458   -5.919715   -0.552884
     29          1           0       -3.151070   -5.472720   -0.348812
     30          1           0       -1.930216   -5.794070   -1.615623
     31          1           0       -2.208576   -6.983730   -0.319613
     32          6           0        1.409258    0.466483    0.091838
     33          6           0        2.372325   -0.232608   -0.620224
     34          6           0        1.812213    1.581496    0.830640
     35          6           0        3.707828    0.150754   -0.593850
     36          6           0        3.129962    1.982235    0.842322
     37          6           0        4.092694    1.267169    0.133583
     38          1           0        2.078678   -1.100647   -1.202616
     39          1           0        1.073246    2.139336    1.397822
     40          1           0        4.429565   -0.427688   -1.159301
     41          1           0        3.443945    2.849999    1.413878
     42          8           0        5.369584    1.734982    0.218075
     43          6           0        6.368506    1.037347   -0.492266
     44          1           0        6.460713    0.000867   -0.145468
     45          1           0        6.173119    1.041208   -1.571513
     46          1           0        7.303574    1.562498   -0.297656
 ---------------------------------------------------------------------
                    Distance matrix (angstroms):
                    1          2          3          4          5
     1  N    0.000000
     2  C    1.414672   0.000000
     3  C    2.439393   1.386544   0.000000
     4  C    2.441966   1.396697   2.389446   0.000000
     5  C    3.716465   2.419151   1.389722   2.769697   0.000000
     6  C    3.705392   2.412553   2.760406   1.377411   2.398719
     7  C    4.214622   2.799961   2.403347   2.405073   1.387093
     8  H    2.662431   2.139228   1.085834   3.375785   2.143261
     9  H    2.661641   2.147930   3.373865   1.085840   3.855511
    10  H    4.574181   3.389297   2.136036   3.853528   1.084092
    11  H    4.587636   3.401292   3.845803   2.147890   3.374876
    12  C    1.414401   2.449852   2.961761   3.630696   4.308612
    13  C    2.436960   2.968885   3.224992   4.005028   4.363473
    14  C    2.444193   3.623887   3.987075   4.850601   5.366862
    15  C    3.714350   4.312188   4.356545   5.383702   5.429035
    16  C    3.707143   4.781811   4.950299   6.032282   6.269638
    17  C    4.214583   5.071059   5.112778   6.266628   6.304540
    18  H    2.657942   2.737785   3.012452   3.499019   3.911781
    19  H    2.666898   3.897527   4.343422   5.060288   5.719439
    20  H    4.571290   4.971183   4.917303   5.918217   5.802869
    21  H    4.589916   5.714099   5.856063   6.976551   7.177995
    22  O    5.574008   6.413030   6.361301   7.610036   7.490671
    23  C    6.413582   7.078271   6.944227   8.185674   7.921371
    24  H    6.411799   6.871709   6.548689   7.981712   7.389105
    25  H    6.408811   7.082819   7.104756   8.060607   8.069107
    26  H    7.411793   8.118981   7.956968   9.251944   8.933144
    27  O    5.573842   4.159621   3.681725   3.612665   2.435087
    28  C    6.414781   5.025586   4.195083   4.775509   2.806343
    29  H    6.411602   5.078316   4.122799   5.006194   2.793337
    30  H    6.412514   5.077989   4.119856   5.007872   2.797484
    31  H    7.412555   6.007386   5.257668   5.605870   3.874258
    32  C    1.413789   2.449375   3.613775   2.974511   4.787468
    33  C    2.439126   2.949143   3.969388   3.207112   4.942940
    34  C    2.441525   3.640962   4.846088   4.029675   6.047329
    35  C    3.715976   4.299921   5.349787   4.351418   6.263367
    36  C    3.704825   4.794882   6.020780   4.990917   7.162698
    37  C    4.214432   5.072449   6.243048   5.133686   7.266547
    38  H    2.663542   2.700192   3.451216   2.959954   4.253326
    39  H    2.662484   3.924706   5.068418   4.399233   6.303899
    40  H    4.573490   4.950818   5.876355   4.896087   6.641472
    41  H    4.586819   5.733131   6.970532   5.907316   8.133464
    42  O    5.573767   6.415502   7.585821   6.384770   8.572551
    43  C    6.414402   7.071870   8.152979   6.950536   9.014385
    44  H    6.410825   6.867082   7.956249   6.551523   8.679522
    45  H    6.412330   7.065568   8.013435   7.096253   8.885827
    46  H    7.412285   8.115372   9.220987   7.968740  10.091956
                    6          7          8          9         10
     6  C    0.000000
     7  C    1.393159   0.000000
     8  H    3.846223   3.383838   0.000000
     9  H    2.136874   3.387990   4.273129   0.000000
    10  H    3.392145   2.158234   2.447229   4.939330   0.000000
    11  H    1.085496   2.136761   4.931597   2.476523   4.282318
    12  C    4.787318   5.072273   2.723239   3.906598   4.964734
    13  C    4.970144   5.127959   2.999038   4.362398   4.919591
    14  C    6.028246   6.255427   3.473306   5.066036   5.896877
    15  C    6.288157   6.315774   3.888594   5.740189   5.796131
    16  C    7.150822   7.263408   4.271976   6.280095   6.655597
    17  C    7.273180   7.298988   4.454703   6.576951   6.617456
    18  H    4.304018   4.485615   3.094737   3.898515   4.532513
    19  H    6.268715   6.559140   3.876666   5.200344   6.276072
    20  H    6.681453   6.636916   4.513187   6.300373   6.089638
    21  H    8.112631   8.211599   5.110115   7.194564   7.511921
    22  O    8.579678   8.535771   5.627410   7.923709   7.694111
    23  C    9.036868   8.925335   6.270385   8.533256   8.055174
    24  H    8.694243   8.433889   5.853378   8.450862   7.407773
    25  H    8.930493   8.941187   6.574455   8.309576   8.306016
    26  H   10.111106   9.973745   7.229132   9.592279   9.015560
    27  O    2.337924   1.362394   4.570867   4.474159   2.730641
    28  C    3.628055   2.371605   4.846490   5.730015   2.519887
    29  H    3.999704   2.700033   4.641639   5.999142   2.310333
    30  H    3.996793   2.699514   4.636763   6.002885   2.316413
    31  H    4.346640   3.253168   5.934897   6.483119   3.600273
    32  C    4.305630   5.070868   3.886083   2.746703   5.697170
    33  C    4.328423   5.093984   4.331818   2.995401   5.833571
    34  C    5.397766   6.282616   5.047366   3.532214   6.965503
    35  C    5.407769   6.289753   5.705696   3.902097   7.157241
    36  C    6.300998   7.286936   6.253445   4.334217   8.100382
    37  C    6.313776   7.299821   6.543939   4.497738   8.195545
    38  H    3.837617   4.416866   3.869147   3.056237   5.082731
    39  H    5.767113   6.604685   5.190246   3.943990   7.189165
    40  H    5.762462   6.591175   6.262546   4.509985   7.487926
    41  H    7.223979   8.248468   7.169393   5.182973   9.073973
    42  O    7.504733   8.538907   7.888221   5.673936   9.502497
    43  C    7.915225   8.908249   8.494393   6.298381   9.908950
    44  H    7.383975   8.422205   8.422019   5.872620   9.597564
    45  H    8.039809   8.897967   8.259430   6.590442   9.703673
    46  H    8.934420   9.962684   9.552905   7.263107  10.994226
                   11         12         13         14         15
    11  H    0.000000
    12  C    5.721900   0.000000
    13  C    5.879055   1.387040   0.000000
    14  C    6.975745   1.396337   2.389436   0.000000
    15  C    7.201686   2.419151   1.389112   2.769667   0.000000
    16  C    8.117250   2.412612   2.760165   1.377960   2.398450
    17  C    8.226987   2.800183   2.403325   2.405229   1.387565
    18  H    5.143848   2.139372   1.085848   3.375556   2.142954
    19  H    7.185457   2.148347   3.374402   1.085796   3.855437
    20  H    7.543763   3.389338   2.135457   3.853495   1.084090
    21  H    9.083640   3.401123   3.845551   2.148102   3.374809
    22  O    9.534654   4.159936   3.681515   3.613220   2.435338
    23  C    9.952835   5.025636   4.194483   4.775787   2.806365
    24  H    9.625807   5.079881   4.123016   5.008279   2.793633
    25  H    9.773598   5.076495   4.118402   5.006211   2.797258
    26  H   11.035827   6.007511   5.257118   5.606308   3.874307
    27  O    2.525801   6.414728   6.378205   7.598374   7.504363
    28  C    3.933238   7.076792   6.955781   8.169375   7.927359
    29  H    4.432627   6.870471   6.559108   7.968002   7.395103
    30  H    4.430892   7.077645   7.111002   8.037588   8.066200
    31  H    4.413468   8.118486   7.970414   9.236566   8.941974
    32  C    4.999018   2.448946   3.628289   2.957138   4.798387
    33  C    4.919455   3.624765   4.842139   3.994197   6.036261
    34  C    5.974839   2.960650   4.003839   3.195094   4.976216
    35  C    5.815709   4.795368   6.038478   4.965143   7.173179
    36  C    6.740901   4.295889   5.372596   4.322247   6.286983
    37  C    6.677510   5.070739   6.265246   5.103702   7.285246
    38  H    4.482822   3.905554   5.053892   4.366421   6.280882
    39  H    6.370255   2.721616   3.498135   2.964281   4.304779
    40  H    6.083921   5.709197   6.960647   5.862449   8.116882
    41  H    7.616673   4.983836   5.943997   4.903559   6.716743
    42  O    7.762493   6.382999   7.565745   6.312634   8.532105
    43  C    8.097093   7.354072   8.590793   7.297019   9.620742
    44  H    7.447420   7.503632   8.687951   7.636272   9.820644
    45  H    8.319015   7.310095   8.620321   7.128159   9.614753
    46  H    9.067947   8.295450   9.515465   8.179427  10.500233
                   16         17         18         19         20
    16  C    0.000000
    17  C    1.392568   0.000000
    18  H    3.845992   3.384031   0.000000
    19  H    2.136655   3.387527   4.273597   0.000000
    20  H    3.391799   2.158597   2.446931   4.939263   0.000000
    21  H    1.085479   2.136335   4.931355   2.475576   4.282217
    22  O    2.337895   1.362452   4.570830   4.473932   2.730685
    23  C    3.627821   2.371691   4.846087   5.729698   2.519725
    24  H    4.001129   2.701044   4.641913   6.001100   2.309421
    25  H    3.994868   2.698889   4.635640   6.000416   2.317082
    26  H    4.346553   3.253223   5.934504   6.482847   3.600096
    27  O    8.569559   8.536899   5.660536   7.904307   7.717631
    28  C    9.019180   8.917621   6.298897   8.510543   8.070516
    29  H    8.679462   8.427898   5.879028   8.431937   7.422567
    30  H    8.902859   8.922613   6.599325   8.280842   8.311637
    31  H   10.094981   9.968564   7.259256   9.569647   9.034549
    32  C    4.294743   5.071735   3.909088   2.713874   5.713416
    33  C    5.363880   6.259238   5.055947   3.484181   6.960289
    34  C    4.326800   5.112497   4.375636   2.956076   5.875108
    35  C    6.277043   7.279875   6.286194   4.286607   8.119542
    36  C    5.390223   6.296364   5.741236   3.841739   7.192625
    37  C    6.290325   7.299120   6.581680   4.438282   8.225833
    38  H    5.731174   6.572890   5.186030   3.908622   7.169217
    39  H    3.856224   4.456520   3.919317   3.033950   5.141189
    40  H    7.179918   8.217332   7.173118   5.122512   9.064841
    41  H    5.787356   6.648093   6.341153   4.477356   7.578431
    42  O    7.418492   8.469359   7.892636   5.585077   9.470880
    43  C    8.462707   9.566838   8.880515   6.487884  10.578876
    44  H    8.882452   9.911305   8.851257   6.901117  10.736786
    45  H    8.282226   9.468292   8.987425   6.223278  10.617613
    46  H    9.282735  10.397804   9.821472   7.360584  11.453875
                   21         22         23         24         25
    21  H    0.000000
    22  O    2.526094   0.000000
    23  C    3.933452   1.410380   0.000000
    24  H    4.434865   2.080919   1.096861   0.000000
    25  H    4.428987   2.080781   1.096769   1.788488   0.000000
    26  H    4.413884   2.008960   1.089954   1.781042   1.781092
    27  O    9.517963   9.730184  10.024118   9.449926  10.034113
    28  C    9.927884  10.013487  10.237726   9.544426  10.354174
    29  H    9.605079   9.441563   9.545979   8.788016   9.666977
    30  H    9.737273  10.010381  10.340743   9.653103  10.560461
    31  H   11.012028  11.055232  11.230104  10.513703  11.316580
    32  C    4.981383   6.384089   7.356101   7.506328   7.312633
    33  C    5.933035   7.559153   8.586140   8.683541   8.618004
    34  C    4.905793   6.322065   7.307493   7.647295   7.139148
    35  C    6.702929   8.525963   9.617441   9.817431   9.615028
    36  C    5.783857   7.425350   8.471822   8.891714   8.293562
    37  C    6.637684   8.469316   9.569839   9.914341   9.474840
    38  H    6.329244   7.882713   8.872327   8.843143   8.981707
    39  H    4.490037   5.604372   6.506779   6.920387   6.241038
    40  H    7.561485   9.461057  10.572076  10.729761  10.615168
    41  H    6.090211   7.664982   8.686341   9.217333   8.430578
    42  O    7.652903   9.573876  10.701563  11.115650  10.583666
    43  C    8.671962  10.697959  11.858303  12.212556  11.801605
    44  H    9.203109  11.112195  12.212984  12.492975  12.127253
    45  H    8.413989  10.575680  11.796676  12.121796  11.841682
    46  H    9.429472  11.480514  12.649827  13.063084  12.564653
                   26         27         28         29         30
    26  H    0.000000
    27  O   11.063008   0.000000
    28  C   11.226342   1.410417   0.000000
    29  H   10.512080   2.080812   1.096836   0.000000
    30  H   11.298139   2.080834   1.096776   1.788452   0.000000
    31  H   12.217509   2.009011   1.089952   1.781095   1.781128
    32  C    8.297009   6.383587   7.349392   7.500993   7.298084
    33  C    9.509808   6.303621   7.279052   7.618420   7.101587
    34  C    8.189337   7.584667   8.604881   8.705587   8.624903
    35  C   10.495426   7.417283   8.450238   8.872879   8.256664
    36  C    9.290980   8.536065   9.616749   9.820719   9.597803
    37  C   10.399426   8.471085   9.557699   9.906105   9.444377
    38  H    9.812236   5.563840   6.457610   6.869808   6.186277
    39  H    7.379267   7.917663   8.903661   8.879131   9.002253
    40  H   11.445268   7.604161   8.607578   9.141951   8.333853
    41  H    9.443246   9.494893  10.597054  10.764244  10.619765
    42  O   11.482506   9.655976  10.772233  11.174698  10.645945
    43  C   12.647989   9.922362  11.014458  11.533598  10.807357
    44  H   13.061807   9.339756  10.474559  11.062905  10.302929
    45  H   12.557594   9.920393  10.913631  11.439701  10.601274
    46  H   13.404444  10.962129  12.075013  12.601448  11.879352
                   31         32         33         34         35
    31  H    0.000000
    32  C    8.292387   0.000000
    33  C    8.164109   1.386816   0.000000
    34  C    9.531680   1.396945   2.389499   0.000000
    35  C    9.272535   2.419355   1.389687   2.769395   0.000000
    36  C   10.499458   2.412789   2.760178   1.377385   2.398091
    37  C   10.391762   2.800655   2.403586   2.405262   1.386962
    38  H    7.332865   2.140007   1.085772   3.376244   2.142599
    39  H    9.846333   2.148706   3.374349   1.085796   3.855157
    40  H    9.367587   3.389269   2.135626   3.853209   1.084082
    41  H   11.474241   3.401307   3.845570   2.147514   3.374393
    42  O   11.564323   4.160434   3.682081   3.612988   2.435248
    43  C   11.744523   5.026053   4.195071   4.775561   2.806345
    44  H   11.134249   5.078416   4.122477   5.005969   2.793186
    45  H   11.671319   5.078525   4.119902   5.007969   2.797569
    46  H   12.787474   6.007988   5.257725   5.606109   3.874292
                   36         37         38         39         40
    36  C    0.000000
    37  C    1.393012   0.000000
    38  H    3.845924   3.383525   0.000000
    39  H    2.136198   3.387631   4.274419   0.000000
    40  H    3.391636   2.158141   2.445694   4.938964   0.000000
    41  H    1.085484   2.136675   4.931288   2.474977   4.282047
    42  O    2.338103   1.362511   4.570472   4.473681   2.730923
    43  C    3.627962   2.371461   4.845435   5.729449   2.520071
    44  H    3.999431   2.699797   4.640380   5.998299   2.310212
    45  H    3.996616   2.699366   4.635523   6.002628   2.316798
    46  H    4.346811   3.253143   5.933872   6.482621   3.600444
                   41         42         43         44         45
    41  H    0.000000
    42  O    2.526122   0.000000
    43  C    3.933465   1.410363   0.000000
    44  H    4.432832   2.080837   1.096842   0.000000
    45  H    4.430877   2.080773   1.096798   1.788470   0.000000
    46  H    4.414039   2.008991   1.089958   1.781086   1.781119
                   46
    46  H    0.000000
 Stoichiometry    C21H21NO3
 Framework group  C1[X(C21H21NO3)]
 Deg. of freedom   132
 Full point group                 C1      NOp   1
 Largest Abelian subgroup         C1      NOp   1
 Largest concise Abelian subgroup C1      NOp   1
                         Standard orientation:                         
 ---------------------------------------------------------------------
 Center     Atomic      Atomic             Coordinates (Angstroms)
 Number     Number       Type             X           Y           Z
 ---------------------------------------------------------------------
      1          7           0       -0.054086   -0.063852    0.077784
      2          6           0        0.275154    1.311734    0.103506
      3          6           0        1.260864    1.827996   -0.723750
      4          6           0       -0.386136    2.184815    0.970218
      5          6           0        1.598383    3.175646   -0.688444
      6          6           0       -0.074578    3.526309    0.994438
      7          6           0        0.925199    4.034430    0.167909
      8          1           0        1.784639    1.164376   -1.405148
      9          1           0       -1.158634    1.797039    1.627427
     10          1           0        2.379443    3.537518   -1.347421
     11          1           0       -0.588854    4.206820    1.665799
     12          6           0        0.970368   -1.034170   -0.019727
     13          6           0        2.134785   -0.917605    0.724871
     14          6           0        0.835798   -2.133662   -0.869883
     15          6           0        3.151989   -1.858173    0.623575
     16          6           0        1.829783   -3.083911   -0.958163
     17          6           0        3.000538   -2.952780   -0.215611
     18          1           0        2.255494   -0.070395    1.393250
     19          1           0       -0.067506   -2.240735   -1.462783
     20          1           0        4.048238   -1.726663    1.219136
     21          1           0        1.725248   -3.941045   -1.615932
     22          8           0        3.928452   -3.936732   -0.380204
     23          6           0        5.121819   -3.840278    0.365278
     24          1           0        5.681123   -2.930405    0.115451
     25          1           0        4.925954   -3.859222    1.444250
     26          1           0        5.719913   -4.710923    0.096466
     27          8           0        1.168219    5.370782    0.273837
     28          6           0        2.170457    5.919716   -0.552884
     29          1           0        3.151069    5.472721   -0.348812
     30          1           0        1.930215    5.794071   -1.615623
     31          1           0        2.208574    6.983731   -0.319613
     32          6           0       -1.409258   -0.466483    0.091838
     33          6           0       -2.372325    0.232607   -0.620224
     34          6           0       -1.812213   -1.581496    0.830640
     35          6           0       -3.707828   -0.150755   -0.593850
     36          6           0       -3.129962   -1.982236    0.842322
     37          6           0       -4.092694   -1.267170    0.133583
     38          1           0       -2.078678    1.100647   -1.202616
     39          1           0       -1.073245   -2.139336    1.397822
     40          1           0       -4.429565    0.427687   -1.159301
     41          1           0       -3.443944   -2.850000    1.413878
     42          8           0       -5.369584   -1.734983    0.218075
     43          6           0       -6.368506   -1.037348   -0.492266
     44          1           0       -6.460713   -0.000869   -0.145468
     45          1           0       -6.173119   -1.041209   -1.571513
     46          1           0       -7.303574   -1.562500   -0.297656
 ---------------------------------------------------------------------
 Rotational constants (GHZ):           0.1829468           0.1651743           0.0911050
 Leave Link  202 at Sun Jan 17 01:17:13 2021, MaxMem=  4026531840 cpu:               0.2 elap:               0.0
 (Enter /opt/ohpc/pub/libs/gaussian/g16-A.03/sandybridge/g16/l301.exe)
 Standard basis: TZVP (5D, 7F)
 Ernie: Thresh=  0.10000D-02 Tol=  0.10000D-05 Strict=F.
 There are   626 symmetry adapted cartesian basis functions of A   symmetry.
 There are   601 symmetry adapted basis functions of A   symmetry.
   601 basis functions,  1043 primitive gaussians,   626 cartesian basis functions
    89 alpha electrons       89 beta electrons
       nuclear repulsion energy      2056.6778086010 Hartrees.
 IExCor=33909 DFT=T Ex+Corr=LC-wHPBE ExCW=0 ScaHFX=  1.000000
 ScaDFX=  1.000000  1.000000  1.000000  1.000000 ScalE2=  1.000000  1.000000
 IRadAn=      5 IRanWt=     -1 IRanGd=            0 ICorTp=0 IEmpDi=  4
 HFx  wShort=  0.000000 wLong=  0.191100 cFull=  0.000000 cShort=  0.000000 cLong=  1.000000
 DFx  wShort=  0.000000 wLong=  0.191100 cFull=  0.000000 cShort=  1.000000 cLong=  0.000000
 NAtoms=   46 NActive=   46 NUniq=   46 SFac= 1.00D+00 NAtFMM=   60 NAOKFM=F Big=F
 Integral buffers will be    131072 words long.
 Raffenetti 2 integral format.
 Two-electron integral symmetry is turned on.
 Leave Link  301 at Sun Jan 17 01:17:13 2021, MaxMem=  4026531840 cpu:               0.4 elap:               0.1
 (Enter /opt/ohpc/pub/libs/gaussian/g16-A.03/sandybridge/g16/l302.exe)
 NPDir=0 NMtPBC=     1 NCelOv=     1 NCel=       1 NClECP=     1 NCelD=      1
         NCelK=      1 NCelE2=     1 NClLst=     1 CellRange=     0.0.
 One-electron integrals computed using PRISM.
 One-electron integral symmetry used in STVInt
 NBasis=   601 RedAO= T EigKep=  7.47D-06  NBF=   601
 NBsUse=   601 1.00D-06 EigRej= -1.00D+00 NBFU=   601
 Precomputing XC quadrature grid using
 IXCGrd= 4 IRadAn=           5 IRanWt=          -1 IRanGd=           0 AccXCQ= 0.00D+00.
 Generated NRdTot=       0 NPtTot=           0 NUsed=           0 NTot=          32
 NSgBfM=   597   597   597   597   597 MxSgAt=    46 MxSgA2=    46.
 Leave Link  302 at Sun Jan 17 01:17:14 2021, MaxMem=  4026531840 cpu:              10.2 elap:               1.3
 (Enter /opt/ohpc/pub/libs/gaussian/g16-A.03/sandybridge/g16/l303.exe)
 DipDrv:  MaxL=1.
 Leave Link  303 at Sun Jan 17 01:17:15 2021, MaxMem=  4026531840 cpu:               0.7 elap:               0.1
 (Enter /opt/ohpc/pub/libs/gaussian/g16-A.03/sandybridge/g16/l401.exe)
 ExpMin= 9.52D-02 ExpMax= 2.70D+04 ExpMxC= 9.22D+02 IAcc=3 IRadAn=         5 AccDes= 0.00D+00
 Harris functional with IExCor=33909 and IRadAn=       5 diagonalized for initial guess.
 HarFok:  IExCor=33909 AccDes= 0.00D+00 IRadAn=         5 IDoV= 1 UseB2=F ITyADJ=14
 ICtDFT=  3500011 ScaDFX=  1.000000  1.000000  1.000000  1.000000
 FoFCou: FMM=F IPFlag=           0 FMFlag=      100000 FMFlg1=           0
         NFxFlg=           0 DoJE=T BraDBF=F KetDBF=T FulRan=T
         wScrn=  0.000000 ICntrl=       500 IOpCl=  0 I1Cent=   200000004 NGrid=           0
         NMat0=    1 NMatS0=      1 NMatT0=    0 NMatD0=    1 NMtDS0=    0 NMtDT0=    0
 Petite list used in FoFCou.
 Harris En= -1074.46379845965    
 JPrj=0 DoOrth=F DoCkMO=F.
 Leave Link  401 at Sun Jan 17 01:17:21 2021, MaxMem=  4026531840 cpu:              53.4 elap:               6.7
 (Enter /opt/ohpc/pub/libs/gaussian/g16-A.03/sandybridge/g16/l502.exe)
 Integral symmetry usage will be decided dynamically.
 Closed shell SCF:
 Using DIIS extrapolation, IDIIS=    10.
 NGot=  4026531840 LenX=  4025736816 LenY=  4025344314
 Requested convergence on RMS density matrix=1.00D-06 within  32 cycles.
 Requested convergence on MAX density matrix=1.00D-04.
 Requested convergence on             energy=1.00D-04.
 Virtual orbitals will be shifted by   0.500 hartree.
 No special actions if energy rises.
 Dynamic level shift is on during FON iterations.

 Cycle   1  Pass 1  IDiag  1:
 FoFJK:  IHMeth= 1 ICntrl=       0 DoSepK=T KAlg= 0 I1Cent=           0 FoldK=F
 IRaf=         1 NMat=       1 IRICut=       1 DoRegI=T DoRafI=F ISym2E= 0 IDoP0=0 IntGTp=1.
 FoFCou: FMM=F IPFlag=           0 FMFlag=      100000 FMFlg1=           0
         NFxFlg=           0 DoJE=T BraDBF=F KetDBF=F FulRan=T
         wScrn=  0.000000 ICntrl=       500 IOpCl=  0 I1Cent=           0 NGrid=           0
         NMat0=    1 NMatS0=      1 NMatT0=    0 NMatD0=    1 NMtDS0=    0 NMtDT0=    0
 Symmetry not used in FoFCou.
 E= -1092.21074071627    
 DIIS: error= 3.00D-02 at cycle   1 NSaved=   1.
 NSaved= 1 IEnMin= 1 EnMin= -1092.21074071627     IErMin= 1 ErrMin= 3.00D-02
 ErrMax= 3.00D-02  0.00D+00 EMaxC= 1.00D+00 BMatC= 4.01D-01 BMatP= 4.01D-01
 IDIUse=1 WtCom= 1.00D+00 WtEn= 0.00D+00
 Coeff-Com:  0.100D+01
 Coeff:      0.100D+01
 Gap=     0.293 Goal=   None    Shift=    0.500
 T= 1495. Gap= 0.760 NK=0 IS=   90 IE=  601 IFin=   89
          NO(<0.9)=   0  NV(>0.1)=   0     89.00e < EF      0.00e >EF  Err=0.0D+00
 GapD=    0.293 DampG=1.000 DampE=0.500 DampFc=0.5000 IDamp=-1.
 Damping current iteration by 5.00D-01
 RMSDP=1.88D-03 MaxDP=6.28D-02              OVMax= 6.30D-02

 Cycle   2  Pass 1  IDiag  1:
 E= -1092.44970426631     Delta-E=       -0.238963550034 Rises=F Damp=T
 DIIS: error= 1.36D-02 at cycle   2 NSaved=   2.
 NSaved= 2 IEnMin= 2 EnMin= -1092.44970426631     IErMin= 2 ErrMin= 1.36D-02
 ErrMax= 1.36D-02  0.00D+00 EMaxC= 1.00D+00 BMatC= 6.98D-02 BMatP= 4.01D-01
 IDIUse=1 WtCom= 1.00D+00 WtEn= 0.00D+00
 Coeff-Com: -0.586D+00 0.159D+01
 Coeff:     -0.586D+00 0.159D+01
 Gap=     0.264 Goal=   None    Shift=    0.500
 T= 1375. Gap= 0.744 NK=0 IS=   90 IE=  601 IFin=   89
          NO(<0.9)=   0  NV(>0.1)=   0     89.00e < EF      0.00e >EF  Err=0.0D+00
 GapD=    0.264 DampG=1.000 DampE=0.500 DampFc=0.5000 IDamp=-1.
 Damping current iteration by 5.00D-01
 RMSDP=1.35D-03 MaxDP=6.94D-02 DE=-2.39D-01 OVMax= 1.45D-02

 Cycle   3  Pass 1  IDiag  1:
 E= -1092.53394419254     Delta-E=       -0.084239926237 Rises=F Damp=T
 DIIS: error= 6.26D-03 at cycle   3 NSaved=   3.
 NSaved= 3 IEnMin= 3 EnMin= -1092.53394419254     IErMin= 3 ErrMin= 6.26D-03
 ErrMax= 6.26D-03  0.00D+00 EMaxC= 1.00D+00 BMatC= 1.38D-02 BMatP= 6.98D-02
 IDIUse=1 WtCom= 1.00D+00 WtEn= 0.00D+00
 Coeff-Com:  0.599D-01-0.938D+00 0.188D+01
 Coeff:      0.599D-01-0.938D+00 0.188D+01
 Gap=     0.259 Goal=   None    Shift=    0.500
 T= 1141. Gap= 0.758 NK=0 IS=   90 IE=  601 IFin=   89
          NO(<0.9)=   0  NV(>0.1)=   0     89.00e < EF      0.00e >EF  Err=0.0D+00
 GapD=    0.259 DampG=1.000 DampE=1.000 DampFc=1.0000 IDamp=-1.
 RMSDP=9.06D-04 MaxDP=5.83D-02 DE=-8.42D-02 OVMax= 7.80D-03

 Cycle   4  Pass 1  IDiag  1:
 E= -1092.60418897693     Delta-E=       -0.070244784383 Rises=F Damp=F
 DIIS: error= 6.85D-04 at cycle   4 NSaved=   4.
 NSaved= 4 IEnMin= 4 EnMin= -1092.60418897693     IErMin= 4 ErrMin= 6.85D-04
 ErrMax= 6.85D-04  0.00D+00 EMaxC= 1.00D+00 BMatC= 4.91D-04 BMatP= 1.38D-02
 IDIUse=1 WtCom= 1.00D+00 WtEn= 0.00D+00
 Coeff-Com:  0.806D-01-0.249D+00 0.235D+00 0.934D+00
 Coeff:      0.806D-01-0.249D+00 0.235D+00 0.934D+00
 Gap=     0.255 Goal=   None    Shift=    0.500
 RMSDP=1.57D-04 MaxDP=9.36D-03 DE=-7.02D-02 OVMax= 3.14D-03

 Cycle   5  Pass 1  IDiag  1:
 E= -1092.60471886181     Delta-E=       -0.000529884879 Rises=F Damp=F
 DIIS: error= 3.64D-04 at cycle   5 NSaved=   5.
 NSaved= 5 IEnMin= 5 EnMin= -1092.60471886181     IErMin= 5 ErrMin= 3.64D-04
 ErrMax= 3.64D-04  0.00D+00 EMaxC= 1.00D+00 BMatC= 6.46D-05 BMatP= 4.91D-04
 IDIUse=1 WtCom= 1.00D+00 WtEn= 0.00D+00
 Coeff-Com:  0.144D-01 0.235D-01-0.108D+00-0.741D-01 0.114D+01
 Coeff:      0.144D-01 0.235D-01-0.108D+00-0.741D-01 0.114D+01
 Gap=     0.255 Goal=   None    Shift=    0.500
 RMSDP=9.95D-05 MaxDP=5.33D-03 DE=-5.30D-04 OVMax= 2.31D-03

 Cycle   6  Pass 1  IDiag  1:
 E= -1092.60484219740     Delta-E=       -0.000123335594 Rises=F Damp=F
 DIIS: error= 2.78D-04 at cycle   6 NSaved=   6.
 NSaved= 6 IEnMin= 6 EnMin= -1092.60484219740     IErMin= 6 ErrMin= 2.78D-04
 ErrMax= 2.78D-04  0.00D+00 EMaxC= 1.00D+00 BMatC= 1.42D-05 BMatP= 6.46D-05
 IDIUse=1 WtCom= 1.00D+00 WtEn= 0.00D+00
 Coeff-Com: -0.118D-01 0.623D-01-0.915D-01-0.206D+00 0.145D+00 0.110D+01
 Coeff:     -0.118D-01 0.623D-01-0.915D-01-0.206D+00 0.145D+00 0.110D+01
 Gap=     0.255 Goal=   None    Shift=    0.500
 RMSDP=5.73D-05 MaxDP=2.45D-03 DE=-1.23D-04 OVMax= 1.76D-03

 Cycle   7  Pass 1  IDiag  1:
 E= -1092.60488412853     Delta-E=       -0.000041931134 Rises=F Damp=F
 DIIS: error= 1.85D-04 at cycle   7 NSaved=   7.
 NSaved= 7 IEnMin= 7 EnMin= -1092.60488412853     IErMin= 7 ErrMin= 1.85D-04
 ErrMax= 1.85D-04  0.00D+00 EMaxC= 1.00D+00 BMatC= 4.29D-06 BMatP= 1.42D-05
 IDIUse=1 WtCom= 1.00D+00 WtEn= 0.00D+00
 Coeff-Com: -0.660D-02 0.948D-02 0.179D-02-0.343D-01-0.231D+00-0.193D+00
 Coeff-Com:  0.145D+01
 Coeff:     -0.660D-02 0.948D-02 0.179D-02-0.343D-01-0.231D+00-0.193D+00
 Coeff:      0.145D+01
 Gap=     0.255 Goal=   None    Shift=    0.500
 RMSDP=3.27D-05 MaxDP=1.47D-03 DE=-4.19D-05 OVMax= 1.30D-03

 Cycle   8  Pass 1  IDiag  1:
 E= -1092.60490087749     Delta-E=       -0.000016748961 Rises=F Damp=F
 DIIS: error= 1.36D-04 at cycle   8 NSaved=   8.
 NSaved= 8 IEnMin= 8 EnMin= -1092.60490087749     IErMin= 8 ErrMin= 1.36D-04
 ErrMax= 1.36D-04  0.00D+00 EMaxC= 1.00D+00 BMatC= 1.78D-06 BMatP= 4.29D-06
 IDIUse=1 WtCom= 1.00D+00 WtEn= 0.00D+00
 Coeff-Com:  0.219D-03-0.141D-01 0.272D-01 0.443D-01-0.173D+00-0.459D+00
 Coeff-Com:  0.446D+00 0.113D+01
 Coeff:      0.219D-03-0.141D-01 0.272D-01 0.443D-01-0.173D+00-0.459D+00
 Coeff:      0.446D+00 0.113D+01
 Gap=     0.255 Goal=   None    Shift=    0.500
 RMSDP=1.70D-05 MaxDP=7.91D-04 DE=-1.67D-05 OVMax= 9.70D-04

 Cycle   9  Pass 1  IDiag  1:
 E= -1092.60490806195     Delta-E=       -0.000007184456 Rises=F Damp=F
 DIIS: error= 9.43D-05 at cycle   9 NSaved=   9.
 NSaved= 9 IEnMin= 9 EnMin= -1092.60490806195     IErMin= 9 ErrMin= 9.43D-05
 ErrMax= 9.43D-05  0.00D+00 EMaxC= 1.00D+00 BMatC= 6.29D-07 BMatP= 1.78D-06
 IDIUse=1 WtCom= 1.00D+00 WtEn= 0.00D+00
 Coeff-Com:  0.234D-02-0.587D-02 0.367D-02 0.238D-01 0.490D-01-0.684D-01
 Coeff-Com: -0.519D+00-0.428D+00 0.194D+01
 Coeff:      0.234D-02-0.587D-02 0.367D-02 0.238D-01 0.490D-01-0.684D-01
 Coeff:     -0.519D+00-0.428D+00 0.194D+01
 Gap=     0.255 Goal=   None    Shift=    0.500
 RMSDP=9.33D-06 MaxDP=5.56D-04 DE=-7.18D-06 OVMax= 7.32D-04

 Cycle  10  Pass 1  IDiag  1:
 E= -1092.60491125541     Delta-E=       -0.000003193458 Rises=F Damp=F
 DIIS: error= 6.38D-05 at cycle  10 NSaved=  10.
 NSaved=10 IEnMin=10 EnMin= -1092.60491125541     IErMin=10 ErrMin= 6.38D-05
 ErrMax= 6.38D-05  0.00D+00 EMaxC= 1.00D+00 BMatC= 2.55D-07 BMatP= 6.29D-07
 IDIUse=1 WtCom= 1.00D+00 WtEn= 0.00D+00
 Coeff-Com:  0.106D-03 0.341D-02-0.704D-02 0.231D-02 0.465D-01 0.468D-01
 Coeff-Com: -0.197D+00-0.457D+00-0.172D+00 0.173D+01
 Coeff:      0.106D-03 0.341D-02-0.704D-02 0.231D-02 0.465D-01 0.468D-01
 Coeff:     -0.197D+00-0.457D+00-0.172D+00 0.173D+01
 Gap=     0.255 Goal=   None    Shift=    0.500
 RMSDP=5.24D-06 MaxDP=3.40D-04 DE=-3.19D-06 OVMax= 4.93D-04

 Cycle  11  Pass 1  IDiag  1:
 E= -1092.60491254766     Delta-E=       -0.000001292255 Rises=F Damp=F
 DIIS: error= 4.44D-05 at cycle  11 NSaved=  11.
 NSaved=11 IEnMin=11 EnMin= -1092.60491254766     IErMin=11 ErrMin= 4.44D-05
 ErrMax= 4.44D-05  0.00D+00 EMaxC= 1.00D+00 BMatC= 1.03D-07 BMatP= 2.55D-07
 IDIUse=1 WtCom= 1.00D+00 WtEn= 0.00D+00
 Coeff-Com: -0.700D-03 0.381D-02-0.503D-02-0.297D-02 0.658D-02 0.368D-01
 Coeff-Com:  0.738D-01-0.177D+00-0.650D+00 0.907D-01 0.162D+01
 Coeff:     -0.700D-03 0.381D-02-0.503D-02-0.297D-02 0.658D-02 0.368D-01
 Coeff:      0.738D-01-0.177D+00-0.650D+00 0.907D-01 0.162D+01
 Gap=     0.255 Goal=   None    Shift=    0.500
 RMSDP=3.17D-06 MaxDP=2.06D-04 DE=-1.29D-06 OVMax= 3.43D-04

 Cycle  12  Pass 1  IDiag  1:
 E= -1092.60491306771     Delta-E=       -0.000000520047 Rises=F Damp=F
 DIIS: error= 2.73D-05 at cycle  12 NSaved=  12.
 NSaved=12 IEnMin=12 EnMin= -1092.60491306771     IErMin=12 ErrMin= 2.73D-05
 ErrMax= 2.73D-05  0.00D+00 EMaxC= 1.00D+00 BMatC= 4.17D-08 BMatP= 1.03D-07
 IDIUse=1 WtCom= 1.00D+00 WtEn= 0.00D+00
 Coeff-Com: -0.255D-03-0.815D-04 0.112D-02-0.326D-03-0.182D-01-0.705D-02
 Coeff-Com:  0.123D+00 0.622D-01-0.142D+00-0.990D+00 0.246D+00 0.173D+01
 Coeff:     -0.255D-03-0.815D-04 0.112D-02-0.326D-03-0.182D-01-0.705D-02
 Coeff:      0.123D+00 0.622D-01-0.142D+00-0.990D+00 0.246D+00 0.173D+01
 Gap=     0.255 Goal=   None    Shift=    0.500
 RMSDP=1.87D-06 MaxDP=1.05D-04 DE=-5.20D-07 OVMax= 2.26D-04

 Cycle  13  Pass 1  IDiag  1:
 E= -1092.60491327694     Delta-E=       -0.000000209234 Rises=F Damp=F
 DIIS: error= 1.78D-05 at cycle  13 NSaved=  13.
 NSaved=13 IEnMin=13 EnMin= -1092.60491327694     IErMin=13 ErrMin= 1.78D-05
 ErrMax= 1.78D-05  0.00D+00 EMaxC= 1.00D+00 BMatC= 1.70D-08 BMatP= 4.17D-08
 IDIUse=1 WtCom= 1.00D+00 WtEn= 0.00D+00
 Coeff-Com:  0.672D-04-0.682D-03 0.116D-02 0.150D-02-0.818D-02-0.829D-02
 Coeff-Com:  0.289D-01 0.196D-01 0.153D+00-0.475D+00-0.943D-01-0.597D+00
 Coeff-Com:  0.198D+01
 Coeff:      0.672D-04-0.682D-03 0.116D-02 0.150D-02-0.818D-02-0.829D-02
 Coeff:      0.289D-01 0.196D-01 0.153D+00-0.475D+00-0.943D-01-0.597D+00
 Coeff:      0.198D+01
 Gap=     0.255 Goal=   None    Shift=    0.500
 RMSDP=1.05D-06 MaxDP=4.37D-05 DE=-2.09D-07 OVMax= 1.49D-04

 Cycle  14  Pass 1  IDiag  1:
 E= -1092.60491335787     Delta-E=       -0.000000080924 Rises=F Damp=F
 DIIS: error= 1.10D-05 at cycle  14 NSaved=  14.
 NSaved=14 IEnMin=14 EnMin= -1092.60491335787     IErMin=14 ErrMin= 1.10D-05
 ErrMax= 1.10D-05  0.00D+00 EMaxC= 1.00D+00 BMatC= 6.79D-09 BMatP= 1.70D-08
 IDIUse=1 WtCom= 1.00D+00 WtEn= 0.00D+00
 Coeff-Com:  0.114D-03-0.226D-03 0.586D-04 0.132D-02 0.121D-02-0.206D-02
 Coeff-Com: -0.223D-01-0.209D-01 0.158D+00 0.268D-01-0.108D+00-0.110D+01
 Coeff-Com:  0.480D+00 0.159D+01
 Coeff:      0.114D-03-0.226D-03 0.586D-04 0.132D-02 0.121D-02-0.206D-02
 Coeff:     -0.223D-01-0.209D-01 0.158D+00 0.268D-01-0.108D+00-0.110D+01
 Coeff:      0.480D+00 0.159D+01
 Gap=     0.255 Goal=   None    Shift=    0.500
 RMSDP=6.39D-07 MaxDP=2.02D-05 DE=-8.09D-08 OVMax= 9.43D-05

 SCF Done:  E(RLC-wHPBE) =  -1092.60491336     A.U. after   14 cycles
            NFock= 14  Conv=0.64D-06     -V/T= 2.0042
 KE= 1.087993658180D+03 PE=-6.659812191578D+03 EE= 2.422535811439D+03
 Leave Link  502 at Sun Jan 17 01:27:49 2021, MaxMem=  4026531840 cpu:            5010.1 elap:             627.9
 (Enter /opt/ohpc/pub/libs/gaussian/g16-A.03/sandybridge/g16/l508.exe)
 QCSCF skips out because SCF is already converged.
 Leave Link  508 at Sun Jan 17 01:27:49 2021, MaxMem=  4026531840 cpu:               0.1 elap:               0.0
 (Enter /opt/ohpc/pub/libs/gaussian/g16-A.03/sandybridge/g16/l601.exe)
 Copying SCF densities to generalized density rwf, IOpCl= 0 IROHF=0.

 **********************************************************************

            Population analysis using the SCF density.

 **********************************************************************

 Orbital symmetries:
       Occupied  (A) (A) (A) (A) (A) (A) (A) (A) (A) (A) (A) (A)
                 (A) (A) (A) (A) (A) (A) (A) (A) (A) (A) (A) (A)
                 (A) (A) (A) (A) (A) (A) (A) (A) (A) (A) (A) (A)
                 (A) (A) (A) (A) (A) (A) (A) (A) (A) (A) (A) (A)
                 (A) (A) (A) (A) (A) (A) (A) (A) (A) (A) (A) (A)
                 (A) (A) (A) (A) (A) (A) (A) (A) (A) (A) (A) (A)
                 (A) (A) (A) (A) (A) (A) (A) (A) (A) (A) (A) (A)
                 (A) (A) (A) (A) (A)
       Virtual   (A) (A) (A) (A) (A) (A) (A) (A) (A) (A) (A) (A)
                 (A) (A) (A) (A) (A) (A) (A) (A) (A) (A) (A) (A)
                 (A) (A) (A) (A) (A) (A) (A) (A) (A) (A) (A) (A)
                 (A) (A) (A) (A) (A) (A) (A) (A) (A) (A) (A) (A)
                 (A) (A) (A) (A) (A) (A) (A) (A) (A) (A) (A) (A)
                 (A) (A) (A) (A) (A) (A) (A) (A) (A) (A) (A) (A)
                 (A) (A) (A) (A) (A) (A) (A) (A) (A) (A) (A) (A)
                 (A) (A) (A) (A) (A) (A) (A) (A) (A) (A) (A) (A)
                 (A) (A) (A) (A) (A) (A) (A) (A) (A) (A) (A) (A)
                 (A) (A) (A) (A) (A) (A) (A) (A) (A) (A) (A) (A)
                 (A) (A) (A) (A) (A) (A) (A) (A) (A) (A) (A) (A)
                 (A) (A) (A) (A) (A) (A) (A) (A) (A) (A) (A) (A)
                 (A) (A) (A) (A) (A) (A) (A) (A) (A) (A) (A) (A)
                 (A) (A) (A) (A) (A) (A) (A) (A) (A) (A) (A) (A)
                 (A) (A) (A) (A) (A) (A) (A) (A) (A) (A) (A) (A)
                 (A) (A) (A) (A) (A) (A) (A) (A) (A) (A) (A) (A)
                 (A) (A) (A) (A) (A) (A) (A) (A) (A) (A) (A) (A)
                 (A) (A) (A) (A) (A) (A) (A) (A) (A) (A) (A) (A)
                 (A) (A) (A) (A) (A) (A) (A) (A) (A) (A) (A) (A)
                 (A) (A) (A) (A) (A) (A) (A) (A) (A) (A) (A) (A)
                 (A) (A) (A) (A) (A) (A) (A) (A) (A) (A) (A) (A)
                 (A) (A) (A) (A) (A) (A) (A) (A) (A) (A) (A) (A)
                 (A) (A) (A) (A) (A) (A) (A) (A) (A) (A) (A) (A)
                 (A) (A) (A) (A) (A) (A) (A) (A) (A) (A) (A) (A)
                 (A) (A) (A) (A) (A) (A) (A) (A) (A) (A) (A) (A)
                 (A) (A) (A) (A) (A) (A) (A) (A) (A) (A) (A) (A)
                 (A) (A) (A) (A) (A) (A) (A) (A) (A) (A) (A) (A)
                 (A) (A) (A) (A) (A) (A) (A) (A) (A) (A) (A) (A)
                 (A) (A) (A) (A) (A) (A) (A) (A) (A) (A) (A) (A)
                 (A) (A) (A) (A) (A) (A) (A) (A) (A) (A) (A) (A)
                 (A) (A) (A) (A) (A) (A) (A) (A) (A) (A) (A) (A)
                 (A) (A) (A) (A) (A) (A) (A) (A) (A) (A) (A) (A)
                 (A) (A) (A) (A) (A) (A) (A) (A) (A) (A) (A) (A)
                 (A) (A) (A) (A) (A) (A) (A) (A) (A) (A) (A) (A)
                 (A) (A) (A) (A) (A) (A) (A) (A) (A) (A) (A) (A)
                 (A) (A) (A) (A) (A) (A) (A) (A) (A) (A) (A) (A)
                 (A) (A) (A) (A) (A) (A) (A) (A) (A) (A) (A) (A)
                 (A) (A) (A) (A) (A) (A) (A) (A) (A) (A) (A) (A)
                 (A) (A) (A) (A) (A) (A) (A) (A) (A) (A) (A) (A)
                 (A) (A) (A) (A) (A) (A) (A) (A) (A) (A) (A) (A)
                 (A) (A) (A) (A) (A) (A) (A) (A) (A) (A) (A) (A)
                 (A) (A) (A) (A) (A) (A) (A) (A) (A) (A) (A) (A)
                 (A) (A) (A) (A) (A) (A) (A) (A)
 The electronic state is 1-A.
 Alpha  occ. eigenvalues --  -18.88783 -18.88716 -18.88632 -14.11428 -10.04538
 Alpha  occ. eigenvalues --  -10.04473 -10.04380 -10.04213 -10.04154 -10.04069
 Alpha  occ. eigenvalues --  -10.02330 -10.02300 -10.02267  -9.99116  -9.99072
 Alpha  occ. eigenvalues --   -9.98988  -9.98975  -9.98948  -9.98931  -9.98892
 Alpha  occ. eigenvalues --   -9.98851  -9.98828  -9.98724  -9.98661  -9.98599
 Alpha  occ. eigenvalues --   -1.09083  -1.09016  -1.08931  -0.99192  -0.89402
 Alpha  occ. eigenvalues --   -0.89333  -0.87452  -0.80650  -0.80479  -0.79220
 Alpha  occ. eigenvalues --   -0.79018  -0.78540  -0.77530  -0.74672  -0.74285
 Alpha  occ. eigenvalues --   -0.71496  -0.67271  -0.66522  -0.65822  -0.64558
 Alpha  occ. eigenvalues --   -0.64166  -0.61776  -0.59598  -0.59537  -0.58701
 Alpha  occ. eigenvalues --   -0.56903  -0.56683  -0.54506  -0.53176  -0.52949
 Alpha  occ. eigenvalues --   -0.52346  -0.52284  -0.52199  -0.49954  -0.49919
 Alpha  occ. eigenvalues --   -0.49769  -0.47965  -0.47838  -0.47669  -0.47485
 Alpha  occ. eigenvalues --   -0.46731  -0.46616  -0.46536  -0.44518  -0.44379
 Alpha  occ. eigenvalues --   -0.44188  -0.43997  -0.43623  -0.41879  -0.41085
 Alpha  occ. eigenvalues --   -0.40897  -0.39513  -0.38471  -0.38320  -0.37969
 Alpha  occ. eigenvalues --   -0.37776  -0.37685  -0.33364  -0.32614  -0.31761
 Alpha  occ. eigenvalues --   -0.31533  -0.28869  -0.28660  -0.22602
 Alpha virt. eigenvalues --    0.02922   0.04697   0.04816   0.05272   0.05459
 Alpha virt. eigenvalues --    0.09428   0.10056   0.10465   0.10510   0.12223
 Alpha virt. eigenvalues --    0.12301   0.12404   0.13541   0.14174   0.14363
 Alpha virt. eigenvalues --    0.14692   0.15133   0.15287   0.15961   0.16456
 Alpha virt. eigenvalues --    0.16712   0.16873   0.17473   0.17601   0.17645
 Alpha virt. eigenvalues --    0.17874   0.18365   0.18961   0.19346   0.19499
 Alpha virt. eigenvalues --    0.20001   0.20110   0.21980   0.22400   0.24107
 Alpha virt. eigenvalues --    0.24409   0.24989   0.25419   0.25590   0.26302
 Alpha virt. eigenvalues --    0.26925   0.27053   0.27171   0.27331   0.27391
 Alpha virt. eigenvalues --    0.27664   0.27840   0.28029   0.28351   0.28984
 Alpha virt. eigenvalues --    0.29201   0.30188   0.30461   0.30686   0.30795
 Alpha virt. eigenvalues --    0.32119   0.32425   0.32672   0.33431   0.33769
 Alpha virt. eigenvalues --    0.34328   0.34723   0.34856   0.35206   0.35605
 Alpha virt. eigenvalues --    0.35948   0.36264   0.37171   0.37292   0.38400
 Alpha virt. eigenvalues --    0.38660   0.38786   0.39038   0.39864   0.40412
 Alpha virt. eigenvalues --    0.40761   0.41202   0.41475   0.41748   0.42305
 Alpha virt. eigenvalues --    0.42708   0.42861   0.43522   0.44247   0.44501
 Alpha virt. eigenvalues --    0.44776   0.44813   0.45381   0.45608   0.45803
 Alpha virt. eigenvalues --    0.46015   0.46273   0.46635   0.47214   0.47529
 Alpha virt. eigenvalues --    0.47656   0.47908   0.48389   0.48696   0.48856
 Alpha virt. eigenvalues --    0.49196   0.49521   0.49611   0.50580   0.51093
 Alpha virt. eigenvalues --    0.51300   0.51385   0.51698   0.51814   0.51984
 Alpha virt. eigenvalues --    0.52375   0.52496   0.53323   0.53528   0.54048
 Alpha virt. eigenvalues --    0.54328   0.54632   0.55184   0.55374   0.55707
 Alpha virt. eigenvalues --    0.55756   0.56347   0.57107   0.57792   0.59159
 Alpha virt. eigenvalues --    0.60182   0.60911   0.61197   0.61345   0.61497
 Alpha virt. eigenvalues --    0.62916   0.63801   0.65548   0.66291   0.66581
 Alpha virt. eigenvalues --    0.67203   0.68158   0.68493   0.68899   0.69339
 Alpha virt. eigenvalues --    0.69748   0.70097   0.71044   0.71209   0.71428
 Alpha virt. eigenvalues --    0.73098   0.73293   0.73591   0.74188   0.74998
 Alpha virt. eigenvalues --    0.76594   0.77165   0.77203   0.77530   0.78242
 Alpha virt. eigenvalues --    0.78591   0.78812   0.79048   0.80679   0.80907
 Alpha virt. eigenvalues --    0.81747   0.83717   0.84223   0.84891   0.85764
 Alpha virt. eigenvalues --    0.86994   0.87558   0.89754   0.89854   0.91642
 Alpha virt. eigenvalues --    0.93141   0.93519   0.96153   0.96816   0.96893
 Alpha virt. eigenvalues --    0.99177   0.99506   1.01496   1.18522   1.20684
 Alpha virt. eigenvalues --    1.20937   1.22550   1.22856   1.23367   1.27121
 Alpha virt. eigenvalues --    1.27469   1.27835   1.28092   1.28784   1.29324
 Alpha virt. eigenvalues --    1.29597   1.29844   1.30239   1.30544   1.30992
 Alpha virt. eigenvalues --    1.31685   1.32037   1.32384   1.32899   1.33698
 Alpha virt. eigenvalues --    1.33826   1.34264   1.34761   1.35036   1.35914
 Alpha virt. eigenvalues --    1.36433   1.37256   1.37636   1.37992   1.38245
 Alpha virt. eigenvalues --    1.38863   1.39460   1.40345   1.41106   1.41402
 Alpha virt. eigenvalues --    1.43448   1.43706   1.43989   1.45087   1.45191
 Alpha virt. eigenvalues --    1.45635   1.46433   1.46586   1.47001   1.47197
 Alpha virt. eigenvalues --    1.47487   1.48107   1.48575   1.48944   1.49145
 Alpha virt. eigenvalues --    1.49439   1.49836   1.51343   1.51611   1.51963
 Alpha virt. eigenvalues --    1.52396   1.53010   1.53384   1.53912   1.55050
 Alpha virt. eigenvalues --    1.55113   1.55339   1.55465   1.55716   1.55957
 Alpha virt. eigenvalues --    1.56244   1.56630   1.57202   1.57510   1.57896
 Alpha virt. eigenvalues --    1.58314   1.58686   1.59522   1.60001   1.60365
 Alpha virt. eigenvalues --    1.60781   1.61253   1.61318   1.62046   1.62827
 Alpha virt. eigenvalues --    1.63275   1.63977   1.64592   1.65082   1.65521
 Alpha virt. eigenvalues --    1.67271   1.68522   1.68741   1.70861   1.71403
 Alpha virt. eigenvalues --    1.71687   1.72526   1.72771   1.72928   1.76853
 Alpha virt. eigenvalues --    1.77667   1.78808   1.78881   1.78986   1.79563
 Alpha virt. eigenvalues --    1.79940   1.80717   1.81240   1.81641   1.81996
 Alpha virt. eigenvalues --    1.82196   1.82262   1.82363   1.82773   1.82930
 Alpha virt. eigenvalues --    1.84044   1.84068   1.84986   1.85221   1.86451
 Alpha virt. eigenvalues --    1.86701   1.87136   1.87368   1.88912   1.89560
 Alpha virt. eigenvalues --    1.90280   1.90826   1.91776   1.92221   1.93685
 Alpha virt. eigenvalues --    1.94075   1.94327   1.94453   1.95273   1.95941
 Alpha virt. eigenvalues --    1.96255   1.96462   1.96571   1.96877   1.97079
 Alpha virt. eigenvalues --    1.97275   1.98798   2.03624   2.04334   2.04693
 Alpha virt. eigenvalues --    2.06692   2.06845   2.07643   2.08332   2.08557
 Alpha virt. eigenvalues --    2.09374   2.12519   2.13203   2.13741   2.15034
 Alpha virt. eigenvalues --    2.16246   2.16974   2.18358   2.19266   2.22411
 Alpha virt. eigenvalues --    2.22511   2.22616   2.23094   2.23188   2.23994
 Alpha virt. eigenvalues --    2.24549   2.25936   2.26426   2.28948   2.32144
 Alpha virt. eigenvalues --    2.32371   2.32551   2.33398   2.33438   2.33481
 Alpha virt. eigenvalues --    2.34173   2.34580   2.35888   2.36276   2.37420
 Alpha virt. eigenvalues --    2.37538   2.37716   2.38048   2.38216   2.38602
 Alpha virt. eigenvalues --    2.39000   2.39841   2.40772   2.40813   2.41536
 Alpha virt. eigenvalues --    2.41605   2.41692   2.41794   2.42051   2.42265
 Alpha virt. eigenvalues --    2.42493   2.47394   2.47441   2.50076   2.50428
 Alpha virt. eigenvalues --    2.50625   2.51609   2.52006   2.52526   2.53070
 Alpha virt. eigenvalues --    2.57644   2.57803   2.58699   2.58748   2.58833
 Alpha virt. eigenvalues --    2.61762   2.61853   2.63156   2.63881   2.64326
 Alpha virt. eigenvalues --    2.64950   2.66187   2.66876   2.66996   2.67205
 Alpha virt. eigenvalues --    2.69519   2.69808   2.73428   2.73543   2.74206
 Alpha virt. eigenvalues --    2.74602   2.74879   2.75084   2.76778   2.76939
 Alpha virt. eigenvalues --    2.77791   2.78119   2.80108   2.80330   2.80666
 Alpha virt. eigenvalues --    2.80930   2.83366   2.85303   2.86704   2.87341
 Alpha virt. eigenvalues --    2.90629   2.91247   2.91702   2.92005   2.96968
 Alpha virt. eigenvalues --    2.97026   2.97760   2.98350   2.98586   3.01985
 Alpha virt. eigenvalues --    3.02026   3.02275   3.03267   3.04121   3.06834
 Alpha virt. eigenvalues --    3.07284   3.07473   3.07892   3.08382   3.09047
 Alpha virt. eigenvalues --    3.09107   3.09191   3.09484   3.10044   3.10882
 Alpha virt. eigenvalues --    3.13140   3.13425   3.15943   3.17747   3.18260
 Alpha virt. eigenvalues --    3.18499   3.19695   3.19946   3.22411   3.23640
 Alpha virt. eigenvalues --    3.24237   3.28008   3.28468   3.28942   3.30075
 Alpha virt. eigenvalues --    3.30217   3.30665   3.30713   3.30800   3.31060
 Alpha virt. eigenvalues --    3.32036   3.34088   3.34277   3.35430   3.38973
 Alpha virt. eigenvalues --    3.39109   3.39303   3.40227   3.41090   3.43939
 Alpha virt. eigenvalues --    3.44984   3.46414   3.49223   3.57910   3.58274
 Alpha virt. eigenvalues --    3.58928   3.60925   3.61269   3.73371   3.87522
 Alpha virt. eigenvalues --    3.87879   3.98345   3.98753   3.99006   4.19264
 Alpha virt. eigenvalues --    4.20032   4.20089  21.27089  21.28764  21.28905
 Alpha virt. eigenvalues --   21.71306  21.74675  21.75111  21.79990  21.82153
 Alpha virt. eigenvalues --   21.82238  21.82366  21.88010  21.88979  21.94286
 Alpha virt. eigenvalues --   21.98368  21.99111  22.00020  22.03998  22.05468
 Alpha virt. eigenvalues --   22.10850  22.18471  22.19202  32.08494  43.35612
 Alpha virt. eigenvalues --   43.35717  43.35801
          Condensed to atoms (all electrons):
               1          2          3          4          5          6
     1  N    6.592415   0.135836  -0.023997  -0.007635   0.031604   0.017239
     2  C    0.135836   5.532855   0.384415   0.291552   0.040619   0.056846
     3  C   -0.023997   0.384415   5.451619  -0.166599  -0.011909  -0.021557
     4  C   -0.007635   0.291552  -0.166599   5.415456  -0.050230   0.173202
     5  C    0.031604   0.040619  -0.011909  -0.050230   6.074166  -0.242196
     6  C    0.017239   0.056846  -0.021557   0.173202  -0.242196   5.612687
     7  C    0.002831  -0.156926   0.076079   0.046488   0.113012   0.354760
     8  H   -0.010134  -0.027537   0.393335   0.011255  -0.044840   0.001092
     9  H   -0.008008  -0.056540   0.017803   0.434088  -0.004582  -0.073767
    10  H   -0.000676   0.007359   0.026543   0.007110   0.359085  -0.006480
    11  H   -0.000553   0.021359  -0.003788  -0.060909   0.020167   0.442218
    12  C    0.139652  -0.081570   0.032968  -0.017774  -0.006845  -0.002471
    13  C   -0.019756   0.034024  -0.066001   0.019852  -0.007744   0.002589
    14  C   -0.014260  -0.020043   0.020206  -0.013877   0.002782   0.000088
    15  C    0.028862  -0.005550  -0.007350   0.002735   0.000083  -0.000080
    16  C    0.018212  -0.002078   0.002631   0.000076  -0.000061  -0.000100
    17  C    0.002794   0.001527  -0.001491  -0.000090  -0.000105   0.000046
    18  H   -0.008927   0.003051   0.004110  -0.003050  -0.003235   0.001490
    19  H   -0.008887  -0.002661   0.000580  -0.000453   0.000014   0.000036
    20  H   -0.000650  -0.000077   0.000095  -0.000048   0.000037  -0.000001
    21  H   -0.000543   0.000037  -0.000035   0.000003  -0.000003  -0.000000
    22  O   -0.000001   0.000006  -0.000003   0.000000  -0.000000  -0.000000
    23  C    0.000001  -0.000012  -0.000004  -0.000000   0.000001   0.000000
    24  H    0.000002   0.000003   0.000012  -0.000000   0.000000   0.000000
    25  H    0.000000  -0.000005  -0.000001   0.000000   0.000000  -0.000000
    26  H   -0.000000   0.000000  -0.000000   0.000000  -0.000000   0.000000
    27  O   -0.000001  -0.000215   0.012764   0.006252  -0.124511  -0.097804
    28  C    0.000002   0.002092  -0.009348  -0.001338   0.020756   0.008594
    29  H    0.000001   0.000423  -0.001163  -0.000089   0.019558  -0.002407
    30  H    0.000001  -0.000047  -0.000915   0.000155   0.015957  -0.001253
    31  H   -0.000000  -0.000068   0.000238   0.000195  -0.001589  -0.000081
    32  C    0.146826  -0.085375  -0.019175   0.037323  -0.004148  -0.001109
    33  C   -0.025405   0.035277   0.020081  -0.067515   0.003708  -0.007700
    34  C   -0.008521  -0.013685  -0.013342   0.019353   0.000036   0.001870
    35  C    0.028767  -0.005314   0.002451  -0.008730   0.000077  -0.000279
    36  C    0.015400  -0.001730  -0.000078   0.002602  -0.000117  -0.000081
    37  C    0.003235   0.001618  -0.000019  -0.001630   0.000053  -0.000130
    38  H   -0.009486   0.001487  -0.003155   0.004780   0.001687  -0.002599
    39  H   -0.007847  -0.002098  -0.000398   0.000466   0.000035   0.000018
    40  H   -0.000653  -0.000045  -0.000051   0.000089  -0.000004   0.000044
    41  H   -0.000525   0.000027   0.000003  -0.000025   0.000000  -0.000002
    42  O   -0.000001   0.000005   0.000000  -0.000002  -0.000000  -0.000000
    43  C    0.000001  -0.000011  -0.000000  -0.000006   0.000000   0.000001
    44  H    0.000001   0.000004  -0.000000   0.000010  -0.000000   0.000000
    45  H    0.000001  -0.000005   0.000000  -0.000001   0.000000   0.000000
    46  H   -0.000000   0.000000   0.000000  -0.000000   0.000000  -0.000000
               7          8          9         10         11         12
     1  N    0.002831  -0.010134  -0.008008  -0.000676  -0.000553   0.139652
     2  C   -0.156926  -0.027537  -0.056540   0.007359   0.021359  -0.081570
     3  C    0.076079   0.393335   0.017803   0.026543  -0.003788   0.032968
     4  C    0.046488   0.011255   0.434088   0.007110  -0.060909  -0.017774
     5  C    0.113012  -0.044840  -0.004582   0.359085   0.020167  -0.006845
     6  C    0.354760   0.001092  -0.073767  -0.006480   0.442218  -0.002471
     7  C    5.260678   0.009016   0.021846  -0.063012  -0.095323   0.001818
     8  H    0.009016   0.532585  -0.000267  -0.004098   0.000024   0.003668
     9  H    0.021846  -0.000267   0.541887   0.000021  -0.010258  -0.001917
    10  H   -0.063012  -0.004098   0.000021   0.530229  -0.000271  -0.000071
    11  H   -0.095323   0.000024  -0.010258  -0.000271   0.574564   0.000021
    12  C    0.001818   0.003668  -0.001917  -0.000071   0.000021   5.526355
    13  C   -0.001513   0.004133   0.000460   0.000096  -0.000031   0.377491
    14  C   -0.000079  -0.003005  -0.000462  -0.000050   0.000003   0.294351
    15  C   -0.000101  -0.003244   0.000018   0.000036  -0.000002   0.043282
    16  C    0.000045   0.001631   0.000034  -0.000001   0.000000   0.054136
    17  C   -0.000021   0.000035  -0.000011  -0.000002   0.000000  -0.155966
    18  H    0.000056   0.000864  -0.000035  -0.000022   0.000011  -0.029716
    19  H   -0.000011  -0.000061  -0.000021  -0.000000   0.000000  -0.055874
    20  H   -0.000002  -0.000022   0.000000   0.000000   0.000000   0.007659
    21  H    0.000000   0.000016   0.000000   0.000000  -0.000000   0.020881
    22  O    0.000000   0.000001   0.000000  -0.000000  -0.000000  -0.000282
    23  C   -0.000000  -0.000010  -0.000000   0.000000  -0.000000   0.002101
    24  H   -0.000000   0.000001   0.000000   0.000000   0.000000   0.000437
    25  H    0.000000  -0.000000  -0.000000  -0.000000  -0.000000  -0.000058
    26  H   -0.000000  -0.000000  -0.000000   0.000000   0.000000  -0.000067
    27  O    0.448832  -0.000093  -0.000108  -0.008419   0.003446   0.000005
    28  C   -0.122118  -0.000259   0.000039   0.015432   0.000185  -0.000012
    29  H   -0.023741  -0.000060  -0.000001   0.001147   0.000027   0.000004
    30  H   -0.021163  -0.000001  -0.000001   0.000119   0.000128  -0.000005
    31  H    0.011459   0.000003   0.000000   0.000017  -0.000158   0.000000
    32  C    0.002313  -0.001231   0.002267   0.000021  -0.000209  -0.092231
    33  C   -0.001650   0.000279   0.002755  -0.000045   0.000056  -0.014504
    34  C   -0.000003  -0.000431  -0.002291   0.000003  -0.000024   0.039820
    35  C   -0.000176  -0.000018  -0.003052  -0.000003   0.000024  -0.003530
    36  C    0.000035   0.000032   0.001478   0.000000  -0.000002  -0.000133
    37  C   -0.000013  -0.000010   0.000088   0.000000  -0.000002   0.002224
    38  H    0.000546   0.000015   0.001033   0.000008  -0.000047  -0.001421
    39  H   -0.000006  -0.000017  -0.000052  -0.000000  -0.000000   0.000697
    40  H   -0.000003  -0.000000  -0.000022   0.000000   0.000000   0.000025
    41  H    0.000000   0.000000   0.000010  -0.000000  -0.000000  -0.000202
    42  O    0.000000   0.000000  -0.000000  -0.000000  -0.000000  -0.000005
    43  C   -0.000000  -0.000000  -0.000009  -0.000000   0.000000   0.000000
    44  H   -0.000000   0.000000   0.000001   0.000000  -0.000000  -0.000002
    45  H    0.000000  -0.000000  -0.000000  -0.000000   0.000000   0.000003
    46  H   -0.000000  -0.000000  -0.000000   0.000000   0.000000  -0.000000
              13         14         15         16         17         18
     1  N   -0.019756  -0.014260   0.028862   0.018212   0.002794  -0.008927
     2  C    0.034024  -0.020043  -0.005550  -0.002078   0.001527   0.003051
     3  C   -0.066001   0.020206  -0.007350   0.002631  -0.001491   0.004110
     4  C    0.019852  -0.013877   0.002735   0.000076  -0.000090  -0.003050
     5  C   -0.007744   0.002782   0.000083  -0.000061  -0.000105  -0.003235
     6  C    0.002589   0.000088  -0.000080  -0.000100   0.000046   0.001490
     7  C   -0.001513  -0.000079  -0.000101   0.000045  -0.000021   0.000056
     8  H    0.004133  -0.003005  -0.003244   0.001631   0.000035   0.000864
     9  H    0.000460  -0.000462   0.000018   0.000034  -0.000011  -0.000035
    10  H    0.000096  -0.000050   0.000036  -0.000001  -0.000002  -0.000022
    11  H   -0.000031   0.000003  -0.000002   0.000000   0.000000   0.000011
    12  C    0.377491   0.294351   0.043282   0.054136  -0.155966  -0.029716
    13  C    5.455338  -0.170039  -0.007179  -0.019437   0.077768   0.394146
    14  C   -0.170039   5.420749  -0.046355   0.176138   0.041517   0.011130
    15  C   -0.007179  -0.046355   6.066408  -0.246210   0.112176  -0.044204
    16  C   -0.019437   0.176138  -0.246210   5.604838   0.362314   0.001048
    17  C    0.077768   0.041517   0.112176   0.362314   5.256087   0.009314
    18  H    0.394146   0.011130  -0.044204   0.001048   0.009314   0.533144
    19  H    0.017715   0.431319  -0.004377  -0.071254   0.021298  -0.000264
    20  H    0.024963   0.007012   0.360245  -0.006407  -0.062894  -0.004301
    21  H   -0.003691  -0.059975   0.019965   0.441275  -0.094322   0.000024
    22  O    0.012871   0.006463  -0.124572  -0.098023   0.448898  -0.000091
    23  C   -0.009292  -0.001343   0.020858   0.008549  -0.122265  -0.000261
    24  H   -0.001183  -0.000110   0.019513  -0.002363  -0.023737  -0.000064
    25  H   -0.000919   0.000175   0.015932  -0.001316  -0.021121   0.000003
    26  H    0.000237   0.000196  -0.001596  -0.000071   0.011474   0.000003
    27  O   -0.000002   0.000000  -0.000000  -0.000000   0.000000   0.000000
    28  C   -0.000004  -0.000000   0.000001   0.000000  -0.000000  -0.000009
    29  H    0.000011  -0.000000   0.000000   0.000000  -0.000000   0.000001
    30  H   -0.000001   0.000000   0.000000  -0.000000   0.000000  -0.000000
    31  H   -0.000000   0.000000  -0.000000   0.000000  -0.000000  -0.000000
    32  C   -0.013984   0.039899  -0.003731  -0.000663   0.002416  -0.000701
    33  C   -0.013038   0.020219  -0.000112   0.001643   0.000065  -0.000386
    34  C    0.019602  -0.069210   0.003476  -0.008857  -0.001658   0.000211
    35  C   -0.000106   0.003439  -0.000130   0.000009   0.000037   0.000030
    36  C    0.001633  -0.008551  -0.000015  -0.000494  -0.000168  -0.000007
    37  C    0.000057  -0.001642   0.000038  -0.000175  -0.000004  -0.000006
    38  H   -0.000381   0.000344   0.000032  -0.000010  -0.000005  -0.000014
    39  H   -0.002549   0.003619   0.001581  -0.002476   0.000550   0.000019
    40  H    0.000003  -0.000039   0.000000  -0.000002   0.000000  -0.000000
    41  H   -0.000026   0.000040  -0.000004   0.000029  -0.000003  -0.000000
    42  O    0.000000   0.000009  -0.000000   0.000000  -0.000000   0.000000
    43  C   -0.000000  -0.000001  -0.000000  -0.000000   0.000000   0.000000
    44  H    0.000000   0.000000   0.000000  -0.000000   0.000000  -0.000000
    45  H   -0.000000  -0.000003  -0.000000  -0.000000   0.000000   0.000000
    46  H   -0.000000   0.000000  -0.000000   0.000000   0.000000  -0.000000
              19         20         21         22         23         24
     1  N   -0.008887  -0.000650  -0.000543  -0.000001   0.000001   0.000002
     2  C   -0.002661  -0.000077   0.000037   0.000006  -0.000012   0.000003
     3  C    0.000580   0.000095  -0.000035  -0.000003  -0.000004   0.000012
     4  C   -0.000453  -0.000048   0.000003   0.000000  -0.000000  -0.000000
     5  C    0.000014   0.000037  -0.000003  -0.000000   0.000001   0.000000
     6  C    0.000036  -0.000001  -0.000000  -0.000000   0.000000   0.000000
     7  C   -0.000011  -0.000002   0.000000   0.000000  -0.000000  -0.000000
     8  H   -0.000061  -0.000022   0.000016   0.000001  -0.000010   0.000001
     9  H   -0.000021   0.000000   0.000000   0.000000  -0.000000   0.000000
    10  H   -0.000000   0.000000   0.000000  -0.000000   0.000000   0.000000
    11  H    0.000000   0.000000  -0.000000  -0.000000  -0.000000   0.000000
    12  C   -0.055874   0.007659   0.020881  -0.000282   0.002101   0.000437
    13  C    0.017715   0.024963  -0.003691   0.012871  -0.009292  -0.001183
    14  C    0.431319   0.007012  -0.059975   0.006463  -0.001343  -0.000110
    15  C   -0.004377   0.360245   0.019965  -0.124572   0.020858   0.019513
    16  C   -0.071254  -0.006407   0.441275  -0.098023   0.008549  -0.002363
    17  C    0.021298  -0.062894  -0.094322   0.448898  -0.122265  -0.023737
    18  H   -0.000264  -0.004301   0.000024  -0.000091  -0.000261  -0.000064
    19  H    0.539116   0.000021  -0.010122  -0.000107   0.000038  -0.000001
    20  H    0.000021   0.530291  -0.000275  -0.008409   0.015502   0.001124
    21  H   -0.010122  -0.000275   0.573937   0.003386   0.000193   0.000029
    22  O   -0.000107  -0.008409   0.003386   7.783046   0.230442  -0.043779
    23  C    0.000038   0.015502   0.000193   0.230442   4.896374   0.405676
    24  H   -0.000001   0.001124   0.000029  -0.043779   0.405676   0.603296
    25  H   -0.000001   0.000112   0.000126  -0.044140   0.407815  -0.062855
    26  H    0.000000   0.000019  -0.000158  -0.029787   0.388337  -0.020349
    27  O    0.000000  -0.000000  -0.000000  -0.000000   0.000000   0.000000
    28  C   -0.000000   0.000000  -0.000000   0.000000   0.000000   0.000000
    29  H    0.000000   0.000000   0.000000   0.000000   0.000000  -0.000000
    30  H   -0.000000  -0.000000  -0.000000  -0.000000  -0.000000   0.000000
    31  H   -0.000000   0.000000   0.000000   0.000000  -0.000000  -0.000000
    32  C    0.000763   0.000012  -0.000199  -0.000007   0.000000  -0.000002
    33  C   -0.002344   0.000003  -0.000027   0.000000  -0.000000   0.000000
    34  C    0.003594  -0.000036   0.000041   0.000009  -0.000001   0.000000
    35  C    0.001659   0.000000  -0.000004  -0.000000  -0.000000   0.000000
    36  C   -0.002471  -0.000002   0.000028   0.000000  -0.000000  -0.000000
    37  C    0.000568   0.000000  -0.000003   0.000000   0.000000   0.000000
    38  H   -0.000005  -0.000000  -0.000000   0.000000   0.000000  -0.000000
    39  H    0.001224   0.000004  -0.000048  -0.000008   0.000003  -0.000000
    40  H    0.000007  -0.000000   0.000000  -0.000000   0.000000  -0.000000
    41  H   -0.000049   0.000000  -0.000000   0.000000  -0.000000   0.000000
    42  O   -0.000008  -0.000000   0.000000   0.000000  -0.000000  -0.000000
    43  C    0.000003   0.000000  -0.000000  -0.000000  -0.000000   0.000000
    44  H   -0.000000  -0.000000   0.000000  -0.000000   0.000000  -0.000000
    45  H    0.000004   0.000000  -0.000000   0.000000  -0.000000   0.000000
    46  H   -0.000000   0.000000  -0.000000  -0.000000  -0.000000   0.000000
              25         26         27         28         29         30
     1  N    0.000000  -0.000000  -0.000001   0.000002   0.000001   0.000001
     2  C   -0.000005   0.000000  -0.000215   0.002092   0.000423  -0.000047
     3  C   -0.000001  -0.000000   0.012764  -0.009348  -0.001163  -0.000915
     4  C    0.000000   0.000000   0.006252  -0.001338  -0.000089   0.000155
     5  C    0.000000  -0.000000  -0.124511   0.020756   0.019558   0.015957
     6  C   -0.000000   0.000000  -0.097804   0.008594  -0.002407  -0.001253
     7  C    0.000000  -0.000000   0.448832  -0.122118  -0.023741  -0.021163
     8  H   -0.000000  -0.000000  -0.000093  -0.000259  -0.000060  -0.000001
     9  H   -0.000000  -0.000000  -0.000108   0.000039  -0.000001  -0.000001
    10  H   -0.000000   0.000000  -0.008419   0.015432   0.001147   0.000119
    11  H   -0.000000   0.000000   0.003446   0.000185   0.000027   0.000128
    12  C   -0.000058  -0.000067   0.000005  -0.000012   0.000004  -0.000005
    13  C   -0.000919   0.000237  -0.000002  -0.000004   0.000011  -0.000001
    14  C    0.000175   0.000196   0.000000  -0.000000  -0.000000   0.000000
    15  C    0.015932  -0.001596  -0.000000   0.000001   0.000000   0.000000
    16  C   -0.001316  -0.000071  -0.000000   0.000000   0.000000  -0.000000
    17  C   -0.021121   0.011474   0.000000  -0.000000  -0.000000   0.000000
    18  H    0.000003   0.000003   0.000000  -0.000009   0.000001  -0.000000
    19  H   -0.000001   0.000000   0.000000  -0.000000   0.000000  -0.000000
    20  H    0.000112   0.000019  -0.000000   0.000000   0.000000  -0.000000
    21  H    0.000126  -0.000158  -0.000000  -0.000000   0.000000  -0.000000
    22  O   -0.044140  -0.029787  -0.000000   0.000000   0.000000  -0.000000
    23  C    0.407815   0.388337   0.000000   0.000000   0.000000  -0.000000
    24  H   -0.062855  -0.020349   0.000000   0.000000  -0.000000   0.000000
    25  H    0.600247  -0.020285  -0.000000  -0.000000   0.000000  -0.000000
    26  H   -0.020285   0.527720   0.000000  -0.000000  -0.000000   0.000000
    27  O   -0.000000   0.000000   7.783075   0.230471  -0.043740  -0.044171
    28  C   -0.000000  -0.000000   0.230471   4.896238   0.406012   0.407527
    29  H    0.000000  -0.000000  -0.043740   0.406012   0.602255  -0.062779
    30  H   -0.000000   0.000000  -0.044171   0.407527  -0.062779   0.600922
    31  H    0.000000  -0.000000  -0.029755   0.388337  -0.020248  -0.020397
    32  C    0.000003  -0.000000  -0.000005  -0.000001  -0.000001   0.000003
    33  C    0.000000  -0.000000   0.000009  -0.000001   0.000000  -0.000003
    34  C   -0.000003   0.000000   0.000000  -0.000000   0.000000  -0.000000
    35  C   -0.000000  -0.000000   0.000000   0.000000  -0.000000  -0.000000
    36  C   -0.000000   0.000000  -0.000000  -0.000000   0.000000  -0.000000
    37  C    0.000000   0.000000   0.000000   0.000000   0.000000  -0.000000
    38  H    0.000000  -0.000000  -0.000008   0.000003  -0.000000   0.000004
    39  H    0.000003  -0.000000   0.000000   0.000000  -0.000000   0.000000
    40  H    0.000000   0.000000  -0.000000  -0.000000   0.000000  -0.000000
    41  H   -0.000000  -0.000000  -0.000000   0.000000  -0.000000   0.000000
    42  O    0.000000  -0.000000  -0.000000  -0.000000  -0.000000   0.000000
    43  C   -0.000000  -0.000000   0.000000  -0.000000  -0.000000  -0.000000
    44  H    0.000000   0.000000   0.000000   0.000000   0.000000  -0.000000
    45  H   -0.000000  -0.000000  -0.000000  -0.000000  -0.000000   0.000000
    46  H   -0.000000  -0.000000   0.000000  -0.000000   0.000000  -0.000000
              31         32         33         34         35         36
     1  N   -0.000000   0.146826  -0.025405  -0.008521   0.028767   0.015400
     2  C   -0.000068  -0.085375   0.035277  -0.013685  -0.005314  -0.001730
     3  C    0.000238  -0.019175   0.020081  -0.013342   0.002451  -0.000078
     4  C    0.000195   0.037323  -0.067515   0.019353  -0.008730   0.002602
     5  C   -0.001589  -0.004148   0.003708   0.000036   0.000077  -0.000117
     6  C   -0.000081  -0.001109  -0.007700   0.001870  -0.000279  -0.000081
     7  C    0.011459   0.002313  -0.001650  -0.000003  -0.000176   0.000035
     8  H    0.000003  -0.001231   0.000279  -0.000431  -0.000018   0.000032
     9  H    0.000000   0.002267   0.002755  -0.002291  -0.003052   0.001478
    10  H    0.000017   0.000021  -0.000045   0.000003  -0.000003   0.000000
    11  H   -0.000158  -0.000209   0.000056  -0.000024   0.000024  -0.000002
    12  C    0.000000  -0.092231  -0.014504   0.039820  -0.003530  -0.000133
    13  C   -0.000000  -0.013984  -0.013038   0.019602  -0.000106   0.001633
    14  C    0.000000   0.039899   0.020219  -0.069210   0.003439  -0.008551
    15  C   -0.000000  -0.003731  -0.000112   0.003476  -0.000130  -0.000015
    16  C    0.000000  -0.000663   0.001643  -0.008857   0.000009  -0.000494
    17  C   -0.000000   0.002416   0.000065  -0.001658   0.000037  -0.000168
    18  H   -0.000000  -0.000701  -0.000386   0.000211   0.000030  -0.000007
    19  H   -0.000000   0.000763  -0.002344   0.003594   0.001659  -0.002471
    20  H    0.000000   0.000012   0.000003  -0.000036   0.000000  -0.000002
    21  H    0.000000  -0.000199  -0.000027   0.000041  -0.000004   0.000028
    22  O    0.000000  -0.000007   0.000000   0.000009  -0.000000   0.000000
    23  C   -0.000000   0.000000  -0.000000  -0.000001  -0.000000  -0.000000
    24  H   -0.000000  -0.000002   0.000000   0.000000   0.000000  -0.000000
    25  H    0.000000   0.000003   0.000000  -0.000003  -0.000000  -0.000000
    26  H   -0.000000  -0.000000  -0.000000   0.000000  -0.000000   0.000000
    27  O   -0.029755  -0.000005   0.000009   0.000000   0.000000  -0.000000
    28  C    0.388337  -0.000001  -0.000001  -0.000000   0.000000  -0.000000
    29  H   -0.020248  -0.000001   0.000000   0.000000  -0.000000   0.000000
    30  H   -0.020397   0.000003  -0.000003  -0.000000  -0.000000  -0.000000
    31  H    0.527698  -0.000000   0.000000  -0.000000   0.000000  -0.000000
    32  C   -0.000000   5.513408   0.376986   0.285181   0.041387   0.058021
    33  C    0.000000   0.376986   5.471583  -0.175061  -0.004991  -0.017394
    34  C   -0.000000   0.285181  -0.175061   5.432975  -0.044826   0.176956
    35  C    0.000000   0.041387  -0.004991  -0.044826   6.059821  -0.247995
    36  C   -0.000000   0.058021  -0.017394   0.176956  -0.247995   5.601902
    37  C    0.000000  -0.156924   0.074031   0.044759   0.116579   0.359452
    38  H   -0.000000  -0.029559   0.390188   0.010971  -0.039942   0.001236
    39  H   -0.000000  -0.057778   0.017622   0.431499  -0.004351  -0.070611
    40  H   -0.000000   0.007531   0.026070   0.006948   0.359335  -0.006370
    41  H    0.000000   0.021272  -0.003833  -0.061291   0.020175   0.442177
    42  O   -0.000000  -0.000305   0.013152   0.006573  -0.124991  -0.098116
    43  C    0.000000   0.002086  -0.009429  -0.001290   0.020996   0.008481
    44  H   -0.000000   0.000426  -0.001153  -0.000107   0.019506  -0.002364
    45  H    0.000000  -0.000044  -0.000917   0.000170   0.016105  -0.001308
    46  H    0.000000  -0.000068   0.000233   0.000198  -0.001616  -0.000069
              37         38         39         40         41         42
     1  N    0.003235  -0.009486  -0.007847  -0.000653  -0.000525  -0.000001
     2  C    0.001618   0.001487  -0.002098  -0.000045   0.000027   0.000005
     3  C   -0.000019  -0.003155  -0.000398  -0.000051   0.000003   0.000000
     4  C   -0.001630   0.004780   0.000466   0.000089  -0.000025  -0.000002
     5  C    0.000053   0.001687   0.000035  -0.000004   0.000000  -0.000000
     6  C   -0.000130  -0.002599   0.000018   0.000044  -0.000002  -0.000000
     7  C   -0.000013   0.000546  -0.000006  -0.000003   0.000000   0.000000
     8  H   -0.000010   0.000015  -0.000017  -0.000000   0.000000   0.000000
     9  H    0.000088   0.001033  -0.000052  -0.000022   0.000010  -0.000000
    10  H    0.000000   0.000008  -0.000000   0.000000  -0.000000  -0.000000
    11  H   -0.000002  -0.000047  -0.000000   0.000000  -0.000000  -0.000000
    12  C    0.002224  -0.001421   0.000697   0.000025  -0.000202  -0.000005
    13  C    0.000057  -0.000381  -0.002549   0.000003  -0.000026   0.000000
    14  C   -0.001642   0.000344   0.003619  -0.000039   0.000040   0.000009
    15  C    0.000038   0.000032   0.001581   0.000000  -0.000004  -0.000000
    16  C   -0.000175  -0.000010  -0.002476  -0.000002   0.000029   0.000000
    17  C   -0.000004  -0.000005   0.000550   0.000000  -0.000003  -0.000000
    18  H   -0.000006  -0.000014   0.000019  -0.000000  -0.000000   0.000000
    19  H    0.000568  -0.000005   0.001224   0.000007  -0.000049  -0.000008
    20  H    0.000000  -0.000000   0.000004  -0.000000   0.000000  -0.000000
    21  H   -0.000003  -0.000000  -0.000048   0.000000  -0.000000   0.000000
    22  O    0.000000   0.000000  -0.000008  -0.000000   0.000000   0.000000
    23  C    0.000000   0.000000   0.000003   0.000000  -0.000000  -0.000000
    24  H    0.000000  -0.000000  -0.000000  -0.000000   0.000000  -0.000000
    25  H    0.000000   0.000000   0.000003   0.000000  -0.000000   0.000000
    26  H    0.000000  -0.000000  -0.000000   0.000000  -0.000000  -0.000000
    27  O    0.000000  -0.000008   0.000000  -0.000000  -0.000000  -0.000000
    28  C    0.000000   0.000003   0.000000  -0.000000   0.000000  -0.000000
    29  H    0.000000  -0.000000  -0.000000   0.000000  -0.000000  -0.000000
    30  H   -0.000000   0.000004   0.000000  -0.000000   0.000000   0.000000
    31  H    0.000000  -0.000000  -0.000000  -0.000000   0.000000  -0.000000
    32  C   -0.156924  -0.029559  -0.057778   0.007531   0.021272  -0.000305
    33  C    0.074031   0.390188   0.017622   0.026070  -0.003833   0.013152
    34  C    0.044759   0.010971   0.431499   0.006948  -0.061291   0.006573
    35  C    0.116579  -0.039942  -0.004351   0.359335   0.020175  -0.124991
    36  C    0.359452   0.001236  -0.070611  -0.006370   0.442177  -0.098116
    37  C    5.256324   0.008873   0.021552  -0.062664  -0.094478   0.448836
    38  H    0.008873   0.529621  -0.000261  -0.004294   0.000023  -0.000092
    39  H    0.021552  -0.000261   0.539461   0.000019  -0.010334  -0.000107
    40  H   -0.062664  -0.004294   0.000019   0.530190  -0.000275  -0.008423
    41  H   -0.094478   0.000023  -0.010334  -0.000275   0.574217   0.003402
    42  O    0.448836  -0.000092  -0.000107  -0.008423   0.003402   7.783316
    43  C   -0.122369  -0.000254   0.000039   0.015458   0.000188   0.230537
    44  H   -0.023748  -0.000060  -0.000001   0.001166   0.000029  -0.043755
    45  H   -0.021237  -0.000002  -0.000001   0.000114   0.000126  -0.044189
    46  H    0.011507   0.000003   0.000000   0.000013  -0.000158  -0.029745
              43         44         45         46
     1  N    0.000001   0.000001   0.000001  -0.000000
     2  C   -0.000011   0.000004  -0.000005   0.000000
     3  C   -0.000000  -0.000000   0.000000   0.000000
     4  C   -0.000006   0.000010  -0.000001  -0.000000
     5  C    0.000000  -0.000000   0.000000   0.000000
     6  C    0.000001   0.000000   0.000000  -0.000000
     7  C   -0.000000  -0.000000   0.000000  -0.000000
     8  H   -0.000000   0.000000  -0.000000  -0.000000
     9  H   -0.000009   0.000001  -0.000000  -0.000000
    10  H   -0.000000   0.000000  -0.000000   0.000000
    11  H    0.000000  -0.000000   0.000000   0.000000
    12  C    0.000000  -0.000002   0.000003  -0.000000
    13  C   -0.000000   0.000000  -0.000000  -0.000000
    14  C   -0.000001   0.000000  -0.000003   0.000000
    15  C   -0.000000   0.000000  -0.000000  -0.000000
    16  C   -0.000000  -0.000000  -0.000000   0.000000
    17  C    0.000000   0.000000   0.000000   0.000000
    18  H    0.000000  -0.000000   0.000000  -0.000000
    19  H    0.000003  -0.000000   0.000004  -0.000000
    20  H    0.000000  -0.000000   0.000000   0.000000
    21  H   -0.000000   0.000000  -0.000000  -0.000000
    22  O   -0.000000  -0.000000   0.000000  -0.000000
    23  C   -0.000000   0.000000  -0.000000  -0.000000
    24  H    0.000000  -0.000000   0.000000   0.000000
    25  H   -0.000000   0.000000  -0.000000  -0.000000
    26  H   -0.000000   0.000000  -0.000000  -0.000000
    27  O    0.000000   0.000000  -0.000000   0.000000
    28  C   -0.000000   0.000000  -0.000000  -0.000000
    29  H   -0.000000   0.000000  -0.000000   0.000000
    30  H   -0.000000  -0.000000   0.000000  -0.000000
    31  H    0.000000  -0.000000   0.000000   0.000000
    32  C    0.002086   0.000426  -0.000044  -0.000068
    33  C   -0.009429  -0.001153  -0.000917   0.000233
    34  C   -0.001290  -0.000107   0.000170   0.000198
    35  C    0.020996   0.019506   0.016105  -0.001616
    36  C    0.008481  -0.002364  -0.001308  -0.000069
    37  C   -0.122369  -0.023748  -0.021237   0.011507
    38  H   -0.000254  -0.000060  -0.000002   0.000003
    39  H    0.000039  -0.000001  -0.000001   0.000000
    40  H    0.015458   0.001166   0.000114   0.000013
    41  H    0.000188   0.000029   0.000126  -0.000158
    42  O    0.230537  -0.043755  -0.044189  -0.029745
    43  C    4.896272   0.406212   0.407355   0.388215
    44  H    0.406212   0.601830  -0.062838  -0.020248
    45  H    0.407355  -0.062838   0.601436  -0.020416
    46  H    0.388215  -0.020248  -0.020416   0.528015
 Mulliken charges:
               1
     1  N   -0.007214
     2  C   -0.088829
     3  C   -0.095554
     4  C   -0.073043
     5  C   -0.201316
     6  C   -0.212720
     7  C    0.136046
     8  H    0.137355
     9  H    0.137574
    10  H    0.135923
    11  H    0.109344
    12  C   -0.082941
    13  C   -0.106110
    14  C   -0.070657
    15  C   -0.200430
    16  C   -0.212609
    17  C    0.135547
    18  H    0.136640
    19  H    0.141010
    20  H    0.136024
    21  H    0.109466
    22  O   -0.135915
    23  C   -0.242703
    24  H    0.124352
    25  H    0.126286
    26  H    0.144326
    27  O   -0.136024
    28  C   -0.242597
    29  H    0.124791
    30  H    0.125919
    31  H    0.144349
    32  C   -0.070694
    33  C   -0.108451
    34  C   -0.083609
    35  C   -0.200343
    36  C   -0.211356
    37  C    0.135260
    38  H    0.140741
    39  H    0.140532
    40  H    0.135833
    41  H    0.109488
    42  O   -0.136091
    43  C   -0.242474
    44  H    0.125092
    45  H    0.125647
    46  H    0.144135
 Sum of Mulliken charges =  -0.00000
 Mulliken charges with hydrogens summed into heavy atoms:
               1
     1  N   -0.007214
     2  C   -0.088829
     3  C    0.041801
     4  C    0.064531
     5  C   -0.065393
     6  C   -0.103376
     7  C    0.136046
    12  C   -0.082941
    13  C    0.030531
    14  C    0.070353
    15  C   -0.064405
    16  C   -0.103143
    17  C    0.135547
    22  O   -0.135915
    23  C    0.152262
    27  O   -0.136024
    28  C    0.152462
    32  C   -0.070694
    33  C    0.032290
    34  C    0.056923
    35  C   -0.064510
    36  C   -0.101868
    37  C    0.135260
    42  O   -0.136091
    43  C    0.152399
 Electronic spatial extent (au):  <R**2>=          11478.8996
 Charge=             -0.0000 electrons
 Dipole moment (field-independent basis, Debye):
    X=              1.2133    Y=              1.3444    Z=             -0.7945  Tot=              1.9776
 Quadrupole moment (field-independent basis, Debye-Ang):
   XX=           -118.8787   YY=           -142.6779   ZZ=           -145.8712
   XY=             -0.4002   XZ=              6.6441   YZ=             -7.3018
 Traceless Quadrupole moment (field-independent basis, Debye-Ang):
   XX=             16.9306   YY=             -6.8686   ZZ=            -10.0619
   XY=             -0.4002   XZ=              6.6441   YZ=             -7.3018
 Octapole moment (field-independent basis, Debye-Ang**2):
  XXX=            -16.0437  YYY=             58.3848  ZZZ=             -0.5267  XYY=             65.9009
  XXY=             -4.5214  XXZ=            -14.6654  XZZ=             -1.2341  YZZ=              1.0851
  YYZ=            -18.6441  XYZ=            -31.6147
 Hexadecapole moment (field-independent basis, Debye-Ang**3):
 XXXX=          -6469.8895 YYYY=          -6567.4653 ZZZZ=           -579.0374 XXXY=           -258.5207
 XXXZ=            283.2988 YYYX=            229.0107 YYYZ=           -188.5461 ZZZX=             -2.0864
 ZZZY=              5.3219 XXYY=          -2223.0947 XXZZ=          -1398.2251 YYZZ=          -1222.3315
 XXYZ=            -76.6323 YYXZ=            -33.7131 ZZXY=              2.5036
 N-N= 2.056677808601D+03 E-N=-6.659812040809D+03  KE= 1.087993658180D+03
 No NMR shielding tensors so no spin-rotation constants.
 Leave Link  601 at Sun Jan 17 01:27:50 2021, MaxMem=  4026531840 cpu:               3.0 elap:               0.4
 (Enter /opt/ohpc/pub/libs/gaussian/g16-A.03/sandybridge/g16/l9999.exe)

 Test job not archived.
 1\1\GINC-CASCADEB034\SP\RLC-wHPBE\TZVP\C21H21N1O3\RDU230\17-Jan-2021\0
 \\#P LC-wHPBE/TZVP iop(3/107=0191100000, 3/108=0191100000) scf=(conver
 =6,fermi,ndamp=35,noincfock,novaracc,vshift=500,xqc)\\H21 C21 N1 O3\\0
 ,1\N,0,0.054086,0.063852,0.077784\C,0,-0.275154,-1.311734,0.103506\C,0
 ,-1.260864,-1.827996,-0.72375\C,0,0.386135,-2.184815,0.970218\C,0,-1.5
 98384,-3.175646,-0.688444\C,0,0.074577,-3.526309,0.994438\C,0,-0.9252,
 -4.03443,0.167909\H,0,-1.784639,-1.164375,-1.405148\H,0,1.158634,-1.79
 7039,1.627427\H,0,-2.379444,-3.537517,-1.347421\H,0,0.588853,-4.20682,
 1.665799\C,0,-0.970368,1.03417,-0.019727\C,0,-2.134785,0.917606,0.7248
 71\C,0,-0.835797,2.133662,-0.869883\C,0,-3.151989,1.858174,0.623575\C,
 0,-1.829782,3.083912,-0.958163\C,0,-3.000537,2.952781,-0.215611\H,0,-2
 .255494,0.070396,1.39325\H,0,0.067507,2.240735,-1.462783\H,0,-4.048238
 ,1.726664,1.219136\H,0,-1.725247,3.941045,-1.615932\O,0,-3.928451,3.93
 6733,-0.380204\C,0,-5.121818,3.840279,0.365278\H,0,-5.681122,2.930406,
 0.115451\H,0,-4.925953,3.859223,1.44425\H,0,-5.719912,4.710924,0.09646
 6\O,0,-1.16822,-5.370782,0.273837\C,0,-2.170458,-5.919715,-0.552884\H,
 0,-3.15107,-5.47272,-0.348812\H,0,-1.930216,-5.79407,-1.615623\H,0,-2.
 208576,-6.98373,-0.319613\C,0,1.409258,0.466483,0.091838\C,0,2.372325,
 -0.232608,-0.620224\C,0,1.812213,1.581496,0.83064\C,0,3.707828,0.15075
 4,-0.59385\C,0,3.129962,1.982235,0.842322\C,0,4.092694,1.267169,0.1335
 83\H,0,2.078678,-1.100647,-1.202616\H,0,1.073246,2.139336,1.397822\H,0
 ,4.429565,-0.427688,-1.159301\H,0,3.443945,2.849999,1.413878\O,0,5.369
 584,1.734982,0.218075\C,0,6.368506,1.037347,-0.492266\H,0,6.460713,0.0
 00867,-0.145468\H,0,6.173119,1.041208,-1.571513\H,0,7.303574,1.562498,
 -0.297656\\Version=EM64L-G16RevA.03\State=1-A\HF=-1092.6049134\RMSD=6.
 394e-07\Dipole=-0.4773591,-0.5289149,-0.3125786\Quadrupole=12.5874581,
 -5.1066632,-7.4807949,-0.297533,-4.9397543,5.4287223\PG=C01 [X(C21H21N
 1O3)]\\@


 Once you get people laughing, they're
 listening and you can tell them almost anything.
                                 -- Herb Gardner
 Job cpu time:       0 days  1 hours 24 minutes 40.6 seconds.
 Elapsed time:       0 days  0 hours 10 minutes 37.1 seconds.
 File lengths (MBytes):  RWF=    168 Int=      0 D2E=      0 Chk=     28 Scr=      8
 Normal termination of Gaussian 16 at Sun Jan 17 01:27:50 2021.
