 Entering Gaussian System, Link 0=g16
 Input=mol_NN_ma_frag_tune_c0.gjf
 Output=mol_NN_ma_frag_tune_c0.log
 Initial command:
 /opt/ohpc/pub/libs/gaussian/g16-A.03/sandybridge/g16/l1.exe "/mnt/gpfs2_4m/scratch/rdu230/ondemand/projects/init_structures/wtuning/mol_NN_ma_frag/tuning_mol_NN_ma_frag_ocycle0/Gau-200504.inp" -scrdir="/mnt/gpfs2_4m/scratch/rdu230/ondemand/projects/init_structures/wtuning/mol_NN_ma_frag/tuning_mol_NN_ma_frag_ocycle0/"
 Entering Link 1 = /opt/ohpc/pub/libs/gaussian/g16-A.03/sandybridge/g16/l1.exe PID=    200505.
  
 Copyright (c) 1988,1990,1992,1993,1995,1998,2003,2009,2016,
            Gaussian, Inc.  All Rights Reserved.
  
 This is part of the Gaussian(R) 16 program.  It is based on
 the Gaussian(R) 09 system (copyright 2009, Gaussian, Inc.),
 the Gaussian(R) 03 system (copyright 2003, Gaussian, Inc.),
 the Gaussian(R) 98 system (copyright 1998, Gaussian, Inc.),
 the Gaussian(R) 94 system (copyright 1995, Gaussian, Inc.),
 the Gaussian 92(TM) system (copyright 1992, Gaussian, Inc.),
 the Gaussian 90(TM) system (copyright 1990, Gaussian, Inc.),
 the Gaussian 88(TM) system (copyright 1988, Gaussian, Inc.),
 the Gaussian 86(TM) system (copyright 1986, Carnegie Mellon
 University), and the Gaussian 82(TM) system (copyright 1983,
 Carnegie Mellon University). Gaussian is a federally registered
 trademark of Gaussian, Inc.
  
 This software contains proprietary and confidential information,
 including trade secrets, belonging to Gaussian, Inc.
  
 This software is provided under written license and may be
 used, copied, transmitted, or stored only in accord with that
 written license.
  
 The following legend is applicable only to US Government
 contracts under FAR:
  
                    RESTRICTED RIGHTS LEGEND
  
 Use, reproduction and disclosure by the US Government is
 subject to restrictions as set forth in subparagraphs (a)
 and (c) of the Commercial Computer Software - Restricted
 Rights clause in FAR 52.227-19.
  
 Gaussian, Inc.
 340 Quinnipiac St., Bldg. 40, Wallingford CT 06492
  
  
 ---------------------------------------------------------------
 Warning -- This program may not be used in any manner that
 competes with the business of Gaussian, Inc. or will provide
 assistance to any competitor of Gaussian, Inc.  The licensee
 of this program is prohibited from giving any competitor of
 Gaussian, Inc. access to this program.  By using this program,
 the user acknowledges that Gaussian, Inc. is engaged in the
 business of creating and licensing software in the field of
 computational chemistry and represents and warrants to the
 licensee that it is not a competitor of Gaussian, Inc. and that
 it will not use this program in any manner prohibited above.
 ---------------------------------------------------------------
  

 Cite this work as:
 Gaussian 16, Revision A.03,
 M. J. Frisch, G. W. Trucks, H. B. Schlegel, G. E. Scuseria, 
 M. A. Robb, J. R. Cheeseman, G. Scalmani, V. Barone, 
 G. A. Petersson, H. Nakatsuji, X. Li, M. Caricato, A. V. Marenich, 
 J. Bloino, B. G. Janesko, R. Gomperts, B. Mennucci, H. P. Hratchian, 
 J. V. Ortiz, A. F. Izmaylov, J. L. Sonnenberg, D. Williams-Young, 
 F. Ding, F. Lipparini, F. Egidi, J. Goings, B. Peng, A. Petrone, 
 T. Henderson, D. Ranasinghe, V. G. Zakrzewski, J. Gao, N. Rega, 
 G. Zheng, W. Liang, M. Hada, M. Ehara, K. Toyota, R. Fukuda, 
 J. Hasegawa, M. Ishida, T. Nakajima, Y. Honda, O. Kitao, H. Nakai, 
 T. Vreven, K. Throssell, J. A. Montgomery, Jr., J. E. Peralta, 
 F. Ogliaro, M. J. Bearpark, J. J. Heyd, E. N. Brothers, K. N. Kudin, 
 V. N. Staroverov, T. A. Keith, R. Kobayashi, J. Normand, 
 K. Raghavachari, A. P. Rendell, J. C. Burant, S. S. Iyengar, 
 J. Tomasi, M. Cossi, J. M. Millam, M. Klene, C. Adamo, R. Cammi, 
 J. W. Ochterski, R. L. Martin, K. Morokuma, O. Farkas, 
 J. B. Foresman, and D. J. Fox, Gaussian, Inc., Wallingford CT, 2016.
 
 ******************************************
 Gaussian 16:  EM64L-G16RevA.03 25-Dec-2016
                16-Jan-2021 
 ******************************************
 %mem=30GB
 %nproc=8
 Will use up to    8 processors via shared memory.
 ----------------------------------------------------------------------
 #P LC-wHPBE/TZVP iop(3/107=0221900000, 3/108=0221900000) scf=(conver=6
 ,fermi,ndamp=35,noincfock,novaracc,vshift=500,xqc)
 ----------------------------------------------------------------------
 1/38=1,172=1/1;
 2/12=2,17=6,18=5,40=1/2;
 3/5=19,7=101,11=2,25=1,30=1,74=-71,107=221900000,108=221900000/1,2,3;
 4//1;
 5/5=100002,6=6,8=3,10=500,13=1,18=-1,22=13,38=1,93=35/2,8;
 6/7=2,8=2,9=2,10=2,28=1/1;
 99/5=1,9=1/99;
 Leave Link    1 at Sat Jan 16 23:35:56 2021, MaxMem=  4026531840 cpu:               1.7 elap:               0.4
 (Enter /opt/ohpc/pub/libs/gaussian/g16-A.03/sandybridge/g16/l101.exe)
 -------------
 H21 C21 N1 O3
 -------------
 Symbolic Z-matrix:
 Charge =  1 Multiplicity = 2
 N                     0.05409   0.06385   0.07778 
 C                    -0.27515  -1.31173   0.10351 
 C                    -1.26086  -1.828    -0.72375 
 C                     0.38614  -2.18481   0.97022 
 C                    -1.59838  -3.17565  -0.68844 
 C                     0.07458  -3.52631   0.99444 
 C                    -0.9252   -4.03443   0.16791 
 H                    -1.78464  -1.16438  -1.40515 
 H                     1.15863  -1.79704   1.62743 
 H                    -2.37944  -3.53752  -1.34742 
 H                     0.58885  -4.20682   1.6658 
 C                    -0.97037   1.03417  -0.01973 
 C                    -2.13478   0.91761   0.72487 
 C                    -0.8358    2.13366  -0.86988 
 C                    -3.15199   1.85817   0.62358 
 C                    -1.82978   3.08391  -0.95816 
 C                    -3.00054   2.95278  -0.21561 
 H                    -2.25549   0.0704    1.39325 
 H                     0.06751   2.24073  -1.46278 
 H                    -4.04824   1.72666   1.21914 
 H                    -1.72525   3.94105  -1.61593 
 O                    -3.92845   3.93673  -0.3802 
 C                    -5.12182   3.84028   0.36528 
 H                    -5.68112   2.93041   0.11545 
 H                    -4.92595   3.85922   1.44425 
 H                    -5.71991   4.71092   0.09647 
 O                    -1.16822  -5.37078   0.27384 
 C                    -2.17046  -5.91972  -0.55288 
 H                    -3.15107  -5.47272  -0.34881 
 H                    -1.93022  -5.79407  -1.61562 
 H                    -2.20858  -6.98373  -0.31961 
 C                     1.40926   0.46648   0.09184 
 C                     2.37233  -0.23261  -0.62022 
 C                     1.81221   1.5815    0.83064 
 C                     3.70783   0.15075  -0.59385 
 C                     3.12996   1.98224   0.84232 
 C                     4.09269   1.26717   0.13358 
 H                     2.07868  -1.10065  -1.20262 
 H                     1.07325   2.13934   1.39782 
 H                     4.42957  -0.42769  -1.1593 
 H                     3.44395   2.85      1.41388 
 O                     5.36958   1.73498   0.21808 
 C                     6.36851   1.03735  -0.49227 
 H                     6.46071   0.00087  -0.14547 
 H                     6.17312   1.04121  -1.57151 
 H                     7.30357   1.5625   -0.29766 
 
 ITRead=  0  0  0  0  0  0  0  0  0  0  0  0  0  0  0  0  0  0  0  0
 ITRead=  0  0  0  0  0  0  0  0  0  0  0  0  0  0  0  0  0  0  0  0
 ITRead=  0  0  0  0  0  0
 MicOpt= -1 -1 -1 -1 -1 -1 -1 -1 -1 -1 -1 -1 -1 -1 -1 -1 -1 -1 -1 -1
 MicOpt= -1 -1 -1 -1 -1 -1 -1 -1 -1 -1 -1 -1 -1 -1 -1 -1 -1 -1 -1 -1
 MicOpt= -1 -1 -1 -1 -1 -1
 NAtoms=     46 NQM=       46 NQMF=       0 NMMI=      0 NMMIF=      0
                NMic=       0 NMicF=      0.
                    Isotopes and Nuclear Properties:
 (Nuclear quadrupole moments (NQMom) in fm**2, nuclear magnetic moments (NMagM)
  in nuclear magnetons)

  Atom         1           2           3           4           5           6           7           8           9          10
 IAtWgt=          14          12          12          12          12          12          12           1           1           1
 AtmWgt=  14.0030740  12.0000000  12.0000000  12.0000000  12.0000000  12.0000000  12.0000000   1.0078250   1.0078250   1.0078250
 NucSpn=           2           0           0           0           0           0           0           1           1           1
 AtZEff=  -0.0000000  -0.0000000  -0.0000000  -0.0000000  -0.0000000  -0.0000000  -0.0000000  -0.0000000  -0.0000000  -0.0000000
 NQMom=    2.0440000   0.0000000   0.0000000   0.0000000   0.0000000   0.0000000   0.0000000   0.0000000   0.0000000   0.0000000
 NMagM=    0.4037610   0.0000000   0.0000000   0.0000000   0.0000000   0.0000000   0.0000000   2.7928460   2.7928460   2.7928460
 AtZNuc=   7.0000000   6.0000000   6.0000000   6.0000000   6.0000000   6.0000000   6.0000000   1.0000000   1.0000000   1.0000000

  Atom        11          12          13          14          15          16          17          18          19          20
 IAtWgt=           1          12          12          12          12          12          12           1           1           1
 AtmWgt=   1.0078250  12.0000000  12.0000000  12.0000000  12.0000000  12.0000000  12.0000000   1.0078250   1.0078250   1.0078250
 NucSpn=           1           0           0           0           0           0           0           1           1           1
 AtZEff=  -0.0000000  -0.0000000  -0.0000000  -0.0000000  -0.0000000  -0.0000000  -0.0000000  -0.0000000  -0.0000000  -0.0000000
 NQMom=    0.0000000   0.0000000   0.0000000   0.0000000   0.0000000   0.0000000   0.0000000   0.0000000   0.0000000   0.0000000
 NMagM=    2.7928460   0.0000000   0.0000000   0.0000000   0.0000000   0.0000000   0.0000000   2.7928460   2.7928460   2.7928460
 AtZNuc=   1.0000000   6.0000000   6.0000000   6.0000000   6.0000000   6.0000000   6.0000000   1.0000000   1.0000000   1.0000000

  Atom        21          22          23          24          25          26          27          28          29          30
 IAtWgt=           1          16          12           1           1           1          16          12           1           1
 AtmWgt=   1.0078250  15.9949146  12.0000000   1.0078250   1.0078250   1.0078250  15.9949146  12.0000000   1.0078250   1.0078250
 NucSpn=           1           0           0           1           1           1           0           0           1           1
 AtZEff=  -0.0000000  -0.0000000  -0.0000000  -0.0000000  -0.0000000  -0.0000000  -0.0000000  -0.0000000  -0.0000000  -0.0000000
 NQMom=    0.0000000   0.0000000   0.0000000   0.0000000   0.0000000   0.0000000   0.0000000   0.0000000   0.0000000   0.0000000
 NMagM=    2.7928460   0.0000000   0.0000000   2.7928460   2.7928460   2.7928460   0.0000000   0.0000000   2.7928460   2.7928460
 AtZNuc=   1.0000000   8.0000000   6.0000000   1.0000000   1.0000000   1.0000000   8.0000000   6.0000000   1.0000000   1.0000000

  Atom        31          32          33          34          35          36          37          38          39          40
 IAtWgt=           1          12          12          12          12          12          12           1           1           1
 AtmWgt=   1.0078250  12.0000000  12.0000000  12.0000000  12.0000000  12.0000000  12.0000000   1.0078250   1.0078250   1.0078250
 NucSpn=           1           0           0           0           0           0           0           1           1           1
 AtZEff=  -0.0000000  -0.0000000  -0.0000000  -0.0000000  -0.0000000  -0.0000000  -0.0000000  -0.0000000  -0.0000000  -0.0000000
 NQMom=    0.0000000   0.0000000   0.0000000   0.0000000   0.0000000   0.0000000   0.0000000   0.0000000   0.0000000   0.0000000
 NMagM=    2.7928460   0.0000000   0.0000000   0.0000000   0.0000000   0.0000000   0.0000000   2.7928460   2.7928460   2.7928460
 AtZNuc=   1.0000000   6.0000000   6.0000000   6.0000000   6.0000000   6.0000000   6.0000000   1.0000000   1.0000000   1.0000000

  Atom        41          42          43          44          45          46
 IAtWgt=           1          16          12           1           1           1
 AtmWgt=   1.0078250  15.9949146  12.0000000   1.0078250   1.0078250   1.0078250
 NucSpn=           1           0           0           1           1           1
 AtZEff=  -0.0000000  -0.0000000  -0.0000000  -0.0000000  -0.0000000  -0.0000000
 NQMom=    0.0000000   0.0000000   0.0000000   0.0000000   0.0000000   0.0000000
 NMagM=    2.7928460   0.0000000   0.0000000   2.7928460   2.7928460   2.7928460
 AtZNuc=   1.0000000   8.0000000   6.0000000   1.0000000   1.0000000   1.0000000
 Leave Link  101 at Sat Jan 16 23:35:56 2021, MaxMem=  4026531840 cpu:               0.8 elap:               0.1
 (Enter /opt/ohpc/pub/libs/gaussian/g16-A.03/sandybridge/g16/l202.exe)
                          Input orientation:                          
 ---------------------------------------------------------------------
 Center     Atomic      Atomic             Coordinates (Angstroms)
 Number     Number       Type             X           Y           Z
 ---------------------------------------------------------------------
      1          7           0        0.054086    0.063852    0.077784
      2          6           0       -0.275154   -1.311734    0.103506
      3          6           0       -1.260864   -1.827996   -0.723750
      4          6           0        0.386135   -2.184815    0.970218
      5          6           0       -1.598384   -3.175646   -0.688444
      6          6           0        0.074577   -3.526309    0.994438
      7          6           0       -0.925200   -4.034430    0.167909
      8          1           0       -1.784639   -1.164375   -1.405148
      9          1           0        1.158634   -1.797039    1.627427
     10          1           0       -2.379444   -3.537517   -1.347421
     11          1           0        0.588853   -4.206820    1.665799
     12          6           0       -0.970368    1.034170   -0.019727
     13          6           0       -2.134785    0.917606    0.724871
     14          6           0       -0.835797    2.133662   -0.869883
     15          6           0       -3.151989    1.858174    0.623575
     16          6           0       -1.829782    3.083912   -0.958163
     17          6           0       -3.000537    2.952781   -0.215611
     18          1           0       -2.255494    0.070396    1.393250
     19          1           0        0.067507    2.240735   -1.462783
     20          1           0       -4.048238    1.726664    1.219136
     21          1           0       -1.725247    3.941045   -1.615932
     22          8           0       -3.928451    3.936733   -0.380204
     23          6           0       -5.121818    3.840279    0.365278
     24          1           0       -5.681122    2.930406    0.115451
     25          1           0       -4.925953    3.859223    1.444250
     26          1           0       -5.719912    4.710924    0.096466
     27          8           0       -1.168220   -5.370782    0.273837
     28          6           0       -2.170458   -5.919715   -0.552884
     29          1           0       -3.151070   -5.472720   -0.348812
     30          1           0       -1.930216   -5.794070   -1.615623
     31          1           0       -2.208576   -6.983730   -0.319613
     32          6           0        1.409258    0.466483    0.091838
     33          6           0        2.372325   -0.232608   -0.620224
     34          6           0        1.812213    1.581496    0.830640
     35          6           0        3.707828    0.150754   -0.593850
     36          6           0        3.129962    1.982235    0.842322
     37          6           0        4.092694    1.267169    0.133583
     38          1           0        2.078678   -1.100647   -1.202616
     39          1           0        1.073246    2.139336    1.397822
     40          1           0        4.429565   -0.427688   -1.159301
     41          1           0        3.443945    2.849999    1.413878
     42          8           0        5.369584    1.734982    0.218075
     43          6           0        6.368506    1.037347   -0.492266
     44          1           0        6.460713    0.000867   -0.145468
     45          1           0        6.173119    1.041208   -1.571513
     46          1           0        7.303574    1.562498   -0.297656
 ---------------------------------------------------------------------
                    Distance matrix (angstroms):
                    1          2          3          4          5
     1  N    0.000000
     2  C    1.414672   0.000000
     3  C    2.439393   1.386544   0.000000
     4  C    2.441966   1.396697   2.389446   0.000000
     5  C    3.716465   2.419151   1.389722   2.769697   0.000000
     6  C    3.705392   2.412553   2.760406   1.377411   2.398719
     7  C    4.214622   2.799961   2.403347   2.405073   1.387093
     8  H    2.662431   2.139228   1.085834   3.375785   2.143261
     9  H    2.661641   2.147930   3.373865   1.085840   3.855511
    10  H    4.574181   3.389297   2.136036   3.853528   1.084092
    11  H    4.587636   3.401292   3.845803   2.147890   3.374876
    12  C    1.414401   2.449852   2.961761   3.630696   4.308612
    13  C    2.436960   2.968885   3.224992   4.005028   4.363473
    14  C    2.444193   3.623887   3.987075   4.850601   5.366862
    15  C    3.714350   4.312188   4.356545   5.383702   5.429035
    16  C    3.707143   4.781811   4.950299   6.032282   6.269638
    17  C    4.214583   5.071059   5.112778   6.266628   6.304540
    18  H    2.657942   2.737785   3.012452   3.499019   3.911781
    19  H    2.666898   3.897527   4.343422   5.060288   5.719439
    20  H    4.571290   4.971183   4.917303   5.918217   5.802869
    21  H    4.589916   5.714099   5.856063   6.976551   7.177995
    22  O    5.574008   6.413030   6.361301   7.610036   7.490671
    23  C    6.413582   7.078271   6.944227   8.185674   7.921371
    24  H    6.411799   6.871709   6.548689   7.981712   7.389105
    25  H    6.408811   7.082819   7.104756   8.060607   8.069107
    26  H    7.411793   8.118981   7.956968   9.251944   8.933144
    27  O    5.573842   4.159621   3.681725   3.612665   2.435087
    28  C    6.414781   5.025586   4.195083   4.775509   2.806343
    29  H    6.411602   5.078316   4.122799   5.006194   2.793337
    30  H    6.412514   5.077989   4.119856   5.007872   2.797484
    31  H    7.412555   6.007386   5.257668   5.605870   3.874258
    32  C    1.413789   2.449375   3.613775   2.974511   4.787468
    33  C    2.439126   2.949143   3.969388   3.207112   4.942940
    34  C    2.441525   3.640962   4.846088   4.029675   6.047329
    35  C    3.715976   4.299921   5.349787   4.351418   6.263367
    36  C    3.704825   4.794882   6.020780   4.990917   7.162698
    37  C    4.214432   5.072449   6.243048   5.133686   7.266547
    38  H    2.663542   2.700192   3.451216   2.959954   4.253326
    39  H    2.662484   3.924706   5.068418   4.399233   6.303899
    40  H    4.573490   4.950818   5.876355   4.896087   6.641472
    41  H    4.586819   5.733131   6.970532   5.907316   8.133464
    42  O    5.573767   6.415502   7.585821   6.384770   8.572551
    43  C    6.414402   7.071870   8.152979   6.950536   9.014385
    44  H    6.410825   6.867082   7.956249   6.551523   8.679522
    45  H    6.412330   7.065568   8.013435   7.096253   8.885827
    46  H    7.412285   8.115372   9.220987   7.968740  10.091956
                    6          7          8          9         10
     6  C    0.000000
     7  C    1.393159   0.000000
     8  H    3.846223   3.383838   0.000000
     9  H    2.136874   3.387990   4.273129   0.000000
    10  H    3.392145   2.158234   2.447229   4.939330   0.000000
    11  H    1.085496   2.136761   4.931597   2.476523   4.282318
    12  C    4.787318   5.072273   2.723239   3.906598   4.964734
    13  C    4.970144   5.127959   2.999038   4.362398   4.919591
    14  C    6.028246   6.255427   3.473306   5.066036   5.896877
    15  C    6.288157   6.315774   3.888594   5.740189   5.796131
    16  C    7.150822   7.263408   4.271976   6.280095   6.655597
    17  C    7.273180   7.298988   4.454703   6.576951   6.617456
    18  H    4.304018   4.485615   3.094737   3.898515   4.532513
    19  H    6.268715   6.559140   3.876666   5.200344   6.276072
    20  H    6.681453   6.636916   4.513187   6.300373   6.089638
    21  H    8.112631   8.211599   5.110115   7.194564   7.511921
    22  O    8.579678   8.535771   5.627410   7.923709   7.694111
    23  C    9.036868   8.925335   6.270385   8.533256   8.055174
    24  H    8.694243   8.433889   5.853378   8.450862   7.407773
    25  H    8.930493   8.941187   6.574455   8.309576   8.306016
    26  H   10.111106   9.973745   7.229132   9.592279   9.015560
    27  O    2.337924   1.362394   4.570867   4.474159   2.730641
    28  C    3.628055   2.371605   4.846490   5.730015   2.519887
    29  H    3.999704   2.700033   4.641639   5.999142   2.310333
    30  H    3.996793   2.699514   4.636763   6.002885   2.316413
    31  H    4.346640   3.253168   5.934897   6.483119   3.600273
    32  C    4.305630   5.070868   3.886083   2.746703   5.697170
    33  C    4.328423   5.093984   4.331818   2.995401   5.833571
    34  C    5.397766   6.282616   5.047366   3.532214   6.965503
    35  C    5.407769   6.289753   5.705696   3.902097   7.157241
    36  C    6.300998   7.286936   6.253445   4.334217   8.100382
    37  C    6.313776   7.299821   6.543939   4.497738   8.195545
    38  H    3.837617   4.416866   3.869147   3.056237   5.082731
    39  H    5.767113   6.604685   5.190246   3.943990   7.189165
    40  H    5.762462   6.591175   6.262546   4.509985   7.487926
    41  H    7.223979   8.248468   7.169393   5.182973   9.073973
    42  O    7.504733   8.538907   7.888221   5.673936   9.502497
    43  C    7.915225   8.908249   8.494393   6.298381   9.908950
    44  H    7.383975   8.422205   8.422019   5.872620   9.597564
    45  H    8.039809   8.897967   8.259430   6.590442   9.703673
    46  H    8.934420   9.962684   9.552905   7.263107  10.994226
                   11         12         13         14         15
    11  H    0.000000
    12  C    5.721900   0.000000
    13  C    5.879055   1.387040   0.000000
    14  C    6.975745   1.396337   2.389436   0.000000
    15  C    7.201686   2.419151   1.389112   2.769667   0.000000
    16  C    8.117250   2.412612   2.760165   1.377960   2.398450
    17  C    8.226987   2.800183   2.403325   2.405229   1.387565
    18  H    5.143848   2.139372   1.085848   3.375556   2.142954
    19  H    7.185457   2.148347   3.374402   1.085796   3.855437
    20  H    7.543763   3.389338   2.135457   3.853495   1.084090
    21  H    9.083640   3.401123   3.845551   2.148102   3.374809
    22  O    9.534654   4.159936   3.681515   3.613220   2.435338
    23  C    9.952835   5.025636   4.194483   4.775787   2.806365
    24  H    9.625807   5.079881   4.123016   5.008279   2.793633
    25  H    9.773598   5.076495   4.118402   5.006211   2.797258
    26  H   11.035827   6.007511   5.257118   5.606308   3.874307
    27  O    2.525801   6.414728   6.378205   7.598374   7.504363
    28  C    3.933238   7.076792   6.955781   8.169375   7.927359
    29  H    4.432627   6.870471   6.559108   7.968002   7.395103
    30  H    4.430892   7.077645   7.111002   8.037588   8.066200
    31  H    4.413468   8.118486   7.970414   9.236566   8.941974
    32  C    4.999018   2.448946   3.628289   2.957138   4.798387
    33  C    4.919455   3.624765   4.842139   3.994197   6.036261
    34  C    5.974839   2.960650   4.003839   3.195094   4.976216
    35  C    5.815709   4.795368   6.038478   4.965143   7.173179
    36  C    6.740901   4.295889   5.372596   4.322247   6.286983
    37  C    6.677510   5.070739   6.265246   5.103702   7.285246
    38  H    4.482822   3.905554   5.053892   4.366421   6.280882
    39  H    6.370255   2.721616   3.498135   2.964281   4.304779
    40  H    6.083921   5.709197   6.960647   5.862449   8.116882
    41  H    7.616673   4.983836   5.943997   4.903559   6.716743
    42  O    7.762493   6.382999   7.565745   6.312634   8.532105
    43  C    8.097093   7.354072   8.590793   7.297019   9.620742
    44  H    7.447420   7.503632   8.687951   7.636272   9.820644
    45  H    8.319015   7.310095   8.620321   7.128159   9.614753
    46  H    9.067947   8.295450   9.515465   8.179427  10.500233
                   16         17         18         19         20
    16  C    0.000000
    17  C    1.392568   0.000000
    18  H    3.845992   3.384031   0.000000
    19  H    2.136655   3.387527   4.273597   0.000000
    20  H    3.391799   2.158597   2.446931   4.939263   0.000000
    21  H    1.085479   2.136335   4.931355   2.475576   4.282217
    22  O    2.337895   1.362452   4.570830   4.473932   2.730685
    23  C    3.627821   2.371691   4.846087   5.729698   2.519725
    24  H    4.001129   2.701044   4.641913   6.001100   2.309421
    25  H    3.994868   2.698889   4.635640   6.000416   2.317082
    26  H    4.346553   3.253223   5.934504   6.482847   3.600096
    27  O    8.569559   8.536899   5.660536   7.904307   7.717631
    28  C    9.019180   8.917621   6.298897   8.510543   8.070516
    29  H    8.679462   8.427898   5.879028   8.431937   7.422567
    30  H    8.902859   8.922613   6.599325   8.280842   8.311637
    31  H   10.094981   9.968564   7.259256   9.569647   9.034549
    32  C    4.294743   5.071735   3.909088   2.713874   5.713416
    33  C    5.363880   6.259238   5.055947   3.484181   6.960289
    34  C    4.326800   5.112497   4.375636   2.956076   5.875108
    35  C    6.277043   7.279875   6.286194   4.286607   8.119542
    36  C    5.390223   6.296364   5.741236   3.841739   7.192625
    37  C    6.290325   7.299120   6.581680   4.438282   8.225833
    38  H    5.731174   6.572890   5.186030   3.908622   7.169217
    39  H    3.856224   4.456520   3.919317   3.033950   5.141189
    40  H    7.179918   8.217332   7.173118   5.122512   9.064841
    41  H    5.787356   6.648093   6.341153   4.477356   7.578431
    42  O    7.418492   8.469359   7.892636   5.585077   9.470880
    43  C    8.462707   9.566838   8.880515   6.487884  10.578876
    44  H    8.882452   9.911305   8.851257   6.901117  10.736786
    45  H    8.282226   9.468292   8.987425   6.223278  10.617613
    46  H    9.282735  10.397804   9.821472   7.360584  11.453875
                   21         22         23         24         25
    21  H    0.000000
    22  O    2.526094   0.000000
    23  C    3.933452   1.410380   0.000000
    24  H    4.434865   2.080919   1.096861   0.000000
    25  H    4.428987   2.080781   1.096769   1.788488   0.000000
    26  H    4.413884   2.008960   1.089954   1.781042   1.781092
    27  O    9.517963   9.730184  10.024118   9.449926  10.034113
    28  C    9.927884  10.013487  10.237726   9.544426  10.354174
    29  H    9.605079   9.441563   9.545979   8.788016   9.666977
    30  H    9.737273  10.010381  10.340743   9.653103  10.560461
    31  H   11.012028  11.055232  11.230104  10.513703  11.316580
    32  C    4.981383   6.384089   7.356101   7.506328   7.312633
    33  C    5.933035   7.559153   8.586140   8.683541   8.618004
    34  C    4.905793   6.322065   7.307493   7.647295   7.139148
    35  C    6.702929   8.525963   9.617441   9.817431   9.615028
    36  C    5.783857   7.425350   8.471822   8.891714   8.293562
    37  C    6.637684   8.469316   9.569839   9.914341   9.474840
    38  H    6.329244   7.882713   8.872327   8.843143   8.981707
    39  H    4.490037   5.604372   6.506779   6.920387   6.241038
    40  H    7.561485   9.461057  10.572076  10.729761  10.615168
    41  H    6.090211   7.664982   8.686341   9.217333   8.430578
    42  O    7.652903   9.573876  10.701563  11.115650  10.583666
    43  C    8.671962  10.697959  11.858303  12.212556  11.801605
    44  H    9.203109  11.112195  12.212984  12.492975  12.127253
    45  H    8.413989  10.575680  11.796676  12.121796  11.841682
    46  H    9.429472  11.480514  12.649827  13.063084  12.564653
                   26         27         28         29         30
    26  H    0.000000
    27  O   11.063008   0.000000
    28  C   11.226342   1.410417   0.000000
    29  H   10.512080   2.080812   1.096836   0.000000
    30  H   11.298139   2.080834   1.096776   1.788452   0.000000
    31  H   12.217509   2.009011   1.089952   1.781095   1.781128
    32  C    8.297009   6.383587   7.349392   7.500993   7.298084
    33  C    9.509808   6.303621   7.279052   7.618420   7.101587
    34  C    8.189337   7.584667   8.604881   8.705587   8.624903
    35  C   10.495426   7.417283   8.450238   8.872879   8.256664
    36  C    9.290980   8.536065   9.616749   9.820719   9.597803
    37  C   10.399426   8.471085   9.557699   9.906105   9.444377
    38  H    9.812236   5.563840   6.457610   6.869808   6.186277
    39  H    7.379267   7.917663   8.903661   8.879131   9.002253
    40  H   11.445268   7.604161   8.607578   9.141951   8.333853
    41  H    9.443246   9.494893  10.597054  10.764244  10.619765
    42  O   11.482506   9.655976  10.772233  11.174698  10.645945
    43  C   12.647989   9.922362  11.014458  11.533598  10.807357
    44  H   13.061807   9.339756  10.474559  11.062905  10.302929
    45  H   12.557594   9.920393  10.913631  11.439701  10.601274
    46  H   13.404444  10.962129  12.075013  12.601448  11.879352
                   31         32         33         34         35
    31  H    0.000000
    32  C    8.292387   0.000000
    33  C    8.164109   1.386816   0.000000
    34  C    9.531680   1.396945   2.389499   0.000000
    35  C    9.272535   2.419355   1.389687   2.769395   0.000000
    36  C   10.499458   2.412789   2.760178   1.377385   2.398091
    37  C   10.391762   2.800655   2.403586   2.405262   1.386962
    38  H    7.332865   2.140007   1.085772   3.376244   2.142599
    39  H    9.846333   2.148706   3.374349   1.085796   3.855157
    40  H    9.367587   3.389269   2.135626   3.853209   1.084082
    41  H   11.474241   3.401307   3.845570   2.147514   3.374393
    42  O   11.564323   4.160434   3.682081   3.612988   2.435248
    43  C   11.744523   5.026053   4.195071   4.775561   2.806345
    44  H   11.134249   5.078416   4.122477   5.005969   2.793186
    45  H   11.671319   5.078525   4.119902   5.007969   2.797569
    46  H   12.787474   6.007988   5.257725   5.606109   3.874292
                   36         37         38         39         40
    36  C    0.000000
    37  C    1.393012   0.000000
    38  H    3.845924   3.383525   0.000000
    39  H    2.136198   3.387631   4.274419   0.000000
    40  H    3.391636   2.158141   2.445694   4.938964   0.000000
    41  H    1.085484   2.136675   4.931288   2.474977   4.282047
    42  O    2.338103   1.362511   4.570472   4.473681   2.730923
    43  C    3.627962   2.371461   4.845435   5.729449   2.520071
    44  H    3.999431   2.699797   4.640380   5.998299   2.310212
    45  H    3.996616   2.699366   4.635523   6.002628   2.316798
    46  H    4.346811   3.253143   5.933872   6.482621   3.600444
                   41         42         43         44         45
    41  H    0.000000
    42  O    2.526122   0.000000
    43  C    3.933465   1.410363   0.000000
    44  H    4.432832   2.080837   1.096842   0.000000
    45  H    4.430877   2.080773   1.096798   1.788470   0.000000
    46  H    4.414039   2.008991   1.089958   1.781086   1.781119
                   46
    46  H    0.000000
 Stoichiometry    C21H21NO3(1+,2)
 Framework group  C1[X(C21H21NO3)]
 Deg. of freedom   132
 Full point group                 C1      NOp   1
 Largest Abelian subgroup         C1      NOp   1
 Largest concise Abelian subgroup C1      NOp   1
                         Standard orientation:                         
 ---------------------------------------------------------------------
 Center     Atomic      Atomic             Coordinates (Angstroms)
 Number     Number       Type             X           Y           Z
 ---------------------------------------------------------------------
      1          7           0       -0.054086   -0.063852    0.077784
      2          6           0        0.275154    1.311734    0.103506
      3          6           0        1.260864    1.827996   -0.723750
      4          6           0       -0.386136    2.184815    0.970218
      5          6           0        1.598383    3.175646   -0.688444
      6          6           0       -0.074578    3.526309    0.994438
      7          6           0        0.925199    4.034430    0.167909
      8          1           0        1.784639    1.164376   -1.405148
      9          1           0       -1.158634    1.797039    1.627427
     10          1           0        2.379443    3.537518   -1.347421
     11          1           0       -0.588854    4.206820    1.665799
     12          6           0        0.970368   -1.034170   -0.019727
     13          6           0        2.134785   -0.917605    0.724871
     14          6           0        0.835798   -2.133662   -0.869883
     15          6           0        3.151989   -1.858173    0.623575
     16          6           0        1.829783   -3.083911   -0.958163
     17          6           0        3.000538   -2.952780   -0.215611
     18          1           0        2.255494   -0.070395    1.393250
     19          1           0       -0.067506   -2.240735   -1.462783
     20          1           0        4.048238   -1.726663    1.219136
     21          1           0        1.725248   -3.941045   -1.615932
     22          8           0        3.928452   -3.936732   -0.380204
     23          6           0        5.121819   -3.840278    0.365278
     24          1           0        5.681123   -2.930405    0.115451
     25          1           0        4.925954   -3.859222    1.444250
     26          1           0        5.719913   -4.710923    0.096466
     27          8           0        1.168219    5.370782    0.273837
     28          6           0        2.170457    5.919716   -0.552884
     29          1           0        3.151069    5.472721   -0.348812
     30          1           0        1.930215    5.794071   -1.615623
     31          1           0        2.208574    6.983731   -0.319613
     32          6           0       -1.409258   -0.466483    0.091838
     33          6           0       -2.372325    0.232607   -0.620224
     34          6           0       -1.812213   -1.581496    0.830640
     35          6           0       -3.707828   -0.150755   -0.593850
     36          6           0       -3.129962   -1.982236    0.842322
     37          6           0       -4.092694   -1.267170    0.133583
     38          1           0       -2.078678    1.100647   -1.202616
     39          1           0       -1.073245   -2.139336    1.397822
     40          1           0       -4.429565    0.427687   -1.159301
     41          1           0       -3.443944   -2.850000    1.413878
     42          8           0       -5.369584   -1.734983    0.218075
     43          6           0       -6.368506   -1.037348   -0.492266
     44          1           0       -6.460713   -0.000869   -0.145468
     45          1           0       -6.173119   -1.041209   -1.571513
     46          1           0       -7.303574   -1.562500   -0.297656
 ---------------------------------------------------------------------
 Rotational constants (GHZ):           0.1829468           0.1651743           0.0911050
 Leave Link  202 at Sat Jan 16 23:35:56 2021, MaxMem=  4026531840 cpu:               0.1 elap:               0.0
 (Enter /opt/ohpc/pub/libs/gaussian/g16-A.03/sandybridge/g16/l301.exe)
 Standard basis: TZVP (5D, 7F)
 Ernie: Thresh=  0.10000D-02 Tol=  0.10000D-05 Strict=F.
 There are   626 symmetry adapted cartesian basis functions of A   symmetry.
 There are   601 symmetry adapted basis functions of A   symmetry.
   601 basis functions,  1043 primitive gaussians,   626 cartesian basis functions
    89 alpha electrons       88 beta electrons
       nuclear repulsion energy      2056.6778086010 Hartrees.
 IExCor=33909 DFT=T Ex+Corr=LC-wHPBE ExCW=0 ScaHFX=  1.000000
 ScaDFX=  1.000000  1.000000  1.000000  1.000000 ScalE2=  1.000000  1.000000
 IRadAn=      5 IRanWt=     -1 IRanGd=            0 ICorTp=0 IEmpDi=  4
 HFx  wShort=  0.000000 wLong=  0.221900 cFull=  0.000000 cShort=  0.000000 cLong=  1.000000
 DFx  wShort=  0.000000 wLong=  0.221900 cFull=  0.000000 cShort=  1.000000 cLong=  0.000000
 NAtoms=   46 NActive=   46 NUniq=   46 SFac= 1.00D+00 NAtFMM=   60 NAOKFM=F Big=F
 Integral buffers will be    131072 words long.
 Raffenetti 2 integral format.
 Two-electron integral symmetry is turned on.
 Leave Link  301 at Sat Jan 16 23:35:56 2021, MaxMem=  4026531840 cpu:               0.4 elap:               0.1
 (Enter /opt/ohpc/pub/libs/gaussian/g16-A.03/sandybridge/g16/l302.exe)
 NPDir=0 NMtPBC=     1 NCelOv=     1 NCel=       1 NClECP=     1 NCelD=      1
         NCelK=      1 NCelE2=     1 NClLst=     1 CellRange=     0.0.
 One-electron integrals computed using PRISM.
 One-electron integral symmetry used in STVInt
 NBasis=   601 RedAO= T EigKep=  7.47D-06  NBF=   601
 NBsUse=   601 1.00D-06 EigRej= -1.00D+00 NBFU=   601
 Precomputing XC quadrature grid using
 IXCGrd= 4 IRadAn=           5 IRanWt=          -1 IRanGd=           0 AccXCQ= 0.00D+00.
 Generated NRdTot=       0 NPtTot=           0 NUsed=           0 NTot=          32
 NSgBfM=   597   597   597   597   597 MxSgAt=    46 MxSgA2=    46.
 Leave Link  302 at Sat Jan 16 23:35:59 2021, MaxMem=  4026531840 cpu:              20.2 elap:               2.8
 (Enter /opt/ohpc/pub/libs/gaussian/g16-A.03/sandybridge/g16/l303.exe)
 DipDrv:  MaxL=1.
 Leave Link  303 at Sat Jan 16 23:35:59 2021, MaxMem=  4026531840 cpu:               1.0 elap:               0.2
 (Enter /opt/ohpc/pub/libs/gaussian/g16-A.03/sandybridge/g16/l401.exe)
 ExpMin= 9.52D-02 ExpMax= 2.70D+04 ExpMxC= 9.22D+02 IAcc=3 IRadAn=         5 AccDes= 0.00D+00
 Harris functional with IExCor=33909 and IRadAn=       5 diagonalized for initial guess.
 HarFok:  IExCor=33909 AccDes= 0.00D+00 IRadAn=         5 IDoV= 1 UseB2=F ITyADJ=14
 ICtDFT=  3500011 ScaDFX=  1.000000  1.000000  1.000000  1.000000
 FoFCou: FMM=F IPFlag=           0 FMFlag=      100000 FMFlg1=           0
         NFxFlg=           0 DoJE=T BraDBF=F KetDBF=T FulRan=T
         wScrn=  0.000000 ICntrl=       500 IOpCl=  0 I1Cent=   200000004 NGrid=           0
         NMat0=    1 NMatS0=      1 NMatT0=    0 NMatD0=    1 NMtDS0=    0 NMtDT0=    0
 Petite list used in FoFCou.
 Harris En= -1071.60903556146    
 JPrj=0 DoOrth=F DoCkMO=F.
 Initial guess <Sx>= 0.0000 <Sy>= 0.0000 <Sz>= 0.5000 <S**2>= 0.7500 S= 0.5000
 Leave Link  401 at Sat Jan 16 23:36:07 2021, MaxMem=  4026531840 cpu:              55.2 elap:               7.2
 (Enter /opt/ohpc/pub/libs/gaussian/g16-A.03/sandybridge/g16/l502.exe)
 Integral symmetry usage will be decided dynamically.
 UHF open shell SCF:
 Using DIIS extrapolation, IDIIS=    10.
 NGot=  4026531840 LenX=  4025736816 LenY=  4025344314
 Requested convergence on RMS density matrix=1.00D-06 within  32 cycles.
 Requested convergence on MAX density matrix=1.00D-04.
 Requested convergence on             energy=1.00D-04.
 Virtual orbitals will be shifted by   0.500 hartree.
 No special actions if energy rises.
 Dynamic level shift is on during FON iterations.

 Cycle   1  Pass 1  IDiag  1:
 FoFJK:  IHMeth= 1 ICntrl=       0 DoSepK=T KAlg= 0 I1Cent=           0 FoldK=F
 IRaf=         1 NMat=       1 IRICut=       1 DoRegI=T DoRafI=F ISym2E= 0 IDoP0=0 IntGTp=1.
 FoFCou: FMM=F IPFlag=           0 FMFlag=      100000 FMFlg1=           0
         NFxFlg=           0 DoJE=T BraDBF=F KetDBF=F FulRan=T
         wScrn=  0.000000 ICntrl=       500 IOpCl=  0 I1Cent=           0 NGrid=           0
         NMat0=    1 NMatS0=      1 NMatT0=    0 NMatD0=    1 NMtDS0=    0 NMtDT0=    0
 Symmetry not used in FoFCou.
 E= -1092.08591018584    
 DIIS: error= 2.58D-02 at cycle   1 NSaved=   1.
 NSaved= 1 IEnMin= 1 EnMin= -1092.08591018584     IErMin= 1 ErrMin= 2.58D-02
 ErrMax= 2.58D-02  0.00D+00 EMaxC= 1.00D+00 BMatC= 1.46D+00 BMatP= 1.46D+00
 IDIUse=1 WtCom= 1.00D+00 WtEn= 0.00D+00
 Coeff-Com:  0.100D+01
 Coeff:      0.100D+01
 Gap=     0.357 Goal=   None    Shift=    0.500
 T= 1406. Gap= 0.788 NK=0 IS=   90 IE=  601 IFin=   89
          NO(<0.9)=   0  NV(>0.1)=   0     89.00e < EF      0.00e >EF  Err=0.0D+00
 Gap=     0.138 Goal=   None    Shift=    0.500
 T= 1406. Gap= 0.625 NK=0 IS=   89 IE=  601 IFin=   88
          NO(<0.9)=   0  NV(>0.1)=   0     88.00e < EF      0.00e >EF  Err=0.0D+00
 GapD=    0.138 DampG=1.000 DampE=0.500 DampFc=0.5000 IDamp=-1.
 Damping current iteration by 5.00D-01
 RMSDP=1.96D-03 MaxDP=6.56D-02              OVMax= 6.79D-02

 Cycle   2  Pass 1  IDiag  1:
 E= -1092.29150216580     Delta-E=       -0.205591979957 Rises=F Damp=T
 DIIS: error= 1.14D-02 at cycle   2 NSaved=   2.
 NSaved= 2 IEnMin= 2 EnMin= -1092.29150216580     IErMin= 2 ErrMin= 1.14D-02
 ErrMax= 1.14D-02  0.00D+00 EMaxC= 1.00D+00 BMatC= 2.36D-01 BMatP= 1.46D+00
 IDIUse=1 WtCom= 1.00D+00 WtEn= 0.00D+00
 Coeff-Com: -0.514D+00 0.151D+01
 Coeff:     -0.514D+00 0.151D+01
 Gap=     0.308 Goal=   None    Shift=    0.500
 T= 1283. Gap= 0.776 NK=0 IS=   90 IE=  601 IFin=   89
          NO(<0.9)=   0  NV(>0.1)=   0     89.00e < EF      0.00e >EF  Err=0.0D+00
 Gap=     0.205 Goal=   None    Shift=    0.500
 T= 1283. Gap= 0.685 NK=0 IS=   89 IE=  601 IFin=   88
          NO(<0.9)=   0  NV(>0.1)=   0     88.00e < EF      0.00e >EF  Err=0.0D+00
 GapD=    0.205 DampG=1.000 DampE=0.500 DampFc=0.5000 IDamp=-1.
 Damping current iteration by 5.00D-01
 RMSDP=1.06D-03 MaxDP=3.70D-02 DE=-2.06D-01 OVMax= 2.48D-02

 Cycle   3  Pass 1  IDiag  1:
 E= -1092.36073813058     Delta-E=       -0.069235964788 Rises=F Damp=T
 DIIS: error= 5.00D-03 at cycle   3 NSaved=   3.
 NSaved= 3 IEnMin= 3 EnMin= -1092.36073813058     IErMin= 3 ErrMin= 5.00D-03
 ErrMax= 5.00D-03  0.00D+00 EMaxC= 1.00D+00 BMatC= 4.55D-02 BMatP= 2.36D-01
 IDIUse=1 WtCom= 1.00D+00 WtEn= 0.00D+00
 Coeff-Com:  0.465D-01-0.862D+00 0.182D+01
 Coeff:      0.465D-01-0.862D+00 0.182D+01
 Gap=     0.290 Goal=   None    Shift=    0.500
 T= 1042. Gap= 0.788 NK=4 IS=   90 IE=  100 IFin=   89
          NO(<0.9)=   0  NV(>0.1)=   0     89.00e < EF      0.00e >EF  Err=0.0D+00
 Gap=     0.178 Goal=   None    Shift=    0.500
 T= 1042. Gap= 0.677 NK=4 IS=   89 IE=  100 IFin=   88
          NO(<0.9)=   0  NV(>0.1)=   0     88.00e < EF      0.00e >EF  Err=0.0D+00
 GapD=    0.178 DampG=1.000 DampE=1.000 DampFc=1.0000 IDamp=-1.
 RMSDP=6.37D-04 MaxDP=2.33D-02 DE=-6.92D-02 OVMax= 1.02D-02

 Cycle   4  Pass 1  IDiag  1:
 E= -1092.42007621014     Delta-E=       -0.059338079554 Rises=F Damp=F
 DIIS: error= 1.97D-03 at cycle   4 NSaved=   4.
 NSaved= 4 IEnMin= 4 EnMin= -1092.42007621014     IErMin= 4 ErrMin= 1.97D-03
 ErrMax= 1.97D-03  0.00D+00 EMaxC= 1.00D+00 BMatC= 1.87D-03 BMatP= 4.55D-02
 IDIUse=1 WtCom= 1.00D+00 WtEn= 0.00D+00
 Coeff-Com:  0.629D-01-0.156D+00 0.113D+00 0.980D+00
 Coeff:      0.629D-01-0.156D+00 0.113D+00 0.980D+00
 Gap=     0.288 Goal=   None    Shift=    0.500
 T=  543. Gap= 0.788 NK=4 IS=   90 IE=  100 IFin=   89
          NO(<0.9)=   0  NV(>0.1)=   0     89.00e < EF      0.00e >EF  Err=0.0D+00
 Gap=     0.181 Goal=   None    Shift=    0.500
 T=  543. Gap= 0.681 NK=4 IS=   89 IE=  100 IFin=   88
          NO(<0.9)=   0  NV(>0.1)=   0     88.00e < EF      0.00e >EF  Err=0.0D+00
 GapD=    0.181 DampG=1.000 DampE=1.000 DampFc=1.0000 IDamp=-1.
 RMSDP=9.82D-05 MaxDP=3.83D-03 DE=-5.93D-02 OVMax= 9.12D-03

 Cycle   5  Pass 1  IDiag  1:
 E= -1092.42080892779     Delta-E=       -0.000732717654 Rises=F Damp=F
 DIIS: error= 1.44D-03 at cycle   5 NSaved=   5.
 NSaved= 5 IEnMin= 5 EnMin= -1092.42080892779     IErMin= 5 ErrMin= 1.44D-03
 ErrMax= 1.44D-03  0.00D+00 EMaxC= 1.00D+00 BMatC= 4.22D-04 BMatP= 1.87D-03
 IDIUse=1 WtCom= 1.00D+00 WtEn= 0.00D+00
 Coeff-Com:  0.726D-02 0.629D-01-0.173D+00-0.163D+00 0.127D+01
 Coeff:      0.726D-02 0.629D-01-0.173D+00-0.163D+00 0.127D+01
 Gap=     0.288 Goal=   None    Shift=    0.500
 T=   74. Gap= 0.788 NK=4 IS=   90 IE=  101 IFin=   89
          NO(<0.9)=   0  NV(>0.1)=   0     89.00e < EF      0.00e >EF  Err=0.0D+00
 Gap=     0.183 Goal=   None    Shift=    0.500
 T=   74. Gap= 0.683 NK=4 IS=   89 IE=  100 IFin=   88
          NO(<0.9)=   0  NV(>0.1)=   0     88.00e < EF      0.00e >EF  Err=0.0D+00
 GapD=    0.183 DampG=1.000 DampE=1.000 DampFc=1.0000 IDamp=-1.
 RMSDP=6.78D-05 MaxDP=1.96D-03 DE=-7.33D-04 OVMax= 8.04D-03

 Cycle   6  Pass 1  IDiag  1:
 E= -1092.42114571858     Delta-E=       -0.000336790787 Rises=F Damp=F
 DIIS: error= 1.21D-03 at cycle   6 NSaved=   6.
 NSaved= 6 IEnMin= 6 EnMin= -1092.42114571858     IErMin= 6 ErrMin= 1.21D-03
 ErrMax= 1.21D-03  0.00D+00 EMaxC= 1.00D+00 BMatC= 1.73D-04 BMatP= 4.22D-04
 IDIUse=1 WtCom= 1.00D+00 WtEn= 0.00D+00
 Coeff-Com: -0.206D-01 0.731D-01-0.880D-01-0.324D+00-0.105D+00 0.146D+01
 Coeff:     -0.206D-01 0.731D-01-0.880D-01-0.324D+00-0.105D+00 0.146D+01
 Gap=     0.289 Goal=   None    Shift=    0.500
 Gap=     0.184 Goal=   None    Shift=    0.500
 GapD=    0.184 DampG=1.000 DampE=1.000 DampFc=1.0000 IDamp=-1.
 RMSDP=4.50D-05 MaxDP=1.32D-03 DE=-3.37D-04 OVMax= 7.51D-03

 Cycle   7  Pass 1  IDiag  1:
 E= -1092.42135571289     Delta-E=       -0.000209994315 Rises=F Damp=F
 DIIS: error= 1.01D-03 at cycle   7 NSaved=   7.
 NSaved= 7 IEnMin= 7 EnMin= -1092.42135571289     IErMin= 7 ErrMin= 1.01D-03
 ErrMax= 1.01D-03  0.00D+00 EMaxC= 1.00D+00 BMatC= 9.35D-05 BMatP= 1.73D-04
 IDIUse=1 WtCom= 1.00D+00 WtEn= 0.00D+00
 Coeff-Com: -0.941D-02-0.504D-02 0.432D-01-0.950D-02-0.560D+00-0.315D+00
 Coeff-Com:  0.186D+01
 Coeff:     -0.941D-02-0.504D-02 0.432D-01-0.950D-02-0.560D+00-0.315D+00
 Coeff:      0.186D+01
 Gap=     0.289 Goal=   None    Shift=    0.500
 Gap=     0.186 Goal=   None    Shift=    0.500
 GapD=    0.186 DampG=1.000 DampE=1.000 DampFc=1.0000 IDamp=-1.
 RMSDP=3.29D-05 MaxDP=1.21D-03 DE=-2.10D-04 OVMax= 7.02D-03

 Cycle   8  Pass 1  IDiag  1:
 E= -1092.42149572202     Delta-E=       -0.000140009125 Rises=F Damp=F
 DIIS: error= 8.62D-04 at cycle   8 NSaved=   8.
 NSaved= 8 IEnMin= 8 EnMin= -1092.42149572202     IErMin= 8 ErrMin= 8.62D-04
 ErrMax= 8.62D-04  0.00D+00 EMaxC= 1.00D+00 BMatC= 5.58D-05 BMatP= 9.35D-05
 IDIUse=1 WtCom= 1.00D+00 WtEn= 0.00D+00
 Coeff-Com:  0.445D-02-0.406D-01 0.708D-01 0.147D+00-0.280D+00-0.109D+01
 Coeff-Com:  0.852D+00 0.134D+01
 Coeff:      0.445D-02-0.406D-01 0.708D-01 0.147D+00-0.280D+00-0.109D+01
 Coeff:      0.852D+00 0.134D+01
 Gap=     0.290 Goal=   None    Shift=    0.500
 Gap=     0.187 Goal=   None    Shift=    0.500
 RMSDP=2.29D-05 MaxDP=9.87D-04 DE=-1.40D-04 OVMax= 6.13D-03

 Cycle   9  Pass 1  IDiag  1:
 E= -1092.42158354240     Delta-E=       -0.000087820379 Rises=F Damp=F
 DIIS: error= 6.89D-04 at cycle   9 NSaved=   9.
 NSaved= 9 IEnMin= 9 EnMin= -1092.42158354240     IErMin= 9 ErrMin= 6.89D-04
 ErrMax= 6.89D-04  0.00D+00 EMaxC= 1.00D+00 BMatC= 2.88D-05 BMatP= 5.58D-05
 IDIUse=1 WtCom= 1.00D+00 WtEn= 0.00D+00
 Coeff-Com:  0.600D-02-0.109D-01 0.192D-02 0.131D-01 0.287D+00-0.242D+00
 Coeff-Com: -0.841D+00-0.579D+00 0.237D+01
 Coeff:      0.600D-02-0.109D-01 0.192D-02 0.131D-01 0.287D+00-0.242D+00
 Coeff:     -0.841D+00-0.579D+00 0.237D+01
 Gap=     0.290 Goal=   None    Shift=    0.500
 Gap=     0.188 Goal=   None    Shift=    0.500
 RMSDP=1.78D-05 MaxDP=8.81D-04 DE=-8.78D-05 OVMax= 5.38D-03

 Cycle  10  Pass 1  IDiag  1:
 E= -1092.42163969088     Delta-E=       -0.000056148483 Rises=F Damp=F
 DIIS: error= 5.51D-04 at cycle  10 NSaved=  10.
 NSaved=10 IEnMin=10 EnMin= -1092.42163969088     IErMin=10 ErrMin= 5.51D-04
 ErrMax= 5.51D-04  0.00D+00 EMaxC= 1.00D+00 BMatC= 1.66D-05 BMatP= 2.88D-05
 IDIUse=1 WtCom= 1.00D+00 WtEn= 0.00D+00
 Coeff-Com:  0.109D-02-0.155D-02-0.131D-02-0.723D-01 0.191D+00 0.227D+00
 Coeff-Com: -0.521D+00-0.612D+00-0.146D+00 0.193D+01
 Coeff:      0.109D-02-0.155D-02-0.131D-02-0.723D-01 0.191D+00 0.227D+00
 Coeff:     -0.521D+00-0.612D+00-0.146D+00 0.193D+01
 Gap=     0.290 Goal=   None    Shift=    0.500
 Gap=     0.188 Goal=   None    Shift=    0.500
 RMSDP=1.24D-05 MaxDP=6.28D-04 DE=-5.61D-05 OVMax= 4.11D-03

 Cycle  11  Pass 1  IDiag  1:
 E= -1092.42166951957     Delta-E=       -0.000029828692 Rises=F Damp=F
 DIIS: error= 4.22D-04 at cycle  11 NSaved=  11.
 NSaved=11 IEnMin=11 EnMin= -1092.42166951957     IErMin=11 ErrMin= 4.22D-04
 ErrMax= 4.22D-04  0.00D+00 EMaxC= 1.00D+00 BMatC= 9.69D-06 BMatP= 1.66D-05
 IDIUse=1 WtCom= 1.00D+00 WtEn= 0.00D+00
 Coeff-Com: -0.199D-02-0.404D-02 0.147D-01-0.588D-01-0.781D-01 0.246D+00
 Coeff-Com:  0.278D+00-0.219D-01-0.157D+01-0.814D-01 0.228D+01
 Coeff:     -0.199D-02-0.404D-02 0.147D-01-0.588D-01-0.781D-01 0.246D+00
 Coeff:      0.278D+00-0.219D-01-0.157D+01-0.814D-01 0.228D+01
 Gap=     0.290 Goal=   None    Shift=    0.500
 Gap=     0.188 Goal=   None    Shift=    0.500
 RMSDP=1.02D-05 MaxDP=5.03D-04 DE=-2.98D-05 OVMax= 3.18D-03

 Cycle  12  Pass 1  IDiag  1:
 E= -1092.42168592539     Delta-E=       -0.000016405823 Rises=F Damp=F
 DIIS: error= 3.33D-04 at cycle  12 NSaved=  12.
 NSaved=12 IEnMin=12 EnMin= -1092.42168592539     IErMin=12 ErrMin= 3.33D-04
 ErrMax= 3.33D-04  0.00D+00 EMaxC= 1.00D+00 BMatC= 6.30D-06 BMatP= 9.69D-06
 IDIUse=1 WtCom= 1.00D+00 WtEn= 0.00D+00
 Coeff-Com:  0.111D-02-0.141D-01 0.244D-01 0.870D-02-0.106D+00-0.141D+00
 Coeff-Com:  0.428D+00 0.259D+00-0.468D-01-0.193D+01 0.421D+00 0.210D+01
 Coeff:      0.111D-02-0.141D-01 0.244D-01 0.870D-02-0.106D+00-0.141D+00
 Coeff:      0.428D+00 0.259D+00-0.468D-01-0.193D+01 0.421D+00 0.210D+01
 Gap=     0.290 Goal=   None    Shift=    0.500
 Gap=     0.188 Goal=   None    Shift=    0.500
 RMSDP=7.12D-06 MaxDP=3.58D-04 DE=-1.64D-05 OVMax= 2.42D-03

 Cycle  13  Pass 1  IDiag  1:
 E= -1092.42169431705     Delta-E=       -0.000008391652 Rises=F Damp=F
 DIIS: error= 2.46D-04 at cycle  13 NSaved=  13.
 NSaved=13 IEnMin=13 EnMin= -1092.42169431705     IErMin=13 ErrMin= 2.46D-04
 ErrMax= 2.46D-04  0.00D+00 EMaxC= 1.00D+00 BMatC= 3.50D-06 BMatP= 6.30D-06
 IDIUse=1 WtCom= 1.00D+00 WtEn= 0.00D+00
 Coeff-Com:  0.200D-02-0.808D-02 0.940D-02 0.125D-01 0.345D-01-0.159D+00
 Coeff-Com: -0.320D-01-0.111D-01 0.910D+00-0.740D+00-0.663D+00-0.989D+00
 Coeff-Com:  0.263D+01
 Coeff:      0.200D-02-0.808D-02 0.940D-02 0.125D-01 0.345D-01-0.159D+00
 Coeff:     -0.320D-01-0.111D-01 0.910D+00-0.740D+00-0.663D+00-0.989D+00
 Coeff:      0.263D+01
 Gap=     0.290 Goal=   None    Shift=    0.500
 Gap=     0.188 Goal=   None    Shift=    0.500
 RMSDP=5.05D-06 MaxDP=2.26D-04 DE=-8.39D-06 OVMax= 1.74D-03

 Cycle  14  Pass 1  IDiag  1:
 E= -1092.42169835806     Delta-E=       -0.000004041013 Rises=F Damp=F
 DIIS: error= 1.84D-04 at cycle  14 NSaved=  14.
 NSaved=14 IEnMin=14 EnMin= -1092.42169835806     IErMin=14 ErrMin= 1.84D-04
 ErrMax= 1.84D-04  0.00D+00 EMaxC= 1.00D+00 BMatC= 1.90D-06 BMatP= 3.50D-06
 IDIUse=1 WtCom= 1.00D+00 WtEn= 0.00D+00
 Coeff-Com:  0.790D-03-0.918D-03-0.103D-02-0.690D-02 0.699D-01-0.237D-01
 Coeff-Com: -0.194D+00-0.123D+00 0.474D+00 0.426D+00-0.396D+00-0.176D+01
 Coeff-Com:  0.791D+00 0.175D+01
 Coeff:      0.790D-03-0.918D-03-0.103D-02-0.690D-02 0.699D-01-0.237D-01
 Coeff:     -0.194D+00-0.123D+00 0.474D+00 0.426D+00-0.396D+00-0.176D+01
 Coeff:      0.791D+00 0.175D+01
 Gap=     0.290 Goal=   None    Shift=    0.500
 Gap=     0.188 Goal=   None    Shift=    0.500
 RMSDP=3.35D-06 MaxDP=1.34D-04 DE=-4.04D-06 OVMax= 1.25D-03

 Cycle  15  Pass 1  IDiag  1:
 E= -1092.42170031359     Delta-E=       -0.000001955532 Rises=F Damp=F
 DIIS: error= 1.34D-04 at cycle  15 NSaved=  15.
 NSaved=15 IEnMin=15 EnMin= -1092.42170031359     IErMin=15 ErrMin= 1.34D-04
 ErrMax= 1.34D-04  0.00D+00 EMaxC= 1.00D+00 BMatC= 9.21D-07 BMatP= 1.90D-06
 IDIUse=1 WtCom= 1.00D+00 WtEn= 0.00D+00
 Coeff-Com: -0.539D-03 0.501D-03 0.881D-03-0.107D-01-0.128D-01 0.642D-01
 Coeff-Com:  0.191D-01 0.187D-01-0.461D+00 0.346D+00 0.407D+00 0.193D+00
 Coeff-Com: -0.130D+01-0.102D+01 0.276D+01
 Coeff:     -0.539D-03 0.501D-03 0.881D-03-0.107D-01-0.128D-01 0.642D-01
 Coeff:      0.191D-01 0.187D-01-0.461D+00 0.346D+00 0.407D+00 0.193D+00
 Coeff:     -0.130D+01-0.102D+01 0.276D+01
 Gap=     0.290 Goal=   None    Shift=    0.500
 Gap=     0.188 Goal=   None    Shift=    0.500
 RMSDP=2.43D-06 MaxDP=1.03D-04 DE=-1.96D-06 OVMax= 9.29D-04

 Cycle  16  Pass 1  IDiag  1:
 E= -1092.42170131794     Delta-E=       -0.000001004349 Rises=F Damp=F
 DIIS: error= 1.00D-04 at cycle  16 NSaved=  16.
 NSaved=16 IEnMin=16 EnMin= -1092.42170131794     IErMin=16 ErrMin= 1.00D-04
 ErrMax= 1.00D-04  0.00D+00 EMaxC= 1.00D+00 BMatC= 5.08D-07 BMatP= 9.21D-07
 IDIUse=1 WtCom= 1.00D+00 WtEn= 0.00D+00
 Coeff-Com: -0.129D-03-0.172D-02 0.396D-02-0.468D-02-0.219D-01 0.122D-01
 Coeff-Com:  0.872D-01 0.205D-01-0.235D+00-0.980D-01 0.287D+00 0.475D+00
 Coeff-Com: -0.514D+00-0.993D+00 0.546D-01 0.193D+01
 Coeff:     -0.129D-03-0.172D-02 0.396D-02-0.468D-02-0.219D-01 0.122D-01
 Coeff:      0.872D-01 0.205D-01-0.235D+00-0.980D-01 0.287D+00 0.475D+00
 Coeff:     -0.514D+00-0.993D+00 0.546D-01 0.193D+01
 Gap=     0.290 Goal=   None    Shift=    0.500
 Gap=     0.188 Goal=   None    Shift=    0.500
 RMSDP=1.58D-06 MaxDP=8.00D-05 DE=-1.00D-06 OVMax= 6.76D-04

 Cycle  17  Pass 1  IDiag  1:
 E= -1092.42170184966     Delta-E=       -0.000000531718 Rises=F Damp=F
 DIIS: error= 7.46D-05 at cycle  17 NSaved=  17.
 NSaved=17 IEnMin=17 EnMin= -1092.42170184966     IErMin=17 ErrMin= 7.46D-05
 ErrMax= 7.46D-05  0.00D+00 EMaxC= 1.00D+00 BMatC= 2.77D-07 BMatP= 5.08D-07
 IDIUse=1 WtCom= 1.00D+00 WtEn= 0.00D+00
 Coeff-Com:  0.284D-03-0.214D-02 0.333D-02 0.346D-03-0.514D-02-0.274D-01
 Coeff-Com:  0.521D-01-0.121D-01 0.112D+00-0.261D+00-0.348D-02 0.101D+00
 Coeff-Com:  0.450D+00-0.173D+00-0.150D+01 0.534D+00 0.173D+01
 Coeff:      0.284D-03-0.214D-02 0.333D-02 0.346D-03-0.514D-02-0.274D-01
 Coeff:      0.521D-01-0.121D-01 0.112D+00-0.261D+00-0.348D-02 0.101D+00
 Coeff:      0.450D+00-0.173D+00-0.150D+01 0.534D+00 0.173D+01
 Gap=     0.290 Goal=   None    Shift=    0.500
 Gap=     0.188 Goal=   None    Shift=    0.500
 RMSDP=1.10D-06 MaxDP=6.12D-05 DE=-5.32D-07 OVMax= 5.05D-04

 Cycle  18  Pass 1  IDiag  1:
 E= -1092.42170215598     Delta-E=       -0.000000306321 Rises=F Damp=F
 DIIS: error= 5.50D-05 at cycle  18 NSaved=  18.
 NSaved=18 IEnMin=18 EnMin= -1092.42170215598     IErMin=18 ErrMin= 5.50D-05
 ErrMax= 5.50D-05  0.00D+00 EMaxC= 1.00D+00 BMatC= 1.49D-07 BMatP= 2.77D-07
 IDIUse=1 WtCom= 1.00D+00 WtEn= 0.00D+00
 Coeff-Com:  0.239D-03-0.572D-03 0.287D-03 0.761D-03 0.111D-01-0.148D-01
 Coeff-Com: -0.293D-01-0.186D-01 0.173D+00-0.476D-01-0.133D+00-0.315D+00
 Coeff-Com:  0.546D+00 0.413D+00-0.528D+00-0.134D+01 0.108D+00 0.217D+01
 Coeff:      0.239D-03-0.572D-03 0.287D-03 0.761D-03 0.111D-01-0.148D-01
 Coeff:     -0.293D-01-0.186D-01 0.173D+00-0.476D-01-0.133D+00-0.315D+00
 Coeff:      0.546D+00 0.413D+00-0.528D+00-0.134D+01 0.108D+00 0.217D+01
 Gap=     0.290 Goal=   None    Shift=    0.500
 Gap=     0.188 Goal=   None    Shift=    0.500
 RMSDP=8.82D-07 MaxDP=4.79D-05 DE=-3.06D-07 OVMax= 3.86D-04

 SCF Done:  E(ULC-wHPBE) =  -1092.42170216     A.U. after   18 cycles
            NFock= 18  Conv=0.88D-06     -V/T= 2.0045
 <Sx>= 0.0000 <Sy>= 0.0000 <Sz>= 0.5000 <S**2>= 0.7702 S= 0.5100
 <L.S>= 0.000000000000E+00
 KE= 1.087568802244D+03 PE=-6.636417592593D+03 EE= 2.399749279592D+03
 Annihilation of the first spin contaminant:
 S**2 before annihilation     0.7702,   after     0.7504
 Leave Link  502 at Sat Jan 16 23:53:11 2021, MaxMem=  4026531840 cpu:            8173.6 elap:            1024.5
 (Enter /opt/ohpc/pub/libs/gaussian/g16-A.03/sandybridge/g16/l508.exe)
 QCSCF skips out because SCF is already converged.
 Leave Link  508 at Sat Jan 16 23:53:11 2021, MaxMem=  4026531840 cpu:               0.2 elap:               0.1
 (Enter /opt/ohpc/pub/libs/gaussian/g16-A.03/sandybridge/g16/l601.exe)
 Copying SCF densities to generalized density rwf, IOpCl= 1 IROHF=0.

 **********************************************************************

            Population analysis using the SCF density.

 **********************************************************************

 Orbital symmetries:
 Alpha Orbitals:
       Occupied  (A) (A) (A) (A) (A) (A) (A) (A) (A) (A) (A) (A)
                 (A) (A) (A) (A) (A) (A) (A) (A) (A) (A) (A) (A)
                 (A) (A) (A) (A) (A) (A) (A) (A) (A) (A) (A) (A)
                 (A) (A) (A) (A) (A) (A) (A) (A) (A) (A) (A) (A)
                 (A) (A) (A) (A) (A) (A) (A) (A) (A) (A) (A) (A)
                 (A) (A) (A) (A) (A) (A) (A) (A) (A) (A) (A) (A)
                 (A) (A) (A) (A) (A) (A) (A) (A) (A) (A) (A) (A)
                 (A) (A) (A) (A) (A)
       Virtual   (A) (A) (A) (A) (A) (A) (A) (A) (A) (A) (A) (A)
                 (A) (A) (A) (A) (A) (A) (A) (A) (A) (A) (A) (A)
                 (A) (A) (A) (A) (A) (A) (A) (A) (A) (A) (A) (A)
                 (A) (A) (A) (A) (A) (A) (A) (A) (A) (A) (A) (A)
                 (A) (A) (A) (A) (A) (A) (A) (A) (A) (A) (A) (A)
                 (A) (A) (A) (A) (A) (A) (A) (A) (A) (A) (A) (A)
                 (A) (A) (A) (A) (A) (A) (A) (A) (A) (A) (A) (A)
                 (A) (A) (A) (A) (A) (A) (A) (A) (A) (A) (A) (A)
                 (A) (A) (A) (A) (A) (A) (A) (A) (A) (A) (A) (A)
                 (A) (A) (A) (A) (A) (A) (A) (A) (A) (A) (A) (A)
                 (A) (A) (A) (A) (A) (A) (A) (A) (A) (A) (A) (A)
                 (A) (A) (A) (A) (A) (A) (A) (A) (A) (A) (A) (A)
                 (A) (A) (A) (A) (A) (A) (A) (A) (A) (A) (A) (A)
                 (A) (A) (A) (A) (A) (A) (A) (A) (A) (A) (A) (A)
                 (A) (A) (A) (A) (A) (A) (A) (A) (A) (A) (A) (A)
                 (A) (A) (A) (A) (A) (A) (A) (A) (A) (A) (A) (A)
                 (A) (A) (A) (A) (A) (A) (A) (A) (A) (A) (A) (A)
                 (A) (A) (A) (A) (A) (A) (A) (A) (A) (A) (A) (A)
                 (A) (A) (A) (A) (A) (A) (A) (A) (A) (A) (A) (A)
                 (A) (A) (A) (A) (A) (A) (A) (A) (A) (A) (A) (A)
                 (A) (A) (A) (A) (A) (A) (A) (A) (A) (A) (A) (A)
                 (A) (A) (A) (A) (A) (A) (A) (A) (A) (A) (A) (A)
                 (A) (A) (A) (A) (A) (A) (A) (A) (A) (A) (A) (A)
                 (A) (A) (A) (A) (A) (A) (A) (A) (A) (A) (A) (A)
                 (A) (A) (A) (A) (A) (A) (A) (A) (A) (A) (A) (A)
                 (A) (A) (A) (A) (A) (A) (A) (A) (A) (A) (A) (A)
                 (A) (A) (A) (A) (A) (A) (A) (A) (A) (A) (A) (A)
                 (A) (A) (A) (A) (A) (A) (A) (A) (A) (A) (A) (A)
                 (A) (A) (A) (A) (A) (A) (A) (A) (A) (A) (A) (A)
                 (A) (A) (A) (A) (A) (A) (A) (A) (A) (A) (A) (A)
                 (A) (A) (A) (A) (A) (A) (A) (A) (A) (A) (A) (A)
                 (A) (A) (A) (A) (A) (A) (A) (A) (A) (A) (A) (A)
                 (A) (A) (A) (A) (A) (A) (A) (A) (A) (A) (A) (A)
                 (A) (A) (A) (A) (A) (A) (A) (A) (A) (A) (A) (A)
                 (A) (A) (A) (A) (A) (A) (A) (A) (A) (A) (A) (A)
                 (A) (A) (A) (A) (A) (A) (A) (A) (A) (A) (A) (A)
                 (A) (A) (A) (A) (A) (A) (A) (A) (A) (A) (A) (A)
                 (A) (A) (A) (A) (A) (A) (A) (A) (A) (A) (A) (A)
                 (A) (A) (A) (A) (A) (A) (A) (A) (A) (A) (A) (A)
                 (A) (A) (A) (A) (A) (A) (A) (A) (A) (A) (A) (A)
                 (A) (A) (A) (A) (A) (A) (A) (A) (A) (A) (A) (A)
                 (A) (A) (A) (A) (A) (A) (A) (A) (A) (A) (A) (A)
                 (A) (A) (A) (A) (A) (A) (A) (A)
 Beta  Orbitals:
       Occupied  (A) (A) (A) (A) (A) (A) (A) (A) (A) (A) (A) (A)
                 (A) (A) (A) (A) (A) (A) (A) (A) (A) (A) (A) (A)
                 (A) (A) (A) (A) (A) (A) (A) (A) (A) (A) (A) (A)
                 (A) (A) (A) (A) (A) (A) (A) (A) (A) (A) (A) (A)
                 (A) (A) (A) (A) (A) (A) (A) (A) (A) (A) (A) (A)
                 (A) (A) (A) (A) (A) (A) (A) (A) (A) (A) (A) (A)
                 (A) (A) (A) (A) (A) (A) (A) (A) (A) (A) (A) (A)
                 (A) (A) (A) (A)
       Virtual   (A) (A) (A) (A) (A) (A) (A) (A) (A) (A) (A) (A)
                 (A) (A) (A) (A) (A) (A) (A) (A) (A) (A) (A) (A)
                 (A) (A) (A) (A) (A) (A) (A) (A) (A) (A) (A) (A)
                 (A) (A) (A) (A) (A) (A) (A) (A) (A) (A) (A) (A)
                 (A) (A) (A) (A) (A) (A) (A) (A) (A) (A) (A) (A)
                 (A) (A) (A) (A) (A) (A) (A) (A) (A) (A) (A) (A)
                 (A) (A) (A) (A) (A) (A) (A) (A) (A) (A) (A) (A)
                 (A) (A) (A) (A) (A) (A) (A) (A) (A) (A) (A) (A)
                 (A) (A) (A) (A) (A) (A) (A) (A) (A) (A) (A) (A)
                 (A) (A) (A) (A) (A) (A) (A) (A) (A) (A) (A) (A)
                 (A) (A) (A) (A) (A) (A) (A) (A) (A) (A) (A) (A)
                 (A) (A) (A) (A) (A) (A) (A) (A) (A) (A) (A) (A)
                 (A) (A) (A) (A) (A) (A) (A) (A) (A) (A) (A) (A)
                 (A) (A) (A) (A) (A) (A) (A) (A) (A) (A) (A) (A)
                 (A) (A) (A) (A) (A) (A) (A) (A) (A) (A) (A) (A)
                 (A) (A) (A) (A) (A) (A) (A) (A) (A) (A) (A) (A)
                 (A) (A) (A) (A) (A) (A) (A) (A) (A) (A) (A) (A)
                 (A) (A) (A) (A) (A) (A) (A) (A) (A) (A) (A) (A)
                 (A) (A) (A) (A) (A) (A) (A) (A) (A) (A) (A) (A)
                 (A) (A) (A) (A) (A) (A) (A) (A) (A) (A) (A) (A)
                 (A) (A) (A) (A) (A) (A) (A) (A) (A) (A) (A) (A)
                 (A) (A) (A) (A) (A) (A) (A) (A) (A) (A) (A) (A)
                 (A) (A) (A) (A) (A) (A) (A) (A) (A) (A) (A) (A)
                 (A) (A) (A) (A) (A) (A) (A) (A) (A) (A) (A) (A)
                 (A) (A) (A) (A) (A) (A) (A) (A) (A) (A) (A) (A)
                 (A) (A) (A) (A) (A) (A) (A) (A) (A) (A) (A) (A)
                 (A) (A) (A) (A) (A) (A) (A) (A) (A) (A) (A) (A)
                 (A) (A) (A) (A) (A) (A) (A) (A) (A) (A) (A) (A)
                 (A) (A) (A) (A) (A) (A) (A) (A) (A) (A) (A) (A)
                 (A) (A) (A) (A) (A) (A) (A) (A) (A) (A) (A) (A)
                 (A) (A) (A) (A) (A) (A) (A) (A) (A) (A) (A) (A)
                 (A) (A) (A) (A) (A) (A) (A) (A) (A) (A) (A) (A)
                 (A) (A) (A) (A) (A) (A) (A) (A) (A) (A) (A) (A)
                 (A) (A) (A) (A) (A) (A) (A) (A) (A) (A) (A) (A)
                 (A) (A) (A) (A) (A) (A) (A) (A) (A) (A) (A) (A)
                 (A) (A) (A) (A) (A) (A) (A) (A) (A) (A) (A) (A)
                 (A) (A) (A) (A) (A) (A) (A) (A) (A) (A) (A) (A)
                 (A) (A) (A) (A) (A) (A) (A) (A) (A) (A) (A) (A)
                 (A) (A) (A) (A) (A) (A) (A) (A) (A) (A) (A) (A)
                 (A) (A) (A) (A) (A) (A) (A) (A) (A) (A) (A) (A)
                 (A) (A) (A) (A) (A) (A) (A) (A) (A) (A) (A) (A)
                 (A) (A) (A) (A) (A) (A) (A) (A) (A) (A) (A) (A)
                 (A) (A) (A) (A) (A) (A) (A) (A) (A)
 The electronic state is 2-A.
 Alpha  occ. eigenvalues --  -19.02621 -19.02600 -19.02598 -14.33313 -10.20017
 Alpha  occ. eigenvalues --  -10.19994 -10.19984 -10.18659 -10.18655 -10.18645
 Alpha  occ. eigenvalues --  -10.15799 -10.15756 -10.15718 -10.15139 -10.15109
 Alpha  occ. eigenvalues --  -10.15100 -10.14769 -10.14746 -10.14720 -10.13818
 Alpha  occ. eigenvalues --  -10.13782 -10.13772 -10.13400 -10.13379 -10.13353
 Alpha  occ. eigenvalues --   -1.22783  -1.22755  -1.22744  -1.18187  -1.05151
 Alpha  occ. eigenvalues --   -1.05140  -1.03093  -0.95957  -0.95800  -0.94196
 Alpha  occ. eigenvalues --   -0.94040  -0.93750  -0.91866  -0.88321  -0.87831
 Alpha  occ. eigenvalues --   -0.85723  -0.82631  -0.81447  -0.80821  -0.79467
 Alpha  occ. eigenvalues --   -0.78673  -0.76409  -0.74489  -0.74452  -0.71930
 Alpha  occ. eigenvalues --   -0.70787  -0.70760  -0.69696  -0.67478  -0.67279
 Alpha  occ. eigenvalues --   -0.64916  -0.64894  -0.64841  -0.64157  -0.64108
 Alpha  occ. eigenvalues --   -0.64032  -0.62084  -0.61909  -0.61894  -0.61585
 Alpha  occ. eigenvalues --   -0.61068  -0.59761  -0.59749  -0.58843  -0.58719
 Alpha  occ. eigenvalues --   -0.58459  -0.58412  -0.58340  -0.56119  -0.54760
 Alpha  occ. eigenvalues --   -0.54702  -0.53976  -0.52232  -0.52123  -0.51000
 Alpha  occ. eigenvalues --   -0.50890  -0.50865  -0.48471  -0.46987  -0.46025
 Alpha  occ. eigenvalues --   -0.45831  -0.42755  -0.42614  -0.38588
 Alpha virt. eigenvalues --   -0.09565  -0.08302  -0.08197  -0.07267  -0.07121
 Alpha virt. eigenvalues --   -0.03866  -0.00240   0.01164   0.01292   0.01982
 Alpha virt. eigenvalues --    0.02180   0.02778   0.03764   0.03890   0.04184
 Alpha virt. eigenvalues --    0.04399   0.05289   0.05366   0.05563   0.07335
 Alpha virt. eigenvalues --    0.07718   0.07941   0.07985   0.08281   0.08711
 Alpha virt. eigenvalues --    0.08802   0.08934   0.08985   0.09165   0.09354
 Alpha virt. eigenvalues --    0.09481   0.09829   0.10449   0.10685   0.12990
 Alpha virt. eigenvalues --    0.13483   0.13639   0.14359   0.14852   0.15251
 Alpha virt. eigenvalues --    0.15858   0.15938   0.16202   0.16652   0.17006
 Alpha virt. eigenvalues --    0.17329   0.17390   0.17687   0.18245   0.18663
 Alpha virt. eigenvalues --    0.18855   0.19208   0.19433   0.19551   0.19853
 Alpha virt. eigenvalues --    0.21106   0.21262   0.21664   0.22710   0.22951
 Alpha virt. eigenvalues --    0.23745   0.23894   0.23977   0.24357   0.24796
 Alpha virt. eigenvalues --    0.24961   0.25908   0.26262   0.26359   0.27070
 Alpha virt. eigenvalues --    0.27756   0.27861   0.28121   0.29162   0.29597
 Alpha virt. eigenvalues --    0.30148   0.30321   0.30714   0.30893   0.31646
 Alpha virt. eigenvalues --    0.32312   0.32598   0.33123   0.33447   0.33537
 Alpha virt. eigenvalues --    0.33729   0.34134   0.34335   0.34668   0.35136
 Alpha virt. eigenvalues --    0.35346   0.35639   0.36262   0.36865   0.37177
 Alpha virt. eigenvalues --    0.37335   0.37674   0.37750   0.38222   0.38469
 Alpha virt. eigenvalues --    0.39120   0.39352   0.39576   0.40020   0.40992
 Alpha virt. eigenvalues --    0.41335   0.41633   0.41955   0.41997   0.42223
 Alpha virt. eigenvalues --    0.42368   0.42438   0.42959   0.43165   0.43468
 Alpha virt. eigenvalues --    0.43984   0.44010   0.44324   0.44433   0.45287
 Alpha virt. eigenvalues --    0.45583   0.45964   0.46179   0.46868   0.48326
 Alpha virt. eigenvalues --    0.49036   0.49639   0.49720   0.50163   0.50226
 Alpha virt. eigenvalues --    0.51796   0.52826   0.54238   0.55326   0.55398
 Alpha virt. eigenvalues --    0.56339   0.57404   0.58061   0.58294   0.58543
 Alpha virt. eigenvalues --    0.59086   0.59405   0.60164   0.60427   0.60920
 Alpha virt. eigenvalues --    0.62288   0.62353   0.62948   0.63743   0.64339
 Alpha virt. eigenvalues --    0.65150   0.65782   0.66001   0.66403   0.67005
 Alpha virt. eigenvalues --    0.67412   0.68043   0.68161   0.69396   0.69646
 Alpha virt. eigenvalues --    0.69991   0.72256   0.73506   0.73797   0.74436
 Alpha virt. eigenvalues --    0.75935   0.76616   0.78255   0.78905   0.80416
 Alpha virt. eigenvalues --    0.81794   0.82877   0.85680   0.86820   0.87012
 Alpha virt. eigenvalues --    0.87956   0.88256   0.89075   1.06500   1.08672
 Alpha virt. eigenvalues --    1.09018   1.12980   1.13436   1.14174   1.15611
 Alpha virt. eigenvalues --    1.15813   1.15977   1.16667   1.17225   1.17888
 Alpha virt. eigenvalues --    1.18202   1.18606   1.18936   1.19881   1.20230
 Alpha virt. eigenvalues --    1.21582   1.21760   1.22020   1.22474   1.22841
 Alpha virt. eigenvalues --    1.23135   1.23481   1.24152   1.24319   1.24876
 Alpha virt. eigenvalues --    1.25115   1.26419   1.26955   1.27504   1.28015
 Alpha virt. eigenvalues --    1.28570   1.28813   1.30734   1.31103   1.31393
 Alpha virt. eigenvalues --    1.32175   1.32455   1.32635   1.34051   1.34434
 Alpha virt. eigenvalues --    1.34502   1.35278   1.35540   1.35799   1.35897
 Alpha virt. eigenvalues --    1.36258   1.37170   1.37506   1.37818   1.38162
 Alpha virt. eigenvalues --    1.38386   1.39043   1.39560   1.39778   1.40440
 Alpha virt. eigenvalues --    1.40739   1.41436   1.41832   1.42332   1.43759
 Alpha virt. eigenvalues --    1.44092   1.44206   1.44366   1.44882   1.45199
 Alpha virt. eigenvalues --    1.45294   1.45516   1.46080   1.46567   1.47070
 Alpha virt. eigenvalues --    1.47660   1.47932   1.48216   1.48236   1.48794
 Alpha virt. eigenvalues --    1.49117   1.49255   1.49322   1.50681   1.50875
 Alpha virt. eigenvalues --    1.51710   1.53081   1.53469   1.54061   1.54653
 Alpha virt. eigenvalues --    1.56602   1.57371   1.57662   1.59457   1.59563
 Alpha virt. eigenvalues --    1.59904   1.61096   1.61309   1.61866   1.64743
 Alpha virt. eigenvalues --    1.65556   1.68052   1.68137   1.69039   1.69893
 Alpha virt. eigenvalues --    1.70216   1.70275   1.70359   1.70884   1.71386
 Alpha virt. eigenvalues --    1.71897   1.73069   1.73287   1.73557   1.73628
 Alpha virt. eigenvalues --    1.73723   1.73742   1.74119   1.74474   1.74970
 Alpha virt. eigenvalues --    1.75305   1.75675   1.75814   1.77110   1.78693
 Alpha virt. eigenvalues --    1.79281   1.79882   1.80671   1.80973   1.81756
 Alpha virt. eigenvalues --    1.83253   1.83455   1.83827   1.84089   1.84610
 Alpha virt. eigenvalues --    1.84711   1.84964   1.85152   1.85252   1.85352
 Alpha virt. eigenvalues --    1.85760   1.86865   1.91868   1.92223   1.92616
 Alpha virt. eigenvalues --    1.95035   1.95128   1.95981   1.97638   1.97893
 Alpha virt. eigenvalues --    1.98529   2.01044   2.01787   2.02607   2.03871
 Alpha virt. eigenvalues --    2.04997   2.05987   2.07006   2.07886   2.10193
 Alpha virt. eigenvalues --    2.10325   2.11131   2.12112   2.12775   2.13101
 Alpha virt. eigenvalues --    2.13985   2.14558   2.14622   2.16882   2.21000
 Alpha virt. eigenvalues --    2.21093   2.21269   2.21403   2.21456   2.22062
 Alpha virt. eigenvalues --    2.22428   2.22897   2.24272   2.24746   2.25957
 Alpha virt. eigenvalues --    2.26086   2.26777   2.26951   2.27674   2.28843
 Alpha virt. eigenvalues --    2.28901   2.29252   2.29289   2.29392   2.29622
 Alpha virt. eigenvalues --    2.29869   2.29959   2.30236   2.31698   2.31774
 Alpha virt. eigenvalues --    2.31998   2.34236   2.34384   2.38449   2.38772
 Alpha virt. eigenvalues --    2.38987   2.40731   2.41914   2.42187   2.42372
 Alpha virt. eigenvalues --    2.46460   2.46612   2.50046   2.50116   2.50281
 Alpha virt. eigenvalues --    2.50542   2.50671   2.51713   2.52300   2.52728
 Alpha virt. eigenvalues --    2.52993   2.54769   2.55013   2.55584   2.55878
 Alpha virt. eigenvalues --    2.57814   2.58287   2.63421   2.63595   2.63761
 Alpha virt. eigenvalues --    2.63956   2.64410   2.64652   2.65812   2.66032
 Alpha virt. eigenvalues --    2.66599   2.67059   2.67563   2.68027   2.69508
 Alpha virt. eigenvalues --    2.69930   2.70885   2.73041   2.74745   2.75526
 Alpha virt. eigenvalues --    2.78658   2.79278   2.80120   2.80594   2.84631
 Alpha virt. eigenvalues --    2.85046   2.86924   2.86981   2.87206   2.91529
 Alpha virt. eigenvalues --    2.91790   2.91847   2.92245   2.93187   2.95431
 Alpha virt. eigenvalues --    2.96159   2.96459   2.96813   2.97491   2.99019
 Alpha virt. eigenvalues --    2.99062   2.99069   2.99211   2.99851   3.00020
 Alpha virt. eigenvalues --    3.01810   3.02283   3.04459   3.05735   3.06450
 Alpha virt. eigenvalues --    3.06862   3.08458   3.08857   3.10772   3.12122
 Alpha virt. eigenvalues --    3.13082   3.16982   3.17794   3.18331   3.19585
 Alpha virt. eigenvalues --    3.19962   3.20308   3.20501   3.22225   3.22266
 Alpha virt. eigenvalues --    3.22302   3.22542   3.23376   3.24199   3.27221
 Alpha virt. eigenvalues --    3.27861   3.29045   3.29526   3.30648   3.33894
 Alpha virt. eigenvalues --    3.34728   3.35381   3.35833   3.45276   3.45683
 Alpha virt. eigenvalues --    3.47011   3.48926   3.49298   3.61000   3.73985
 Alpha virt. eigenvalues --    3.74343   3.88597   3.88872   3.89043   4.08439
 Alpha virt. eigenvalues --    4.09031   4.09120  21.15079  21.16830  21.17011
 Alpha virt. eigenvalues --   21.59537  21.62995  21.63376  21.67629  21.73960
 Alpha virt. eigenvalues --   21.74056  21.74153  21.75871  21.76790  21.81893
 Alpha virt. eigenvalues --   21.86393  21.87150  21.88008  21.91845  21.93370
 Alpha virt. eigenvalues --   21.98910  22.05918  22.06662  31.90246  43.25279
 Alpha virt. eigenvalues --   43.25361  43.25370
  Beta  occ. eigenvalues --  -19.02515 -19.02488 -19.02486 -14.32496 -10.19884
  Beta  occ. eigenvalues --  -10.19858 -10.19844 -10.18694 -10.18690 -10.18680
  Beta  occ. eigenvalues --  -10.15803 -10.15761 -10.15723 -10.15001 -10.14969
  Beta  occ. eigenvalues --  -10.14957 -10.14663 -10.14639 -10.14611 -10.13857
  Beta  occ. eigenvalues --  -10.13824 -10.13812 -10.13442 -10.13419 -10.13396
  Beta  occ. eigenvalues --   -1.22600  -1.22566  -1.22548  -1.17162  -1.04949
  Beta  occ. eigenvalues --   -1.04930  -1.02794  -0.95751  -0.95595  -0.94073
  Beta  occ. eigenvalues --   -0.93911  -0.93623  -0.91506  -0.88259  -0.87777
  Beta  occ. eigenvalues --   -0.85463  -0.82410  -0.81245  -0.80633  -0.79255
  Beta  occ. eigenvalues --   -0.78510  -0.76277  -0.74349  -0.74307  -0.71821
  Beta  occ. eigenvalues --   -0.70652  -0.70616  -0.69139  -0.67379  -0.67171
  Beta  occ. eigenvalues --   -0.64645  -0.64615  -0.64556  -0.64039  -0.63995
  Beta  occ. eigenvalues --   -0.63936  -0.61965  -0.61826  -0.61814  -0.60981
  Beta  occ. eigenvalues --   -0.60945  -0.59707  -0.59698  -0.58621  -0.58390
  Beta  occ. eigenvalues --   -0.58174  -0.58140  -0.58118  -0.55463  -0.54642
  Beta  occ. eigenvalues --   -0.54593  -0.53437  -0.51564  -0.51445  -0.50878
  Beta  occ. eigenvalues --   -0.50804  -0.50778  -0.46723  -0.46341  -0.45748
  Beta  occ. eigenvalues --   -0.45515  -0.41269  -0.41042
  Beta virt. eigenvalues --   -0.22199  -0.09160  -0.07618  -0.07470  -0.06695
  Beta virt. eigenvalues --   -0.06493  -0.02528  -0.00169   0.01224   0.01343
  Beta virt. eigenvalues --    0.02046   0.02234   0.02813   0.03809   0.03957
  Beta virt. eigenvalues --    0.04234   0.04454   0.05356   0.05440   0.05706
  Beta virt. eigenvalues --    0.07419   0.07908   0.08009   0.08233   0.08453
  Beta virt. eigenvalues --    0.08752   0.08856   0.08990   0.09090   0.09214
  Beta virt. eigenvalues --    0.09406   0.09558   0.09864   0.10705   0.10887
  Beta virt. eigenvalues --    0.13239   0.13580   0.13740   0.14501   0.14956
  Beta virt. eigenvalues --    0.15336   0.15983   0.16066   0.16279   0.16742
  Beta virt. eigenvalues --    0.17151   0.17451   0.17536   0.17833   0.18352
  Beta virt. eigenvalues --    0.18718   0.18946   0.19314   0.19598   0.19670
  Beta virt. eigenvalues --    0.19980   0.21173   0.21335   0.21784   0.22786
  Beta virt. eigenvalues --    0.23025   0.23805   0.24002   0.24047   0.24532
  Beta virt. eigenvalues --    0.24892   0.25054   0.25971   0.26434   0.26510
  Beta virt. eigenvalues --    0.27220   0.27837   0.27942   0.28244   0.29303
  Beta virt. eigenvalues --    0.29730   0.30287   0.30454   0.30824   0.31025
  Beta virt. eigenvalues --    0.31770   0.32471   0.32693   0.33226   0.33579
  Beta virt. eigenvalues --    0.33659   0.33894   0.34301   0.34456   0.34821
  Beta virt. eigenvalues --    0.35203   0.35451   0.35763   0.36356   0.36986
  Beta virt. eigenvalues --    0.37263   0.37423   0.37712   0.37870   0.38267
  Beta virt. eigenvalues --    0.38512   0.39184   0.39412   0.39632   0.40089
  Beta virt. eigenvalues --    0.41068   0.41410   0.41728   0.42044   0.42069
  Beta virt. eigenvalues --    0.42293   0.42472   0.42505   0.43032   0.43241
  Beta virt. eigenvalues --    0.43549   0.44074   0.44087   0.44434   0.44555
  Beta virt. eigenvalues --    0.45358   0.45664   0.46049   0.46290   0.46985
  Beta virt. eigenvalues --    0.48428   0.49129   0.49746   0.49826   0.50277
  Beta virt. eigenvalues --    0.50350   0.51982   0.52962   0.54328   0.55437
  Beta virt. eigenvalues --    0.55493   0.56451   0.57488   0.58213   0.58403
  Beta virt. eigenvalues --    0.58682   0.59214   0.59569   0.60250   0.60527
  Beta virt. eigenvalues --    0.60985   0.62341   0.62415   0.63039   0.63845
  Beta virt. eigenvalues --    0.64441   0.65297   0.65935   0.66145   0.66481
  Beta virt. eigenvalues --    0.67106   0.67559   0.68109   0.68292   0.69485
  Beta virt. eigenvalues --    0.69764   0.70088   0.72375   0.73574   0.73894
  Beta virt. eigenvalues --    0.74682   0.75999   0.76683   0.78694   0.79046
  Beta virt. eigenvalues --    0.80664   0.81990   0.82941   0.85775   0.86906
  Beta virt. eigenvalues --    0.87089   0.88065   0.88349   0.89377   1.06606
  Beta virt. eigenvalues --    1.08763   1.09104   1.13050   1.13506   1.14232
  Beta virt. eigenvalues --    1.15746   1.15971   1.16122   1.16771   1.17334
  Beta virt. eigenvalues --    1.18020   1.18346   1.18772   1.19103   1.20012
  Beta virt. eigenvalues --    1.20355   1.21664   1.21876   1.22086   1.22527
  Beta virt. eigenvalues --    1.22924   1.23214   1.23574   1.24234   1.24407
  Beta virt. eigenvalues --    1.25010   1.25214   1.26622   1.27144   1.27661
  Beta virt. eigenvalues --    1.28072   1.28604   1.28831   1.30763   1.31146
  Beta virt. eigenvalues --    1.31435   1.32367   1.32650   1.32887   1.34273
  Beta virt. eigenvalues --    1.34589   1.34655   1.35456   1.35692   1.36023
  Beta virt. eigenvalues --    1.36074   1.36445   1.37331   1.37588   1.37849
  Beta virt. eigenvalues --    1.38197   1.38431   1.39100   1.39672   1.39937
  Beta virt. eigenvalues --    1.40587   1.40848   1.41702   1.42084   1.42530
  Beta virt. eigenvalues --    1.43984   1.44219   1.44422   1.44648   1.45201
  Beta virt. eigenvalues --    1.45416   1.45531   1.45719   1.46164   1.46697
  Beta virt. eigenvalues --    1.47164   1.47829   1.48059   1.48326   1.48388
  Beta virt. eigenvalues --    1.48919   1.49226   1.49482   1.49547   1.50867
  Beta virt. eigenvalues --    1.51051   1.51893   1.53253   1.53617   1.54175
  Beta virt. eigenvalues --    1.54762   1.56712   1.57504   1.57784   1.59636
  Beta virt. eigenvalues --    1.59736   1.60034   1.61241   1.61435   1.61963
  Beta virt. eigenvalues --    1.64850   1.65679   1.68287   1.68400   1.69253
  Beta virt. eigenvalues --    1.70133   1.70290   1.70347   1.70433   1.70928
  Beta virt. eigenvalues --    1.71484   1.72021   1.73187   1.73377   1.73608
  Beta virt. eigenvalues --    1.73703   1.73790   1.73803   1.74191   1.74555
  Beta virt. eigenvalues --    1.75014   1.75620   1.75758   1.75872   1.77323
  Beta virt. eigenvalues --    1.78860   1.79448   1.80064   1.80779   1.81117
  Beta virt. eigenvalues --    1.82042   1.83392   1.83590   1.83898   1.84240
  Beta virt. eigenvalues --    1.84758   1.84872   1.85095   1.85357   1.85406
  Beta virt. eigenvalues --    1.85482   1.85854   1.87101   1.92120   1.92413
  Beta virt. eigenvalues --    1.92775   1.95225   1.95323   1.96270   1.97796
  Beta virt. eigenvalues --    1.98039   1.98787   2.01178   2.01950   2.02735
  Beta virt. eigenvalues --    2.04116   2.05253   2.06165   2.07255   2.08121
  Beta virt. eigenvalues --    2.10592   2.10695   2.11564   2.12480   2.12845
  Beta virt. eigenvalues --    2.13174   2.14075   2.14684   2.14785   2.17100
  Beta virt. eigenvalues --    2.21196   2.21289   2.21511   2.21618   2.21676
  Beta virt. eigenvalues --    2.22250   2.22628   2.23078   2.24455   2.25077
  Beta virt. eigenvalues --    2.26191   2.26332   2.27019   2.27164   2.27888
  Beta virt. eigenvalues --    2.28999   2.29046   2.29359   2.29398   2.29533
  Beta virt. eigenvalues --    2.29870   2.30047   2.30339   2.30417   2.31793
  Beta virt. eigenvalues --    2.31891   2.32108   2.34641   2.34786   2.38755
[...]
     3   Atom        0.068116     -0.054896     -0.013220
     4   Atom        0.041065     -0.026526     -0.014539
     5   Atom       -0.002061      0.012905     -0.010843
     6   Atom       -0.006320      0.017931     -0.011611
     7   Atom        0.009941     -0.048450      0.038509
     8   Atom        0.001055     -0.002303      0.001248
     9   Atom        0.001320     -0.002035      0.000715
    10   Atom       -0.001002      0.001315     -0.000312
    11   Atom       -0.000603      0.000856     -0.000252
    12   Atom       -0.002277     -0.008421      0.010698
    13   Atom        0.009863     -0.007338     -0.002525
    14   Atom       -0.017996      0.028143     -0.010147
    15   Atom        0.011768      0.001169     -0.012937
    16   Atom        0.005220      0.008815     -0.014035
    17   Atom       -0.031999     -0.016271      0.048270
    18   Atom       -0.001387      0.000576      0.000811
    19   Atom        0.000531     -0.000535      0.000004
    20   Atom        0.000229      0.000298     -0.000527
    21   Atom        0.000834     -0.000435     -0.000398
    22   Atom       -0.045976     -0.023031      0.069007
    23   Atom        0.002460     -0.001464     -0.000997
    24   Atom        0.002069     -0.000867     -0.001202
    25   Atom        0.000660     -0.000849      0.000189
    26   Atom        0.001493     -0.000456     -0.001037
    27   Atom        0.038038     -0.090140      0.052103
    28   Atom        0.000145      0.000513     -0.000658
    29   Atom        0.001043      0.000044     -0.001086
    30   Atom       -0.000662      0.000303      0.000359
    31   Atom       -0.000376      0.001323     -0.000947
    32   Atom        0.006743     -0.016497      0.009754
    33   Atom       -0.039560      0.029932      0.009628
    34   Atom       -0.043660      0.041509      0.002150
    35   Atom        0.016879     -0.000460     -0.016418
    36   Atom        0.014921      0.002864     -0.017785
    37   Atom       -0.052999     -0.011082      0.064081
    38   Atom       -0.003289      0.003469     -0.000181
    39   Atom       -0.001435      0.002053     -0.000618
    40   Atom        0.001121     -0.000334     -0.000788
    41   Atom        0.001350     -0.000622     -0.000729
    42   Atom       -0.095685     -0.002626      0.098311
    43   Atom        0.002346     -0.001151     -0.001195
    44   Atom        0.001491     -0.000193     -0.001298
    45   Atom        0.000948     -0.001153      0.000205
    46   Atom        0.002224     -0.001202     -0.001021
 --------------------------------------------------------
                        XY            XZ            YZ
 --------------------------------------------------------
     1   Atom       -0.002241      0.054418     -0.061802
     2   Atom        0.005645     -0.000833     -0.002626
     3   Atom       -0.012331      0.071523     -0.010844
     4   Atom       -0.037383      0.048242     -0.017746
     5   Atom        0.008749     -0.018053      0.009311
     6   Atom        0.002550     -0.022840      0.002398
     7   Atom       -0.017133      0.082197     -0.021399
     8   Atom       -0.001948     -0.004987      0.002929
     9   Atom       -0.000503     -0.005021      0.000479
    10   Atom        0.000486     -0.001590      0.000655
    11   Atom        0.000952     -0.001809      0.000018
    12   Atom       -0.013849     -0.000227      0.002713
    13   Atom        0.057176     -0.057297     -0.054363
    14   Atom        0.043163     -0.030452     -0.044763
    15   Atom       -0.009707      0.009641      0.019242
    16   Atom       -0.010287      0.016067      0.013924
    17   Atom        0.029229     -0.053025     -0.066374
    18   Atom        0.002751      0.002771      0.005042
    19   Atom        0.001900      0.004176      0.002910
    20   Atom       -0.001191      0.000890      0.001539
    21   Atom       -0.000889      0.001496      0.001161
    22   Atom        0.065413     -0.094594     -0.118202
    23   Atom       -0.000905      0.002348      0.000365
    24   Atom       -0.000013      0.000649      0.000194
    25   Atom       -0.000815      0.001500     -0.000376
    26   Atom       -0.001364      0.000505     -0.000317
    27   Atom       -0.033322      0.142806     -0.038357
    28   Atom        0.001986     -0.002246     -0.001115
    29   Atom        0.001311     -0.000808     -0.000302
    30   Atom        0.000903     -0.000995     -0.001182
    31   Atom        0.001360     -0.000320     -0.000682
    32   Atom        0.007994      0.003956     -0.003500
    33   Atom       -0.040843     -0.031784      0.077809
    34   Atom       -0.008630     -0.009473      0.060656
    35   Atom        0.001628      0.000400     -0.019449
    36   Atom        0.007146      0.009572     -0.019622
    37   Atom       -0.011987     -0.022367      0.079995
    38   Atom       -0.000512     -0.000299     -0.005754
    39   Atom       -0.001689      0.002281     -0.004413
    40   Atom        0.000698      0.000253     -0.001848
    41   Atom       -0.000086      0.000919     -0.001722
    42   Atom       -0.031206     -0.040038      0.145922
    43   Atom       -0.001240      0.001970     -0.001500
    44   Atom       -0.001260      0.000455     -0.000424
    45   Atom       -0.000272      0.001556     -0.000498
    46   Atom       -0.000056      0.000698      0.000038
 --------------------------------------------------------


 ---------------------------------------------------------------------------------
              Anisotropic Spin Dipole Couplings in Principal Axis System
 ---------------------------------------------------------------------------------

       Atom             a.u.   MegaHertz   Gauss  10(-4) cm-1        Axes

              Baa    -0.5023   -19.371    -6.912    -6.461  0.0010  0.9992  0.0411
     1 N(14)  Bbb    -0.5015   -19.343    -6.902    -6.452  0.9993  0.0005 -0.0362
              Bcc     1.0038    38.714    13.814    12.913  0.0362 -0.0411  0.9985
 
              Baa    -0.0192    -2.573    -0.918    -0.858  0.9789 -0.2042  0.0095
     2 C(13)  Bbb     0.0068     0.909     0.324     0.303  0.1541  0.7679  0.6218
              Bcc     0.0124     1.664     0.594     0.555 -0.1343 -0.6072  0.7831
 
              Baa    -0.0589    -7.904    -2.820    -2.637 -0.2430  0.7869  0.5672
     3 C(13)  Bbb    -0.0524    -7.029    -2.508    -2.345 -0.4498 -0.6095  0.6528
              Bcc     0.1113    14.934     5.329     4.981  0.8594 -0.0965  0.5021
 
              Baa    -0.0453    -6.078    -2.169    -2.027  0.5676  0.6353 -0.5237
     4 C(13)  Bbb    -0.0390    -5.235    -1.868    -1.746 -0.1101  0.6889  0.7165
              Bcc     0.0843    11.313     4.037     3.774  0.8159 -0.3490  0.4609
 
              Baa    -0.0289    -3.879    -1.384    -1.294  0.5974 -0.2914  0.7472
     5 C(13)  Bbb     0.0119     1.596     0.569     0.532  0.7244 -0.2036 -0.6586
              Bcc     0.0170     2.283     0.815     0.762  0.3440  0.9347  0.0895
 
              Baa    -0.0322    -4.321    -1.542    -1.441  0.6639 -0.0694  0.7446
     6 C(13)  Bbb     0.0140     1.879     0.671     0.627  0.7409 -0.0735 -0.6675
              Bcc     0.0182     2.442     0.871     0.814  0.1011  0.9949  0.0026
 
              Baa    -0.0593    -7.954    -2.838    -2.653  0.7499 -0.1045 -0.6532
     7 C(13)  Bbb    -0.0531    -7.119    -2.540    -2.375  0.1886  0.9802  0.0597
              Bcc     0.1123    15.073     5.378     5.028  0.6341 -0.1680  0.7548
 
              Baa    -0.0043    -2.310    -0.824    -0.770  0.4258 -0.5866  0.6889
     8 H(1)   Bbb    -0.0030    -1.627    -0.580    -0.543  0.6347  0.7363  0.2347
              Bcc     0.0074     3.936     1.405     1.313 -0.6449  0.3373  0.6859
 
              Baa    -0.0040    -2.141    -0.764    -0.714  0.6854 -0.0021  0.7281
     9 H(1)   Bbb    -0.0021    -1.118    -0.399    -0.373  0.0633  0.9964 -0.0567
              Bcc     0.0061     3.258     1.163     1.087  0.7254 -0.0850 -0.6831
 
              Baa    -0.0024    -1.307    -0.466    -0.436  0.7540 -0.2058  0.6238
    10 H(1)   Bbb     0.0009     0.480     0.171     0.160 -0.6544 -0.3177  0.6862
              Bcc     0.0015     0.827     0.295     0.276 -0.0570  0.9256  0.3742
 
              Baa    -0.0024    -1.285    -0.458    -0.429  0.7461 -0.2212  0.6280
    11 H(1)   Bbb     0.0006     0.301     0.107     0.100 -0.2504  0.7807  0.5725
              Bcc     0.0018     0.984     0.351     0.328  0.6169  0.5844 -0.5272
 
              Baa    -0.0197    -2.639    -0.942    -0.880  0.6212  0.7809 -0.0651
    12 C(13)  Bbb     0.0077     1.035     0.369     0.345  0.6918 -0.5074  0.5138
              Bcc     0.0120     1.604     0.572     0.535 -0.3682  0.3642  0.8554
 
              Baa    -0.0597    -8.005    -2.856    -2.670 -0.1750  0.7949  0.5809
    13 C(13)  Bbb    -0.0533    -7.158    -2.554    -2.388  0.7670 -0.2599  0.5867
              Bcc     0.1130    15.163     5.411     5.058  0.6174  0.5482 -0.5642
 
              Baa    -0.0455    -6.103    -2.178    -2.036  0.8631 -0.2340  0.4475
    14 C(13)  Bbb    -0.0393    -5.277    -1.883    -1.760 -0.2149  0.6317  0.7448
              Bcc     0.0848    11.380     4.061     3.796  0.4569  0.7391 -0.4950
 
              Baa    -0.0307    -4.115    -1.468    -1.372 -0.3032 -0.5590  0.7717
    15 C(13)  Bbb     0.0129     1.731     0.618     0.578  0.5629  0.5484  0.6184
              Bcc     0.0178     2.383     0.850     0.795  0.7689 -0.6219 -0.1484
 
              Baa    -0.0306    -4.112    -1.467    -1.372 -0.4678 -0.4001  0.7881
    16 C(13)  Bbb     0.0132     1.767     0.631     0.590  0.6325  0.4712  0.6147
              Bcc     0.0175     2.344     0.837     0.782 -0.6173  0.7861  0.0326
 
              Baa    -0.0605    -8.117    -2.896    -2.708  0.6069  0.5117  0.6082
    17 C(13)  Bbb    -0.0542    -7.278    -2.597    -2.428 -0.6975  0.7098  0.0988
              Bcc     0.1147    15.395     5.493     5.135 -0.3811 -0.4841  0.7876
 
              Baa    -0.0044    -2.321    -0.828    -0.774 -0.0215  0.7209 -0.6927
    18 H(1)   Bbb    -0.0031    -1.659    -0.592    -0.553  0.9146 -0.2656 -0.3049
              Bcc     0.0075     3.980     1.420     1.328  0.4038  0.6401  0.6536
 
              Baa    -0.0042    -2.243    -0.800    -0.748 -0.5479 -0.3271  0.7700
    19 H(1)   Bbb    -0.0020    -1.049    -0.374    -0.350 -0.5571  0.8293 -0.0442
              Bcc     0.0062     3.292     1.175     1.098  0.6241  0.4531  0.6366
 
              Baa    -0.0025    -1.321    -0.471    -0.441 -0.4726 -0.5739  0.6689
    20 H(1)   Bbb     0.0008     0.429     0.153     0.143  0.7712  0.0981  0.6290
              Bcc     0.0017     0.893     0.319     0.298 -0.4266  0.8130  0.3962
 
              Baa    -0.0025    -1.310    -0.467    -0.437 -0.4614 -0.5860  0.6662
    21 H(1)   Bbb     0.0006     0.328     0.117     0.109 -0.2746  0.8083  0.5208
              Bcc     0.0018     0.982     0.350     0.328  0.8436 -0.0574  0.5338
 
              Baa    -0.1039     7.519     2.683     2.508 -0.1030  0.8465  0.5223
    22 O(17)  Bbb    -0.0990     7.167     2.557     2.391  0.9019 -0.1419  0.4079
              Bcc     0.2030   -14.686    -5.240    -4.899 -0.4194 -0.5131  0.7489
 
              Baa    -0.0027    -0.357    -0.127    -0.119 -0.4273 -0.5437  0.7224
    23 C(13)  Bbb    -0.0011    -0.143    -0.051    -0.048 -0.1455  0.8299  0.5385
              Bcc     0.0037     0.500     0.179     0.167  0.8923 -0.1250  0.4337
 
              Baa    -0.0014    -0.745    -0.266    -0.248 -0.1742 -0.3422  0.9234
    24 H(1)   Bbb    -0.0008    -0.425    -0.152    -0.142 -0.0714  0.9396  0.3347
              Bcc     0.0022     1.170     0.418     0.390  0.9821  0.0076  0.1881
 
              Baa    -0.0013    -0.709    -0.253    -0.237  0.5969  0.6835 -0.4202
    25 H(1)   Bbb    -0.0009    -0.459    -0.164    -0.153 -0.3010  0.6762  0.6724
              Bcc     0.0022     1.168     0.417     0.390  0.7437 -0.2749  0.6093
 
              Baa    -0.0012    -0.641    -0.229    -0.214  0.2468  0.7253  0.6427
    26 H(1)   Bbb    -0.0011    -0.586    -0.209    -0.196 -0.4181 -0.5186  0.7458
              Bcc     0.0023     1.227     0.438     0.409  0.8742 -0.4528  0.1753
 
              Baa    -0.1009     7.299     2.604     2.435 -0.3475  0.7803  0.5200
    27 O(17)  Bbb    -0.0962     6.958     2.483     2.321  0.6478  0.6007 -0.4685
              Bcc     0.1970   -14.256    -5.087    -4.755  0.6780 -0.1741  0.7142
 
              Baa    -0.0026    -0.352    -0.126    -0.117  0.6996 -0.1991  0.6863
    28 C(13)  Bbb    -0.0010    -0.137    -0.049    -0.046 -0.3041  0.7862  0.5380
              Bcc     0.0036     0.489     0.174     0.163  0.6467  0.5850 -0.4895
 
              Baa    -0.0014    -0.737    -0.263    -0.246  0.3934 -0.1709  0.9033
    29 H(1)   Bbb    -0.0008    -0.417    -0.149    -0.139 -0.4405  0.8274  0.3484
              Bcc     0.0022     1.154     0.412     0.385  0.8069  0.5350 -0.2503
 
              Baa    -0.0013    -0.697    -0.249    -0.233  0.8986 -0.2295  0.3740
    30 H(1)   Bbb    -0.0008    -0.452    -0.161    -0.151 -0.0846  0.7457  0.6609
              Bcc     0.0022     1.149     0.410     0.383 -0.4306 -0.6255  0.6507
 
              Baa    -0.0012    -0.628    -0.224    -0.209 -0.5627  0.4882  0.6671
    31 H(1)   Bbb    -0.0011    -0.575    -0.205    -0.192  0.6807 -0.1842  0.7090
              Bcc     0.0023     1.203     0.429     0.401  0.4691  0.8530 -0.2286
 
              Baa    -0.0197    -2.641    -0.942    -0.881 -0.3071  0.9393  0.1530
    32 C(13)  Bbb     0.0071     0.948     0.338     0.316  0.7137  0.3336 -0.6159
              Bcc     0.0126     1.693     0.604     0.565  0.6296  0.0800  0.7728
 
              Baa    -0.0608    -8.158    -2.911    -2.721  0.5572  0.6707 -0.4896
    33 C(13)  Bbb    -0.0547    -7.337    -2.618    -2.447  0.7678 -0.1916  0.6114
              Bcc     0.1155    15.495     5.529     5.169 -0.3162  0.7165  0.6217
 
              Baa    -0.0464    -6.222    -2.220    -2.075  0.8604 -0.2296  0.4550
    34 C(13)  Bbb    -0.0404    -5.427    -1.936    -1.810 -0.5006 -0.5485  0.6698
              Bcc     0.0868    11.649     4.157     3.886 -0.0958  0.8040  0.5868
 
              Baa    -0.0295    -3.958    -1.412    -1.320 -0.0267  0.5574  0.8298
    35 C(13)  Bbb     0.0123     1.651     0.589     0.551 -0.2381  0.8027 -0.5468
              Bcc     0.0172     2.307     0.823     0.769  0.9709  0.2122 -0.1112
 
              Baa    -0.0326    -4.376    -1.561    -1.460 -0.2428  0.5066  0.8273
    36 C(13)  Bbb     0.0144     1.926     0.687     0.642 -0.2945  0.7741 -0.5604
              Bcc     0.0183     2.450     0.874     0.817  0.9243  0.3797  0.0388
 
              Baa    -0.0625    -8.384    -2.992    -2.797 -0.3034  0.7803 -0.5468
    37 C(13)  Bbb    -0.0561    -7.533    -2.688    -2.513  0.9416  0.3334 -0.0467
              Bcc     0.1186    15.917     5.680     5.309 -0.1459  0.5291  0.8359
 
              Baa    -0.0046    -2.463    -0.879    -0.821  0.3803  0.5521  0.7420
    38 H(1)   Bbb    -0.0031    -1.638    -0.585    -0.546  0.9246 -0.2082 -0.3190
              Bcc     0.0077     4.101     1.463     1.368 -0.0216  0.8073 -0.5897
 
              Baa    -0.0042    -2.257    -0.805    -0.753 -0.3756  0.4630  0.8029
    39 H(1)   Bbb    -0.0021    -1.100    -0.393    -0.367  0.8645  0.4873  0.1234
              Bcc     0.0063     3.357     1.198     1.120 -0.3341  0.7404 -0.5832
 
              Baa    -0.0025    -1.355    -0.484    -0.452 -0.1769  0.6643  0.7262
    40 H(1)   Bbb     0.0009     0.490     0.175     0.164  0.7254 -0.4107  0.5524
              Bcc     0.0016     0.865     0.309     0.288  0.6652  0.6245 -0.4093
 
              Baa    -0.0025    -1.331    -0.475    -0.444 -0.1597  0.6641  0.7304
    41 H(1)   Bbb     0.0005     0.281     0.100     0.094  0.5914  0.6568 -0.4678
              Bcc     0.0020     1.050     0.375     0.350  0.7904 -0.3572  0.4976
 
              Baa    -0.1078     7.801     2.784     2.602  0.4945  0.7518 -0.4362
    42 O(17)  Bbb    -0.1028     7.441     2.655     2.482  0.8537 -0.3258  0.4063
              Bcc     0.2106   -15.242    -5.439    -5.084 -0.1633  0.5733  0.8029
 
              Baa    -0.0028    -0.370    -0.132    -0.123 -0.1522  0.6096  0.7780
    43 C(13)  Bbb    -0.0011    -0.147    -0.052    -0.049  0.5225  0.7178 -0.4602
              Bcc     0.0038     0.516     0.184     0.172  0.8389 -0.3365  0.4277
 
              Baa    -0.0014    -0.769    -0.275    -0.257 -0.0158  0.3068  0.9517
    44 H(1)   Bbb    -0.0008    -0.440    -0.157    -0.147  0.5004  0.8264 -0.2581
              Bcc     0.0023     1.209     0.431     0.403  0.8657 -0.4721  0.1666
 
              Baa    -0.0014    -0.732    -0.261    -0.244 -0.2340  0.8367  0.4951
    45 H(1)   Bbb    -0.0009    -0.472    -0.168    -0.157 -0.5944 -0.5261  0.6082
              Bcc     0.0023     1.204     0.430     0.402  0.7694 -0.1519  0.6205
 
              Baa    -0.0012    -0.659    -0.235    -0.220  0.1246  0.8253 -0.5508
    46 H(1)   Bbb    -0.0011    -0.604    -0.216    -0.201 -0.1590  0.5646  0.8099
              Bcc     0.0024     1.263     0.451     0.421  0.9794 -0.0133  0.2016
 

 ---------------------------------------------------------------------------------

 No NMR shielding tensors so no spin-rotation constants.
 Leave Link  601 at Sat Jan 16 23:53:12 2021, MaxMem=  4026531840 cpu:               7.2 elap:               1.1
 (Enter /opt/ohpc/pub/libs/gaussian/g16-A.03/sandybridge/g16/l9999.exe)

 Test job not archived.
 1\1\GINC-CASCADEB034\SP\ULC-wHPBE\TZVP\C21H21N1O3(1+,2)\RDU230\16-Jan-
 2021\0\\#P LC-wHPBE/TZVP iop(3/107=0221900000, 3/108=0221900000) scf=(
 conver=6,fermi,ndamp=35,noincfock,novaracc,vshift=500,xqc)\\H21 C21 N1
  O3\\1,2\N,0,0.054086,0.063852,0.077784\C,0,-0.275154,-1.311734,0.1035
 06\C,0,-1.260864,-1.827996,-0.72375\C,0,0.386135,-2.184815,0.970218\C,
 0,-1.598384,-3.175646,-0.688444\C,0,0.074577,-3.526309,0.994438\C,0,-0
 .9252,-4.03443,0.167909\H,0,-1.784639,-1.164375,-1.405148\H,0,1.158634
 ,-1.797039,1.627427\H,0,-2.379444,-3.537517,-1.347421\H,0,0.588853,-4.
 20682,1.665799\C,0,-0.970368,1.03417,-0.019727\C,0,-2.134785,0.917606,
 0.724871\C,0,-0.835797,2.133662,-0.869883\C,0,-3.151989,1.858174,0.623
 575\C,0,-1.829782,3.083912,-0.958163\C,0,-3.000537,2.952781,-0.215611\
 H,0,-2.255494,0.070396,1.39325\H,0,0.067507,2.240735,-1.462783\H,0,-4.
 048238,1.726664,1.219136\H,0,-1.725247,3.941045,-1.615932\O,0,-3.92845
 1,3.936733,-0.380204\C,0,-5.121818,3.840279,0.365278\H,0,-5.681122,2.9
 30406,0.115451\H,0,-4.925953,3.859223,1.44425\H,0,-5.719912,4.710924,0
 .096466\O,0,-1.16822,-5.370782,0.273837\C,0,-2.170458,-5.919715,-0.552
 884\H,0,-3.15107,-5.47272,-0.348812\H,0,-1.930216,-5.79407,-1.615623\H
 ,0,-2.208576,-6.98373,-0.319613\C,0,1.409258,0.466483,0.091838\C,0,2.3
 72325,-0.232608,-0.620224\C,0,1.812213,1.581496,0.83064\C,0,3.707828,0
 .150754,-0.59385\C,0,3.129962,1.982235,0.842322\C,0,4.092694,1.267169,
 0.133583\H,0,2.078678,-1.100647,-1.202616\H,0,1.073246,2.139336,1.3978
 22\H,0,4.429565,-0.427688,-1.159301\H,0,3.443945,2.849999,1.413878\O,0
 ,5.369584,1.734982,0.218075\C,0,6.368506,1.037347,-0.492266\H,0,6.4607
 13,0.000867,-0.145468\H,0,6.173119,1.041208,-1.571513\H,0,7.303574,1.5
 62498,-0.297656\\Version=EM64L-G16RevA.03\State=2-A\HF=-1092.4217022\S
 2=0.770168\S2-1=0.\S2A=0.750365\RMSD=8.821e-07\Dipole=-0.4396246,-0.50
 16263,-0.3105317\Quadrupole=24.5588391,2.536483,-27.0953221,-0.278887,
 -5.0074767,5.4954158\PG=C01 [X(C21H21N1O3)]\\@


 OPTIMIST - A PESSIMIST WHO LACKS EXPERIENCE
 Job cpu time:       0 days  2 hours 17 minutes 41.8 seconds.
 Elapsed time:       0 days  0 hours 17 minutes 16.5 seconds.
 File lengths (MBytes):  RWF=    228 Int=      0 D2E=      0 Chk=     32 Scr=      8
 Normal termination of Gaussian 16 at Sat Jan 16 23:53:12 2021.
