 Entering Gaussian System, Link 0=g16
 Input=mol_NN_ma_frag_tune_c3.gjf
 Output=mol_NN_ma_frag_tune_c3.log
 Initial command:
 /opt/ohpc/pub/libs/gaussian/g16-A.03/sandybridge/g16/l1.exe "/mnt/gpfs2_4m/scratch/rdu230/ondemand/projects/init_structures/wtuning/mol_NN_ma_frag/tuning_mol_NN_ma_frag_ocycle0/Gau-218863.inp" -scrdir="/mnt/gpfs2_4m/scratch/rdu230/ondemand/projects/init_structures/wtuning/mol_NN_ma_frag/tuning_mol_NN_ma_frag_ocycle0/"
 Entering Link 1 = /opt/ohpc/pub/libs/gaussian/g16-A.03/sandybridge/g16/l1.exe PID=    218864.
  
 Copyright (c) 1988,1990,1992,1993,1995,1998,2003,2009,2016,
            Gaussian, Inc.  All Rights Reserved.
  
 This is part of the Gaussian(R) 16 program.  It is based on
 the Gaussian(R) 09 system (copyright 2009, Gaussian, Inc.),
 the Gaussian(R) 03 system (copyright 2003, Gaussian, Inc.),
 the Gaussian(R) 98 system (copyright 1998, Gaussian, Inc.),
 the Gaussian(R) 94 system (copyright 1995, Gaussian, Inc.),
 the Gaussian 92(TM) system (copyright 1992, Gaussian, Inc.),
 the Gaussian 90(TM) system (copyright 1990, Gaussian, Inc.),
 the Gaussian 88(TM) system (copyright 1988, Gaussian, Inc.),
 the Gaussian 86(TM) system (copyright 1986, Carnegie Mellon
 University), and the Gaussian 82(TM) system (copyright 1983,
 Carnegie Mellon University). Gaussian is a federally registered
 trademark of Gaussian, Inc.
  
 This software contains proprietary and confidential information,
 including trade secrets, belonging to Gaussian, Inc.
  
 This software is provided under written license and may be
 used, copied, transmitted, or stored only in accord with that
 written license.
  
 The following legend is applicable only to US Government
 contracts under FAR:
  
                    RESTRICTED RIGHTS LEGEND
  
 Use, reproduction and disclosure by the US Government is
 subject to restrictions as set forth in subparagraphs (a)
 and (c) of the Commercial Computer Software - Restricted
 Rights clause in FAR 52.227-19.
  
 Gaussian, Inc.
 340 Quinnipiac St., Bldg. 40, Wallingford CT 06492
  
  
 ---------------------------------------------------------------
 Warning -- This program may not be used in any manner that
 competes with the business of Gaussian, Inc. or will provide
 assistance to any competitor of Gaussian, Inc.  The licensee
 of this program is prohibited from giving any competitor of
 Gaussian, Inc. access to this program.  By using this program,
 the user acknowledges that Gaussian, Inc. is engaged in the
 business of creating and licensing software in the field of
 computational chemistry and represents and warrants to the
 licensee that it is not a competitor of Gaussian, Inc. and that
 it will not use this program in any manner prohibited above.
 ---------------------------------------------------------------
  

 Cite this work as:
 Gaussian 16, Revision A.03,
 M. J. Frisch, G. W. Trucks, H. B. Schlegel, G. E. Scuseria, 
 M. A. Robb, J. R. Cheeseman, G. Scalmani, V. Barone, 
 G. A. Petersson, H. Nakatsuji, X. Li, M. Caricato, A. V. Marenich, 
 J. Bloino, B. G. Janesko, R. Gomperts, B. Mennucci, H. P. Hratchian, 
 J. V. Ortiz, A. F. Izmaylov, J. L. Sonnenberg, D. Williams-Young, 
 F. Ding, F. Lipparini, F. Egidi, J. Goings, B. Peng, A. Petrone, 
 T. Henderson, D. Ranasinghe, V. G. Zakrzewski, J. Gao, N. Rega, 
 G. Zheng, W. Liang, M. Hada, M. Ehara, K. Toyota, R. Fukuda, 
 J. Hasegawa, M. Ishida, T. Nakajima, Y. Honda, O. Kitao, H. Nakai, 
 T. Vreven, K. Throssell, J. A. Montgomery, Jr., J. E. Peralta, 
 F. Ogliaro, M. J. Bearpark, J. J. Heyd, E. N. Brothers, K. N. Kudin, 
 V. N. Staroverov, T. A. Keith, R. Kobayashi, J. Normand, 
 K. Raghavachari, A. P. Rendell, J. C. Burant, S. S. Iyengar, 
 J. Tomasi, M. Cossi, J. M. Millam, M. Klene, C. Adamo, R. Cammi, 
 J. W. Ochterski, R. L. Martin, K. Morokuma, O. Farkas, 
 J. B. Foresman, and D. J. Fox, Gaussian, Inc., Wallingford CT, 2016.
 
 ******************************************
 Gaussian 16:  EM64L-G16RevA.03 25-Dec-2016
                17-Jan-2021 
 ******************************************
 %mem=30GB
 %nproc=8
 Will use up to    8 processors via shared memory.
 ----------------------------------------------------------------------
 #P LC-wHPBE/TZVP iop(3/107=0199600000, 3/108=0199600000) scf=(conver=6
 ,fermi,ndamp=35,noincfock,novaracc,vshift=500,xqc)
 ----------------------------------------------------------------------
 1/38=1,172=1/1;
 2/12=2,17=6,18=5,40=1/2;
 3/5=19,7=101,11=2,25=1,30=1,74=-71,107=199600000,108=199600000/1,2,3;
 4//1;
 5/5=100002,6=6,8=3,10=500,13=1,18=-1,22=13,38=1,93=35/2,8;
 6/7=2,8=2,9=2,10=2,28=1/1;
 99/5=1,9=1/99;
 Leave Link    1 at Sun Jan 17 00:59:54 2021, MaxMem=  4026531840 cpu:               1.0 elap:               0.2
 (Enter /opt/ohpc/pub/libs/gaussian/g16-A.03/sandybridge/g16/l101.exe)
 -------------
 H21 C21 N1 O3
 -------------
 Symbolic Z-matrix:
 Charge =  1 Multiplicity = 2
 N                     0.05409   0.06385   0.07778 
 C                    -0.27515  -1.31173   0.10351 
 C                    -1.26086  -1.828    -0.72375 
 C                     0.38614  -2.18481   0.97022 
 C                    -1.59838  -3.17565  -0.68844 
 C                     0.07458  -3.52631   0.99444 
 C                    -0.9252   -4.03443   0.16791 
 H                    -1.78464  -1.16438  -1.40515 
 H                     1.15863  -1.79704   1.62743 
 H                    -2.37944  -3.53752  -1.34742 
 H                     0.58885  -4.20682   1.6658 
 C                    -0.97037   1.03417  -0.01973 
 C                    -2.13478   0.91761   0.72487 
 C                    -0.8358    2.13366  -0.86988 
 C                    -3.15199   1.85817   0.62358 
 C                    -1.82978   3.08391  -0.95816 
 C                    -3.00054   2.95278  -0.21561 
 H                    -2.25549   0.0704    1.39325 
 H                     0.06751   2.24073  -1.46278 
 H                    -4.04824   1.72666   1.21914 
 H                    -1.72525   3.94105  -1.61593 
 O                    -3.92845   3.93673  -0.3802 
 C                    -5.12182   3.84028   0.36528 
 H                    -5.68112   2.93041   0.11545 
 H                    -4.92595   3.85922   1.44425 
 H                    -5.71991   4.71092   0.09647 
 O                    -1.16822  -5.37078   0.27384 
 C                    -2.17046  -5.91972  -0.55288 
 H                    -3.15107  -5.47272  -0.34881 
 H                    -1.93022  -5.79407  -1.61562 
 H                    -2.20858  -6.98373  -0.31961 
 C                     1.40926   0.46648   0.09184 
 C                     2.37233  -0.23261  -0.62022 
 C                     1.81221   1.5815    0.83064 
 C                     3.70783   0.15075  -0.59385 
 C                     3.12996   1.98224   0.84232 
 C                     4.09269   1.26717   0.13358 
 H                     2.07868  -1.10065  -1.20262 
 H                     1.07325   2.13934   1.39782 
 H                     4.42957  -0.42769  -1.1593 
 H                     3.44395   2.85      1.41388 
 O                     5.36958   1.73498   0.21808 
 C                     6.36851   1.03735  -0.49227 
 H                     6.46071   0.00087  -0.14547 
 H                     6.17312   1.04121  -1.57151 
 H                     7.30357   1.5625   -0.29766 
 
 ITRead=  0  0  0  0  0  0  0  0  0  0  0  0  0  0  0  0  0  0  0  0
 ITRead=  0  0  0  0  0  0  0  0  0  0  0  0  0  0  0  0  0  0  0  0
 ITRead=  0  0  0  0  0  0
 MicOpt= -1 -1 -1 -1 -1 -1 -1 -1 -1 -1 -1 -1 -1 -1 -1 -1 -1 -1 -1 -1
 MicOpt= -1 -1 -1 -1 -1 -1 -1 -1 -1 -1 -1 -1 -1 -1 -1 -1 -1 -1 -1 -1
 MicOpt= -1 -1 -1 -1 -1 -1
 NAtoms=     46 NQM=       46 NQMF=       0 NMMI=      0 NMMIF=      0
                NMic=       0 NMicF=      0.
                    Isotopes and Nuclear Properties:
 (Nuclear quadrupole moments (NQMom) in fm**2, nuclear magnetic moments (NMagM)
  in nuclear magnetons)

  Atom         1           2           3           4           5           6           7           8           9          10
 IAtWgt=          14          12          12          12          12          12          12           1           1           1
 AtmWgt=  14.0030740  12.0000000  12.0000000  12.0000000  12.0000000  12.0000000  12.0000000   1.0078250   1.0078250   1.0078250
 NucSpn=           2           0           0           0           0           0           0           1           1           1
 AtZEff=  -0.0000000  -0.0000000  -0.0000000  -0.0000000  -0.0000000  -0.0000000  -0.0000000  -0.0000000  -0.0000000  -0.0000000
 NQMom=    2.0440000   0.0000000   0.0000000   0.0000000   0.0000000   0.0000000   0.0000000   0.0000000   0.0000000   0.0000000
 NMagM=    0.4037610   0.0000000   0.0000000   0.0000000   0.0000000   0.0000000   0.0000000   2.7928460   2.7928460   2.7928460
 AtZNuc=   7.0000000   6.0000000   6.0000000   6.0000000   6.0000000   6.0000000   6.0000000   1.0000000   1.0000000   1.0000000

  Atom        11          12          13          14          15          16          17          18          19          20
 IAtWgt=           1          12          12          12          12          12          12           1           1           1
 AtmWgt=   1.0078250  12.0000000  12.0000000  12.0000000  12.0000000  12.0000000  12.0000000   1.0078250   1.0078250   1.0078250
 NucSpn=           1           0           0           0           0           0           0           1           1           1
 AtZEff=  -0.0000000  -0.0000000  -0.0000000  -0.0000000  -0.0000000  -0.0000000  -0.0000000  -0.0000000  -0.0000000  -0.0000000
 NQMom=    0.0000000   0.0000000   0.0000000   0.0000000   0.0000000   0.0000000   0.0000000   0.0000000   0.0000000   0.0000000
 NMagM=    2.7928460   0.0000000   0.0000000   0.0000000   0.0000000   0.0000000   0.0000000   2.7928460   2.7928460   2.7928460
 AtZNuc=   1.0000000   6.0000000   6.0000000   6.0000000   6.0000000   6.0000000   6.0000000   1.0000000   1.0000000   1.0000000

  Atom        21          22          23          24          25          26          27          28          29          30
 IAtWgt=           1          16          12           1           1           1          16          12           1           1
 AtmWgt=   1.0078250  15.9949146  12.0000000   1.0078250   1.0078250   1.0078250  15.9949146  12.0000000   1.0078250   1.0078250
 NucSpn=           1           0           0           1           1           1           0           0           1           1
 AtZEff=  -0.0000000  -0.0000000  -0.0000000  -0.0000000  -0.0000000  -0.0000000  -0.0000000  -0.0000000  -0.0000000  -0.0000000
 NQMom=    0.0000000   0.0000000   0.0000000   0.0000000   0.0000000   0.0000000   0.0000000   0.0000000   0.0000000   0.0000000
 NMagM=    2.7928460   0.0000000   0.0000000   2.7928460   2.7928460   2.7928460   0.0000000   0.0000000   2.7928460   2.7928460
 AtZNuc=   1.0000000   8.0000000   6.0000000   1.0000000   1.0000000   1.0000000   8.0000000   6.0000000   1.0000000   1.0000000

  Atom        31          32          33          34          35          36          37          38          39          40
 IAtWgt=           1          12          12          12          12          12          12           1           1           1
 AtmWgt=   1.0078250  12.0000000  12.0000000  12.0000000  12.0000000  12.0000000  12.0000000   1.0078250   1.0078250   1.0078250
 NucSpn=           1           0           0           0           0           0           0           1           1           1
 AtZEff=  -0.0000000  -0.0000000  -0.0000000  -0.0000000  -0.0000000  -0.0000000  -0.0000000  -0.0000000  -0.0000000  -0.0000000
 NQMom=    0.0000000   0.0000000   0.0000000   0.0000000   0.0000000   0.0000000   0.0000000   0.0000000   0.0000000   0.0000000
 NMagM=    2.7928460   0.0000000   0.0000000   0.0000000   0.0000000   0.0000000   0.0000000   2.7928460   2.7928460   2.7928460
 AtZNuc=   1.0000000   6.0000000   6.0000000   6.0000000   6.0000000   6.0000000   6.0000000   1.0000000   1.0000000   1.0000000

  Atom        41          42          43          44          45          46
 IAtWgt=           1          16          12           1           1           1
 AtmWgt=   1.0078250  15.9949146  12.0000000   1.0078250   1.0078250   1.0078250
 NucSpn=           1           0           0           1           1           1
 AtZEff=  -0.0000000  -0.0000000  -0.0000000  -0.0000000  -0.0000000  -0.0000000
 NQMom=    0.0000000   0.0000000   0.0000000   0.0000000   0.0000000   0.0000000
 NMagM=    2.7928460   0.0000000   0.0000000   2.7928460   2.7928460   2.7928460
 AtZNuc=   1.0000000   8.0000000   6.0000000   1.0000000   1.0000000   1.0000000
 Leave Link  101 at Sun Jan 17 00:59:54 2021, MaxMem=  4026531840 cpu:               0.8 elap:               0.1
 (Enter /opt/ohpc/pub/libs/gaussian/g16-A.03/sandybridge/g16/l202.exe)
                          Input orientation:                          
 ---------------------------------------------------------------------
 Center     Atomic      Atomic             Coordinates (Angstroms)
 Number     Number       Type             X           Y           Z
 ---------------------------------------------------------------------
      1          7           0        0.054086    0.063852    0.077784
      2          6           0       -0.275154   -1.311734    0.103506
      3          6           0       -1.260864   -1.827996   -0.723750
      4          6           0        0.386135   -2.184815    0.970218
      5          6           0       -1.598384   -3.175646   -0.688444
      6          6           0        0.074577   -3.526309    0.994438
      7          6           0       -0.925200   -4.034430    0.167909
      8          1           0       -1.784639   -1.164375   -1.405148
      9          1           0        1.158634   -1.797039    1.627427
     10          1           0       -2.379444   -3.537517   -1.347421
     11          1           0        0.588853   -4.206820    1.665799
     12          6           0       -0.970368    1.034170   -0.019727
     13          6           0       -2.134785    0.917606    0.724871
     14          6           0       -0.835797    2.133662   -0.869883
     15          6           0       -3.151989    1.858174    0.623575
     16          6           0       -1.829782    3.083912   -0.958163
     17          6           0       -3.000537    2.952781   -0.215611
     18          1           0       -2.255494    0.070396    1.393250
     19          1           0        0.067507    2.240735   -1.462783
     20          1           0       -4.048238    1.726664    1.219136
     21          1           0       -1.725247    3.941045   -1.615932
     22          8           0       -3.928451    3.936733   -0.380204
     23          6           0       -5.121818    3.840279    0.365278
     24          1           0       -5.681122    2.930406    0.115451
     25          1           0       -4.925953    3.859223    1.444250
     26          1           0       -5.719912    4.710924    0.096466
     27          8           0       -1.168220   -5.370782    0.273837
     28          6           0       -2.170458   -5.919715   -0.552884
     29          1           0       -3.151070   -5.472720   -0.348812
     30          1           0       -1.930216   -5.794070   -1.615623
     31          1           0       -2.208576   -6.983730   -0.319613
     32          6           0        1.409258    0.466483    0.091838
     33          6           0        2.372325   -0.232608   -0.620224
     34          6           0        1.812213    1.581496    0.830640
     35          6           0        3.707828    0.150754   -0.593850
     36          6           0        3.129962    1.982235    0.842322
     37          6           0        4.092694    1.267169    0.133583
     38          1           0        2.078678   -1.100647   -1.202616
     39          1           0        1.073246    2.139336    1.397822
     40          1           0        4.429565   -0.427688   -1.159301
     41          1           0        3.443945    2.849999    1.413878
     42          8           0        5.369584    1.734982    0.218075
     43          6           0        6.368506    1.037347   -0.492266
     44          1           0        6.460713    0.000867   -0.145468
     45          1           0        6.173119    1.041208   -1.571513
     46          1           0        7.303574    1.562498   -0.297656
 ---------------------------------------------------------------------
                    Distance matrix (angstroms):
                    1          2          3          4          5
     1  N    0.000000
     2  C    1.414672   0.000000
     3  C    2.439393   1.386544   0.000000
     4  C    2.441966   1.396697   2.389446   0.000000
     5  C    3.716465   2.419151   1.389722   2.769697   0.000000
     6  C    3.705392   2.412553   2.760406   1.377411   2.398719
     7  C    4.214622   2.799961   2.403347   2.405073   1.387093
     8  H    2.662431   2.139228   1.085834   3.375785   2.143261
     9  H    2.661641   2.147930   3.373865   1.085840   3.855511
    10  H    4.574181   3.389297   2.136036   3.853528   1.084092
    11  H    4.587636   3.401292   3.845803   2.147890   3.374876
    12  C    1.414401   2.449852   2.961761   3.630696   4.308612
    13  C    2.436960   2.968885   3.224992   4.005028   4.363473
    14  C    2.444193   3.623887   3.987075   4.850601   5.366862
    15  C    3.714350   4.312188   4.356545   5.383702   5.429035
    16  C    3.707143   4.781811   4.950299   6.032282   6.269638
    17  C    4.214583   5.071059   5.112778   6.266628   6.304540
    18  H    2.657942   2.737785   3.012452   3.499019   3.911781
    19  H    2.666898   3.897527   4.343422   5.060288   5.719439
    20  H    4.571290   4.971183   4.917303   5.918217   5.802869
    21  H    4.589916   5.714099   5.856063   6.976551   7.177995
    22  O    5.574008   6.413030   6.361301   7.610036   7.490671
    23  C    6.413582   7.078271   6.944227   8.185674   7.921371
    24  H    6.411799   6.871709   6.548689   7.981712   7.389105
    25  H    6.408811   7.082819   7.104756   8.060607   8.069107
    26  H    7.411793   8.118981   7.956968   9.251944   8.933144
    27  O    5.573842   4.159621   3.681725   3.612665   2.435087
    28  C    6.414781   5.025586   4.195083   4.775509   2.806343
    29  H    6.411602   5.078316   4.122799   5.006194   2.793337
    30  H    6.412514   5.077989   4.119856   5.007872   2.797484
    31  H    7.412555   6.007386   5.257668   5.605870   3.874258
    32  C    1.413789   2.449375   3.613775   2.974511   4.787468
    33  C    2.439126   2.949143   3.969388   3.207112   4.942940
    34  C    2.441525   3.640962   4.846088   4.029675   6.047329
    35  C    3.715976   4.299921   5.349787   4.351418   6.263367
    36  C    3.704825   4.794882   6.020780   4.990917   7.162698
    37  C    4.214432   5.072449   6.243048   5.133686   7.266547
    38  H    2.663542   2.700192   3.451216   2.959954   4.253326
    39  H    2.662484   3.924706   5.068418   4.399233   6.303899
    40  H    4.573490   4.950818   5.876355   4.896087   6.641472
    41  H    4.586819   5.733131   6.970532   5.907316   8.133464
    42  O    5.573767   6.415502   7.585821   6.384770   8.572551
    43  C    6.414402   7.071870   8.152979   6.950536   9.014385
    44  H    6.410825   6.867082   7.956249   6.551523   8.679522
    45  H    6.412330   7.065568   8.013435   7.096253   8.885827
    46  H    7.412285   8.115372   9.220987   7.968740  10.091956
                    6          7          8          9         10
     6  C    0.000000
     7  C    1.393159   0.000000
     8  H    3.846223   3.383838   0.000000
     9  H    2.136874   3.387990   4.273129   0.000000
    10  H    3.392145   2.158234   2.447229   4.939330   0.000000
    11  H    1.085496   2.136761   4.931597   2.476523   4.282318
    12  C    4.787318   5.072273   2.723239   3.906598   4.964734
    13  C    4.970144   5.127959   2.999038   4.362398   4.919591
    14  C    6.028246   6.255427   3.473306   5.066036   5.896877
    15  C    6.288157   6.315774   3.888594   5.740189   5.796131
    16  C    7.150822   7.263408   4.271976   6.280095   6.655597
    17  C    7.273180   7.298988   4.454703   6.576951   6.617456
    18  H    4.304018   4.485615   3.094737   3.898515   4.532513
    19  H    6.268715   6.559140   3.876666   5.200344   6.276072
    20  H    6.681453   6.636916   4.513187   6.300373   6.089638
    21  H    8.112631   8.211599   5.110115   7.194564   7.511921
    22  O    8.579678   8.535771   5.627410   7.923709   7.694111
    23  C    9.036868   8.925335   6.270385   8.533256   8.055174
    24  H    8.694243   8.433889   5.853378   8.450862   7.407773
    25  H    8.930493   8.941187   6.574455   8.309576   8.306016
    26  H   10.111106   9.973745   7.229132   9.592279   9.015560
    27  O    2.337924   1.362394   4.570867   4.474159   2.730641
    28  C    3.628055   2.371605   4.846490   5.730015   2.519887
    29  H    3.999704   2.700033   4.641639   5.999142   2.310333
    30  H    3.996793   2.699514   4.636763   6.002885   2.316413
    31  H    4.346640   3.253168   5.934897   6.483119   3.600273
    32  C    4.305630   5.070868   3.886083   2.746703   5.697170
    33  C    4.328423   5.093984   4.331818   2.995401   5.833571
    34  C    5.397766   6.282616   5.047366   3.532214   6.965503
    35  C    5.407769   6.289753   5.705696   3.902097   7.157241
    36  C    6.300998   7.286936   6.253445   4.334217   8.100382
    37  C    6.313776   7.299821   6.543939   4.497738   8.195545
    38  H    3.837617   4.416866   3.869147   3.056237   5.082731
    39  H    5.767113   6.604685   5.190246   3.943990   7.189165
    40  H    5.762462   6.591175   6.262546   4.509985   7.487926
    41  H    7.223979   8.248468   7.169393   5.182973   9.073973
    42  O    7.504733   8.538907   7.888221   5.673936   9.502497
    43  C    7.915225   8.908249   8.494393   6.298381   9.908950
    44  H    7.383975   8.422205   8.422019   5.872620   9.597564
    45  H    8.039809   8.897967   8.259430   6.590442   9.703673
    46  H    8.934420   9.962684   9.552905   7.263107  10.994226
                   11         12         13         14         15
    11  H    0.000000
    12  C    5.721900   0.000000
    13  C    5.879055   1.387040   0.000000
    14  C    6.975745   1.396337   2.389436   0.000000
    15  C    7.201686   2.419151   1.389112   2.769667   0.000000
    16  C    8.117250   2.412612   2.760165   1.377960   2.398450
    17  C    8.226987   2.800183   2.403325   2.405229   1.387565
    18  H    5.143848   2.139372   1.085848   3.375556   2.142954
    19  H    7.185457   2.148347   3.374402   1.085796   3.855437
    20  H    7.543763   3.389338   2.135457   3.853495   1.084090
    21  H    9.083640   3.401123   3.845551   2.148102   3.374809
    22  O    9.534654   4.159936   3.681515   3.613220   2.435338
    23  C    9.952835   5.025636   4.194483   4.775787   2.806365
    24  H    9.625807   5.079881   4.123016   5.008279   2.793633
    25  H    9.773598   5.076495   4.118402   5.006211   2.797258
    26  H   11.035827   6.007511   5.257118   5.606308   3.874307
    27  O    2.525801   6.414728   6.378205   7.598374   7.504363
    28  C    3.933238   7.076792   6.955781   8.169375   7.927359
    29  H    4.432627   6.870471   6.559108   7.968002   7.395103
    30  H    4.430892   7.077645   7.111002   8.037588   8.066200
    31  H    4.413468   8.118486   7.970414   9.236566   8.941974
    32  C    4.999018   2.448946   3.628289   2.957138   4.798387
    33  C    4.919455   3.624765   4.842139   3.994197   6.036261
    34  C    5.974839   2.960650   4.003839   3.195094   4.976216
    35  C    5.815709   4.795368   6.038478   4.965143   7.173179
    36  C    6.740901   4.295889   5.372596   4.322247   6.286983
    37  C    6.677510   5.070739   6.265246   5.103702   7.285246
    38  H    4.482822   3.905554   5.053892   4.366421   6.280882
    39  H    6.370255   2.721616   3.498135   2.964281   4.304779
    40  H    6.083921   5.709197   6.960647   5.862449   8.116882
    41  H    7.616673   4.983836   5.943997   4.903559   6.716743
    42  O    7.762493   6.382999   7.565745   6.312634   8.532105
    43  C    8.097093   7.354072   8.590793   7.297019   9.620742
    44  H    7.447420   7.503632   8.687951   7.636272   9.820644
    45  H    8.319015   7.310095   8.620321   7.128159   9.614753
    46  H    9.067947   8.295450   9.515465   8.179427  10.500233
                   16         17         18         19         20
    16  C    0.000000
    17  C    1.392568   0.000000
    18  H    3.845992   3.384031   0.000000
    19  H    2.136655   3.387527   4.273597   0.000000
    20  H    3.391799   2.158597   2.446931   4.939263   0.000000
    21  H    1.085479   2.136335   4.931355   2.475576   4.282217
    22  O    2.337895   1.362452   4.570830   4.473932   2.730685
    23  C    3.627821   2.371691   4.846087   5.729698   2.519725
    24  H    4.001129   2.701044   4.641913   6.001100   2.309421
    25  H    3.994868   2.698889   4.635640   6.000416   2.317082
    26  H    4.346553   3.253223   5.934504   6.482847   3.600096
    27  O    8.569559   8.536899   5.660536   7.904307   7.717631
    28  C    9.019180   8.917621   6.298897   8.510543   8.070516
    29  H    8.679462   8.427898   5.879028   8.431937   7.422567
    30  H    8.902859   8.922613   6.599325   8.280842   8.311637
    31  H   10.094981   9.968564   7.259256   9.569647   9.034549
    32  C    4.294743   5.071735   3.909088   2.713874   5.713416
    33  C    5.363880   6.259238   5.055947   3.484181   6.960289
    34  C    4.326800   5.112497   4.375636   2.956076   5.875108
    35  C    6.277043   7.279875   6.286194   4.286607   8.119542
    36  C    5.390223   6.296364   5.741236   3.841739   7.192625
    37  C    6.290325   7.299120   6.581680   4.438282   8.225833
    38  H    5.731174   6.572890   5.186030   3.908622   7.169217
    39  H    3.856224   4.456520   3.919317   3.033950   5.141189
    40  H    7.179918   8.217332   7.173118   5.122512   9.064841
    41  H    5.787356   6.648093   6.341153   4.477356   7.578431
    42  O    7.418492   8.469359   7.892636   5.585077   9.470880
    43  C    8.462707   9.566838   8.880515   6.487884  10.578876
    44  H    8.882452   9.911305   8.851257   6.901117  10.736786
    45  H    8.282226   9.468292   8.987425   6.223278  10.617613
    46  H    9.282735  10.397804   9.821472   7.360584  11.453875
                   21         22         23         24         25
    21  H    0.000000
    22  O    2.526094   0.000000
    23  C    3.933452   1.410380   0.000000
    24  H    4.434865   2.080919   1.096861   0.000000
    25  H    4.428987   2.080781   1.096769   1.788488   0.000000
    26  H    4.413884   2.008960   1.089954   1.781042   1.781092
    27  O    9.517963   9.730184  10.024118   9.449926  10.034113
    28  C    9.927884  10.013487  10.237726   9.544426  10.354174
    29  H    9.605079   9.441563   9.545979   8.788016   9.666977
    30  H    9.737273  10.010381  10.340743   9.653103  10.560461
    31  H   11.012028  11.055232  11.230104  10.513703  11.316580
    32  C    4.981383   6.384089   7.356101   7.506328   7.312633
    33  C    5.933035   7.559153   8.586140   8.683541   8.618004
    34  C    4.905793   6.322065   7.307493   7.647295   7.139148
    35  C    6.702929   8.525963   9.617441   9.817431   9.615028
    36  C    5.783857   7.425350   8.471822   8.891714   8.293562
    37  C    6.637684   8.469316   9.569839   9.914341   9.474840
    38  H    6.329244   7.882713   8.872327   8.843143   8.981707
    39  H    4.490037   5.604372   6.506779   6.920387   6.241038
    40  H    7.561485   9.461057  10.572076  10.729761  10.615168
    41  H    6.090211   7.664982   8.686341   9.217333   8.430578
    42  O    7.652903   9.573876  10.701563  11.115650  10.583666
    43  C    8.671962  10.697959  11.858303  12.212556  11.801605
    44  H    9.203109  11.112195  12.212984  12.492975  12.127253
    45  H    8.413989  10.575680  11.796676  12.121796  11.841682
    46  H    9.429472  11.480514  12.649827  13.063084  12.564653
                   26         27         28         29         30
    26  H    0.000000
    27  O   11.063008   0.000000
    28  C   11.226342   1.410417   0.000000
    29  H   10.512080   2.080812   1.096836   0.000000
    30  H   11.298139   2.080834   1.096776   1.788452   0.000000
    31  H   12.217509   2.009011   1.089952   1.781095   1.781128
    32  C    8.297009   6.383587   7.349392   7.500993   7.298084
    33  C    9.509808   6.303621   7.279052   7.618420   7.101587
    34  C    8.189337   7.584667   8.604881   8.705587   8.624903
    35  C   10.495426   7.417283   8.450238   8.872879   8.256664
    36  C    9.290980   8.536065   9.616749   9.820719   9.597803
    37  C   10.399426   8.471085   9.557699   9.906105   9.444377
    38  H    9.812236   5.563840   6.457610   6.869808   6.186277
    39  H    7.379267   7.917663   8.903661   8.879131   9.002253
    40  H   11.445268   7.604161   8.607578   9.141951   8.333853
    41  H    9.443246   9.494893  10.597054  10.764244  10.619765
    42  O   11.482506   9.655976  10.772233  11.174698  10.645945
    43  C   12.647989   9.922362  11.014458  11.533598  10.807357
    44  H   13.061807   9.339756  10.474559  11.062905  10.302929
    45  H   12.557594   9.920393  10.913631  11.439701  10.601274
    46  H   13.404444  10.962129  12.075013  12.601448  11.879352
                   31         32         33         34         35
    31  H    0.000000
    32  C    8.292387   0.000000
    33  C    8.164109   1.386816   0.000000
    34  C    9.531680   1.396945   2.389499   0.000000
    35  C    9.272535   2.419355   1.389687   2.769395   0.000000
    36  C   10.499458   2.412789   2.760178   1.377385   2.398091
    37  C   10.391762   2.800655   2.403586   2.405262   1.386962
    38  H    7.332865   2.140007   1.085772   3.376244   2.142599
    39  H    9.846333   2.148706   3.374349   1.085796   3.855157
    40  H    9.367587   3.389269   2.135626   3.853209   1.084082
    41  H   11.474241   3.401307   3.845570   2.147514   3.374393
    42  O   11.564323   4.160434   3.682081   3.612988   2.435248
    43  C   11.744523   5.026053   4.195071   4.775561   2.806345
    44  H   11.134249   5.078416   4.122477   5.005969   2.793186
    45  H   11.671319   5.078525   4.119902   5.007969   2.797569
    46  H   12.787474   6.007988   5.257725   5.606109   3.874292
                   36         37         38         39         40
    36  C    0.000000
    37  C    1.393012   0.000000
    38  H    3.845924   3.383525   0.000000
    39  H    2.136198   3.387631   4.274419   0.000000
    40  H    3.391636   2.158141   2.445694   4.938964   0.000000
    41  H    1.085484   2.136675   4.931288   2.474977   4.282047
    42  O    2.338103   1.362511   4.570472   4.473681   2.730923
    43  C    3.627962   2.371461   4.845435   5.729449   2.520071
    44  H    3.999431   2.699797   4.640380   5.998299   2.310212
    45  H    3.996616   2.699366   4.635523   6.002628   2.316798
    46  H    4.346811   3.253143   5.933872   6.482621   3.600444
                   41         42         43         44         45
    41  H    0.000000
    42  O    2.526122   0.000000
    43  C    3.933465   1.410363   0.000000
    44  H    4.432832   2.080837   1.096842   0.000000
    45  H    4.430877   2.080773   1.096798   1.788470   0.000000
    46  H    4.414039   2.008991   1.089958   1.781086   1.781119
                   46
    46  H    0.000000
 Stoichiometry    C21H21NO3(1+,2)
 Framework group  C1[X(C21H21NO3)]
 Deg. of freedom   132
 Full point group                 C1      NOp   1
 Largest Abelian subgroup         C1      NOp   1
 Largest concise Abelian subgroup C1      NOp   1
                         Standard orientation:                         
 ---------------------------------------------------------------------
 Center     Atomic      Atomic             Coordinates (Angstroms)
 Number     Number       Type             X           Y           Z
 ---------------------------------------------------------------------
      1          7           0       -0.054086   -0.063852    0.077784
      2          6           0        0.275154    1.311734    0.103506
      3          6           0        1.260864    1.827996   -0.723750
      4          6           0       -0.386136    2.184815    0.970218
      5          6           0        1.598383    3.175646   -0.688444
      6          6           0       -0.074578    3.526309    0.994438
      7          6           0        0.925199    4.034430    0.167909
      8          1           0        1.784639    1.164376   -1.405148
      9          1           0       -1.158634    1.797039    1.627427
     10          1           0        2.379443    3.537518   -1.347421
     11          1           0       -0.588854    4.206820    1.665799
     12          6           0        0.970368   -1.034170   -0.019727
     13          6           0        2.134785   -0.917605    0.724871
     14          6           0        0.835798   -2.133662   -0.869883
     15          6           0        3.151989   -1.858173    0.623575
     16          6           0        1.829783   -3.083911   -0.958163
     17          6           0        3.000538   -2.952780   -0.215611
     18          1           0        2.255494   -0.070395    1.393250
     19          1           0       -0.067506   -2.240735   -1.462783
     20          1           0        4.048238   -1.726663    1.219136
     21          1           0        1.725248   -3.941045   -1.615932
     22          8           0        3.928452   -3.936732   -0.380204
     23          6           0        5.121819   -3.840278    0.365278
     24          1           0        5.681123   -2.930405    0.115451
     25          1           0        4.925954   -3.859222    1.444250
     26          1           0        5.719913   -4.710923    0.096466
     27          8           0        1.168219    5.370782    0.273837
     28          6           0        2.170457    5.919716   -0.552884
     29          1           0        3.151069    5.472721   -0.348812
     30          1           0        1.930215    5.794071   -1.615623
     31          1           0        2.208574    6.983731   -0.319613
     32          6           0       -1.409258   -0.466483    0.091838
     33          6           0       -2.372325    0.232607   -0.620224
     34          6           0       -1.812213   -1.581496    0.830640
     35          6           0       -3.707828   -0.150755   -0.593850
     36          6           0       -3.129962   -1.982236    0.842322
     37          6           0       -4.092694   -1.267170    0.133583
     38          1           0       -2.078678    1.100647   -1.202616
     39          1           0       -1.073245   -2.139336    1.397822
     40          1           0       -4.429565    0.427687   -1.159301
     41          1           0       -3.443944   -2.850000    1.413878
     42          8           0       -5.369584   -1.734983    0.218075
     43          6           0       -6.368506   -1.037348   -0.492266
     44          1           0       -6.460713   -0.000869   -0.145468
     45          1           0       -6.173119   -1.041209   -1.571513
     46          1           0       -7.303574   -1.562500   -0.297656
 ---------------------------------------------------------------------
 Rotational constants (GHZ):           0.1829468           0.1651743           0.0911050
 Leave Link  202 at Sun Jan 17 00:59:54 2021, MaxMem=  4026531840 cpu:               0.1 elap:               0.0
 (Enter /opt/ohpc/pub/libs/gaussian/g16-A.03/sandybridge/g16/l301.exe)
 Standard basis: TZVP (5D, 7F)
 Ernie: Thresh=  0.10000D-02 Tol=  0.10000D-05 Strict=F.
 There are   626 symmetry adapted cartesian basis functions of A   symmetry.
 There are   601 symmetry adapted basis functions of A   symmetry.
   601 basis functions,  1043 primitive gaussians,   626 cartesian basis functions
    89 alpha electrons       88 beta electrons
       nuclear repulsion energy      2056.6778086010 Hartrees.
 IExCor=33909 DFT=T Ex+Corr=LC-wHPBE ExCW=0 ScaHFX=  1.000000
 ScaDFX=  1.000000  1.000000  1.000000  1.000000 ScalE2=  1.000000  1.000000
 IRadAn=      5 IRanWt=     -1 IRanGd=            0 ICorTp=0 IEmpDi=  4
 HFx  wShort=  0.000000 wLong=  0.199600 cFull=  0.000000 cShort=  0.000000 cLong=  1.000000
 DFx  wShort=  0.000000 wLong=  0.199600 cFull=  0.000000 cShort=  1.000000 cLong=  0.000000
 NAtoms=   46 NActive=   46 NUniq=   46 SFac= 1.00D+00 NAtFMM=   60 NAOKFM=F Big=F
 Integral buffers will be    131072 words long.
 Raffenetti 2 integral format.
 Two-electron integral symmetry is turned on.
 Leave Link  301 at Sun Jan 17 00:59:54 2021, MaxMem=  4026531840 cpu:               0.4 elap:               0.1
 (Enter /opt/ohpc/pub/libs/gaussian/g16-A.03/sandybridge/g16/l302.exe)
 NPDir=0 NMtPBC=     1 NCelOv=     1 NCel=       1 NClECP=     1 NCelD=      1
         NCelK=      1 NCelE2=     1 NClLst=     1 CellRange=     0.0.
 One-electron integrals computed using PRISM.
 One-electron integral symmetry used in STVInt
 NBasis=   601 RedAO= T EigKep=  7.47D-06  NBF=   601
 NBsUse=   601 1.00D-06 EigRej= -1.00D+00 NBFU=   601
 Precomputing XC quadrature grid using
 IXCGrd= 4 IRadAn=           5 IRanWt=          -1 IRanGd=           0 AccXCQ= 0.00D+00.
 Generated NRdTot=       0 NPtTot=           0 NUsed=           0 NTot=          32
 NSgBfM=   597   597   597   597   597 MxSgAt=    46 MxSgA2=    46.
 Leave Link  302 at Sun Jan 17 00:59:56 2021, MaxMem=  4026531840 cpu:              12.7 elap:               2.2
 (Enter /opt/ohpc/pub/libs/gaussian/g16-A.03/sandybridge/g16/l303.exe)
 DipDrv:  MaxL=1.
 Leave Link  303 at Sun Jan 17 00:59:56 2021, MaxMem=  4026531840 cpu:               0.7 elap:               0.1
 (Enter /opt/ohpc/pub/libs/gaussian/g16-A.03/sandybridge/g16/l401.exe)
 ExpMin= 9.52D-02 ExpMax= 2.70D+04 ExpMxC= 9.22D+02 IAcc=3 IRadAn=         5 AccDes= 0.00D+00
 Harris functional with IExCor=33909 and IRadAn=       5 diagonalized for initial guess.
 HarFok:  IExCor=33909 AccDes= 0.00D+00 IRadAn=         5 IDoV= 1 UseB2=F ITyADJ=14
 ICtDFT=  3500011 ScaDFX=  1.000000  1.000000  1.000000  1.000000
 FoFCou: FMM=F IPFlag=           0 FMFlag=      100000 FMFlg1=           0
         NFxFlg=           0 DoJE=T BraDBF=F KetDBF=T FulRan=T
         wScrn=  0.000000 ICntrl=       500 IOpCl=  0 I1Cent=   200000004 NGrid=           0
         NMat0=    1 NMatS0=      1 NMatT0=    0 NMatD0=    1 NMtDS0=    0 NMtDT0=    0
 Petite list used in FoFCou.
 Harris En= -1073.55088029947    
 JPrj=0 DoOrth=F DoCkMO=F.
 Initial guess <Sx>= 0.0000 <Sy>= 0.0000 <Sz>= 0.5000 <S**2>= 0.7500 S= 0.5000
 Leave Link  401 at Sun Jan 17 01:00:03 2021, MaxMem=  4026531840 cpu:              54.4 elap:               6.8
 (Enter /opt/ohpc/pub/libs/gaussian/g16-A.03/sandybridge/g16/l502.exe)
 Integral symmetry usage will be decided dynamically.
 UHF open shell SCF:
 Using DIIS extrapolation, IDIIS=    10.
 NGot=  4026531840 LenX=  4025736816 LenY=  4025344314
 Requested convergence on RMS density matrix=1.00D-06 within  32 cycles.
 Requested convergence on MAX density matrix=1.00D-04.
 Requested convergence on             energy=1.00D-04.
 Virtual orbitals will be shifted by   0.500 hartree.
 No special actions if energy rises.
 Dynamic level shift is on during FON iterations.

 Cycle   1  Pass 1  IDiag  1:
 FoFJK:  IHMeth= 1 ICntrl=       0 DoSepK=T KAlg= 0 I1Cent=           0 FoldK=F
 IRaf=         1 NMat=       1 IRICut=       1 DoRegI=T DoRafI=F ISym2E= 0 IDoP0=0 IntGTp=1.
 FoFCou: FMM=F IPFlag=           0 FMFlag=      100000 FMFlg1=           0
         NFxFlg=           0 DoJE=T BraDBF=F KetDBF=F FulRan=T
         wScrn=  0.000000 ICntrl=       500 IOpCl=  0 I1Cent=           0 NGrid=           0
         NMat0=    1 NMatS0=      1 NMatT0=    0 NMatD0=    1 NMtDS0=    0 NMtDT0=    0
 Symmetry not used in FoFCou.
 E= -1092.04268531471    
 DIIS: error= 2.66D-02 at cycle   1 NSaved=   1.
 NSaved= 1 IEnMin= 1 EnMin= -1092.04268531471     IErMin= 1 ErrMin= 2.66D-02
 ErrMax= 2.66D-02  0.00D+00 EMaxC= 1.00D+00 BMatC= 1.50D+00 BMatP= 1.50D+00
 IDIUse=1 WtCom= 1.00D+00 WtEn= 0.00D+00
 Coeff-Com:  0.100D+01
 Coeff:      0.100D+01
 Gap=     0.347 Goal=   None    Shift=    0.500
 T= 1425. Gap= 0.778 NK=0 IS=   90 IE=  601 IFin=   89
          NO(<0.9)=   0  NV(>0.1)=   0     89.00e < EF      0.00e >EF  Err=0.0D+00
 Gap=     0.132 Goal=   None    Shift=    0.500
 T= 1425. Gap= 0.619 NK=0 IS=   89 IE=  601 IFin=   88
          NO(<0.9)=   0  NV(>0.1)=   0     88.00e < EF      0.00e >EF  Err=0.0D+00
 GapD=    0.132 DampG=1.000 DampE=0.500 DampFc=0.5000 IDamp=-1.
 Damping current iteration by 5.00D-01
 RMSDP=2.00D-03 MaxDP=6.54D-02              OVMax= 6.84D-02

 Cycle   2  Pass 1  IDiag  1:
 E= -1092.25718899974     Delta-E=       -0.214503685032 Rises=F Damp=T
 DIIS: error= 1.18D-02 at cycle   2 NSaved=   2.
 NSaved= 2 IEnMin= 2 EnMin= -1092.25718899974     IErMin= 2 ErrMin= 1.18D-02
 ErrMax= 1.18D-02  0.00D+00 EMaxC= 1.00D+00 BMatC= 2.38D-01 BMatP= 1.50D+00
 IDIUse=1 WtCom= 1.00D+00 WtEn= 0.00D+00
 Coeff-Com: -0.500D+00 0.150D+01
 Coeff:     -0.500D+00 0.150D+01
 Gap=     0.299 Goal=   None    Shift=    0.500
 T= 1301. Gap= 0.766 NK=0 IS=   90 IE=  601 IFin=   89
          NO(<0.9)=   0  NV(>0.1)=   0     89.00e < EF      0.00e >EF  Err=0.0D+00
 Gap=     0.200 Goal=   None    Shift=    0.500
 T= 1301. Gap= 0.680 NK=0 IS=   89 IE=  601 IFin=   88
          NO(<0.9)=   0  NV(>0.1)=   0     88.00e < EF      0.00e >EF  Err=0.0D+00
 GapD=    0.200 DampG=1.000 DampE=0.500 DampFc=0.5000 IDamp=-1.
 Damping current iteration by 5.00D-01
 RMSDP=1.09D-03 MaxDP=3.87D-02 DE=-2.15D-01 OVMax= 2.45D-02

 Cycle   3  Pass 1  IDiag  1:
 E= -1092.32876347903     Delta-E=       -0.071574479292 Rises=F Damp=T
 DIIS: error= 5.16D-03 at cycle   3 NSaved=   3.
 NSaved= 3 IEnMin= 3 EnMin= -1092.32876347903     IErMin= 3 ErrMin= 5.16D-03
 ErrMax= 5.16D-03  0.00D+00 EMaxC= 1.00D+00 BMatC= 4.46D-02 BMatP= 2.38D-01
 IDIUse=1 WtCom= 1.00D+00 WtEn= 0.00D+00
 Coeff-Com:  0.494D-01-0.851D+00 0.180D+01
 Coeff:      0.494D-01-0.851D+00 0.180D+01
 Gap=     0.280 Goal=   None    Shift=    0.500
 T= 1061. Gap= 0.778 NK=4 IS=   90 IE=  100 IFin=   89
          NO(<0.9)=   0  NV(>0.1)=   0     89.00e < EF      0.00e >EF  Err=0.0D+00
 Gap=     0.171 Goal=   None    Shift=    0.500
 T= 1061. Gap= 0.671 NK=4 IS=   89 IE=  100 IFin=   88
          NO(<0.9)=   0  NV(>0.1)=   0     88.00e < EF      0.00e >EF  Err=0.0D+00
 GapD=    0.171 DampG=1.000 DampE=1.000 DampFc=1.0000 IDamp=-1.
 RMSDP=6.58D-04 MaxDP=2.93D-02 DE=-7.16D-02 OVMax= 9.85D-03

 Cycle   4  Pass 1  IDiag  1:
 E= -1092.38969754379     Delta-E=       -0.060934064761 Rises=F Damp=F
 DIIS: error= 1.78D-03 at cycle   4 NSaved=   4.
 NSaved= 4 IEnMin= 4 EnMin= -1092.38969754379     IErMin= 4 ErrMin= 1.78D-03
 ErrMax= 1.78D-03  0.00D+00 EMaxC= 1.00D+00 BMatC= 2.05D-03 BMatP= 4.46D-02
 IDIUse=1 WtCom= 1.00D+00 WtEn= 0.00D+00
 Coeff-Com:  0.654D-01-0.170D+00 0.142D+00 0.963D+00
 Coeff:      0.654D-01-0.170D+00 0.142D+00 0.963D+00
 Gap=     0.277 Goal=   None    Shift=    0.500
 T=  553. Gap= 0.777 NK=4 IS=   90 IE=  100 IFin=   89
          NO(<0.9)=   0  NV(>0.1)=   0     89.00e < EF      0.00e >EF  Err=0.0D+00
 Gap=     0.175 Goal=   None    Shift=    0.500
 T=  553. Gap= 0.675 NK=4 IS=   89 IE=  100 IFin=   88
          NO(<0.9)=   0  NV(>0.1)=   0     88.00e < EF      0.00e >EF  Err=0.0D+00
 GapD=    0.175 DampG=1.000 DampE=1.000 DampFc=1.0000 IDamp=-1.
 RMSDP=1.07D-04 MaxDP=3.05D-03 DE=-6.09D-02 OVMax= 8.10D-03

 Cycle   5  Pass 1  IDiag  1:
 E= -1092.39039989811     Delta-E=       -0.000702354314 Rises=F Damp=F
 DIIS: error= 1.25D-03 at cycle   5 NSaved=   5.
 NSaved= 5 IEnMin= 5 EnMin= -1092.39039989811     IErMin= 5 ErrMin= 1.25D-03
 ErrMax= 1.25D-03  0.00D+00 EMaxC= 1.00D+00 BMatC= 4.02D-04 BMatP= 2.05D-03
 IDIUse=1 WtCom= 1.00D+00 WtEn= 0.00D+00
 Coeff-Com:  0.112D-01 0.417D-01-0.140D+00-0.107D+00 0.119D+01
 Coeff:      0.112D-01 0.417D-01-0.140D+00-0.107D+00 0.119D+01
 Gap=     0.277 Goal=   None    Shift=    0.500
 T=   58. Gap= 0.778 NK=4 IS=   90 IE=  100 IFin=   89
          NO(<0.9)=   0  NV(>0.1)=   0     89.00e < EF      0.00e >EF  Err=0.0D+00
 Gap=     0.176 Goal=   None    Shift=    0.500
 T=   58. Gap= 0.676 NK=4 IS=   89 IE=  100 IFin=   88
          NO(<0.9)=   0  NV(>0.1)=   0     88.00e < EF      0.00e >EF  Err=0.0D+00
 GapD=    0.176 DampG=1.000 DampE=1.000 DampFc=1.0000 IDamp=-1.
 RMSDP=7.20D-05 MaxDP=1.82D-03 DE=-7.02D-04 OVMax= 7.02D-03

 Cycle   6  Pass 1  IDiag  1:
 E= -1092.39068469361     Delta-E=       -0.000284795507 Rises=F Damp=F
 DIIS: error= 1.04D-03 at cycle   6 NSaved=   6.
 NSaved= 6 IEnMin= 6 EnMin= -1092.39068469361     IErMin= 6 ErrMin= 1.04D-03
 ErrMax= 1.04D-03  0.00D+00 EMaxC= 1.00D+00 BMatC= 1.47D-04 BMatP= 4.02D-04
 IDIUse=1 WtCom= 1.00D+00 WtEn= 0.00D+00
 Coeff-Com: -0.180D-01 0.686D-01-0.887D-01-0.286D+00-0.617D-01 0.139D+01
 Coeff:     -0.180D-01 0.686D-01-0.887D-01-0.286D+00-0.617D-01 0.139D+01
 Gap=     0.278 Goal=   None    Shift=    0.500
 Gap=     0.177 Goal=   None    Shift=    0.500
 GapD=    0.177 DampG=1.000 DampE=1.000 DampFc=1.0000 IDamp=-1.
 RMSDP=4.61D-05 MaxDP=1.26D-03 DE=-2.85D-04 OVMax= 6.48D-03

 Cycle   7  Pass 1  IDiag  1:
 E= -1092.39085341708     Delta-E=       -0.000168723464 Rises=F Damp=F
 DIIS: error= 8.73D-04 at cycle   7 NSaved=   7.
 NSaved= 7 IEnMin= 7 EnMin= -1092.39085341708     IErMin= 7 ErrMin= 8.73D-04
 ErrMax= 8.73D-04  0.00D+00 EMaxC= 1.00D+00 BMatC= 7.84D-05 BMatP= 1.47D-04
 IDIUse=1 WtCom= 1.00D+00 WtEn= 0.00D+00
 Coeff-Com: -0.105D-01 0.649D-02 0.216D-01-0.366D-01-0.480D+00-0.191D+00
 Coeff-Com:  0.169D+01
 Coeff:     -0.105D-01 0.649D-02 0.216D-01-0.366D-01-0.480D+00-0.191D+00
 Coeff:      0.169D+01
 Gap=     0.279 Goal=   None    Shift=    0.500
 Gap=     0.178 Goal=   None    Shift=    0.500
 RMSDP=3.10D-05 MaxDP=1.02D-03 DE=-1.69D-04 OVMax= 6.02D-03

 Cycle   8  Pass 1  IDiag  1:
 E= -1092.39096412069     Delta-E=       -0.000110703617 Rises=F Damp=F
 DIIS: error= 7.55D-04 at cycle   8 NSaved=   8.
 NSaved= 8 IEnMin= 8 EnMin= -1092.39096412069     IErMin= 8 ErrMin= 7.55D-04
 ErrMax= 7.55D-04  0.00D+00 EMaxC= 1.00D+00 BMatC= 4.64D-05 BMatP= 7.84D-05
 IDIUse=1 WtCom= 1.00D+00 WtEn= 0.00D+00
 Coeff-Com:  0.363D-02-0.350D-01 0.618D-01 0.134D+00-0.256D+00-0.104D+01
 Coeff-Com:  0.684D+00 0.145D+01
 Coeff:      0.363D-02-0.350D-01 0.618D-01 0.134D+00-0.256D+00-0.104D+01
 Coeff:      0.684D+00 0.145D+01
 Gap=     0.279 Goal=   None    Shift=    0.500
 Gap=     0.179 Goal=   None    Shift=    0.500
 RMSDP=2.18D-05 MaxDP=8.67D-04 DE=-1.11D-04 OVMax= 5.52D-03

 Cycle   9  Pass 1  IDiag  1:
 E= -1092.39103730338     Delta-E=       -0.000073182690 Rises=F Damp=F
 DIIS: error= 6.11D-04 at cycle   9 NSaved=   9.
 NSaved= 9 IEnMin= 9 EnMin= -1092.39103730338     IErMin= 9 ErrMin= 6.11D-04
 ErrMax= 6.11D-04  0.00D+00 EMaxC= 1.00D+00 BMatC= 2.41D-05 BMatP= 4.64D-05
 IDIUse=1 WtCom= 1.00D+00 WtEn= 0.00D+00
 Coeff-Com:  0.583D-02-0.147D-01 0.108D-01 0.254D-01 0.221D+00-0.281D+00
 Coeff-Com: -0.729D+00-0.492D+00 0.225D+01
 Coeff:      0.583D-02-0.147D-01 0.108D-01 0.254D-01 0.221D+00-0.281D+00
 Coeff:     -0.729D+00-0.492D+00 0.225D+01
 Gap=     0.279 Goal=   None    Shift=    0.500
 Gap=     0.180 Goal=   None    Shift=    0.500
 RMSDP=1.58D-05 MaxDP=7.70D-04 DE=-7.32D-05 OVMax= 4.82D-03

 Cycle  10  Pass 1  IDiag  1:
 E= -1092.39108321197     Delta-E=       -0.000045908583 Rises=F Damp=F
 DIIS: error= 4.92D-04 at cycle  10 NSaved=  10.
 NSaved=10 IEnMin=10 EnMin= -1092.39108321197     IErMin=10 ErrMin= 4.92D-04
 ErrMax= 4.92D-04  0.00D+00 EMaxC= 1.00D+00 BMatC= 1.36D-05 BMatP= 2.41D-05
 IDIUse=1 WtCom= 1.00D+00 WtEn= 0.00D+00
 Coeff-Com:  0.113D-02-0.214D-02 0.295D-03-0.520D-01 0.157D+00 0.181D+00
 Coeff-Com: -0.471D+00-0.526D+00-0.256D+00 0.197D+01
 Coeff:      0.113D-02-0.214D-02 0.295D-03-0.520D-01 0.157D+00 0.181D+00
 Coeff:     -0.471D+00-0.526D+00-0.256D+00 0.197D+01
 Gap=     0.279 Goal=   None    Shift=    0.500
 Gap=     0.180 Goal=   None    Shift=    0.500
 RMSDP=1.10D-05 MaxDP=5.49D-04 DE=-4.59D-05 OVMax= 3.75D-03

 Cycle  11  Pass 1  IDiag  1:
 E= -1092.39110801360     Delta-E=       -0.000024801633 Rises=F Damp=F
 DIIS: error= 3.81D-04 at cycle  11 NSaved=  11.
 NSaved=11 IEnMin=11 EnMin= -1092.39110801360     IErMin=11 ErrMin= 3.81D-04
 ErrMax= 3.81D-04  0.00D+00 EMaxC= 1.00D+00 BMatC= 8.05D-06 BMatP= 1.36D-05
 IDIUse=1 WtCom= 1.00D+00 WtEn= 0.00D+00
 Coeff-Com: -0.204D-02-0.968D-03 0.880D-02-0.503D-01-0.633D-01 0.233D+00
 Coeff-Com:  0.241D+00 0.633D-01-0.174D+01 0.675D-01 0.224D+01
 Coeff:     -0.204D-02-0.968D-03 0.880D-02-0.503D-01-0.633D-01 0.233D+00
 Coeff:      0.241D+00 0.633D-01-0.174D+01 0.675D-01 0.224D+01
 Gap=     0.279 Goal=   None    Shift=    0.500
 Gap=     0.181 Goal=   None    Shift=    0.500
 RMSDP=9.18D-06 MaxDP=4.46D-04 DE=-2.48D-05 OVMax= 2.93D-03

 Cycle  12  Pass 1  IDiag  1:
 E= -1092.39112184816     Delta-E=       -0.000013834558 Rises=F Damp=F
 DIIS: error= 3.05D-04 at cycle  12 NSaved=  12.
 NSaved=12 IEnMin=12 EnMin= -1092.39112184816     IErMin=12 ErrMin= 3.05D-04
 ErrMax= 3.05D-04  0.00D+00 EMaxC= 1.00D+00 BMatC= 5.23D-06 BMatP= 8.05D-06
 IDIUse=1 WtCom= 1.00D+00 WtEn= 0.00D+00
 Coeff-Com:  0.588D-03-0.120D-01 0.219D-01-0.763D-03-0.104D+00-0.104D+00
 Coeff-Com:  0.424D+00 0.320D+00-0.330D+00-0.174D+01 0.487D+00 0.204D+01
 Coeff:      0.588D-03-0.120D-01 0.219D-01-0.763D-03-0.104D+00-0.104D+00
 Coeff:      0.424D+00 0.320D+00-0.330D+00-0.174D+01 0.487D+00 0.204D+01
 Gap=     0.279 Goal=   None    Shift=    0.500
 Gap=     0.181 Goal=   None    Shift=    0.500
 RMSDP=6.40D-06 MaxDP=3.28D-04 DE=-1.38D-05 OVMax= 2.27D-03

 Cycle  13  Pass 1  IDiag  1:
 E= -1092.39112906781     Delta-E=       -0.000007219650 Rises=F Damp=F
 DIIS: error= 2.28D-04 at cycle  13 NSaved=  13.
 NSaved=13 IEnMin=13 EnMin= -1092.39112906781     IErMin=13 ErrMin= 2.28D-04
 ErrMax= 2.28D-04  0.00D+00 EMaxC= 1.00D+00 BMatC= 2.97D-06 BMatP= 5.23D-06
 IDIUse=1 WtCom= 1.00D+00 WtEn= 0.00D+00
 Coeff-Com:  0.181D-02-0.933D-02 0.126D-01 0.970D-02 0.109D-01-0.152D+00
 Coeff-Com:  0.257D-01 0.214D-01 0.802D+00-0.784D+00-0.611D+00-0.921D+00
 Coeff-Com:  0.259D+01
 Coeff:      0.181D-02-0.933D-02 0.126D-01 0.970D-02 0.109D-01-0.152D+00
 Coeff:      0.257D-01 0.214D-01 0.802D+00-0.784D+00-0.611D+00-0.921D+00
 Coeff:      0.259D+01
 Gap=     0.279 Goal=   None    Shift=    0.500
 Gap=     0.181 Goal=   None    Shift=    0.500
 RMSDP=4.57D-06 MaxDP=2.15D-04 DE=-7.22D-06 OVMax= 1.65D-03

 Cycle  14  Pass 1  IDiag  1:
 E= -1092.39113263468     Delta-E=       -0.000003566869 Rises=F Damp=F
 DIIS: error= 1.73D-04 at cycle  14 NSaved=  14.
 NSaved=14 IEnMin=14 EnMin= -1092.39113263468     IErMin=14 ErrMin= 1.73D-04
 ErrMax= 1.73D-04  0.00D+00 EMaxC= 1.00D+00 BMatC= 1.66D-06 BMatP= 2.97D-06
 IDIUse=1 WtCom= 1.00D+00 WtEn= 0.00D+00
 Coeff-Com:  0.839D-03-0.166D-02 0.341D-03-0.364D-02 0.606D-01-0.279D-01
 Coeff-Com: -0.185D+00-0.137D+00 0.531D+00 0.420D+00-0.412D+00-0.190D+01
 Coeff-Com:  0.845D+00 0.181D+01
 Coeff:      0.839D-03-0.166D-02 0.341D-03-0.364D-02 0.606D-01-0.279D-01
 Coeff:     -0.185D+00-0.137D+00 0.531D+00 0.420D+00-0.412D+00-0.190D+01
 Coeff:      0.845D+00 0.181D+01
 Gap=     0.279 Goal=   None    Shift=    0.500
 Gap=     0.181 Goal=   None    Shift=    0.500
 RMSDP=3.12D-06 MaxDP=1.33D-04 DE=-3.57D-06 OVMax= 1.21D-03

 Cycle  15  Pass 1  IDiag  1:
 E= -1092.39113442070     Delta-E=       -0.000001786022 Rises=F Damp=F
 DIIS: error= 1.28D-04 at cycle  15 NSaved=  15.
 NSaved=15 IEnMin=15 EnMin= -1092.39113442070     IErMin=15 ErrMin= 1.28D-04
 ErrMax= 1.28D-04  0.00D+00 EMaxC= 1.00D+00 BMatC= 8.40D-07 BMatP= 1.66D-06
 IDIUse=1 WtCom= 1.00D+00 WtEn= 0.00D+00
 Coeff-Com: -0.492D-03 0.953D-03-0.213D-03-0.103D-01-0.382D-02 0.626D-01
 Coeff-Com: -0.667D-02 0.231D-01-0.442D+00 0.360D+00 0.405D+00 0.133D+00
 Coeff-Com: -0.122D+01-0.115D+01 0.284D+01
 Coeff:     -0.492D-03 0.953D-03-0.213D-03-0.103D-01-0.382D-02 0.626D-01
 Coeff:     -0.667D-02 0.231D-01-0.442D+00 0.360D+00 0.405D+00 0.133D+00
 Coeff:     -0.122D+01-0.115D+01 0.284D+01
 Gap=     0.279 Goal=   None    Shift=    0.500
 Gap=     0.181 Goal=   None    Shift=    0.500
 RMSDP=2.25D-06 MaxDP=9.79D-05 DE=-1.79D-06 OVMax= 9.07D-04

 Cycle  16  Pass 1  IDiag  1:
 E= -1092.39113535643     Delta-E=       -0.000000935732 Rises=F Damp=F
 DIIS: error= 9.59D-05 at cycle  16 NSaved=  16.
 NSaved=16 IEnMin=16 EnMin= -1092.39113535643     IErMin=16 ErrMin= 9.59D-05
 ErrMax= 9.59D-05  0.00D+00 EMaxC= 1.00D+00 BMatC= 4.69D-07 BMatP= 8.40D-07
 IDIUse=1 WtCom= 1.00D+00 WtEn= 0.00D+00
 Coeff-Com: -0.234D-03-0.101D-02 0.287D-02-0.662D-02-0.175D-01 0.220D-01
 Coeff-Com:  0.757D-01 0.355D-01-0.315D+00-0.265D-01 0.322D+00 0.484D+00
 Coeff-Com: -0.615D+00-0.110D+01 0.349D+00 0.179D+01
 Coeff:     -0.234D-03-0.101D-02 0.287D-02-0.662D-02-0.175D-01 0.220D-01
 Coeff:      0.757D-01 0.355D-01-0.315D+00-0.265D-01 0.322D+00 0.484D+00
 Coeff:     -0.615D+00-0.110D+01 0.349D+00 0.179D+01
 Gap=     0.279 Goal=   None    Shift=    0.500
 Gap=     0.181 Goal=   None    Shift=    0.500
 RMSDP=1.50D-06 MaxDP=7.61D-05 DE=-9.36D-07 OVMax= 6.64D-04

 Cycle  17  Pass 1  IDiag  1:
 E= -1092.39113585372     Delta-E=       -0.000000497284 Rises=F Damp=F
 DIIS: error= 7.19D-05 at cycle  17 NSaved=  17.
 NSaved=17 IEnMin=17 EnMin= -1092.39113585372     IErMin=17 ErrMin= 7.19D-05
 ErrMax= 7.19D-05  0.00D+00 EMaxC= 1.00D+00 BMatC= 2.58D-07 BMatP= 4.69D-07
 IDIUse=1 WtCom= 1.00D+00 WtEn= 0.00D+00
 Coeff-Com:  0.207D-03-0.205D-02 0.342D-02-0.835D-03-0.821D-02-0.234D-01
 Coeff-Com:  0.652D-01-0.382D-02 0.525D-01-0.235D+00 0.133D-01 0.150D+00
 Coeff-Com:  0.372D+00-0.160D+00-0.154D+01 0.579D+00 0.173D+01
 Coeff:      0.207D-03-0.205D-02 0.342D-02-0.835D-03-0.821D-02-0.234D-01
 Coeff:      0.652D-01-0.382D-02 0.525D-01-0.235D+00 0.133D-01 0.150D+00
 Coeff:      0.372D+00-0.160D+00-0.154D+01 0.579D+00 0.173D+01
 Gap=     0.279 Goal=   None    Shift=    0.500
 Gap=     0.181 Goal=   None    Shift=    0.500
 RMSDP=1.06D-06 MaxDP=5.92D-05 DE=-4.97D-07 OVMax= 5.01D-04

 Cycle  18  Pass 1  IDiag  1:
 E= -1092.39113614229     Delta-E=       -0.000000288572 Rises=F Damp=F
 DIIS: error= 5.35D-05 at cycle  18 NSaved=  18.
 NSaved=18 IEnMin=18 EnMin= -1092.39113614229     IErMin=18 ErrMin= 5.35D-05
 ErrMax= 5.35D-05  0.00D+00 EMaxC= 1.00D+00 BMatC= 1.41D-07 BMatP= 2.58D-07
 IDIUse=1 WtCom= 1.00D+00 WtEn= 0.00D+00
 Coeff-Com:  0.248D-03-0.912D-03 0.953D-03 0.105D-02 0.684D-02-0.169D-01
 Coeff-Com: -0.149D-01-0.239D-01 0.179D+00-0.689D-01-0.131D+00-0.305D+00
 Coeff-Com:  0.561D+00 0.432D+00-0.715D+00-0.113D+01 0.114D+00 0.212D+01
 Coeff:      0.248D-03-0.912D-03 0.953D-03 0.105D-02 0.684D-02-0.169D-01
 Coeff:     -0.149D-01-0.239D-01 0.179D+00-0.689D-01-0.131D+00-0.305D+00
 Coeff:      0.561D+00 0.432D+00-0.715D+00-0.113D+01 0.114D+00 0.212D+01
 Gap=     0.279 Goal=   None    Shift=    0.500
 Gap=     0.181 Goal=   None    Shift=    0.500
 RMSDP=8.31D-07 MaxDP=4.55D-05 DE=-2.89D-07 OVMax= 3.84D-04

 SCF Done:  E(ULC-wHPBE) =  -1092.39113614     A.U. after   18 cycles
            NFock= 18  Conv=0.83D-06     -V/T= 2.0044
 <Sx>= 0.0000 <Sy>= 0.0000 <Sz>= 0.5000 <S**2>= 0.7665 S= 0.5082
 <L.S>= 0.000000000000E+00
 KE= 1.087646922704D+03 PE=-6.636518411810D+03 EE= 2.399802544363D+03
 Annihilation of the first spin contaminant:
 S**2 before annihilation     0.7665,   after     0.7502
 Leave Link  502 at Sun Jan 17 01:17:10 2021, MaxMem=  4026531840 cpu:            8176.8 elap:            1027.0
 (Enter /opt/ohpc/pub/libs/gaussian/g16-A.03/sandybridge/g16/l508.exe)
 QCSCF skips out because SCF is already converged.
 Leave Link  508 at Sun Jan 17 01:17:10 2021, MaxMem=  4026531840 cpu:               0.1 elap:               0.0
 (Enter /opt/ohpc/pub/libs/gaussian/g16-A.03/sandybridge/g16/l601.exe)
 Copying SCF densities to generalized density rwf, IOpCl= 1 IROHF=0.

 **********************************************************************

            Population analysis using the SCF density.

 **********************************************************************

 Orbital symmetries:
 Alpha Orbitals:
       Occupied  (A) (A) (A) (A) (A) (A) (A) (A) (A) (A) (A) (A)
                 (A) (A) (A) (A) (A) (A) (A) (A) (A) (A) (A) (A)
                 (A) (A) (A) (A) (A) (A) (A) (A) (A) (A) (A) (A)
                 (A) (A) (A) (A) (A) (A) (A) (A) (A) (A) (A) (A)
                 (A) (A) (A) (A) (A) (A) (A) (A) (A) (A) (A) (A)
                 (A) (A) (A) (A) (A) (A) (A) (A) (A) (A) (A) (A)
                 (A) (A) (A) (A) (A) (A) (A) (A) (A) (A) (A) (A)
                 (A) (A) (A) (A) (A)
       Virtual   (A) (A) (A) (A) (A) (A) (A) (A) (A) (A) (A) (A)
                 (A) (A) (A) (A) (A) (A) (A) (A) (A) (A) (A) (A)
                 (A) (A) (A) (A) (A) (A) (A) (A) (A) (A) (A) (A)
                 (A) (A) (A) (A) (A) (A) (A) (A) (A) (A) (A) (A)
                 (A) (A) (A) (A) (A) (A) (A) (A) (A) (A) (A) (A)
                 (A) (A) (A) (A) (A) (A) (A) (A) (A) (A) (A) (A)
                 (A) (A) (A) (A) (A) (A) (A) (A) (A) (A) (A) (A)
                 (A) (A) (A) (A) (A) (A) (A) (A) (A) (A) (A) (A)
                 (A) (A) (A) (A) (A) (A) (A) (A) (A) (A) (A) (A)
                 (A) (A) (A) (A) (A) (A) (A) (A) (A) (A) (A) (A)
                 (A) (A) (A) (A) (A) (A) (A) (A) (A) (A) (A) (A)
                 (A) (A) (A) (A) (A) (A) (A) (A) (A) (A) (A) (A)
                 (A) (A) (A) (A) (A) (A) (A) (A) (A) (A) (A) (A)
                 (A) (A) (A) (A) (A) (A) (A) (A) (A) (A) (A) (A)
                 (A) (A) (A) (A) (A) (A) (A) (A) (A) (A) (A) (A)
                 (A) (A) (A) (A) (A) (A) (A) (A) (A) (A) (A) (A)
                 (A) (A) (A) (A) (A) (A) (A) (A) (A) (A) (A) (A)
                 (A) (A) (A) (A) (A) (A) (A) (A) (A) (A) (A) (A)
                 (A) (A) (A) (A) (A) (A) (A) (A) (A) (A) (A) (A)
                 (A) (A) (A) (A) (A) (A) (A) (A) (A) (A) (A) (A)
                 (A) (A) (A) (A) (A) (A) (A) (A) (A) (A) (A) (A)
                 (A) (A) (A) (A) (A) (A) (A) (A) (A) (A) (A) (A)
                 (A) (A) (A) (A) (A) (A) (A) (A) (A) (A) (A) (A)
                 (A) (A) (A) (A) (A) (A) (A) (A) (A) (A) (A) (A)
                 (A) (A) (A) (A) (A) (A) (A) (A) (A) (A) (A) (A)
                 (A) (A) (A) (A) (A) (A) (A) (A) (A) (A) (A) (A)
                 (A) (A) (A) (A) (A) (A) (A) (A) (A) (A) (A) (A)
                 (A) (A) (A) (A) (A) (A) (A) (A) (A) (A) (A) (A)
                 (A) (A) (A) (A) (A) (A) (A) (A) (A) (A) (A) (A)
                 (A) (A) (A) (A) (A) (A) (A) (A) (A) (A) (A) (A)
                 (A) (A) (A) (A) (A) (A) (A) (A) (A) (A) (A) (A)
                 (A) (A) (A) (A) (A) (A) (A) (A) (A) (A) (A) (A)
                 (A) (A) (A) (A) (A) (A) (A) (A) (A) (A) (A) (A)
                 (A) (A) (A) (A) (A) (A) (A) (A) (A) (A) (A) (A)
                 (A) (A) (A) (A) (A) (A) (A) (A) (A) (A) (A) (A)
                 (A) (A) (A) (A) (A) (A) (A) (A) (A) (A) (A) (A)
                 (A) (A) (A) (A) (A) (A) (A) (A) (A) (A) (A) (A)
                 (A) (A) (A) (A) (A) (A) (A) (A) (A) (A) (A) (A)
                 (A) (A) (A) (A) (A) (A) (A) (A) (A) (A) (A) (A)
                 (A) (A) (A) (A) (A) (A) (A) (A) (A) (A) (A) (A)
                 (A) (A) (A) (A) (A) (A) (A) (A) (A) (A) (A) (A)
                 (A) (A) (A) (A) (A) (A) (A) (A) (A) (A) (A) (A)
                 (A) (A) (A) (A) (A) (A) (A) (A)
 Beta  Orbitals:
       Occupied  (A) (A) (A) (A) (A) (A) (A) (A) (A) (A) (A) (A)
                 (A) (A) (A) (A) (A) (A) (A) (A) (A) (A) (A) (A)
                 (A) (A) (A) (A) (A) (A) (A) (A) (A) (A) (A) (A)
                 (A) (A) (A) (A) (A) (A) (A) (A) (A) (A) (A) (A)
                 (A) (A) (A) (A) (A) (A) (A) (A) (A) (A) (A) (A)
                 (A) (A) (A) (A) (A) (A) (A) (A) (A) (A) (A) (A)
                 (A) (A) (A) (A) (A) (A) (A) (A) (A) (A) (A) (A)
                 (A) (A) (A) (A)
       Virtual   (A) (A) (A) (A) (A) (A) (A) (A) (A) (A) (A) (A)
                 (A) (A) (A) (A) (A) (A) (A) (A) (A) (A) (A) (A)
                 (A) (A) (A) (A) (A) (A) (A) (A) (A) (A) (A) (A)
                 (A) (A) (A) (A) (A) (A) (A) (A) (A) (A) (A) (A)
                 (A) (A) (A) (A) (A) (A) (A) (A) (A) (A) (A) (A)
                 (A) (A) (A) (A) (A) (A) (A) (A) (A) (A) (A) (A)
                 (A) (A) (A) (A) (A) (A) (A) (A) (A) (A) (A) (A)
                 (A) (A) (A) (A) (A) (A) (A) (A) (A) (A) (A) (A)
                 (A) (A) (A) (A) (A) (A) (A) (A) (A) (A) (A) (A)
                 (A) (A) (A) (A) (A) (A) (A) (A) (A) (A) (A) (A)
                 (A) (A) (A) (A) (A) (A) (A) (A) (A) (A) (A) (A)
                 (A) (A) (A) (A) (A) (A) (A) (A) (A) (A) (A) (A)
                 (A) (A) (A) (A) (A) (A) (A) (A) (A) (A) (A) (A)
                 (A) (A) (A) (A) (A) (A) (A) (A) (A) (A) (A) (A)
                 (A) (A) (A) (A) (A) (A) (A) (A) (A) (A) (A) (A)
                 (A) (A) (A) (A) (A) (A) (A) (A) (A) (A) (A) (A)
                 (A) (A) (A) (A) (A) (A) (A) (A) (A) (A) (A) (A)
                 (A) (A) (A) (A) (A) (A) (A) (A) (A) (A) (A) (A)
                 (A) (A) (A) (A) (A) (A) (A) (A) (A) (A) (A) (A)
                 (A) (A) (A) (A) (A) (A) (A) (A) (A) (A) (A) (A)
                 (A) (A) (A) (A) (A) (A) (A) (A) (A) (A) (A) (A)
                 (A) (A) (A) (A) (A) (A) (A) (A) (A) (A) (A) (A)
                 (A) (A) (A) (A) (A) (A) (A) (A) (A) (A) (A) (A)
                 (A) (A) (A) (A) (A) (A) (A) (A) (A) (A) (A) (A)
                 (A) (A) (A) (A) (A) (A) (A) (A) (A) (A) (A) (A)
                 (A) (A) (A) (A) (A) (A) (A) (A) (A) (A) (A) (A)
                 (A) (A) (A) (A) (A) (A) (A) (A) (A) (A) (A) (A)
                 (A) (A) (A) (A) (A) (A) (A) (A) (A) (A) (A) (A)
                 (A) (A) (A) (A) (A) (A) (A) (A) (A) (A) (A) (A)
                 (A) (A) (A) (A) (A) (A) (A) (A) (A) (A) (A) (A)
                 (A) (A) (A) (A) (A) (A) (A) (A) (A) (A) (A) (A)
                 (A) (A) (A) (A) (A) (A) (A) (A) (A) (A) (A) (A)
                 (A) (A) (A) (A) (A) (A) (A) (A) (A) (A) (A) (A)
                 (A) (A) (A) (A) (A) (A) (A) (A) (A) (A) (A) (A)
                 (A) (A) (A) (A) (A) (A) (A) (A) (A) (A) (A) (A)
                 (A) (A) (A) (A) (A) (A) (A) (A) (A) (A) (A) (A)
                 (A) (A) (A) (A) (A) (A) (A) (A) (A) (A) (A) (A)
                 (A) (A) (A) (A) (A) (A) (A) (A) (A) (A) (A) (A)
                 (A) (A) (A) (A) (A) (A) (A) (A) (A) (A) (A) (A)
                 (A) (A) (A) (A) (A) (A) (A) (A) (A) (A) (A) (A)
                 (A) (A) (A) (A) (A) (A) (A) (A) (A) (A) (A) (A)
                 (A) (A) (A) (A) (A) (A) (A) (A) (A) (A) (A) (A)
                 (A) (A) (A) (A) (A) (A) (A) (A) (A)
 The electronic state is 2-A.
 Alpha  occ. eigenvalues --  -19.01480 -19.01459 -19.01459 -14.31865 -10.18693
 Alpha  occ. eigenvalues --  -10.18670 -10.18658 -10.17345 -10.17343 -10.17333
 Alpha  occ. eigenvalues --  -10.14563 -10.14521 -10.14483 -10.13810 -10.13780
 Alpha  occ. eigenvalues --  -10.13769 -10.13447 -10.13423 -10.13397 -10.12551
 Alpha  occ. eigenvalues --  -10.12516 -10.12505 -10.12136 -10.12116 -10.12089
 Alpha  occ. eigenvalues --   -1.21538  -1.21511  -1.21499  -1.16735  -1.03779
 Alpha  occ. eigenvalues --   -1.03767  -1.01741  -0.94664  -0.94509  -0.92901
 Alpha  occ. eigenvalues --   -0.92747  -0.92459  -0.90625  -0.87121  -0.86636
 Alpha  occ. eigenvalues --   -0.84527  -0.81442  -0.80273  -0.79647  -0.78318
 Alpha  occ. eigenvalues --   -0.77535  -0.75284  -0.73377  -0.73344  -0.70912
 Alpha  occ. eigenvalues --   -0.69799  -0.69761  -0.68599  -0.66466  -0.66260
 Alpha  occ. eigenvalues --   -0.63880  -0.63857  -0.63807  -0.63152  -0.63103
 Alpha  occ. eigenvalues --   -0.63030  -0.61089  -0.60935  -0.60919  -0.60584
 Alpha  occ. eigenvalues --   -0.60153  -0.58844  -0.58824  -0.57887  -0.57733
 Alpha  occ. eigenvalues --   -0.57502  -0.57455  -0.57420  -0.55180  -0.53878
 Alpha  occ. eigenvalues --   -0.53824  -0.53078  -0.51368  -0.51260  -0.50147
 Alpha  occ. eigenvalues --   -0.50041  -0.50016  -0.47598  -0.46277  -0.45327
 Alpha  occ. eigenvalues --   -0.45135  -0.42102  -0.41964  -0.37960
 Alpha virt. eigenvalues --   -0.10011  -0.08741  -0.08635  -0.07754  -0.07608
 Alpha virt. eigenvalues --   -0.04355  -0.00696   0.00671   0.00798   0.01516
 Alpha virt. eigenvalues --    0.01714   0.02311   0.03267   0.03360   0.03711
 Alpha virt. eigenvalues --    0.03913   0.04732   0.04771   0.05014   0.06790
 Alpha virt. eigenvalues --    0.07035   0.07300   0.07453   0.07732   0.08180
 Alpha virt. eigenvalues --    0.08255   0.08370   0.08446   0.08627   0.08821
 Alpha virt. eigenvalues --    0.08910   0.09295   0.09833   0.10097   0.12409
 Alpha virt. eigenvalues --    0.12908   0.13064   0.13809   0.14267   0.14661
 Alpha virt. eigenvalues --    0.15282   0.15326   0.15628   0.16129   0.16447
 Alpha virt. eigenvalues --    0.16720   0.16814   0.17105   0.17658   0.18094
 Alpha virt. eigenvalues --    0.18284   0.18631   0.18837   0.18982   0.19265
 Alpha virt. eigenvalues --    0.20536   0.20675   0.21084   0.22073   0.22369
 Alpha virt. eigenvalues --    0.23138   0.23274   0.23353   0.23724   0.24154
 Alpha virt. eigenvalues --    0.24310   0.25245   0.25668   0.25752   0.26384
 Alpha virt. eigenvalues --    0.27084   0.27215   0.27457   0.28509   0.28900
 Alpha virt. eigenvalues --    0.29426   0.29615   0.30020   0.30216   0.30960
 Alpha virt. eigenvalues --    0.31637   0.31889   0.32517   0.32819   0.32905
 Alpha virt. eigenvalues --    0.33102   0.33474   0.33694   0.34046   0.34527
 Alpha virt. eigenvalues --    0.34732   0.35004   0.35657   0.36248   0.36541
 Alpha virt. eigenvalues --    0.36712   0.37015   0.37122   0.37568   0.37810
 Alpha virt. eigenvalues --    0.38495   0.38719   0.38946   0.39332   0.40329
 Alpha virt. eigenvalues --    0.40673   0.40968   0.41249   0.41312   0.41539
 Alpha virt. eigenvalues --    0.41691   0.41758   0.42294   0.42476   0.42773
 Alpha virt. eigenvalues --    0.43322   0.43339   0.43684   0.43782   0.44548
 Alpha virt. eigenvalues --    0.44908   0.45194   0.45486   0.46151   0.47652
 Alpha virt. eigenvalues --    0.48352   0.48929   0.49016   0.49477   0.49512
 Alpha virt. eigenvalues --    0.51175   0.52127   0.53486   0.54611   0.54681
 Alpha virt. eigenvalues --    0.55598   0.56618   0.57273   0.57480   0.57748
 Alpha virt. eigenvalues --    0.58313   0.58614   0.59427   0.59733   0.60191
 Alpha virt. eigenvalues --    0.61596   0.61660   0.62184   0.62932   0.63531
 Alpha virt. eigenvalues --    0.64258   0.64943   0.65237   0.65680   0.66288
 Alpha virt. eigenvalues --    0.66681   0.67334   0.67460   0.68677   0.68931
 Alpha virt. eigenvalues --    0.69268   0.71532   0.72816   0.73106   0.73751
 Alpha virt. eigenvalues --    0.75237   0.75923   0.77571   0.78198   0.79712
 Alpha virt. eigenvalues --    0.81085   0.82135   0.84952   0.86052   0.86243
 Alpha virt. eigenvalues --    0.87243   0.87518   0.88426   1.05659   1.07818
 Alpha virt. eigenvalues --    1.08166   1.12025   1.12478   1.13212   1.14680
 Alpha virt. eigenvalues --    1.14885   1.15049   1.15733   1.16311   1.16946
 Alpha virt. eigenvalues --    1.17271   1.17671   1.17989   1.18948   1.19301
 Alpha virt. eigenvalues --    1.20651   1.20840   1.21101   1.21565   1.21892
 Alpha virt. eigenvalues --    1.22189   1.22540   1.23230   1.23397   1.23971
 Alpha virt. eigenvalues --    1.24191   1.25486   1.26041   1.26592   1.27077
 Alpha virt. eigenvalues --    1.27621   1.27863   1.29788   1.30166   1.30459
 Alpha virt. eigenvalues --    1.31216   1.31494   1.31679   1.33124   1.33487
 Alpha virt. eigenvalues --    1.33560   1.34319   1.34580   1.34844   1.34940
 Alpha virt. eigenvalues --    1.35306   1.36210   1.36554   1.36855   1.37190
 Alpha virt. eigenvalues --    1.37419   1.38079   1.38608   1.38832   1.39479
 Alpha virt. eigenvalues --    1.39823   1.40485   1.40901   1.41406   1.42847
 Alpha virt. eigenvalues --    1.43151   1.43268   1.43434   1.43905   1.44237
 Alpha virt. eigenvalues --    1.44334   1.44590   1.45137   1.45636   1.46102
 Alpha virt. eigenvalues --    1.46713   1.46934   1.47237   1.47271   1.47812
 Alpha virt. eigenvalues --    1.48157   1.48319   1.48402   1.49736   1.49918
 Alpha virt. eigenvalues --    1.50785   1.52146   1.52534   1.53119   1.53711
 Alpha virt. eigenvalues --    1.55668   1.56445   1.56711   1.58535   1.58644
 Alpha virt. eigenvalues --    1.58976   1.60158   1.60368   1.60926   1.63816
 Alpha virt. eigenvalues --    1.64629   1.67085   1.67176   1.68077   1.68904
 Alpha virt. eigenvalues --    1.69164   1.69231   1.69311   1.69879   1.70394
 Alpha virt. eigenvalues --    1.70917   1.72079   1.72286   1.72507   1.72592
 Alpha virt. eigenvalues --    1.72671   1.72685   1.73112   1.73444   1.73936
 Alpha virt. eigenvalues --    1.74283   1.74677   1.74819   1.76136   1.77691
 Alpha virt. eigenvalues --    1.78281   1.78884   1.79669   1.79979   1.80760
 Alpha virt. eigenvalues --    1.82250   1.82451   1.82799   1.83089   1.83609
 Alpha virt. eigenvalues --    1.83710   1.83956   1.84153   1.84257   1.84361
 Alpha virt. eigenvalues --    1.84758   1.85877   1.90860   1.91232   1.91627
 Alpha virt. eigenvalues --    1.94027   1.94122   1.94985   1.96619   1.96874
 Alpha virt. eigenvalues --    1.97490   2.00045   2.00784   2.01584   2.02835
 Alpha virt. eigenvalues --    2.03964   2.04947   2.05970   2.06851   2.09177
 Alpha virt. eigenvalues --    2.09307   2.10116   2.11072   2.11725   2.12052
 Alpha virt. eigenvalues --    2.12940   2.13509   2.13574   2.15850   2.19963
 Alpha virt. eigenvalues --    2.20053   2.20230   2.20370   2.20420   2.21021
 Alpha virt. eigenvalues --    2.21390   2.21857   2.23226   2.23697   2.24909
 Alpha virt. eigenvalues --    2.25035   2.25743   2.25918   2.26630   2.27784
 Alpha virt. eigenvalues --    2.27838   2.28172   2.28212   2.28326   2.28564
 Alpha virt. eigenvalues --    2.28823   2.28927   2.29187   2.30609   2.30685
 Alpha virt. eigenvalues --    2.30905   2.33228   2.33374   2.37442   2.37749
 Alpha virt. eigenvalues --    2.37980   2.39673   2.40785   2.41063   2.41256
 Alpha virt. eigenvalues --    2.45402   2.45555   2.48970   2.49035   2.49188
 Alpha virt. eigenvalues --    2.49503   2.49635   2.50690   2.51265   2.51672
 Alpha virt. eigenvalues --    2.51948   2.53713   2.53952   2.54532   2.54839
 Alpha virt. eigenvalues --    2.56767   2.57242   2.62289   2.62505   2.62633
 Alpha virt. eigenvalues --    2.62902   2.63316   2.63553   2.64745   2.64965
 Alpha virt. eigenvalues --    2.65558   2.66000   2.66489   2.66926   2.68441
 Alpha virt. eigenvalues --    2.68860   2.69845   2.72022   2.73720   2.74502
 Alpha virt. eigenvalues --    2.77627   2.78244   2.79080   2.79537   2.83613
 Alpha virt. eigenvalues --    2.84011   2.85781   2.85829   2.86046   2.90497
 Alpha virt. eigenvalues --    2.90727   2.90808   2.91193   2.92133   2.94410
 Alpha virt. eigenvalues --    2.95129   2.95421   2.95774   2.96466   2.97832
 Alpha virt. eigenvalues --    2.97876   2.97884   2.98160   2.98802   2.98962
 Alpha virt. eigenvalues --    3.00770   3.01237   3.03423   3.04690   3.05403
 Alpha virt. eigenvalues --    3.05812   3.07399   3.07796   3.09713   3.11069
 Alpha virt. eigenvalues --    3.12027   3.15906   3.16719   3.17239   3.18530
 Alpha virt. eigenvalues --    3.18930   3.19222   3.19480   3.21120   3.21160
 Alpha virt. eigenvalues --    3.21197   3.21480   3.22277   3.23135   3.26193
 Alpha virt. eigenvalues --    3.26839   3.27943   3.28418   3.29544   3.32813
 Alpha virt. eigenvalues --    3.33658   3.34389   3.34748   3.44212   3.44617
 Alpha virt. eigenvalues --    3.45953   3.47860   3.48232   3.59911   3.72928
 Alpha virt. eigenvalues --    3.73287   3.87430   3.87708   3.87880   4.07280
 Alpha virt. eigenvalues --    4.07876   4.07966  21.13880  21.15629  21.15809
 Alpha virt. eigenvalues --   21.58328  21.61783  21.62164  21.66440  21.72699
 Alpha virt. eigenvalues --   21.72791  21.72890  21.74681  21.75603  21.80706
 Alpha virt. eigenvalues --   21.85191  21.85949  21.86806  21.90648  21.92171
 Alpha virt. eigenvalues --   21.97706  22.04728  22.05471  31.89187  43.23914
 Alpha virt. eigenvalues --   43.23997  43.24004
  Beta  occ. eigenvalues --  -19.01372 -19.01348 -19.01343 -14.31076 -10.18566
  Beta  occ. eigenvalues --  -10.18540 -10.18524 -10.17372 -10.17369 -10.17359
  Beta  occ. eigenvalues --  -10.14568 -10.14526 -10.14488 -10.13678 -10.13646
  Beta  occ. eigenvalues --  -10.13633 -10.13346 -10.13322 -10.13293 -10.12584
  Beta  occ. eigenvalues --  -10.12551 -10.12539 -10.12172 -10.12150 -10.12126
  Beta  occ. eigenvalues --   -1.21354  -1.21321  -1.21303  -1.15741  -1.03579
  Beta  occ. eigenvalues --   -1.03560  -1.01454  -0.94460  -0.94306  -0.92779
  Beta  occ. eigenvalues --   -0.92618  -0.92331  -0.90288  -0.87057  -0.86581
  Beta  occ. eigenvalues --   -0.84278  -0.81228  -0.80078  -0.79462  -0.78113
  Beta  occ. eigenvalues --   -0.77377  -0.75153  -0.73238  -0.73201  -0.70806
  Beta  occ. eigenvalues --   -0.69667  -0.69620  -0.68082  -0.66369  -0.66154
  Beta  occ. eigenvalues --   -0.63618  -0.63588  -0.63532  -0.63038  -0.62993
  Beta  occ. eigenvalues --   -0.62936  -0.60983  -0.60855  -0.60844  -0.60038
  Beta  occ. eigenvalues --   -0.60009  -0.58789  -0.58774  -0.57702  -0.57467
  Beta  occ. eigenvalues --   -0.57215  -0.57197  -0.57161  -0.54590  -0.53765
  Beta  occ. eigenvalues --   -0.53720  -0.52567  -0.50757  -0.50640  -0.50029
  Beta  occ. eigenvalues --   -0.49955  -0.49929  -0.46018  -0.45657  -0.45050
  Beta  occ. eigenvalues --   -0.44822  -0.40697  -0.40477
  Beta virt. eigenvalues --   -0.22396  -0.09626  -0.08083  -0.07931  -0.07228
  Beta virt. eigenvalues --   -0.07025  -0.03136  -0.00623   0.00732   0.00851
  Beta virt. eigenvalues --    0.01579   0.01768   0.02347   0.03324   0.03417
  Beta virt. eigenvalues --    0.03759   0.03968   0.04799   0.04846   0.05164
  Beta virt. eigenvalues --    0.06910   0.07314   0.07475   0.07533   0.07854
  Beta virt. eigenvalues --    0.08219   0.08320   0.08461   0.08528   0.08674
  Beta virt. eigenvalues --    0.08873   0.08988   0.09329   0.10068   0.10295
  Beta virt. eigenvalues --    0.12648   0.13005   0.13168   0.13944   0.14373
  Beta virt. eigenvalues --    0.14751   0.15409   0.15461   0.15708   0.16218
  Beta virt. eigenvalues --    0.16588   0.16840   0.16952   0.17253   0.17763
  Beta virt. eigenvalues --    0.18152   0.18371   0.18734   0.18990   0.19098
  Beta virt. eigenvalues --    0.19391   0.20603   0.20747   0.21202   0.22154
  Beta virt. eigenvalues --    0.22446   0.23202   0.23385   0.23431   0.23887
  Beta virt. eigenvalues --    0.24249   0.24404   0.25305   0.25834   0.25902
  Beta virt. eigenvalues --    0.26534   0.27168   0.27296   0.27583   0.28646
  Beta virt. eigenvalues --    0.29033   0.29567   0.29751   0.30132   0.30351
  Beta virt. eigenvalues --    0.31084   0.31791   0.31991   0.32624   0.32943
  Beta virt. eigenvalues --    0.33024   0.33265   0.33642   0.33815   0.34197
  Beta virt. eigenvalues --    0.34596   0.34836   0.35128   0.35750   0.36365
  Beta virt. eigenvalues --    0.36629   0.36798   0.37055   0.37244   0.37617
  Beta virt. eigenvalues --    0.37856   0.38557   0.38779   0.39001   0.39400
  Beta virt. eigenvalues --    0.40406   0.40749   0.41064   0.41341   0.41383
  Beta virt. eigenvalues --    0.41609   0.41791   0.41825   0.42366   0.42555
  Beta virt. eigenvalues --    0.42849   0.43408   0.43416   0.43795   0.43901
  Beta virt. eigenvalues --    0.44619   0.44989   0.45277   0.45601   0.46269
  Beta virt. eigenvalues --    0.47755   0.48447   0.49043   0.49113   0.49592
  Beta virt. eigenvalues --    0.49638   0.51359   0.52263   0.53580   0.54728
  Beta virt. eigenvalues --    0.54775   0.55710   0.56699   0.57423   0.57589
  Beta virt. eigenvalues --    0.57892   0.58441   0.58778   0.59516   0.59834
  Beta virt. eigenvalues --    0.60258   0.61651   0.61725   0.62274   0.63039
  Beta virt. eigenvalues --    0.63632   0.64409   0.65091   0.65379   0.65757
  Beta virt. eigenvalues --    0.66389   0.66827   0.67402   0.67593   0.68767
  Beta virt. eigenvalues --    0.69052   0.69365   0.71651   0.72887   0.73204
  Beta virt. eigenvalues --    0.73991   0.75303   0.75991   0.77991   0.78340
  Beta virt. eigenvalues --    0.79959   0.81283   0.82202   0.85046   0.86139
  Beta virt. eigenvalues --    0.86321   0.87352   0.87612   0.88723   1.05764
  Beta virt. eigenvalues --    1.07909   1.08254   1.12097   1.12550   1.13272
  Beta virt. eigenvalues --    1.14814   1.15037   1.15189   1.15836   1.16419
  Beta virt. eigenvalues --    1.17073   1.17421   1.17839   1.18156   1.19078
  Beta virt. eigenvalues --    1.19424   1.20734   1.20959   1.21169   1.21621
  Beta virt. eigenvalues --    1.21974   1.22268   1.22633   1.23314   1.23487
  Beta virt. eigenvalues --    1.24105   1.24292   1.25689   1.26228   1.26749
  Beta virt. eigenvalues --    1.27134   1.27656   1.27883   1.29818   1.30210
  Beta virt. eigenvalues --    1.30503   1.31409   1.31690   1.31928   1.33341
  Beta virt. eigenvalues --    1.33642   1.33712   1.34496   1.34729   1.35067
  Beta virt. eigenvalues --    1.35119   1.35499   1.36372   1.36641   1.36897
  Beta virt. eigenvalues --    1.37238   1.37476   1.38142   1.38724   1.38995
  Beta virt. eigenvalues --    1.39626   1.39937   1.40746   1.41148   1.41600
  Beta virt. eigenvalues --    1.43072   1.43277   1.43482   1.43718   1.44222
  Beta virt. eigenvalues --    1.44445   1.44565   1.44781   1.45222   1.45764
  Beta virt. eigenvalues --    1.46192   1.46880   1.47056   1.47352   1.47434
  Beta virt. eigenvalues --    1.47940   1.48263   1.48555   1.48629   1.49919
  Beta virt. eigenvalues --    1.50098   1.50968   1.52319   1.52680   1.53233
  Beta virt. eigenvalues --    1.53821   1.55777   1.56576   1.56832   1.58715
  Beta virt. eigenvalues --    1.58815   1.59105   1.60303   1.60495   1.61022
  Beta virt. eigenvalues --    1.63929   1.64755   1.67317   1.67436   1.68288
  Beta virt. eigenvalues --    1.69129   1.69242   1.69312   1.69389   1.69928
  Beta virt. eigenvalues --    1.70494   1.71040   1.72199   1.72372   1.72554
  Beta virt. eigenvalues --    1.72662   1.72724   1.72774   1.73195   1.73532
  Beta virt. eigenvalues --    1.73983   1.74608   1.74761   1.74883   1.76344
  Beta virt. eigenvalues --    1.77858   1.78448   1.79064   1.79780   1.80123
  Beta virt. eigenvalues --    1.81049   1.82390   1.82588   1.82872   1.83243
  Beta virt. eigenvalues --    1.83760   1.83875   1.84093   1.84359   1.84414
  Beta virt. eigenvalues --    1.84493   1.84854   1.86112   1.91116   1.91417
  Beta virt. eigenvalues --    1.91787   1.94216   1.94314   1.95269   1.96776
  Beta virt. eigenvalues --    1.97021   1.97744   2.00178   2.00945   2.01713
  Beta virt. eigenvalues --    2.03077   2.04214   2.05125   2.06215   2.07082
  Beta virt. eigenvalues --    2.09570   2.09673   2.10528   2.11447   2.11799
  Beta virt. eigenvalues --    2.12127   2.13031   2.13639   2.13741   2.16066
  Beta virt. eigenvalues --    2.20157   2.20251   2.20476   2.20584   2.20641
  Beta virt. eigenvalues --    2.21207   2.21591   2.22039   2.23414   2.24031
  Beta virt. eigenvalues --    2.25146   2.25283   2.25981   2.26128   2.26846
  Beta virt. eigenvalues --    2.27933   2.27980   2.28276   2.28330   2.28472
  Beta virt. eigenvalues --    2.28818   2.29002   2.29302   2.29373   2.30705
  Beta virt. eigenvalues --    2.30803   2.31016   2.33632   2.33774   2.37731
  Beta virt. eigenvalues --    2.37932   2.38331   2.40013   2.40865   2.41149
[...]
     6   Atom       -0.005148      0.015504     -0.010356
     7   Atom        0.009178     -0.046636      0.037457
     8   Atom        0.001005     -0.002154      0.001149
     9   Atom        0.001208     -0.001841      0.000633
    10   Atom       -0.000854      0.001080     -0.000226
    11   Atom       -0.000609      0.000774     -0.000165
    12   Atom       -0.003847     -0.009030      0.012877
    13   Atom        0.010415     -0.006875     -0.003540
    14   Atom       -0.016953      0.027908     -0.010955
    15   Atom        0.010513      0.000808     -0.011321
    16   Atom        0.004076      0.008246     -0.012322
    17   Atom       -0.030997     -0.015856      0.046852
    18   Atom       -0.001246      0.000531      0.000715
    19   Atom        0.000490     -0.000427     -0.000063
    20   Atom        0.000355      0.000107     -0.000462
    21   Atom        0.000602     -0.000302     -0.000300
    22   Atom       -0.046600     -0.023254      0.069855
    23   Atom        0.002439     -0.001485     -0.000953
    24   Atom        0.002071     -0.000852     -0.001220
    25   Atom        0.000647     -0.000851      0.000204
    26   Atom        0.001497     -0.000454     -0.001043
    27   Atom        0.038298     -0.091052      0.052754
    28   Atom        0.000158      0.000462     -0.000620
    29   Atom        0.001051      0.000053     -0.001104
    30   Atom       -0.000681      0.000309      0.000373
    31   Atom       -0.000381      0.001335     -0.000954
    32   Atom        0.004014     -0.016680      0.012666
    33   Atom       -0.037445      0.029431      0.008014
    34   Atom       -0.041426      0.040709      0.000717
    35   Atom        0.014370     -0.000284     -0.014087
    36   Atom        0.012431      0.002970     -0.015401
    37   Atom       -0.051001     -0.011058      0.062059
    38   Atom       -0.003046      0.003303     -0.000257
    39   Atom       -0.001319      0.002001     -0.000682
    40   Atom        0.001056     -0.000347     -0.000709
    41   Atom        0.001095     -0.000439     -0.000656
    42   Atom       -0.096659     -0.002784      0.099443
    43   Atom        0.002295     -0.001152     -0.001143
    44   Atom        0.001495     -0.000179     -0.001316
    45   Atom        0.000947     -0.001167      0.000220
    46   Atom        0.002234     -0.001206     -0.001028
 --------------------------------------------------------
                        XY            XZ            YZ
 --------------------------------------------------------
     1   Atom       -0.002176      0.052807     -0.059977
     2   Atom        0.004632      0.003472     -0.003715
     3   Atom       -0.011624      0.068249     -0.010192
     4   Atom       -0.036154      0.045330     -0.016805
     5   Atom        0.007705     -0.014490      0.008201
     6   Atom        0.001646     -0.019129      0.001567
     7   Atom       -0.016401      0.079235     -0.020598
     8   Atom       -0.001807     -0.004914      0.002791
     9   Atom       -0.000502     -0.004905      0.000568
    10   Atom        0.000560     -0.001676      0.000499
    11   Atom        0.000750     -0.001820      0.000199
    12   Atom       -0.012084     -0.002915     -0.000790
    13   Atom        0.055258     -0.054937     -0.051826
    14   Atom        0.041392     -0.028604     -0.042209
    15   Atom       -0.007983      0.007413      0.016205
    16   Atom       -0.008458      0.013519      0.010999
    17   Atom        0.027903     -0.051070     -0.063926
    18   Atom        0.002592      0.002769      0.004895
    19   Atom        0.001754      0.004022      0.002932
    20   Atom       -0.001048      0.001045      0.001447
    21   Atom       -0.000763      0.001424      0.001313
    22   Atom        0.066018     -0.095815     -0.119532
    23   Atom       -0.000871      0.002326      0.000329
    24   Atom       -0.000011      0.000642      0.000197
    25   Atom       -0.000826      0.001495     -0.000373
    26   Atom       -0.001373      0.000505     -0.000314
    27   Atom       -0.033703      0.144576     -0.038711
    28   Atom        0.001974     -0.002208     -0.001128
    29   Atom        0.001305     -0.000806     -0.000295
    30   Atom        0.000903     -0.000991     -0.001177
    31   Atom        0.001365     -0.000323     -0.000681
    32   Atom        0.007236      0.002763      0.000604
    33   Atom       -0.039705     -0.030593      0.074437
    34   Atom       -0.008027     -0.008804      0.057452
    35   Atom        0.000909     -0.000428     -0.015755
    36   Atom        0.006272      0.008389     -0.015959
    37   Atom       -0.011394     -0.021543      0.076942
    38   Atom       -0.000507     -0.000217     -0.005621
    39   Atom       -0.001527      0.002149     -0.004354
    40   Atom        0.000463      0.000415     -0.001849
    41   Atom        0.000005      0.000782     -0.001815
    42   Atom       -0.031382     -0.040593      0.147519
    43   Atom       -0.001261      0.001961     -0.001461
    44   Atom       -0.001254      0.000447     -0.000420
    45   Atom       -0.000259      0.001550     -0.000501
    46   Atom       -0.000051      0.000698      0.000035
 --------------------------------------------------------


 ---------------------------------------------------------------------------------
              Anisotropic Spin Dipole Couplings in Principal Axis System
 ---------------------------------------------------------------------------------

       Atom             a.u.   MegaHertz   Gauss  10(-4) cm-1        Axes

              Baa    -0.4871   -18.786    -6.703    -6.266  0.0008  0.9992  0.0411
     1 N(14)  Bbb    -0.4864   -18.758    -6.693    -6.257  0.9993  0.0007 -0.0362
              Bcc     0.9734    37.544    13.397    12.523  0.0362 -0.0411  0.9985
 
              Baa    -0.0186    -2.493    -0.890    -0.832  0.9682 -0.2104 -0.1357
     2 C(13)  Bbb     0.0049     0.661     0.236     0.221  0.2458  0.9019  0.3551
              Bcc     0.0137     1.832     0.654     0.611  0.0476 -0.3772  0.9249
 
              Baa    -0.0566    -7.593    -2.709    -2.533 -0.2529  0.7692  0.5869
     3 C(13)  Bbb    -0.0503    -6.755    -2.411    -2.253 -0.4370 -0.6320  0.6400
              Bcc     0.1069    14.348     5.120     4.786  0.8632 -0.0946  0.4959
 
              Baa    -0.0431    -5.789    -2.066    -1.931  0.5677  0.6139 -0.5485
     4 C(13)  Bbb    -0.0372    -4.996    -1.783    -1.667 -0.0830  0.7056  0.7037
              Bcc     0.0804    10.785     3.848     3.598  0.8191 -0.3540  0.4515
 
              Baa    -0.0240    -3.227    -1.151    -1.076  0.5782 -0.3072  0.7558
     5 C(13)  Bbb     0.0095     1.274     0.455     0.425  0.7249 -0.2318 -0.6487
              Bcc     0.0146     1.953     0.697     0.651  0.3745  0.9230  0.0886
 
              Baa    -0.0272    -3.647    -1.301    -1.216  0.6570 -0.0530  0.7520
     6 C(13)  Bbb     0.0115     1.549     0.553     0.517  0.7503 -0.0510 -0.6591
              Bcc     0.0156     2.098     0.749     0.700  0.0733  0.9973  0.0062
 
              Baa    -0.0572    -7.681    -2.741    -2.562  0.7518 -0.1026 -0.6514
     7 C(13)  Bbb    -0.0510    -6.849    -2.444    -2.285  0.1867  0.9805  0.0611
              Bcc     0.1083    14.530     5.185     4.847  0.6324 -0.1675  0.7563
 
              Baa    -0.0043    -2.273    -0.811    -0.758  0.4778 -0.5244  0.7048
     8 H(1)   Bbb    -0.0029    -1.536    -0.548    -0.512  0.5937  0.7841  0.1809
              Bcc     0.0071     3.808     1.359     1.270 -0.6475  0.3320  0.6860
 
              Baa    -0.0040    -2.131    -0.761    -0.711  0.6839 -0.0328  0.7288
     9 H(1)   Bbb    -0.0019    -1.020    -0.364    -0.340  0.0931  0.9948 -0.0425
              Bcc     0.0059     3.152     1.125     1.051  0.7236 -0.0969 -0.6834
 
              Baa    -0.0024    -1.284    -0.458    -0.428  0.7513 -0.2102  0.6256
    10 H(1)   Bbb     0.0012     0.618     0.220     0.206 -0.6592 -0.2841  0.6962
              Bcc     0.0012     0.667     0.238     0.222 -0.0313  0.9355  0.3520
 
              Baa    -0.0024    -1.267    -0.452    -0.423  0.7438 -0.2170  0.6321
    11 H(1)   Bbb     0.0008     0.405     0.145     0.135 -0.1413  0.8734  0.4660
              Bcc     0.0016     0.862     0.308     0.288  0.6533  0.4359 -0.6190
 
              Baa    -0.0190    -2.548    -0.909    -0.850  0.6310  0.7720  0.0769
    12 C(13)  Bbb     0.0055     0.739     0.264     0.247  0.7430 -0.6298  0.2264
              Bcc     0.0135     1.809     0.645     0.603 -0.2232  0.0858  0.9710
 
              Baa    -0.0573    -7.688    -2.743    -2.565 -0.1558  0.7859  0.5984
    13 C(13)  Bbb    -0.0512    -6.874    -2.453    -2.293  0.7674 -0.2852  0.5742
              Bcc     0.1085    14.562     5.196     4.857  0.6219  0.5487 -0.5587
 
              Baa    -0.0433    -5.808    -2.072    -1.937  0.8534 -0.2146  0.4750
    14 C(13)  Bbb    -0.0375    -5.036    -1.797    -1.680 -0.2498  0.6315  0.7341
              Bcc     0.0808    10.844     3.869     3.617  0.4575  0.7451 -0.4853
 
              Baa    -0.0257    -3.449    -1.231    -1.150 -0.2829 -0.5609  0.7781
    15 C(13)  Bbb     0.0105     1.405     0.501     0.469  0.5497  0.5699  0.6107
              Bcc     0.0152     2.043     0.729     0.682  0.7860 -0.6005 -0.1471
 
              Baa    -0.0255    -3.427    -1.223    -1.143 -0.4717 -0.3776  0.7969
    16 C(13)  Bbb     0.0107     1.429     0.510     0.477  0.6551  0.4549  0.6033
              Bcc     0.0149     1.997     0.713     0.666 -0.5903  0.8065  0.0327
 
              Baa    -0.0584    -7.836    -2.796    -2.614  0.6091  0.5114  0.6062
    17 C(13)  Bbb    -0.0522    -7.000    -2.498    -2.335 -0.6962  0.7109  0.0998
              Bcc     0.1106    14.836     5.294     4.949 -0.3798 -0.4828  0.7890
 
              Baa    -0.0043    -2.282    -0.814    -0.761 -0.0574 -0.6968  0.7150
    18 H(1)   Bbb    -0.0029    -1.569    -0.560    -0.523  0.9108 -0.3299 -0.2483
              Bcc     0.0072     3.851     1.374     1.285  0.4089  0.6369  0.6536
 
              Baa    -0.0042    -2.230    -0.796    -0.744 -0.5305 -0.3539  0.7703
    19 H(1)   Bbb    -0.0018    -0.949    -0.338    -0.316 -0.5815  0.8131 -0.0268
              Bcc     0.0060     3.179     1.134     1.060  0.6168  0.4621  0.6371
 
              Baa    -0.0024    -1.298    -0.463    -0.433 -0.4680 -0.5754  0.6708
    20 H(1)   Bbb     0.0011     0.567     0.202     0.189  0.7711  0.1050  0.6280
              Bcc     0.0014     0.731     0.261     0.244 -0.4318  0.8111  0.3945
 
              Baa    -0.0024    -1.292    -0.461    -0.431 -0.4622 -0.5811  0.6698
    21 H(1)   Bbb     0.0008     0.403     0.144     0.134 -0.4579  0.8033  0.3809
              Bcc     0.0017     0.889     0.317     0.297  0.7594  0.1306  0.6374
 
              Baa    -0.1050     7.598     2.711     2.535 -0.0743  0.8418  0.5347
    22 O(17)  Bbb    -0.1003     7.258     2.590     2.421  0.9048 -0.1685  0.3911
              Bcc     0.2053   -14.857    -5.301    -4.956 -0.4193 -0.5129  0.7491
 
              Baa    -0.0026    -0.348    -0.124    -0.116 -0.4272 -0.5501  0.7176
    23 C(13)  Bbb    -0.0011    -0.149    -0.053    -0.050 -0.1529  0.8262  0.5423
              Bcc     0.0037     0.496     0.177     0.166  0.8911 -0.1219  0.4371
 
              Baa    -0.0014    -0.752    -0.268    -0.251 -0.1721 -0.3315  0.9276
    24 H(1)   Bbb    -0.0008    -0.418    -0.149    -0.139 -0.0693  0.9434  0.3243
              Bcc     0.0022     1.170     0.417     0.390  0.9826  0.0085  0.1854
 
              Baa    -0.0013    -0.716    -0.255    -0.239  0.5949  0.6923 -0.4084
    25 H(1)   Bbb    -0.0008    -0.452    -0.161    -0.151 -0.3101  0.6664  0.6780
              Bcc     0.0022     1.167     0.416     0.389  0.7416 -0.2767  0.6111
 
              Baa    -0.0012    -0.642    -0.229    -0.214  0.2491  0.7257  0.6413
    26 H(1)   Bbb    -0.0011    -0.591    -0.211    -0.197 -0.4175 -0.5170  0.7473
              Bcc     0.0023     1.233     0.440     0.411  0.8739 -0.4539  0.1742
 
              Baa    -0.1019     7.376     2.632     2.460 -0.3683  0.7607  0.5345
    27 O(17)  Bbb    -0.0974     7.048     2.515     2.351  0.6364  0.6254 -0.4515
              Bcc     0.1993   -14.424    -5.147    -4.811  0.6778 -0.1739  0.7144
 
              Baa    -0.0026    -0.343    -0.122    -0.115  0.7028 -0.2049  0.6812
    28 C(13)  Bbb    -0.0011    -0.142    -0.051    -0.047 -0.2954  0.7871  0.5415
              Bcc     0.0036     0.485     0.173     0.162  0.6472  0.5817 -0.4927
 
              Baa    -0.0014    -0.744    -0.265    -0.248  0.3863 -0.1633  0.9078
    29 H(1)   Bbb    -0.0008    -0.410    -0.146    -0.137 -0.4451  0.8290  0.3385
              Bcc     0.0022     1.153     0.412     0.385  0.8079  0.5348 -0.2475
 
              Baa    -0.0013    -0.704    -0.251    -0.235  0.9011 -0.2383  0.3623
    30 H(1)   Bbb    -0.0008    -0.445    -0.159    -0.148 -0.0714  0.7426  0.6659
              Bcc     0.0022     1.148     0.410     0.383 -0.4277 -0.6259  0.6522
 
              Baa    -0.0012    -0.628    -0.224    -0.210 -0.5646  0.4872  0.6662
    31 H(1)   Bbb    -0.0011    -0.580    -0.207    -0.193  0.6797 -0.1835  0.7102
              Bcc     0.0023     1.208     0.431     0.403  0.4682  0.8538 -0.2276
 
              Baa    -0.0190    -2.544    -0.908    -0.849 -0.3013  0.9535  0.0081
    32 C(13)  Bbb     0.0052     0.701     0.250     0.234  0.8909  0.2845 -0.3540
              Bcc     0.0137     1.843     0.658     0.615  0.3398  0.0994  0.9352
 
              Baa    -0.0583    -7.829    -2.794    -2.611  0.5346  0.6741 -0.5097
    33 C(13)  Bbb    -0.0525    -7.042    -2.513    -2.349  0.7822 -0.1664  0.6004
              Bcc     0.1108    14.871     5.306     4.960 -0.3199  0.7197  0.6163
 
              Baa    -0.0441    -5.918    -2.112    -1.974  0.8422 -0.2455  0.4801
    34 C(13)  Bbb    -0.0385    -5.171    -1.845    -1.725 -0.5310 -0.5320  0.6596
              Bcc     0.0826    11.089     3.957     3.699 -0.0935  0.8104  0.5784
 
              Baa    -0.0244    -3.272    -1.168    -1.092 -0.0036  0.5472  0.8370
    35 C(13)  Bbb     0.0098     1.315     0.469     0.439 -0.2127  0.8174 -0.5354
              Bcc     0.0146     1.958     0.698     0.653  0.9771  0.1799 -0.1135
 
              Baa    -0.0274    -3.670    -1.310    -1.224 -0.2532  0.4911  0.8335
    36 C(13)  Bbb     0.0118     1.581     0.564     0.527 -0.3203  0.7704 -0.5512
              Bcc     0.0156     2.090     0.746     0.697  0.9129  0.4065  0.0378
 
              Baa    -0.0603    -8.090    -2.887    -2.699 -0.3060  0.7807 -0.5449
    37 C(13)  Bbb    -0.0540    -7.242    -2.584    -2.416  0.9408  0.3354 -0.0478
              Bcc     0.1143    15.333     5.471     5.114 -0.1455  0.5272  0.8372
 
              Baa    -0.0045    -2.415    -0.862    -0.805  0.3065  0.5682  0.7637
    38 H(1)   Bbb    -0.0029    -1.547    -0.552    -0.516  0.9515 -0.1602 -0.2627
              Bcc     0.0074     3.962     1.414     1.322 -0.0269  0.8072 -0.5897
 
              Baa    -0.0042    -2.242    -0.800    -0.748 -0.3461  0.4805  0.8058
    39 H(1)   Bbb    -0.0019    -0.998    -0.356    -0.333  0.8806  0.4626  0.1024
              Bcc     0.0061     3.240     1.156     1.081 -0.3236  0.7451 -0.5833
 
              Baa    -0.0025    -1.331    -0.475    -0.444 -0.1716  0.6639  0.7279
    40 H(1)   Bbb     0.0011     0.610     0.217     0.203  0.9332 -0.1273  0.3361
              Bcc     0.0014     0.721     0.257     0.241  0.3158  0.7369 -0.5977
 
              Baa    -0.0025    -1.313    -0.468    -0.438 -0.1622  0.6596  0.7339
    41 H(1)   Bbb     0.0007     0.375     0.134     0.125  0.7231  0.5855 -0.3664
              Bcc     0.0018     0.938     0.335     0.313  0.6714 -0.4713  0.5719
 
              Baa    -0.1089     7.878     2.811     2.628  0.4671  0.7620 -0.4486
    42 O(17)  Bbb    -0.1041     7.531     2.687     2.512  0.8690 -0.3019  0.3921
              Bcc     0.2129   -15.408    -5.498    -5.140 -0.1634  0.5730  0.8031
 
              Baa    -0.0027    -0.360    -0.128    -0.120 -0.1487  0.6160  0.7736
    43 C(13)  Bbb    -0.0011    -0.152    -0.054    -0.051  0.5274  0.7112 -0.4648
              Bcc     0.0038     0.512     0.183     0.171  0.8365 -0.3389  0.4307
 
              Baa    -0.0015    -0.776    -0.277    -0.259 -0.0192  0.2957  0.9551
    44 H(1)   Bbb    -0.0008    -0.432    -0.154    -0.144  0.4999  0.8301 -0.2470
              Bcc     0.0023     1.208     0.431     0.403  0.8659 -0.4727  0.1637
 
              Baa    -0.0014    -0.739    -0.264    -0.246 -0.2280  0.8447  0.4842
    45 H(1)   Bbb    -0.0009    -0.464    -0.166    -0.155 -0.5981 -0.5139  0.6150
              Bcc     0.0023     1.202     0.429     0.401  0.7683 -0.1494  0.6224
 
              Baa    -0.0012    -0.660    -0.235    -0.220  0.1223  0.8274 -0.5482
    46 H(1)   Bbb    -0.0011    -0.609    -0.217    -0.203 -0.1594  0.5616  0.8119
              Bcc     0.0024     1.269     0.453     0.423  0.9796 -0.0120  0.2006
 

 ---------------------------------------------------------------------------------

 No NMR shielding tensors so no spin-rotation constants.
 Leave Link  601 at Sun Jan 17 01:17:12 2021, MaxMem=  4026531840 cpu:              14.8 elap:               2.3
 (Enter /opt/ohpc/pub/libs/gaussian/g16-A.03/sandybridge/g16/l9999.exe)

 Test job not archived.
 1\1\GINC-CASCADEB034\SP\ULC-wHPBE\TZVP\C21H21N1O3(1+,2)\RDU230\17-Jan-
 2021\0\\#P LC-wHPBE/TZVP iop(3/107=0199600000, 3/108=0199600000) scf=(
 conver=6,fermi,ndamp=35,noincfock,novaracc,vshift=500,xqc)\\H21 C21 N1
  O3\\1,2\N,0,0.054086,0.063852,0.077784\C,0,-0.275154,-1.311734,0.1035
 06\C,0,-1.260864,-1.827996,-0.72375\C,0,0.386135,-2.184815,0.970218\C,
 0,-1.598384,-3.175646,-0.688444\C,0,0.074577,-3.526309,0.994438\C,0,-0
 .9252,-4.03443,0.167909\H,0,-1.784639,-1.164375,-1.405148\H,0,1.158634
 ,-1.797039,1.627427\H,0,-2.379444,-3.537517,-1.347421\H,0,0.588853,-4.
 20682,1.665799\C,0,-0.970368,1.03417,-0.019727\C,0,-2.134785,0.917606,
 0.724871\C,0,-0.835797,2.133662,-0.869883\C,0,-3.151989,1.858174,0.623
 575\C,0,-1.829782,3.083912,-0.958163\C,0,-3.000537,2.952781,-0.215611\
 H,0,-2.255494,0.070396,1.39325\H,0,0.067507,2.240735,-1.462783\H,0,-4.
 048238,1.726664,1.219136\H,0,-1.725247,3.941045,-1.615932\O,0,-3.92845
 1,3.936733,-0.380204\C,0,-5.121818,3.840279,0.365278\H,0,-5.681122,2.9
 30406,0.115451\H,0,-4.925953,3.859223,1.44425\H,0,-5.719912,4.710924,0
 .096466\O,0,-1.16822,-5.370782,0.273837\C,0,-2.170458,-5.919715,-0.552
 884\H,0,-3.15107,-5.47272,-0.348812\H,0,-1.930216,-5.79407,-1.615623\H
 ,0,-2.208576,-6.98373,-0.319613\C,0,1.409258,0.466483,0.091838\C,0,2.3
 72325,-0.232608,-0.620224\C,0,1.812213,1.581496,0.83064\C,0,3.707828,0
 .150754,-0.59385\C,0,3.129962,1.982235,0.842322\C,0,4.092694,1.267169,
 0.133583\H,0,2.078678,-1.100647,-1.202616\H,0,1.073246,2.139336,1.3978
 22\H,0,4.429565,-0.427688,-1.159301\H,0,3.443945,2.849999,1.413878\O,0
 ,5.369584,1.734982,0.218075\C,0,6.368506,1.037347,-0.492266\H,0,6.4607
 13,0.000867,-0.145468\H,0,6.173119,1.041208,-1.571513\H,0,7.303574,1.5
 62498,-0.297656\\Version=EM64L-G16RevA.03\State=2-A\HF=-1092.3911361\S
 2=0.766482\S2-1=0.\S2A=0.750242\RMSD=8.308e-07\Dipole=-0.4376997,-0.49
 91545,-0.3095263\Quadrupole=24.6192723,2.667607,-27.2868793,-0.2781991
 ,-4.9753552,5.4596513\PG=C01 [X(C21H21N1O3)]\\@


 IT IS THE BEHAVIOR AND DISTRIBUTION OF THE ELECTRONS 
 AROUND THE NUCLEUS THAT GIVES THE FUNDAMENTAL 
 CHARACTER OF AN ATOM:  IT MUST BE THE SAME FOR MOLECULES.

                               -- C. A. COULSON, 1951
 Job cpu time:       0 days  2 hours 17 minutes 42.9 seconds.
 Elapsed time:       0 days  0 hours 17 minutes 19.1 seconds.
 File lengths (MBytes):  RWF=    228 Int=      0 D2E=      0 Chk=     32 Scr=      8
 Normal termination of Gaussian 16 at Sun Jan 17 01:17:13 2021.
