 Entering Gaussian System, Link 0=g16
 Input=mol_NN_ma_frag_tune_c2.gjf
 Output=mol_NN_ma_frag_tune_c2.log
 Initial command:
 /opt/ohpc/pub/libs/gaussian/g16-A.03/sandybridge/g16/l1.exe "/mnt/gpfs2_4m/scratch/rdu230/ondemand/projects/init_structures/wtuning/mol_NN_ma_frag/tuning_mol_NN_ma_frag_ocycle0/Gau-212965.inp" -scrdir="/mnt/gpfs2_4m/scratch/rdu230/ondemand/projects/init_structures/wtuning/mol_NN_ma_frag/tuning_mol_NN_ma_frag_ocycle0/"
 Entering Link 1 = /opt/ohpc/pub/libs/gaussian/g16-A.03/sandybridge/g16/l1.exe PID=    212966.
  
 Copyright (c) 1988,1990,1992,1993,1995,1998,2003,2009,2016,
            Gaussian, Inc.  All Rights Reserved.
  
 This is part of the Gaussian(R) 16 program.  It is based on
 the Gaussian(R) 09 system (copyright 2009, Gaussian, Inc.),
 the Gaussian(R) 03 system (copyright 2003, Gaussian, Inc.),
 the Gaussian(R) 98 system (copyright 1998, Gaussian, Inc.),
 the Gaussian(R) 94 system (copyright 1995, Gaussian, Inc.),
 the Gaussian 92(TM) system (copyright 1992, Gaussian, Inc.),
 the Gaussian 90(TM) system (copyright 1990, Gaussian, Inc.),
 the Gaussian 88(TM) system (copyright 1988, Gaussian, Inc.),
 the Gaussian 86(TM) system (copyright 1986, Carnegie Mellon
 University), and the Gaussian 82(TM) system (copyright 1983,
 Carnegie Mellon University). Gaussian is a federally registered
 trademark of Gaussian, Inc.
  
 This software contains proprietary and confidential information,
 including trade secrets, belonging to Gaussian, Inc.
  
 This software is provided under written license and may be
 used, copied, transmitted, or stored only in accord with that
 written license.
  
 The following legend is applicable only to US Government
 contracts under FAR:
  
                    RESTRICTED RIGHTS LEGEND
  
 Use, reproduction and disclosure by the US Government is
 subject to restrictions as set forth in subparagraphs (a)
 and (c) of the Commercial Computer Software - Restricted
 Rights clause in FAR 52.227-19.
  
 Gaussian, Inc.
 340 Quinnipiac St., Bldg. 40, Wallingford CT 06492
  
  
 ---------------------------------------------------------------
 Warning -- This program may not be used in any manner that
 competes with the business of Gaussian, Inc. or will provide
 assistance to any competitor of Gaussian, Inc.  The licensee
 of this program is prohibited from giving any competitor of
 Gaussian, Inc. access to this program.  By using this program,
 the user acknowledges that Gaussian, Inc. is engaged in the
 business of creating and licensing software in the field of
 computational chemistry and represents and warrants to the
 licensee that it is not a competitor of Gaussian, Inc. and that
 it will not use this program in any manner prohibited above.
 ---------------------------------------------------------------
  

 Cite this work as:
 Gaussian 16, Revision A.03,
 M. J. Frisch, G. W. Trucks, H. B. Schlegel, G. E. Scuseria, 
 M. A. Robb, J. R. Cheeseman, G. Scalmani, V. Barone, 
 G. A. Petersson, H. Nakatsuji, X. Li, M. Caricato, A. V. Marenich, 
 J. Bloino, B. G. Janesko, R. Gomperts, B. Mennucci, H. P. Hratchian, 
 J. V. Ortiz, A. F. Izmaylov, J. L. Sonnenberg, D. Williams-Young, 
 F. Ding, F. Lipparini, F. Egidi, J. Goings, B. Peng, A. Petrone, 
 T. Henderson, D. Ranasinghe, V. G. Zakrzewski, J. Gao, N. Rega, 
 G. Zheng, W. Liang, M. Hada, M. Ehara, K. Toyota, R. Fukuda, 
 J. Hasegawa, M. Ishida, T. Nakajima, Y. Honda, O. Kitao, H. Nakai, 
 T. Vreven, K. Throssell, J. A. Montgomery, Jr., J. E. Peralta, 
 F. Ogliaro, M. J. Bearpark, J. J. Heyd, E. N. Brothers, K. N. Kudin, 
 V. N. Staroverov, T. A. Keith, R. Kobayashi, J. Normand, 
 K. Raghavachari, A. P. Rendell, J. C. Burant, S. S. Iyengar, 
 J. Tomasi, M. Cossi, J. M. Millam, M. Klene, C. Adamo, R. Cammi, 
 J. W. Ochterski, R. L. Martin, K. Morokuma, O. Farkas, 
 J. B. Foresman, and D. J. Fox, Gaussian, Inc., Wallingford CT, 2016.
 
 ******************************************
 Gaussian 16:  EM64L-G16RevA.03 25-Dec-2016
                17-Jan-2021 
 ******************************************
 %mem=30GB
 %nproc=8
 Will use up to    8 processors via shared memory.
 ----------------------------------------------------------------------
 #P LC-wHPBE/TZVP iop(3/107=0156200000, 3/108=0156200000) scf=(conver=6
 ,fermi,ndamp=35,noincfock,novaracc,vshift=500,xqc)
 ----------------------------------------------------------------------
 1/38=1,172=1/1;
 2/12=2,17=6,18=5,40=1/2;
 3/5=19,7=101,11=2,25=1,30=1,74=-71,107=156200000,108=156200000/1,2,3;
 4//1;
 5/5=100002,6=6,8=3,10=500,13=1,18=-1,22=13,38=1,93=35/2,8;
 6/7=2,8=2,9=2,10=2,28=1/1;
 99/5=1,9=1/99;
 Leave Link    1 at Sun Jan 17 00:32:58 2021, MaxMem=  4026531840 cpu:               1.4 elap:               0.3
 (Enter /opt/ohpc/pub/libs/gaussian/g16-A.03/sandybridge/g16/l101.exe)
 -------------
 H21 C21 N1 O3
 -------------
 Symbolic Z-matrix:
 Charge =  1 Multiplicity = 2
 N                     0.05409   0.06385   0.07778 
 C                    -0.27515  -1.31173   0.10351 
 C                    -1.26086  -1.828    -0.72375 
 C                     0.38614  -2.18481   0.97022 
 C                    -1.59838  -3.17565  -0.68844 
 C                     0.07458  -3.52631   0.99444 
 C                    -0.9252   -4.03443   0.16791 
 H                    -1.78464  -1.16438  -1.40515 
 H                     1.15863  -1.79704   1.62743 
 H                    -2.37944  -3.53752  -1.34742 
 H                     0.58885  -4.20682   1.6658 
 C                    -0.97037   1.03417  -0.01973 
 C                    -2.13478   0.91761   0.72487 
 C                    -0.8358    2.13366  -0.86988 
 C                    -3.15199   1.85817   0.62358 
 C                    -1.82978   3.08391  -0.95816 
 C                    -3.00054   2.95278  -0.21561 
 H                    -2.25549   0.0704    1.39325 
 H                     0.06751   2.24073  -1.46278 
 H                    -4.04824   1.72666   1.21914 
 H                    -1.72525   3.94105  -1.61593 
 O                    -3.92845   3.93673  -0.3802 
 C                    -5.12182   3.84028   0.36528 
 H                    -5.68112   2.93041   0.11545 
 H                    -4.92595   3.85922   1.44425 
 H                    -5.71991   4.71092   0.09647 
 O                    -1.16822  -5.37078   0.27384 
 C                    -2.17046  -5.91972  -0.55288 
 H                    -3.15107  -5.47272  -0.34881 
 H                    -1.93022  -5.79407  -1.61562 
 H                    -2.20858  -6.98373  -0.31961 
 C                     1.40926   0.46648   0.09184 
 C                     2.37233  -0.23261  -0.62022 
 C                     1.81221   1.5815    0.83064 
 C                     3.70783   0.15075  -0.59385 
 C                     3.12996   1.98224   0.84232 
 C                     4.09269   1.26717   0.13358 
 H                     2.07868  -1.10065  -1.20262 
 H                     1.07325   2.13934   1.39782 
 H                     4.42957  -0.42769  -1.1593 
 H                     3.44395   2.85      1.41388 
 O                     5.36958   1.73498   0.21808 
 C                     6.36851   1.03735  -0.49227 
 H                     6.46071   0.00087  -0.14547 
 H                     6.17312   1.04121  -1.57151 
 H                     7.30357   1.5625   -0.29766 
 
 ITRead=  0  0  0  0  0  0  0  0  0  0  0  0  0  0  0  0  0  0  0  0
 ITRead=  0  0  0  0  0  0  0  0  0  0  0  0  0  0  0  0  0  0  0  0
 ITRead=  0  0  0  0  0  0
 MicOpt= -1 -1 -1 -1 -1 -1 -1 -1 -1 -1 -1 -1 -1 -1 -1 -1 -1 -1 -1 -1
 MicOpt= -1 -1 -1 -1 -1 -1 -1 -1 -1 -1 -1 -1 -1 -1 -1 -1 -1 -1 -1 -1
 MicOpt= -1 -1 -1 -1 -1 -1
 NAtoms=     46 NQM=       46 NQMF=       0 NMMI=      0 NMMIF=      0
                NMic=       0 NMicF=      0.
                    Isotopes and Nuclear Properties:
 (Nuclear quadrupole moments (NQMom) in fm**2, nuclear magnetic moments (NMagM)
  in nuclear magnetons)

  Atom         1           2           3           4           5           6           7           8           9          10
 IAtWgt=          14          12          12          12          12          12          12           1           1           1
 AtmWgt=  14.0030740  12.0000000  12.0000000  12.0000000  12.0000000  12.0000000  12.0000000   1.0078250   1.0078250   1.0078250
 NucSpn=           2           0           0           0           0           0           0           1           1           1
 AtZEff=  -0.0000000  -0.0000000  -0.0000000  -0.0000000  -0.0000000  -0.0000000  -0.0000000  -0.0000000  -0.0000000  -0.0000000
 NQMom=    2.0440000   0.0000000   0.0000000   0.0000000   0.0000000   0.0000000   0.0000000   0.0000000   0.0000000   0.0000000
 NMagM=    0.4037610   0.0000000   0.0000000   0.0000000   0.0000000   0.0000000   0.0000000   2.7928460   2.7928460   2.7928460
 AtZNuc=   7.0000000   6.0000000   6.0000000   6.0000000   6.0000000   6.0000000   6.0000000   1.0000000   1.0000000   1.0000000

  Atom        11          12          13          14          15          16          17          18          19          20
 IAtWgt=           1          12          12          12          12          12          12           1           1           1
 AtmWgt=   1.0078250  12.0000000  12.0000000  12.0000000  12.0000000  12.0000000  12.0000000   1.0078250   1.0078250   1.0078250
 NucSpn=           1           0           0           0           0           0           0           1           1           1
 AtZEff=  -0.0000000  -0.0000000  -0.0000000  -0.0000000  -0.0000000  -0.0000000  -0.0000000  -0.0000000  -0.0000000  -0.0000000
 NQMom=    0.0000000   0.0000000   0.0000000   0.0000000   0.0000000   0.0000000   0.0000000   0.0000000   0.0000000   0.0000000
 NMagM=    2.7928460   0.0000000   0.0000000   0.0000000   0.0000000   0.0000000   0.0000000   2.7928460   2.7928460   2.7928460
 AtZNuc=   1.0000000   6.0000000   6.0000000   6.0000000   6.0000000   6.0000000   6.0000000   1.0000000   1.0000000   1.0000000

  Atom        21          22          23          24          25          26          27          28          29          30
 IAtWgt=           1          16          12           1           1           1          16          12           1           1
 AtmWgt=   1.0078250  15.9949146  12.0000000   1.0078250   1.0078250   1.0078250  15.9949146  12.0000000   1.0078250   1.0078250
 NucSpn=           1           0           0           1           1           1           0           0           1           1
 AtZEff=  -0.0000000  -0.0000000  -0.0000000  -0.0000000  -0.0000000  -0.0000000  -0.0000000  -0.0000000  -0.0000000  -0.0000000
 NQMom=    0.0000000   0.0000000   0.0000000   0.0000000   0.0000000   0.0000000   0.0000000   0.0000000   0.0000000   0.0000000
 NMagM=    2.7928460   0.0000000   0.0000000   2.7928460   2.7928460   2.7928460   0.0000000   0.0000000   2.7928460   2.7928460
 AtZNuc=   1.0000000   8.0000000   6.0000000   1.0000000   1.0000000   1.0000000   8.0000000   6.0000000   1.0000000   1.0000000

  Atom        31          32          33          34          35          36          37          38          39          40
 IAtWgt=           1          12          12          12          12          12          12           1           1           1
 AtmWgt=   1.0078250  12.0000000  12.0000000  12.0000000  12.0000000  12.0000000  12.0000000   1.0078250   1.0078250   1.0078250
 NucSpn=           1           0           0           0           0           0           0           1           1           1
 AtZEff=  -0.0000000  -0.0000000  -0.0000000  -0.0000000  -0.0000000  -0.0000000  -0.0000000  -0.0000000  -0.0000000  -0.0000000
 NQMom=    0.0000000   0.0000000   0.0000000   0.0000000   0.0000000   0.0000000   0.0000000   0.0000000   0.0000000   0.0000000
 NMagM=    2.7928460   0.0000000   0.0000000   0.0000000   0.0000000   0.0000000   0.0000000   2.7928460   2.7928460   2.7928460
 AtZNuc=   1.0000000   6.0000000   6.0000000   6.0000000   6.0000000   6.0000000   6.0000000   1.0000000   1.0000000   1.0000000

  Atom        41          42          43          44          45          46
 IAtWgt=           1          16          12           1           1           1
 AtmWgt=   1.0078250  15.9949146  12.0000000   1.0078250   1.0078250   1.0078250
 NucSpn=           1           0           0           1           1           1
 AtZEff=  -0.0000000  -0.0000000  -0.0000000  -0.0000000  -0.0000000  -0.0000000
 NQMom=    0.0000000   0.0000000   0.0000000   0.0000000   0.0000000   0.0000000
 NMagM=    2.7928460   0.0000000   0.0000000   2.7928460   2.7928460   2.7928460
 AtZNuc=   1.0000000   8.0000000   6.0000000   1.0000000   1.0000000   1.0000000
 Leave Link  101 at Sun Jan 17 00:32:58 2021, MaxMem=  4026531840 cpu:               0.7 elap:               0.1
 (Enter /opt/ohpc/pub/libs/gaussian/g16-A.03/sandybridge/g16/l202.exe)
                          Input orientation:                          
 ---------------------------------------------------------------------
 Center     Atomic      Atomic             Coordinates (Angstroms)
 Number     Number       Type             X           Y           Z
 ---------------------------------------------------------------------
      1          7           0        0.054086    0.063852    0.077784
      2          6           0       -0.275154   -1.311734    0.103506
      3          6           0       -1.260864   -1.827996   -0.723750
      4          6           0        0.386135   -2.184815    0.970218
      5          6           0       -1.598384   -3.175646   -0.688444
      6          6           0        0.074577   -3.526309    0.994438
      7          6           0       -0.925200   -4.034430    0.167909
      8          1           0       -1.784639   -1.164375   -1.405148
      9          1           0        1.158634   -1.797039    1.627427
     10          1           0       -2.379444   -3.537517   -1.347421
     11          1           0        0.588853   -4.206820    1.665799
     12          6           0       -0.970368    1.034170   -0.019727
     13          6           0       -2.134785    0.917606    0.724871
     14          6           0       -0.835797    2.133662   -0.869883
     15          6           0       -3.151989    1.858174    0.623575
     16          6           0       -1.829782    3.083912   -0.958163
     17          6           0       -3.000537    2.952781   -0.215611
     18          1           0       -2.255494    0.070396    1.393250
     19          1           0        0.067507    2.240735   -1.462783
     20          1           0       -4.048238    1.726664    1.219136
     21          1           0       -1.725247    3.941045   -1.615932
     22          8           0       -3.928451    3.936733   -0.380204
     23          6           0       -5.121818    3.840279    0.365278
     24          1           0       -5.681122    2.930406    0.115451
     25          1           0       -4.925953    3.859223    1.444250
     26          1           0       -5.719912    4.710924    0.096466
     27          8           0       -1.168220   -5.370782    0.273837
     28          6           0       -2.170458   -5.919715   -0.552884
     29          1           0       -3.151070   -5.472720   -0.348812
     30          1           0       -1.930216   -5.794070   -1.615623
     31          1           0       -2.208576   -6.983730   -0.319613
     32          6           0        1.409258    0.466483    0.091838
     33          6           0        2.372325   -0.232608   -0.620224
     34          6           0        1.812213    1.581496    0.830640
     35          6           0        3.707828    0.150754   -0.593850
     36          6           0        3.129962    1.982235    0.842322
     37          6           0        4.092694    1.267169    0.133583
     38          1           0        2.078678   -1.100647   -1.202616
     39          1           0        1.073246    2.139336    1.397822
     40          1           0        4.429565   -0.427688   -1.159301
     41          1           0        3.443945    2.849999    1.413878
     42          8           0        5.369584    1.734982    0.218075
     43          6           0        6.368506    1.037347   -0.492266
     44          1           0        6.460713    0.000867   -0.145468
     45          1           0        6.173119    1.041208   -1.571513
     46          1           0        7.303574    1.562498   -0.297656
 ---------------------------------------------------------------------
                    Distance matrix (angstroms):
                    1          2          3          4          5
     1  N    0.000000
     2  C    1.414672   0.000000
     3  C    2.439393   1.386544   0.000000
     4  C    2.441966   1.396697   2.389446   0.000000
     5  C    3.716465   2.419151   1.389722   2.769697   0.000000
     6  C    3.705392   2.412553   2.760406   1.377411   2.398719
     7  C    4.214622   2.799961   2.403347   2.405073   1.387093
     8  H    2.662431   2.139228   1.085834   3.375785   2.143261
     9  H    2.661641   2.147930   3.373865   1.085840   3.855511
    10  H    4.574181   3.389297   2.136036   3.853528   1.084092
    11  H    4.587636   3.401292   3.845803   2.147890   3.374876
    12  C    1.414401   2.449852   2.961761   3.630696   4.308612
    13  C    2.436960   2.968885   3.224992   4.005028   4.363473
    14  C    2.444193   3.623887   3.987075   4.850601   5.366862
    15  C    3.714350   4.312188   4.356545   5.383702   5.429035
    16  C    3.707143   4.781811   4.950299   6.032282   6.269638
    17  C    4.214583   5.071059   5.112778   6.266628   6.304540
    18  H    2.657942   2.737785   3.012452   3.499019   3.911781
    19  H    2.666898   3.897527   4.343422   5.060288   5.719439
    20  H    4.571290   4.971183   4.917303   5.918217   5.802869
    21  H    4.589916   5.714099   5.856063   6.976551   7.177995
    22  O    5.574008   6.413030   6.361301   7.610036   7.490671
    23  C    6.413582   7.078271   6.944227   8.185674   7.921371
    24  H    6.411799   6.871709   6.548689   7.981712   7.389105
    25  H    6.408811   7.082819   7.104756   8.060607   8.069107
    26  H    7.411793   8.118981   7.956968   9.251944   8.933144
    27  O    5.573842   4.159621   3.681725   3.612665   2.435087
    28  C    6.414781   5.025586   4.195083   4.775509   2.806343
    29  H    6.411602   5.078316   4.122799   5.006194   2.793337
    30  H    6.412514   5.077989   4.119856   5.007872   2.797484
    31  H    7.412555   6.007386   5.257668   5.605870   3.874258
    32  C    1.413789   2.449375   3.613775   2.974511   4.787468
    33  C    2.439126   2.949143   3.969388   3.207112   4.942940
    34  C    2.441525   3.640962   4.846088   4.029675   6.047329
    35  C    3.715976   4.299921   5.349787   4.351418   6.263367
    36  C    3.704825   4.794882   6.020780   4.990917   7.162698
    37  C    4.214432   5.072449   6.243048   5.133686   7.266547
    38  H    2.663542   2.700192   3.451216   2.959954   4.253326
    39  H    2.662484   3.924706   5.068418   4.399233   6.303899
    40  H    4.573490   4.950818   5.876355   4.896087   6.641472
    41  H    4.586819   5.733131   6.970532   5.907316   8.133464
    42  O    5.573767   6.415502   7.585821   6.384770   8.572551
    43  C    6.414402   7.071870   8.152979   6.950536   9.014385
    44  H    6.410825   6.867082   7.956249   6.551523   8.679522
    45  H    6.412330   7.065568   8.013435   7.096253   8.885827
    46  H    7.412285   8.115372   9.220987   7.968740  10.091956
                    6          7          8          9         10
     6  C    0.000000
     7  C    1.393159   0.000000
     8  H    3.846223   3.383838   0.000000
     9  H    2.136874   3.387990   4.273129   0.000000
    10  H    3.392145   2.158234   2.447229   4.939330   0.000000
    11  H    1.085496   2.136761   4.931597   2.476523   4.282318
    12  C    4.787318   5.072273   2.723239   3.906598   4.964734
    13  C    4.970144   5.127959   2.999038   4.362398   4.919591
    14  C    6.028246   6.255427   3.473306   5.066036   5.896877
    15  C    6.288157   6.315774   3.888594   5.740189   5.796131
    16  C    7.150822   7.263408   4.271976   6.280095   6.655597
    17  C    7.273180   7.298988   4.454703   6.576951   6.617456
    18  H    4.304018   4.485615   3.094737   3.898515   4.532513
    19  H    6.268715   6.559140   3.876666   5.200344   6.276072
    20  H    6.681453   6.636916   4.513187   6.300373   6.089638
    21  H    8.112631   8.211599   5.110115   7.194564   7.511921
    22  O    8.579678   8.535771   5.627410   7.923709   7.694111
    23  C    9.036868   8.925335   6.270385   8.533256   8.055174
    24  H    8.694243   8.433889   5.853378   8.450862   7.407773
    25  H    8.930493   8.941187   6.574455   8.309576   8.306016
    26  H   10.111106   9.973745   7.229132   9.592279   9.015560
    27  O    2.337924   1.362394   4.570867   4.474159   2.730641
    28  C    3.628055   2.371605   4.846490   5.730015   2.519887
    29  H    3.999704   2.700033   4.641639   5.999142   2.310333
    30  H    3.996793   2.699514   4.636763   6.002885   2.316413
    31  H    4.346640   3.253168   5.934897   6.483119   3.600273
    32  C    4.305630   5.070868   3.886083   2.746703   5.697170
    33  C    4.328423   5.093984   4.331818   2.995401   5.833571
    34  C    5.397766   6.282616   5.047366   3.532214   6.965503
    35  C    5.407769   6.289753   5.705696   3.902097   7.157241
    36  C    6.300998   7.286936   6.253445   4.334217   8.100382
    37  C    6.313776   7.299821   6.543939   4.497738   8.195545
    38  H    3.837617   4.416866   3.869147   3.056237   5.082731
    39  H    5.767113   6.604685   5.190246   3.943990   7.189165
    40  H    5.762462   6.591175   6.262546   4.509985   7.487926
    41  H    7.223979   8.248468   7.169393   5.182973   9.073973
    42  O    7.504733   8.538907   7.888221   5.673936   9.502497
    43  C    7.915225   8.908249   8.494393   6.298381   9.908950
    44  H    7.383975   8.422205   8.422019   5.872620   9.597564
    45  H    8.039809   8.897967   8.259430   6.590442   9.703673
    46  H    8.934420   9.962684   9.552905   7.263107  10.994226
                   11         12         13         14         15
    11  H    0.000000
    12  C    5.721900   0.000000
    13  C    5.879055   1.387040   0.000000
    14  C    6.975745   1.396337   2.389436   0.000000
    15  C    7.201686   2.419151   1.389112   2.769667   0.000000
    16  C    8.117250   2.412612   2.760165   1.377960   2.398450
    17  C    8.226987   2.800183   2.403325   2.405229   1.387565
    18  H    5.143848   2.139372   1.085848   3.375556   2.142954
    19  H    7.185457   2.148347   3.374402   1.085796   3.855437
    20  H    7.543763   3.389338   2.135457   3.853495   1.084090
    21  H    9.083640   3.401123   3.845551   2.148102   3.374809
    22  O    9.534654   4.159936   3.681515   3.613220   2.435338
    23  C    9.952835   5.025636   4.194483   4.775787   2.806365
    24  H    9.625807   5.079881   4.123016   5.008279   2.793633
    25  H    9.773598   5.076495   4.118402   5.006211   2.797258
    26  H   11.035827   6.007511   5.257118   5.606308   3.874307
    27  O    2.525801   6.414728   6.378205   7.598374   7.504363
    28  C    3.933238   7.076792   6.955781   8.169375   7.927359
    29  H    4.432627   6.870471   6.559108   7.968002   7.395103
    30  H    4.430892   7.077645   7.111002   8.037588   8.066200
    31  H    4.413468   8.118486   7.970414   9.236566   8.941974
    32  C    4.999018   2.448946   3.628289   2.957138   4.798387
    33  C    4.919455   3.624765   4.842139   3.994197   6.036261
    34  C    5.974839   2.960650   4.003839   3.195094   4.976216
    35  C    5.815709   4.795368   6.038478   4.965143   7.173179
    36  C    6.740901   4.295889   5.372596   4.322247   6.286983
    37  C    6.677510   5.070739   6.265246   5.103702   7.285246
    38  H    4.482822   3.905554   5.053892   4.366421   6.280882
    39  H    6.370255   2.721616   3.498135   2.964281   4.304779
    40  H    6.083921   5.709197   6.960647   5.862449   8.116882
    41  H    7.616673   4.983836   5.943997   4.903559   6.716743
    42  O    7.762493   6.382999   7.565745   6.312634   8.532105
    43  C    8.097093   7.354072   8.590793   7.297019   9.620742
    44  H    7.447420   7.503632   8.687951   7.636272   9.820644
    45  H    8.319015   7.310095   8.620321   7.128159   9.614753
    46  H    9.067947   8.295450   9.515465   8.179427  10.500233
                   16         17         18         19         20
    16  C    0.000000
    17  C    1.392568   0.000000
    18  H    3.845992   3.384031   0.000000
    19  H    2.136655   3.387527   4.273597   0.000000
    20  H    3.391799   2.158597   2.446931   4.939263   0.000000
    21  H    1.085479   2.136335   4.931355   2.475576   4.282217
    22  O    2.337895   1.362452   4.570830   4.473932   2.730685
    23  C    3.627821   2.371691   4.846087   5.729698   2.519725
    24  H    4.001129   2.701044   4.641913   6.001100   2.309421
    25  H    3.994868   2.698889   4.635640   6.000416   2.317082
    26  H    4.346553   3.253223   5.934504   6.482847   3.600096
    27  O    8.569559   8.536899   5.660536   7.904307   7.717631
    28  C    9.019180   8.917621   6.298897   8.510543   8.070516
    29  H    8.679462   8.427898   5.879028   8.431937   7.422567
    30  H    8.902859   8.922613   6.599325   8.280842   8.311637
    31  H   10.094981   9.968564   7.259256   9.569647   9.034549
    32  C    4.294743   5.071735   3.909088   2.713874   5.713416
    33  C    5.363880   6.259238   5.055947   3.484181   6.960289
    34  C    4.326800   5.112497   4.375636   2.956076   5.875108
    35  C    6.277043   7.279875   6.286194   4.286607   8.119542
    36  C    5.390223   6.296364   5.741236   3.841739   7.192625
    37  C    6.290325   7.299120   6.581680   4.438282   8.225833
    38  H    5.731174   6.572890   5.186030   3.908622   7.169217
    39  H    3.856224   4.456520   3.919317   3.033950   5.141189
    40  H    7.179918   8.217332   7.173118   5.122512   9.064841
    41  H    5.787356   6.648093   6.341153   4.477356   7.578431
    42  O    7.418492   8.469359   7.892636   5.585077   9.470880
    43  C    8.462707   9.566838   8.880515   6.487884  10.578876
    44  H    8.882452   9.911305   8.851257   6.901117  10.736786
    45  H    8.282226   9.468292   8.987425   6.223278  10.617613
    46  H    9.282735  10.397804   9.821472   7.360584  11.453875
                   21         22         23         24         25
    21  H    0.000000
    22  O    2.526094   0.000000
    23  C    3.933452   1.410380   0.000000
    24  H    4.434865   2.080919   1.096861   0.000000
    25  H    4.428987   2.080781   1.096769   1.788488   0.000000
    26  H    4.413884   2.008960   1.089954   1.781042   1.781092
    27  O    9.517963   9.730184  10.024118   9.449926  10.034113
    28  C    9.927884  10.013487  10.237726   9.544426  10.354174
    29  H    9.605079   9.441563   9.545979   8.788016   9.666977
    30  H    9.737273  10.010381  10.340743   9.653103  10.560461
    31  H   11.012028  11.055232  11.230104  10.513703  11.316580
    32  C    4.981383   6.384089   7.356101   7.506328   7.312633
    33  C    5.933035   7.559153   8.586140   8.683541   8.618004
    34  C    4.905793   6.322065   7.307493   7.647295   7.139148
    35  C    6.702929   8.525963   9.617441   9.817431   9.615028
    36  C    5.783857   7.425350   8.471822   8.891714   8.293562
    37  C    6.637684   8.469316   9.569839   9.914341   9.474840
    38  H    6.329244   7.882713   8.872327   8.843143   8.981707
    39  H    4.490037   5.604372   6.506779   6.920387   6.241038
    40  H    7.561485   9.461057  10.572076  10.729761  10.615168
    41  H    6.090211   7.664982   8.686341   9.217333   8.430578
    42  O    7.652903   9.573876  10.701563  11.115650  10.583666
    43  C    8.671962  10.697959  11.858303  12.212556  11.801605
    44  H    9.203109  11.112195  12.212984  12.492975  12.127253
    45  H    8.413989  10.575680  11.796676  12.121796  11.841682
    46  H    9.429472  11.480514  12.649827  13.063084  12.564653
                   26         27         28         29         30
    26  H    0.000000
    27  O   11.063008   0.000000
    28  C   11.226342   1.410417   0.000000
    29  H   10.512080   2.080812   1.096836   0.000000
    30  H   11.298139   2.080834   1.096776   1.788452   0.000000
    31  H   12.217509   2.009011   1.089952   1.781095   1.781128
    32  C    8.297009   6.383587   7.349392   7.500993   7.298084
    33  C    9.509808   6.303621   7.279052   7.618420   7.101587
    34  C    8.189337   7.584667   8.604881   8.705587   8.624903
    35  C   10.495426   7.417283   8.450238   8.872879   8.256664
    36  C    9.290980   8.536065   9.616749   9.820719   9.597803
    37  C   10.399426   8.471085   9.557699   9.906105   9.444377
    38  H    9.812236   5.563840   6.457610   6.869808   6.186277
    39  H    7.379267   7.917663   8.903661   8.879131   9.002253
    40  H   11.445268   7.604161   8.607578   9.141951   8.333853
    41  H    9.443246   9.494893  10.597054  10.764244  10.619765
    42  O   11.482506   9.655976  10.772233  11.174698  10.645945
    43  C   12.647989   9.922362  11.014458  11.533598  10.807357
    44  H   13.061807   9.339756  10.474559  11.062905  10.302929
    45  H   12.557594   9.920393  10.913631  11.439701  10.601274
    46  H   13.404444  10.962129  12.075013  12.601448  11.879352
                   31         32         33         34         35
    31  H    0.000000
    32  C    8.292387   0.000000
    33  C    8.164109   1.386816   0.000000
    34  C    9.531680   1.396945   2.389499   0.000000
    35  C    9.272535   2.419355   1.389687   2.769395   0.000000
    36  C   10.499458   2.412789   2.760178   1.377385   2.398091
    37  C   10.391762   2.800655   2.403586   2.405262   1.386962
    38  H    7.332865   2.140007   1.085772   3.376244   2.142599
    39  H    9.846333   2.148706   3.374349   1.085796   3.855157
    40  H    9.367587   3.389269   2.135626   3.853209   1.084082
    41  H   11.474241   3.401307   3.845570   2.147514   3.374393
    42  O   11.564323   4.160434   3.682081   3.612988   2.435248
    43  C   11.744523   5.026053   4.195071   4.775561   2.806345
    44  H   11.134249   5.078416   4.122477   5.005969   2.793186
    45  H   11.671319   5.078525   4.119902   5.007969   2.797569
    46  H   12.787474   6.007988   5.257725   5.606109   3.874292
                   36         37         38         39         40
    36  C    0.000000
    37  C    1.393012   0.000000
    38  H    3.845924   3.383525   0.000000
    39  H    2.136198   3.387631   4.274419   0.000000
    40  H    3.391636   2.158141   2.445694   4.938964   0.000000
    41  H    1.085484   2.136675   4.931288   2.474977   4.282047
    42  O    2.338103   1.362511   4.570472   4.473681   2.730923
    43  C    3.627962   2.371461   4.845435   5.729449   2.520071
    44  H    3.999431   2.699797   4.640380   5.998299   2.310212
    45  H    3.996616   2.699366   4.635523   6.002628   2.316798
    46  H    4.346811   3.253143   5.933872   6.482621   3.600444
                   41         42         43         44         45
    41  H    0.000000
    42  O    2.526122   0.000000
    43  C    3.933465   1.410363   0.000000
    44  H    4.432832   2.080837   1.096842   0.000000
    45  H    4.430877   2.080773   1.096798   1.788470   0.000000
    46  H    4.414039   2.008991   1.089958   1.781086   1.781119
                   46
    46  H    0.000000
 Stoichiometry    C21H21NO3(1+,2)
 Framework group  C1[X(C21H21NO3)]
 Deg. of freedom   132
 Full point group                 C1      NOp   1
 Largest Abelian subgroup         C1      NOp   1
 Largest concise Abelian subgroup C1      NOp   1
                         Standard orientation:                         
 ---------------------------------------------------------------------
 Center     Atomic      Atomic             Coordinates (Angstroms)
 Number     Number       Type             X           Y           Z
 ---------------------------------------------------------------------
      1          7           0       -0.054086   -0.063852    0.077784
      2          6           0        0.275154    1.311734    0.103506
      3          6           0        1.260864    1.827996   -0.723750
      4          6           0       -0.386136    2.184815    0.970218
      5          6           0        1.598383    3.175646   -0.688444
      6          6           0       -0.074578    3.526309    0.994438
      7          6           0        0.925199    4.034430    0.167909
      8          1           0        1.784639    1.164376   -1.405148
      9          1           0       -1.158634    1.797039    1.627427
     10          1           0        2.379443    3.537518   -1.347421
     11          1           0       -0.588854    4.206820    1.665799
     12          6           0        0.970368   -1.034170   -0.019727
     13          6           0        2.134785   -0.917605    0.724871
     14          6           0        0.835798   -2.133662   -0.869883
     15          6           0        3.151989   -1.858173    0.623575
     16          6           0        1.829783   -3.083911   -0.958163
     17          6           0        3.000538   -2.952780   -0.215611
     18          1           0        2.255494   -0.070395    1.393250
     19          1           0       -0.067506   -2.240735   -1.462783
     20          1           0        4.048238   -1.726663    1.219136
     21          1           0        1.725248   -3.941045   -1.615932
     22          8           0        3.928452   -3.936732   -0.380204
     23          6           0        5.121819   -3.840278    0.365278
     24          1           0        5.681123   -2.930405    0.115451
     25          1           0        4.925954   -3.859222    1.444250
     26          1           0        5.719913   -4.710923    0.096466
     27          8           0        1.168219    5.370782    0.273837
     28          6           0        2.170457    5.919716   -0.552884
     29          1           0        3.151069    5.472721   -0.348812
     30          1           0        1.930215    5.794071   -1.615623
     31          1           0        2.208574    6.983731   -0.319613
     32          6           0       -1.409258   -0.466483    0.091838
     33          6           0       -2.372325    0.232607   -0.620224
     34          6           0       -1.812213   -1.581496    0.830640
     35          6           0       -3.707828   -0.150755   -0.593850
     36          6           0       -3.129962   -1.982236    0.842322
     37          6           0       -4.092694   -1.267170    0.133583
     38          1           0       -2.078678    1.100647   -1.202616
     39          1           0       -1.073245   -2.139336    1.397822
     40          1           0       -4.429565    0.427687   -1.159301
     41          1           0       -3.443944   -2.850000    1.413878
     42          8           0       -5.369584   -1.734983    0.218075
     43          6           0       -6.368506   -1.037348   -0.492266
     44          1           0       -6.460713   -0.000869   -0.145468
     45          1           0       -6.173119   -1.041209   -1.571513
     46          1           0       -7.303574   -1.562500   -0.297656
 ---------------------------------------------------------------------
 Rotational constants (GHZ):           0.1829468           0.1651743           0.0911050
 Leave Link  202 at Sun Jan 17 00:32:58 2021, MaxMem=  4026531840 cpu:               0.1 elap:               0.0
 (Enter /opt/ohpc/pub/libs/gaussian/g16-A.03/sandybridge/g16/l301.exe)
 Standard basis: TZVP (5D, 7F)
 Ernie: Thresh=  0.10000D-02 Tol=  0.10000D-05 Strict=F.
 There are   626 symmetry adapted cartesian basis functions of A   symmetry.
 There are   601 symmetry adapted basis functions of A   symmetry.
   601 basis functions,  1043 primitive gaussians,   626 cartesian basis functions
    89 alpha electrons       88 beta electrons
       nuclear repulsion energy      2056.6778086010 Hartrees.
 IExCor=33909 DFT=T Ex+Corr=LC-wHPBE ExCW=0 ScaHFX=  1.000000
 ScaDFX=  1.000000  1.000000  1.000000  1.000000 ScalE2=  1.000000  1.000000
 IRadAn=      5 IRanWt=     -1 IRanGd=            0 ICorTp=0 IEmpDi=  4
 HFx  wShort=  0.000000 wLong=  0.156200 cFull=  0.000000 cShort=  0.000000 cLong=  1.000000
 DFx  wShort=  0.000000 wLong=  0.156200 cFull=  0.000000 cShort=  1.000000 cLong=  0.000000
 NAtoms=   46 NActive=   46 NUniq=   46 SFac= 1.00D+00 NAtFMM=   60 NAOKFM=F Big=F
 Integral buffers will be    131072 words long.
 Raffenetti 2 integral format.
 Two-electron integral symmetry is turned on.
 Leave Link  301 at Sun Jan 17 00:32:58 2021, MaxMem=  4026531840 cpu:               0.4 elap:               0.1
 (Enter /opt/ohpc/pub/libs/gaussian/g16-A.03/sandybridge/g16/l302.exe)
 NPDir=0 NMtPBC=     1 NCelOv=     1 NCel=       1 NClECP=     1 NCelD=      1
         NCelK=      1 NCelE2=     1 NClLst=     1 CellRange=     0.0.
 One-electron integrals computed using PRISM.
 One-electron integral symmetry used in STVInt
 NBasis=   601 RedAO= T EigKep=  7.47D-06  NBF=   601
 NBsUse=   601 1.00D-06 EigRej= -1.00D+00 NBFU=   601
 Precomputing XC quadrature grid using
 IXCGrd= 4 IRadAn=           5 IRanWt=          -1 IRanGd=           0 AccXCQ= 0.00D+00.
 Generated NRdTot=       0 NPtTot=           0 NUsed=           0 NTot=          32
 NSgBfM=   597   597   597   597   597 MxSgAt=    46 MxSgA2=    46.
 Leave Link  302 at Sun Jan 17 00:33:00 2021, MaxMem=  4026531840 cpu:               8.9 elap:               1.1
 (Enter /opt/ohpc/pub/libs/gaussian/g16-A.03/sandybridge/g16/l303.exe)
 DipDrv:  MaxL=1.
 Leave Link  303 at Sun Jan 17 00:33:00 2021, MaxMem=  4026531840 cpu:               0.7 elap:               0.1
 (Enter /opt/ohpc/pub/libs/gaussian/g16-A.03/sandybridge/g16/l401.exe)
 ExpMin= 9.52D-02 ExpMax= 2.70D+04 ExpMxC= 9.22D+02 IAcc=3 IRadAn=         5 AccDes= 0.00D+00
 Harris functional with IExCor=33909 and IRadAn=       5 diagonalized for initial guess.
 HarFok:  IExCor=33909 AccDes= 0.00D+00 IRadAn=         5 IDoV= 1 UseB2=F ITyADJ=14
 ICtDFT=  3500011 ScaDFX=  1.000000  1.000000  1.000000  1.000000
 FoFCou: FMM=F IPFlag=           0 FMFlag=      100000 FMFlg1=           0
         NFxFlg=           0 DoJE=T BraDBF=F KetDBF=T FulRan=T
         wScrn=  0.000000 ICntrl=       500 IOpCl=  0 I1Cent=   200000004 NGrid=           0
         NMat0=    1 NMatS0=      1 NMatT0=    0 NMatD0=    1 NMtDS0=    0 NMtDT0=    0
 Petite list used in FoFCou.
 Harris En= -1077.44691434798    
 JPrj=0 DoOrth=F DoCkMO=F.
 Initial guess <Sx>= 0.0000 <Sy>= 0.0000 <Sz>= 0.5000 <S**2>= 0.7500 S= 0.5000
 Leave Link  401 at Sun Jan 17 00:33:07 2021, MaxMem=  4026531840 cpu:              54.3 elap:               6.8
 (Enter /opt/ohpc/pub/libs/gaussian/g16-A.03/sandybridge/g16/l502.exe)
 Integral symmetry usage will be decided dynamically.
 UHF open shell SCF:
 Using DIIS extrapolation, IDIIS=    10.
 NGot=  4026531840 LenX=  4025736816 LenY=  4025344314
 Requested convergence on RMS density matrix=1.00D-06 within  32 cycles.
 Requested convergence on MAX density matrix=1.00D-04.
 Requested convergence on             energy=1.00D-04.
 Virtual orbitals will be shifted by   0.500 hartree.
 No special actions if energy rises.
 Dynamic level shift is on during FON iterations.

 Cycle   1  Pass 1  IDiag  1:
 FoFJK:  IHMeth= 1 ICntrl=       0 DoSepK=T KAlg= 0 I1Cent=           0 FoldK=F
 IRaf=         1 NMat=       1 IRICut=       1 DoRegI=T DoRafI=F ISym2E= 0 IDoP0=0 IntGTp=1.
 FoFCou: FMM=F IPFlag=           0 FMFlag=      100000 FMFlg1=           0
         NFxFlg=           0 DoJE=T BraDBF=F KetDBF=F FulRan=T
         wScrn=  0.000000 ICntrl=       500 IOpCl=  0 I1Cent=           0 NGrid=           0
         NMat0=    1 NMatS0=      1 NMatT0=    0 NMatD0=    1 NMtDS0=    0 NMtDT0=    0
 Symmetry not used in FoFCou.
 E= -1091.95895271851    
 DIIS: error= 2.80D-02 at cycle   1 NSaved=   1.
 NSaved= 1 IEnMin= 1 EnMin= -1091.95895271851     IErMin= 1 ErrMin= 2.80D-02
 ErrMax= 2.80D-02  0.00D+00 EMaxC= 1.00D+00 BMatC= 1.57D+00 BMatP= 1.57D+00
 IDIUse=1 WtCom= 1.00D+00 WtEn= 0.00D+00
 Coeff-Com:  0.100D+01
 Coeff:      0.100D+01
 Gap=     0.323 Goal=   None    Shift=    0.500
 T= 1456. Gap= 0.753 NK=0 IS=   90 IE=  601 IFin=   89
          NO(<0.9)=   0  NV(>0.1)=   0     89.00e < EF      0.00e >EF  Err=0.0D+00
 Gap=     0.118 Goal=   None    Shift=    0.500
 T= 1456. Gap= 0.602 NK=0 IS=   89 IE=  601 IFin=   88
          NO(<0.9)=   0  NV(>0.1)=   0     88.00e < EF      0.00e >EF  Err=0.0D+00
 GapD=    0.118 DampG=1.000 DampE=0.500 DampFc=0.5000 IDamp=-1.
 Damping current iteration by 5.00D-01
 RMSDP=2.08D-03 MaxDP=6.39D-02              OVMax= 7.20D-02

 Cycle   2  Pass 1  IDiag  1:
 E= -1092.19025779725     Delta-E=       -0.231305078740 Rises=F Damp=T
 DIIS: error= 1.23D-02 at cycle   2 NSaved=   2.
 NSaved= 2 IEnMin= 2 EnMin= -1092.19025779725     IErMin= 2 ErrMin= 1.23D-02
 ErrMax= 1.23D-02  0.00D+00 EMaxC= 1.00D+00 BMatC= 2.38D-01 BMatP= 1.57D+00
 IDIUse=1 WtCom= 1.00D+00 WtEn= 0.00D+00
 Coeff-Com: -0.468D+00 0.147D+01
 Coeff:     -0.468D+00 0.147D+01
 Gap=     0.278 Goal=   None    Shift=    0.500
 T= 1331. Gap= 0.742 NK=0 IS=   90 IE=  601 IFin=   89
          NO(<0.9)=   0  NV(>0.1)=   0     89.00e < EF      0.00e >EF  Err=0.0D+00
 Gap=     0.188 Goal=   None    Shift=    0.500
 T= 1331. Gap= 0.667 NK=0 IS=   89 IE=  601 IFin=   88
          NO(<0.9)=   0  NV(>0.1)=   0     88.00e < EF      0.00e >EF  Err=0.0D+00
 GapD=    0.188 DampG=1.000 DampE=0.500 DampFc=0.5000 IDamp=-1.
 Damping current iteration by 5.00D-01
 RMSDP=1.15D-03 MaxDP=5.40D-02 DE=-2.31D-01 OVMax= 2.44D-02

 Cycle   3  Pass 1  IDiag  1:
 E= -1092.26573283843     Delta-E=       -0.075475041182 Rises=F Damp=T
 DIIS: error= 5.33D-03 at cycle   3 NSaved=   3.
 NSaved= 3 IEnMin= 3 EnMin= -1092.26573283843     IErMin= 3 ErrMin= 5.33D-03
 ErrMax= 5.33D-03  0.00D+00 EMaxC= 1.00D+00 BMatC= 4.21D-02 BMatP= 2.38D-01
 IDIUse=1 WtCom= 1.00D+00 WtEn= 0.00D+00
 Coeff-Com:  0.570D-01-0.829D+00 0.177D+01
 Coeff:      0.570D-01-0.829D+00 0.177D+01
 Gap=     0.256 Goal=   None    Shift=    0.500
 T= 1089. Gap= 0.754 NK=4 IS=   90 IE=  100 IFin=   89
          NO(<0.9)=   0  NV(>0.1)=   0     89.00e < EF      0.00e >EF  Err=0.0D+00
 Gap=     0.157 Goal=   None    Shift=    0.500
 T= 1089. Gap= 0.656 NK=4 IS=   89 IE=  100 IFin=   88
          NO(<0.9)=   0  NV(>0.1)=   0     88.00e < EF      0.00e >EF  Err=0.0D+00
 GapD=    0.157 DampG=1.000 DampE=1.000 DampFc=1.0000 IDamp=-1.
 RMSDP=7.14D-04 MaxDP=4.13D-02 DE=-7.55D-02 OVMax= 8.96D-03

 Cycle   4  Pass 1  IDiag  1:
 E= -1092.32923859479     Delta-E=       -0.063505756362 Rises=F Damp=F
 DIIS: error= 1.32D-03 at cycle   4 NSaved=   4.
 NSaved= 4 IEnMin= 4 EnMin= -1092.32923859479     IErMin= 4 ErrMin= 1.32D-03
 ErrMax= 1.32D-03  0.00D+00 EMaxC= 1.00D+00 BMatC= 2.58D-03 BMatP= 4.21D-02
 IDIUse=1 WtCom= 1.00D+00 WtEn= 0.00D+00
 Coeff-Com:  0.712D-01-0.197D+00 0.195D+00 0.931D+00
 Coeff:      0.712D-01-0.197D+00 0.195D+00 0.931D+00
 Gap=     0.253 Goal=   None    Shift=    0.500
 T=  562. Gap= 0.753 NK=4 IS=   90 IE=  100 IFin=   89
          NO(<0.9)=   0  NV(>0.1)=   0     89.00e < EF      0.00e >EF  Err=0.0D+00
 Gap=     0.160 Goal=   None    Shift=    0.500
 T=  562. Gap= 0.660 NK=4 IS=   89 IE=  100 IFin=   88
          NO(<0.9)=   0  NV(>0.1)=   0     88.00e < EF      0.00e >EF  Err=0.0D+00
 GapD=    0.160 DampG=1.000 DampE=1.000 DampFc=1.0000 IDamp=-1.
 RMSDP=1.29D-04 MaxDP=4.22D-03 DE=-6.35D-02 OVMax= 5.52D-03

 Cycle   5  Pass 1  IDiag  1:
 E= -1092.32993164847     Delta-E=       -0.000693053672 Rises=F Damp=F
 DIIS: error= 8.25D-04 at cycle   5 NSaved=   5.
 NSaved= 5 IEnMin= 5 EnMin= -1092.32993164847     IErMin= 5 ErrMin= 8.25D-04
 ErrMax= 8.25D-04  0.00D+00 EMaxC= 1.00D+00 BMatC= 3.93D-04 BMatP= 2.58D-03
 IDIUse=1 WtCom= 1.00D+00 WtEn= 0.00D+00
 Coeff-Com:  0.182D-01 0.575D-02-0.838D-01-0.291D-01 0.109D+01
 Coeff:      0.182D-01 0.575D-02-0.838D-01-0.291D-01 0.109D+01
 Gap=     0.253 Goal=   None    Shift=    0.500
 Gap=     0.161 Goal=   None    Shift=    0.500
 RMSDP=8.16D-05 MaxDP=2.40D-03 DE=-6.93D-04 OVMax= 4.72D-03

 Cycle   6  Pass 1  IDiag  1:
 E= -1092.33013652353     Delta-E=       -0.000204875065 Rises=F Damp=F
 DIIS: error= 6.92D-04 at cycle   6 NSaved=   6.
 NSaved= 6 IEnMin= 6 EnMin= -1092.33013652353     IErMin= 6 ErrMin= 6.92D-04
 ErrMax= 6.92D-04  0.00D+00 EMaxC= 1.00D+00 BMatC= 1.02D-04 BMatP= 3.93D-04
 IDIUse=1 WtCom= 1.00D+00 WtEn= 0.00D+00
 Coeff-Com: -0.126D-01 0.549D-01-0.798D-01-0.219D+00 0.209D-01 0.124D+01
 Coeff:     -0.126D-01 0.549D-01-0.798D-01-0.219D+00 0.209D-01 0.124D+01
 Gap=     0.254 Goal=   None    Shift=    0.500
 Gap=     0.161 Goal=   None    Shift=    0.500
 RMSDP=4.86D-05 MaxDP=1.19D-03 DE=-2.05D-04 OVMax= 4.09D-03

 Cycle   7  Pass 1  IDiag  1:
 E= -1092.33023582399     Delta-E=       -0.000099300461 Rises=F Damp=F
 DIIS: error= 5.71D-04 at cycle   7 NSaved=   7.
 NSaved= 7 IEnMin= 7 EnMin= -1092.33023582399     IErMin= 7 ErrMin= 5.71D-04
 ErrMax= 5.71D-04  0.00D+00 EMaxC= 1.00D+00 BMatC= 4.88D-05 BMatP= 1.02D-04
 IDIUse=1 WtCom= 1.00D+00 WtEn= 0.00D+00
 Coeff-Com: -0.102D-01 0.194D-01-0.849D-02-0.615D-01-0.308D+00-0.253D-01
 Coeff-Com:  0.139D+01
 Coeff:     -0.102D-01 0.194D-01-0.849D-02-0.615D-01-0.308D+00-0.253D-01
 Coeff:      0.139D+01
 Gap=     0.254 Goal=   None    Shift=    0.500
 Gap=     0.162 Goal=   None    Shift=    0.500
 RMSDP=2.80D-05 MaxDP=8.74D-04 DE=-9.93D-05 OVMax= 3.77D-03

 Cycle   8  Pass 1  IDiag  1:
 E= -1092.33029624457     Delta-E=       -0.000060420575 Rises=F Damp=F
 DIIS: error= 5.05D-04 at cycle   8 NSaved=   8.
 NSaved= 8 IEnMin= 8 EnMin= -1092.33029624457     IErMin= 8 ErrMin= 5.05D-04
 ErrMax= 5.05D-04  0.00D+00 EMaxC= 1.00D+00 BMatC= 2.79D-05 BMatP= 4.88D-05
 IDIUse=1 WtCom= 1.00D+00 WtEn= 0.00D+00
 Coeff-Com:  0.187D-02-0.217D-01 0.397D-01 0.101D+00-0.198D+00-0.862D+00
 Coeff-Com:  0.326D+00 0.161D+01
 Coeff:      0.187D-02-0.217D-01 0.397D-01 0.101D+00-0.198D+00-0.862D+00
 Coeff:      0.326D+00 0.161D+01
 Gap=     0.254 Goal=   None    Shift=    0.500
 Gap=     0.163 Goal=   None    Shift=    0.500
 RMSDP=1.90D-05 MaxDP=6.10D-04 DE=-6.04D-05 OVMax= 3.72D-03

 Cycle   9  Pass 1  IDiag  1:
 E= -1092.33033850275     Delta-E=       -0.000042258188 Rises=F Damp=F
 DIIS: error= 4.09D-04 at cycle   9 NSaved=   9.
 NSaved= 9 IEnMin= 9 EnMin= -1092.33033850275     IErMin= 9 ErrMin= 4.09D-04
 ErrMax= 4.09D-04  0.00D+00 EMaxC= 1.00D+00 BMatC= 1.46D-05 BMatP= 2.79D-05
 IDIUse=1 WtCom= 1.00D+00 WtEn= 0.00D+00
 Coeff-Com:  0.496D-02-0.155D-01 0.158D-01 0.417D-01 0.117D+00-0.274D+00
 Coeff-Com: -0.667D+00-0.347D+00 0.212D+01
 Coeff:      0.496D-02-0.155D-01 0.158D-01 0.417D-01 0.117D+00-0.274D+00
 Coeff:     -0.667D+00-0.347D+00 0.212D+01
 Gap=     0.254 Goal=   None    Shift=    0.500
 Gap=     0.163 Goal=   None    Shift=    0.500
 RMSDP=1.21D-05 MaxDP=5.24D-04 DE=-4.23D-05 OVMax= 3.34D-03

 Cycle  10  Pass 1  IDiag  1:
 E= -1092.33036518493     Delta-E=       -0.000026682177 Rises=F Damp=F
 DIIS: error= 3.37D-04 at cycle  10 NSaved=  10.
 NSaved=10 IEnMin=10 EnMin= -1092.33036518493     IErMin=10 ErrMin= 3.37D-04
 ErrMax= 3.37D-04  0.00D+00 EMaxC= 1.00D+00 BMatC= 8.11D-06 BMatP= 1.46D-05
 IDIUse=1 WtCom= 1.00D+00 WtEn= 0.00D+00
 Coeff-Com:  0.159D-02-0.355D-02 0.213D-02-0.176D-01 0.116D+00 0.984D-01
 Coeff-Com: -0.464D+00-0.502D+00-0.997D-02 0.178D+01
 Coeff:      0.159D-02-0.355D-02 0.213D-02-0.176D-01 0.116D+00 0.984D-01
 Coeff:     -0.464D+00-0.502D+00-0.997D-02 0.178D+01
 Gap=     0.254 Goal=   None    Shift=    0.500
 Gap=     0.163 Goal=   None    Shift=    0.500
 RMSDP=8.25D-06 MaxDP=3.79D-04 DE=-2.67D-05 OVMax= 2.68D-03

 Cycle  11  Pass 1  IDiag  1:
 E= -1092.33037994949     Delta-E=       -0.000014764558 Rises=F Damp=F
 DIIS: error= 2.67D-04 at cycle  11 NSaved=  11.
 NSaved=11 IEnMin=11 EnMin= -1092.33037994949     IErMin=11 ErrMin= 2.67D-04
 ErrMax= 2.67D-04  0.00D+00 EMaxC= 1.00D+00 BMatC= 4.74D-06 BMatP= 8.11D-06
 IDIUse=1 WtCom= 1.00D+00 WtEn= 0.00D+00
 Coeff-Com: -0.161D-02 0.264D-02 0.209D-03-0.337D-01-0.126D-01 0.183D+00
 Coeff-Com:  0.138D+00 0.398D-01-0.157D+01 0.811D-01 0.217D+01
 Coeff:     -0.161D-02 0.264D-02 0.209D-03-0.337D-01-0.126D-01 0.183D+00
 Coeff:      0.138D+00 0.398D-01-0.157D+01 0.811D-01 0.217D+01
 Gap=     0.254 Goal=   None    Shift=    0.500
 Gap=     0.163 Goal=   None    Shift=    0.500
 RMSDP=6.80D-06 MaxDP=3.05D-04 DE=-1.48D-05 OVMax= 2.15D-03

 Cycle  12  Pass 1  IDiag  1:
 E= -1092.33038843539     Delta-E=       -0.000008485903 Rises=F Damp=F
 DIIS: error= 2.21D-04 at cycle  12 NSaved=  12.
 NSaved=12 IEnMin=12 EnMin= -1092.33038843539     IErMin=12 ErrMin= 2.21D-04
 ErrMax= 2.21D-04  0.00D+00 EMaxC= 1.00D+00 BMatC= 2.99D-06 BMatP= 4.74D-06
 IDIUse=1 WtCom= 1.00D+00 WtEn= 0.00D+00
 Coeff-Com: -0.168D-03-0.607D-02 0.126D-01-0.607D-02-0.769D-01-0.661D-01
 Coeff-Com:  0.362D+00 0.412D+00-0.567D+00-0.158D+01 0.363D+00 0.216D+01
 Coeff:     -0.168D-03-0.607D-02 0.126D-01-0.607D-02-0.769D-01-0.661D-01
 Coeff:      0.362D+00 0.412D+00-0.567D+00-0.158D+01 0.363D+00 0.216D+01
 Gap=     0.254 Goal=   None    Shift=    0.500
 Gap=     0.163 Goal=   None    Shift=    0.500
 RMSDP=4.89D-06 MaxDP=2.45D-04 DE=-8.49D-06 OVMax= 1.74D-03

 Cycle  13  Pass 1  IDiag  1:
 E= -1092.33039306864     Delta-E=       -0.000004633249 Rises=F Damp=F
 DIIS: error= 1.71D-04 at cycle  13 NSaved=  13.
 NSaved=13 IEnMin=13 EnMin= -1092.33039306864     IErMin=13 ErrMin= 1.71D-04
 ErrMax= 1.71D-04  0.00D+00 EMaxC= 1.00D+00 BMatC= 1.80D-06 BMatP= 2.99D-06
 IDIUse=1 WtCom= 1.00D+00 WtEn= 0.00D+00
 Coeff-Com:  0.118D-02-0.853D-02 0.131D-01 0.450D-02-0.256D-01-0.123D+00
 Coeff-Com:  0.113D+00 0.168D+00 0.457D+00-0.914D+00-0.555D+00-0.413D+00
 Coeff-Com:  0.228D+01
 Coeff:      0.118D-02-0.853D-02 0.131D-01 0.450D-02-0.256D-01-0.123D+00
 Coeff:      0.113D+00 0.168D+00 0.457D+00-0.914D+00-0.555D+00-0.413D+00
 Coeff:      0.228D+01
 Gap=     0.254 Goal=   None    Shift=    0.500
 Gap=     0.163 Goal=   None    Shift=    0.500
 RMSDP=3.51D-06 MaxDP=1.70D-04 DE=-4.63D-06 OVMax= 1.29D-03

 Cycle  14  Pass 1  IDiag  1:
 E= -1092.33039543408     Delta-E=       -0.000002365439 Rises=F Damp=F
 DIIS: error= 1.33D-04 at cycle  14 NSaved=  14.
 NSaved=14 IEnMin=14 EnMin= -1092.33039543408     IErMin=14 ErrMin= 1.33D-04
 ErrMax= 1.33D-04  0.00D+00 EMaxC= 1.00D+00 BMatC= 1.04D-06 BMatP= 1.80D-06
 IDIUse=1 WtCom= 1.00D+00 WtEn= 0.00D+00
 Coeff-Com:  0.932D-03-0.315D-02 0.306D-02-0.125D-03 0.368D-01-0.274D-01
 Coeff-Com: -0.158D+00-0.147D+00 0.570D+00 0.440D+00-0.379D+00-0.210D+01
 Coeff-Com:  0.660D+00 0.210D+01
 Coeff:      0.932D-03-0.315D-02 0.306D-02-0.125D-03 0.368D-01-0.274D-01
 Coeff:     -0.158D+00-0.147D+00 0.570D+00 0.440D+00-0.379D+00-0.210D+01
 Coeff:      0.660D+00 0.210D+01
 Gap=     0.254 Goal=   None    Shift=    0.500
 Gap=     0.163 Goal=   None    Shift=    0.500
 RMSDP=2.53D-06 MaxDP=1.14D-04 DE=-2.37D-06 OVMax= 9.87D-04

 Cycle  15  Pass 1  IDiag  1:
 E= -1092.33039667644     Delta-E=       -0.000001242357 Rises=F Damp=F
 DIIS: error= 1.01D-04 at cycle  15 NSaved=  15.
 NSaved=15 IEnMin=15 EnMin= -1092.33039667644     IErMin=15 ErrMin= 1.01D-04
 ErrMax= 1.01D-04  0.00D+00 EMaxC= 1.00D+00 BMatC= 5.64D-07 BMatP= 1.04D-06
 IDIUse=1 WtCom= 1.00D+00 WtEn= 0.00D+00
 Coeff-Com: -0.187D-03 0.732D-03-0.887D-03-0.720D-02 0.154D-01 0.458D-01
 Coeff-Com: -0.639D-01-0.420D-01-0.204D+00 0.402D+00 0.331D+00-0.375D+00
 Coeff-Com: -0.864D+00-0.842D+00 0.260D+01
 Coeff:     -0.187D-03 0.732D-03-0.887D-03-0.720D-02 0.154D-01 0.458D-01
 Coeff:     -0.639D-01-0.420D-01-0.204D+00 0.402D+00 0.331D+00-0.375D+00
 Coeff:     -0.864D+00-0.842D+00 0.260D+01
 Gap=     0.254 Goal=   None    Shift=    0.500
 Gap=     0.163 Goal=   None    Shift=    0.500
 RMSDP=1.78D-06 MaxDP=7.65D-05 DE=-1.24D-06 OVMax= 7.45D-04

 Cycle  16  Pass 1  IDiag  1:
 E= -1092.33039733351     Delta-E=       -0.000000657072 Rises=F Damp=F
 DIIS: error= 7.67D-05 at cycle  16 NSaved=  16.
 NSaved=16 IEnMin=16 EnMin= -1092.33039733351     IErMin=16 ErrMin= 7.67D-05
 ErrMax= 7.67D-05  0.00D+00 EMaxC= 1.00D+00 BMatC= 3.25D-07 BMatP= 5.64D-07
 IDIUse=1 WtCom= 1.00D+00 WtEn= 0.00D+00
 Coeff-Com: -0.387D-03 0.685D-03-0.669D-04-0.723D-02-0.268D-02 0.392D-01
 Coeff-Com:  0.253D-01 0.299D-01-0.378D+00 0.108D+00 0.412D+00 0.436D+00
 Coeff-Com: -0.841D+00-0.148D+01 0.137D+01 0.128D+01
 Coeff:     -0.387D-03 0.685D-03-0.669D-04-0.723D-02-0.268D-02 0.392D-01
 Coeff:      0.253D-01 0.299D-01-0.378D+00 0.108D+00 0.412D+00 0.436D+00
 Coeff:     -0.841D+00-0.148D+01 0.137D+01 0.128D+01
 Gap=     0.254 Goal=   None    Shift=    0.500
 Gap=     0.163 Goal=   None    Shift=    0.500
 RMSDP=1.24D-06 MaxDP=5.99D-05 DE=-6.57D-07 OVMax= 5.52D-04

 Cycle  17  Pass 1  IDiag  1:
 E= -1092.33039768824     Delta-E=       -0.000000354736 Rises=F Damp=F
 DIIS: error= 5.88D-05 at cycle  17 NSaved=  17.
 NSaved=17 IEnMin=17 EnMin= -1092.33039768824     IErMin=17 ErrMin= 5.88D-05
 ErrMax= 5.88D-05  0.00D+00 EMaxC= 1.00D+00 BMatC= 1.75D-07 BMatP= 3.25D-07
 IDIUse=1 WtCom= 1.00D+00 WtEn= 0.00D+00
 Coeff-Com:  0.337D-04-0.110D-02 0.212D-02-0.136D-02-0.102D-01-0.142D-01
 Coeff-Com:  0.687D-01 0.299D-01-0.567D-01-0.204D+00 0.146D-01 0.347D+00
 Coeff-Com:  0.198D+00-0.254D+00-0.127D+01 0.155D-01 0.214D+01
 Coeff:      0.337D-04-0.110D-02 0.212D-02-0.136D-02-0.102D-01-0.142D-01
 Coeff:      0.687D-01 0.299D-01-0.567D-01-0.204D+00 0.146D-01 0.347D+00
 Coeff:      0.198D+00-0.254D+00-0.127D+01 0.155D-01 0.214D+01
 Gap=     0.254 Goal=   None    Shift=    0.500
 Gap=     0.163 Goal=   None    Shift=    0.500
 RMSDP=9.31D-07 MaxDP=4.93D-05 DE=-3.55D-07 OVMax= 4.33D-04

 SCF Done:  E(ULC-wHPBE) =  -1092.33039769     A.U. after   17 cycles
            NFock= 17  Conv=0.93D-06     -V/T= 2.0042
 <Sx>= 0.0000 <Sy>= 0.0000 <Sz>= 0.5000 <S**2>= 0.7605 S= 0.5052
 <L.S>= 0.000000000000E+00
 KE= 1.087791261832D+03 PE=-6.636712435380D+03 EE= 2.399912967259D+03
 Annihilation of the first spin contaminant:
 S**2 before annihilation     0.7605,   after     0.7501
 Leave Link  502 at Sun Jan 17 00:49:11 2021, MaxMem=  4026531840 cpu:            7696.1 elap:             964.5
 (Enter /opt/ohpc/pub/libs/gaussian/g16-A.03/sandybridge/g16/l508.exe)
 QCSCF skips out because SCF is already converged.
 Leave Link  508 at Sun Jan 17 00:49:11 2021, MaxMem=  4026531840 cpu:               0.2 elap:               0.1
 (Enter /opt/ohpc/pub/libs/gaussian/g16-A.03/sandybridge/g16/l601.exe)
 Copying SCF densities to generalized density rwf, IOpCl= 1 IROHF=0.

 **********************************************************************

            Population analysis using the SCF density.

 **********************************************************************

 Orbital symmetries:
 Alpha Orbitals:
       Occupied  (A) (A) (A) (A) (A) (A) (A) (A) (A) (A) (A) (A)
                 (A) (A) (A) (A) (A) (A) (A) (A) (A) (A) (A) (A)
                 (A) (A) (A) (A) (A) (A) (A) (A) (A) (A) (A) (A)
                 (A) (A) (A) (A) (A) (A) (A) (A) (A) (A) (A) (A)
                 (A) (A) (A) (A) (A) (A) (A) (A) (A) (A) (A) (A)
                 (A) (A) (A) (A) (A) (A) (A) (A) (A) (A) (A) (A)
                 (A) (A) (A) (A) (A) (A) (A) (A) (A) (A) (A) (A)
                 (A) (A) (A) (A) (A)
       Virtual   (A) (A) (A) (A) (A) (A) (A) (A) (A) (A) (A) (A)
                 (A) (A) (A) (A) (A) (A) (A) (A) (A) (A) (A) (A)
                 (A) (A) (A) (A) (A) (A) (A) (A) (A) (A) (A) (A)
                 (A) (A) (A) (A) (A) (A) (A) (A) (A) (A) (A) (A)
                 (A) (A) (A) (A) (A) (A) (A) (A) (A) (A) (A) (A)
                 (A) (A) (A) (A) (A) (A) (A) (A) (A) (A) (A) (A)
                 (A) (A) (A) (A) (A) (A) (A) (A) (A) (A) (A) (A)
                 (A) (A) (A) (A) (A) (A) (A) (A) (A) (A) (A) (A)
                 (A) (A) (A) (A) (A) (A) (A) (A) (A) (A) (A) (A)
                 (A) (A) (A) (A) (A) (A) (A) (A) (A) (A) (A) (A)
                 (A) (A) (A) (A) (A) (A) (A) (A) (A) (A) (A) (A)
                 (A) (A) (A) (A) (A) (A) (A) (A) (A) (A) (A) (A)
                 (A) (A) (A) (A) (A) (A) (A) (A) (A) (A) (A) (A)
                 (A) (A) (A) (A) (A) (A) (A) (A) (A) (A) (A) (A)
                 (A) (A) (A) (A) (A) (A) (A) (A) (A) (A) (A) (A)
                 (A) (A) (A) (A) (A) (A) (A) (A) (A) (A) (A) (A)
                 (A) (A) (A) (A) (A) (A) (A) (A) (A) (A) (A) (A)
                 (A) (A) (A) (A) (A) (A) (A) (A) (A) (A) (A) (A)
                 (A) (A) (A) (A) (A) (A) (A) (A) (A) (A) (A) (A)
                 (A) (A) (A) (A) (A) (A) (A) (A) (A) (A) (A) (A)
                 (A) (A) (A) (A) (A) (A) (A) (A) (A) (A) (A) (A)
                 (A) (A) (A) (A) (A) (A) (A) (A) (A) (A) (A) (A)
                 (A) (A) (A) (A) (A) (A) (A) (A) (A) (A) (A) (A)
                 (A) (A) (A) (A) (A) (A) (A) (A) (A) (A) (A) (A)
                 (A) (A) (A) (A) (A) (A) (A) (A) (A) (A) (A) (A)
                 (A) (A) (A) (A) (A) (A) (A) (A) (A) (A) (A) (A)
                 (A) (A) (A) (A) (A) (A) (A) (A) (A) (A) (A) (A)
                 (A) (A) (A) (A) (A) (A) (A) (A) (A) (A) (A) (A)
                 (A) (A) (A) (A) (A) (A) (A) (A) (A) (A) (A) (A)
                 (A) (A) (A) (A) (A) (A) (A) (A) (A) (A) (A) (A)
                 (A) (A) (A) (A) (A) (A) (A) (A) (A) (A) (A) (A)
                 (A) (A) (A) (A) (A) (A) (A) (A) (A) (A) (A) (A)
                 (A) (A) (A) (A) (A) (A) (A) (A) (A) (A) (A) (A)
                 (A) (A) (A) (A) (A) (A) (A) (A) (A) (A) (A) (A)
                 (A) (A) (A) (A) (A) (A) (A) (A) (A) (A) (A) (A)
                 (A) (A) (A) (A) (A) (A) (A) (A) (A) (A) (A) (A)
                 (A) (A) (A) (A) (A) (A) (A) (A) (A) (A) (A) (A)
                 (A) (A) (A) (A) (A) (A) (A) (A) (A) (A) (A) (A)
                 (A) (A) (A) (A) (A) (A) (A) (A) (A) (A) (A) (A)
                 (A) (A) (A) (A) (A) (A) (A) (A) (A) (A) (A) (A)
                 (A) (A) (A) (A) (A) (A) (A) (A) (A) (A) (A) (A)
                 (A) (A) (A) (A) (A) (A) (A) (A) (A) (A) (A) (A)
                 (A) (A) (A) (A) (A) (A) (A) (A)
 Beta  Orbitals:
       Occupied  (A) (A) (A) (A) (A) (A) (A) (A) (A) (A) (A) (A)
                 (A) (A) (A) (A) (A) (A) (A) (A) (A) (A) (A) (A)
                 (A) (A) (A) (A) (A) (A) (A) (A) (A) (A) (A) (A)
                 (A) (A) (A) (A) (A) (A) (A) (A) (A) (A) (A) (A)
                 (A) (A) (A) (A) (A) (A) (A) (A) (A) (A) (A) (A)
                 (A) (A) (A) (A) (A) (A) (A) (A) (A) (A) (A) (A)
                 (A) (A) (A) (A) (A) (A) (A) (A) (A) (A) (A) (A)
                 (A) (A) (A) (A)
       Virtual   (A) (A) (A) (A) (A) (A) (A) (A) (A) (A) (A) (A)
                 (A) (A) (A) (A) (A) (A) (A) (A) (A) (A) (A) (A)
                 (A) (A) (A) (A) (A) (A) (A) (A) (A) (A) (A) (A)
                 (A) (A) (A) (A) (A) (A) (A) (A) (A) (A) (A) (A)
                 (A) (A) (A) (A) (A) (A) (A) (A) (A) (A) (A) (A)
                 (A) (A) (A) (A) (A) (A) (A) (A) (A) (A) (A) (A)
                 (A) (A) (A) (A) (A) (A) (A) (A) (A) (A) (A) (A)
                 (A) (A) (A) (A) (A) (A) (A) (A) (A) (A) (A) (A)
                 (A) (A) (A) (A) (A) (A) (A) (A) (A) (A) (A) (A)
                 (A) (A) (A) (A) (A) (A) (A) (A) (A) (A) (A) (A)
                 (A) (A) (A) (A) (A) (A) (A) (A) (A) (A) (A) (A)
                 (A) (A) (A) (A) (A) (A) (A) (A) (A) (A) (A) (A)
                 (A) (A) (A) (A) (A) (A) (A) (A) (A) (A) (A) (A)
                 (A) (A) (A) (A) (A) (A) (A) (A) (A) (A) (A) (A)
                 (A) (A) (A) (A) (A) (A) (A) (A) (A) (A) (A) (A)
                 (A) (A) (A) (A) (A) (A) (A) (A) (A) (A) (A) (A)
                 (A) (A) (A) (A) (A) (A) (A) (A) (A) (A) (A) (A)
                 (A) (A) (A) (A) (A) (A) (A) (A) (A) (A) (A) (A)
                 (A) (A) (A) (A) (A) (A) (A) (A) (A) (A) (A) (A)
                 (A) (A) (A) (A) (A) (A) (A) (A) (A) (A) (A) (A)
                 (A) (A) (A) (A) (A) (A) (A) (A) (A) (A) (A) (A)
                 (A) (A) (A) (A) (A) (A) (A) (A) (A) (A) (A) (A)
                 (A) (A) (A) (A) (A) (A) (A) (A) (A) (A) (A) (A)
                 (A) (A) (A) (A) (A) (A) (A) (A) (A) (A) (A) (A)
                 (A) (A) (A) (A) (A) (A) (A) (A) (A) (A) (A) (A)
                 (A) (A) (A) (A) (A) (A) (A) (A) (A) (A) (A) (A)
                 (A) (A) (A) (A) (A) (A) (A) (A) (A) (A) (A) (A)
                 (A) (A) (A) (A) (A) (A) (A) (A) (A) (A) (A) (A)
                 (A) (A) (A) (A) (A) (A) (A) (A) (A) (A) (A) (A)
                 (A) (A) (A) (A) (A) (A) (A) (A) (A) (A) (A) (A)
                 (A) (A) (A) (A) (A) (A) (A) (A) (A) (A) (A) (A)
                 (A) (A) (A) (A) (A) (A) (A) (A) (A) (A) (A) (A)
                 (A) (A) (A) (A) (A) (A) (A) (A) (A) (A) (A) (A)
                 (A) (A) (A) (A) (A) (A) (A) (A) (A) (A) (A) (A)
                 (A) (A) (A) (A) (A) (A) (A) (A) (A) (A) (A) (A)
                 (A) (A) (A) (A) (A) (A) (A) (A) (A) (A) (A) (A)
                 (A) (A) (A) (A) (A) (A) (A) (A) (A) (A) (A) (A)
                 (A) (A) (A) (A) (A) (A) (A) (A) (A) (A) (A) (A)
                 (A) (A) (A) (A) (A) (A) (A) (A) (A) (A) (A) (A)
                 (A) (A) (A) (A) (A) (A) (A) (A) (A) (A) (A) (A)
                 (A) (A) (A) (A) (A) (A) (A) (A) (A) (A) (A) (A)
                 (A) (A) (A) (A) (A) (A) (A) (A) (A) (A) (A) (A)
                 (A) (A) (A) (A) (A) (A) (A) (A) (A)
 The electronic state is 2-A.
 Alpha  occ. eigenvalues --  -18.99245 -18.99225 -18.99220 -14.28998 -10.16120
 Alpha  occ. eigenvalues --  -10.16097 -10.16083 -10.14784 -10.14781 -10.14773
 Alpha  occ. eigenvalues --  -10.12160 -10.12119 -10.12080 -10.11209 -10.11180
 Alpha  occ. eigenvalues --  -10.11166 -10.10863 -10.10839 -10.10811 -10.10081
 Alpha  occ. eigenvalues --  -10.10046 -10.10035 -10.09676 -10.09658 -10.09629
 Alpha  occ. eigenvalues --   -1.19115  -1.19089  -1.19075  -1.13884  -1.01098
 Alpha  occ. eigenvalues --   -1.01084  -0.99092  -0.92099  -0.91947  -0.90337
 Alpha  occ. eigenvalues --   -0.90184  -0.89897  -0.88150  -0.84713  -0.84239
 Alpha  occ. eigenvalues --   -0.82122  -0.79032  -0.77890  -0.77267  -0.75975
 Alpha  occ. eigenvalues --   -0.75215  -0.72977  -0.71076  -0.71052  -0.68801
 Alpha  occ. eigenvalues --   -0.67744  -0.67687  -0.66334  -0.64356  -0.64139
 Alpha  occ. eigenvalues --   -0.61747  -0.61723  -0.61681  -0.61048  -0.60998
 Alpha  occ. eigenvalues --   -0.60931  -0.59011  -0.58892  -0.58876  -0.58493
 Alpha  occ. eigenvalues --   -0.58218  -0.56918  -0.56883  -0.55907  -0.55709
 Alpha  occ. eigenvalues --   -0.55440  -0.55431  -0.55410  -0.53190  -0.52006
 Alpha  occ. eigenvalues --   -0.51959  -0.51163  -0.49506  -0.49399  -0.48339
 Alpha  occ. eigenvalues --   -0.48241  -0.48216  -0.45719  -0.44665  -0.43749
 Alpha  occ. eigenvalues --   -0.43562  -0.40641  -0.40505  -0.36555
 Alpha virt. eigenvalues --   -0.11113  -0.09814  -0.09702  -0.08940  -0.08789
 Alpha virt. eigenvalues --   -0.05541  -0.01805  -0.00514  -0.00390   0.00375
 Alpha virt. eigenvalues --    0.00570   0.01170   0.01963   0.02194   0.02565
 Alpha virt. eigenvalues --    0.02726   0.03392   0.03440   0.03749   0.05338
 Alpha virt. eigenvalues --    0.05420   0.05927   0.06292   0.06487   0.06858
 Alpha virt. eigenvalues --    0.06963   0.07060   0.07181   0.07354   0.07566
 Alpha virt. eigenvalues --    0.07588   0.08034   0.08452   0.08743   0.11069
 Alpha virt. eigenvalues --    0.11571   0.11726   0.12518   0.12904   0.13291
 Alpha virt. eigenvalues --    0.13911   0.13949   0.14295   0.14869   0.15112
 Alpha virt. eigenvalues --    0.15337   0.15501   0.15755   0.16310   0.16752
 Alpha virt. eigenvalues --    0.16954   0.17285   0.17462   0.17656   0.17901
 Alpha virt. eigenvalues --    0.19202   0.19316   0.19733   0.20614   0.21010
 Alpha virt. eigenvalues --    0.21736   0.21856   0.21934   0.22295   0.22686
 Alpha virt. eigenvalues --    0.22865   0.23742   0.24290   0.24356   0.24849
 Alpha virt. eigenvalues --    0.25581   0.25750   0.25967   0.27031   0.27354
 Alpha virt. eigenvalues --    0.27842   0.28049   0.28480   0.28700   0.29434
 Alpha virt. eigenvalues --    0.30115   0.30346   0.31166   0.31436   0.31496
 Alpha virt. eigenvalues --    0.31670   0.32004   0.32265   0.32638   0.33140
 Alpha virt. eigenvalues --    0.33332   0.33570   0.34290   0.34862   0.35112
 Alpha virt. eigenvalues --    0.35296   0.35537   0.35701   0.36101   0.36327
 Alpha virt. eigenvalues --    0.37114   0.37319   0.37547   0.37843   0.38865
 Alpha virt. eigenvalues --    0.39215   0.39497   0.39710   0.39811   0.40032
 Alpha virt. eigenvalues --    0.40205   0.40278   0.40839   0.40972   0.41267
 Alpha virt. eigenvalues --    0.41859   0.41870   0.42258   0.42340   0.42958
 Alpha virt. eigenvalues --    0.43409   0.43560   0.43974   0.44599   0.46158
 Alpha virt. eigenvalues --    0.46836   0.47334   0.47500   0.47900   0.48003
 Alpha virt. eigenvalues --    0.49763   0.50572   0.51838   0.52999   0.53126
 Alpha virt. eigenvalues --    0.53980   0.54926   0.55548   0.55733   0.56023
 Alpha virt. eigenvalues --    0.56628   0.56892   0.57833   0.58192   0.58597
 Alpha virt. eigenvalues --    0.60061   0.60129   0.60532   0.61181   0.61810
 Alpha virt. eigenvalues --    0.62376   0.63158   0.63573   0.64127   0.64730
 Alpha virt. eigenvalues --    0.65092   0.65773   0.65916   0.67104   0.67373
 Alpha virt. eigenvalues --    0.67688   0.69949   0.71287   0.71581   0.72244
 Alpha virt. eigenvalues --    0.73710   0.74397   0.76070   0.76662   0.78180
 Alpha virt. eigenvalues --    0.79530   0.80521   0.83371   0.84396   0.84582
 Alpha virt. eigenvalues --    0.85701   0.85928   0.86999   1.03891   1.06019
 Alpha virt. eigenvalues --    1.06373   1.10049   1.10497   1.11220   1.12755
 Alpha virt. eigenvalues --    1.12969   1.13132   1.13802   1.14419   1.14998
 Alpha virt. eigenvalues --    1.15346   1.15733   1.16033   1.17017   1.17379
 Alpha virt. eigenvalues --    1.18720   1.18936   1.19199   1.19665   1.19947
 Alpha virt. eigenvalues --    1.20238   1.20595   1.21318   1.21486   1.22100
 Alpha virt. eigenvalues --    1.22281   1.23562   1.24152   1.24708   1.25136
 Alpha virt. eigenvalues --    1.25663   1.25906   1.27831   1.28225   1.28523
 Alpha virt. eigenvalues --    1.29244   1.29519   1.29713   1.31216   1.31544
 Alpha virt. eigenvalues --    1.31628   1.32351   1.32604   1.32884   1.32974
 Alpha virt. eigenvalues --    1.33350   1.34240   1.34598   1.34881   1.35200
 Alpha virt. eigenvalues --    1.35438   1.36101   1.36660   1.36893   1.37512
 Alpha virt. eigenvalues --    1.37936   1.38536   1.38982   1.39494   1.40959
 Alpha virt. eigenvalues --    1.41218   1.41340   1.41510   1.41897   1.42263
 Alpha virt. eigenvalues --    1.42365   1.42684   1.43197   1.43714   1.44113
 Alpha virt. eigenvalues --    1.44768   1.44886   1.45238   1.45312   1.45805
 Alpha virt. eigenvalues --    1.46176   1.46410   1.46504   1.47791   1.47966
 Alpha virt. eigenvalues --    1.48880   1.50222   1.50613   1.51178   1.51768
 Alpha virt. eigenvalues --    1.53743   1.54539   1.54761   1.56641   1.56755
 Alpha virt. eigenvalues --    1.57064   1.58230   1.58438   1.58993   1.61916
 Alpha virt. eigenvalues --    1.62727   1.65112   1.65220   1.66113   1.66880
 Alpha virt. eigenvalues --    1.67018   1.67105   1.67175   1.67836   1.68375
 Alpha virt. eigenvalues --    1.68919   1.70063   1.70236   1.70364   1.70471
 Alpha virt. eigenvalues --    1.70507   1.70591   1.71074   1.71361   1.71837
 Alpha virt. eigenvalues --    1.72219   1.72647   1.72796   1.74154   1.75651
 Alpha virt. eigenvalues --    1.76245   1.76849   1.77630   1.77952   1.78740
 Alpha virt. eigenvalues --    1.80204   1.80406   1.80711   1.81048   1.81576
 Alpha virt. eigenvalues --    1.81676   1.81906   1.82122   1.82233   1.82345
 Alpha virt. eigenvalues --    1.82723   1.83871   1.88817   1.89226   1.89621
 Alpha virt. eigenvalues --    1.91988   1.92084   1.92966   1.94551   1.94809
 Alpha virt. eigenvalues --    1.95389   1.98022   1.98751   1.99515   2.00742
 Alpha virt. eigenvalues --    2.01876   2.02848   2.03880   2.04764   2.07130
 Alpha virt. eigenvalues --    2.07258   2.08067   2.08983   2.09600   2.09928
 Alpha virt. eigenvalues --    2.10824   2.11394   2.11463   2.13772   2.17869
 Alpha virt. eigenvalues --    2.17959   2.18140   2.18288   2.18332   2.18923
 Alpha virt. eigenvalues --    2.19301   2.19765   2.21123   2.21593   2.22805
 Alpha virt. eigenvalues --    2.22929   2.23658   2.23833   2.24534   2.25647
 Alpha virt. eigenvalues --    2.25695   2.25992   2.26049   2.26183   2.26448
 Alpha virt. eigenvalues --    2.26723   2.26854   2.27083   2.28416   2.28493
 Alpha virt. eigenvalues --    2.28706   2.31207   2.31346   2.35408   2.35689
 Alpha virt. eigenvalues --    2.35956   2.37547   2.38525   2.38813   2.39020
 Alpha virt. eigenvalues --    2.43277   2.43431   2.46788   2.46846   2.46985
 Alpha virt. eigenvalues --    2.47412   2.47550   2.48621   2.49178   2.49551
 Alpha virt. eigenvalues --    2.49853   2.51592   2.51827   2.52418   2.52748
 Alpha virt. eigenvalues --    2.54668   2.55147   2.60005   2.60285   2.60366
 Alpha virt. eigenvalues --    2.60798   2.61120   2.61365   2.62595   2.62821
 Alpha virt. eigenvalues --    2.63475   2.63858   2.64355   2.64719   2.66286
 Alpha virt. eigenvalues --    2.66714   2.67759   2.69973   2.71655   2.72440
 Alpha virt. eigenvalues --    2.75552   2.76164   2.76985   2.77414   2.81569
 Alpha virt. eigenvalues --    2.81929   2.83507   2.83535   2.83732   2.88395
 Alpha virt. eigenvalues --    2.88571   2.88708   2.89077   2.90013   2.92347
 Alpha virt. eigenvalues --    2.93046   2.93323   2.93674   2.94389   2.95467
 Alpha virt. eigenvalues --    2.95510   2.95518   2.96043   2.96677   2.96830
 Alpha virt. eigenvalues --    2.98668   2.99125   3.01332   3.02592   3.03295
 Alpha virt. eigenvalues --    3.03699   3.05269   3.05659   3.07585   3.08949
 Alpha virt. eigenvalues --    3.09902   3.13740   3.14552   3.15040   3.16405
 Alpha virt. eigenvalues --    3.16844   3.17035   3.17418   3.18891   3.18930
 Alpha virt. eigenvalues --    3.18967   3.19348   3.20076   3.21002   3.24119
 Alpha virt. eigenvalues --    3.24773   3.25736   3.26203   3.27331   3.30635
 Alpha virt. eigenvalues --    3.31498   3.32404   3.32568   3.42090   3.42492
 Alpha virt. eigenvalues --    3.43829   3.45724   3.46096   3.57743   3.70828
 Alpha virt. eigenvalues --    3.71187   3.85101   3.85388   3.85561   4.04972
 Alpha virt. eigenvalues --    4.05577   4.05667  21.11543  21.13285  21.13465
 Alpha virt. eigenvalues --   21.55969  21.59419  21.59800  21.64118  21.70232
 Alpha virt. eigenvalues --   21.70320  21.70420  21.72360  21.73287  21.78391
 Alpha virt. eigenvalues --   21.82849  21.83605  21.84460  21.88317  21.89835
 Alpha virt. eigenvalues --   21.95359  22.02408  22.03151  31.87168  43.21268
 Alpha virt. eigenvalues --   43.21354  43.21358
  Beta  occ. eigenvalues --  -18.99132 -18.99109 -18.99099 -14.28267 -10.16002
  Beta  occ. eigenvalues --  -10.15976 -10.15959 -10.14794 -10.14791 -10.14783
  Beta  occ. eigenvalues --  -10.12165 -10.12124 -10.12085 -10.11089 -10.11058
  Beta  occ. eigenvalues --  -10.11042 -10.10773 -10.10748 -10.10719 -10.10103
  Beta  occ. eigenvalues --  -10.10070 -10.10057 -10.09701 -10.09680 -10.09654
  Beta  occ. eigenvalues --   -1.18925  -1.18893  -1.18872  -1.12956  -1.00901
  Beta  occ. eigenvalues --   -1.00881  -0.98823  -0.91898  -0.91747  -0.90216
  Beta  occ. eigenvalues --   -0.90057  -0.89771  -0.87853  -0.84646  -0.84179
  Beta  occ. eigenvalues --   -0.81892  -0.78829  -0.77706  -0.77086  -0.75783
  Beta  occ. eigenvalues --   -0.75064  -0.72849  -0.70942  -0.70914  -0.68701
  Beta  occ. eigenvalues --   -0.67616  -0.67550  -0.65884  -0.64263  -0.64038
  Beta  occ. eigenvalues --   -0.61491  -0.61461  -0.61413  -0.60941  -0.60895
  Beta  occ. eigenvalues --   -0.60840  -0.58925  -0.58819  -0.58807  -0.58108
  Beta  occ. eigenvalues --   -0.57977  -0.56862  -0.56834  -0.55768  -0.55542
  Beta  occ. eigenvalues --   -0.55161  -0.55148  -0.55120  -0.52721  -0.51904
  Beta  occ. eigenvalues --   -0.51864  -0.50689  -0.49001  -0.48891  -0.48227
  Beta  occ. eigenvalues --   -0.48153  -0.48127  -0.44426  -0.44154  -0.43474
  Beta  occ. eigenvalues --   -0.43263  -0.39435  -0.39232
  Beta virt. eigenvalues --   -0.22888  -0.10765  -0.09213  -0.09048  -0.08496
  Beta virt. eigenvalues --   -0.08286  -0.04550  -0.01731  -0.00452  -0.00334
  Beta virt. eigenvalues --    0.00437   0.00625   0.01210   0.02039   0.02235
  Beta virt. eigenvalues --    0.02612   0.02785   0.03469   0.03507   0.03909
  Beta virt. eigenvalues --    0.05585   0.05736   0.06030   0.06337   0.06568
  Beta virt. eigenvalues --    0.06974   0.07042   0.07163   0.07212   0.07398
  Beta virt. eigenvalues --    0.07618   0.07664   0.08071   0.08641   0.08937
  Beta virt. eigenvalues --    0.11290   0.11671   0.11835   0.12647   0.13011
  Beta virt. eigenvalues --    0.13390   0.14043   0.14089   0.14379   0.14960
  Beta virt. eigenvalues --    0.15247   0.15453   0.15626   0.15905   0.16414
  Beta virt. eigenvalues --    0.16816   0.17038   0.17384   0.17593   0.17769
  Beta virt. eigenvalues --    0.18026   0.19268   0.19388   0.19847   0.20701
  Beta virt. eigenvalues --    0.21093   0.21810   0.21978   0.22019   0.22436
  Beta virt. eigenvalues --    0.22780   0.22959   0.23802   0.24447   0.24502
  Beta virt. eigenvalues --    0.25000   0.25670   0.25835   0.26094   0.27159
  Beta virt. eigenvalues --    0.27486   0.27987   0.28190   0.28597   0.28840
  Beta virt. eigenvalues --    0.29561   0.30260   0.30463   0.31284   0.31547
  Beta virt. eigenvalues --    0.31614   0.31827   0.32167   0.32389   0.32786
  Beta virt. eigenvalues --    0.33212   0.33441   0.33694   0.34380   0.34973
  Beta virt. eigenvalues --    0.35206   0.35381   0.35582   0.35823   0.36158
  Beta virt. eigenvalues --    0.36381   0.37176   0.37379   0.37602   0.37909
  Beta virt. eigenvalues --    0.38946   0.39295   0.39596   0.39806   0.39883
  Beta virt. eigenvalues --    0.40105   0.40299   0.40345   0.40911   0.41054
  Beta virt. eigenvalues --    0.41338   0.41936   0.41952   0.42366   0.42452
  Beta virt. eigenvalues --    0.43030   0.43484   0.43646   0.44093   0.44716
  Beta virt. eigenvalues --    0.46263   0.46936   0.47446   0.47596   0.48018
  Beta virt. eigenvalues --    0.48127   0.49944   0.50710   0.51940   0.53119
  Beta virt. eigenvalues --    0.53228   0.54094   0.55003   0.55694   0.55850
  Beta virt. eigenvalues --    0.56176   0.56757   0.57060   0.57927   0.58295
  Beta virt. eigenvalues --    0.58668   0.60121   0.60200   0.60621   0.61294
  Beta virt. eigenvalues --    0.61910   0.62530   0.63299   0.63708   0.64206
  Beta virt. eigenvalues --    0.64835   0.65234   0.65845   0.66048   0.67196
  Beta virt. eigenvalues --    0.67495   0.67785   0.70068   0.71364   0.71682
  Beta virt. eigenvalues --    0.72471   0.73782   0.74468   0.76449   0.76804
  Beta virt. eigenvalues --    0.78423   0.79734   0.80592   0.83465   0.84484
  Beta virt. eigenvalues --    0.84665   0.85809   0.86026   0.87280   1.03993
  Beta virt. eigenvalues --    1.06112   1.06462   1.10123   1.10571   1.11281
  Beta virt. eigenvalues --    1.12889   1.13111   1.13264   1.13904   1.14525
  Beta virt. eigenvalues --    1.15120   1.15504   1.15908   1.16201   1.17146
  Beta virt. eigenvalues --    1.17499   1.18804   1.19060   1.19269   1.19727
  Beta virt. eigenvalues --    1.20025   1.20318   1.20688   1.21405   1.21581
  Beta virt. eigenvalues --    1.22234   1.22385   1.23766   1.24335   1.24863
  Beta virt. eigenvalues --    1.25195   1.25700   1.25929   1.27864   1.28273
  Beta virt. eigenvalues --    1.28571   1.29440   1.29718   1.29959   1.31423
  Beta virt. eigenvalues --    1.31699   1.31776   1.32525   1.32753   1.33107
  Beta virt. eigenvalues --    1.33159   1.33554   1.34403   1.34695   1.34944
  Beta virt. eigenvalues --    1.35270   1.35516   1.36176   1.36782   1.37062
  Beta virt. eigenvalues --    1.37659   1.38057   1.38787   1.39219   1.39682
  Beta virt. eigenvalues --    1.41186   1.41343   1.41550   1.41795   1.42207
  Beta virt. eigenvalues --    1.42457   1.42585   1.42861   1.43286   1.43840
  Beta virt. eigenvalues --    1.44197   1.44924   1.45012   1.45361   1.45488
  Beta virt. eigenvalues --    1.45939   1.46287   1.46654   1.46736   1.47969
  Beta virt. eigenvalues --    1.48153   1.49064   1.50398   1.50756   1.51295
  Beta virt. eigenvalues --    1.51881   1.53850   1.54665   1.54880   1.56821
  Beta virt. eigenvalues --    1.56923   1.57193   1.58378   1.58566   1.59089
  Beta virt. eigenvalues --    1.62038   1.62860   1.65340   1.65473   1.66319
  Beta virt. eigenvalues --    1.67049   1.67113   1.67214   1.67277   1.67896
  Beta virt. eigenvalues --    1.68478   1.69041   1.70183   1.70315   1.70411
  Beta virt. eigenvalues --    1.70529   1.70569   1.70701   1.71169   1.71470
  Beta virt. eigenvalues --    1.71891   1.72553   1.72737   1.72873   1.74352
  Beta virt. eigenvalues --    1.75818   1.76411   1.77029   1.77746   1.78099
  Beta virt. eigenvalues --    1.79033   1.80347   1.80547   1.80789   1.81209
  Beta virt. eigenvalues --    1.81733   1.81847   1.82055   1.82330   1.82396
  Beta virt. eigenvalues --    1.82482   1.82823   1.84103   1.89076   1.89404
  Beta virt. eigenvalues --    1.89785   1.92172   1.92270   1.93240   1.94707
  Beta virt. eigenvalues --    1.94955   1.95635   1.98151   1.98906   1.99645
  Beta virt. eigenvalues --    2.00977   2.02116   2.03025   2.04118   2.04987
  Beta virt. eigenvalues --    2.07513   2.07614   2.08437   2.09369   2.09680
  Beta virt. eigenvalues --    2.10006   2.10919   2.11530   2.11638   2.13985
  Beta virt. eigenvalues --    2.18062   2.18160   2.18394   2.18500   2.18558
  Beta virt. eigenvalues --    2.19104   2.19504   2.19948   2.21319   2.21930
  Beta virt. eigenvalues --    2.23047   2.23181   2.23889   2.24036   2.24755
  Beta virt. eigenvalues --    2.25781   2.25830   2.26092   2.26189   2.26342
  Beta virt. eigenvalues --    2.26711   2.26908   2.27213   2.27277   2.28515
  Beta virt. eigenvalues --    2.28611   2.28819   2.31605   2.31742   2.35667
  Beta virt. eigenvalues --    2.35880   2.36310   2.37868   2.38615   2.38907
  Beta virt. eigenvalues --    2.39105   2.43353   2.43505   2.46869   2.46927
  Beta virt. eigenvalues --    2.47059   2.47558   2.47688   2.48822   2.49413
  Beta virt. eigenvalues --    2.49754   2.50153   2.51775   2.52153   2.52591
  Beta virt. eigenvalues --    2.52975   2.54904   2.55419   2.60368   2.60624
  Beta virt. eigenvalues --    2.60662   2.61161   2.61318   2.61838   2.62816
  Beta virt. eigenvalues --    2.62992   2.64008   2.64079   2.64908   2.65044
  Beta virt. eigenvalues --    2.66521   2.66908   2.68116   2.70343   2.71818
  Beta virt. eigenvalues --    2.72568   2.75750   2.76409   2.77228   2.77613
  Beta virt. eigenvalues --    2.82003   2.82323   2.83849   2.83878   2.84104
  Beta virt. eigenvalues --    2.88530   2.88693   2.88850   2.89202   2.90144
  Beta virt. eigenvalues --    2.92450   2.93105   2.93449   2.93761   2.94566
  Beta virt. eigenvalues --    2.95772   2.95822   2.95839   2.96158   2.96768
  Beta virt. eigenvalues --    2.96942   2.98771   2.99216   3.01430   3.02760
  Beta virt. eigenvalues --    3.03497   3.03910   3.05375   3.05752   3.07700
  Beta virt. eigenvalues --    3.09065   3.10025   3.13884   3.14710   3.15204
  Beta virt. eigenvalues --    3.16531   3.16976   3.17147   3.17554   3.18945
  Beta virt. eigenvalues --    3.18985   3.19024   3.19603   3.20163   3.21341
[...]
     6   Atom       -0.002965      0.011083     -0.008118
     7   Atom        0.007978     -0.043673      0.035696
     8   Atom        0.000894     -0.001865      0.000971
     9   Atom        0.001016     -0.001500      0.000484
    10   Atom       -0.000592      0.000653     -0.000061
    11   Atom       -0.000606      0.000607     -0.000001
    12   Atom       -0.006795     -0.010109      0.016904
    13   Atom        0.011018     -0.006004     -0.005014
    14   Atom       -0.015002      0.027007     -0.012005
    15   Atom        0.008242      0.000198     -0.008440
    16   Atom        0.002031      0.007214     -0.009245
    17   Atom       -0.029333     -0.015149      0.044482
    18   Atom       -0.001031      0.000484      0.000547
    19   Atom        0.000448     -0.000266     -0.000182
    20   Atom        0.000554     -0.000219     -0.000335
    21   Atom        0.000201     -0.000083     -0.000118
    22   Atom       -0.048760     -0.024187      0.072947
    23   Atom        0.002413     -0.001562     -0.000851
    24   Atom        0.002088     -0.000822     -0.001266
    25   Atom        0.000618     -0.000875      0.000257
    26   Atom        0.001522     -0.000455     -0.001067
    27   Atom        0.039569     -0.094723      0.055153
    28   Atom        0.000199      0.000326     -0.000526
    29   Atom        0.001092      0.000058     -0.001150
    30   Atom       -0.000728      0.000304      0.000424
    31   Atom       -0.000395      0.001371     -0.000976
    32   Atom       -0.001189     -0.016886      0.018075
    33   Atom       -0.033643      0.028195      0.005448
    34   Atom       -0.037183      0.038692     -0.001509
    35   Atom        0.009801      0.000105     -0.009906
    36   Atom        0.007926      0.003199     -0.011125
    37   Atom       -0.047701     -0.010976      0.058677
    38   Atom       -0.002619      0.003008     -0.000389
    39   Atom       -0.001083      0.001873     -0.000790
    40   Atom        0.000914     -0.000353     -0.000561
    41   Atom        0.000637     -0.000116     -0.000521
    42   Atom       -0.100454     -0.003154      0.103608
    43   Atom        0.002187     -0.001168     -0.001018
    44   Atom        0.001494     -0.000131     -0.001364
    45   Atom        0.000936     -0.001206      0.000269
    46   Atom        0.002279     -0.001226     -0.001052
 --------------------------------------------------------
                        XY            XZ            YZ
 --------------------------------------------------------
     1   Atom       -0.002034      0.049284     -0.055984
     2   Atom        0.002670      0.011582     -0.005744
     3   Atom       -0.010425      0.062257     -0.009071
     4   Atom       -0.033563      0.040043     -0.015040
     5   Atom        0.005775     -0.008052      0.006221
     6   Atom        0.000008     -0.012435      0.000039
     7   Atom       -0.015219      0.074436     -0.019289
     8   Atom       -0.001581     -0.004746      0.002544
     9   Atom       -0.000465     -0.004661      0.000709
    10   Atom        0.000673     -0.001836      0.000233
    11   Atom        0.000398     -0.001852      0.000512
    12   Atom       -0.008634     -0.007954     -0.007415
    13   Atom        0.051447     -0.050501     -0.047199
    14   Atom        0.037878     -0.025254     -0.037502
    15   Atom       -0.004831      0.003393      0.010756
    16   Atom       -0.005096      0.008917      0.005668
    17   Atom        0.025755     -0.047901     -0.059931
    18   Atom        0.002295      0.002739      0.004610
    19   Atom        0.001485      0.003722      0.002939
    20   Atom       -0.000782      0.001321      0.001295
    21   Atom       -0.000525      0.001312      0.001583
    22   Atom        0.068529     -0.100076     -0.124495
    23   Atom       -0.000788      0.002301      0.000236
    24   Atom        0.000014      0.000638      0.000207
    25   Atom       -0.000847      0.001501     -0.000364
    26   Atom       -0.001406      0.000514     -0.000312
    27   Atom       -0.035128      0.150937     -0.040190
    28   Atom        0.001967     -0.002138     -0.001179
    29   Atom        0.001292     -0.000813     -0.000286
    30   Atom        0.000910     -0.000995     -0.001172
    31   Atom        0.001390     -0.000333     -0.000687
    32   Atom        0.005737      0.000491      0.008330
    33   Atom       -0.037277     -0.028285      0.068162
    34   Atom       -0.006958     -0.007628      0.051460
    35   Atom       -0.000397     -0.001945     -0.009084
    36   Atom        0.004653      0.006276     -0.009334
    37   Atom       -0.010425     -0.020207      0.071945
    38   Atom       -0.000463     -0.000081     -0.005348
    39   Atom       -0.001259      0.001905     -0.004214
    40   Atom        0.000052      0.000696     -0.001861
    41   Atom        0.000144      0.000548     -0.001988
    42   Atom       -0.032348     -0.042436      0.153446
    43   Atom       -0.001333      0.001963     -0.001376
    44   Atom       -0.001260      0.000439     -0.000418
    45   Atom       -0.000243      0.001549     -0.000519
    46   Atom       -0.000042      0.000706      0.000029
 --------------------------------------------------------


 ---------------------------------------------------------------------------------
              Anisotropic Spin Dipole Couplings in Principal Axis System
 ---------------------------------------------------------------------------------

       Atom             a.u.   MegaHertz   Gauss  10(-4) cm-1        Axes

              Baa    -0.4539   -17.505    -6.246    -5.839  0.0002  0.9992  0.0412
     1 N(14)  Bbb    -0.4532   -17.478    -6.237    -5.830  0.9993  0.0013 -0.0363
              Bcc     0.9070    34.983    12.483    11.669  0.0363 -0.0412  0.9985
 
              Baa    -0.0201    -2.698    -0.963    -0.900  0.9164 -0.2170 -0.3364
     2 C(13)  Bbb    -0.0000    -0.004    -0.002    -0.001  0.2786  0.9492  0.1466
              Bcc     0.0201     2.702     0.964     0.901  0.2875 -0.2280  0.9302
 
              Baa    -0.0522    -7.004    -2.499    -2.336 -0.2726  0.7307  0.6259
     3 C(13)  Bbb    -0.0465    -6.237    -2.226    -2.081  0.4122  0.6766 -0.6102
              Bcc     0.0987    13.241     4.725     4.417  0.8694 -0.0916  0.4856
 
              Baa    -0.0391    -5.243    -1.871    -1.749 -0.5653 -0.5662  0.5999
     4 C(13)  Bbb    -0.0338    -4.540    -1.620    -1.514 -0.0288  0.7404  0.6716
              Bcc     0.0729     9.783     3.491     3.263  0.8244 -0.3624  0.4349
 
              Baa    -0.0155    -2.080    -0.742    -0.694  0.5088 -0.3550  0.7843
     5 C(13)  Bbb     0.0053     0.706     0.252     0.235  0.7272 -0.3103 -0.6122
              Bcc     0.0102     1.374     0.490     0.458  0.4607  0.8819  0.1003
 
              Baa    -0.0182    -2.448    -0.873    -0.816  0.6313 -0.0012  0.7755
     6 C(13)  Bbb     0.0072     0.960     0.343     0.320  0.7755  0.0047 -0.6313
              Bcc     0.0111     1.487     0.531     0.496 -0.0028  1.0000  0.0039
 
              Baa    -0.0539    -7.238    -2.583    -2.414  0.7550 -0.0987 -0.6482
     7 C(13)  Bbb    -0.0478    -6.409    -2.287    -2.138  0.1828  0.9811  0.0637
              Bcc     0.1017    13.647     4.870     4.552  0.6297 -0.1666  0.7588
 
              Baa    -0.0041    -2.206    -0.787    -0.736  0.5457 -0.4277  0.7206
     8 H(1)   Bbb    -0.0025    -1.359    -0.485    -0.453  0.5274  0.8436  0.1014
              Bcc     0.0067     3.564     1.272     1.189 -0.6512  0.3247  0.6859
 
              Baa    -0.0039    -2.100    -0.749    -0.700  0.6790 -0.0825  0.7294
     9 H(1)   Bbb    -0.0016    -0.844    -0.301    -0.281  0.1417  0.9897 -0.0199
              Bcc     0.0055     2.943     1.050     0.982  0.7203 -0.1169 -0.6837
 
              Baa    -0.0023    -1.242    -0.443    -0.414  0.7475 -0.2177  0.6275
    10 H(1)   Bbb     0.0007     0.383     0.137     0.128 -0.0379  0.9292  0.3676
              Bcc     0.0016     0.860     0.307     0.287 -0.6631 -0.2986  0.6864
 
              Baa    -0.0023    -1.237    -0.441    -0.413  0.7399 -0.2125  0.6382
    11 H(1)   Bbb     0.0007     0.387     0.138     0.129  0.2584  0.9658  0.0220
              Bcc     0.0016     0.850     0.303     0.283 -0.6211  0.1486  0.7695
 
              Baa    -0.0204    -2.734    -0.975    -0.912  0.6263  0.7282  0.2785
    12 C(13)  Bbb     0.0003     0.034     0.012     0.011  0.7453 -0.6640  0.0603
              Bcc     0.0201     2.699     0.963     0.900 -0.2288 -0.1698  0.9585
 
              Baa    -0.0528    -7.090    -2.530    -2.365 -0.1165  0.7656  0.6326
    13 C(13)  Bbb    -0.0472    -6.337    -2.261    -2.114  0.7684 -0.3341  0.5458
              Bcc     0.1001    13.426     4.791     4.479  0.6293  0.5497 -0.5494
 
              Baa    -0.0391    -5.251    -1.874    -1.751  0.8281 -0.1717  0.5336
    14 C(13)  Bbb    -0.0341    -4.576    -1.633    -1.526 -0.3227  0.6323  0.7043
              Bcc     0.0732     9.827     3.506     3.278  0.4583  0.7555 -0.4682
 
              Baa    -0.0169    -2.272    -0.811    -0.758 -0.2155 -0.5622  0.7984
    15 C(13)  Bbb     0.0062     0.830     0.296     0.277  0.5165  0.6283  0.5818
              Bcc     0.0107     1.442     0.514     0.481  0.8287 -0.5378 -0.1550
 
              Baa    -0.0165    -2.213    -0.790    -0.738 -0.4795 -0.3002  0.8246
    16 C(13)  Bbb     0.0062     0.825     0.295     0.275  0.7147  0.4116  0.5655
              Bcc     0.0103     1.388     0.495     0.463 -0.5092  0.8605  0.0172
 
              Baa    -0.0550    -7.379    -2.633    -2.461  0.6131  0.5106  0.6029
    17 C(13)  Bbb    -0.0488    -6.544    -2.335    -2.183 -0.6938  0.7129  0.1018
              Bcc     0.1038    13.923     4.968     4.644 -0.3778 -0.4807  0.7913
 
              Baa    -0.0041    -2.213    -0.789    -0.738 -0.1698 -0.6518  0.7392
    18 H(1)   Bbb    -0.0026    -1.392    -0.497    -0.464  0.8933 -0.4185 -0.1639
              Bcc     0.0068     3.604     1.286     1.202  0.4162  0.6325  0.6533
 
              Baa    -0.0041    -2.192    -0.782    -0.731 -0.5000 -0.3959  0.7702
    19 H(1)   Bbb    -0.0014    -0.766    -0.273    -0.256 -0.6200  0.7846  0.0008
              Bcc     0.0055     2.959     1.056     0.987  0.6047  0.4771  0.6378
 
              Baa    -0.0024    -1.255    -0.448    -0.419 -0.4614 -0.5778  0.6732
    20 H(1)   Bbb     0.0008     0.445     0.159     0.148 -0.4530  0.8059  0.3812
              Bcc     0.0015     0.810     0.289     0.270  0.7628  0.1291  0.6336
 
              Baa    -0.0024    -1.262    -0.450    -0.421 -0.4627 -0.5746  0.6751
    21 H(1)   Bbb     0.0006     0.320     0.114     0.107  0.7640 -0.6447 -0.0251
              Bcc     0.0018     0.941     0.336     0.314  0.4496  0.5042  0.7373
 
              Baa    -0.1093     7.906     2.821     2.637 -0.0225  0.8312  0.5556
    22 O(17)  Bbb    -0.1047     7.579     2.704     2.528  0.9077 -0.2160  0.3599
              Bcc     0.2140   -15.485    -5.525    -5.165 -0.4191 -0.5124  0.7496
 
              Baa    -0.0024    -0.327    -0.117    -0.109 -0.4255 -0.5714  0.7017
    23 C(13)  Bbb    -0.0012    -0.165    -0.059    -0.055 -0.1752  0.8128  0.5556
              Bcc     0.0037     0.492     0.176     0.164  0.8878 -0.1135  0.4460
 
              Baa    -0.0014    -0.773    -0.276    -0.258 -0.1680 -0.3056  0.9372
    24 H(1)   Bbb    -0.0008    -0.405    -0.144    -0.135 -0.0714  0.9520  0.2976
              Bcc     0.0022     1.177     0.420     0.393  0.9832  0.0169  0.1818
 
              Baa    -0.0014    -0.736    -0.263    -0.246  0.5888  0.7127 -0.3814
    25 H(1)   Bbb    -0.0008    -0.438    -0.156    -0.146 -0.3361  0.6450  0.6863
              Bcc     0.0022     1.174     0.419     0.392  0.7351 -0.2759  0.6193
 
              Baa    -0.0012    -0.650    -0.232    -0.217  0.2539  0.7278  0.6371
    26 H(1)   Bbb    -0.0011    -0.608    -0.217    -0.203 -0.4159 -0.5125  0.7512
              Bcc     0.0024     1.258     0.449     0.420  0.8732 -0.4557  0.1726
 
              Baa    -0.1061     7.679     2.740     2.562 -0.4048  0.7236  0.5591
    27 O(17)  Bbb    -0.1018     7.364     2.628     2.456  0.6143  0.6681 -0.4198
              Bcc     0.2079   -15.043    -5.368    -5.018  0.6773 -0.1736  0.7149
 
              Baa    -0.0024    -0.324    -0.116    -0.108  0.7123 -0.2248  0.6650
    28 C(13)  Bbb    -0.0012    -0.157    -0.056    -0.052 -0.2680  0.7885  0.5536
              Bcc     0.0036     0.481     0.172     0.161  0.6487  0.5726 -0.5013
 
              Baa    -0.0014    -0.764    -0.273    -0.255  0.3694 -0.1443  0.9180
    29 H(1)   Bbb    -0.0007    -0.397    -0.142    -0.132 -0.4502  0.8364  0.3126
              Bcc     0.0022     1.161     0.414     0.387  0.8130  0.5287 -0.2440
 
              Baa    -0.0014    -0.724    -0.258    -0.241  0.9057 -0.2593  0.3354
    30 H(1)   Bbb    -0.0008    -0.431    -0.154    -0.144 -0.0375  0.7390  0.6726
              Bcc     0.0022     1.155     0.412     0.385 -0.4223 -0.6217  0.6596
 
              Baa    -0.0012    -0.637    -0.227    -0.213 -0.5689  0.4860  0.6635
    31 H(1)   Bbb    -0.0011    -0.596    -0.213    -0.199  0.6771 -0.1812  0.7133
              Bcc     0.0023     1.233     0.440     0.411  0.4669  0.8550 -0.2260
 
              Baa    -0.0203    -2.730    -0.974    -0.911 -0.2764  0.9400 -0.2003
    32 C(13)  Bbb     0.0002     0.032     0.012     0.011  0.9573  0.2509 -0.1435
              Bcc     0.0201     2.698     0.963     0.900  0.0847  0.2314  0.9692
 
              Baa    -0.0537    -7.207    -2.572    -2.404  0.4865  0.6790 -0.5498
    33 C(13)  Bbb    -0.0483    -6.484    -2.314    -2.163  0.8107 -0.1162  0.5738
              Bcc     0.1020    13.691     4.885     4.567 -0.3257  0.7249  0.6070
 
              Baa    -0.0398    -5.346    -1.908    -1.783  0.7997 -0.2779  0.5322
    34 C(13)  Bbb    -0.0349    -4.683    -1.671    -1.562 -0.5936 -0.4981  0.6321
              Bcc     0.0747    10.029     3.579     3.345 -0.0895  0.8214  0.5633
 
              Baa    -0.0154    -2.068    -0.738    -0.690  0.0743  0.5052  0.8598
    35 C(13)  Bbb     0.0054     0.722     0.258     0.241 -0.1397  0.8589 -0.4927
              Bcc     0.0100     1.346     0.480     0.449  0.9874  0.0835 -0.1344
 
              Baa    -0.0180    -2.417    -0.862    -0.806 -0.2849  0.4377  0.8528
    36 C(13)  Bbb     0.0072     0.967     0.345     0.323 -0.3873  0.7612 -0.5201
              Bcc     0.0108     1.450     0.517     0.484  0.8769  0.4784  0.0473
 
              Baa    -0.0567    -7.609    -2.715    -2.538 -0.3109  0.7811 -0.5415
    37 C(13)  Bbb    -0.0504    -6.763    -2.413    -2.256  0.9393  0.3394 -0.0498
              Bcc     0.1071    14.372     5.128     4.794 -0.1449  0.5241  0.8392
 
              Baa    -0.0044    -2.330    -0.832    -0.777  0.1912  0.5840  0.7889
    38 H(1)   Bbb    -0.0026    -1.368    -0.488    -0.456  0.9810 -0.0857 -0.1743
              Bcc     0.0069     3.698     1.320     1.234 -0.0342  0.8072 -0.5893
 
              Baa    -0.0041    -2.201    -0.785    -0.734 -0.2974  0.5062  0.8095
    39 H(1)   Bbb    -0.0015    -0.813    -0.290    -0.271  0.9045  0.4209  0.0690
              Bcc     0.0056     3.014     1.075     1.005 -0.3058  0.7527 -0.5830
 
              Baa    -0.0024    -1.286    -0.459    -0.429 -0.1632  0.6640  0.7297
    40 H(1)   Bbb     0.0007     0.387     0.138     0.129  0.8303  0.4919 -0.2619
              Bcc     0.0017     0.899     0.321     0.300  0.5328 -0.5632  0.6316
 
              Baa    -0.0024    -1.281    -0.457    -0.427 -0.1643  0.6534  0.7390
    41 H(1)   Bbb     0.0007     0.350     0.125     0.117  0.9564  0.2888 -0.0427
              Bcc     0.0017     0.931     0.332     0.310 -0.2413  0.6998 -0.6724
 
              Baa    -0.1131     8.181     2.919     2.729  0.4163  0.7785 -0.4698
    42 O(17)  Bbb    -0.1085     7.849     2.801     2.618  0.8944 -0.2578  0.3655
              Bcc     0.2215   -16.029    -5.720    -5.347 -0.1634  0.5723  0.8036
 
              Baa    -0.0025    -0.339    -0.121    -0.113 -0.1362  0.6365  0.7592
    43 C(13)  Bbb    -0.0013    -0.168    -0.060    -0.056  0.5414  0.6895 -0.4810
              Bcc     0.0038     0.507     0.181     0.169  0.8296 -0.3455  0.4385
 
              Baa    -0.0015    -0.797    -0.284    -0.266 -0.0279  0.2693  0.9627
    44 H(1)   Bbb    -0.0008    -0.417    -0.149    -0.139  0.5045  0.8352 -0.2190
              Bcc     0.0023     1.214     0.433     0.405  0.8630 -0.4795  0.1591
 
              Baa    -0.0014    -0.759    -0.271    -0.253 -0.2127  0.8625  0.4593
    45 H(1)   Bbb    -0.0008    -0.449    -0.160    -0.150 -0.6113 -0.4841  0.6260
              Bcc     0.0023     1.208     0.431     0.403  0.7622 -0.1476  0.6303
 
              Baa    -0.0013    -0.668    -0.238    -0.223  0.1182  0.8326 -0.5411
    46 H(1)   Bbb    -0.0012    -0.625    -0.223    -0.208 -0.1604  0.5538  0.8171
              Bcc     0.0024     1.293     0.461     0.431  0.9799 -0.0098  0.1990
 

 ---------------------------------------------------------------------------------

 No NMR shielding tensors so no spin-rotation constants.
 Leave Link  601 at Sun Jan 17 00:49:13 2021, MaxMem=  4026531840 cpu:              10.5 elap:               1.6
 (Enter /opt/ohpc/pub/libs/gaussian/g16-A.03/sandybridge/g16/l9999.exe)

 Test job not archived.
 1\1\GINC-CASCADEB034\SP\ULC-wHPBE\TZVP\C21H21N1O3(1+,2)\RDU230\17-Jan-
 2021\0\\#P LC-wHPBE/TZVP iop(3/107=0156200000, 3/108=0156200000) scf=(
 conver=6,fermi,ndamp=35,noincfock,novaracc,vshift=500,xqc)\\H21 C21 N1
  O3\\1,2\N,0,0.054086,0.063852,0.077784\C,0,-0.275154,-1.311734,0.1035
 06\C,0,-1.260864,-1.827996,-0.72375\C,0,0.386135,-2.184815,0.970218\C,
 0,-1.598384,-3.175646,-0.688444\C,0,0.074577,-3.526309,0.994438\C,0,-0
 .9252,-4.03443,0.167909\H,0,-1.784639,-1.164375,-1.405148\H,0,1.158634
 ,-1.797039,1.627427\H,0,-2.379444,-3.537517,-1.347421\H,0,0.588853,-4.
 20682,1.665799\C,0,-0.970368,1.03417,-0.019727\C,0,-2.134785,0.917606,
 0.724871\C,0,-0.835797,2.133662,-0.869883\C,0,-3.151989,1.858174,0.623
 575\C,0,-1.829782,3.083912,-0.958163\C,0,-3.000537,2.952781,-0.215611\
 H,0,-2.255494,0.070396,1.39325\H,0,0.067507,2.240735,-1.462783\H,0,-4.
 048238,1.726664,1.219136\H,0,-1.725247,3.941045,-1.615932\O,0,-3.92845
 1,3.936733,-0.380204\C,0,-5.121818,3.840279,0.365278\H,0,-5.681122,2.9
 30406,0.115451\H,0,-4.925953,3.859223,1.44425\H,0,-5.719912,4.710924,0
 .096466\O,0,-1.16822,-5.370782,0.273837\C,0,-2.170458,-5.919715,-0.552
 884\H,0,-3.15107,-5.47272,-0.348812\H,0,-1.930216,-5.79407,-1.615623\H
 ,0,-2.208576,-6.98373,-0.319613\C,0,1.409258,0.466483,0.091838\C,0,2.3
 72325,-0.232608,-0.620224\C,0,1.812213,1.581496,0.83064\C,0,3.707828,0
 .150754,-0.59385\C,0,3.129962,1.982235,0.842322\C,0,4.092694,1.267169,
 0.133583\H,0,2.078678,-1.100647,-1.202616\H,0,1.073246,2.139336,1.3978
 22\H,0,4.429565,-0.427688,-1.159301\H,0,3.443945,2.849999,1.413878\O,0
 ,5.369584,1.734982,0.218075\C,0,6.368506,1.037347,-0.492266\H,0,6.4607
 13,0.000867,-0.145468\H,0,6.173119,1.041208,-1.571513\H,0,7.303574,1.5
 62498,-0.297656\\Version=EM64L-G16RevA.03\State=2-A\HF=-1092.3303977\S
 2=0.760472\S2-1=0.\S2A=0.750097\RMSD=9.315e-07\Dipole=-0.4352773,-0.49
 56882,-0.3085264\Quadrupole=24.7809611,2.9223929,-27.703354,-0.2778943
 ,-4.9234507,5.4016306\PG=C01 [X(C21H21N1O3)]\\@


 NOTHING WILL BE ATTEMPTED IF ALL POSSIBLE OBJECTIONS
 MUST FIRST BE OVERCOME.

                               -- THE GOLDEN PRINCIPLE,
                    PAUL DICKSON'S "THE OFFICIAL RULES"
 Job cpu time:       0 days  2 hours  9 minutes 35.2 seconds.
 Elapsed time:       0 days  0 hours 16 minutes 15.1 seconds.
 File lengths (MBytes):  RWF=    228 Int=      0 D2E=      0 Chk=     32 Scr=      8
 Normal termination of Gaussian 16 at Sun Jan 17 00:49:13 2021.
