 Entering Gaussian System, Link 0=g16
 Input=mol_NN_ma_frag_tune_c1.gjf
 Output=mol_NN_ma_frag_tune_c1.log
 Initial command:
 /opt/ohpc/pub/libs/gaussian/g16-A.03/sandybridge/g16/l1.exe "/mnt/gpfs2_4m/scratch/rdu230/ondemand/projects/init_structures/wtuning/mol_NN_ma_frag/tuning_mol_NN_ma_frag_ocycle0/Gau-206622.inp" -scrdir="/mnt/gpfs2_4m/scratch/rdu230/ondemand/projects/init_structures/wtuning/mol_NN_ma_frag/tuning_mol_NN_ma_frag_ocycle0/"
 Entering Link 1 = /opt/ohpc/pub/libs/gaussian/g16-A.03/sandybridge/g16/l1.exe PID=    206623.
  
 Copyright (c) 1988,1990,1992,1993,1995,1998,2003,2009,2016,
            Gaussian, Inc.  All Rights Reserved.
  
 This is part of the Gaussian(R) 16 program.  It is based on
 the Gaussian(R) 09 system (copyright 2009, Gaussian, Inc.),
 the Gaussian(R) 03 system (copyright 2003, Gaussian, Inc.),
 the Gaussian(R) 98 system (copyright 1998, Gaussian, Inc.),
 the Gaussian(R) 94 system (copyright 1995, Gaussian, Inc.),
 the Gaussian 92(TM) system (copyright 1992, Gaussian, Inc.),
 the Gaussian 90(TM) system (copyright 1990, Gaussian, Inc.),
 the Gaussian 88(TM) system (copyright 1988, Gaussian, Inc.),
 the Gaussian 86(TM) system (copyright 1986, Carnegie Mellon
 University), and the Gaussian 82(TM) system (copyright 1983,
 Carnegie Mellon University). Gaussian is a federally registered
 trademark of Gaussian, Inc.
  
 This software contains proprietary and confidential information,
 including trade secrets, belonging to Gaussian, Inc.
  
 This software is provided under written license and may be
 used, copied, transmitted, or stored only in accord with that
 written license.
  
 The following legend is applicable only to US Government
 contracts under FAR:
  
                    RESTRICTED RIGHTS LEGEND
  
 Use, reproduction and disclosure by the US Government is
 subject to restrictions as set forth in subparagraphs (a)
 and (c) of the Commercial Computer Software - Restricted
 Rights clause in FAR 52.227-19.
  
 Gaussian, Inc.
 340 Quinnipiac St., Bldg. 40, Wallingford CT 06492
  
  
 ---------------------------------------------------------------
 Warning -- This program may not be used in any manner that
 competes with the business of Gaussian, Inc. or will provide
 assistance to any competitor of Gaussian, Inc.  The licensee
 of this program is prohibited from giving any competitor of
 Gaussian, Inc. access to this program.  By using this program,
 the user acknowledges that Gaussian, Inc. is engaged in the
 business of creating and licensing software in the field of
 computational chemistry and represents and warrants to the
 licensee that it is not a competitor of Gaussian, Inc. and that
 it will not use this program in any manner prohibited above.
 ---------------------------------------------------------------
  

 Cite this work as:
 Gaussian 16, Revision A.03,
 M. J. Frisch, G. W. Trucks, H. B. Schlegel, G. E. Scuseria, 
 M. A. Robb, J. R. Cheeseman, G. Scalmani, V. Barone, 
 G. A. Petersson, H. Nakatsuji, X. Li, M. Caricato, A. V. Marenich, 
 J. Bloino, B. G. Janesko, R. Gomperts, B. Mennucci, H. P. Hratchian, 
 J. V. Ortiz, A. F. Izmaylov, J. L. Sonnenberg, D. Williams-Young, 
 F. Ding, F. Lipparini, F. Egidi, J. Goings, B. Peng, A. Petrone, 
 T. Henderson, D. Ranasinghe, V. G. Zakrzewski, J. Gao, N. Rega, 
 G. Zheng, W. Liang, M. Hada, M. Ehara, K. Toyota, R. Fukuda, 
 J. Hasegawa, M. Ishida, T. Nakajima, Y. Honda, O. Kitao, H. Nakai, 
 T. Vreven, K. Throssell, J. A. Montgomery, Jr., J. E. Peralta, 
 F. Ogliaro, M. J. Bearpark, J. J. Heyd, E. N. Brothers, K. N. Kudin, 
 V. N. Staroverov, T. A. Keith, R. Kobayashi, J. Normand, 
 K. Raghavachari, A. P. Rendell, J. C. Burant, S. S. Iyengar, 
 J. Tomasi, M. Cossi, J. M. Millam, M. Klene, C. Adamo, R. Cammi, 
 J. W. Ochterski, R. L. Martin, K. Morokuma, O. Farkas, 
 J. B. Foresman, and D. J. Fox, Gaussian, Inc., Wallingford CT, 2016.
 
 ******************************************
 Gaussian 16:  EM64L-G16RevA.03 25-Dec-2016
                17-Jan-2021 
 ******************************************
 %mem=30GB
 %nproc=8
 Will use up to    8 processors via shared memory.
 ----------------------------------------------------------------------
 #P LC-wHPBE/TZVP iop(3/107=0328100000, 3/108=0328100000) scf=(conver=6
 ,fermi,ndamp=35,noincfock,novaracc,vshift=500,xqc)
 ----------------------------------------------------------------------
 1/38=1,172=1/1;
 2/12=2,17=6,18=5,40=1/2;
 3/5=19,7=101,11=2,25=1,30=1,74=-71,107=328100000,108=328100000/1,2,3;
 4//1;
 5/5=100002,6=6,8=3,10=500,13=1,18=-1,22=13,38=1,93=35/2,8;
 6/7=2,8=2,9=2,10=2,28=1/1;
 99/5=1,9=1/99;
 Leave Link    1 at Sun Jan 17 00:04:00 2021, MaxMem=  4026531840 cpu:               1.5 elap:               0.3
 (Enter /opt/ohpc/pub/libs/gaussian/g16-A.03/sandybridge/g16/l101.exe)
 -------------
 H21 C21 N1 O3
 -------------
 Symbolic Z-matrix:
 Charge =  1 Multiplicity = 2
 N                     0.05409   0.06385   0.07778 
 C                    -0.27515  -1.31173   0.10351 
 C                    -1.26086  -1.828    -0.72375 
 C                     0.38614  -2.18481   0.97022 
 C                    -1.59838  -3.17565  -0.68844 
 C                     0.07458  -3.52631   0.99444 
 C                    -0.9252   -4.03443   0.16791 
 H                    -1.78464  -1.16438  -1.40515 
 H                     1.15863  -1.79704   1.62743 
 H                    -2.37944  -3.53752  -1.34742 
 H                     0.58885  -4.20682   1.6658 
 C                    -0.97037   1.03417  -0.01973 
 C                    -2.13478   0.91761   0.72487 
 C                    -0.8358    2.13366  -0.86988 
 C                    -3.15199   1.85817   0.62358 
 C                    -1.82978   3.08391  -0.95816 
 C                    -3.00054   2.95278  -0.21561 
 H                    -2.25549   0.0704    1.39325 
 H                     0.06751   2.24073  -1.46278 
 H                    -4.04824   1.72666   1.21914 
 H                    -1.72525   3.94105  -1.61593 
 O                    -3.92845   3.93673  -0.3802 
 C                    -5.12182   3.84028   0.36528 
 H                    -5.68112   2.93041   0.11545 
 H                    -4.92595   3.85922   1.44425 
 H                    -5.71991   4.71092   0.09647 
 O                    -1.16822  -5.37078   0.27384 
 C                    -2.17046  -5.91972  -0.55288 
 H                    -3.15107  -5.47272  -0.34881 
 H                    -1.93022  -5.79407  -1.61562 
 H                    -2.20858  -6.98373  -0.31961 
 C                     1.40926   0.46648   0.09184 
 C                     2.37233  -0.23261  -0.62022 
 C                     1.81221   1.5815    0.83064 
 C                     3.70783   0.15075  -0.59385 
 C                     3.12996   1.98224   0.84232 
 C                     4.09269   1.26717   0.13358 
 H                     2.07868  -1.10065  -1.20262 
 H                     1.07325   2.13934   1.39782 
 H                     4.42957  -0.42769  -1.1593 
 H                     3.44395   2.85      1.41388 
 O                     5.36958   1.73498   0.21808 
 C                     6.36851   1.03735  -0.49227 
 H                     6.46071   0.00087  -0.14547 
 H                     6.17312   1.04121  -1.57151 
 H                     7.30357   1.5625   -0.29766 
 
 ITRead=  0  0  0  0  0  0  0  0  0  0  0  0  0  0  0  0  0  0  0  0
 ITRead=  0  0  0  0  0  0  0  0  0  0  0  0  0  0  0  0  0  0  0  0
 ITRead=  0  0  0  0  0  0
 MicOpt= -1 -1 -1 -1 -1 -1 -1 -1 -1 -1 -1 -1 -1 -1 -1 -1 -1 -1 -1 -1
 MicOpt= -1 -1 -1 -1 -1 -1 -1 -1 -1 -1 -1 -1 -1 -1 -1 -1 -1 -1 -1 -1
 MicOpt= -1 -1 -1 -1 -1 -1
 NAtoms=     46 NQM=       46 NQMF=       0 NMMI=      0 NMMIF=      0
                NMic=       0 NMicF=      0.
                    Isotopes and Nuclear Properties:
 (Nuclear quadrupole moments (NQMom) in fm**2, nuclear magnetic moments (NMagM)
  in nuclear magnetons)

  Atom         1           2           3           4           5           6           7           8           9          10
 IAtWgt=          14          12          12          12          12          12          12           1           1           1
 AtmWgt=  14.0030740  12.0000000  12.0000000  12.0000000  12.0000000  12.0000000  12.0000000   1.0078250   1.0078250   1.0078250
 NucSpn=           2           0           0           0           0           0           0           1           1           1
 AtZEff=  -0.0000000  -0.0000000  -0.0000000  -0.0000000  -0.0000000  -0.0000000  -0.0000000  -0.0000000  -0.0000000  -0.0000000
 NQMom=    2.0440000   0.0000000   0.0000000   0.0000000   0.0000000   0.0000000   0.0000000   0.0000000   0.0000000   0.0000000
 NMagM=    0.4037610   0.0000000   0.0000000   0.0000000   0.0000000   0.0000000   0.0000000   2.7928460   2.7928460   2.7928460
 AtZNuc=   7.0000000   6.0000000   6.0000000   6.0000000   6.0000000   6.0000000   6.0000000   1.0000000   1.0000000   1.0000000

  Atom        11          12          13          14          15          16          17          18          19          20
 IAtWgt=           1          12          12          12          12          12          12           1           1           1
 AtmWgt=   1.0078250  12.0000000  12.0000000  12.0000000  12.0000000  12.0000000  12.0000000   1.0078250   1.0078250   1.0078250
 NucSpn=           1           0           0           0           0           0           0           1           1           1
 AtZEff=  -0.0000000  -0.0000000  -0.0000000  -0.0000000  -0.0000000  -0.0000000  -0.0000000  -0.0000000  -0.0000000  -0.0000000
 NQMom=    0.0000000   0.0000000   0.0000000   0.0000000   0.0000000   0.0000000   0.0000000   0.0000000   0.0000000   0.0000000
 NMagM=    2.7928460   0.0000000   0.0000000   0.0000000   0.0000000   0.0000000   0.0000000   2.7928460   2.7928460   2.7928460
 AtZNuc=   1.0000000   6.0000000   6.0000000   6.0000000   6.0000000   6.0000000   6.0000000   1.0000000   1.0000000   1.0000000

  Atom        21          22          23          24          25          26          27          28          29          30
 IAtWgt=           1          16          12           1           1           1          16          12           1           1
 AtmWgt=   1.0078250  15.9949146  12.0000000   1.0078250   1.0078250   1.0078250  15.9949146  12.0000000   1.0078250   1.0078250
 NucSpn=           1           0           0           1           1           1           0           0           1           1
 AtZEff=  -0.0000000  -0.0000000  -0.0000000  -0.0000000  -0.0000000  -0.0000000  -0.0000000  -0.0000000  -0.0000000  -0.0000000
 NQMom=    0.0000000   0.0000000   0.0000000   0.0000000   0.0000000   0.0000000   0.0000000   0.0000000   0.0000000   0.0000000
 NMagM=    2.7928460   0.0000000   0.0000000   2.7928460   2.7928460   2.7928460   0.0000000   0.0000000   2.7928460   2.7928460
 AtZNuc=   1.0000000   8.0000000   6.0000000   1.0000000   1.0000000   1.0000000   8.0000000   6.0000000   1.0000000   1.0000000

  Atom        31          32          33          34          35          36          37          38          39          40
 IAtWgt=           1          12          12          12          12          12          12           1           1           1
 AtmWgt=   1.0078250  12.0000000  12.0000000  12.0000000  12.0000000  12.0000000  12.0000000   1.0078250   1.0078250   1.0078250
 NucSpn=           1           0           0           0           0           0           0           1           1           1
 AtZEff=  -0.0000000  -0.0000000  -0.0000000  -0.0000000  -0.0000000  -0.0000000  -0.0000000  -0.0000000  -0.0000000  -0.0000000
 NQMom=    0.0000000   0.0000000   0.0000000   0.0000000   0.0000000   0.0000000   0.0000000   0.0000000   0.0000000   0.0000000
 NMagM=    2.7928460   0.0000000   0.0000000   0.0000000   0.0000000   0.0000000   0.0000000   2.7928460   2.7928460   2.7928460
 AtZNuc=   1.0000000   6.0000000   6.0000000   6.0000000   6.0000000   6.0000000   6.0000000   1.0000000   1.0000000   1.0000000

  Atom        41          42          43          44          45          46
 IAtWgt=           1          16          12           1           1           1
 AtmWgt=   1.0078250  15.9949146  12.0000000   1.0078250   1.0078250   1.0078250
 NucSpn=           1           0           0           1           1           1
 AtZEff=  -0.0000000  -0.0000000  -0.0000000  -0.0000000  -0.0000000  -0.0000000
 NQMom=    0.0000000   0.0000000   0.0000000   0.0000000   0.0000000   0.0000000
 NMagM=    2.7928460   0.0000000   0.0000000   2.7928460   2.7928460   2.7928460
 AtZNuc=   1.0000000   8.0000000   6.0000000   1.0000000   1.0000000   1.0000000
 Leave Link  101 at Sun Jan 17 00:04:00 2021, MaxMem=  4026531840 cpu:               0.6 elap:               0.1
 (Enter /opt/ohpc/pub/libs/gaussian/g16-A.03/sandybridge/g16/l202.exe)
                          Input orientation:                          
 ---------------------------------------------------------------------
 Center     Atomic      Atomic             Coordinates (Angstroms)
 Number     Number       Type             X           Y           Z
 ---------------------------------------------------------------------
      1          7           0        0.054086    0.063852    0.077784
      2          6           0       -0.275154   -1.311734    0.103506
      3          6           0       -1.260864   -1.827996   -0.723750
      4          6           0        0.386135   -2.184815    0.970218
      5          6           0       -1.598384   -3.175646   -0.688444
      6          6           0        0.074577   -3.526309    0.994438
      7          6           0       -0.925200   -4.034430    0.167909
      8          1           0       -1.784639   -1.164375   -1.405148
      9          1           0        1.158634   -1.797039    1.627427
     10          1           0       -2.379444   -3.537517   -1.347421
     11          1           0        0.588853   -4.206820    1.665799
     12          6           0       -0.970368    1.034170   -0.019727
     13          6           0       -2.134785    0.917606    0.724871
     14          6           0       -0.835797    2.133662   -0.869883
     15          6           0       -3.151989    1.858174    0.623575
     16          6           0       -1.829782    3.083912   -0.958163
     17          6           0       -3.000537    2.952781   -0.215611
     18          1           0       -2.255494    0.070396    1.393250
     19          1           0        0.067507    2.240735   -1.462783
     20          1           0       -4.048238    1.726664    1.219136
     21          1           0       -1.725247    3.941045   -1.615932
     22          8           0       -3.928451    3.936733   -0.380204
     23          6           0       -5.121818    3.840279    0.365278
     24          1           0       -5.681122    2.930406    0.115451
     25          1           0       -4.925953    3.859223    1.444250
     26          1           0       -5.719912    4.710924    0.096466
     27          8           0       -1.168220   -5.370782    0.273837
     28          6           0       -2.170458   -5.919715   -0.552884
     29          1           0       -3.151070   -5.472720   -0.348812
     30          1           0       -1.930216   -5.794070   -1.615623
     31          1           0       -2.208576   -6.983730   -0.319613
     32          6           0        1.409258    0.466483    0.091838
     33          6           0        2.372325   -0.232608   -0.620224
     34          6           0        1.812213    1.581496    0.830640
     35          6           0        3.707828    0.150754   -0.593850
     36          6           0        3.129962    1.982235    0.842322
     37          6           0        4.092694    1.267169    0.133583
     38          1           0        2.078678   -1.100647   -1.202616
     39          1           0        1.073246    2.139336    1.397822
     40          1           0        4.429565   -0.427688   -1.159301
     41          1           0        3.443945    2.849999    1.413878
     42          8           0        5.369584    1.734982    0.218075
     43          6           0        6.368506    1.037347   -0.492266
     44          1           0        6.460713    0.000867   -0.145468
     45          1           0        6.173119    1.041208   -1.571513
     46          1           0        7.303574    1.562498   -0.297656
 ---------------------------------------------------------------------
                    Distance matrix (angstroms):
                    1          2          3          4          5
     1  N    0.000000
     2  C    1.414672   0.000000
     3  C    2.439393   1.386544   0.000000
     4  C    2.441966   1.396697   2.389446   0.000000
     5  C    3.716465   2.419151   1.389722   2.769697   0.000000
     6  C    3.705392   2.412553   2.760406   1.377411   2.398719
     7  C    4.214622   2.799961   2.403347   2.405073   1.387093
     8  H    2.662431   2.139228   1.085834   3.375785   2.143261
     9  H    2.661641   2.147930   3.373865   1.085840   3.855511
    10  H    4.574181   3.389297   2.136036   3.853528   1.084092
    11  H    4.587636   3.401292   3.845803   2.147890   3.374876
    12  C    1.414401   2.449852   2.961761   3.630696   4.308612
    13  C    2.436960   2.968885   3.224992   4.005028   4.363473
    14  C    2.444193   3.623887   3.987075   4.850601   5.366862
    15  C    3.714350   4.312188   4.356545   5.383702   5.429035
    16  C    3.707143   4.781811   4.950299   6.032282   6.269638
    17  C    4.214583   5.071059   5.112778   6.266628   6.304540
    18  H    2.657942   2.737785   3.012452   3.499019   3.911781
    19  H    2.666898   3.897527   4.343422   5.060288   5.719439
    20  H    4.571290   4.971183   4.917303   5.918217   5.802869
    21  H    4.589916   5.714099   5.856063   6.976551   7.177995
    22  O    5.574008   6.413030   6.361301   7.610036   7.490671
    23  C    6.413582   7.078271   6.944227   8.185674   7.921371
    24  H    6.411799   6.871709   6.548689   7.981712   7.389105
    25  H    6.408811   7.082819   7.104756   8.060607   8.069107
    26  H    7.411793   8.118981   7.956968   9.251944   8.933144
    27  O    5.573842   4.159621   3.681725   3.612665   2.435087
    28  C    6.414781   5.025586   4.195083   4.775509   2.806343
    29  H    6.411602   5.078316   4.122799   5.006194   2.793337
    30  H    6.412514   5.077989   4.119856   5.007872   2.797484
    31  H    7.412555   6.007386   5.257668   5.605870   3.874258
    32  C    1.413789   2.449375   3.613775   2.974511   4.787468
    33  C    2.439126   2.949143   3.969388   3.207112   4.942940
    34  C    2.441525   3.640962   4.846088   4.029675   6.047329
    35  C    3.715976   4.299921   5.349787   4.351418   6.263367
    36  C    3.704825   4.794882   6.020780   4.990917   7.162698
    37  C    4.214432   5.072449   6.243048   5.133686   7.266547
    38  H    2.663542   2.700192   3.451216   2.959954   4.253326
    39  H    2.662484   3.924706   5.068418   4.399233   6.303899
    40  H    4.573490   4.950818   5.876355   4.896087   6.641472
    41  H    4.586819   5.733131   6.970532   5.907316   8.133464
    42  O    5.573767   6.415502   7.585821   6.384770   8.572551
    43  C    6.414402   7.071870   8.152979   6.950536   9.014385
    44  H    6.410825   6.867082   7.956249   6.551523   8.679522
    45  H    6.412330   7.065568   8.013435   7.096253   8.885827
    46  H    7.412285   8.115372   9.220987   7.968740  10.091956
                    6          7          8          9         10
     6  C    0.000000
     7  C    1.393159   0.000000
     8  H    3.846223   3.383838   0.000000
     9  H    2.136874   3.387990   4.273129   0.000000
    10  H    3.392145   2.158234   2.447229   4.939330   0.000000
    11  H    1.085496   2.136761   4.931597   2.476523   4.282318
    12  C    4.787318   5.072273   2.723239   3.906598   4.964734
    13  C    4.970144   5.127959   2.999038   4.362398   4.919591
    14  C    6.028246   6.255427   3.473306   5.066036   5.896877
    15  C    6.288157   6.315774   3.888594   5.740189   5.796131
    16  C    7.150822   7.263408   4.271976   6.280095   6.655597
    17  C    7.273180   7.298988   4.454703   6.576951   6.617456
    18  H    4.304018   4.485615   3.094737   3.898515   4.532513
    19  H    6.268715   6.559140   3.876666   5.200344   6.276072
    20  H    6.681453   6.636916   4.513187   6.300373   6.089638
    21  H    8.112631   8.211599   5.110115   7.194564   7.511921
    22  O    8.579678   8.535771   5.627410   7.923709   7.694111
    23  C    9.036868   8.925335   6.270385   8.533256   8.055174
    24  H    8.694243   8.433889   5.853378   8.450862   7.407773
    25  H    8.930493   8.941187   6.574455   8.309576   8.306016
    26  H   10.111106   9.973745   7.229132   9.592279   9.015560
    27  O    2.337924   1.362394   4.570867   4.474159   2.730641
    28  C    3.628055   2.371605   4.846490   5.730015   2.519887
    29  H    3.999704   2.700033   4.641639   5.999142   2.310333
    30  H    3.996793   2.699514   4.636763   6.002885   2.316413
    31  H    4.346640   3.253168   5.934897   6.483119   3.600273
    32  C    4.305630   5.070868   3.886083   2.746703   5.697170
    33  C    4.328423   5.093984   4.331818   2.995401   5.833571
    34  C    5.397766   6.282616   5.047366   3.532214   6.965503
    35  C    5.407769   6.289753   5.705696   3.902097   7.157241
    36  C    6.300998   7.286936   6.253445   4.334217   8.100382
    37  C    6.313776   7.299821   6.543939   4.497738   8.195545
    38  H    3.837617   4.416866   3.869147   3.056237   5.082731
    39  H    5.767113   6.604685   5.190246   3.943990   7.189165
    40  H    5.762462   6.591175   6.262546   4.509985   7.487926
    41  H    7.223979   8.248468   7.169393   5.182973   9.073973
    42  O    7.504733   8.538907   7.888221   5.673936   9.502497
    43  C    7.915225   8.908249   8.494393   6.298381   9.908950
    44  H    7.383975   8.422205   8.422019   5.872620   9.597564
    45  H    8.039809   8.897967   8.259430   6.590442   9.703673
    46  H    8.934420   9.962684   9.552905   7.263107  10.994226
                   11         12         13         14         15
    11  H    0.000000
    12  C    5.721900   0.000000
    13  C    5.879055   1.387040   0.000000
    14  C    6.975745   1.396337   2.389436   0.000000
    15  C    7.201686   2.419151   1.389112   2.769667   0.000000
    16  C    8.117250   2.412612   2.760165   1.377960   2.398450
    17  C    8.226987   2.800183   2.403325   2.405229   1.387565
    18  H    5.143848   2.139372   1.085848   3.375556   2.142954
    19  H    7.185457   2.148347   3.374402   1.085796   3.855437
    20  H    7.543763   3.389338   2.135457   3.853495   1.084090
    21  H    9.083640   3.401123   3.845551   2.148102   3.374809
    22  O    9.534654   4.159936   3.681515   3.613220   2.435338
    23  C    9.952835   5.025636   4.194483   4.775787   2.806365
    24  H    9.625807   5.079881   4.123016   5.008279   2.793633
    25  H    9.773598   5.076495   4.118402   5.006211   2.797258
    26  H   11.035827   6.007511   5.257118   5.606308   3.874307
    27  O    2.525801   6.414728   6.378205   7.598374   7.504363
    28  C    3.933238   7.076792   6.955781   8.169375   7.927359
    29  H    4.432627   6.870471   6.559108   7.968002   7.395103
    30  H    4.430892   7.077645   7.111002   8.037588   8.066200
    31  H    4.413468   8.118486   7.970414   9.236566   8.941974
    32  C    4.999018   2.448946   3.628289   2.957138   4.798387
    33  C    4.919455   3.624765   4.842139   3.994197   6.036261
    34  C    5.974839   2.960650   4.003839   3.195094   4.976216
    35  C    5.815709   4.795368   6.038478   4.965143   7.173179
    36  C    6.740901   4.295889   5.372596   4.322247   6.286983
    37  C    6.677510   5.070739   6.265246   5.103702   7.285246
    38  H    4.482822   3.905554   5.053892   4.366421   6.280882
    39  H    6.370255   2.721616   3.498135   2.964281   4.304779
    40  H    6.083921   5.709197   6.960647   5.862449   8.116882
    41  H    7.616673   4.983836   5.943997   4.903559   6.716743
    42  O    7.762493   6.382999   7.565745   6.312634   8.532105
    43  C    8.097093   7.354072   8.590793   7.297019   9.620742
    44  H    7.447420   7.503632   8.687951   7.636272   9.820644
    45  H    8.319015   7.310095   8.620321   7.128159   9.614753
    46  H    9.067947   8.295450   9.515465   8.179427  10.500233
                   16         17         18         19         20
    16  C    0.000000
    17  C    1.392568   0.000000
    18  H    3.845992   3.384031   0.000000
    19  H    2.136655   3.387527   4.273597   0.000000
    20  H    3.391799   2.158597   2.446931   4.939263   0.000000
    21  H    1.085479   2.136335   4.931355   2.475576   4.282217
    22  O    2.337895   1.362452   4.570830   4.473932   2.730685
    23  C    3.627821   2.371691   4.846087   5.729698   2.519725
    24  H    4.001129   2.701044   4.641913   6.001100   2.309421
    25  H    3.994868   2.698889   4.635640   6.000416   2.317082
    26  H    4.346553   3.253223   5.934504   6.482847   3.600096
    27  O    8.569559   8.536899   5.660536   7.904307   7.717631
    28  C    9.019180   8.917621   6.298897   8.510543   8.070516
    29  H    8.679462   8.427898   5.879028   8.431937   7.422567
    30  H    8.902859   8.922613   6.599325   8.280842   8.311637
    31  H   10.094981   9.968564   7.259256   9.569647   9.034549
    32  C    4.294743   5.071735   3.909088   2.713874   5.713416
    33  C    5.363880   6.259238   5.055947   3.484181   6.960289
    34  C    4.326800   5.112497   4.375636   2.956076   5.875108
    35  C    6.277043   7.279875   6.286194   4.286607   8.119542
    36  C    5.390223   6.296364   5.741236   3.841739   7.192625
    37  C    6.290325   7.299120   6.581680   4.438282   8.225833
    38  H    5.731174   6.572890   5.186030   3.908622   7.169217
    39  H    3.856224   4.456520   3.919317   3.033950   5.141189
    40  H    7.179918   8.217332   7.173118   5.122512   9.064841
    41  H    5.787356   6.648093   6.341153   4.477356   7.578431
    42  O    7.418492   8.469359   7.892636   5.585077   9.470880
    43  C    8.462707   9.566838   8.880515   6.487884  10.578876
    44  H    8.882452   9.911305   8.851257   6.901117  10.736786
    45  H    8.282226   9.468292   8.987425   6.223278  10.617613
    46  H    9.282735  10.397804   9.821472   7.360584  11.453875
                   21         22         23         24         25
    21  H    0.000000
    22  O    2.526094   0.000000
    23  C    3.933452   1.410380   0.000000
    24  H    4.434865   2.080919   1.096861   0.000000
    25  H    4.428987   2.080781   1.096769   1.788488   0.000000
    26  H    4.413884   2.008960   1.089954   1.781042   1.781092
    27  O    9.517963   9.730184  10.024118   9.449926  10.034113
    28  C    9.927884  10.013487  10.237726   9.544426  10.354174
    29  H    9.605079   9.441563   9.545979   8.788016   9.666977
    30  H    9.737273  10.010381  10.340743   9.653103  10.560461
    31  H   11.012028  11.055232  11.230104  10.513703  11.316580
    32  C    4.981383   6.384089   7.356101   7.506328   7.312633
    33  C    5.933035   7.559153   8.586140   8.683541   8.618004
    34  C    4.905793   6.322065   7.307493   7.647295   7.139148
    35  C    6.702929   8.525963   9.617441   9.817431   9.615028
    36  C    5.783857   7.425350   8.471822   8.891714   8.293562
    37  C    6.637684   8.469316   9.569839   9.914341   9.474840
    38  H    6.329244   7.882713   8.872327   8.843143   8.981707
    39  H    4.490037   5.604372   6.506779   6.920387   6.241038
    40  H    7.561485   9.461057  10.572076  10.729761  10.615168
    41  H    6.090211   7.664982   8.686341   9.217333   8.430578
    42  O    7.652903   9.573876  10.701563  11.115650  10.583666
    43  C    8.671962  10.697959  11.858303  12.212556  11.801605
    44  H    9.203109  11.112195  12.212984  12.492975  12.127253
    45  H    8.413989  10.575680  11.796676  12.121796  11.841682
    46  H    9.429472  11.480514  12.649827  13.063084  12.564653
                   26         27         28         29         30
    26  H    0.000000
    27  O   11.063008   0.000000
    28  C   11.226342   1.410417   0.000000
    29  H   10.512080   2.080812   1.096836   0.000000
    30  H   11.298139   2.080834   1.096776   1.788452   0.000000
    31  H   12.217509   2.009011   1.089952   1.781095   1.781128
    32  C    8.297009   6.383587   7.349392   7.500993   7.298084
    33  C    9.509808   6.303621   7.279052   7.618420   7.101587
    34  C    8.189337   7.584667   8.604881   8.705587   8.624903
    35  C   10.495426   7.417283   8.450238   8.872879   8.256664
    36  C    9.290980   8.536065   9.616749   9.820719   9.597803
    37  C   10.399426   8.471085   9.557699   9.906105   9.444377
    38  H    9.812236   5.563840   6.457610   6.869808   6.186277
    39  H    7.379267   7.917663   8.903661   8.879131   9.002253
    40  H   11.445268   7.604161   8.607578   9.141951   8.333853
    41  H    9.443246   9.494893  10.597054  10.764244  10.619765
    42  O   11.482506   9.655976  10.772233  11.174698  10.645945
    43  C   12.647989   9.922362  11.014458  11.533598  10.807357
    44  H   13.061807   9.339756  10.474559  11.062905  10.302929
    45  H   12.557594   9.920393  10.913631  11.439701  10.601274
    46  H   13.404444  10.962129  12.075013  12.601448  11.879352
                   31         32         33         34         35
    31  H    0.000000
    32  C    8.292387   0.000000
    33  C    8.164109   1.386816   0.000000
    34  C    9.531680   1.396945   2.389499   0.000000
    35  C    9.272535   2.419355   1.389687   2.769395   0.000000
    36  C   10.499458   2.412789   2.760178   1.377385   2.398091
    37  C   10.391762   2.800655   2.403586   2.405262   1.386962
    38  H    7.332865   2.140007   1.085772   3.376244   2.142599
    39  H    9.846333   2.148706   3.374349   1.085796   3.855157
    40  H    9.367587   3.389269   2.135626   3.853209   1.084082
    41  H   11.474241   3.401307   3.845570   2.147514   3.374393
    42  O   11.564323   4.160434   3.682081   3.612988   2.435248
    43  C   11.744523   5.026053   4.195071   4.775561   2.806345
    44  H   11.134249   5.078416   4.122477   5.005969   2.793186
    45  H   11.671319   5.078525   4.119902   5.007969   2.797569
    46  H   12.787474   6.007988   5.257725   5.606109   3.874292
                   36         37         38         39         40
    36  C    0.000000
    37  C    1.393012   0.000000
    38  H    3.845924   3.383525   0.000000
    39  H    2.136198   3.387631   4.274419   0.000000
    40  H    3.391636   2.158141   2.445694   4.938964   0.000000
    41  H    1.085484   2.136675   4.931288   2.474977   4.282047
    42  O    2.338103   1.362511   4.570472   4.473681   2.730923
    43  C    3.627962   2.371461   4.845435   5.729449   2.520071
    44  H    3.999431   2.699797   4.640380   5.998299   2.310212
    45  H    3.996616   2.699366   4.635523   6.002628   2.316798
    46  H    4.346811   3.253143   5.933872   6.482621   3.600444
                   41         42         43         44         45
    41  H    0.000000
    42  O    2.526122   0.000000
    43  C    3.933465   1.410363   0.000000
    44  H    4.432832   2.080837   1.096842   0.000000
    45  H    4.430877   2.080773   1.096798   1.788470   0.000000
    46  H    4.414039   2.008991   1.089958   1.781086   1.781119
                   46
    46  H    0.000000
 Stoichiometry    C21H21NO3(1+,2)
 Framework group  C1[X(C21H21NO3)]
 Deg. of freedom   132
 Full point group                 C1      NOp   1
 Largest Abelian subgroup         C1      NOp   1
 Largest concise Abelian subgroup C1      NOp   1
                         Standard orientation:                         
 ---------------------------------------------------------------------
 Center     Atomic      Atomic             Coordinates (Angstroms)
 Number     Number       Type             X           Y           Z
 ---------------------------------------------------------------------
      1          7           0       -0.054086   -0.063852    0.077784
      2          6           0        0.275154    1.311734    0.103506
      3          6           0        1.260864    1.827996   -0.723750
      4          6           0       -0.386136    2.184815    0.970218
      5          6           0        1.598383    3.175646   -0.688444
      6          6           0       -0.074578    3.526309    0.994438
      7          6           0        0.925199    4.034430    0.167909
      8          1           0        1.784639    1.164376   -1.405148
      9          1           0       -1.158634    1.797039    1.627427
     10          1           0        2.379443    3.537518   -1.347421
     11          1           0       -0.588854    4.206820    1.665799
     12          6           0        0.970368   -1.034170   -0.019727
     13          6           0        2.134785   -0.917605    0.724871
     14          6           0        0.835798   -2.133662   -0.869883
     15          6           0        3.151989   -1.858173    0.623575
     16          6           0        1.829783   -3.083911   -0.958163
     17          6           0        3.000538   -2.952780   -0.215611
     18          1           0        2.255494   -0.070395    1.393250
     19          1           0       -0.067506   -2.240735   -1.462783
     20          1           0        4.048238   -1.726663    1.219136
     21          1           0        1.725248   -3.941045   -1.615932
     22          8           0        3.928452   -3.936732   -0.380204
     23          6           0        5.121819   -3.840278    0.365278
     24          1           0        5.681123   -2.930405    0.115451
     25          1           0        4.925954   -3.859222    1.444250
     26          1           0        5.719913   -4.710923    0.096466
     27          8           0        1.168219    5.370782    0.273837
     28          6           0        2.170457    5.919716   -0.552884
     29          1           0        3.151069    5.472721   -0.348812
     30          1           0        1.930215    5.794071   -1.615623
     31          1           0        2.208574    6.983731   -0.319613
     32          6           0       -1.409258   -0.466483    0.091838
     33          6           0       -2.372325    0.232607   -0.620224
     34          6           0       -1.812213   -1.581496    0.830640
     35          6           0       -3.707828   -0.150755   -0.593850
     36          6           0       -3.129962   -1.982236    0.842322
     37          6           0       -4.092694   -1.267170    0.133583
     38          1           0       -2.078678    1.100647   -1.202616
     39          1           0       -1.073245   -2.139336    1.397822
     40          1           0       -4.429565    0.427687   -1.159301
     41          1           0       -3.443944   -2.850000    1.413878
     42          8           0       -5.369584   -1.734983    0.218075
     43          6           0       -6.368506   -1.037348   -0.492266
     44          1           0       -6.460713   -0.000869   -0.145468
     45          1           0       -6.173119   -1.041209   -1.571513
     46          1           0       -7.303574   -1.562500   -0.297656
 ---------------------------------------------------------------------
 Rotational constants (GHZ):           0.1829468           0.1651743           0.0911050
 Leave Link  202 at Sun Jan 17 00:04:00 2021, MaxMem=  4026531840 cpu:               0.1 elap:               0.0
 (Enter /opt/ohpc/pub/libs/gaussian/g16-A.03/sandybridge/g16/l301.exe)
 Standard basis: TZVP (5D, 7F)
 Ernie: Thresh=  0.10000D-02 Tol=  0.10000D-05 Strict=F.
 There are   626 symmetry adapted cartesian basis functions of A   symmetry.
 There are   601 symmetry adapted basis functions of A   symmetry.
   601 basis functions,  1043 primitive gaussians,   626 cartesian basis functions
    89 alpha electrons       88 beta electrons
       nuclear repulsion energy      2056.6778086010 Hartrees.
 IExCor=33909 DFT=T Ex+Corr=LC-wHPBE ExCW=0 ScaHFX=  1.000000
 ScaDFX=  1.000000  1.000000  1.000000  1.000000 ScalE2=  1.000000  1.000000
 IRadAn=      5 IRanWt=     -1 IRanGd=            0 ICorTp=0 IEmpDi=  4
 HFx  wShort=  0.000000 wLong=  0.328100 cFull=  0.000000 cShort=  0.000000 cLong=  1.000000
 DFx  wShort=  0.000000 wLong=  0.328100 cFull=  0.000000 cShort=  1.000000 cLong=  0.000000
 NAtoms=   46 NActive=   46 NUniq=   46 SFac= 1.00D+00 NAtFMM=   60 NAOKFM=F Big=F
 Integral buffers will be    131072 words long.
 Raffenetti 2 integral format.
 Two-electron integral symmetry is turned on.
 Leave Link  301 at Sun Jan 17 00:04:00 2021, MaxMem=  4026531840 cpu:               0.5 elap:               0.1
 (Enter /opt/ohpc/pub/libs/gaussian/g16-A.03/sandybridge/g16/l302.exe)
 NPDir=0 NMtPBC=     1 NCelOv=     1 NCel=       1 NClECP=     1 NCelD=      1
         NCelK=      1 NCelE2=     1 NClLst=     1 CellRange=     0.0.
 One-electron integrals computed using PRISM.
 One-electron integral symmetry used in STVInt
 NBasis=   601 RedAO= T EigKep=  7.47D-06  NBF=   601
 NBsUse=   601 1.00D-06 EigRej= -1.00D+00 NBFU=   601
 Precomputing XC quadrature grid using
 IXCGrd= 4 IRadAn=           5 IRanWt=          -1 IRanGd=           0 AccXCQ= 0.00D+00.
 Generated NRdTot=       0 NPtTot=           0 NUsed=           0 NTot=          32
 NSgBfM=   597   597   597   597   597 MxSgAt=    46 MxSgA2=    46.
 Leave Link  302 at Sun Jan 17 00:04:02 2021, MaxMem=  4026531840 cpu:              10.5 elap:               1.4
 (Enter /opt/ohpc/pub/libs/gaussian/g16-A.03/sandybridge/g16/l303.exe)
 DipDrv:  MaxL=1.
 Leave Link  303 at Sun Jan 17 00:04:02 2021, MaxMem=  4026531840 cpu:               1.0 elap:               0.2
 (Enter /opt/ohpc/pub/libs/gaussian/g16-A.03/sandybridge/g16/l401.exe)
 ExpMin= 9.52D-02 ExpMax= 2.70D+04 ExpMxC= 9.22D+02 IAcc=3 IRadAn=         5 AccDes= 0.00D+00
 Harris functional with IExCor=33909 and IRadAn=       5 diagonalized for initial guess.
 HarFok:  IExCor=33909 AccDes= 0.00D+00 IRadAn=         5 IDoV= 1 UseB2=F ITyADJ=14
 ICtDFT=  3500011 ScaDFX=  1.000000  1.000000  1.000000  1.000000
 FoFCou: FMM=F IPFlag=           0 FMFlag=      100000 FMFlg1=           0
         NFxFlg=           0 DoJE=T BraDBF=F KetDBF=T FulRan=T
         wScrn=  0.000000 ICntrl=       500 IOpCl=  0 I1Cent=   200000004 NGrid=           0
         NMat0=    1 NMatS0=      1 NMatT0=    0 NMatD0=    1 NMtDS0=    0 NMtDT0=    0
 Petite list used in FoFCou.
 Harris En= -1062.93390067364    
 JPrj=0 DoOrth=F DoCkMO=F.
 Initial guess <Sx>= 0.0000 <Sy>= 0.0000 <Sz>= 0.5000 <S**2>= 0.7500 S= 0.5000
 Leave Link  401 at Sun Jan 17 00:04:09 2021, MaxMem=  4026531840 cpu:              54.8 elap:               7.0
 (Enter /opt/ohpc/pub/libs/gaussian/g16-A.03/sandybridge/g16/l502.exe)
 Integral symmetry usage will be decided dynamically.
 UHF open shell SCF:
 Using DIIS extrapolation, IDIIS=    10.
 NGot=  4026531840 LenX=  4025736816 LenY=  4025344314
 Requested convergence on RMS density matrix=1.00D-06 within  32 cycles.
 Requested convergence on MAX density matrix=1.00D-04.
 Requested convergence on             energy=1.00D-04.
 Virtual orbitals will be shifted by   0.500 hartree.
 No special actions if energy rises.
 Dynamic level shift is on during FON iterations.

 Cycle   1  Pass 1  IDiag  1:
 FoFJK:  IHMeth= 1 ICntrl=       0 DoSepK=T KAlg= 0 I1Cent=           0 FoldK=F
 IRaf=         1 NMat=       1 IRICut=       1 DoRegI=T DoRafI=F ISym2E= 0 IDoP0=0 IntGTp=1.
 FoFCou: FMM=F IPFlag=           0 FMFlag=      100000 FMFlg1=           0
         NFxFlg=           0 DoJE=T BraDBF=F KetDBF=F FulRan=T
         wScrn=  0.000000 ICntrl=       500 IOpCl=  0 I1Cent=           0 NGrid=           0
         NMat0=    1 NMatS0=      1 NMatT0=    0 NMatD0=    1 NMtDS0=    0 NMtDT0=    0
 Symmetry not used in FoFCou.
 E= -1092.26646548212    
 DIIS: error= 2.13D-02 at cycle   1 NSaved=   1.
 NSaved= 1 IEnMin= 1 EnMin= -1092.26646548212     IErMin= 1 ErrMin= 2.13D-02
 ErrMax= 2.13D-02  0.00D+00 EMaxC= 1.00D+00 BMatC= 1.25D+00 BMatP= 1.25D+00
 IDIUse=1 WtCom= 1.00D+00 WtEn= 0.00D+00
 Coeff-Com:  0.100D+01
 Coeff:      0.100D+01
 Gap=     0.389 Goal=   None    Shift=    0.500
 T= 1290. Gap= 0.825 NK=0 IS=   90 IE=  601 IFin=   89
          NO(<0.9)=   0  NV(>0.1)=   0     89.00e < EF      0.00e >EF  Err=0.0D+00
 Gap=     0.159 Goal=   None    Shift=    0.500
 T= 1290. Gap= 0.647 NK=0 IS=   89 IE=  601 IFin=   88
          NO(<0.9)=   0  NV(>0.1)=   0     88.00e < EF      0.00e >EF  Err=0.0D+00
 GapD=    0.159 DampG=1.000 DampE=0.500 DampFc=0.5000 IDamp=-1.
 Damping current iteration by 5.00D-01
 RMSDP=1.89D-03 MaxDP=6.25D-02              OVMax= 6.85D-02

 Cycle   2  Pass 1  IDiag  1:
 E= -1092.43184491372     Delta-E=       -0.165379431603 Rises=F Damp=T
 DIIS: error= 9.05D-03 at cycle   2 NSaved=   2.
 NSaved= 2 IEnMin= 2 EnMin= -1092.43184491372     IErMin= 2 ErrMin= 9.05D-03
 ErrMax= 9.05D-03  0.00D+00 EMaxC= 1.00D+00 BMatC= 2.19D-01 BMatP= 1.25D+00
 IDIUse=1 WtCom= 1.00D+00 WtEn= 0.00D+00
 Coeff-Com: -0.559D+00 0.156D+01
 Coeff:     -0.559D+00 0.156D+01
 Gap=     0.338 Goal=   None    Shift=    0.500
 T= 1163. Gap= 0.810 NK=0 IS=   90 IE=  601 IFin=   89
          NO(<0.9)=   0  NV(>0.1)=   0     89.00e < EF      0.00e >EF  Err=0.0D+00
 Gap=     0.219 Goal=   None    Shift=    0.500
 T= 1163. Gap= 0.702 NK=0 IS=   89 IE=  601 IFin=   88
          NO(<0.9)=   0  NV(>0.1)=   0     88.00e < EF      0.00e >EF  Err=0.0D+00
 GapD=    0.219 DampG=1.000 DampE=1.000 DampFc=1.0000 IDamp=-1.
 RMSDP=1.15D-03 MaxDP=4.24D-02 DE=-1.65D-01 OVMax= 2.80D-02

 Cycle   3  Pass 1  IDiag  1:
 E= -1092.53873687992     Delta-E=       -0.106891966198 Rises=F Damp=F
 DIIS: error= 2.62D-03 at cycle   3 NSaved=   3.
 NSaved= 3 IEnMin= 3 EnMin= -1092.53873687992     IErMin= 3 ErrMin= 2.62D-03
 ErrMax= 2.62D-03  0.00D+00 EMaxC= 1.00D+00 BMatC= 8.55D-03 BMatP= 2.19D-01
 IDIUse=1 WtCom= 1.00D+00 WtEn= 0.00D+00
 Coeff-Com:  0.452D-01 0.553D-02 0.949D+00
 Coeff:      0.452D-01 0.553D-02 0.949D+00
 Gap=     0.322 Goal=   None    Shift=    0.500
 T=  893. Gap= 0.821 NK=4 IS=   90 IE=  101 IFin=   89
          NO(<0.9)=   0  NV(>0.1)=   0     89.00e < EF      0.00e >EF  Err=0.0D+00
 Gap=     0.198 Goal=   None    Shift=    0.500
 T=  893. Gap= 0.698 NK=4 IS=   89 IE=  100 IFin=   88
          NO(<0.9)=   0  NV(>0.1)=   0     88.00e < EF      0.00e >EF  Err=0.0D+00
 GapD=    0.198 DampG=1.000 DampE=1.000 DampFc=1.0000 IDamp=-1.
 RMSDP=2.58D-04 MaxDP=1.17D-02 DE=-1.07D-01 OVMax= 1.17D-02

 Cycle   4  Pass 1  IDiag  1:
 E= -1092.54152424319     Delta-E=       -0.002787363270 Rises=F Damp=F
 DIIS: error= 2.63D-03 at cycle   4 NSaved=   4.
 NSaved= 4 IEnMin= 4 EnMin= -1092.54152424319     IErMin= 3 ErrMin= 2.62D-03
 ErrMax= 2.63D-03  0.00D+00 EMaxC= 1.00D+00 BMatC= 1.74D-03 BMatP= 8.55D-03
 IDIUse=1 WtCom= 1.00D+00 WtEn= 0.00D+00
 Coeff-Com:  0.581D-01-0.116D+00-0.367D-01 0.109D+01
 Coeff:      0.581D-01-0.116D+00-0.367D-01 0.109D+01
 Gap=     0.322 Goal=   None    Shift=    0.500
 T=  392. Gap= 0.822 NK=0 IS=   90 IE=  601 IFin=   89
          NO(<0.9)=   0  NV(>0.1)=   0     89.00e < EF      0.00e >EF  Err=0.0D+00
 Gap=     0.203 Goal=   None    Shift=    0.500
 T=  392. Gap= 0.703 NK=0 IS=   89 IE=  601 IFin=   88
          NO(<0.9)=   0  NV(>0.1)=   0     88.00e < EF      0.00e >EF  Err=0.0D+00
 GapD=    0.203 DampG=1.000 DampE=1.000 DampFc=1.0000 IDamp=-1.
 RMSDP=1.34D-04 MaxDP=6.10D-03 DE=-2.79D-03 OVMax= 1.13D-02

 Cycle   5  Pass 1  IDiag  1:
 E= -1092.54261817222     Delta-E=       -0.001093929027 Rises=F Damp=F
 DIIS: error= 2.11D-03 at cycle   5 NSaved=   5.
 NSaved= 5 IEnMin= 5 EnMin= -1092.54261817222     IErMin= 5 ErrMin= 2.11D-03
 ErrMax= 2.11D-03  0.00D+00 EMaxC= 1.00D+00 BMatC= 6.30D-04 BMatP= 1.74D-03
 IDIUse=1 WtCom= 1.00D+00 WtEn= 0.00D+00
 Coeff-Com: -0.935D-02-0.908D-04-0.178D+00-0.381D+00 0.157D+01
 Coeff:     -0.935D-02-0.908D-04-0.178D+00-0.381D+00 0.157D+01
 Gap=     0.324 Goal=   None    Shift=    0.500
 Gap=     0.206 Goal=   None    Shift=    0.500
 GapD=    0.206 DampG=1.000 DampE=1.000 DampFc=1.0000 IDamp=-1.
 RMSDP=8.48D-05 MaxDP=3.62D-03 DE=-1.09D-03 OVMax= 1.11D-02

 Cycle   6  Pass 1  IDiag  1:
 E= -1092.54328083143     Delta-E=       -0.000662659214 Rises=F Damp=F
 DIIS: error= 1.73D-03 at cycle   6 NSaved=   6.
 NSaved= 6 IEnMin= 6 EnMin= -1092.54328083143     IErMin= 6 ErrMin= 1.73D-03
 ErrMax= 1.73D-03  0.00D+00 EMaxC= 1.00D+00 BMatC= 3.07D-04 BMatP= 6.30D-04
 IDIUse=1 WtCom= 1.00D+00 WtEn= 0.00D+00
 Coeff-Com: -0.254D-01 0.448D-01-0.194D-01-0.393D+00-0.316D+00 0.171D+01
 Coeff:     -0.254D-01 0.448D-01-0.194D-01-0.393D+00-0.316D+00 0.171D+01
 Gap=     0.325 Goal=   None    Shift=    0.500
 Gap=     0.209 Goal=   None    Shift=    0.500
 GapD=    0.209 DampG=1.000 DampE=1.000 DampFc=1.0000 IDamp=-1.
 RMSDP=5.33D-05 MaxDP=2.00D-03 DE=-6.63D-04 OVMax= 1.03D-02

 Cycle   7  Pass 1  IDiag  1:
 E= -1092.54369646748     Delta-E=       -0.000415636051 Rises=F Damp=F
 DIIS: error= 1.46D-03 at cycle   7 NSaved=   7.
 NSaved= 7 IEnMin= 7 EnMin= -1092.54369646748     IErMin= 7 ErrMin= 1.46D-03
 ErrMax= 1.46D-03  0.00D+00 EMaxC= 1.00D+00 BMatC= 1.65D-04 BMatP= 3.07D-04
 IDIUse=1 WtCom= 1.00D+00 WtEn= 0.00D+00
 Coeff-Com: -0.106D-02 0.850D-02 0.684D-01 0.141D+00-0.808D+00-0.567D+00
 Coeff-Com:  0.216D+01
 Coeff:     -0.106D-02 0.850D-02 0.684D-01 0.141D+00-0.808D+00-0.567D+00
 Coeff:      0.216D+01
 Gap=     0.326 Goal=   None    Shift=    0.500
 Gap=     0.212 Goal=   None    Shift=    0.500
 GapD=    0.212 DampG=1.000 DampE=1.000 DampFc=1.0000 IDamp=-1.
 RMSDP=4.30D-05 MaxDP=1.94D-03 DE=-4.16D-04 OVMax= 9.77D-03

 Cycle   8  Pass 1  IDiag  1:
 E= -1092.54397643153     Delta-E=       -0.000279964046 Rises=F Damp=F
 DIIS: error= 1.14D-03 at cycle   8 NSaved=   8.
 NSaved= 8 IEnMin= 8 EnMin= -1092.54397643153     IErMin= 8 ErrMin= 1.14D-03
 ErrMax= 1.14D-03  0.00D+00 EMaxC= 1.00D+00 BMatC= 9.23D-05 BMatP= 1.65D-04
 IDIUse=1 WtCom= 1.00D+00 WtEn= 0.00D+00
 Coeff-Com:  0.831D-02-0.117D-01 0.389D-01 0.166D+00-0.222D+00-0.926D+00
 Coeff-Com:  0.316D+00 0.163D+01
 Coeff:      0.831D-02-0.117D-01 0.389D-01 0.166D+00-0.222D+00-0.926D+00
 Coeff:      0.316D+00 0.163D+01
 Gap=     0.326 Goal=   None    Shift=    0.500
 Gap=     0.213 Goal=   None    Shift=    0.500
 GapD=    0.213 DampG=1.000 DampE=1.000 DampFc=1.0000 IDamp=-1.
 RMSDP=3.25D-05 MaxDP=1.49D-03 DE=-2.80D-04 OVMax= 7.96D-03

 Cycle   9  Pass 1  IDiag  1:
 E= -1092.54414476998     Delta-E=       -0.000168338451 Rises=F Damp=F
 DIIS: error= 9.29D-04 at cycle   9 NSaved=   9.
 NSaved= 9 IEnMin= 9 EnMin= -1092.54414476998     IErMin= 9 ErrMin= 9.29D-04
 ErrMax= 9.29D-04  0.00D+00 EMaxC= 1.00D+00 BMatC= 5.55D-05 BMatP= 9.23D-05
 IDIUse=1 WtCom= 1.00D+00 WtEn= 0.00D+00
 Coeff-Com:  0.665D-02-0.146D-01-0.238D-01-0.481D-01 0.561D+00-0.178D+00
 Coeff-Com: -0.163D+01 0.368D+00 0.196D+01
 Coeff:      0.665D-02-0.146D-01-0.238D-01-0.481D-01 0.561D+00-0.178D+00
 Coeff:     -0.163D+01 0.368D+00 0.196D+01
 Gap=     0.327 Goal=   None    Shift=    0.500
 Gap=     0.215 Goal=   None    Shift=    0.500
 RMSDP=2.65D-05 MaxDP=1.27D-03 DE=-1.68D-04 OVMax= 6.85D-03

 Cycle  10  Pass 1  IDiag  1:
 E= -1092.54425560908     Delta-E=       -0.000110839101 Rises=F Damp=F
 DIIS: error= 7.10D-04 at cycle  10 NSaved=  10.
 NSaved=10 IEnMin=10 EnMin= -1092.54425560908     IErMin=10 ErrMin= 7.10D-04
 ErrMax= 7.10D-04  0.00D+00 EMaxC= 1.00D+00 BMatC= 3.20D-05 BMatP= 5.55D-05
 IDIUse=1 WtCom= 1.00D+00 WtEn= 0.00D+00
 Coeff-Com: -0.527D-03-0.351D-03 0.691D-02-0.142D+00 0.124D+00 0.425D+00
 Coeff-Com: -0.216D+00-0.616D+00-0.132D+01 0.274D+01
 Coeff:     -0.527D-03-0.351D-03 0.691D-02-0.142D+00 0.124D+00 0.425D+00
 Coeff:     -0.216D+00-0.616D+00-0.132D+01 0.274D+01
 Gap=     0.327 Goal=   None    Shift=    0.500
 Gap=     0.215 Goal=   None    Shift=    0.500
 RMSDP=2.03D-05 MaxDP=9.88D-04 DE=-1.11D-04 OVMax= 5.28D-03

 Cycle  11  Pass 1  IDiag  1:
 E= -1092.54431883807     Delta-E=       -0.000063228992 Rises=F Damp=F
 DIIS: error= 5.24D-04 at cycle  11 NSaved=  11.
 NSaved=11 IEnMin=11 EnMin= -1092.54431883807     IErMin=11 ErrMin= 5.24D-04
 ErrMax= 5.24D-04  0.00D+00 EMaxC= 1.00D+00 BMatC= 1.95D-05 BMatP= 3.20D-05
 IDIUse=1 WtCom= 1.00D+00 WtEn= 0.00D+00
 Coeff-Com: -0.526D-03 0.171D-02 0.242D-01-0.584D-01-0.159D+00 0.216D+00
 Coeff-Com:  0.524D+00-0.252D+00-0.140D+01 0.505D-02 0.209D+01
 Coeff:     -0.526D-03 0.171D-02 0.242D-01-0.584D-01-0.159D+00 0.216D+00
 Coeff:      0.524D+00-0.252D+00-0.140D+01 0.505D-02 0.209D+01
 Gap=     0.327 Goal=   None    Shift=    0.500
 Gap=     0.216 Goal=   None    Shift=    0.500
 RMSDP=1.54D-05 MaxDP=6.72D-04 DE=-6.32D-05 OVMax= 3.73D-03

 Cycle  12  Pass 1  IDiag  1:
 E= -1092.54435091907     Delta-E=       -0.000032080994 Rises=F Damp=F
 DIIS: error= 3.90D-04 at cycle  12 NSaved=  12.
 NSaved=12 IEnMin=12 EnMin= -1092.54435091907     IErMin=12 ErrMin= 3.90D-04
 ErrMax= 3.90D-04  0.00D+00 EMaxC= 1.00D+00 BMatC= 1.14D-05 BMatP= 1.95D-05
 IDIUse=1 WtCom= 1.00D+00 WtEn= 0.00D+00
 Coeff-Com:  0.289D-02-0.409D-02 0.104D-01 0.580D-01-0.860D-01-0.272D+00
 Coeff-Com:  0.145D+00 0.609D+00 0.574D+00-0.246D+01 0.674D-01 0.235D+01
 Coeff:      0.289D-02-0.409D-02 0.104D-01 0.580D-01-0.860D-01-0.272D+00
 Coeff:      0.145D+00 0.609D+00 0.574D+00-0.246D+01 0.674D-01 0.235D+01
 Gap=     0.327 Goal=   None    Shift=    0.500
 Gap=     0.216 Goal=   None    Shift=    0.500
 RMSDP=1.16D-05 MaxDP=4.38D-04 DE=-3.21D-05 OVMax= 2.71D-03

 Cycle  13  Pass 1  IDiag  1:
 E= -1092.54436672840     Delta-E=       -0.000015809334 Rises=F Damp=F
 DIIS: error= 2.80D-04 at cycle  13 NSaved=  13.
 NSaved=13 IEnMin=13 EnMin= -1092.54436672840     IErMin=13 ErrMin= 2.80D-04
 ErrMax= 2.80D-04  0.00D+00 EMaxC= 1.00D+00 BMatC= 6.18D-06 BMatP= 1.14D-05
 IDIUse=1 WtCom= 1.00D+00 WtEn= 0.00D+00
 Coeff-Com:  0.193D-02-0.399D-02-0.101D-01-0.147D-03 0.158D+00-0.797D-01
 Coeff-Com: -0.578D+00 0.420D+00 0.673D+00 0.108D+00-0.149D+01-0.102D+01
 Coeff-Com:  0.282D+01
 Coeff:      0.193D-02-0.399D-02-0.101D-01-0.147D-03 0.158D+00-0.797D-01
 Coeff:     -0.578D+00 0.420D+00 0.673D+00 0.108D+00-0.149D+01-0.102D+01
 Coeff:      0.282D+01
 Gap=     0.327 Goal=   None    Shift=    0.500
 Gap=     0.216 Goal=   None    Shift=    0.500
 RMSDP=8.52D-06 MaxDP=2.93D-04 DE=-1.58D-05 OVMax= 1.88D-03

 Cycle  14  Pass 1  IDiag  1:
 E= -1092.54437371807     Delta-E=       -0.000006989671 Rises=F Damp=F
 DIIS: error= 2.01D-04 at cycle  14 NSaved=  14.
 NSaved=14 IEnMin=14 EnMin= -1092.54437371807     IErMin=14 ErrMin= 2.01D-04
 ErrMax= 2.01D-04  0.00D+00 EMaxC= 1.00D+00 BMatC= 2.98D-06 BMatP= 6.18D-06
 IDIUse=1 WtCom= 1.00D+00 WtEn= 0.00D+00
 Coeff-Com:  0.424D-03-0.122D-02-0.166D-02-0.246D-01 0.652D-01 0.550D-01
 Coeff-Com: -0.198D+00-0.125D-01-0.709D-01 0.801D+00-0.447D+00-0.100D+01
 Coeff-Com: -0.226D+00 0.206D+01
 Coeff:      0.424D-03-0.122D-02-0.166D-02-0.246D-01 0.652D-01 0.550D-01
 Coeff:     -0.198D+00-0.125D-01-0.709D-01 0.801D+00-0.447D+00-0.100D+01
 Coeff:     -0.226D+00 0.206D+01
 Gap=     0.327 Goal=   None    Shift=    0.500
 Gap=     0.216 Goal=   None    Shift=    0.500
 RMSDP=5.39D-06 MaxDP=1.66D-04 DE=-6.99D-06 OVMax= 1.28D-03

 Cycle  15  Pass 1  IDiag  1:
 E= -1092.54437655328     Delta-E=       -0.000002835211 Rises=F Damp=F
 DIIS: error= 1.42D-04 at cycle  15 NSaved=  15.
 NSaved=15 IEnMin=15 EnMin= -1092.54437655328     IErMin=15 ErrMin= 1.42D-04
 ErrMax= 1.42D-04  0.00D+00 EMaxC= 1.00D+00 BMatC= 1.28D-06 BMatP= 2.98D-06
 IDIUse=1 WtCom= 1.00D+00 WtEn= 0.00D+00
 Coeff-Com: -0.376D-03 0.717D-03 0.526D-02-0.107D-01-0.413D-01 0.479D-01
 Coeff-Com:  0.171D+00-0.182D+00-0.309D+00 0.239D+00 0.494D+00 0.432D-01
 Coeff-Com: -0.150D+01 0.124D+00 0.191D+01
 Coeff:     -0.376D-03 0.717D-03 0.526D-02-0.107D-01-0.413D-01 0.479D-01
 Coeff:      0.171D+00-0.182D+00-0.309D+00 0.239D+00 0.494D+00 0.432D-01
 Coeff:     -0.150D+01 0.124D+00 0.191D+01
 Gap=     0.327 Goal=   None    Shift=    0.500
 Gap=     0.216 Goal=   None    Shift=    0.500
 RMSDP=3.43D-06 MaxDP=1.13D-04 DE=-2.84D-06 OVMax= 8.87D-04

 Cycle  16  Pass 1  IDiag  1:
 E= -1092.54437774873     Delta-E=       -0.000001195447 Rises=F Damp=F
 DIIS: error= 1.03D-04 at cycle  16 NSaved=  16.
 NSaved=16 IEnMin=16 EnMin= -1092.54437774873     IErMin=16 ErrMin= 1.03D-04
 ErrMax= 1.03D-04  0.00D+00 EMaxC= 1.00D+00 BMatC= 5.76D-07 BMatP= 1.28D-06
 IDIUse=1 WtCom= 1.00D+00 WtEn= 0.00D+00
 Coeff-Com:  0.120D-03-0.113D-03 0.160D-03 0.875D-02-0.592D-02-0.337D-01
 Coeff-Com: -0.245D-02 0.788D-01 0.109D+00-0.353D+00 0.616D-01 0.303D+00
 Coeff-Com:  0.309D+00-0.108D+01-0.736D+00 0.234D+01
 Coeff:      0.120D-03-0.113D-03 0.160D-03 0.875D-02-0.592D-02-0.337D-01
 Coeff:     -0.245D-02 0.788D-01 0.109D+00-0.353D+00 0.616D-01 0.303D+00
 Coeff:      0.309D+00-0.108D+01-0.736D+00 0.234D+01
 Gap=     0.327 Goal=   None    Shift=    0.500
 Gap=     0.216 Goal=   None    Shift=    0.500
 RMSDP=2.12D-06 MaxDP=8.70D-05 DE=-1.20D-06 OVMax= 6.31D-04

 Cycle  17  Pass 1  IDiag  1:
 E= -1092.54437830859     Delta-E=       -0.000000559864 Rises=F Damp=F
 DIIS: error= 7.60D-05 at cycle  17 NSaved=  17.
 NSaved=17 IEnMin=17 EnMin= -1092.54437830859     IErMin=17 ErrMin= 7.60D-05
 ErrMax= 7.60D-05  0.00D+00 EMaxC= 1.00D+00 BMatC= 3.04D-07 BMatP= 5.76D-07
 IDIUse=1 WtCom= 1.00D+00 WtEn= 0.00D+00
 Coeff-Com:  0.335D-03-0.578D-03-0.112D-02 0.577D-02 0.137D-01-0.308D-01
 Coeff-Com: -0.737D-01 0.123D+00 0.141D+00-0.243D+00-0.133D+00 0.114D+00
 Coeff-Com:  0.627D+00-0.666D+00-0.901D+00 0.678D+00 0.134D+01
 Coeff:      0.335D-03-0.578D-03-0.112D-02 0.577D-02 0.137D-01-0.308D-01
 Coeff:     -0.737D-01 0.123D+00 0.141D+00-0.243D+00-0.133D+00 0.114D+00
 Coeff:      0.627D+00-0.666D+00-0.901D+00 0.678D+00 0.134D+01
 Gap=     0.327 Goal=   None    Shift=    0.500
 Gap=     0.216 Goal=   None    Shift=    0.500
 RMSDP=1.31D-06 MaxDP=6.08D-05 DE=-5.60D-07 OVMax= 4.40D-04

 Cycle  18  Pass 1  IDiag  1:
 E= -1092.54437859396     Delta-E=       -0.000000285364 Rises=F Damp=F
 DIIS: error= 5.57D-05 at cycle  18 NSaved=  18.
 NSaved=18 IEnMin=18 EnMin= -1092.54437859396     IErMin=18 ErrMin= 5.57D-05
 ErrMax= 5.57D-05  0.00D+00 EMaxC= 1.00D+00 BMatC= 1.58D-07 BMatP= 3.04D-07
 IDIUse=1 WtCom= 1.00D+00 WtEn= 0.00D+00
 Coeff-Com:  0.227D-03-0.470D-03-0.403D-04-0.614D-02 0.131D-01 0.139D-01
 Coeff-Com: -0.428D-01 0.967D-02-0.386D-01 0.195D+00-0.110D+00-0.219D+00
 Coeff-Com:  0.122D-01 0.573D+00 0.270D+00-0.189D+01-0.226D+00 0.244D+01
 Coeff:      0.227D-03-0.470D-03-0.403D-04-0.614D-02 0.131D-01 0.139D-01
 Coeff:     -0.428D-01 0.967D-02-0.386D-01 0.195D+00-0.110D+00-0.219D+00
 Coeff:      0.122D-01 0.573D+00 0.270D+00-0.189D+01-0.226D+00 0.244D+01
 Gap=     0.327 Goal=   None    Shift=    0.500
 Gap=     0.216 Goal=   None    Shift=    0.500
 RMSDP=1.03D-06 MaxDP=5.24D-05 DE=-2.85D-07 OVMax= 3.44D-04

 Cycle  19  Pass 1  IDiag  1:
 E= -1092.54437879918     Delta-E=       -0.000000205223 Rises=F Damp=F
 DIIS: error= 4.06D-05 at cycle  19 NSaved=  19.
 NSaved=19 IEnMin=19 EnMin= -1092.54437879918     IErMin=19 ErrMin= 4.06D-05
 ErrMax= 4.06D-05  0.00D+00 EMaxC= 1.00D+00 BMatC= 8.32D-08 BMatP= 1.58D-07
 IDIUse=1 WtCom= 1.00D+00 WtEn= 0.00D+00
 Coeff-Com: -0.387D-05 0.273D-04 0.154D-02-0.401D-02-0.729D-02 0.108D-01
 Coeff-Com:  0.414D-01-0.515D-01-0.793D-01 0.103D+00 0.833D-01-0.467D-01
 Coeff-Com: -0.310D+00 0.307D+00 0.423D+00-0.206D+00-0.999D+00-0.108D+01
 Coeff-Com:  0.282D+01
 Coeff:     -0.387D-05 0.273D-04 0.154D-02-0.401D-02-0.729D-02 0.108D-01
 Coeff:      0.414D-01-0.515D-01-0.793D-01 0.103D+00 0.833D-01-0.467D-01
 Coeff:     -0.310D+00 0.307D+00 0.423D+00-0.206D+00-0.999D+00-0.108D+01
 Coeff:      0.282D+01
 Gap=     0.327 Goal=   None    Shift=    0.500
 Gap=     0.216 Goal=   None    Shift=    0.500
 RMSDP=8.38D-07 MaxDP=4.12D-05 DE=-2.05D-07 OVMax= 2.68D-04

 SCF Done:  E(ULC-wHPBE) =  -1092.54437880     A.U. after   19 cycles
            NFock= 19  Conv=0.84D-06     -V/T= 2.0049
 <Sx>= 0.0000 <Sy>= 0.0000 <Sz>= 0.5000 <S**2>= 0.7945 S= 0.5220
 <L.S>= 0.000000000000E+00
 KE= 1.087199145854D+03 PE=-6.635942327999D+03 EE= 2.399520994745D+03
 Annihilation of the first spin contaminant:
 S**2 before annihilation     0.7945,   after     0.7519
 Leave Link  502 at Sun Jan 17 00:22:19 2021, MaxMem=  4026531840 cpu:            8673.6 elap:            1089.5
 (Enter /opt/ohpc/pub/libs/gaussian/g16-A.03/sandybridge/g16/l508.exe)
 QCSCF skips out because SCF is already converged.
 Leave Link  508 at Sun Jan 17 00:22:19 2021, MaxMem=  4026531840 cpu:               0.1 elap:               0.0
 (Enter /opt/ohpc/pub/libs/gaussian/g16-A.03/sandybridge/g16/l601.exe)
 Copying SCF densities to generalized density rwf, IOpCl= 1 IROHF=0.

 **********************************************************************

            Population analysis using the SCF density.

 **********************************************************************

 Orbital symmetries:
 Alpha Orbitals:
       Occupied  (A) (A) (A) (A) (A) (A) (A) (A) (A) (A) (A) (A)
                 (A) (A) (A) (A) (A) (A) (A) (A) (A) (A) (A) (A)
                 (A) (A) (A) (A) (A) (A) (A) (A) (A) (A) (A) (A)
                 (A) (A) (A) (A) (A) (A) (A) (A) (A) (A) (A) (A)
                 (A) (A) (A) (A) (A) (A) (A) (A) (A) (A) (A) (A)
                 (A) (A) (A) (A) (A) (A) (A) (A) (A) (A) (A) (A)
                 (A) (A) (A) (A) (A) (A) (A) (A) (A) (A) (A) (A)
                 (A) (A) (A) (A) (A)
       Virtual   (A) (A) (A) (A) (A) (A) (A) (A) (A) (A) (A) (A)
                 (A) (A) (A) (A) (A) (A) (A) (A) (A) (A) (A) (A)
                 (A) (A) (A) (A) (A) (A) (A) (A) (A) (A) (A) (A)
                 (A) (A) (A) (A) (A) (A) (A) (A) (A) (A) (A) (A)
                 (A) (A) (A) (A) (A) (A) (A) (A) (A) (A) (A) (A)
                 (A) (A) (A) (A) (A) (A) (A) (A) (A) (A) (A) (A)
                 (A) (A) (A) (A) (A) (A) (A) (A) (A) (A) (A) (A)
                 (A) (A) (A) (A) (A) (A) (A) (A) (A) (A) (A) (A)
                 (A) (A) (A) (A) (A) (A) (A) (A) (A) (A) (A) (A)
                 (A) (A) (A) (A) (A) (A) (A) (A) (A) (A) (A) (A)
                 (A) (A) (A) (A) (A) (A) (A) (A) (A) (A) (A) (A)
                 (A) (A) (A) (A) (A) (A) (A) (A) (A) (A) (A) (A)
                 (A) (A) (A) (A) (A) (A) (A) (A) (A) (A) (A) (A)
                 (A) (A) (A) (A) (A) (A) (A) (A) (A) (A) (A) (A)
                 (A) (A) (A) (A) (A) (A) (A) (A) (A) (A) (A) (A)
                 (A) (A) (A) (A) (A) (A) (A) (A) (A) (A) (A) (A)
                 (A) (A) (A) (A) (A) (A) (A) (A) (A) (A) (A) (A)
                 (A) (A) (A) (A) (A) (A) (A) (A) (A) (A) (A) (A)
                 (A) (A) (A) (A) (A) (A) (A) (A) (A) (A) (A) (A)
                 (A) (A) (A) (A) (A) (A) (A) (A) (A) (A) (A) (A)
                 (A) (A) (A) (A) (A) (A) (A) (A) (A) (A) (A) (A)
                 (A) (A) (A) (A) (A) (A) (A) (A) (A) (A) (A) (A)
                 (A) (A) (A) (A) (A) (A) (A) (A) (A) (A) (A) (A)
                 (A) (A) (A) (A) (A) (A) (A) (A) (A) (A) (A) (A)
                 (A) (A) (A) (A) (A) (A) (A) (A) (A) (A) (A) (A)
                 (A) (A) (A) (A) (A) (A) (A) (A) (A) (A) (A) (A)
                 (A) (A) (A) (A) (A) (A) (A) (A) (A) (A) (A) (A)
                 (A) (A) (A) (A) (A) (A) (A) (A) (A) (A) (A) (A)
                 (A) (A) (A) (A) (A) (A) (A) (A) (A) (A) (A) (A)
                 (A) (A) (A) (A) (A) (A) (A) (A) (A) (A) (A) (A)
                 (A) (A) (A) (A) (A) (A) (A) (A) (A) (A) (A) (A)
                 (A) (A) (A) (A) (A) (A) (A) (A) (A) (A) (A) (A)
                 (A) (A) (A) (A) (A) (A) (A) (A) (A) (A) (A) (A)
                 (A) (A) (A) (A) (A) (A) (A) (A) (A) (A) (A) (A)
                 (A) (A) (A) (A) (A) (A) (A) (A) (A) (A) (A) (A)
                 (A) (A) (A) (A) (A) (A) (A) (A) (A) (A) (A) (A)
                 (A) (A) (A) (A) (A) (A) (A) (A) (A) (A) (A) (A)
                 (A) (A) (A) (A) (A) (A) (A) (A) (A) (A) (A) (A)
                 (A) (A) (A) (A) (A) (A) (A) (A) (A) (A) (A) (A)
                 (A) (A) (A) (A) (A) (A) (A) (A) (A) (A) (A) (A)
                 (A) (A) (A) (A) (A) (A) (A) (A) (A) (A) (A) (A)
                 (A) (A) (A) (A) (A) (A) (A) (A) (A) (A) (A) (A)
                 (A) (A) (A) (A) (A) (A) (A) (A)
 Beta  Orbitals:
       Occupied  (A) (A) (A) (A) (A) (A) (A) (A) (A) (A) (A) (A)
                 (A) (A) (A) (A) (A) (A) (A) (A) (A) (A) (A) (A)
                 (A) (A) (A) (A) (A) (A) (A) (A) (A) (A) (A) (A)
                 (A) (A) (A) (A) (A) (A) (A) (A) (A) (A) (A) (A)
                 (A) (A) (A) (A) (A) (A) (A) (A) (A) (A) (A) (A)
                 (A) (A) (A) (A) (A) (A) (A) (A) (A) (A) (A) (A)
                 (A) (A) (A) (A) (A) (A) (A) (A) (A) (A) (A) (A)
                 (A) (A) (A) (A)
       Virtual   (A) (A) (A) (A) (A) (A) (A) (A) (A) (A) (A) (A)
                 (A) (A) (A) (A) (A) (A) (A) (A) (A) (A) (A) (A)
                 (A) (A) (A) (A) (A) (A) (A) (A) (A) (A) (A) (A)
                 (A) (A) (A) (A) (A) (A) (A) (A) (A) (A) (A) (A)
                 (A) (A) (A) (A) (A) (A) (A) (A) (A) (A) (A) (A)
                 (A) (A) (A) (A) (A) (A) (A) (A) (A) (A) (A) (A)
                 (A) (A) (A) (A) (A) (A) (A) (A) (A) (A) (A) (A)
                 (A) (A) (A) (A) (A) (A) (A) (A) (A) (A) (A) (A)
                 (A) (A) (A) (A) (A) (A) (A) (A) (A) (A) (A) (A)
                 (A) (A) (A) (A) (A) (A) (A) (A) (A) (A) (A) (A)
                 (A) (A) (A) (A) (A) (A) (A) (A) (A) (A) (A) (A)
                 (A) (A) (A) (A) (A) (A) (A) (A) (A) (A) (A) (A)
                 (A) (A) (A) (A) (A) (A) (A) (A) (A) (A) (A) (A)
                 (A) (A) (A) (A) (A) (A) (A) (A) (A) (A) (A) (A)
                 (A) (A) (A) (A) (A) (A) (A) (A) (A) (A) (A) (A)
                 (A) (A) (A) (A) (A) (A) (A) (A) (A) (A) (A) (A)
                 (A) (A) (A) (A) (A) (A) (A) (A) (A) (A) (A) (A)
                 (A) (A) (A) (A) (A) (A) (A) (A) (A) (A) (A) (A)
                 (A) (A) (A) (A) (A) (A) (A) (A) (A) (A) (A) (A)
                 (A) (A) (A) (A) (A) (A) (A) (A) (A) (A) (A) (A)
                 (A) (A) (A) (A) (A) (A) (A) (A) (A) (A) (A) (A)
                 (A) (A) (A) (A) (A) (A) (A) (A) (A) (A) (A) (A)
                 (A) (A) (A) (A) (A) (A) (A) (A) (A) (A) (A) (A)
                 (A) (A) (A) (A) (A) (A) (A) (A) (A) (A) (A) (A)
                 (A) (A) (A) (A) (A) (A) (A) (A) (A) (A) (A) (A)
                 (A) (A) (A) (A) (A) (A) (A) (A) (A) (A) (A) (A)
                 (A) (A) (A) (A) (A) (A) (A) (A) (A) (A) (A) (A)
                 (A) (A) (A) (A) (A) (A) (A) (A) (A) (A) (A) (A)
                 (A) (A) (A) (A) (A) (A) (A) (A) (A) (A) (A) (A)
                 (A) (A) (A) (A) (A) (A) (A) (A) (A) (A) (A) (A)
                 (A) (A) (A) (A) (A) (A) (A) (A) (A) (A) (A) (A)
                 (A) (A) (A) (A) (A) (A) (A) (A) (A) (A) (A) (A)
                 (A) (A) (A) (A) (A) (A) (A) (A) (A) (A) (A) (A)
                 (A) (A) (A) (A) (A) (A) (A) (A) (A) (A) (A) (A)
                 (A) (A) (A) (A) (A) (A) (A) (A) (A) (A) (A) (A)
                 (A) (A) (A) (A) (A) (A) (A) (A) (A) (A) (A) (A)
                 (A) (A) (A) (A) (A) (A) (A) (A) (A) (A) (A) (A)
                 (A) (A) (A) (A) (A) (A) (A) (A) (A) (A) (A) (A)
                 (A) (A) (A) (A) (A) (A) (A) (A) (A) (A) (A) (A)
                 (A) (A) (A) (A) (A) (A) (A) (A) (A) (A) (A) (A)
                 (A) (A) (A) (A) (A) (A) (A) (A) (A) (A) (A) (A)
                 (A) (A) (A) (A) (A) (A) (A) (A) (A) (A) (A) (A)
                 (A) (A) (A) (A) (A) (A) (A) (A) (A)
 The electronic state is 2-A.
 Alpha  occ. eigenvalues --  -19.07996 -19.07972 -19.07970 -14.40015 -10.26327
 Alpha  occ. eigenvalues --  -10.26304 -10.26299 -10.24889 -10.24879 -10.24869
 Alpha  occ. eigenvalues --  -10.21687 -10.21642 -10.21603 -10.21434 -10.21402
 Alpha  occ. eigenvalues --  -10.21398 -10.21028 -10.21005 -10.20980 -10.19839
 Alpha  occ. eigenvalues --  -10.19802 -10.19793 -10.19405 -10.19381 -10.19358
 Alpha  occ. eigenvalues --   -1.28595  -1.28564  -1.28554  -1.24865  -1.11450
 Alpha  occ. eigenvalues --   -1.11441  -1.09245  -1.01718  -1.01544  -0.99984
 Alpha  occ. eigenvalues --   -0.99817  -0.99511  -0.97332  -0.93544  -0.93024
 Alpha  occ. eigenvalues --   -0.90920  -0.87719  -0.86471  -0.85846  -0.84352
 Alpha  occ. eigenvalues --   -0.83506  -0.81137  -0.79077  -0.79021  -0.76125
 Alpha  occ. eigenvalues --   -0.74883  -0.74854  -0.74242  -0.71619  -0.71469
 Alpha  occ. eigenvalues --   -0.69196  -0.69173  -0.69114  -0.68247  -0.68194
 Alpha  occ. eigenvalues --   -0.68104  -0.66150  -0.65866  -0.65854  -0.65656
 Alpha  occ. eigenvalues --   -0.64758  -0.63527  -0.63482  -0.62700  -0.62621
 Alpha  occ. eigenvalues --   -0.62253  -0.62176  -0.61965  -0.59854  -0.58289
 Alpha  occ. eigenvalues --   -0.58220  -0.57528  -0.55586  -0.55477  -0.54430
 Alpha  occ. eigenvalues --   -0.54304  -0.54278  -0.51914  -0.49508  -0.48498
 Alpha  occ. eigenvalues --   -0.48297  -0.45158  -0.45006  -0.40928
 Alpha virt. eigenvalues --   -0.08234  -0.06959  -0.06857  -0.05766  -0.05617
 Alpha virt. eigenvalues --   -0.02340   0.01148   0.02699   0.02836   0.03387
 Alpha virt. eigenvalues --    0.03588   0.04206   0.05204   0.05520   0.05757
 Alpha virt. eigenvalues --    0.05907   0.07122   0.07338   0.07458   0.08927
 Alpha virt. eigenvalues --    0.09336   0.09756   0.10179   0.10446   0.10489
 Alpha virt. eigenvalues --    0.10604   0.10738   0.10848   0.10926   0.11231
 Alpha virt. eigenvalues --    0.11356   0.11592   0.12578   0.12725   0.14964
 Alpha virt. eigenvalues --    0.15398   0.15545   0.16187   0.16768   0.17193
 Alpha virt. eigenvalues --    0.17753   0.17944   0.18104   0.18290   0.18749
 Alpha virt. eigenvalues --    0.19391   0.19540   0.19673   0.20283   0.20503
 Alpha virt. eigenvalues --    0.20775   0.21132   0.21446   0.21464   0.21864
 Alpha virt. eigenvalues --    0.22970   0.23232   0.23601   0.24817   0.24920
 Alpha virt. eigenvalues --    0.25763   0.26011   0.26199   0.26628   0.27004
 Alpha virt. eigenvalues --    0.27352   0.28120   0.28277   0.28546   0.29508
 Alpha virt. eigenvalues --    0.30112   0.30197   0.30543   0.31478   0.32142
 Alpha virt. eigenvalues --    0.32803   0.32905   0.33287   0.33338   0.34164
 Alpha virt. eigenvalues --    0.34778   0.35234   0.35403   0.35736   0.35893
 Alpha virt. eigenvalues --    0.36018   0.36423   0.36666   0.36929   0.37279
 Alpha virt. eigenvalues --    0.37502   0.37886   0.38426   0.39098   0.39448
 Alpha virt. eigenvalues --    0.39550   0.39936   0.40073   0.40571   0.40825
 Alpha virt. eigenvalues --    0.41462   0.41706   0.41904   0.42637   0.43405
 Alpha virt. eigenvalues --    0.43782   0.44101   0.44527   0.44647   0.44791
 Alpha virt. eigenvalues --    0.44968   0.45049   0.45472   0.45767   0.46107
 Alpha virt. eigenvalues --    0.46471   0.46527   0.46704   0.46857   0.48039
 Alpha virt. eigenvalues --    0.48196   0.48801   0.49062   0.49625   0.50844
 Alpha virt. eigenvalues --    0.51561   0.52097   0.52422   0.52705   0.52973
 Alpha virt. eigenvalues --    0.54031   0.55369   0.57015   0.57852   0.58100
 Alpha virt. eigenvalues --    0.59123   0.60402   0.60997   0.61413   0.61585
 Alpha virt. eigenvalues --    0.61942   0.62393   0.62943   0.63112   0.63686
 Alpha virt. eigenvalues --    0.64834   0.64997   0.65887   0.66821   0.67565
 Alpha virt. eigenvalues --    0.68501   0.68835   0.69052   0.69413   0.69951
 Alpha virt. eigenvalues --    0.70248   0.70695   0.70820   0.72154   0.72403
 Alpha virt. eigenvalues --    0.72745   0.74995   0.76054   0.76376   0.76999
 Alpha virt. eigenvalues --    0.78598   0.79222   0.80830   0.81643   0.83129
 Alpha virt. eigenvalues --    0.84469   0.85717   0.88502   0.89790   0.90016
 Alpha virt. eigenvalues --    0.90746   0.91154   0.91533   1.09939   1.12145
 Alpha virt. eigenvalues --    1.12475   1.16953   1.17418   1.18175   1.19488
 Alpha virt. eigenvalues --    1.19686   1.19848   1.20555   1.21032   1.21792
 Alpha virt. eigenvalues --    1.22087   1.22480   1.22883   1.23777   1.24114
 Alpha virt. eigenvalues --    1.25453   1.25607   1.25884   1.26243   1.26863
 Alpha virt. eigenvalues --    1.27119   1.27435   1.28008   1.28180   1.28694
 Alpha virt. eigenvalues --    1.28997   1.30318   1.30798   1.31329   1.31958
 Alpha virt. eigenvalues --    1.32583   1.32838   1.34724   1.35046   1.35313
 Alpha virt. eigenvalues --    1.36227   1.36521   1.36676   1.37983   1.38478
 Alpha virt. eigenvalues --    1.38525   1.39373   1.39626   1.39893   1.39977
 Alpha virt. eigenvalues --    1.40328   1.41266   1.41557   1.41952   1.42334
 Alpha virt. eigenvalues --    1.42544   1.43155   1.43642   1.43821   1.44566
 Alpha virt. eigenvalues --    1.44627   1.45504   1.45757   1.46241   1.47612
 Alpha virt. eigenvalues --    1.48079   1.48199   1.48318   1.49017   1.49267
 Alpha virt. eigenvalues --    1.49372   1.49510   1.50085   1.50494   1.51180
 Alpha virt. eigenvalues --    1.51709   1.52108   1.52430   1.52442   1.52957
 Alpha virt. eigenvalues --    1.53114   1.53244   1.53371   1.54705   1.55001
 Alpha virt. eigenvalues --    1.55650   1.57070   1.57464   1.58053   1.58632
 Alpha virt. eigenvalues --    1.60544   1.61305   1.61725   1.63383   1.63478
 Alpha virt. eigenvalues --    1.63840   1.65114   1.65334   1.65882   1.68699
 Alpha virt. eigenvalues --    1.69515   1.72207   1.72280   1.73172   1.74142
 Alpha virt. eigenvalues --    1.74716   1.74756   1.74858   1.75216   1.75649
 Alpha virt. eigenvalues --    1.76113   1.77323   1.77573   1.78004   1.78059
 Alpha virt. eigenvalues --    1.78277   1.78372   1.78555   1.78943   1.79444
 Alpha virt. eigenvalues --    1.79754   1.79987   1.80130   1.81307   1.83010
 Alpha virt. eigenvalues --    1.83595   1.84178   1.84996   1.85260   1.86074
 Alpha virt. eigenvalues --    1.87566   1.87773   1.88284   1.88377   1.88932
 Alpha virt. eigenvalues --    1.89035   1.89305   1.89464   1.89537   1.89633
 Alpha virt. eigenvalues --    1.90099   1.91137   1.96241   1.96541   1.96921
 Alpha virt. eigenvalues --    1.99406   1.99498   2.00316   2.02072   2.02319
 Alpha virt. eigenvalues --    2.03071   2.05399   2.06157   2.07074   2.08409
 Alpha virt. eigenvalues --    2.09525   2.10546   2.11554   2.12436   2.14657
 Alpha virt. eigenvalues --    2.14795   2.15588   2.16698   2.17362   2.17681
 Alpha virt. eigenvalues --    2.18549   2.19176   2.19235   2.21441   2.25560
 Alpha virt. eigenvalues --    2.25679   2.25857   2.25952   2.26022   2.26639
 Alpha virt. eigenvalues --    2.27019   2.27500   2.28893   2.29385   2.30601
 Alpha virt. eigenvalues --    2.30744   2.31334   2.31492   2.32302   2.33511
 Alpha virt. eigenvalues --    2.33582   2.33988   2.34044   2.34098   2.34314
 Alpha virt. eigenvalues --    2.34462   2.34583   2.34899   2.36494   2.36575
 Alpha virt. eigenvalues --    2.36823   2.38709   2.38869   2.42871   2.43305
 Alpha virt. eigenvalues --    2.43459   2.45413   2.46946   2.47203   2.47350
 Alpha virt. eigenvalues --    2.51161   2.51312   2.54703   2.54806   2.55090
 Alpha virt. eigenvalues --    2.55181   2.55286   2.56194   2.56866   2.57411
 Alpha virt. eigenvalues --    2.57650   2.59459   2.59743   2.60247   2.60483
 Alpha virt. eigenvalues --    2.62480   2.62936   2.68204   2.68501   2.68698
 Alpha virt. eigenvalues --    2.68777   2.69299   2.69601   2.70534   2.70768
 Alpha virt. eigenvalues --    2.71253   2.71747   2.72371   2.72920   2.74204
 Alpha virt. eigenvalues --    2.74701   2.75510   2.77560   2.79281   2.80051
 Alpha virt. eigenvalues --    2.83229   2.83863   2.84723   2.85302   2.89167
 Alpha virt. eigenvalues --    2.89645   2.92083   2.92166   2.92420   2.95998
 Alpha virt. eigenvalues --    2.96339   2.96494   2.96924   2.97859   2.99922
 Alpha virt. eigenvalues --    3.00661   3.01019   3.01374   3.01972   3.03766
 Alpha virt. eigenvalues --    3.04326   3.04392   3.04440   3.04505   3.04694
 Alpha virt. eigenvalues --    3.06392   3.06894   3.09021   3.10370   3.11091
 Alpha virt. eigenvalues --    3.11523   3.13155   3.13560   3.15486   3.16798
 Alpha virt. eigenvalues --    3.17751   3.21736   3.22550   3.23167   3.24251
 Alpha virt. eigenvalues --    3.24499   3.24961   3.25137   3.27089   3.27133
 Alpha virt. eigenvalues --    3.27170   3.27250   3.28288   3.28949   3.31751
 Alpha virt. eigenvalues --    3.32357   3.33978   3.34489   3.35580   3.38670
 Alpha virt. eigenvalues --    3.39430   3.39848   3.40654   3.50065   3.50479
 Alpha virt. eigenvalues --    3.51719   3.53690   3.54062   3.65912   3.78772
 Alpha virt. eigenvalues --    3.79128   3.93859   3.94117   3.94288   4.13688
 Alpha virt. eigenvalues --    4.14262   4.14348  21.20744  21.22504  21.22685
 Alpha virt. eigenvalues --   21.65257  21.68723  21.69106  21.73247  21.79897
 Alpha virt. eigenvalues --   21.80010  21.80103  21.81491  21.82393  21.87498
 Alpha virt. eigenvalues --   21.92083  21.92823  21.93686  21.97511  21.99046
 Alpha virt. eigenvalues --   22.04600  22.11555  22.12298  31.95438  43.31803
 Alpha virt. eigenvalues --   43.31887  43.31894
  Beta  occ. eigenvalues --  -19.07891 -19.07863 -19.07857 -14.39087 -10.26163
  Beta  occ. eigenvalues --  -10.26136 -10.26125 -10.24970 -10.24958 -10.24948
  Beta  occ. eigenvalues --  -10.21692 -10.21647 -10.21608 -10.21262 -10.21227
  Beta  occ. eigenvalues --  -10.21220 -10.20890 -10.20866 -10.20838 -10.19913
  Beta  occ. eigenvalues --  -10.19879 -10.19870 -10.19483 -10.19458 -10.19438
  Beta  occ. eigenvalues --   -1.28403  -1.28367  -1.28348  -1.23695  -1.11225
  Beta  occ. eigenvalues --   -1.11208  -1.08878  -1.01500  -1.01329  -0.99857
  Beta  occ. eigenvalues --   -0.99682  -0.99377  -0.96842  -0.93493  -0.92987
  Beta  occ. eigenvalues --   -0.90602  -0.87464  -0.86232  -0.85634  -0.84096
  Beta  occ. eigenvalues --   -0.83313  -0.80998  -0.78930  -0.78868  -0.75990
  Beta  occ. eigenvalues --   -0.74722  -0.74701  -0.73440  -0.71513  -0.71353
  Beta  occ. eigenvalues --   -0.68838  -0.68804  -0.68743  -0.68112  -0.68066
  Beta  occ. eigenvalues --   -0.67999  -0.65945  -0.65772  -0.65747  -0.64857
  Beta  occ. eigenvalues --   -0.64619  -0.63473  -0.63429  -0.62306  -0.62069
  Beta  occ. eigenvalues --   -0.61903  -0.61859  -0.61762  -0.58915  -0.58157
  Beta  occ. eigenvalues --   -0.58098  -0.56787  -0.54688  -0.54560  -0.54288
  Beta  occ. eigenvalues --   -0.54216  -0.54190  -0.49228  -0.48958  -0.48239
  Beta  occ. eigenvalues --   -0.48015  -0.43443  -0.43186
  Beta virt. eigenvalues --   -0.21554  -0.07751  -0.06149  -0.06005  -0.04975
  Beta virt. eigenvalues --   -0.04761  -0.00494   0.01216   0.02761   0.02884
  Beta virt. eigenvalues --    0.03459   0.03646   0.04236   0.05247   0.05570
  Beta virt. eigenvalues --    0.05822   0.05969   0.07183   0.07415   0.07554
  Beta virt. eigenvalues --    0.08976   0.09370   0.09822   0.10276   0.10550
  Beta virt. eigenvalues --    0.10599   0.10736   0.10835   0.10948   0.11030
  Beta virt. eigenvalues --    0.11345   0.11423   0.11651   0.12767   0.13051
  Beta virt. eigenvalues --    0.15231   0.15520   0.15661   0.16381   0.16874
  Beta virt. eigenvalues --    0.17255   0.17856   0.18026   0.18146   0.18425
  Beta virt. eigenvalues --    0.18911   0.19554   0.19694   0.19808   0.20381
  Beta virt. eigenvalues --    0.20556   0.20903   0.21266   0.21590   0.21693
  Beta virt. eigenvalues --    0.21997   0.23047   0.23316   0.23740   0.24849
  Beta virt. eigenvalues --    0.24985   0.25800   0.26098   0.26242   0.26846
  Beta virt. eigenvalues --    0.27125   0.27451   0.28254   0.28469   0.28656
  Beta virt. eigenvalues --    0.29664   0.30194   0.30267   0.30641   0.31632
  Beta virt. eigenvalues --    0.32270   0.32899   0.33055   0.33390   0.33456
  Beta virt. eigenvalues --    0.34301   0.34952   0.35313   0.35483   0.35916
  Beta virt. eigenvalues --    0.36052   0.36153   0.36568   0.36811   0.37076
  Beta virt. eigenvalues --    0.37350   0.37629   0.38021   0.38535   0.39246
  Beta virt. eigenvalues --    0.39540   0.39643   0.40031   0.40125   0.40590
  Beta virt. eigenvalues --    0.40849   0.41530   0.41768   0.41970   0.42712
  Beta virt. eigenvalues --    0.43470   0.43839   0.44185   0.44591   0.44743
  Beta virt. eigenvalues --    0.44876   0.45071   0.45136   0.45550   0.45836
  Beta virt. eigenvalues --    0.46212   0.46589   0.46605   0.46800   0.46970
  Beta virt. eigenvalues --    0.48134   0.48258   0.48918   0.49139   0.49737
  Beta virt. eigenvalues --    0.50943   0.51645   0.52195   0.52539   0.52821
  Beta virt. eigenvalues --    0.53104   0.54213   0.55506   0.57087   0.57944
  Beta virt. eigenvalues --    0.58193   0.59237   0.60508   0.61150   0.61555
  Beta virt. eigenvalues --    0.61684   0.62061   0.62565   0.63035   0.63205
  Beta virt. eigenvalues --    0.63739   0.64883   0.65045   0.65976   0.66912
  Beta virt. eigenvalues --    0.67666   0.68648   0.68953   0.69196   0.69529
  Beta virt. eigenvalues --    0.70064   0.70407   0.70783   0.70921   0.72233
  Beta virt. eigenvalues --    0.72505   0.72847   0.75120   0.76108   0.76466
  Beta virt. eigenvalues --    0.77270   0.78656   0.79287   0.81361   0.81787
  Beta virt. eigenvalues --    0.83378   0.84665   0.85774   0.88600   0.89883
  Beta virt. eigenvalues --    0.90088   0.90859   0.91243   0.91853   1.10051
  Beta virt. eigenvalues --    1.12230   1.12556   1.17017   1.17484   1.18230
  Beta virt. eigenvalues --    1.19632   1.19875   1.20021   1.20666   1.21143
  Beta virt. eigenvalues --    1.21954   1.22203   1.22638   1.23056   1.23917
  Beta virt. eigenvalues --    1.24252   1.25525   1.25703   1.25947   1.26283
  Beta virt. eigenvalues --    1.26953   1.27201   1.27534   1.28081   1.28255
  Beta virt. eigenvalues --    1.28822   1.29085   1.30532   1.30999   1.31491
  Beta virt. eigenvalues --    1.32010   1.32614   1.32848   1.34749   1.35082
  Beta virt. eigenvalues --    1.35347   1.36424   1.36722   1.36948   1.38232
  Beta virt. eigenvalues --    1.38638   1.38684   1.39563   1.39795   1.40119
  Beta virt. eigenvalues --    1.40158   1.40492   1.41429   1.41612   1.41930
  Beta virt. eigenvalues --    1.42307   1.42519   1.43173   1.43731   1.43966
  Beta virt. eigenvalues --    1.44693   1.44729   1.45790   1.46046   1.46463
  Beta virt. eigenvalues --    1.47832   1.48227   1.48416   1.48591   1.49291
  Beta virt. eigenvalues --    1.49577   1.49655   1.49792   1.50172   1.50629
  Beta virt. eigenvalues --    1.51295   1.51882   1.52278   1.52508   1.52550
  Beta virt. eigenvalues --    1.53092   1.53249   1.53461   1.53528   1.54902
  Beta virt. eigenvalues --    1.55168   1.55835   1.57244   1.57618   1.58169
  Beta virt. eigenvalues --    1.58739   1.60664   1.61450   1.61855   1.63558
  Beta virt. eigenvalues --    1.63668   1.63972   1.65257   1.65461   1.65984
  Beta virt. eigenvalues --    1.68779   1.69620   1.72455   1.72552   1.73397
  Beta virt. eigenvalues --    1.74407   1.74769   1.74808   1.74921   1.75238
  Beta virt. eigenvalues --    1.75738   1.76240   1.77432   1.77669   1.78052
  Beta virt. eigenvalues --    1.78128   1.78322   1.78415   1.78598   1.79000
  Beta virt. eigenvalues --    1.79467   1.79988   1.80103   1.80161   1.81547
  Beta virt. eigenvalues --    1.83179   1.83766   1.84366   1.85094   1.85398
  Beta virt. eigenvalues --    1.86340   1.87699   1.87901   1.88347   1.88518
  Beta virt. eigenvalues --    1.89070   1.89179   1.89411   1.89655   1.89678
  Beta virt. eigenvalues --    1.89755   1.90186   1.91375   1.96460   1.96765
  Beta virt. eigenvalues --    1.97076   1.99603   1.99703   2.00619   2.02231
  Beta virt. eigenvalues --    2.02468   2.03348   2.05542   2.06334   2.07200
[...]
     4   Atom        0.047158     -0.036884     -0.010274
     5   Atom       -0.007662      0.025368     -0.017706
     6   Atom       -0.012508      0.031210     -0.018702
     7   Atom        0.014648     -0.059450      0.044802
     8   Atom        0.001239     -0.003048      0.001810
     9   Atom        0.002004     -0.003186      0.001182
    10   Atom       -0.001836      0.002595     -0.000759
    11   Atom       -0.000527      0.001241     -0.000714
    12   Atom        0.005447     -0.005346     -0.000101
    13   Atom        0.005259     -0.009735      0.004476
    14   Atom       -0.023590      0.027680     -0.004090
    15   Atom        0.018626      0.003410     -0.022036
    16   Atom        0.011690      0.011914     -0.023604
    17   Atom       -0.037994     -0.018743      0.056738
    18   Atom       -0.002365      0.000988      0.001378
    19   Atom        0.000917     -0.001300      0.000383
    20   Atom       -0.000548      0.001408     -0.000860
    21   Atom        0.002166     -0.001244     -0.000922
    22   Atom       -0.045390     -0.023384      0.068774
    23   Atom        0.002617     -0.001453     -0.001164
    24   Atom        0.002096     -0.000948     -0.001148
    25   Atom        0.000714     -0.000889      0.000174
    26   Atom        0.001521     -0.000485     -0.001035
    27   Atom        0.038794     -0.090790      0.051996
    28   Atom        0.000122      0.000674     -0.000796
    29   Atom        0.001069     -0.000044     -0.001025
    30   Atom       -0.000583      0.000229      0.000354
    31   Atom       -0.000359      0.001303     -0.000944
    32   Atom        0.020098     -0.015354     -0.004744
    33   Atom       -0.051609      0.031656      0.019952
    34   Atom       -0.055501      0.043956      0.011544
    35   Atom        0.030526     -0.001127     -0.029399
    36   Atom        0.028676      0.002416     -0.031092
    37   Atom       -0.064945     -0.011146      0.076091
    38   Atom       -0.004719      0.004442      0.000277
    39   Atom       -0.001979      0.002203     -0.000224
    40   Atom        0.001408     -0.000214     -0.001194
    41   Atom        0.002770     -0.001655     -0.001115
    42   Atom       -0.095982     -0.002083      0.098065
    43   Atom        0.002577     -0.001178     -0.001400
    44   Atom        0.001461     -0.000216     -0.001245
    45   Atom        0.000927     -0.001117      0.000191
    46   Atom        0.002236     -0.001220     -0.001016
 --------------------------------------------------------
                        XY            XZ            YZ
 --------------------------------------------------------
     1   Atom       -0.002489      0.060611     -0.068803
     2   Atom        0.010577     -0.022523      0.002911
     3   Atom       -0.016698      0.089731     -0.014774
     4   Atom       -0.042942      0.064615     -0.022771
     5   Atom        0.014283     -0.037668      0.015379
     6   Atom        0.007592     -0.043348      0.007018
     7   Atom       -0.021578      0.100192     -0.026221
     8   Atom       -0.002876     -0.005262      0.003723
     9   Atom       -0.000353     -0.005555     -0.000104
    10   Atom        0.000004     -0.001110      0.001550
    11   Atom        0.002119     -0.001772     -0.001016
    12   Atom       -0.022363      0.013464      0.020264
    13   Atom        0.066821     -0.069986     -0.068605
    14   Atom        0.052054     -0.040867     -0.058785
    15   Atom       -0.019072      0.021992      0.035981
    16   Atom       -0.020153      0.030027      0.029986
    17   Atom        0.037273     -0.064884     -0.081151
    18   Atom        0.003607      0.002668      0.005814
    19   Atom        0.002694      0.004971      0.002657
    20   Atom       -0.001955      0.000013      0.002075
    21   Atom       -0.001556      0.001924      0.000310
    22   Atom        0.066031     -0.093538     -0.117972
    23   Atom       -0.001027      0.002504      0.000494
    24   Atom        0.000026      0.000712      0.000182
    25   Atom       -0.000749      0.001562     -0.000388
    26   Atom       -0.001357      0.000519     -0.000344
    27   Atom       -0.033210      0.141762     -0.038733
    28   Atom        0.002092     -0.002451     -0.001114
    29   Atom        0.001338     -0.000852     -0.000343
    30   Atom        0.000915     -0.001046     -0.001223
    31   Atom        0.001381     -0.000319     -0.000713
    32   Atom        0.011598      0.009929     -0.024260
    33   Atom       -0.045869     -0.037882      0.096211
    34   Atom       -0.012162     -0.013435      0.077986
    35   Atom        0.005607      0.005004     -0.039685
    36   Atom        0.011772      0.016037     -0.039807
    37   Atom       -0.015565     -0.027350      0.098322
    38   Atom       -0.000380     -0.000816     -0.006388
    39   Atom       -0.002715      0.003010     -0.004609
    40   Atom        0.002037     -0.000663     -0.001853
    41   Atom       -0.000661      0.001714     -0.001211
    42   Atom       -0.032090     -0.039299      0.145499
    43   Atom       -0.001232      0.002070     -0.001679
    44   Atom       -0.001337      0.000510     -0.000452
    45   Atom       -0.000356      0.001614     -0.000515
    46   Atom       -0.000088      0.000723      0.000053
 --------------------------------------------------------


 ---------------------------------------------------------------------------------
              Anisotropic Spin Dipole Couplings in Principal Axis System
 ---------------------------------------------------------------------------------

       Atom             a.u.   MegaHertz   Gauss  10(-4) cm-1        Axes

              Baa    -0.5604   -21.614    -7.712    -7.210  0.0002  0.9992  0.0410
     1 N(14)  Bbb    -0.5596   -21.583    -7.701    -7.199  0.9993  0.0013 -0.0361
              Bcc     1.1200    43.197    15.414    14.409  0.0361 -0.0410  0.9985
 
              Baa    -0.0377    -5.063    -1.806    -1.689  0.8485 -0.1788  0.4981
     2 C(13)  Bbb     0.0142     1.906     0.680     0.636 -0.4275  0.3232  0.8443
              Bcc     0.0235     3.156     1.126     1.053  0.3119  0.9293 -0.1978
 
              Baa    -0.0714    -9.582    -3.419    -3.196 -0.1978  0.8533  0.4824
     3 C(13)  Bbb    -0.0635    -8.522    -3.041    -2.843 -0.5092 -0.5100  0.6933
              Bcc     0.1349    18.104     6.460     6.039  0.8376 -0.1085  0.5354
 
              Baa    -0.0569    -7.638    -2.725    -2.548  0.5579  0.7130 -0.4248
     4 C(13)  Bbb    -0.0487    -6.534    -2.332    -2.180 -0.2258  0.6229  0.7490
              Bcc     0.1056    14.172     5.057     4.727  0.7986 -0.3219  0.5085
 
              Baa    -0.0561    -7.527    -2.686    -2.511  0.6393 -0.2494  0.7274
     5 C(13)  Bbb     0.0253     3.389     1.209     1.130  0.7292 -0.1036 -0.6764
              Bcc     0.0308     4.138     1.476     1.380  0.2441  0.9628  0.1156
 
              Baa    -0.0602    -8.082    -2.884    -2.696  0.6779 -0.1121  0.7266
     6 C(13)  Bbb     0.0277     3.721     1.328     1.241  0.7089 -0.1621 -0.6864
              Bcc     0.0325     4.361     1.556     1.455  0.1947  0.9804 -0.0304
 
              Baa    -0.0717    -9.619    -3.432    -3.209  0.7403 -0.1142 -0.6625
     7 C(13)  Bbb    -0.0652    -8.754    -3.124    -2.920  0.1982  0.9787  0.0528
              Bcc     0.1369    18.373     6.556     6.128  0.6424 -0.1704  0.7472
 
              Baa    -0.0051    -2.702    -0.964    -0.901  0.0103  0.8826 -0.4701
     8 H(1)   Bbb    -0.0036    -1.922    -0.686    -0.641  0.7780  0.2882  0.5582
              Bcc     0.0087     4.624     1.650     1.543 -0.6282  0.3715  0.6837
 
              Baa    -0.0041    -2.181    -0.778    -0.728  0.6460  0.3320  0.6874
     9 H(1)   Bbb    -0.0031    -1.642    -0.586    -0.548 -0.2133  0.9431 -0.2551
              Bcc     0.0072     3.823     1.364     1.275  0.7330 -0.0182 -0.6800
 
              Baa    -0.0027    -1.429    -0.510    -0.477  0.7843 -0.1755  0.5951
    10 H(1)   Bbb    -0.0006    -0.297    -0.106    -0.099 -0.6149 -0.3474  0.7079
              Bcc     0.0032     1.726     0.616     0.576 -0.0825  0.9212  0.3803
 
              Baa    -0.0026    -1.388    -0.495    -0.463  0.7704 -0.2723  0.5765
    11 H(1)   Bbb    -0.0009    -0.469    -0.167    -0.156 -0.3020  0.6405  0.7061
              Bcc     0.0035     1.857     0.663     0.619  0.5615  0.7181 -0.4112
 
              Baa    -0.0384    -5.147    -1.836    -1.717  0.5087  0.6737 -0.5360
    12 C(13)  Bbb     0.0149     2.005     0.716     0.669  0.4833  0.2917  0.8254
              Bcc     0.0234     3.141     1.121     1.048  0.7125 -0.6790 -0.1772
 
              Baa    -0.0723    -9.709    -3.464    -3.238 -0.2575  0.8254  0.5024
    13 C(13)  Bbb    -0.0649    -8.708    -3.107    -2.905  0.7643 -0.1441  0.6285
              Bcc     0.1372    18.417     6.572     6.143 -0.5912 -0.5459  0.5937
 
              Baa    -0.0573    -7.695    -2.746    -2.567  0.8879 -0.3062  0.3434
    14 C(13)  Bbb    -0.0490    -6.580    -2.348    -2.195 -0.0761  0.6385  0.7659
              Bcc     0.1064    14.276     5.094     4.762  0.4537  0.7061 -0.5436
 
              Baa    -0.0584    -7.835    -2.796    -2.613 -0.3524 -0.5497  0.7574
    15 C(13)  Bbb     0.0265     3.554     1.268     1.185  0.6171  0.4719  0.6297
              Bcc     0.0319     4.281     1.528     1.428  0.7036 -0.6893 -0.1729
 
              Baa    -0.0591    -7.930    -2.830    -2.645 -0.4544 -0.4529  0.7671
    16 C(13)  Bbb     0.0271     3.642     1.299     1.215  0.5522  0.5325  0.6415
              Bcc     0.0320     4.288     1.530     1.430 -0.6990  0.7150  0.0081
 
              Baa    -0.0732    -9.822    -3.505    -3.276  0.5955  0.5133  0.6180
    17 C(13)  Bbb    -0.0667    -8.952    -3.194    -2.986 -0.7038  0.7043  0.0931
              Bcc     0.1399    18.775     6.699     6.263 -0.3875 -0.4903  0.7807
 
              Baa    -0.0051    -2.729    -0.974    -0.910 -0.5351  0.7267 -0.4308
    18 H(1)   Bbb    -0.0037    -1.948    -0.695    -0.650  0.7592  0.1900 -0.6225
              Bcc     0.0088     4.677     1.669     1.560  0.3705  0.6602  0.6533
 
              Baa    -0.0043    -2.311    -0.825    -0.771 -0.6740 -0.0471  0.7372
    19 H(1)   Bbb    -0.0030    -1.580    -0.564    -0.527 -0.3268  0.9140 -0.2403
              Bcc     0.0073     3.892     1.389     1.298  0.6625  0.4029  0.6315
 
              Baa    -0.0027    -1.446    -0.516    -0.482 -0.5173 -0.5680  0.6402
    20 H(1)   Bbb    -0.0007    -0.361    -0.129    -0.120  0.7529  0.0535  0.6559
              Bcc     0.0034     1.807     0.645     0.603 -0.4068  0.8213  0.4000
 
              Baa    -0.0027    -1.414    -0.505    -0.472  0.4543  0.6395 -0.6202
    21 H(1)   Bbb    -0.0008    -0.424    -0.151    -0.141 -0.0703  0.7198  0.6906
              Bcc     0.0034     1.838     0.656     0.613  0.8881 -0.2701  0.3720
 
              Baa    -0.1044     7.553     2.695     2.519 -0.2334  0.8576  0.4582
    22 O(17)  Bbb    -0.0979     7.083     2.527     2.363  0.8772 -0.0177  0.4798
              Bcc     0.2023   -14.636    -5.223    -4.882 -0.4196 -0.5139  0.7482
 
              Baa    -0.0030    -0.399    -0.142    -0.133 -0.4262 -0.5277  0.7348
    23 C(13)  Bbb    -0.0010    -0.132    -0.047    -0.044 -0.1280  0.8392  0.5285
              Bcc     0.0040     0.531     0.189     0.177  0.8955 -0.1312  0.4252
 
              Baa    -0.0014    -0.730    -0.260    -0.243 -0.1833 -0.3806  0.9064
    24 H(1)   Bbb    -0.0009    -0.469    -0.167    -0.156 -0.0964  0.9245  0.3687
              Bcc     0.0022     1.199     0.428     0.400  0.9783  0.0198  0.2062
 
              Baa    -0.0013    -0.696    -0.248    -0.232  0.6010  0.6504 -0.4646
    25 H(1)   Bbb    -0.0009    -0.503    -0.179    -0.168 -0.2798  0.7157  0.6400
              Bcc     0.0022     1.199     0.428     0.400  0.7487 -0.2546  0.6121
 
              Baa    -0.0012    -0.658    -0.235    -0.219  0.2365  0.7266  0.6450
    26 H(1)   Bbb    -0.0011    -0.580    -0.207    -0.193 -0.4198 -0.5223  0.7423
              Bcc     0.0023     1.238     0.442     0.413  0.8763 -0.4463  0.1815
 
              Baa    -0.1013     7.332     2.616     2.446 -0.2476  0.8600  0.4462
    27 O(17)  Bbb    -0.0950     6.876     2.454     2.294  0.6914  0.4795 -0.5404
              Bcc     0.1964   -14.208    -5.070    -4.739  0.6787 -0.1747  0.7134
 
              Baa    -0.0029    -0.392    -0.140    -0.131  0.6904 -0.1851  0.6993
    28 C(13)  Bbb    -0.0009    -0.126    -0.045    -0.042 -0.3248  0.7844  0.5283
              Bcc     0.0039     0.518     0.185     0.173  0.6464  0.5919 -0.4815
 
              Baa    -0.0014    -0.722    -0.258    -0.241  0.4207 -0.1979  0.8853
    29 H(1)   Bbb    -0.0009    -0.459    -0.164    -0.153 -0.4085  0.8301  0.3796
              Bcc     0.0022     1.180     0.421     0.394  0.8100  0.5214 -0.2684
 
              Baa    -0.0013    -0.684    -0.244    -0.228  0.8862 -0.1980  0.4188
    30 H(1)   Bbb    -0.0009    -0.494    -0.176    -0.165 -0.1261  0.7667  0.6295
              Bcc     0.0022     1.178     0.420     0.393 -0.4457 -0.6107  0.6545
 
              Baa    -0.0012    -0.644    -0.230    -0.215 -0.5558  0.4953  0.6676
    31 H(1)   Bbb    -0.0011    -0.568    -0.203    -0.190  0.6830 -0.1858  0.7064
              Bcc     0.0023     1.212     0.433     0.404  0.4739  0.8486 -0.2351
 
              Baa    -0.0388    -5.211    -1.859    -1.738 -0.2507  0.7527  0.6087
    32 C(13)  Bbb     0.0148     1.981     0.707     0.661 -0.0460 -0.6373  0.7692
              Bcc     0.0241     3.230     1.153     1.077  0.9670  0.1648  0.1944
 
              Baa    -0.0740    -9.925    -3.541    -3.311  0.6468  0.6477 -0.4027
    33 C(13)  Bbb    -0.0666    -8.935    -3.188    -2.980  0.7032 -0.3020  0.6436
              Bcc     0.1405    18.859     6.729     6.291 -0.2953  0.6995  0.6508
 
              Baa    -0.0586    -7.859    -2.804    -2.621  0.9200 -0.1623  0.3568
    34 C(13)  Bbb    -0.0508    -6.815    -2.432    -2.273 -0.3768 -0.6171  0.6909
              Bcc     0.1093    14.674     5.236     4.895 -0.1081  0.7700  0.6288
 
              Baa    -0.0580    -7.783    -2.777    -2.596 -0.0825  0.5758  0.8134
    35 C(13)  Bbb     0.0263     3.526     1.258     1.176 -0.3277  0.7552 -0.5677
              Bcc     0.0317     4.257     1.519     1.420  0.9412  0.3134 -0.1264
 
              Baa    -0.0619    -8.305    -2.963    -2.770 -0.2143  0.5422  0.8125
    36 C(13)  Bbb     0.0287     3.846     1.372     1.283 -0.1990  0.7901 -0.5798
              Bcc     0.0332     4.459     1.591     1.487  0.9563  0.2859  0.0615
 
              Baa    -0.0757   -10.152    -3.623    -3.386 -0.2903  0.7784 -0.5567
    37 C(13)  Bbb    -0.0691    -9.271    -3.308    -3.092  0.9454  0.3233 -0.0409
              Bcc     0.1447    19.423     6.931     6.479 -0.1482  0.5381  0.8297
 
              Baa    -0.0054    -2.904    -1.036    -0.969  0.7747  0.3640  0.5171
    38 H(1)   Bbb    -0.0036    -1.941    -0.693    -0.647  0.6323 -0.4620 -0.6220
              Bcc     0.0091     4.845     1.729     1.616  0.0125  0.8087 -0.5880
 
              Baa    -0.0044    -2.346    -0.837    -0.782 -0.6294  0.2539  0.7344
    39 H(1)   Bbb    -0.0031    -1.630    -0.581    -0.544  0.6715  0.6533  0.3496
              Bcc     0.0075     3.975     1.418     1.326 -0.3911  0.7132 -0.5817
 
              Baa    -0.0028    -1.484    -0.530    -0.495 -0.2192  0.6791  0.7005
    40 H(1)   Bbb    -0.0006    -0.317    -0.113    -0.106  0.6491 -0.4346  0.6244
              Bcc     0.0034     1.801     0.643     0.601  0.7285  0.5916 -0.3455
 
              Baa    -0.0027    -1.440    -0.514    -0.480 -0.1287  0.7155  0.6866
    41 H(1)   Bbb    -0.0009    -0.498    -0.178    -0.166  0.4072  0.6694 -0.6213
              Bcc     0.0036     1.938     0.691     0.646  0.9042 -0.1996  0.3775
 
              Baa    -0.1085     7.848     2.800     2.618  0.6128  0.6962 -0.3739
    42 O(17)  Bbb    -0.1018     7.364     2.628     2.456  0.7732 -0.4306  0.4656
              Bcc     0.2102   -15.213    -5.428    -5.074 -0.1631  0.5744  0.8022
 
              Baa    -0.0031    -0.413    -0.147    -0.138 -0.1595  0.5931  0.7891
    43 C(13)  Bbb    -0.0010    -0.135    -0.048    -0.045  0.5107  0.7337 -0.4482
              Bcc     0.0041     0.549     0.196     0.183  0.8449 -0.3315  0.4199
 
              Baa    -0.0014    -0.755    -0.269    -0.252 -0.0040  0.3490  0.9371
    44 H(1)   Bbb    -0.0009    -0.485    -0.173    -0.162  0.5168  0.8030 -0.2968
              Bcc     0.0023     1.240     0.443     0.414  0.8561 -0.4831  0.1836
 
              Baa    -0.0013    -0.719    -0.257    -0.240 -0.2541  0.8050  0.5361
    45 H(1)   Bbb    -0.0010    -0.518    -0.185    -0.173  0.5926  0.5677 -0.5715
              Bcc     0.0023     1.237     0.441     0.413  0.7644 -0.1725  0.6213
 
              Baa    -0.0013    -0.678    -0.242    -0.226  0.1354  0.8192 -0.5573
    46 H(1)   Bbb    -0.0011    -0.598    -0.213    -0.199 -0.1582  0.5731  0.8041
              Bcc     0.0024     1.276     0.455     0.426  0.9781 -0.0207  0.2072
 

 ---------------------------------------------------------------------------------

 No NMR shielding tensors so no spin-rotation constants.
 Leave Link  601 at Sun Jan 17 00:22:20 2021, MaxMem=  4026531840 cpu:               9.5 elap:               1.4
 (Enter /opt/ohpc/pub/libs/gaussian/g16-A.03/sandybridge/g16/l9999.exe)

 Test job not archived.
 1\1\GINC-CASCADEB034\SP\ULC-wHPBE\TZVP\C21H21N1O3(1+,2)\RDU230\17-Jan-
 2021\0\\#P LC-wHPBE/TZVP iop(3/107=0328100000, 3/108=0328100000) scf=(
 conver=6,fermi,ndamp=35,noincfock,novaracc,vshift=500,xqc)\\H21 C21 N1
  O3\\1,2\N,0,0.054086,0.063852,0.077784\C,0,-0.275154,-1.311734,0.1035
 06\C,0,-1.260864,-1.827996,-0.72375\C,0,0.386135,-2.184815,0.970218\C,
 0,-1.598384,-3.175646,-0.688444\C,0,0.074577,-3.526309,0.994438\C,0,-0
 .9252,-4.03443,0.167909\H,0,-1.784639,-1.164375,-1.405148\H,0,1.158634
 ,-1.797039,1.627427\H,0,-2.379444,-3.537517,-1.347421\H,0,0.588853,-4.
 20682,1.665799\C,0,-0.970368,1.03417,-0.019727\C,0,-2.134785,0.917606,
 0.724871\C,0,-0.835797,2.133662,-0.869883\C,0,-3.151989,1.858174,0.623
 575\C,0,-1.829782,3.083912,-0.958163\C,0,-3.000537,2.952781,-0.215611\
 H,0,-2.255494,0.070396,1.39325\H,0,0.067507,2.240735,-1.462783\H,0,-4.
 048238,1.726664,1.219136\H,0,-1.725247,3.941045,-1.615932\O,0,-3.92845
 1,3.936733,-0.380204\C,0,-5.121818,3.840279,0.365278\H,0,-5.681122,2.9
 30406,0.115451\H,0,-4.925953,3.859223,1.44425\H,0,-5.719912,4.710924,0
 .096466\O,0,-1.16822,-5.370782,0.273837\C,0,-2.170458,-5.919715,-0.552
 884\H,0,-3.15107,-5.47272,-0.348812\H,0,-1.930216,-5.79407,-1.615623\H
 ,0,-2.208576,-6.98373,-0.319613\C,0,1.409258,0.466483,0.091838\C,0,2.3
 72325,-0.232608,-0.620224\C,0,1.812213,1.581496,0.83064\C,0,3.707828,0
 .150754,-0.59385\C,0,3.129962,1.982235,0.842322\C,0,4.092694,1.267169,
 0.133583\H,0,2.078678,-1.100647,-1.202616\H,0,1.073246,2.139336,1.3978
 22\H,0,4.429565,-0.427688,-1.159301\H,0,3.443945,2.849999,1.413878\O,0
 ,5.369584,1.734982,0.218075\C,0,6.368506,1.037347,-0.492266\H,0,6.4607
 13,0.000867,-0.145468\H,0,6.173119,1.041208,-1.571513\H,0,7.303574,1.5
 62498,-0.297656\\Version=EM64L-G16RevA.03\State=2-A\HF=-1092.5443788\S
 2=0.79445\S2-1=0.\S2A=0.751856\RMSD=8.377e-07\Dipole=-0.4513181,-0.515
 7666,-0.317156\Quadrupole=24.4012922,1.952475,-26.3537672,-0.2843009,-
 5.1776683,5.6841857\PG=C01 [X(C21H21N1O3)]\\@


 IF GOD HAD MEANT MAN TO SEE THE SUN RISE, HE
 WOULD HAVE SCHEDULED IT FOR A LATER HOUR.
 Job cpu time:       0 days  2 hours 25 minutes 53.1 seconds.
 Elapsed time:       0 days  0 hours 18 minutes 20.3 seconds.
 File lengths (MBytes):  RWF=    228 Int=      0 D2E=      0 Chk=     32 Scr=      8
 Normal termination of Gaussian 16 at Sun Jan 17 00:22:20 2021.
