 Entering Gaussian System, Link 0=g16
 Input=mol_NN_ma_frag_tune_c4.gjf
 Output=mol_NN_ma_frag_tune_c4.log
 Initial command:
 /opt/ohpc/pub/libs/gaussian/g16-A.03/sandybridge/g16/l1.exe "/mnt/gpfs2_4m/scratch/rdu230/ondemand/projects/init_structures/wtuning/mol_NN_ma_frag/tuning_mol_NN_ma_frag_ocycle0/Gau-224995.inp" -scrdir="/mnt/gpfs2_4m/scratch/rdu230/ondemand/projects/init_structures/wtuning/mol_NN_ma_frag/tuning_mol_NN_ma_frag_ocycle0/"
 Entering Link 1 = /opt/ohpc/pub/libs/gaussian/g16-A.03/sandybridge/g16/l1.exe PID=    224996.
  
 Copyright (c) 1988,1990,1992,1993,1995,1998,2003,2009,2016,
            Gaussian, Inc.  All Rights Reserved.
  
 This is part of the Gaussian(R) 16 program.  It is based on
 the Gaussian(R) 09 system (copyright 2009, Gaussian, Inc.),
 the Gaussian(R) 03 system (copyright 2003, Gaussian, Inc.),
 the Gaussian(R) 98 system (copyright 1998, Gaussian, Inc.),
 the Gaussian(R) 94 system (copyright 1995, Gaussian, Inc.),
 the Gaussian 92(TM) system (copyright 1992, Gaussian, Inc.),
 the Gaussian 90(TM) system (copyright 1990, Gaussian, Inc.),
 the Gaussian 88(TM) system (copyright 1988, Gaussian, Inc.),
 the Gaussian 86(TM) system (copyright 1986, Carnegie Mellon
 University), and the Gaussian 82(TM) system (copyright 1983,
 Carnegie Mellon University). Gaussian is a federally registered
 trademark of Gaussian, Inc.
  
 This software contains proprietary and confidential information,
 including trade secrets, belonging to Gaussian, Inc.
  
 This software is provided under written license and may be
 used, copied, transmitted, or stored only in accord with that
 written license.
  
 The following legend is applicable only to US Government
 contracts under FAR:
  
                    RESTRICTED RIGHTS LEGEND
  
 Use, reproduction and disclosure by the US Government is
 subject to restrictions as set forth in subparagraphs (a)
 and (c) of the Commercial Computer Software - Restricted
 Rights clause in FAR 52.227-19.
  
 Gaussian, Inc.
 340 Quinnipiac St., Bldg. 40, Wallingford CT 06492
  
  
 ---------------------------------------------------------------
 Warning -- This program may not be used in any manner that
 competes with the business of Gaussian, Inc. or will provide
 assistance to any competitor of Gaussian, Inc.  The licensee
 of this program is prohibited from giving any competitor of
 Gaussian, Inc. access to this program.  By using this program,
 the user acknowledges that Gaussian, Inc. is engaged in the
 business of creating and licensing software in the field of
 computational chemistry and represents and warrants to the
 licensee that it is not a competitor of Gaussian, Inc. and that
 it will not use this program in any manner prohibited above.
 ---------------------------------------------------------------
  

 Cite this work as:
 Gaussian 16, Revision A.03,
 M. J. Frisch, G. W. Trucks, H. B. Schlegel, G. E. Scuseria, 
 M. A. Robb, J. R. Cheeseman, G. Scalmani, V. Barone, 
 G. A. Petersson, H. Nakatsuji, X. Li, M. Caricato, A. V. Marenich, 
 J. Bloino, B. G. Janesko, R. Gomperts, B. Mennucci, H. P. Hratchian, 
 J. V. Ortiz, A. F. Izmaylov, J. L. Sonnenberg, D. Williams-Young, 
 F. Ding, F. Lipparini, F. Egidi, J. Goings, B. Peng, A. Petrone, 
 T. Henderson, D. Ranasinghe, V. G. Zakrzewski, J. Gao, N. Rega, 
 G. Zheng, W. Liang, M. Hada, M. Ehara, K. Toyota, R. Fukuda, 
 J. Hasegawa, M. Ishida, T. Nakajima, Y. Honda, O. Kitao, H. Nakai, 
 T. Vreven, K. Throssell, J. A. Montgomery, Jr., J. E. Peralta, 
 F. Ogliaro, M. J. Bearpark, J. J. Heyd, E. N. Brothers, K. N. Kudin, 
 V. N. Staroverov, T. A. Keith, R. Kobayashi, J. Normand, 
 K. Raghavachari, A. P. Rendell, J. C. Burant, S. S. Iyengar, 
 J. Tomasi, M. Cossi, J. M. Millam, M. Klene, C. Adamo, R. Cammi, 
 J. W. Ochterski, R. L. Martin, K. Morokuma, O. Farkas, 
 J. B. Foresman, and D. J. Fox, Gaussian, Inc., Wallingford CT, 2016.
 
 ******************************************
 Gaussian 16:  EM64L-G16RevA.03 25-Dec-2016
                17-Jan-2021 
 ******************************************
 %mem=30GB
 %nproc=8
 Will use up to    8 processors via shared memory.
 ----------------------------------------------------------------------
 #P LC-wHPBE/TZVP iop(3/107=0191100000, 3/108=0191100000) scf=(conver=6
 ,fermi,ndamp=35,noincfock,novaracc,vshift=500,xqc)
 ----------------------------------------------------------------------
 1/38=1,172=1/1;
 2/12=2,17=6,18=5,40=1/2;
 3/5=19,7=101,11=2,25=1,30=1,74=-71,107=191100000,108=191100000/1,2,3;
 4//1;
 5/5=100002,6=6,8=3,10=500,13=1,18=-1,22=13,38=1,93=35/2,8;
 6/7=2,8=2,9=2,10=2,28=1/1;
 99/5=1,9=1/99;
 Leave Link    1 at Sun Jan 17 01:27:50 2021, MaxMem=  4026531840 cpu:               1.1 elap:               0.2
 (Enter /opt/ohpc/pub/libs/gaussian/g16-A.03/sandybridge/g16/l101.exe)
 -------------
 H21 C21 N1 O3
 -------------
 Symbolic Z-matrix:
 Charge =  1 Multiplicity = 2
 N                     0.05409   0.06385   0.07778 
 C                    -0.27515  -1.31173   0.10351 
 C                    -1.26086  -1.828    -0.72375 
 C                     0.38614  -2.18481   0.97022 
 C                    -1.59838  -3.17565  -0.68844 
 C                     0.07458  -3.52631   0.99444 
 C                    -0.9252   -4.03443   0.16791 
 H                    -1.78464  -1.16438  -1.40515 
 H                     1.15863  -1.79704   1.62743 
 H                    -2.37944  -3.53752  -1.34742 
 H                     0.58885  -4.20682   1.6658 
 C                    -0.97037   1.03417  -0.01973 
 C                    -2.13478   0.91761   0.72487 
 C                    -0.8358    2.13366  -0.86988 
 C                    -3.15199   1.85817   0.62358 
 C                    -1.82978   3.08391  -0.95816 
 C                    -3.00054   2.95278  -0.21561 
 H                    -2.25549   0.0704    1.39325 
 H                     0.06751   2.24073  -1.46278 
 H                    -4.04824   1.72666   1.21914 
 H                    -1.72525   3.94105  -1.61593 
 O                    -3.92845   3.93673  -0.3802 
 C                    -5.12182   3.84028   0.36528 
 H                    -5.68112   2.93041   0.11545 
 H                    -4.92595   3.85922   1.44425 
 H                    -5.71991   4.71092   0.09647 
 O                    -1.16822  -5.37078   0.27384 
 C                    -2.17046  -5.91972  -0.55288 
 H                    -3.15107  -5.47272  -0.34881 
 H                    -1.93022  -5.79407  -1.61562 
 H                    -2.20858  -6.98373  -0.31961 
 C                     1.40926   0.46648   0.09184 
 C                     2.37233  -0.23261  -0.62022 
 C                     1.81221   1.5815    0.83064 
 C                     3.70783   0.15075  -0.59385 
 C                     3.12996   1.98224   0.84232 
 C                     4.09269   1.26717   0.13358 
 H                     2.07868  -1.10065  -1.20262 
 H                     1.07325   2.13934   1.39782 
 H                     4.42957  -0.42769  -1.1593 
 H                     3.44395   2.85      1.41388 
 O                     5.36958   1.73498   0.21808 
 C                     6.36851   1.03735  -0.49227 
 H                     6.46071   0.00087  -0.14547 
 H                     6.17312   1.04121  -1.57151 
 H                     7.30357   1.5625   -0.29766 
 
 ITRead=  0  0  0  0  0  0  0  0  0  0  0  0  0  0  0  0  0  0  0  0
 ITRead=  0  0  0  0  0  0  0  0  0  0  0  0  0  0  0  0  0  0  0  0
 ITRead=  0  0  0  0  0  0
 MicOpt= -1 -1 -1 -1 -1 -1 -1 -1 -1 -1 -1 -1 -1 -1 -1 -1 -1 -1 -1 -1
 MicOpt= -1 -1 -1 -1 -1 -1 -1 -1 -1 -1 -1 -1 -1 -1 -1 -1 -1 -1 -1 -1
 MicOpt= -1 -1 -1 -1 -1 -1
 NAtoms=     46 NQM=       46 NQMF=       0 NMMI=      0 NMMIF=      0
                NMic=       0 NMicF=      0.
                    Isotopes and Nuclear Properties:
 (Nuclear quadrupole moments (NQMom) in fm**2, nuclear magnetic moments (NMagM)
  in nuclear magnetons)

  Atom         1           2           3           4           5           6           7           8           9          10
 IAtWgt=          14          12          12          12          12          12          12           1           1           1
 AtmWgt=  14.0030740  12.0000000  12.0000000  12.0000000  12.0000000  12.0000000  12.0000000   1.0078250   1.0078250   1.0078250
 NucSpn=           2           0           0           0           0           0           0           1           1           1
 AtZEff=  -0.0000000  -0.0000000  -0.0000000  -0.0000000  -0.0000000  -0.0000000  -0.0000000  -0.0000000  -0.0000000  -0.0000000
 NQMom=    2.0440000   0.0000000   0.0000000   0.0000000   0.0000000   0.0000000   0.0000000   0.0000000   0.0000000   0.0000000
 NMagM=    0.4037610   0.0000000   0.0000000   0.0000000   0.0000000   0.0000000   0.0000000   2.7928460   2.7928460   2.7928460
 AtZNuc=   7.0000000   6.0000000   6.0000000   6.0000000   6.0000000   6.0000000   6.0000000   1.0000000   1.0000000   1.0000000

  Atom        11          12          13          14          15          16          17          18          19          20
 IAtWgt=           1          12          12          12          12          12          12           1           1           1
 AtmWgt=   1.0078250  12.0000000  12.0000000  12.0000000  12.0000000  12.0000000  12.0000000   1.0078250   1.0078250   1.0078250
 NucSpn=           1           0           0           0           0           0           0           1           1           1
 AtZEff=  -0.0000000  -0.0000000  -0.0000000  -0.0000000  -0.0000000  -0.0000000  -0.0000000  -0.0000000  -0.0000000  -0.0000000
 NQMom=    0.0000000   0.0000000   0.0000000   0.0000000   0.0000000   0.0000000   0.0000000   0.0000000   0.0000000   0.0000000
 NMagM=    2.7928460   0.0000000   0.0000000   0.0000000   0.0000000   0.0000000   0.0000000   2.7928460   2.7928460   2.7928460
 AtZNuc=   1.0000000   6.0000000   6.0000000   6.0000000   6.0000000   6.0000000   6.0000000   1.0000000   1.0000000   1.0000000

  Atom        21          22          23          24          25          26          27          28          29          30
 IAtWgt=           1          16          12           1           1           1          16          12           1           1
 AtmWgt=   1.0078250  15.9949146  12.0000000   1.0078250   1.0078250   1.0078250  15.9949146  12.0000000   1.0078250   1.0078250
 NucSpn=           1           0           0           1           1           1           0           0           1           1
 AtZEff=  -0.0000000  -0.0000000  -0.0000000  -0.0000000  -0.0000000  -0.0000000  -0.0000000  -0.0000000  -0.0000000  -0.0000000
 NQMom=    0.0000000   0.0000000   0.0000000   0.0000000   0.0000000   0.0000000   0.0000000   0.0000000   0.0000000   0.0000000
 NMagM=    2.7928460   0.0000000   0.0000000   2.7928460   2.7928460   2.7928460   0.0000000   0.0000000   2.7928460   2.7928460
 AtZNuc=   1.0000000   8.0000000   6.0000000   1.0000000   1.0000000   1.0000000   8.0000000   6.0000000   1.0000000   1.0000000

  Atom        31          32          33          34          35          36          37          38          39          40
 IAtWgt=           1          12          12          12          12          12          12           1           1           1
 AtmWgt=   1.0078250  12.0000000  12.0000000  12.0000000  12.0000000  12.0000000  12.0000000   1.0078250   1.0078250   1.0078250
 NucSpn=           1           0           0           0           0           0           0           1           1           1
 AtZEff=  -0.0000000  -0.0000000  -0.0000000  -0.0000000  -0.0000000  -0.0000000  -0.0000000  -0.0000000  -0.0000000  -0.0000000
 NQMom=    0.0000000   0.0000000   0.0000000   0.0000000   0.0000000   0.0000000   0.0000000   0.0000000   0.0000000   0.0000000
 NMagM=    2.7928460   0.0000000   0.0000000   0.0000000   0.0000000   0.0000000   0.0000000   2.7928460   2.7928460   2.7928460
 AtZNuc=   1.0000000   6.0000000   6.0000000   6.0000000   6.0000000   6.0000000   6.0000000   1.0000000   1.0000000   1.0000000

  Atom        41          42          43          44          45          46
 IAtWgt=           1          16          12           1           1           1
 AtmWgt=   1.0078250  15.9949146  12.0000000   1.0078250   1.0078250   1.0078250
 NucSpn=           1           0           0           1           1           1
 AtZEff=  -0.0000000  -0.0000000  -0.0000000  -0.0000000  -0.0000000  -0.0000000
 NQMom=    0.0000000   0.0000000   0.0000000   0.0000000   0.0000000   0.0000000
 NMagM=    2.7928460   0.0000000   0.0000000   2.7928460   2.7928460   2.7928460
 AtZNuc=   1.0000000   8.0000000   6.0000000   1.0000000   1.0000000   1.0000000
 Leave Link  101 at Sun Jan 17 01:27:50 2021, MaxMem=  4026531840 cpu:               0.8 elap:               0.1
 (Enter /opt/ohpc/pub/libs/gaussian/g16-A.03/sandybridge/g16/l202.exe)
                          Input orientation:                          
 ---------------------------------------------------------------------
 Center     Atomic      Atomic             Coordinates (Angstroms)
 Number     Number       Type             X           Y           Z
 ---------------------------------------------------------------------
      1          7           0        0.054086    0.063852    0.077784
      2          6           0       -0.275154   -1.311734    0.103506
      3          6           0       -1.260864   -1.827996   -0.723750
      4          6           0        0.386135   -2.184815    0.970218
      5          6           0       -1.598384   -3.175646   -0.688444
      6          6           0        0.074577   -3.526309    0.994438
      7          6           0       -0.925200   -4.034430    0.167909
      8          1           0       -1.784639   -1.164375   -1.405148
      9          1           0        1.158634   -1.797039    1.627427
     10          1           0       -2.379444   -3.537517   -1.347421
     11          1           0        0.588853   -4.206820    1.665799
     12          6           0       -0.970368    1.034170   -0.019727
     13          6           0       -2.134785    0.917606    0.724871
     14          6           0       -0.835797    2.133662   -0.869883
     15          6           0       -3.151989    1.858174    0.623575
     16          6           0       -1.829782    3.083912   -0.958163
     17          6           0       -3.000537    2.952781   -0.215611
     18          1           0       -2.255494    0.070396    1.393250
     19          1           0        0.067507    2.240735   -1.462783
     20          1           0       -4.048238    1.726664    1.219136
     21          1           0       -1.725247    3.941045   -1.615932
     22          8           0       -3.928451    3.936733   -0.380204
     23          6           0       -5.121818    3.840279    0.365278
     24          1           0       -5.681122    2.930406    0.115451
     25          1           0       -4.925953    3.859223    1.444250
     26          1           0       -5.719912    4.710924    0.096466
     27          8           0       -1.168220   -5.370782    0.273837
     28          6           0       -2.170458   -5.919715   -0.552884
     29          1           0       -3.151070   -5.472720   -0.348812
     30          1           0       -1.930216   -5.794070   -1.615623
     31          1           0       -2.208576   -6.983730   -0.319613
     32          6           0        1.409258    0.466483    0.091838
     33          6           0        2.372325   -0.232608   -0.620224
     34          6           0        1.812213    1.581496    0.830640
     35          6           0        3.707828    0.150754   -0.593850
     36          6           0        3.129962    1.982235    0.842322
     37          6           0        4.092694    1.267169    0.133583
     38          1           0        2.078678   -1.100647   -1.202616
     39          1           0        1.073246    2.139336    1.397822
     40          1           0        4.429565   -0.427688   -1.159301
     41          1           0        3.443945    2.849999    1.413878
     42          8           0        5.369584    1.734982    0.218075
     43          6           0        6.368506    1.037347   -0.492266
     44          1           0        6.460713    0.000867   -0.145468
     45          1           0        6.173119    1.041208   -1.571513
     46          1           0        7.303574    1.562498   -0.297656
 ---------------------------------------------------------------------
                    Distance matrix (angstroms):
                    1          2          3          4          5
     1  N    0.000000
     2  C    1.414672   0.000000
     3  C    2.439393   1.386544   0.000000
     4  C    2.441966   1.396697   2.389446   0.000000
     5  C    3.716465   2.419151   1.389722   2.769697   0.000000
     6  C    3.705392   2.412553   2.760406   1.377411   2.398719
     7  C    4.214622   2.799961   2.403347   2.405073   1.387093
     8  H    2.662431   2.139228   1.085834   3.375785   2.143261
     9  H    2.661641   2.147930   3.373865   1.085840   3.855511
    10  H    4.574181   3.389297   2.136036   3.853528   1.084092
    11  H    4.587636   3.401292   3.845803   2.147890   3.374876
    12  C    1.414401   2.449852   2.961761   3.630696   4.308612
    13  C    2.436960   2.968885   3.224992   4.005028   4.363473
    14  C    2.444193   3.623887   3.987075   4.850601   5.366862
    15  C    3.714350   4.312188   4.356545   5.383702   5.429035
    16  C    3.707143   4.781811   4.950299   6.032282   6.269638
    17  C    4.214583   5.071059   5.112778   6.266628   6.304540
    18  H    2.657942   2.737785   3.012452   3.499019   3.911781
    19  H    2.666898   3.897527   4.343422   5.060288   5.719439
    20  H    4.571290   4.971183   4.917303   5.918217   5.802869
    21  H    4.589916   5.714099   5.856063   6.976551   7.177995
    22  O    5.574008   6.413030   6.361301   7.610036   7.490671
    23  C    6.413582   7.078271   6.944227   8.185674   7.921371
    24  H    6.411799   6.871709   6.548689   7.981712   7.389105
    25  H    6.408811   7.082819   7.104756   8.060607   8.069107
    26  H    7.411793   8.118981   7.956968   9.251944   8.933144
    27  O    5.573842   4.159621   3.681725   3.612665   2.435087
    28  C    6.414781   5.025586   4.195083   4.775509   2.806343
    29  H    6.411602   5.078316   4.122799   5.006194   2.793337
    30  H    6.412514   5.077989   4.119856   5.007872   2.797484
    31  H    7.412555   6.007386   5.257668   5.605870   3.874258
    32  C    1.413789   2.449375   3.613775   2.974511   4.787468
    33  C    2.439126   2.949143   3.969388   3.207112   4.942940
    34  C    2.441525   3.640962   4.846088   4.029675   6.047329
    35  C    3.715976   4.299921   5.349787   4.351418   6.263367
    36  C    3.704825   4.794882   6.020780   4.990917   7.162698
    37  C    4.214432   5.072449   6.243048   5.133686   7.266547
    38  H    2.663542   2.700192   3.451216   2.959954   4.253326
    39  H    2.662484   3.924706   5.068418   4.399233   6.303899
    40  H    4.573490   4.950818   5.876355   4.896087   6.641472
    41  H    4.586819   5.733131   6.970532   5.907316   8.133464
    42  O    5.573767   6.415502   7.585821   6.384770   8.572551
    43  C    6.414402   7.071870   8.152979   6.950536   9.014385
    44  H    6.410825   6.867082   7.956249   6.551523   8.679522
    45  H    6.412330   7.065568   8.013435   7.096253   8.885827
    46  H    7.412285   8.115372   9.220987   7.968740  10.091956
                    6          7          8          9         10
     6  C    0.000000
     7  C    1.393159   0.000000
     8  H    3.846223   3.383838   0.000000
     9  H    2.136874   3.387990   4.273129   0.000000
    10  H    3.392145   2.158234   2.447229   4.939330   0.000000
    11  H    1.085496   2.136761   4.931597   2.476523   4.282318
    12  C    4.787318   5.072273   2.723239   3.906598   4.964734
    13  C    4.970144   5.127959   2.999038   4.362398   4.919591
    14  C    6.028246   6.255427   3.473306   5.066036   5.896877
    15  C    6.288157   6.315774   3.888594   5.740189   5.796131
    16  C    7.150822   7.263408   4.271976   6.280095   6.655597
    17  C    7.273180   7.298988   4.454703   6.576951   6.617456
    18  H    4.304018   4.485615   3.094737   3.898515   4.532513
    19  H    6.268715   6.559140   3.876666   5.200344   6.276072
    20  H    6.681453   6.636916   4.513187   6.300373   6.089638
    21  H    8.112631   8.211599   5.110115   7.194564   7.511921
    22  O    8.579678   8.535771   5.627410   7.923709   7.694111
    23  C    9.036868   8.925335   6.270385   8.533256   8.055174
    24  H    8.694243   8.433889   5.853378   8.450862   7.407773
    25  H    8.930493   8.941187   6.574455   8.309576   8.306016
    26  H   10.111106   9.973745   7.229132   9.592279   9.015560
    27  O    2.337924   1.362394   4.570867   4.474159   2.730641
    28  C    3.628055   2.371605   4.846490   5.730015   2.519887
    29  H    3.999704   2.700033   4.641639   5.999142   2.310333
    30  H    3.996793   2.699514   4.636763   6.002885   2.316413
    31  H    4.346640   3.253168   5.934897   6.483119   3.600273
    32  C    4.305630   5.070868   3.886083   2.746703   5.697170
    33  C    4.328423   5.093984   4.331818   2.995401   5.833571
    34  C    5.397766   6.282616   5.047366   3.532214   6.965503
    35  C    5.407769   6.289753   5.705696   3.902097   7.157241
    36  C    6.300998   7.286936   6.253445   4.334217   8.100382
    37  C    6.313776   7.299821   6.543939   4.497738   8.195545
    38  H    3.837617   4.416866   3.869147   3.056237   5.082731
    39  H    5.767113   6.604685   5.190246   3.943990   7.189165
    40  H    5.762462   6.591175   6.262546   4.509985   7.487926
    41  H    7.223979   8.248468   7.169393   5.182973   9.073973
    42  O    7.504733   8.538907   7.888221   5.673936   9.502497
    43  C    7.915225   8.908249   8.494393   6.298381   9.908950
    44  H    7.383975   8.422205   8.422019   5.872620   9.597564
    45  H    8.039809   8.897967   8.259430   6.590442   9.703673
    46  H    8.934420   9.962684   9.552905   7.263107  10.994226
                   11         12         13         14         15
    11  H    0.000000
    12  C    5.721900   0.000000
    13  C    5.879055   1.387040   0.000000
    14  C    6.975745   1.396337   2.389436   0.000000
    15  C    7.201686   2.419151   1.389112   2.769667   0.000000
    16  C    8.117250   2.412612   2.760165   1.377960   2.398450
    17  C    8.226987   2.800183   2.403325   2.405229   1.387565
    18  H    5.143848   2.139372   1.085848   3.375556   2.142954
    19  H    7.185457   2.148347   3.374402   1.085796   3.855437
    20  H    7.543763   3.389338   2.135457   3.853495   1.084090
    21  H    9.083640   3.401123   3.845551   2.148102   3.374809
    22  O    9.534654   4.159936   3.681515   3.613220   2.435338
    23  C    9.952835   5.025636   4.194483   4.775787   2.806365
    24  H    9.625807   5.079881   4.123016   5.008279   2.793633
    25  H    9.773598   5.076495   4.118402   5.006211   2.797258
    26  H   11.035827   6.007511   5.257118   5.606308   3.874307
    27  O    2.525801   6.414728   6.378205   7.598374   7.504363
    28  C    3.933238   7.076792   6.955781   8.169375   7.927359
    29  H    4.432627   6.870471   6.559108   7.968002   7.395103
    30  H    4.430892   7.077645   7.111002   8.037588   8.066200
    31  H    4.413468   8.118486   7.970414   9.236566   8.941974
    32  C    4.999018   2.448946   3.628289   2.957138   4.798387
    33  C    4.919455   3.624765   4.842139   3.994197   6.036261
    34  C    5.974839   2.960650   4.003839   3.195094   4.976216
    35  C    5.815709   4.795368   6.038478   4.965143   7.173179
    36  C    6.740901   4.295889   5.372596   4.322247   6.286983
    37  C    6.677510   5.070739   6.265246   5.103702   7.285246
    38  H    4.482822   3.905554   5.053892   4.366421   6.280882
    39  H    6.370255   2.721616   3.498135   2.964281   4.304779
    40  H    6.083921   5.709197   6.960647   5.862449   8.116882
    41  H    7.616673   4.983836   5.943997   4.903559   6.716743
    42  O    7.762493   6.382999   7.565745   6.312634   8.532105
    43  C    8.097093   7.354072   8.590793   7.297019   9.620742
    44  H    7.447420   7.503632   8.687951   7.636272   9.820644
    45  H    8.319015   7.310095   8.620321   7.128159   9.614753
    46  H    9.067947   8.295450   9.515465   8.179427  10.500233
                   16         17         18         19         20
    16  C    0.000000
    17  C    1.392568   0.000000
    18  H    3.845992   3.384031   0.000000
    19  H    2.136655   3.387527   4.273597   0.000000
    20  H    3.391799   2.158597   2.446931   4.939263   0.000000
    21  H    1.085479   2.136335   4.931355   2.475576   4.282217
    22  O    2.337895   1.362452   4.570830   4.473932   2.730685
    23  C    3.627821   2.371691   4.846087   5.729698   2.519725
    24  H    4.001129   2.701044   4.641913   6.001100   2.309421
    25  H    3.994868   2.698889   4.635640   6.000416   2.317082
    26  H    4.346553   3.253223   5.934504   6.482847   3.600096
    27  O    8.569559   8.536899   5.660536   7.904307   7.717631
    28  C    9.019180   8.917621   6.298897   8.510543   8.070516
    29  H    8.679462   8.427898   5.879028   8.431937   7.422567
    30  H    8.902859   8.922613   6.599325   8.280842   8.311637
    31  H   10.094981   9.968564   7.259256   9.569647   9.034549
    32  C    4.294743   5.071735   3.909088   2.713874   5.713416
    33  C    5.363880   6.259238   5.055947   3.484181   6.960289
    34  C    4.326800   5.112497   4.375636   2.956076   5.875108
    35  C    6.277043   7.279875   6.286194   4.286607   8.119542
    36  C    5.390223   6.296364   5.741236   3.841739   7.192625
    37  C    6.290325   7.299120   6.581680   4.438282   8.225833
    38  H    5.731174   6.572890   5.186030   3.908622   7.169217
    39  H    3.856224   4.456520   3.919317   3.033950   5.141189
    40  H    7.179918   8.217332   7.173118   5.122512   9.064841
    41  H    5.787356   6.648093   6.341153   4.477356   7.578431
    42  O    7.418492   8.469359   7.892636   5.585077   9.470880
    43  C    8.462707   9.566838   8.880515   6.487884  10.578876
    44  H    8.882452   9.911305   8.851257   6.901117  10.736786
    45  H    8.282226   9.468292   8.987425   6.223278  10.617613
    46  H    9.282735  10.397804   9.821472   7.360584  11.453875
                   21         22         23         24         25
    21  H    0.000000
    22  O    2.526094   0.000000
    23  C    3.933452   1.410380   0.000000
    24  H    4.434865   2.080919   1.096861   0.000000
    25  H    4.428987   2.080781   1.096769   1.788488   0.000000
    26  H    4.413884   2.008960   1.089954   1.781042   1.781092
    27  O    9.517963   9.730184  10.024118   9.449926  10.034113
    28  C    9.927884  10.013487  10.237726   9.544426  10.354174
    29  H    9.605079   9.441563   9.545979   8.788016   9.666977
    30  H    9.737273  10.010381  10.340743   9.653103  10.560461
    31  H   11.012028  11.055232  11.230104  10.513703  11.316580
    32  C    4.981383   6.384089   7.356101   7.506328   7.312633
    33  C    5.933035   7.559153   8.586140   8.683541   8.618004
    34  C    4.905793   6.322065   7.307493   7.647295   7.139148
    35  C    6.702929   8.525963   9.617441   9.817431   9.615028
    36  C    5.783857   7.425350   8.471822   8.891714   8.293562
    37  C    6.637684   8.469316   9.569839   9.914341   9.474840
    38  H    6.329244   7.882713   8.872327   8.843143   8.981707
    39  H    4.490037   5.604372   6.506779   6.920387   6.241038
    40  H    7.561485   9.461057  10.572076  10.729761  10.615168
    41  H    6.090211   7.664982   8.686341   9.217333   8.430578
    42  O    7.652903   9.573876  10.701563  11.115650  10.583666
    43  C    8.671962  10.697959  11.858303  12.212556  11.801605
    44  H    9.203109  11.112195  12.212984  12.492975  12.127253
    45  H    8.413989  10.575680  11.796676  12.121796  11.841682
    46  H    9.429472  11.480514  12.649827  13.063084  12.564653
                   26         27         28         29         30
    26  H    0.000000
    27  O   11.063008   0.000000
    28  C   11.226342   1.410417   0.000000
    29  H   10.512080   2.080812   1.096836   0.000000
    30  H   11.298139   2.080834   1.096776   1.788452   0.000000
    31  H   12.217509   2.009011   1.089952   1.781095   1.781128
    32  C    8.297009   6.383587   7.349392   7.500993   7.298084
    33  C    9.509808   6.303621   7.279052   7.618420   7.101587
    34  C    8.189337   7.584667   8.604881   8.705587   8.624903
    35  C   10.495426   7.417283   8.450238   8.872879   8.256664
    36  C    9.290980   8.536065   9.616749   9.820719   9.597803
    37  C   10.399426   8.471085   9.557699   9.906105   9.444377
    38  H    9.812236   5.563840   6.457610   6.869808   6.186277
    39  H    7.379267   7.917663   8.903661   8.879131   9.002253
    40  H   11.445268   7.604161   8.607578   9.141951   8.333853
    41  H    9.443246   9.494893  10.597054  10.764244  10.619765
    42  O   11.482506   9.655976  10.772233  11.174698  10.645945
    43  C   12.647989   9.922362  11.014458  11.533598  10.807357
    44  H   13.061807   9.339756  10.474559  11.062905  10.302929
    45  H   12.557594   9.920393  10.913631  11.439701  10.601274
    46  H   13.404444  10.962129  12.075013  12.601448  11.879352
                   31         32         33         34         35
    31  H    0.000000
    32  C    8.292387   0.000000
    33  C    8.164109   1.386816   0.000000
    34  C    9.531680   1.396945   2.389499   0.000000
    35  C    9.272535   2.419355   1.389687   2.769395   0.000000
    36  C   10.499458   2.412789   2.760178   1.377385   2.398091
    37  C   10.391762   2.800655   2.403586   2.405262   1.386962
    38  H    7.332865   2.140007   1.085772   3.376244   2.142599
    39  H    9.846333   2.148706   3.374349   1.085796   3.855157
    40  H    9.367587   3.389269   2.135626   3.853209   1.084082
    41  H   11.474241   3.401307   3.845570   2.147514   3.374393
    42  O   11.564323   4.160434   3.682081   3.612988   2.435248
    43  C   11.744523   5.026053   4.195071   4.775561   2.806345
    44  H   11.134249   5.078416   4.122477   5.005969   2.793186
    45  H   11.671319   5.078525   4.119902   5.007969   2.797569
    46  H   12.787474   6.007988   5.257725   5.606109   3.874292
                   36         37         38         39         40
    36  C    0.000000
    37  C    1.393012   0.000000
    38  H    3.845924   3.383525   0.000000
    39  H    2.136198   3.387631   4.274419   0.000000
    40  H    3.391636   2.158141   2.445694   4.938964   0.000000
    41  H    1.085484   2.136675   4.931288   2.474977   4.282047
    42  O    2.338103   1.362511   4.570472   4.473681   2.730923
    43  C    3.627962   2.371461   4.845435   5.729449   2.520071
    44  H    3.999431   2.699797   4.640380   5.998299   2.310212
    45  H    3.996616   2.699366   4.635523   6.002628   2.316798
    46  H    4.346811   3.253143   5.933872   6.482621   3.600444
                   41         42         43         44         45
    41  H    0.000000
    42  O    2.526122   0.000000
    43  C    3.933465   1.410363   0.000000
    44  H    4.432832   2.080837   1.096842   0.000000
    45  H    4.430877   2.080773   1.096798   1.788470   0.000000
    46  H    4.414039   2.008991   1.089958   1.781086   1.781119
                   46
    46  H    0.000000
 Stoichiometry    C21H21NO3(1+,2)
 Framework group  C1[X(C21H21NO3)]
 Deg. of freedom   132
 Full point group                 C1      NOp   1
 Largest Abelian subgroup         C1      NOp   1
 Largest concise Abelian subgroup C1      NOp   1
                         Standard orientation:                         
 ---------------------------------------------------------------------
 Center     Atomic      Atomic             Coordinates (Angstroms)
 Number     Number       Type             X           Y           Z
 ---------------------------------------------------------------------
      1          7           0       -0.054086   -0.063852    0.077784
      2          6           0        0.275154    1.311734    0.103506
      3          6           0        1.260864    1.827996   -0.723750
      4          6           0       -0.386136    2.184815    0.970218
      5          6           0        1.598383    3.175646   -0.688444
      6          6           0       -0.074578    3.526309    0.994438
      7          6           0        0.925199    4.034430    0.167909
      8          1           0        1.784639    1.164376   -1.405148
      9          1           0       -1.158634    1.797039    1.627427
     10          1           0        2.379443    3.537518   -1.347421
     11          1           0       -0.588854    4.206820    1.665799
     12          6           0        0.970368   -1.034170   -0.019727
     13          6           0        2.134785   -0.917605    0.724871
     14          6           0        0.835798   -2.133662   -0.869883
     15          6           0        3.151989   -1.858173    0.623575
     16          6           0        1.829783   -3.083911   -0.958163
     17          6           0        3.000538   -2.952780   -0.215611
     18          1           0        2.255494   -0.070395    1.393250
     19          1           0       -0.067506   -2.240735   -1.462783
     20          1           0        4.048238   -1.726663    1.219136
     21          1           0        1.725248   -3.941045   -1.615932
     22          8           0        3.928452   -3.936732   -0.380204
     23          6           0        5.121819   -3.840278    0.365278
     24          1           0        5.681123   -2.930405    0.115451
     25          1           0        4.925954   -3.859222    1.444250
     26          1           0        5.719913   -4.710923    0.096466
     27          8           0        1.168219    5.370782    0.273837
     28          6           0        2.170457    5.919716   -0.552884
     29          1           0        3.151069    5.472721   -0.348812
     30          1           0        1.930215    5.794071   -1.615623
     31          1           0        2.208574    6.983731   -0.319613
     32          6           0       -1.409258   -0.466483    0.091838
     33          6           0       -2.372325    0.232607   -0.620224
     34          6           0       -1.812213   -1.581496    0.830640
     35          6           0       -3.707828   -0.150755   -0.593850
     36          6           0       -3.129962   -1.982236    0.842322
     37          6           0       -4.092694   -1.267170    0.133583
     38          1           0       -2.078678    1.100647   -1.202616
     39          1           0       -1.073245   -2.139336    1.397822
     40          1           0       -4.429565    0.427687   -1.159301
     41          1           0       -3.443944   -2.850000    1.413878
     42          8           0       -5.369584   -1.734983    0.218075
     43          6           0       -6.368506   -1.037348   -0.492266
     44          1           0       -6.460713   -0.000869   -0.145468
     45          1           0       -6.173119   -1.041209   -1.571513
     46          1           0       -7.303574   -1.562500   -0.297656
 ---------------------------------------------------------------------
 Rotational constants (GHZ):           0.1829468           0.1651743           0.0911050
 Leave Link  202 at Sun Jan 17 01:27:50 2021, MaxMem=  4026531840 cpu:               0.2 elap:               0.0
 (Enter /opt/ohpc/pub/libs/gaussian/g16-A.03/sandybridge/g16/l301.exe)
 Standard basis: TZVP (5D, 7F)
 Ernie: Thresh=  0.10000D-02 Tol=  0.10000D-05 Strict=F.
 There are   626 symmetry adapted cartesian basis functions of A   symmetry.
 There are   601 symmetry adapted basis functions of A   symmetry.
   601 basis functions,  1043 primitive gaussians,   626 cartesian basis functions
    89 alpha electrons       88 beta electrons
       nuclear repulsion energy      2056.6778086010 Hartrees.
 IExCor=33909 DFT=T Ex+Corr=LC-wHPBE ExCW=0 ScaHFX=  1.000000
 ScaDFX=  1.000000  1.000000  1.000000  1.000000 ScalE2=  1.000000  1.000000
 IRadAn=      5 IRanWt=     -1 IRanGd=            0 ICorTp=0 IEmpDi=  4
 HFx  wShort=  0.000000 wLong=  0.191100 cFull=  0.000000 cShort=  0.000000 cLong=  1.000000
 DFx  wShort=  0.000000 wLong=  0.191100 cFull=  0.000000 cShort=  1.000000 cLong=  0.000000
 NAtoms=   46 NActive=   46 NUniq=   46 SFac= 1.00D+00 NAtFMM=   60 NAOKFM=F Big=F
 Integral buffers will be    131072 words long.
 Raffenetti 2 integral format.
 Two-electron integral symmetry is turned on.
 Leave Link  301 at Sun Jan 17 01:27:50 2021, MaxMem=  4026531840 cpu:               0.4 elap:               0.1
 (Enter /opt/ohpc/pub/libs/gaussian/g16-A.03/sandybridge/g16/l302.exe)
 NPDir=0 NMtPBC=     1 NCelOv=     1 NCel=       1 NClECP=     1 NCelD=      1
         NCelK=      1 NCelE2=     1 NClLst=     1 CellRange=     0.0.
 One-electron integrals computed using PRISM.
 One-electron integral symmetry used in STVInt
 NBasis=   601 RedAO= T EigKep=  7.47D-06  NBF=   601
 NBsUse=   601 1.00D-06 EigRej= -1.00D+00 NBFU=   601
 Precomputing XC quadrature grid using
 IXCGrd= 4 IRadAn=           5 IRanWt=          -1 IRanGd=           0 AccXCQ= 0.00D+00.
 Generated NRdTot=       0 NPtTot=           0 NUsed=           0 NTot=          32
 NSgBfM=   597   597   597   597   597 MxSgAt=    46 MxSgA2=    46.
 Leave Link  302 at Sun Jan 17 01:27:55 2021, MaxMem=  4026531840 cpu:              30.2 elap:               4.3
 (Enter /opt/ohpc/pub/libs/gaussian/g16-A.03/sandybridge/g16/l303.exe)
 DipDrv:  MaxL=1.
 Leave Link  303 at Sun Jan 17 01:27:55 2021, MaxMem=  4026531840 cpu:               0.9 elap:               0.2
 (Enter /opt/ohpc/pub/libs/gaussian/g16-A.03/sandybridge/g16/l401.exe)
 ExpMin= 9.52D-02 ExpMax= 2.70D+04 ExpMxC= 9.22D+02 IAcc=3 IRadAn=         5 AccDes= 0.00D+00
 Harris functional with IExCor=33909 and IRadAn=       5 diagonalized for initial guess.
 HarFok:  IExCor=33909 AccDes= 0.00D+00 IRadAn=         5 IDoV= 1 UseB2=F ITyADJ=14
 ICtDFT=  3500011 ScaDFX=  1.000000  1.000000  1.000000  1.000000
 FoFCou: FMM=F IPFlag=           0 FMFlag=      100000 FMFlg1=           0
         NFxFlg=           0 DoJE=T BraDBF=F KetDBF=T FulRan=T
         wScrn=  0.000000 ICntrl=       500 IOpCl=  0 I1Cent=   200000004 NGrid=           0
         NMat0=    1 NMatS0=      1 NMatT0=    0 NMatD0=    1 NMtDS0=    0 NMtDT0=    0
 Petite list used in FoFCou.
 Harris En= -1074.30188495559    
 JPrj=0 DoOrth=F DoCkMO=F.
 Initial guess <Sx>= 0.0000 <Sy>= 0.0000 <Sz>= 0.5000 <S**2>= 0.7500 S= 0.5000
 Leave Link  401 at Sun Jan 17 01:28:02 2021, MaxMem=  4026531840 cpu:              54.3 elap:               6.8
 (Enter /opt/ohpc/pub/libs/gaussian/g16-A.03/sandybridge/g16/l502.exe)
 Integral symmetry usage will be decided dynamically.
 UHF open shell SCF:
 Using DIIS extrapolation, IDIIS=    10.
 NGot=  4026531840 LenX=  4025736816 LenY=  4025344314
 Requested convergence on RMS density matrix=1.00D-06 within  32 cycles.
 Requested convergence on MAX density matrix=1.00D-04.
 Requested convergence on             energy=1.00D-04.
 Virtual orbitals will be shifted by   0.500 hartree.
 No special actions if energy rises.
 Dynamic level shift is on during FON iterations.

 Cycle   1  Pass 1  IDiag  1:
 FoFJK:  IHMeth= 1 ICntrl=       0 DoSepK=T KAlg= 0 I1Cent=           0 FoldK=F
 IRaf=         1 NMat=       1 IRICut=       1 DoRegI=T DoRafI=F ISym2E= 0 IDoP0=0 IntGTp=1.
 FoFCou: FMM=F IPFlag=           0 FMFlag=      100000 FMFlg1=           0
         NFxFlg=           0 DoJE=T BraDBF=F KetDBF=F FulRan=T
         wScrn=  0.000000 ICntrl=       500 IOpCl=  0 I1Cent=           0 NGrid=           0
         NMat0=    1 NMatS0=      1 NMatT0=    0 NMatD0=    1 NMtDS0=    0 NMtDT0=    0
 Symmetry not used in FoFCou.
 E= -1092.02611299417    
 DIIS: error= 2.69D-02 at cycle   1 NSaved=   1.
 NSaved= 1 IEnMin= 1 EnMin= -1092.02611299417     IErMin= 1 ErrMin= 2.69D-02
 ErrMax= 2.69D-02  0.00D+00 EMaxC= 1.00D+00 BMatC= 1.51D+00 BMatP= 1.51D+00
 IDIUse=1 WtCom= 1.00D+00 WtEn= 0.00D+00
 Coeff-Com:  0.100D+01
 Coeff:      0.100D+01
 Gap=     0.343 Goal=   None    Shift=    0.500
 T= 1431. Gap= 0.773 NK=0 IS=   90 IE=  601 IFin=   89
          NO(<0.9)=   0  NV(>0.1)=   0     89.00e < EF      0.00e >EF  Err=0.0D+00
 Gap=     0.130 Goal=   None    Shift=    0.500
 T= 1431. Gap= 0.616 NK=0 IS=   89 IE=  601 IFin=   88
          NO(<0.9)=   0  NV(>0.1)=   0     88.00e < EF      0.00e >EF  Err=0.0D+00
 GapD=    0.130 DampG=1.000 DampE=0.500 DampFc=0.5000 IDamp=-1.
 Damping current iteration by 5.00D-01
 RMSDP=2.01D-03 MaxDP=6.53D-02              OVMax= 6.91D-02

 Cycle   2  Pass 1  IDiag  1:
 E= -1092.24398211387     Delta-E=       -0.217869119693 Rises=F Damp=T
 DIIS: error= 1.19D-02 at cycle   2 NSaved=   2.
 NSaved= 2 IEnMin= 2 EnMin= -1092.24398211387     IErMin= 2 ErrMin= 1.19D-02
 ErrMax= 1.19D-02  0.00D+00 EMaxC= 1.00D+00 BMatC= 2.38D-01 BMatP= 1.51D+00
 IDIUse=1 WtCom= 1.00D+00 WtEn= 0.00D+00
 Coeff-Com: -0.494D+00 0.149D+01
 Coeff:     -0.494D+00 0.149D+01
 Gap=     0.295 Goal=   None    Shift=    0.500
 T= 1308. Gap= 0.762 NK=0 IS=   90 IE=  601 IFin=   89
          NO(<0.9)=   0  NV(>0.1)=   0     89.00e < EF      0.00e >EF  Err=0.0D+00
 Gap=     0.198 Goal=   None    Shift=    0.500
 T= 1308. Gap= 0.678 NK=0 IS=   89 IE=  601 IFin=   88
          NO(<0.9)=   0  NV(>0.1)=   0     88.00e < EF      0.00e >EF  Err=0.0D+00
 GapD=    0.198 DampG=1.000 DampE=0.500 DampFc=0.5000 IDamp=-1.
 Damping current iteration by 5.00D-01
 RMSDP=1.10D-03 MaxDP=4.20D-02 DE=-2.18D-01 OVMax= 2.45D-02

 Cycle   3  Pass 1  IDiag  1:
 E= -1092.31639880781     Delta-E=       -0.072416693943 Rises=F Damp=T
 DIIS: error= 5.21D-03 at cycle   3 NSaved=   3.
 NSaved= 3 IEnMin= 3 EnMin= -1092.31639880781     IErMin= 3 ErrMin= 5.21D-03
 ErrMax= 5.21D-03  0.00D+00 EMaxC= 1.00D+00 BMatC= 4.42D-02 BMatP= 2.38D-01
 IDIUse=1 WtCom= 1.00D+00 WtEn= 0.00D+00
 Coeff-Com:  0.507D-01-0.847D+00 0.180D+01
 Coeff:      0.507D-01-0.847D+00 0.180D+01
 Gap=     0.276 Goal=   None    Shift=    0.500
 T= 1067. Gap= 0.773 NK=4 IS=   90 IE=  100 IFin=   89
          NO(<0.9)=   0  NV(>0.1)=   0     89.00e < EF      0.00e >EF  Err=0.0D+00
 Gap=     0.169 Goal=   None    Shift=    0.500
 T= 1067. Gap= 0.668 NK=4 IS=   89 IE=  100 IFin=   88
          NO(<0.9)=   0  NV(>0.1)=   0     88.00e < EF      0.00e >EF  Err=0.0D+00
 GapD=    0.169 DampG=1.000 DampE=1.000 DampFc=1.0000 IDamp=-1.
 RMSDP=6.68D-04 MaxDP=3.20D-02 DE=-7.24D-02 OVMax= 9.69D-03

 Cycle   4  Pass 1  IDiag  1:
 E= -1092.37790216509     Delta-E=       -0.061503357284 Rises=F Damp=F
 DIIS: error= 1.70D-03 at cycle   4 NSaved=   4.
 NSaved= 4 IEnMin= 4 EnMin= -1092.37790216509     IErMin= 4 ErrMin= 1.70D-03
 ErrMax= 1.70D-03  0.00D+00 EMaxC= 1.00D+00 BMatC= 2.13D-03 BMatP= 4.42D-02
 IDIUse=1 WtCom= 1.00D+00 WtEn= 0.00D+00
 Coeff-Com:  0.665D-01-0.176D+00 0.153D+00 0.956D+00
 Coeff:      0.665D-01-0.176D+00 0.153D+00 0.956D+00
 Gap=     0.273 Goal=   None    Shift=    0.500
 T=  556. Gap= 0.773 NK=4 IS=   90 IE=  100 IFin=   89
          NO(<0.9)=   0  NV(>0.1)=   0     89.00e < EF      0.00e >EF  Err=0.0D+00
 Gap=     0.173 Goal=   None    Shift=    0.500
 T=  556. Gap= 0.673 NK=4 IS=   89 IE=  100 IFin=   88
          NO(<0.9)=   0  NV(>0.1)=   0     88.00e < EF      0.00e >EF  Err=0.0D+00
 GapD=    0.173 DampG=1.000 DampE=1.000 DampFc=1.0000 IDamp=-1.
 RMSDP=1.11D-04 MaxDP=3.22D-03 DE=-6.15D-02 OVMax= 7.66D-03

 Cycle   5  Pass 1  IDiag  1:
 E= -1092.37859722777     Delta-E=       -0.000695062674 Rises=F Damp=F
 DIIS: error= 1.17D-03 at cycle   5 NSaved=   5.
 NSaved= 5 IEnMin= 5 EnMin= -1092.37859722777     IErMin= 5 ErrMin= 1.17D-03
 ErrMax= 1.17D-03  0.00D+00 EMaxC= 1.00D+00 BMatC= 3.96D-04 BMatP= 2.13D-03
 IDIUse=1 WtCom= 1.00D+00 WtEn= 0.00D+00
 Coeff-Com:  0.127D-01 0.341D-01-0.128D+00-0.886D-01 0.117D+01
 Coeff:      0.127D-01 0.341D-01-0.128D+00-0.886D-01 0.117D+01
 Gap=     0.273 Goal=   None    Shift=    0.500
 T=   49. Gap= 0.773 NK=4 IS=   90 IE=  100 IFin=   89
          NO(<0.9)=   0  NV(>0.1)=   0     89.00e < EF      0.00e >EF  Err=0.0D+00
 Gap=     0.173 Goal=   None    Shift=    0.500
 T=   49. Gap= 0.673 NK=4 IS=   89 IE=  100 IFin=   88
          NO(<0.9)=   0  NV(>0.1)=   0     88.00e < EF      0.00e >EF  Err=0.0D+00
 GapD=    0.173 DampG=1.000 DampE=1.000 DampFc=1.0000 IDamp=-1.
 RMSDP=7.39D-05 MaxDP=1.98D-03 DE=-6.95D-04 OVMax= 6.61D-03

 Cycle   6  Pass 1  IDiag  1:
 E= -1092.37886406733     Delta-E=       -0.000266839562 Rises=F Damp=F
 DIIS: error= 9.75D-04 at cycle   6 NSaved=   6.
 NSaved= 6 IEnMin= 6 EnMin= -1092.37886406733     IErMin= 6 ErrMin= 9.75D-04
 ErrMax= 9.75D-04  0.00D+00 EMaxC= 1.00D+00 BMatC= 1.37D-04 BMatP= 3.96D-04
 IDIUse=1 WtCom= 1.00D+00 WtEn= 0.00D+00
 Coeff-Com: -0.170D-01 0.663D-01-0.879D-01-0.271D+00-0.451D-01 0.135D+01
 Coeff:     -0.170D-01 0.663D-01-0.879D-01-0.271D+00-0.451D-01 0.135D+01
 Gap=     0.274 Goal=   None    Shift=    0.500
 Gap=     0.175 Goal=   None    Shift=    0.500
 RMSDP=4.66D-05 MaxDP=1.24D-03 DE=-2.67D-04 OVMax= 6.05D-03

 Cycle   7  Pass 1  IDiag  1:
 E= -1092.37901787934     Delta-E=       -0.000153812006 Rises=F Damp=F
 DIIS: error= 8.16D-04 at cycle   7 NSaved=   7.
 NSaved= 7 IEnMin= 7 EnMin= -1092.37901787934     IErMin= 7 ErrMin= 8.16D-04
 ErrMax= 8.16D-04  0.00D+00 EMaxC= 1.00D+00 BMatC= 7.25D-05 BMatP= 1.37D-04
 IDIUse=1 WtCom= 1.00D+00 WtEn= 0.00D+00
 Coeff-Com: -0.107D-01 0.997D-02 0.144D-01-0.435D-01-0.448D+00-0.154D+00
 Coeff-Com:  0.163D+01
 Coeff:     -0.107D-01 0.997D-02 0.144D-01-0.435D-01-0.448D+00-0.154D+00
 Coeff:      0.163D+01
 Gap=     0.274 Goal=   None    Shift=    0.500
 Gap=     0.175 Goal=   None    Shift=    0.500
 RMSDP=3.03D-05 MaxDP=9.45D-04 DE=-1.54D-04 OVMax= 5.61D-03

 Cycle   8  Pass 1  IDiag  1:
 E= -1092.37911789087     Delta-E=       -0.000100011532 Rises=F Damp=F
 DIIS: error= 7.09D-04 at cycle   8 NSaved=   8.
 NSaved= 8 IEnMin= 8 EnMin= -1092.37911789087     IErMin= 8 ErrMin= 7.09D-04
 ErrMax= 7.09D-04  0.00D+00 EMaxC= 1.00D+00 BMatC= 4.28D-05 BMatP= 7.25D-05
 IDIUse=1 WtCom= 1.00D+00 WtEn= 0.00D+00
 Coeff-Com:  0.330D-02-0.327D-01 0.579D-01 0.128D+00-0.246D+00-0.102D+01
 Coeff-Com:  0.616D+00 0.149D+01
 Coeff:      0.330D-02-0.327D-01 0.579D-01 0.128D+00-0.246D+00-0.102D+01
 Coeff:      0.616D+00 0.149D+01
 Gap=     0.275 Goal=   None    Shift=    0.500
 Gap=     0.176 Goal=   None    Shift=    0.500
 RMSDP=2.14D-05 MaxDP=8.15D-04 DE=-1.00D-04 OVMax= 5.24D-03

 Cycle   9  Pass 1  IDiag  1:
 E= -1092.37918513542     Delta-E=       -0.000067244550 Rises=F Damp=F
 DIIS: error= 5.76D-04 at cycle   9 NSaved=   9.
 NSaved= 9 IEnMin= 9 EnMin= -1092.37918513542     IErMin= 9 ErrMin= 5.76D-04
 ErrMax= 5.76D-04  0.00D+00 EMaxC= 1.00D+00 BMatC= 2.22D-05 BMatP= 4.28D-05
 IDIUse=1 WtCom= 1.00D+00 WtEn= 0.00D+00
 Coeff-Com:  0.571D-02-0.156D-01 0.130D-01 0.296D-01 0.198D+00-0.289D+00
 Coeff-Com: -0.704D+00-0.454D+00 0.222D+01
 Coeff:      0.571D-02-0.156D-01 0.130D-01 0.296D-01 0.198D+00-0.289D+00
 Coeff:     -0.704D+00-0.454D+00 0.222D+01
 Gap=     0.275 Goal=   None    Shift=    0.500
 Gap=     0.177 Goal=   None    Shift=    0.500
 RMSDP=1.50D-05 MaxDP=7.26D-04 DE=-6.72D-05 OVMax= 4.58D-03

 Cycle  10  Pass 1  IDiag  1:
 E= -1092.37922719995     Delta-E=       -0.000042064527 Rises=F Damp=F
 DIIS: error= 4.67D-04 at cycle  10 NSaved=  10.
 NSaved=10 IEnMin=10 EnMin= -1092.37922719995     IErMin=10 ErrMin= 4.67D-04
 ErrMax= 4.67D-04  0.00D+00 EMaxC= 1.00D+00 BMatC= 1.25D-05 BMatP= 2.22D-05
 IDIUse=1 WtCom= 1.00D+00 WtEn= 0.00D+00
 Coeff-Com:  0.120D-02-0.242D-02 0.778D-03-0.445D-01 0.148D+00 0.162D+00
 Coeff-Com: -0.462D+00-0.507D+00-0.248D+00 0.195D+01
 Coeff:      0.120D-02-0.242D-02 0.778D-03-0.445D-01 0.148D+00 0.162D+00
 Coeff:     -0.462D+00-0.507D+00-0.248D+00 0.195D+01
 Gap=     0.275 Goal=   None    Shift=    0.500
 Gap=     0.177 Goal=   None    Shift=    0.500
 RMSDP=1.05D-05 MaxDP=5.17D-04 DE=-4.21D-05 OVMax= 3.58D-03

 Cycle  11  Pass 1  IDiag  1:
 E= -1092.37925004818     Delta-E=       -0.000022848235 Rises=F Damp=F
 DIIS: error= 3.63D-04 at cycle  11 NSaved=  11.
 NSaved=11 IEnMin=11 EnMin= -1092.37925004818     IErMin=11 ErrMin= 3.63D-04
 ErrMax= 3.63D-04  0.00D+00 EMaxC= 1.00D+00 BMatC= 7.40D-06 BMatP= 1.25D-05
 IDIUse=1 WtCom= 1.00D+00 WtEn= 0.00D+00
 Coeff-Com: -0.202D-02 0.796D-04 0.666D-02-0.470D-01-0.549D-01 0.225D+00
 Coeff-Com:  0.225D+00 0.756D-01-0.176D+01 0.929D-01 0.223D+01
 Coeff:     -0.202D-02 0.796D-04 0.666D-02-0.470D-01-0.549D-01 0.225D+00
 Coeff:      0.225D+00 0.756D-01-0.176D+01 0.929D-01 0.223D+01
 Gap=     0.275 Goal=   None    Shift=    0.500
 Gap=     0.177 Goal=   None    Shift=    0.500
 RMSDP=8.76D-06 MaxDP=4.22D-04 DE=-2.28D-05 OVMax= 2.82D-03

 Cycle  12  Pass 1  IDiag  1:
 E= -1092.37926287328     Delta-E=       -0.000012825096 Rises=F Damp=F
 DIIS: error= 2.93D-04 at cycle  12 NSaved=  12.
 NSaved=12 IEnMin=12 EnMin= -1092.37926287328     IErMin=12 ErrMin= 2.93D-04
 ErrMax= 2.93D-04  0.00D+00 EMaxC= 1.00D+00 BMatC= 4.81D-06 BMatP= 7.40D-06
 IDIUse=1 WtCom= 1.00D+00 WtEn= 0.00D+00
 Coeff-Com:  0.392D-03-0.109D-01 0.203D-01-0.306D-02-0.101D+00-0.920D-01
 Coeff-Com:  0.418D+00 0.342D+00-0.417D+00-0.169D+01 0.497D+00 0.203D+01
 Coeff:      0.392D-03-0.109D-01 0.203D-01-0.306D-02-0.101D+00-0.920D-01
 Coeff:      0.418D+00 0.342D+00-0.417D+00-0.169D+01 0.497D+00 0.203D+01
 Gap=     0.275 Goal=   None    Shift=    0.500
 Gap=     0.178 Goal=   None    Shift=    0.500
 RMSDP=6.13D-06 MaxDP=3.15D-04 DE=-1.28D-05 OVMax= 2.19D-03

 Cycle  13  Pass 1  IDiag  1:
 E= -1092.37926962095     Delta-E=       -0.000006747675 Rises=F Damp=F
 DIIS: error= 2.20D-04 at cycle  13 NSaved=  13.
 NSaved=13 IEnMin=13 EnMin= -1092.37926962095     IErMin=13 ErrMin= 2.20D-04
 ErrMax= 2.20D-04  0.00D+00 EMaxC= 1.00D+00 BMatC= 2.76D-06 BMatP= 4.81D-06
 IDIUse=1 WtCom= 1.00D+00 WtEn= 0.00D+00
 Coeff-Com:  0.171D-02-0.955D-02 0.133D-01 0.852D-02 0.168D-02-0.147D+00
 Coeff-Com:  0.471D-01 0.452D-01 0.737D+00-0.806D+00-0.585D+00-0.858D+00
 Coeff-Com:  0.255D+01
 Coeff:      0.171D-02-0.955D-02 0.133D-01 0.852D-02 0.168D-02-0.147D+00
 Coeff:      0.471D-01 0.452D-01 0.737D+00-0.806D+00-0.585D+00-0.858D+00
 Coeff:      0.255D+01
 Gap=     0.275 Goal=   None    Shift=    0.500
 Gap=     0.178 Goal=   None    Shift=    0.500
 RMSDP=4.38D-06 MaxDP=2.09D-04 DE=-6.75D-06 OVMax= 1.61D-03

 Cycle  14  Pass 1  IDiag  1:
 E= -1092.37927298181     Delta-E=       -0.000003360858 Rises=F Damp=F
 DIIS: error= 1.67D-04 at cycle  14 NSaved=  14.
 NSaved=14 IEnMin=14 EnMin= -1092.37927298181     IErMin=14 ErrMin= 1.67D-04
 ErrMax= 1.67D-04  0.00D+00 EMaxC= 1.00D+00 BMatC= 1.56D-06 BMatP= 2.76D-06
 IDIUse=1 WtCom= 1.00D+00 WtEn= 0.00D+00
 Coeff-Com:  0.865D-03-0.199D-02 0.919D-03-0.266D-02 0.566D-01-0.287D-01
 Coeff-Com: -0.182D+00-0.141D+00 0.547D+00 0.422D+00-0.413D+00-0.195D+01
 Coeff-Com:  0.842D+00 0.185D+01
 Coeff:      0.865D-03-0.199D-02 0.919D-03-0.266D-02 0.566D-01-0.287D-01
 Coeff:     -0.182D+00-0.141D+00 0.547D+00 0.422D+00-0.413D+00-0.195D+01
 Coeff:      0.842D+00 0.185D+01
 Gap=     0.275 Goal=   None    Shift=    0.500
 Gap=     0.178 Goal=   None    Shift=    0.500
 RMSDP=3.02D-06 MaxDP=1.31D-04 DE=-3.36D-06 OVMax= 1.19D-03

 Cycle  15  Pass 1  IDiag  1:
 E= -1092.37927468455     Delta-E=       -0.000001702746 Rises=F Damp=F
 DIIS: error= 1.24D-04 at cycle  15 NSaved=  15.
 NSaved=15 IEnMin=15 EnMin= -1092.37927468455     IErMin=15 ErrMin= 1.24D-04
 ErrMax= 1.24D-04  0.00D+00 EMaxC= 1.00D+00 BMatC= 7.99D-07 BMatP= 1.56D-06
 IDIUse=1 WtCom= 1.00D+00 WtEn= 0.00D+00
 Coeff-Com: -0.462D-03 0.107D-02-0.564D-03-0.994D-02 0.974D-04 0.609D-01
 Coeff-Com: -0.172D-01 0.174D-01-0.417D+00 0.365D+00 0.399D+00 0.848D-01
 Coeff-Com: -0.117D+01-0.117D+01 0.285D+01
 Coeff:     -0.462D-03 0.107D-02-0.564D-03-0.994D-02 0.974D-04 0.609D-01
 Coeff:     -0.172D-01 0.174D-01-0.417D+00 0.365D+00 0.399D+00 0.848D-01
 Coeff:     -0.117D+01-0.117D+01 0.285D+01
 Gap=     0.275 Goal=   None    Shift=    0.500
 Gap=     0.178 Goal=   None    Shift=    0.500
 RMSDP=2.17D-06 MaxDP=9.49D-05 DE=-1.70D-06 OVMax= 8.91D-04

 Cycle  16  Pass 1  IDiag  1:
 E= -1092.37927558090     Delta-E=       -0.000000896341 Rises=F Damp=F
 DIIS: error= 9.34D-05 at cycle  16 NSaved=  16.
 NSaved=16 IEnMin=16 EnMin= -1092.37927558090     IErMin=16 ErrMin= 9.34D-05
 ErrMax= 9.34D-05  0.00D+00 EMaxC= 1.00D+00 BMatC= 4.49D-07 BMatP= 7.99D-07
 IDIUse=1 WtCom= 1.00D+00 WtEn= 0.00D+00
 Coeff-Com: -0.286D-03-0.614D-03 0.224D-02-0.717D-02-0.152D-01 0.271D-01
 Coeff-Com:  0.673D-01 0.393D-01-0.346D+00 0.884D-02 0.342D+00 0.486D+00
 Coeff-Com: -0.681D+00-0.117D+01 0.583D+00 0.166D+01
 Coeff:     -0.286D-03-0.614D-03 0.224D-02-0.717D-02-0.152D-01 0.271D-01
 Coeff:      0.673D-01 0.393D-01-0.346D+00 0.884D-02 0.342D+00 0.486D+00
 Coeff:     -0.681D+00-0.117D+01 0.583D+00 0.166D+01
 Gap=     0.275 Goal=   None    Shift=    0.500
 Gap=     0.178 Goal=   None    Shift=    0.500
 RMSDP=1.46D-06 MaxDP=7.36D-05 DE=-8.96D-07 OVMax= 6.52D-04

 Cycle  17  Pass 1  IDiag  1:
 E= -1092.37927605709     Delta-E=       -0.000000476197 Rises=F Damp=F
 DIIS: error= 7.02D-05 at cycle  17 NSaved=  17.
 NSaved=17 IEnMin=17 EnMin= -1092.37927605709     IErMin=17 ErrMin= 7.02D-05
 ErrMax= 7.02D-05  0.00D+00 EMaxC= 1.00D+00 BMatC= 2.47D-07 BMatP= 4.49D-07
 IDIUse=1 WtCom= 1.00D+00 WtEn= 0.00D+00
 Coeff-Com:  0.175D-03-0.194D-02 0.331D-02-0.108D-02-0.924D-02-0.219D-01
 Coeff-Com:  0.689D-01 0.199D-02 0.281D-01-0.229D+00 0.179D-01 0.183D+00
 Coeff-Com:  0.336D+00-0.162D+00-0.154D+01 0.544D+00 0.178D+01
 Coeff:      0.175D-03-0.194D-02 0.331D-02-0.108D-02-0.924D-02-0.219D-01
 Coeff:      0.689D-01 0.199D-02 0.281D-01-0.229D+00 0.179D-01 0.183D+00
 Coeff:      0.336D+00-0.162D+00-0.154D+01 0.544D+00 0.178D+01
 Gap=     0.275 Goal=   None    Shift=    0.500
 Gap=     0.178 Goal=   None    Shift=    0.500
 RMSDP=1.04D-06 MaxDP=5.81D-05 DE=-4.76D-07 OVMax= 4.96D-04

 Cycle  18  Pass 1  IDiag  1:
 E= -1092.37927633526     Delta-E=       -0.000000278163 Rises=F Damp=F
 DIIS: error= 5.25D-05 at cycle  18 NSaved=  18.
 NSaved=18 IEnMin=18 EnMin= -1092.37927633526     IErMin=18 ErrMin= 5.25D-05
 ErrMax= 5.25D-05  0.00D+00 EMaxC= 1.00D+00 BMatC= 1.37D-07 BMatP= 2.47D-07
 IDIUse=1 WtCom= 1.00D+00 WtEn= 0.00D+00
 Coeff-Com:  0.255D-03-0.109D-02 0.130D-02 0.948D-03 0.490D-02-0.184D-01
 Coeff-Com: -0.610D-02-0.240D-01 0.176D+00-0.833D-01-0.129D+00-0.286D+00
 Coeff-Com:  0.569D+00 0.436D+00-0.861D+00-0.960D+00 0.129D+00 0.205D+01
 Coeff:      0.255D-03-0.109D-02 0.130D-02 0.948D-03 0.490D-02-0.184D-01
 Coeff:     -0.610D-02-0.240D-01 0.176D+00-0.833D-01-0.129D+00-0.286D+00
 Coeff:      0.569D+00 0.436D+00-0.861D+00-0.960D+00 0.129D+00 0.205D+01
 Gap=     0.275 Goal=   None    Shift=    0.500
 Gap=     0.178 Goal=   None    Shift=    0.500
 RMSDP=8.02D-07 MaxDP=4.41D-05 DE=-2.78D-07 OVMax= 3.80D-04

 SCF Done:  E(ULC-wHPBE) =  -1092.37927634     A.U. after   18 cycles
            NFock= 18  Conv=0.80D-06     -V/T= 2.0043
 <Sx>= 0.0000 <Sy>= 0.0000 <Sz>= 0.5000 <S**2>= 0.7652 S= 0.5076
 <L.S>= 0.000000000000E+00
 KE= 1.087676192986D+03 PE=-6.636556681676D+03 EE= 2.399823403754D+03
 Annihilation of the first spin contaminant:
 S**2 before annihilation     0.7652,   after     0.7502
 Leave Link  502 at Sun Jan 17 01:45:03 2021, MaxMem=  4026531840 cpu:            8148.1 elap:            1021.6
 (Enter /opt/ohpc/pub/libs/gaussian/g16-A.03/sandybridge/g16/l508.exe)
 QCSCF skips out because SCF is already converged.
 Leave Link  508 at Sun Jan 17 01:45:03 2021, MaxMem=  4026531840 cpu:               0.1 elap:               0.0
 (Enter /opt/ohpc/pub/libs/gaussian/g16-A.03/sandybridge/g16/l601.exe)
 Copying SCF densities to generalized density rwf, IOpCl= 1 IROHF=0.

 **********************************************************************

            Population analysis using the SCF density.

 **********************************************************************

 Orbital symmetries:
 Alpha Orbitals:
       Occupied  (A) (A) (A) (A) (A) (A) (A) (A) (A) (A) (A) (A)
                 (A) (A) (A) (A) (A) (A) (A) (A) (A) (A) (A) (A)
                 (A) (A) (A) (A) (A) (A) (A) (A) (A) (A) (A) (A)
                 (A) (A) (A) (A) (A) (A) (A) (A) (A) (A) (A) (A)
                 (A) (A) (A) (A) (A) (A) (A) (A) (A) (A) (A) (A)
                 (A) (A) (A) (A) (A) (A) (A) (A) (A) (A) (A) (A)
                 (A) (A) (A) (A) (A) (A) (A) (A) (A) (A) (A) (A)
                 (A) (A) (A) (A) (A)
       Virtual   (A) (A) (A) (A) (A) (A) (A) (A) (A) (A) (A) (A)
                 (A) (A) (A) (A) (A) (A) (A) (A) (A) (A) (A) (A)
                 (A) (A) (A) (A) (A) (A) (A) (A) (A) (A) (A) (A)
                 (A) (A) (A) (A) (A) (A) (A) (A) (A) (A) (A) (A)
                 (A) (A) (A) (A) (A) (A) (A) (A) (A) (A) (A) (A)
                 (A) (A) (A) (A) (A) (A) (A) (A) (A) (A) (A) (A)
                 (A) (A) (A) (A) (A) (A) (A) (A) (A) (A) (A) (A)
                 (A) (A) (A) (A) (A) (A) (A) (A) (A) (A) (A) (A)
                 (A) (A) (A) (A) (A) (A) (A) (A) (A) (A) (A) (A)
                 (A) (A) (A) (A) (A) (A) (A) (A) (A) (A) (A) (A)
                 (A) (A) (A) (A) (A) (A) (A) (A) (A) (A) (A) (A)
                 (A) (A) (A) (A) (A) (A) (A) (A) (A) (A) (A) (A)
                 (A) (A) (A) (A) (A) (A) (A) (A) (A) (A) (A) (A)
                 (A) (A) (A) (A) (A) (A) (A) (A) (A) (A) (A) (A)
                 (A) (A) (A) (A) (A) (A) (A) (A) (A) (A) (A) (A)
                 (A) (A) (A) (A) (A) (A) (A) (A) (A) (A) (A) (A)
                 (A) (A) (A) (A) (A) (A) (A) (A) (A) (A) (A) (A)
                 (A) (A) (A) (A) (A) (A) (A) (A) (A) (A) (A) (A)
                 (A) (A) (A) (A) (A) (A) (A) (A) (A) (A) (A) (A)
                 (A) (A) (A) (A) (A) (A) (A) (A) (A) (A) (A) (A)
                 (A) (A) (A) (A) (A) (A) (A) (A) (A) (A) (A) (A)
                 (A) (A) (A) (A) (A) (A) (A) (A) (A) (A) (A) (A)
                 (A) (A) (A) (A) (A) (A) (A) (A) (A) (A) (A) (A)
                 (A) (A) (A) (A) (A) (A) (A) (A) (A) (A) (A) (A)
                 (A) (A) (A) (A) (A) (A) (A) (A) (A) (A) (A) (A)
                 (A) (A) (A) (A) (A) (A) (A) (A) (A) (A) (A) (A)
                 (A) (A) (A) (A) (A) (A) (A) (A) (A) (A) (A) (A)
                 (A) (A) (A) (A) (A) (A) (A) (A) (A) (A) (A) (A)
                 (A) (A) (A) (A) (A) (A) (A) (A) (A) (A) (A) (A)
                 (A) (A) (A) (A) (A) (A) (A) (A) (A) (A) (A) (A)
                 (A) (A) (A) (A) (A) (A) (A) (A) (A) (A) (A) (A)
                 (A) (A) (A) (A) (A) (A) (A) (A) (A) (A) (A) (A)
                 (A) (A) (A) (A) (A) (A) (A) (A) (A) (A) (A) (A)
                 (A) (A) (A) (A) (A) (A) (A) (A) (A) (A) (A) (A)
                 (A) (A) (A) (A) (A) (A) (A) (A) (A) (A) (A) (A)
                 (A) (A) (A) (A) (A) (A) (A) (A) (A) (A) (A) (A)
                 (A) (A) (A) (A) (A) (A) (A) (A) (A) (A) (A) (A)
                 (A) (A) (A) (A) (A) (A) (A) (A) (A) (A) (A) (A)
                 (A) (A) (A) (A) (A) (A) (A) (A) (A) (A) (A) (A)
                 (A) (A) (A) (A) (A) (A) (A) (A) (A) (A) (A) (A)
                 (A) (A) (A) (A) (A) (A) (A) (A) (A) (A) (A) (A)
                 (A) (A) (A) (A) (A) (A) (A) (A) (A) (A) (A) (A)
                 (A) (A) (A) (A) (A) (A) (A) (A)
 Beta  Orbitals:
       Occupied  (A) (A) (A) (A) (A) (A) (A) (A) (A) (A) (A) (A)
                 (A) (A) (A) (A) (A) (A) (A) (A) (A) (A) (A) (A)
                 (A) (A) (A) (A) (A) (A) (A) (A) (A) (A) (A) (A)
                 (A) (A) (A) (A) (A) (A) (A) (A) (A) (A) (A) (A)
                 (A) (A) (A) (A) (A) (A) (A) (A) (A) (A) (A) (A)
                 (A) (A) (A) (A) (A) (A) (A) (A) (A) (A) (A) (A)
                 (A) (A) (A) (A) (A) (A) (A) (A) (A) (A) (A) (A)
                 (A) (A) (A) (A)
       Virtual   (A) (A) (A) (A) (A) (A) (A) (A) (A) (A) (A) (A)
                 (A) (A) (A) (A) (A) (A) (A) (A) (A) (A) (A) (A)
                 (A) (A) (A) (A) (A) (A) (A) (A) (A) (A) (A) (A)
                 (A) (A) (A) (A) (A) (A) (A) (A) (A) (A) (A) (A)
                 (A) (A) (A) (A) (A) (A) (A) (A) (A) (A) (A) (A)
                 (A) (A) (A) (A) (A) (A) (A) (A) (A) (A) (A) (A)
                 (A) (A) (A) (A) (A) (A) (A) (A) (A) (A) (A) (A)
                 (A) (A) (A) (A) (A) (A) (A) (A) (A) (A) (A) (A)
                 (A) (A) (A) (A) (A) (A) (A) (A) (A) (A) (A) (A)
                 (A) (A) (A) (A) (A) (A) (A) (A) (A) (A) (A) (A)
                 (A) (A) (A) (A) (A) (A) (A) (A) (A) (A) (A) (A)
                 (A) (A) (A) (A) (A) (A) (A) (A) (A) (A) (A) (A)
                 (A) (A) (A) (A) (A) (A) (A) (A) (A) (A) (A) (A)
                 (A) (A) (A) (A) (A) (A) (A) (A) (A) (A) (A) (A)
                 (A) (A) (A) (A) (A) (A) (A) (A) (A) (A) (A) (A)
                 (A) (A) (A) (A) (A) (A) (A) (A) (A) (A) (A) (A)
                 (A) (A) (A) (A) (A) (A) (A) (A) (A) (A) (A) (A)
                 (A) (A) (A) (A) (A) (A) (A) (A) (A) (A) (A) (A)
                 (A) (A) (A) (A) (A) (A) (A) (A) (A) (A) (A) (A)
                 (A) (A) (A) (A) (A) (A) (A) (A) (A) (A) (A) (A)
                 (A) (A) (A) (A) (A) (A) (A) (A) (A) (A) (A) (A)
                 (A) (A) (A) (A) (A) (A) (A) (A) (A) (A) (A) (A)
                 (A) (A) (A) (A) (A) (A) (A) (A) (A) (A) (A) (A)
                 (A) (A) (A) (A) (A) (A) (A) (A) (A) (A) (A) (A)
                 (A) (A) (A) (A) (A) (A) (A) (A) (A) (A) (A) (A)
                 (A) (A) (A) (A) (A) (A) (A) (A) (A) (A) (A) (A)
                 (A) (A) (A) (A) (A) (A) (A) (A) (A) (A) (A) (A)
                 (A) (A) (A) (A) (A) (A) (A) (A) (A) (A) (A) (A)
                 (A) (A) (A) (A) (A) (A) (A) (A) (A) (A) (A) (A)
                 (A) (A) (A) (A) (A) (A) (A) (A) (A) (A) (A) (A)
                 (A) (A) (A) (A) (A) (A) (A) (A) (A) (A) (A) (A)
                 (A) (A) (A) (A) (A) (A) (A) (A) (A) (A) (A) (A)
                 (A) (A) (A) (A) (A) (A) (A) (A) (A) (A) (A) (A)
                 (A) (A) (A) (A) (A) (A) (A) (A) (A) (A) (A) (A)
                 (A) (A) (A) (A) (A) (A) (A) (A) (A) (A) (A) (A)
                 (A) (A) (A) (A) (A) (A) (A) (A) (A) (A) (A) (A)
                 (A) (A) (A) (A) (A) (A) (A) (A) (A) (A) (A) (A)
                 (A) (A) (A) (A) (A) (A) (A) (A) (A) (A) (A) (A)
                 (A) (A) (A) (A) (A) (A) (A) (A) (A) (A) (A) (A)
                 (A) (A) (A) (A) (A) (A) (A) (A) (A) (A) (A) (A)
                 (A) (A) (A) (A) (A) (A) (A) (A) (A) (A) (A) (A)
                 (A) (A) (A) (A) (A) (A) (A) (A) (A) (A) (A) (A)
                 (A) (A) (A) (A) (A) (A) (A) (A) (A)
 The electronic state is 2-A.
 Alpha  occ. eigenvalues --  -19.01044 -19.01024 -19.01022 -14.31309 -10.18189
 Alpha  occ. eigenvalues --  -10.18165 -10.18153 -10.16844 -10.16842 -10.16832
 Alpha  occ. eigenvalues --  -10.14093 -10.14051 -10.14012 -10.13302 -10.13272
 Alpha  occ. eigenvalues --  -10.13261 -10.12942 -10.12918 -10.12891 -10.12068
 Alpha  occ. eigenvalues --  -10.12032 -10.12022 -10.11655 -10.11635 -10.11607
 Alpha  occ. eigenvalues --   -1.21064  -1.21037  -1.21024  -1.16178  -1.03254
 Alpha  occ. eigenvalues --   -1.03242  -1.01224  -0.94166  -0.94012  -0.92403
 Alpha  occ. eigenvalues --   -0.92249  -0.91961  -0.90146  -0.86656  -0.86174
 Alpha  occ. eigenvalues --   -0.84063  -0.80980  -0.79816  -0.79190  -0.77869
 Alpha  occ. eigenvalues --   -0.77092  -0.74844  -0.72940  -0.72909  -0.70512
 Alpha  occ. eigenvalues --   -0.69410  -0.69369  -0.68168  -0.66067  -0.65859
 Alpha  occ. eigenvalues --   -0.63474  -0.63451  -0.63402  -0.62755  -0.62706
 Alpha  occ. eigenvalues --   -0.62634  -0.60696  -0.60550  -0.60534  -0.60189
 Alpha  occ. eigenvalues --   -0.59791  -0.58481  -0.58458  -0.57511  -0.57345
 Alpha  occ. eigenvalues --   -0.57119  -0.57077  -0.57049  -0.54807  -0.53528
 Alpha  occ. eigenvalues --   -0.53475  -0.52721  -0.51022  -0.50914  -0.49809
 Alpha  occ. eigenvalues --   -0.49704  -0.49679  -0.47249  -0.45986  -0.45042
 Alpha  occ. eigenvalues --   -0.44851  -0.41837  -0.41699  -0.37705
 Alpha virt. eigenvalues --   -0.10202  -0.08928  -0.08820  -0.07960  -0.07814
 Alpha virt. eigenvalues --   -0.04561  -0.00889   0.00464   0.00590   0.01319
 Alpha virt. eigenvalues --    0.01515   0.02113   0.03046   0.03149   0.03511
 Alpha virt. eigenvalues --    0.03706   0.04501   0.04525   0.04788   0.06549
 Alpha virt. eigenvalues --    0.06746   0.07035   0.07251   0.07509   0.07957
 Alpha virt. eigenvalues --    0.08023   0.08133   0.08222   0.08402   0.08599
 Alpha virt. eigenvalues --    0.08673   0.09072   0.09582   0.09854   0.12169
 Alpha virt. eigenvalues --    0.12670   0.12825   0.13580   0.14025   0.14417
 Alpha virt. eigenvalues --    0.15043   0.15073   0.15391   0.15908   0.16211
 Alpha virt. eigenvalues --    0.16471   0.16578   0.16864   0.17416   0.17856
 Alpha virt. eigenvalues --    0.18047   0.18392   0.18591   0.18746   0.19022
 Alpha virt. eigenvalues --    0.20299   0.20432   0.20843   0.21811   0.22127
 Alpha virt. eigenvalues --    0.22887   0.23019   0.23097   0.23465   0.23890
 Alpha virt. eigenvalues --    0.24047   0.24973   0.25422   0.25502   0.26104
 Alpha virt. eigenvalues --    0.26810   0.26950   0.27187   0.28242   0.28617
 Alpha virt. eigenvalues --    0.29135   0.29328   0.29738   0.29940   0.30681
 Alpha virt. eigenvalues --    0.31361   0.31604   0.32271   0.32566   0.32648
 Alpha virt. eigenvalues --    0.32844   0.33205   0.33434   0.33791   0.34277
 Alpha virt. eigenvalues --    0.34480   0.34745   0.35410   0.35996   0.36281
 Alpha virt. eigenvalues --    0.36456   0.36746   0.36866   0.37301   0.37540
 Alpha virt. eigenvalues --    0.38242   0.38463   0.38690   0.39056   0.40060
 Alpha virt. eigenvalues --    0.40405   0.40698   0.40965   0.41036   0.41262
 Alpha virt. eigenvalues --    0.41418   0.41486   0.42026   0.42199   0.42494
 Alpha virt. eigenvalues --    0.43055   0.43068   0.43425   0.43519   0.44253
 Alpha virt. eigenvalues --    0.44635   0.44888   0.45207   0.45864   0.47378
 Alpha virt. eigenvalues --    0.48075   0.48637   0.48737   0.49190   0.49233
 Alpha virt. eigenvalues --    0.50920   0.51843   0.53182   0.54317   0.54394
 Alpha virt. eigenvalues --    0.55299   0.56304   0.56954   0.57155   0.57429
 Alpha virt. eigenvalues --    0.58002   0.58296   0.59132   0.59451   0.59897
 Alpha virt. eigenvalues --    0.61316   0.61380   0.61878   0.62607   0.63210
 Alpha virt. eigenvalues --    0.63904   0.64609   0.64929   0.65392   0.66001
 Alpha virt. eigenvalues --    0.66387   0.67047   0.67177   0.68387   0.68644
 Alpha virt. eigenvalues --    0.68977   0.71240   0.72536   0.72826   0.73475
 Alpha virt. eigenvalues --    0.74956   0.75643   0.77295   0.77915   0.79429
 Alpha virt. eigenvalues --    0.80799   0.81837   0.84659   0.85745   0.85935
 Alpha virt. eigenvalues --    0.86957   0.87223   0.88165   1.05327   1.07479
 Alpha virt. eigenvalues --    1.07829   1.11650   1.12103   1.12835   1.14314
 Alpha virt. eigenvalues --    1.14521   1.14685   1.15366   1.15952   1.16576
 Alpha virt. eigenvalues --    1.16906   1.17303   1.17618   1.18581   1.18936
 Alpha virt. eigenvalues --    1.20285   1.20479   1.20741   1.21207   1.21522
 Alpha virt. eigenvalues --    1.21819   1.22170   1.22868   1.23035   1.23616
 Alpha virt. eigenvalues --    1.23829   1.25120   1.25683   1.26235   1.26708
 Alpha virt. eigenvalues --    1.27249   1.27491   1.29417   1.29798   1.30092
 Alpha virt. eigenvalues --    1.30841   1.31118   1.31305   1.32761   1.33117
 Alpha virt. eigenvalues --    1.33192   1.33944   1.34204   1.34471   1.34566
 Alpha virt. eigenvalues --    1.34934   1.35835   1.36182   1.36479   1.36811
 Alpha virt. eigenvalues --    1.37041   1.37702   1.38236   1.38463   1.39104
 Alpha virt. eigenvalues --    1.39465   1.40114   1.40537   1.41043   1.42489
 Alpha virt. eigenvalues --    1.42783   1.42901   1.43068   1.43523   1.43860
 Alpha virt. eigenvalues --    1.43959   1.44228   1.44768   1.45271   1.45723
 Alpha virt. eigenvalues --    1.46343   1.46543   1.46856   1.46896   1.47429
 Alpha virt. eigenvalues --    1.47780   1.47955   1.48041   1.49366   1.49545
 Alpha virt. eigenvalues --    1.50423   1.51780   1.52169   1.52750   1.53342
 Alpha virt. eigenvalues --    1.55303   1.56083   1.56339   1.58175   1.58285
 Alpha virt. eigenvalues --    1.58613   1.59791   1.60001   1.60558   1.63454
 Alpha virt. eigenvalues --    1.64267   1.66707   1.66802   1.67702   1.68518
 Alpha virt. eigenvalues --    1.68753   1.68824   1.68902   1.69488   1.70008
 Alpha virt. eigenvalues --    1.70535   1.71694   1.71895   1.72097   1.72188
 Alpha virt. eigenvalues --    1.72256   1.72281   1.72722   1.73044   1.73533
 Alpha virt. eigenvalues --    1.73887   1.74288   1.74431   1.75757   1.77301
 Alpha virt. eigenvalues --    1.77891   1.78495   1.79279   1.79591   1.80373
 Alpha virt. eigenvalues --    1.81858   1.82060   1.82399   1.82699   1.83220
 Alpha virt. eigenvalues --    1.83320   1.83564   1.83764   1.83869   1.83975
 Alpha virt. eigenvalues --    1.84368   1.85493   1.90469   1.90848   1.91243
 Alpha virt. eigenvalues --    1.93636   1.93730   1.94597   1.96223   1.96479
 Alpha virt. eigenvalues --    1.97087   1.99657   2.00394   2.01187   2.02433
 Alpha virt. eigenvalues --    2.03563   2.04544   2.05569   2.06450   2.08783
 Alpha virt. eigenvalues --    2.08913   2.09722   2.10670   2.11317   2.11644
 Alpha virt. eigenvalues --    2.12534   2.13102   2.13168   2.15450   2.19560
 Alpha virt. eigenvalues --    2.19650   2.19827   2.19970   2.20018   2.20618
 Alpha virt. eigenvalues --    2.20987   2.21454   2.22821   2.23292   2.24503
 Alpha virt. eigenvalues --    2.24629   2.25342   2.25518   2.26226   2.27373
 Alpha virt. eigenvalues --    2.27426   2.27753   2.27795   2.27913   2.28155
 Alpha virt. eigenvalues --    2.28418   2.28528   2.28781   2.30187   2.30263
 Alpha virt. eigenvalues --    2.30482   2.32838   2.32983   2.37051   2.37352
 Alpha virt. eigenvalues --    2.37590   2.39264   2.40349   2.40628   2.40824
 Alpha virt. eigenvalues --    2.44992   2.45145   2.48551   2.48615   2.48765
 Alpha virt. eigenvalues --    2.49101   2.49234   2.50292   2.50864   2.51263
 Alpha virt. eigenvalues --    2.51544   2.53304   2.53542   2.54125   2.54436
 Alpha virt. eigenvalues --    2.56362   2.56838   2.61850   2.62081   2.62196
 Alpha virt. eigenvalues --    2.62496   2.62893   2.63129   2.64331   2.64552
 Alpha virt. eigenvalues --    2.65156   2.65589   2.66076   2.66501   2.68027
 Alpha virt. eigenvalues --    2.68447   2.69443   2.71627   2.73323   2.74106
 Alpha virt. eigenvalues --    2.77227   2.77844   2.78677   2.79128   2.83219
 Alpha virt. eigenvalues --    2.83610   2.85341   2.85385   2.85599   2.90095
 Alpha virt. eigenvalues --    2.90313   2.90405   2.90786   2.91725   2.94014
 Alpha virt. eigenvalues --    2.94729   2.95018   2.95371   2.96068   2.97374
 Alpha virt. eigenvalues --    2.97418   2.97426   2.97754   2.98394   2.98552
 Alpha virt. eigenvalues --    3.00366   3.00831   3.03022   3.04286   3.04997
 Alpha virt. eigenvalues --    3.05405   3.06989   3.07385   3.09303   3.10660
 Alpha virt. eigenvalues --    3.11618   3.15489   3.16302   3.16816   3.18121
 Alpha virt. eigenvalues --    3.18530   3.18801   3.19084   3.20692   3.20731
 Alpha virt. eigenvalues --    3.20768   3.21069   3.21852   3.22723   3.25794
 Alpha virt. eigenvalues --    3.26442   3.27517   3.27991   3.29117   3.32394
 Alpha virt. eigenvalues --    3.33243   3.34005   3.34328   3.43802   3.44206
 Alpha virt. eigenvalues --    3.45544   3.47448   3.47820   3.59492   3.72522
 Alpha virt. eigenvalues --    3.72880   3.86980   3.87260   3.87432   4.06833
 Alpha virt. eigenvalues --    4.07431   4.07521  21.13423  21.15170  21.15351
 Alpha virt. eigenvalues --   21.57866  21.61320  21.61701  21.65986  21.72216
 Alpha virt. eigenvalues --   21.72308  21.72407  21.74227  21.75150  21.80253
 Alpha virt. eigenvalues --   21.84732  21.85490  21.86347  21.90192  21.91714
 Alpha virt. eigenvalues --   21.97247  22.04273  22.05017  31.88787  43.23395
 Alpha virt. eigenvalues --   43.23478  43.23484
  Beta  occ. eigenvalues --  -19.00935 -19.00912 -19.00906 -14.30530 -10.18063
  Beta  occ. eigenvalues --  -10.18037 -10.18021 -10.16867 -10.16865 -10.16855
  Beta  occ. eigenvalues --  -10.14097 -10.14056 -10.14017 -10.13172 -10.13141
  Beta  occ. eigenvalues --  -10.13127 -10.12843 -10.12819 -10.12790 -10.12099
  Beta  occ. eigenvalues --  -10.12066 -10.12053 -10.11688 -10.11666 -10.11641
  Beta  occ. eigenvalues --   -1.20879  -1.20846  -1.20827  -1.15197  -1.03055
  Beta  occ. eigenvalues --   -1.03036  -1.00940  -0.93962  -0.93809  -0.92281
  Beta  occ. eigenvalues --   -0.92121  -0.91834  -0.89817  -0.86592  -0.86117
  Beta  occ. eigenvalues --   -0.83818  -0.80767  -0.79623  -0.79006  -0.77667
  Beta  occ. eigenvalues --   -0.76935  -0.74713  -0.72802  -0.72766  -0.70407
  Beta  occ. eigenvalues --   -0.69279  -0.69228  -0.67666  -0.65971  -0.65754
  Beta  occ. eigenvalues --   -0.63214  -0.63185  -0.63129  -0.62642  -0.62598
  Beta  occ. eigenvalues --   -0.62540  -0.60595  -0.60471  -0.60460  -0.59676
  Beta  occ. eigenvalues --   -0.59627  -0.58426  -0.58409  -0.57338  -0.57104
  Beta  occ. eigenvalues --   -0.56832  -0.56818  -0.56780  -0.54242  -0.53417
  Beta  occ. eigenvalues --   -0.53373  -0.52219  -0.50433  -0.50318  -0.49691
  Beta  occ. eigenvalues --   -0.49618  -0.49592  -0.45730  -0.45381  -0.44765
  Beta  occ. eigenvalues --   -0.44540  -0.40466  -0.40249
  Beta virt. eigenvalues --   -0.22480  -0.09824  -0.08280  -0.08125  -0.07452
  Beta virt. eigenvalues --   -0.07248  -0.03388  -0.00815   0.00524   0.00643
  Beta virt. eigenvalues --    0.01381   0.01570   0.02150   0.03109   0.03200
  Beta virt. eigenvalues --    0.03559   0.03762   0.04568   0.04600   0.04940
  Beta virt. eigenvalues --    0.06690   0.07037   0.07229   0.07291   0.07619
  Beta virt. eigenvalues --    0.07998   0.08096   0.08239   0.08290   0.08449
  Beta virt. eigenvalues --    0.08651   0.08752   0.09107   0.09808   0.10051
  Beta virt. eigenvalues --    0.12404   0.12767   0.12930   0.13714   0.14130
  Beta virt. eigenvalues --    0.14509   0.15170   0.15212   0.15471   0.15998
  Beta virt. eigenvalues --    0.16351   0.16590   0.16713   0.17012   0.17521
  Beta virt. eigenvalues --    0.17915   0.18133   0.18494   0.18739   0.18862
  Beta virt. eigenvalues --    0.19147   0.20366   0.20504   0.20960   0.21893
  Beta virt. eigenvalues --    0.22205   0.22953   0.23131   0.23178   0.23624
  Beta virt. eigenvalues --    0.23984   0.24141   0.25033   0.25586   0.25651
  Beta virt. eigenvalues --    0.26255   0.26895   0.27032   0.27313   0.28377
  Beta virt. eigenvalues --    0.28750   0.29277   0.29465   0.29852   0.30076
  Beta virt. eigenvalues --    0.30806   0.31514   0.31709   0.32380   0.32687
  Beta virt. eigenvalues --    0.32766   0.33007   0.33372   0.33555   0.33942
  Beta virt. eigenvalues --    0.34346   0.34585   0.34868   0.35502   0.36112
  Beta virt. eigenvalues --    0.36371   0.36542   0.36787   0.36988   0.37352
  Beta virt. eigenvalues --    0.37589   0.38304   0.38523   0.38746   0.39124
  Beta virt. eigenvalues --    0.40138   0.40482   0.40795   0.41058   0.41107
  Beta virt. eigenvalues --    0.41333   0.41517   0.41552   0.42098   0.42278
  Beta virt. eigenvalues --    0.42569   0.43139   0.43145   0.43535   0.43636
  Beta virt. eigenvalues --    0.44324   0.44715   0.44971   0.45323   0.45981
  Beta virt. eigenvalues --    0.47482   0.48171   0.48751   0.48833   0.49306
  Beta virt. eigenvalues --    0.49358   0.51104   0.51979   0.53278   0.54435
  Beta virt. eigenvalues --    0.54490   0.55412   0.56384   0.57104   0.57265
  Beta virt. eigenvalues --    0.57574   0.58130   0.58460   0.59222   0.59553
  Beta virt. eigenvalues --    0.59965   0.61372   0.61446   0.61968   0.62715
  Beta virt. eigenvalues --    0.63310   0.64056   0.64755   0.65070   0.65470
  Beta virt. eigenvalues --    0.66102   0.66533   0.67116   0.67310   0.68478
  Beta virt. eigenvalues --    0.68765   0.69074   0.71359   0.72609   0.72925
  Beta virt. eigenvalues --    0.73713   0.75023   0.75711   0.77707   0.78057
  Beta virt. eigenvalues --    0.79676   0.80998   0.81905   0.84754   0.85832
  Beta virt. eigenvalues --    0.86014   0.87066   0.87318   0.88458   1.05431
  Beta virt. eigenvalues --    1.07571   1.07917   1.11722   1.12174   1.12894
  Beta virt. eigenvalues --    1.14448   1.14671   1.14823   1.15469   1.16060
  Beta virt. eigenvalues --    1.16702   1.17058   1.17473   1.17784   1.18711
  Beta virt. eigenvalues --    1.19059   1.20369   1.20599   1.20808   1.21264
  Beta virt. eigenvalues --    1.21603   1.21898   1.22263   1.22952   1.23126
  Beta virt. eigenvalues --    1.23750   1.23930   1.25324   1.25869   1.26391
  Beta virt. eigenvalues --    1.26766   1.27284   1.27512   1.29447   1.29843
  Beta virt. eigenvalues --    1.30137   1.31034   1.31314   1.31553   1.32976
  Beta virt. eigenvalues --    1.33272   1.33343   1.34121   1.34353   1.34694
  Beta virt. eigenvalues --    1.34745   1.35129   1.35997   1.36271   1.36525
  Beta virt. eigenvalues --    1.36863   1.37103   1.37768   1.38354   1.38627
  Beta virt. eigenvalues --    1.39251   1.39579   1.40373   1.40782   1.41235
  Beta virt. eigenvalues --    1.42715   1.42909   1.43114   1.43353   1.43838
  Beta virt. eigenvalues --    1.44066   1.44188   1.44416   1.44854   1.45399
  Beta virt. eigenvalues --    1.45812   1.46509   1.46664   1.46972   1.47062
  Beta virt. eigenvalues --    1.47558   1.47887   1.48193   1.48269   1.49548
  Beta virt. eigenvalues --    1.49727   1.50606   1.51953   1.52314   1.52865
  Beta virt. eigenvalues --    1.53453   1.55411   1.56213   1.56460   1.58355
  Beta virt. eigenvalues --    1.58455   1.58742   1.59937   1.60127   1.60654
  Beta virt. eigenvalues --    1.63569   1.64394   1.66939   1.67061   1.67912
  Beta virt. eigenvalues --    1.68736   1.68834   1.68910   1.68983   1.69539
  Beta virt. eigenvalues --    1.70108   1.70657   1.71813   1.71980   1.72144
  Beta virt. eigenvalues --    1.72255   1.72310   1.72375   1.72808   1.73136
  Beta virt. eigenvalues --    1.73582   1.74214   1.74373   1.74498   1.75963
  Beta virt. eigenvalues --    1.77467   1.78058   1.78675   1.79391   1.79736
  Beta virt. eigenvalues --    1.80662   1.81999   1.82198   1.82473   1.82854
  Beta virt. eigenvalues --    1.83372   1.83487   1.83703   1.83971   1.84028
  Beta virt. eigenvalues --    1.84108   1.84465   1.85728   1.90725   1.91031
  Beta virt. eigenvalues --    1.91404   1.93824   1.93922   1.94880   1.96379
  Beta virt. eigenvalues --    1.96625   1.97339   1.99789   2.00554   2.01316
  Beta virt. eigenvalues --    2.02673   2.03811   2.04721   2.05812   2.06679
  Beta virt. eigenvalues --    2.09174   2.09277   2.10126   2.11046   2.11392
  Beta virt. eigenvalues --    2.11720   2.12626   2.13233   2.13337   2.15665
  Beta virt. eigenvalues --    2.19754   2.19849   2.20075   2.20184   2.20241
  Beta virt. eigenvalues --    2.20802   2.21189   2.21636   2.23011   2.23626
  Beta virt. eigenvalues --    2.24741   2.24878   2.25579   2.25726   2.26443
  Beta virt. eigenvalues --    2.27520   2.27567   2.27856   2.27916   2.28061
  Beta virt. eigenvalues --    2.28411   2.28598   2.28900   2.28968   2.30284
  Beta virt. eigenvalues --    2.30381   2.30593   2.33242   2.33383   2.37334
  Beta virt. eigenvalues --    2.37537   2.37942   2.39600   2.40430   2.40716
  Beta virt. eigenvalues --    2.40902   2.45067   2.45217   2.48636   2.48697
[...]
     5   Atom       -0.000618      0.009801     -0.009183
     6   Atom       -0.004710      0.014608     -0.009897
     7   Atom        0.008912     -0.045995      0.037084
     8   Atom        0.000985     -0.002098      0.001113
     9   Atom        0.001167     -0.001770      0.000603
    10   Atom       -0.000800      0.000994     -0.000193
    11   Atom       -0.000611      0.000743     -0.000132
    12   Atom       -0.004438     -0.009256      0.013694
    13   Atom        0.010584     -0.006701     -0.003883
    14   Atom       -0.016563      0.027780     -0.011218
    15   Atom        0.010051      0.000679     -0.010730
    16   Atom        0.003657      0.008036     -0.011694
    17   Atom       -0.030641     -0.015707      0.046348
    18   Atom       -0.001198      0.000518      0.000680
    19   Atom        0.000477     -0.000390     -0.000087
    20   Atom        0.000399      0.000039     -0.000437
    21   Atom        0.000518     -0.000254     -0.000264
    22   Atom       -0.046913     -0.023380      0.070293
    23   Atom        0.002432     -0.001496     -0.000935
    24   Atom        0.002073     -0.000846     -0.001227
    25   Atom        0.000642     -0.000854      0.000212
    26   Atom        0.001500     -0.000453     -0.001047
    27   Atom        0.038457     -0.091550      0.053093
    28   Atom        0.000164      0.000439     -0.000604
    29   Atom        0.001056      0.000056     -0.001112
    30   Atom       -0.000689      0.000310      0.000380
    31   Atom       -0.000383      0.001340     -0.000957
    32   Atom        0.002981     -0.016738      0.013758
    33   Atom       -0.036670      0.029219      0.007451
    34   Atom       -0.040587      0.040366      0.000221
    35   Atom        0.013444     -0.000212     -0.013232
    36   Atom        0.011515      0.003012     -0.014527
    37   Atom       -0.050293     -0.011047      0.061339
    38   Atom       -0.002957      0.003242     -0.000285
    39   Atom       -0.001273      0.001978     -0.000705
    40   Atom        0.001030     -0.000350     -0.000680
    41   Atom        0.001001     -0.000372     -0.000629
    42   Atom       -0.097181     -0.002850      0.100031
    43   Atom        0.002275     -0.001154     -0.001121
    44   Atom        0.001495     -0.000172     -0.001324
    45   Atom        0.000946     -0.001173      0.000227
    46   Atom        0.002240     -0.001208     -0.001032
 --------------------------------------------------------
                        XY            XZ            YZ
 --------------------------------------------------------
     1   Atom       -0.002150      0.052159     -0.059242
     2   Atom        0.004246      0.005091     -0.004123
     3   Atom       -0.011372      0.067040     -0.009958
     4   Atom       -0.035670      0.044257     -0.016453
     5   Atom        0.007317     -0.013179      0.007794
     6   Atom        0.001313     -0.017765      0.001260
     7   Atom       -0.016144      0.078192     -0.020316
     8   Atom       -0.001758     -0.004884      0.002741
     9   Atom       -0.000498     -0.004859      0.000599
    10   Atom        0.000586     -0.001708      0.000443
    11   Atom        0.000676     -0.001825      0.000264
    12   Atom       -0.011409     -0.003924     -0.002110
    13   Atom        0.054525     -0.054056     -0.050891
    14   Atom        0.040713     -0.027923     -0.041261
    15   Atom       -0.007346      0.006594      0.015090
    16   Atom       -0.007780      0.012581      0.009919
    17   Atom        0.027436     -0.050382     -0.063061
    18   Atom        0.002532      0.002766      0.004839
    19   Atom        0.001700      0.003963      0.002938
    20   Atom       -0.000995      0.001102      0.001414
    21   Atom       -0.000716      0.001400      0.001368
    22   Atom        0.066354     -0.096428     -0.120226
    23   Atom       -0.000856      0.002320      0.000313
    24   Atom       -0.000009      0.000640      0.000199
    25   Atom       -0.000831      0.001495     -0.000372
    26   Atom       -0.001378      0.000506     -0.000313
    27   Atom       -0.033901      0.145479     -0.038908
    28   Atom        0.001971     -0.002194     -0.001135
    29   Atom        0.001303     -0.000806     -0.000293
    30   Atom        0.000904     -0.000991     -0.001175
    31   Atom        0.001368     -0.000324     -0.000681
    32   Atom        0.006945      0.002312      0.002146
    33   Atom       -0.039256     -0.030142      0.073183
    34   Atom       -0.007808     -0.008560      0.056255
    35   Atom        0.000644     -0.000734     -0.014394
    36   Atom        0.005947      0.007955     -0.014611
    37   Atom       -0.011185     -0.021254      0.075863
    38   Atom       -0.000502     -0.000188     -0.005569
    39   Atom       -0.001470      0.002100     -0.004330
    40   Atom        0.000377      0.000473     -0.001851
    41   Atom        0.000036      0.000732     -0.001850
    42   Atom       -0.031499     -0.040865      0.148351
    43   Atom       -0.001271      0.001959     -0.001445
    44   Atom       -0.001253      0.000445     -0.000419
    45   Atom       -0.000255      0.001549     -0.000503
    46   Atom       -0.000049      0.000698      0.000034
 --------------------------------------------------------


 ---------------------------------------------------------------------------------
              Anisotropic Spin Dipole Couplings in Principal Axis System
 ---------------------------------------------------------------------------------

       Atom             a.u.   MegaHertz   Gauss  10(-4) cm-1        Axes

              Baa    -0.4810   -18.550    -6.619    -6.188  0.0007  0.9992  0.0411
     1 N(14)  Bbb    -0.4803   -18.523    -6.609    -6.178  0.9993  0.0008 -0.0362
              Bcc     0.9612    37.073    13.229    12.366  0.0362 -0.0411  0.9985
 
              Baa    -0.0187    -2.503    -0.893    -0.835  0.9597 -0.2123 -0.1843
     2 C(13)  Bbb     0.0040     0.541     0.193     0.180  0.2593  0.9216  0.2889
              Bcc     0.0146     1.962     0.700     0.655  0.1085 -0.3251  0.9394
 
              Baa    -0.0557    -7.476    -2.668    -2.494 -0.2567  0.7620  0.5945
     3 C(13)  Bbb    -0.0496    -6.653    -2.374    -2.219  0.4320  0.6407 -0.6347
              Bcc     0.1053    14.129     5.042     4.713  0.8645 -0.0939  0.4937
 
              Baa    -0.0423    -5.681    -2.027    -1.895  0.5675  0.6051 -0.5584
     4 C(13)  Bbb    -0.0366    -4.906    -1.751    -1.637 -0.0725  0.7122  0.6982
              Bcc     0.0789    10.587     3.778     3.531  0.8202 -0.3558  0.4480
 
              Baa    -0.0223    -2.989    -1.066    -0.997  0.5688 -0.3145  0.7600
     5 C(13)  Bbb     0.0086     1.156     0.413     0.386  0.7252 -0.2441 -0.6438
              Bcc     0.0137     1.832     0.654     0.611  0.3879  0.9174  0.0892
 
              Baa    -0.0253    -3.400    -1.213    -1.134  0.6535 -0.0453  0.7555
     6 C(13)  Bbb     0.0106     1.428     0.510     0.476  0.7544 -0.0417 -0.6551
              Bcc     0.0147     1.972     0.704     0.658  0.0612  0.9981  0.0070
 
              Baa    -0.0565    -7.584    -2.706    -2.530  0.7525 -0.1018 -0.6507
     7 C(13)  Bbb    -0.0503    -6.754    -2.410    -2.253  0.1859  0.9806  0.0616
              Bcc     0.1069    14.338     5.116     4.783  0.6318 -0.1673  0.7568
 
              Baa    -0.0042    -2.259    -0.806    -0.754  0.4940 -0.5032  0.7091
     8 H(1)   Bbb    -0.0028    -1.501    -0.536    -0.501  0.5793  0.7986  0.1631
              Bcc     0.0070     3.760     1.342     1.254 -0.6483  0.3302  0.6860
 
              Baa    -0.0040    -2.127    -0.759    -0.709  0.6831 -0.0434  0.7290
     9 H(1)   Bbb    -0.0018    -0.984    -0.351    -0.328  0.1034  0.9939 -0.0378
              Bcc     0.0058     3.111     1.110     1.038  0.7229 -0.1012 -0.6835
 
              Baa    -0.0024    -1.276    -0.455    -0.426  0.7504 -0.2118  0.6261
    10 H(1)   Bbb     0.0011     0.608     0.217     0.203 -0.0675  0.9177  0.3914
              Bcc     0.0013     0.668     0.238     0.223 -0.6575 -0.3360  0.6744
 
              Baa    -0.0024    -1.261    -0.450    -0.421  0.7431 -0.2157  0.6335
    11 H(1)   Bbb     0.0008     0.430     0.153     0.143 -0.0694  0.9167  0.3935
              Bcc     0.0016     0.831     0.297     0.277 -0.6656 -0.3363  0.6662
 
              Baa    -0.0190    -2.553    -0.911    -0.852  0.6319  0.7649  0.1251
    12 C(13)  Bbb     0.0045     0.606     0.216     0.202  0.7457 -0.6440  0.1708
              Bcc     0.0145     1.947     0.695     0.649 -0.2112  0.0146  0.9773
 
              Baa    -0.0564    -7.570    -2.701    -2.525 -0.1483  0.7822  0.6052
    13 C(13)  Bbb    -0.0504    -6.768    -2.415    -2.257  0.7676 -0.2948  0.5691
              Bcc     0.1068    14.338     5.116     4.783  0.6235  0.5489 -0.5567
 
              Baa    -0.0425    -5.697    -2.033    -1.900  0.8492 -0.2067  0.4860
    14 C(13)  Bbb    -0.0369    -4.946    -1.765    -1.650 -0.2636  0.6315  0.7292
              Bcc     0.0793    10.643     3.798     3.550  0.4576  0.7473 -0.4818
 
              Baa    -0.0239    -3.205    -1.144    -1.069 -0.2733 -0.5615  0.7810
    15 C(13)  Bbb     0.0096     1.286     0.459     0.429  0.5442  0.5793  0.6069
              Bcc     0.0143     1.919     0.685     0.640  0.7932 -0.5909 -0.1473
 
              Baa    -0.0237    -3.176    -1.133    -1.059 -0.4732 -0.3667  0.8010
    16 C(13)  Bbb     0.0097     1.305     0.466     0.435  0.6647  0.4480  0.5978
              Bcc     0.0139     1.870     0.667     0.624 -0.5781  0.8154  0.0318
 
              Baa    -0.0577    -7.737    -2.761    -2.581  0.6099  0.5113  0.6055
    17 C(13)  Bbb    -0.0514    -6.902    -2.463    -2.302 -0.6957  0.7113  0.1002
              Bcc     0.1091    14.638     5.223     4.883 -0.3794 -0.4824  0.7895
 
              Baa    -0.0043    -2.269    -0.809    -0.757 -0.0831 -0.6876  0.7213
    18 H(1)   Bbb    -0.0029    -1.534    -0.547    -0.512  0.9080 -0.3505 -0.2295
              Bcc     0.0071     3.802     1.357     1.268  0.4106  0.6359  0.6535
 
              Baa    -0.0042    -2.224    -0.794    -0.742 -0.5242 -0.3631  0.7703
    19 H(1)   Bbb    -0.0017    -0.912    -0.325    -0.304 -0.5898  0.8072 -0.0210
              Bcc     0.0059     3.136     1.119     1.046  0.6142  0.4654  0.6373
 
              Baa    -0.0024    -1.289    -0.460    -0.430 -0.4665 -0.5759  0.6714
    20 H(1)   Bbb     0.0012     0.618     0.220     0.206  0.7734  0.1029  0.6256
              Bcc     0.0013     0.671     0.240     0.224 -0.4293  0.8110  0.3974
 
              Baa    -0.0024    -1.286    -0.459    -0.429 -0.4625 -0.5795  0.6710
    21 H(1)   Bbb     0.0008     0.411     0.147     0.137 -0.5422  0.7837  0.3031
              Bcc     0.0016     0.875     0.312     0.292  0.7015  0.2237  0.6766
 
              Baa    -0.1056     7.641     2.726     2.549 -0.0637  0.8398  0.5391
    22 O(17)  Bbb    -0.1009     7.305     2.606     2.437  0.9056 -0.1783  0.3848
              Bcc     0.2065   -14.945    -5.333    -4.985 -0.4193 -0.5128  0.7492
 
              Baa    -0.0026    -0.344    -0.123    -0.115 -0.4271 -0.5531  0.7153
    23 C(13)  Bbb    -0.0011    -0.151    -0.054    -0.050 -0.1563  0.8243  0.5441
              Bcc     0.0037     0.495     0.177     0.165  0.8906 -0.1206  0.4385
 
              Baa    -0.0014    -0.755    -0.269    -0.252 -0.1713 -0.3271  0.9293
    24 H(1)   Bbb    -0.0008    -0.415    -0.148    -0.138 -0.0690  0.9449  0.3199
              Bcc     0.0022     1.170     0.418     0.390  0.9828  0.0093  0.1845
 
              Baa    -0.0013    -0.719    -0.256    -0.240  0.5940  0.6959 -0.4036
    25 H(1)   Bbb    -0.0008    -0.449    -0.160    -0.150 -0.3142  0.6626  0.6800
              Bcc     0.0022     1.167     0.417     0.389  0.7406 -0.2771  0.6122
 
              Baa    -0.0012    -0.642    -0.229    -0.214  0.2500  0.7260  0.6406
    26 H(1)   Bbb    -0.0011    -0.594    -0.212    -0.198 -0.4172 -0.5163  0.7479
              Bcc     0.0023     1.236     0.441     0.412  0.8737 -0.4543  0.1738
 
              Baa    -0.1025     7.418     2.647     2.474 -0.3759  0.7533  0.5397
    27 O(17)  Bbb    -0.0980     7.093     2.531     2.366  0.6320  0.6343 -0.4451
              Bcc     0.2005   -14.511    -5.178    -4.840  0.6777 -0.1738  0.7145
 
              Baa    -0.0025    -0.340    -0.121    -0.113  0.7042 -0.2077  0.6789
    28 C(13)  Bbb    -0.0011    -0.144    -0.051    -0.048 -0.2913  0.7875  0.5431
              Bcc     0.0036     0.484     0.173     0.161  0.6474  0.5803 -0.4941
 
              Baa    -0.0014    -0.747    -0.267    -0.249  0.3833 -0.1601  0.9096
    29 H(1)   Bbb    -0.0008    -0.407    -0.145    -0.136 -0.4465  0.8300  0.3343
              Bcc     0.0022     1.154     0.412     0.385  0.8085  0.5343 -0.2467
 
              Baa    -0.0013    -0.707    -0.252    -0.236  0.9020 -0.2419  0.3575
    30 H(1)   Bbb    -0.0008    -0.442    -0.158    -0.147 -0.0657  0.7416  0.6676
              Bcc     0.0022     1.149     0.410     0.383 -0.4266 -0.6257  0.6531
 
              Baa    -0.0012    -0.629    -0.225    -0.210 -0.5654  0.4869  0.6658
    31 H(1)   Bbb    -0.0011    -0.582    -0.208    -0.194  0.6792 -0.1831  0.7107
              Bcc     0.0023     1.212     0.432     0.404  0.4679  0.8541 -0.2272
 
              Baa    -0.0190    -2.549    -0.910    -0.850 -0.2971  0.9539 -0.0415
    32 C(13)  Bbb     0.0043     0.580     0.207     0.194  0.9180  0.2734 -0.2872
              Bcc     0.0147     1.968     0.702     0.657  0.2626  0.1235  0.9570
 
              Baa    -0.0574    -7.706    -2.750    -2.570  0.5256  0.6752 -0.5175
    33 C(13)  Bbb    -0.0517    -6.932    -2.473    -2.312  0.7878 -0.1567  0.5957
              Bcc     0.1091    14.638     5.223     4.883 -0.3212  0.7208  0.6143
 
              Baa    -0.0433    -5.805    -2.071    -1.936  0.8346 -0.2517  0.4900
    34 C(13)  Bbb    -0.0378    -5.075    -1.811    -1.693 -0.5430 -0.5255  0.6550
              Bcc     0.0811    10.879     3.882     3.629 -0.0926  0.8127  0.5753
 
              Baa    -0.0225    -3.022    -1.078    -1.008  0.0075  0.5420  0.8404
    35 C(13)  Bbb     0.0089     1.192     0.425     0.398 -0.2015  0.8239 -0.5296
              Bcc     0.0136     1.830     0.653     0.610  0.9795  0.1654 -0.1154
 
              Baa    -0.0254    -3.412    -1.218    -1.138 -0.2580  0.4836  0.8364
    36 C(13)  Bbb     0.0108     1.455     0.519     0.485 -0.3312  0.7690 -0.5468
              Bcc     0.0146     1.958     0.699     0.653  0.9076  0.4181  0.0382
 
              Baa    -0.0595    -7.986    -2.850    -2.664 -0.3070  0.7808 -0.5441
    37 C(13)  Bbb    -0.0532    -7.139    -2.547    -2.381  0.9405  0.3362 -0.0482
              Bcc     0.1127    15.126     5.397     5.045 -0.1453  0.5266  0.8376
 
              Baa    -0.0045    -2.398    -0.856    -0.800  0.2812  0.5726  0.7701
    38 H(1)   Bbb    -0.0028    -1.512    -0.540    -0.504  0.9592 -0.1438 -0.2433
              Bcc     0.0073     3.910     1.395     1.304 -0.0286  0.8071 -0.5897
 
              Baa    -0.0042    -2.235    -0.798    -0.746 -0.3359  0.4863  0.8067
    39 H(1)   Bbb    -0.0018    -0.961    -0.343    -0.320  0.8860  0.4538  0.0953
              Bcc     0.0060     3.196     1.140     1.066 -0.3198  0.7467 -0.5832
 
              Baa    -0.0025    -1.322    -0.472    -0.441 -0.1698  0.6639  0.7283
    40 H(1)   Bbb     0.0011     0.601     0.214     0.201  0.9686  0.2485 -0.0008
              Bcc     0.0014     0.721     0.257     0.240 -0.1815  0.7053 -0.6852
 
              Baa    -0.0024    -1.306    -0.466    -0.436 -0.1629  0.6582  0.7351
    41 H(1)   Bbb     0.0007     0.394     0.141     0.132  0.7847  0.5380 -0.3078
              Bcc     0.0017     0.912     0.325     0.304  0.5981 -0.5267  0.6041
 
              Baa    -0.1094     7.919     2.826     2.642  0.4568  0.7655 -0.4531
    42 O(17)  Bbb    -0.1047     7.576     2.703     2.527  0.8744 -0.2929  0.3868
              Bcc     0.2141   -15.495    -5.529    -5.169 -0.1634  0.5728  0.8032
 
              Baa    -0.0027    -0.356    -0.127    -0.119 -0.1471  0.6189  0.7715
    43 C(13)  Bbb    -0.0012    -0.154    -0.055    -0.052  0.5297  0.7080 -0.4670
              Bcc     0.0038     0.511     0.182     0.170  0.8354 -0.3400  0.4320
 
              Baa    -0.0015    -0.779    -0.278    -0.260 -0.0206  0.2911  0.9565
    44 H(1)   Bbb    -0.0008    -0.429    -0.153    -0.143  0.5001  0.8314 -0.2423
              Bcc     0.0023     1.208     0.431     0.403  0.8657 -0.4734  0.1627
 
              Baa    -0.0014    -0.742    -0.265    -0.247 -0.2255  0.8479  0.4798
    45 H(1)   Bbb    -0.0009    -0.461    -0.164    -0.154 -0.6000 -0.5088  0.6174
              Bcc     0.0023     1.202     0.429     0.401  0.7676 -0.1487  0.6234
 
              Baa    -0.0012    -0.661    -0.236    -0.220  0.1215  0.8283 -0.5470
    46 H(1)   Bbb    -0.0011    -0.611    -0.218    -0.204 -0.1595  0.5602  0.8128
              Bcc     0.0024     1.272     0.454     0.424  0.9797 -0.0115  0.2002
 

 ---------------------------------------------------------------------------------

 No NMR shielding tensors so no spin-rotation constants.
 Leave Link  601 at Sun Jan 17 01:45:04 2021, MaxMem=  4026531840 cpu:               6.4 elap:               0.9
 (Enter /opt/ohpc/pub/libs/gaussian/g16-A.03/sandybridge/g16/l9999.exe)

 Test job not archived.
 1\1\GINC-CASCADEB034\SP\ULC-wHPBE\TZVP\C21H21N1O3(1+,2)\RDU230\17-Jan-
 2021\0\\#P LC-wHPBE/TZVP iop(3/107=0191100000, 3/108=0191100000) scf=(
 conver=6,fermi,ndamp=35,noincfock,novaracc,vshift=500,xqc)\\H21 C21 N1
  O3\\1,2\N,0,0.054086,0.063852,0.077784\C,0,-0.275154,-1.311734,0.1035
 06\C,0,-1.260864,-1.827996,-0.72375\C,0,0.386135,-2.184815,0.970218\C,
 0,-1.598384,-3.175646,-0.688444\C,0,0.074577,-3.526309,0.994438\C,0,-0
 .9252,-4.03443,0.167909\H,0,-1.784639,-1.164375,-1.405148\H,0,1.158634
 ,-1.797039,1.627427\H,0,-2.379444,-3.537517,-1.347421\H,0,0.588853,-4.
 20682,1.665799\C,0,-0.970368,1.03417,-0.019727\C,0,-2.134785,0.917606,
 0.724871\C,0,-0.835797,2.133662,-0.869883\C,0,-3.151989,1.858174,0.623
 575\C,0,-1.829782,3.083912,-0.958163\C,0,-3.000537,2.952781,-0.215611\
 H,0,-2.255494,0.070396,1.39325\H,0,0.067507,2.240735,-1.462783\H,0,-4.
 048238,1.726664,1.219136\H,0,-1.725247,3.941045,-1.615932\O,0,-3.92845
 1,3.936733,-0.380204\C,0,-5.121818,3.840279,0.365278\H,0,-5.681122,2.9
 30406,0.115451\H,0,-4.925953,3.859223,1.44425\H,0,-5.719912,4.710924,0
 .096466\O,0,-1.16822,-5.370782,0.273837\C,0,-2.170458,-5.919715,-0.552
 884\H,0,-3.15107,-5.47272,-0.348812\H,0,-1.930216,-5.79407,-1.615623\H
 ,0,-2.208576,-6.98373,-0.319613\C,0,1.409258,0.466483,0.091838\C,0,2.3
 72325,-0.232608,-0.620224\C,0,1.812213,1.581496,0.83064\C,0,3.707828,0
 .150754,-0.59385\C,0,3.129962,1.982235,0.842322\C,0,4.092694,1.267169,
 0.133583\H,0,2.078678,-1.100647,-1.202616\H,0,1.073246,2.139336,1.3978
 22\H,0,4.429565,-0.427688,-1.159301\H,0,3.443945,2.849999,1.413878\O,0
 ,5.369584,1.734982,0.218075\C,0,6.368506,1.037347,-0.492266\H,0,6.4607
 13,0.000867,-0.145468\H,0,6.173119,1.041208,-1.571513\H,0,7.303574,1.5
 62498,-0.297656\\Version=EM64L-G16RevA.03\State=2-A\HF=-1092.3792763\S
 2=0.765186\S2-1=0.\S2A=0.750205\RMSD=8.023e-07\Dipole=-0.4370643,-0.49
 83073,-0.3092169\Quadrupole=24.6459991,2.7177079,-27.363707,-0.2780018
 ,-4.9639106,5.4469165\PG=C01 [X(C21H21N1O3)]\\@


 A HARD FALL SHOULD MEAN A HIGH BOUNCE 
 IF ONE IS MADE OF THE RIGHT MATERIAL.

                -- THE CHEMIST ANALYST, MARCH 1950
 Job cpu time:       0 days  2 hours 17 minutes 23.4 seconds.
 Elapsed time:       0 days  0 hours 17 minutes 14.4 seconds.
 File lengths (MBytes):  RWF=    228 Int=      0 D2E=      0 Chk=     32 Scr=      8
 Normal termination of Gaussian 16 at Sun Jan 17 01:45:04 2021.
