 Entering Gaussian System, Link 0=g16
 Input=mol_NN_ma_frag_tune_n1.gjf
 Output=mol_NN_ma_frag_tune_n1.log
 Initial command:
 /opt/ohpc/pub/libs/gaussian/g16-A.03/sandybridge/g16/l1.exe "/mnt/gpfs2_4m/scratch/rdu230/ondemand/projects/init_structures/wtuning/mol_NN_ma_frag/tuning_mol_NN_ma_frag_ocycle0/Gau-204219.inp" -scrdir="/mnt/gpfs2_4m/scratch/rdu230/ondemand/projects/init_structures/wtuning/mol_NN_ma_frag/tuning_mol_NN_ma_frag_ocycle0/"
 Entering Link 1 = /opt/ohpc/pub/libs/gaussian/g16-A.03/sandybridge/g16/l1.exe PID=    204220.
  
 Copyright (c) 1988,1990,1992,1993,1995,1998,2003,2009,2016,
            Gaussian, Inc.  All Rights Reserved.
  
 This is part of the Gaussian(R) 16 program.  It is based on
 the Gaussian(R) 09 system (copyright 2009, Gaussian, Inc.),
 the Gaussian(R) 03 system (copyright 2003, Gaussian, Inc.),
 the Gaussian(R) 98 system (copyright 1998, Gaussian, Inc.),
 the Gaussian(R) 94 system (copyright 1995, Gaussian, Inc.),
 the Gaussian 92(TM) system (copyright 1992, Gaussian, Inc.),
 the Gaussian 90(TM) system (copyright 1990, Gaussian, Inc.),
 the Gaussian 88(TM) system (copyright 1988, Gaussian, Inc.),
 the Gaussian 86(TM) system (copyright 1986, Carnegie Mellon
 University), and the Gaussian 82(TM) system (copyright 1983,
 Carnegie Mellon University). Gaussian is a federally registered
 trademark of Gaussian, Inc.
  
 This software contains proprietary and confidential information,
 including trade secrets, belonging to Gaussian, Inc.
  
 This software is provided under written license and may be
 used, copied, transmitted, or stored only in accord with that
 written license.
  
 The following legend is applicable only to US Government
 contracts under FAR:
  
                    RESTRICTED RIGHTS LEGEND
  
 Use, reproduction and disclosure by the US Government is
 subject to restrictions as set forth in subparagraphs (a)
 and (c) of the Commercial Computer Software - Restricted
 Rights clause in FAR 52.227-19.
  
 Gaussian, Inc.
 340 Quinnipiac St., Bldg. 40, Wallingford CT 06492
  
  
 ---------------------------------------------------------------
 Warning -- This program may not be used in any manner that
 competes with the business of Gaussian, Inc. or will provide
 assistance to any competitor of Gaussian, Inc.  The licensee
 of this program is prohibited from giving any competitor of
 Gaussian, Inc. access to this program.  By using this program,
 the user acknowledges that Gaussian, Inc. is engaged in the
 business of creating and licensing software in the field of
 computational chemistry and represents and warrants to the
 licensee that it is not a competitor of Gaussian, Inc. and that
 it will not use this program in any manner prohibited above.
 ---------------------------------------------------------------
  

 Cite this work as:
 Gaussian 16, Revision A.03,
 M. J. Frisch, G. W. Trucks, H. B. Schlegel, G. E. Scuseria, 
 M. A. Robb, J. R. Cheeseman, G. Scalmani, V. Barone, 
 G. A. Petersson, H. Nakatsuji, X. Li, M. Caricato, A. V. Marenich, 
 J. Bloino, B. G. Janesko, R. Gomperts, B. Mennucci, H. P. Hratchian, 
 J. V. Ortiz, A. F. Izmaylov, J. L. Sonnenberg, D. Williams-Young, 
 F. Ding, F. Lipparini, F. Egidi, J. Goings, B. Peng, A. Petrone, 
 T. Henderson, D. Ranasinghe, V. G. Zakrzewski, J. Gao, N. Rega, 
 G. Zheng, W. Liang, M. Hada, M. Ehara, K. Toyota, R. Fukuda, 
 J. Hasegawa, M. Ishida, T. Nakajima, Y. Honda, O. Kitao, H. Nakai, 
 T. Vreven, K. Throssell, J. A. Montgomery, Jr., J. E. Peralta, 
 F. Ogliaro, M. J. Bearpark, J. J. Heyd, E. N. Brothers, K. N. Kudin, 
 V. N. Staroverov, T. A. Keith, R. Kobayashi, J. Normand, 
 K. Raghavachari, A. P. Rendell, J. C. Burant, S. S. Iyengar, 
 J. Tomasi, M. Cossi, J. M. Millam, M. Klene, C. Adamo, R. Cammi, 
 J. W. Ochterski, R. L. Martin, K. Morokuma, O. Farkas, 
 J. B. Foresman, and D. J. Fox, Gaussian, Inc., Wallingford CT, 2016.
 
 ******************************************
 Gaussian 16:  EM64L-G16RevA.03 25-Dec-2016
                16-Jan-2021 
 ******************************************
 %mem=30GB
 %nproc=8
 Will use up to    8 processors via shared memory.
 ----------------------------------------------------------------------
 #P LC-wHPBE/TZVP iop(3/107=0328100000, 3/108=0328100000) scf=(conver=6
 ,fermi,ndamp=35,noincfock,novaracc,vshift=500,xqc)
 ----------------------------------------------------------------------
 1/38=1,172=1/1;
 2/12=2,17=6,18=5,40=1/2;
 3/5=19,7=101,11=2,25=1,30=1,74=-71,107=328100000,108=328100000/1,2,3;
 4//1;
 5/5=100002,6=6,8=3,10=500,13=1,18=-1,22=13,38=1,93=35/2,8;
 6/7=2,8=2,9=2,10=2,28=1/1;
 99/5=1,9=1/99;
 Leave Link    1 at Sat Jan 16 23:53:13 2021, MaxMem=  4026531840 cpu:               2.4 elap:               0.4
 (Enter /opt/ohpc/pub/libs/gaussian/g16-A.03/sandybridge/g16/l101.exe)
 -------------
 H21 C21 N1 O3
 -------------
 Symbolic Z-matrix:
 Charge =  0 Multiplicity = 1
 N                     0.05409   0.06385   0.07778 
 C                    -0.27515  -1.31173   0.10351 
 C                    -1.26086  -1.828    -0.72375 
 C                     0.38614  -2.18481   0.97022 
 C                    -1.59838  -3.17565  -0.68844 
 C                     0.07458  -3.52631   0.99444 
 C                    -0.9252   -4.03443   0.16791 
 H                    -1.78464  -1.16438  -1.40515 
 H                     1.15863  -1.79704   1.62743 
 H                    -2.37944  -3.53752  -1.34742 
 H                     0.58885  -4.20682   1.6658 
 C                    -0.97037   1.03417  -0.01973 
 C                    -2.13478   0.91761   0.72487 
 C                    -0.8358    2.13366  -0.86988 
 C                    -3.15199   1.85817   0.62358 
 C                    -1.82978   3.08391  -0.95816 
 C                    -3.00054   2.95278  -0.21561 
 H                    -2.25549   0.0704    1.39325 
 H                     0.06751   2.24073  -1.46278 
 H                    -4.04824   1.72666   1.21914 
 H                    -1.72525   3.94105  -1.61593 
 O                    -3.92845   3.93673  -0.3802 
 C                    -5.12182   3.84028   0.36528 
 H                    -5.68112   2.93041   0.11545 
 H                    -4.92595   3.85922   1.44425 
 H                    -5.71991   4.71092   0.09647 
 O                    -1.16822  -5.37078   0.27384 
 C                    -2.17046  -5.91972  -0.55288 
 H                    -3.15107  -5.47272  -0.34881 
 H                    -1.93022  -5.79407  -1.61562 
 H                    -2.20858  -6.98373  -0.31961 
 C                     1.40926   0.46648   0.09184 
 C                     2.37233  -0.23261  -0.62022 
 C                     1.81221   1.5815    0.83064 
 C                     3.70783   0.15075  -0.59385 
 C                     3.12996   1.98224   0.84232 
 C                     4.09269   1.26717   0.13358 
 H                     2.07868  -1.10065  -1.20262 
 H                     1.07325   2.13934   1.39782 
 H                     4.42957  -0.42769  -1.1593 
 H                     3.44395   2.85      1.41388 
 O                     5.36958   1.73498   0.21808 
 C                     6.36851   1.03735  -0.49227 
 H                     6.46071   0.00087  -0.14547 
 H                     6.17312   1.04121  -1.57151 
 H                     7.30357   1.5625   -0.29766 
 
 ITRead=  0  0  0  0  0  0  0  0  0  0  0  0  0  0  0  0  0  0  0  0
 ITRead=  0  0  0  0  0  0  0  0  0  0  0  0  0  0  0  0  0  0  0  0
 ITRead=  0  0  0  0  0  0
 MicOpt= -1 -1 -1 -1 -1 -1 -1 -1 -1 -1 -1 -1 -1 -1 -1 -1 -1 -1 -1 -1
 MicOpt= -1 -1 -1 -1 -1 -1 -1 -1 -1 -1 -1 -1 -1 -1 -1 -1 -1 -1 -1 -1
 MicOpt= -1 -1 -1 -1 -1 -1
 NAtoms=     46 NQM=       46 NQMF=       0 NMMI=      0 NMMIF=      0
                NMic=       0 NMicF=      0.
                    Isotopes and Nuclear Properties:
 (Nuclear quadrupole moments (NQMom) in fm**2, nuclear magnetic moments (NMagM)
  in nuclear magnetons)

  Atom         1           2           3           4           5           6           7           8           9          10
 IAtWgt=          14          12          12          12          12          12          12           1           1           1
 AtmWgt=  14.0030740  12.0000000  12.0000000  12.0000000  12.0000000  12.0000000  12.0000000   1.0078250   1.0078250   1.0078250
 NucSpn=           2           0           0           0           0           0           0           1           1           1
 AtZEff=  -0.0000000  -0.0000000  -0.0000000  -0.0000000  -0.0000000  -0.0000000  -0.0000000  -0.0000000  -0.0000000  -0.0000000
 NQMom=    2.0440000   0.0000000   0.0000000   0.0000000   0.0000000   0.0000000   0.0000000   0.0000000   0.0000000   0.0000000
 NMagM=    0.4037610   0.0000000   0.0000000   0.0000000   0.0000000   0.0000000   0.0000000   2.7928460   2.7928460   2.7928460
 AtZNuc=   7.0000000   6.0000000   6.0000000   6.0000000   6.0000000   6.0000000   6.0000000   1.0000000   1.0000000   1.0000000

  Atom        11          12          13          14          15          16          17          18          19          20
 IAtWgt=           1          12          12          12          12          12          12           1           1           1
 AtmWgt=   1.0078250  12.0000000  12.0000000  12.0000000  12.0000000  12.0000000  12.0000000   1.0078250   1.0078250   1.0078250
 NucSpn=           1           0           0           0           0           0           0           1           1           1
 AtZEff=  -0.0000000  -0.0000000  -0.0000000  -0.0000000  -0.0000000  -0.0000000  -0.0000000  -0.0000000  -0.0000000  -0.0000000
 NQMom=    0.0000000   0.0000000   0.0000000   0.0000000   0.0000000   0.0000000   0.0000000   0.0000000   0.0000000   0.0000000
 NMagM=    2.7928460   0.0000000   0.0000000   0.0000000   0.0000000   0.0000000   0.0000000   2.7928460   2.7928460   2.7928460
 AtZNuc=   1.0000000   6.0000000   6.0000000   6.0000000   6.0000000   6.0000000   6.0000000   1.0000000   1.0000000   1.0000000

  Atom        21          22          23          24          25          26          27          28          29          30
 IAtWgt=           1          16          12           1           1           1          16          12           1           1
 AtmWgt=   1.0078250  15.9949146  12.0000000   1.0078250   1.0078250   1.0078250  15.9949146  12.0000000   1.0078250   1.0078250
 NucSpn=           1           0           0           1           1           1           0           0           1           1
 AtZEff=  -0.0000000  -0.0000000  -0.0000000  -0.0000000  -0.0000000  -0.0000000  -0.0000000  -0.0000000  -0.0000000  -0.0000000
 NQMom=    0.0000000   0.0000000   0.0000000   0.0000000   0.0000000   0.0000000   0.0000000   0.0000000   0.0000000   0.0000000
 NMagM=    2.7928460   0.0000000   0.0000000   2.7928460   2.7928460   2.7928460   0.0000000   0.0000000   2.7928460   2.7928460
 AtZNuc=   1.0000000   8.0000000   6.0000000   1.0000000   1.0000000   1.0000000   8.0000000   6.0000000   1.0000000   1.0000000

  Atom        31          32          33          34          35          36          37          38          39          40
 IAtWgt=           1          12          12          12          12          12          12           1           1           1
 AtmWgt=   1.0078250  12.0000000  12.0000000  12.0000000  12.0000000  12.0000000  12.0000000   1.0078250   1.0078250   1.0078250
 NucSpn=           1           0           0           0           0           0           0           1           1           1
 AtZEff=  -0.0000000  -0.0000000  -0.0000000  -0.0000000  -0.0000000  -0.0000000  -0.0000000  -0.0000000  -0.0000000  -0.0000000
 NQMom=    0.0000000   0.0000000   0.0000000   0.0000000   0.0000000   0.0000000   0.0000000   0.0000000   0.0000000   0.0000000
 NMagM=    2.7928460   0.0000000   0.0000000   0.0000000   0.0000000   0.0000000   0.0000000   2.7928460   2.7928460   2.7928460
 AtZNuc=   1.0000000   6.0000000   6.0000000   6.0000000   6.0000000   6.0000000   6.0000000   1.0000000   1.0000000   1.0000000

  Atom        41          42          43          44          45          46
 IAtWgt=           1          16          12           1           1           1
 AtmWgt=   1.0078250  15.9949146  12.0000000   1.0078250   1.0078250   1.0078250
 NucSpn=           1           0           0           1           1           1
 AtZEff=  -0.0000000  -0.0000000  -0.0000000  -0.0000000  -0.0000000  -0.0000000
 NQMom=    0.0000000   0.0000000   0.0000000   0.0000000   0.0000000   0.0000000
 NMagM=    2.7928460   0.0000000   0.0000000   2.7928460   2.7928460   2.7928460
 AtZNuc=   1.0000000   8.0000000   6.0000000   1.0000000   1.0000000   1.0000000
 Leave Link  101 at Sat Jan 16 23:53:13 2021, MaxMem=  4026531840 cpu:               0.8 elap:               0.1
 (Enter /opt/ohpc/pub/libs/gaussian/g16-A.03/sandybridge/g16/l202.exe)
                          Input orientation:                          
 ---------------------------------------------------------------------
 Center     Atomic      Atomic             Coordinates (Angstroms)
 Number     Number       Type             X           Y           Z
 ---------------------------------------------------------------------
      1          7           0        0.054086    0.063852    0.077784
      2          6           0       -0.275154   -1.311734    0.103506
      3          6           0       -1.260864   -1.827996   -0.723750
      4          6           0        0.386135   -2.184815    0.970218
      5          6           0       -1.598384   -3.175646   -0.688444
      6          6           0        0.074577   -3.526309    0.994438
      7          6           0       -0.925200   -4.034430    0.167909
      8          1           0       -1.784639   -1.164375   -1.405148
      9          1           0        1.158634   -1.797039    1.627427
     10          1           0       -2.379444   -3.537517   -1.347421
     11          1           0        0.588853   -4.206820    1.665799
     12          6           0       -0.970368    1.034170   -0.019727
     13          6           0       -2.134785    0.917606    0.724871
     14          6           0       -0.835797    2.133662   -0.869883
     15          6           0       -3.151989    1.858174    0.623575
     16          6           0       -1.829782    3.083912   -0.958163
     17          6           0       -3.000537    2.952781   -0.215611
     18          1           0       -2.255494    0.070396    1.393250
     19          1           0        0.067507    2.240735   -1.462783
     20          1           0       -4.048238    1.726664    1.219136
     21          1           0       -1.725247    3.941045   -1.615932
     22          8           0       -3.928451    3.936733   -0.380204
     23          6           0       -5.121818    3.840279    0.365278
     24          1           0       -5.681122    2.930406    0.115451
     25          1           0       -4.925953    3.859223    1.444250
     26          1           0       -5.719912    4.710924    0.096466
     27          8           0       -1.168220   -5.370782    0.273837
     28          6           0       -2.170458   -5.919715   -0.552884
     29          1           0       -3.151070   -5.472720   -0.348812
     30          1           0       -1.930216   -5.794070   -1.615623
     31          1           0       -2.208576   -6.983730   -0.319613
     32          6           0        1.409258    0.466483    0.091838
     33          6           0        2.372325   -0.232608   -0.620224
     34          6           0        1.812213    1.581496    0.830640
     35          6           0        3.707828    0.150754   -0.593850
     36          6           0        3.129962    1.982235    0.842322
     37          6           0        4.092694    1.267169    0.133583
     38          1           0        2.078678   -1.100647   -1.202616
     39          1           0        1.073246    2.139336    1.397822
     40          1           0        4.429565   -0.427688   -1.159301
     41          1           0        3.443945    2.849999    1.413878
     42          8           0        5.369584    1.734982    0.218075
     43          6           0        6.368506    1.037347   -0.492266
     44          1           0        6.460713    0.000867   -0.145468
     45          1           0        6.173119    1.041208   -1.571513
     46          1           0        7.303574    1.562498   -0.297656
 ---------------------------------------------------------------------
                    Distance matrix (angstroms):
                    1          2          3          4          5
     1  N    0.000000
     2  C    1.414672   0.000000
     3  C    2.439393   1.386544   0.000000
     4  C    2.441966   1.396697   2.389446   0.000000
     5  C    3.716465   2.419151   1.389722   2.769697   0.000000
     6  C    3.705392   2.412553   2.760406   1.377411   2.398719
     7  C    4.214622   2.799961   2.403347   2.405073   1.387093
     8  H    2.662431   2.139228   1.085834   3.375785   2.143261
     9  H    2.661641   2.147930   3.373865   1.085840   3.855511
    10  H    4.574181   3.389297   2.136036   3.853528   1.084092
    11  H    4.587636   3.401292   3.845803   2.147890   3.374876
    12  C    1.414401   2.449852   2.961761   3.630696   4.308612
    13  C    2.436960   2.968885   3.224992   4.005028   4.363473
    14  C    2.444193   3.623887   3.987075   4.850601   5.366862
    15  C    3.714350   4.312188   4.356545   5.383702   5.429035
    16  C    3.707143   4.781811   4.950299   6.032282   6.269638
    17  C    4.214583   5.071059   5.112778   6.266628   6.304540
    18  H    2.657942   2.737785   3.012452   3.499019   3.911781
    19  H    2.666898   3.897527   4.343422   5.060288   5.719439
    20  H    4.571290   4.971183   4.917303   5.918217   5.802869
    21  H    4.589916   5.714099   5.856063   6.976551   7.177995
    22  O    5.574008   6.413030   6.361301   7.610036   7.490671
    23  C    6.413582   7.078271   6.944227   8.185674   7.921371
    24  H    6.411799   6.871709   6.548689   7.981712   7.389105
    25  H    6.408811   7.082819   7.104756   8.060607   8.069107
    26  H    7.411793   8.118981   7.956968   9.251944   8.933144
    27  O    5.573842   4.159621   3.681725   3.612665   2.435087
    28  C    6.414781   5.025586   4.195083   4.775509   2.806343
    29  H    6.411602   5.078316   4.122799   5.006194   2.793337
    30  H    6.412514   5.077989   4.119856   5.007872   2.797484
    31  H    7.412555   6.007386   5.257668   5.605870   3.874258
    32  C    1.413789   2.449375   3.613775   2.974511   4.787468
    33  C    2.439126   2.949143   3.969388   3.207112   4.942940
    34  C    2.441525   3.640962   4.846088   4.029675   6.047329
    35  C    3.715976   4.299921   5.349787   4.351418   6.263367
    36  C    3.704825   4.794882   6.020780   4.990917   7.162698
    37  C    4.214432   5.072449   6.243048   5.133686   7.266547
    38  H    2.663542   2.700192   3.451216   2.959954   4.253326
    39  H    2.662484   3.924706   5.068418   4.399233   6.303899
    40  H    4.573490   4.950818   5.876355   4.896087   6.641472
    41  H    4.586819   5.733131   6.970532   5.907316   8.133464
    42  O    5.573767   6.415502   7.585821   6.384770   8.572551
    43  C    6.414402   7.071870   8.152979   6.950536   9.014385
    44  H    6.410825   6.867082   7.956249   6.551523   8.679522
    45  H    6.412330   7.065568   8.013435   7.096253   8.885827
    46  H    7.412285   8.115372   9.220987   7.968740  10.091956
                    6          7          8          9         10
     6  C    0.000000
     7  C    1.393159   0.000000
     8  H    3.846223   3.383838   0.000000
     9  H    2.136874   3.387990   4.273129   0.000000
    10  H    3.392145   2.158234   2.447229   4.939330   0.000000
    11  H    1.085496   2.136761   4.931597   2.476523   4.282318
    12  C    4.787318   5.072273   2.723239   3.906598   4.964734
    13  C    4.970144   5.127959   2.999038   4.362398   4.919591
    14  C    6.028246   6.255427   3.473306   5.066036   5.896877
    15  C    6.288157   6.315774   3.888594   5.740189   5.796131
    16  C    7.150822   7.263408   4.271976   6.280095   6.655597
    17  C    7.273180   7.298988   4.454703   6.576951   6.617456
    18  H    4.304018   4.485615   3.094737   3.898515   4.532513
    19  H    6.268715   6.559140   3.876666   5.200344   6.276072
    20  H    6.681453   6.636916   4.513187   6.300373   6.089638
    21  H    8.112631   8.211599   5.110115   7.194564   7.511921
    22  O    8.579678   8.535771   5.627410   7.923709   7.694111
    23  C    9.036868   8.925335   6.270385   8.533256   8.055174
    24  H    8.694243   8.433889   5.853378   8.450862   7.407773
    25  H    8.930493   8.941187   6.574455   8.309576   8.306016
    26  H   10.111106   9.973745   7.229132   9.592279   9.015560
    27  O    2.337924   1.362394   4.570867   4.474159   2.730641
    28  C    3.628055   2.371605   4.846490   5.730015   2.519887
    29  H    3.999704   2.700033   4.641639   5.999142   2.310333
    30  H    3.996793   2.699514   4.636763   6.002885   2.316413
    31  H    4.346640   3.253168   5.934897   6.483119   3.600273
    32  C    4.305630   5.070868   3.886083   2.746703   5.697170
    33  C    4.328423   5.093984   4.331818   2.995401   5.833571
    34  C    5.397766   6.282616   5.047366   3.532214   6.965503
    35  C    5.407769   6.289753   5.705696   3.902097   7.157241
    36  C    6.300998   7.286936   6.253445   4.334217   8.100382
    37  C    6.313776   7.299821   6.543939   4.497738   8.195545
    38  H    3.837617   4.416866   3.869147   3.056237   5.082731
    39  H    5.767113   6.604685   5.190246   3.943990   7.189165
    40  H    5.762462   6.591175   6.262546   4.509985   7.487926
    41  H    7.223979   8.248468   7.169393   5.182973   9.073973
    42  O    7.504733   8.538907   7.888221   5.673936   9.502497
    43  C    7.915225   8.908249   8.494393   6.298381   9.908950
    44  H    7.383975   8.422205   8.422019   5.872620   9.597564
    45  H    8.039809   8.897967   8.259430   6.590442   9.703673
    46  H    8.934420   9.962684   9.552905   7.263107  10.994226
                   11         12         13         14         15
    11  H    0.000000
    12  C    5.721900   0.000000
    13  C    5.879055   1.387040   0.000000
    14  C    6.975745   1.396337   2.389436   0.000000
    15  C    7.201686   2.419151   1.389112   2.769667   0.000000
    16  C    8.117250   2.412612   2.760165   1.377960   2.398450
    17  C    8.226987   2.800183   2.403325   2.405229   1.387565
    18  H    5.143848   2.139372   1.085848   3.375556   2.142954
    19  H    7.185457   2.148347   3.374402   1.085796   3.855437
    20  H    7.543763   3.389338   2.135457   3.853495   1.084090
    21  H    9.083640   3.401123   3.845551   2.148102   3.374809
    22  O    9.534654   4.159936   3.681515   3.613220   2.435338
    23  C    9.952835   5.025636   4.194483   4.775787   2.806365
    24  H    9.625807   5.079881   4.123016   5.008279   2.793633
    25  H    9.773598   5.076495   4.118402   5.006211   2.797258
    26  H   11.035827   6.007511   5.257118   5.606308   3.874307
    27  O    2.525801   6.414728   6.378205   7.598374   7.504363
    28  C    3.933238   7.076792   6.955781   8.169375   7.927359
    29  H    4.432627   6.870471   6.559108   7.968002   7.395103
    30  H    4.430892   7.077645   7.111002   8.037588   8.066200
    31  H    4.413468   8.118486   7.970414   9.236566   8.941974
    32  C    4.999018   2.448946   3.628289   2.957138   4.798387
    33  C    4.919455   3.624765   4.842139   3.994197   6.036261
    34  C    5.974839   2.960650   4.003839   3.195094   4.976216
    35  C    5.815709   4.795368   6.038478   4.965143   7.173179
    36  C    6.740901   4.295889   5.372596   4.322247   6.286983
    37  C    6.677510   5.070739   6.265246   5.103702   7.285246
    38  H    4.482822   3.905554   5.053892   4.366421   6.280882
    39  H    6.370255   2.721616   3.498135   2.964281   4.304779
    40  H    6.083921   5.709197   6.960647   5.862449   8.116882
    41  H    7.616673   4.983836   5.943997   4.903559   6.716743
    42  O    7.762493   6.382999   7.565745   6.312634   8.532105
    43  C    8.097093   7.354072   8.590793   7.297019   9.620742
    44  H    7.447420   7.503632   8.687951   7.636272   9.820644
    45  H    8.319015   7.310095   8.620321   7.128159   9.614753
    46  H    9.067947   8.295450   9.515465   8.179427  10.500233
                   16         17         18         19         20
    16  C    0.000000
    17  C    1.392568   0.000000
    18  H    3.845992   3.384031   0.000000
    19  H    2.136655   3.387527   4.273597   0.000000
    20  H    3.391799   2.158597   2.446931   4.939263   0.000000
    21  H    1.085479   2.136335   4.931355   2.475576   4.282217
    22  O    2.337895   1.362452   4.570830   4.473932   2.730685
    23  C    3.627821   2.371691   4.846087   5.729698   2.519725
    24  H    4.001129   2.701044   4.641913   6.001100   2.309421
    25  H    3.994868   2.698889   4.635640   6.000416   2.317082
    26  H    4.346553   3.253223   5.934504   6.482847   3.600096
    27  O    8.569559   8.536899   5.660536   7.904307   7.717631
    28  C    9.019180   8.917621   6.298897   8.510543   8.070516
    29  H    8.679462   8.427898   5.879028   8.431937   7.422567
    30  H    8.902859   8.922613   6.599325   8.280842   8.311637
    31  H   10.094981   9.968564   7.259256   9.569647   9.034549
    32  C    4.294743   5.071735   3.909088   2.713874   5.713416
    33  C    5.363880   6.259238   5.055947   3.484181   6.960289
    34  C    4.326800   5.112497   4.375636   2.956076   5.875108
    35  C    6.277043   7.279875   6.286194   4.286607   8.119542
    36  C    5.390223   6.296364   5.741236   3.841739   7.192625
    37  C    6.290325   7.299120   6.581680   4.438282   8.225833
    38  H    5.731174   6.572890   5.186030   3.908622   7.169217
    39  H    3.856224   4.456520   3.919317   3.033950   5.141189
    40  H    7.179918   8.217332   7.173118   5.122512   9.064841
    41  H    5.787356   6.648093   6.341153   4.477356   7.578431
    42  O    7.418492   8.469359   7.892636   5.585077   9.470880
    43  C    8.462707   9.566838   8.880515   6.487884  10.578876
    44  H    8.882452   9.911305   8.851257   6.901117  10.736786
    45  H    8.282226   9.468292   8.987425   6.223278  10.617613
    46  H    9.282735  10.397804   9.821472   7.360584  11.453875
                   21         22         23         24         25
    21  H    0.000000
    22  O    2.526094   0.000000
    23  C    3.933452   1.410380   0.000000
    24  H    4.434865   2.080919   1.096861   0.000000
    25  H    4.428987   2.080781   1.096769   1.788488   0.000000
    26  H    4.413884   2.008960   1.089954   1.781042   1.781092
    27  O    9.517963   9.730184  10.024118   9.449926  10.034113
    28  C    9.927884  10.013487  10.237726   9.544426  10.354174
    29  H    9.605079   9.441563   9.545979   8.788016   9.666977
    30  H    9.737273  10.010381  10.340743   9.653103  10.560461
    31  H   11.012028  11.055232  11.230104  10.513703  11.316580
    32  C    4.981383   6.384089   7.356101   7.506328   7.312633
    33  C    5.933035   7.559153   8.586140   8.683541   8.618004
    34  C    4.905793   6.322065   7.307493   7.647295   7.139148
    35  C    6.702929   8.525963   9.617441   9.817431   9.615028
    36  C    5.783857   7.425350   8.471822   8.891714   8.293562
    37  C    6.637684   8.469316   9.569839   9.914341   9.474840
    38  H    6.329244   7.882713   8.872327   8.843143   8.981707
    39  H    4.490037   5.604372   6.506779   6.920387   6.241038
    40  H    7.561485   9.461057  10.572076  10.729761  10.615168
    41  H    6.090211   7.664982   8.686341   9.217333   8.430578
    42  O    7.652903   9.573876  10.701563  11.115650  10.583666
    43  C    8.671962  10.697959  11.858303  12.212556  11.801605
    44  H    9.203109  11.112195  12.212984  12.492975  12.127253
    45  H    8.413989  10.575680  11.796676  12.121796  11.841682
    46  H    9.429472  11.480514  12.649827  13.063084  12.564653
                   26         27         28         29         30
    26  H    0.000000
    27  O   11.063008   0.000000
    28  C   11.226342   1.410417   0.000000
    29  H   10.512080   2.080812   1.096836   0.000000
    30  H   11.298139   2.080834   1.096776   1.788452   0.000000
    31  H   12.217509   2.009011   1.089952   1.781095   1.781128
    32  C    8.297009   6.383587   7.349392   7.500993   7.298084
    33  C    9.509808   6.303621   7.279052   7.618420   7.101587
    34  C    8.189337   7.584667   8.604881   8.705587   8.624903
    35  C   10.495426   7.417283   8.450238   8.872879   8.256664
    36  C    9.290980   8.536065   9.616749   9.820719   9.597803
    37  C   10.399426   8.471085   9.557699   9.906105   9.444377
    38  H    9.812236   5.563840   6.457610   6.869808   6.186277
    39  H    7.379267   7.917663   8.903661   8.879131   9.002253
    40  H   11.445268   7.604161   8.607578   9.141951   8.333853
    41  H    9.443246   9.494893  10.597054  10.764244  10.619765
    42  O   11.482506   9.655976  10.772233  11.174698  10.645945
    43  C   12.647989   9.922362  11.014458  11.533598  10.807357
    44  H   13.061807   9.339756  10.474559  11.062905  10.302929
    45  H   12.557594   9.920393  10.913631  11.439701  10.601274
    46  H   13.404444  10.962129  12.075013  12.601448  11.879352
                   31         32         33         34         35
    31  H    0.000000
    32  C    8.292387   0.000000
    33  C    8.164109   1.386816   0.000000
    34  C    9.531680   1.396945   2.389499   0.000000
    35  C    9.272535   2.419355   1.389687   2.769395   0.000000
    36  C   10.499458   2.412789   2.760178   1.377385   2.398091
    37  C   10.391762   2.800655   2.403586   2.405262   1.386962
    38  H    7.332865   2.140007   1.085772   3.376244   2.142599
    39  H    9.846333   2.148706   3.374349   1.085796   3.855157
    40  H    9.367587   3.389269   2.135626   3.853209   1.084082
    41  H   11.474241   3.401307   3.845570   2.147514   3.374393
    42  O   11.564323   4.160434   3.682081   3.612988   2.435248
    43  C   11.744523   5.026053   4.195071   4.775561   2.806345
    44  H   11.134249   5.078416   4.122477   5.005969   2.793186
    45  H   11.671319   5.078525   4.119902   5.007969   2.797569
    46  H   12.787474   6.007988   5.257725   5.606109   3.874292
                   36         37         38         39         40
    36  C    0.000000
    37  C    1.393012   0.000000
    38  H    3.845924   3.383525   0.000000
    39  H    2.136198   3.387631   4.274419   0.000000
    40  H    3.391636   2.158141   2.445694   4.938964   0.000000
    41  H    1.085484   2.136675   4.931288   2.474977   4.282047
    42  O    2.338103   1.362511   4.570472   4.473681   2.730923
    43  C    3.627962   2.371461   4.845435   5.729449   2.520071
    44  H    3.999431   2.699797   4.640380   5.998299   2.310212
    45  H    3.996616   2.699366   4.635523   6.002628   2.316798
    46  H    4.346811   3.253143   5.933872   6.482621   3.600444
                   41         42         43         44         45
    41  H    0.000000
    42  O    2.526122   0.000000
    43  C    3.933465   1.410363   0.000000
    44  H    4.432832   2.080837   1.096842   0.000000
    45  H    4.430877   2.080773   1.096798   1.788470   0.000000
    46  H    4.414039   2.008991   1.089958   1.781086   1.781119
                   46
    46  H    0.000000
 Stoichiometry    C21H21NO3
 Framework group  C1[X(C21H21NO3)]
 Deg. of freedom   132
 Full point group                 C1      NOp   1
 Largest Abelian subgroup         C1      NOp   1
 Largest concise Abelian subgroup C1      NOp   1
                         Standard orientation:                         
 ---------------------------------------------------------------------
 Center     Atomic      Atomic             Coordinates (Angstroms)
 Number     Number       Type             X           Y           Z
 ---------------------------------------------------------------------
      1          7           0       -0.054086   -0.063852    0.077784
      2          6           0        0.275154    1.311734    0.103506
      3          6           0        1.260864    1.827996   -0.723750
      4          6           0       -0.386136    2.184815    0.970218
      5          6           0        1.598383    3.175646   -0.688444
      6          6           0       -0.074578    3.526309    0.994438
      7          6           0        0.925199    4.034430    0.167909
      8          1           0        1.784639    1.164376   -1.405148
      9          1           0       -1.158634    1.797039    1.627427
     10          1           0        2.379443    3.537518   -1.347421
     11          1           0       -0.588854    4.206820    1.665799
     12          6           0        0.970368   -1.034170   -0.019727
     13          6           0        2.134785   -0.917605    0.724871
     14          6           0        0.835798   -2.133662   -0.869883
     15          6           0        3.151989   -1.858173    0.623575
     16          6           0        1.829783   -3.083911   -0.958163
     17          6           0        3.000538   -2.952780   -0.215611
     18          1           0        2.255494   -0.070395    1.393250
     19          1           0       -0.067506   -2.240735   -1.462783
     20          1           0        4.048238   -1.726663    1.219136
     21          1           0        1.725248   -3.941045   -1.615932
     22          8           0        3.928452   -3.936732   -0.380204
     23          6           0        5.121819   -3.840278    0.365278
     24          1           0        5.681123   -2.930405    0.115451
     25          1           0        4.925954   -3.859222    1.444250
     26          1           0        5.719913   -4.710923    0.096466
     27          8           0        1.168219    5.370782    0.273837
     28          6           0        2.170457    5.919716   -0.552884
     29          1           0        3.151069    5.472721   -0.348812
     30          1           0        1.930215    5.794071   -1.615623
     31          1           0        2.208574    6.983731   -0.319613
     32          6           0       -1.409258   -0.466483    0.091838
     33          6           0       -2.372325    0.232607   -0.620224
     34          6           0       -1.812213   -1.581496    0.830640
     35          6           0       -3.707828   -0.150755   -0.593850
     36          6           0       -3.129962   -1.982236    0.842322
     37          6           0       -4.092694   -1.267170    0.133583
     38          1           0       -2.078678    1.100647   -1.202616
     39          1           0       -1.073245   -2.139336    1.397822
     40          1           0       -4.429565    0.427687   -1.159301
     41          1           0       -3.443944   -2.850000    1.413878
     42          8           0       -5.369584   -1.734983    0.218075
     43          6           0       -6.368506   -1.037348   -0.492266
     44          1           0       -6.460713   -0.000869   -0.145468
     45          1           0       -6.173119   -1.041209   -1.571513
     46          1           0       -7.303574   -1.562500   -0.297656
 ---------------------------------------------------------------------
 Rotational constants (GHZ):           0.1829468           0.1651743           0.0911050
 Leave Link  202 at Sat Jan 16 23:53:13 2021, MaxMem=  4026531840 cpu:               0.3 elap:               0.1
 (Enter /opt/ohpc/pub/libs/gaussian/g16-A.03/sandybridge/g16/l301.exe)
 Standard basis: TZVP (5D, 7F)
 Ernie: Thresh=  0.10000D-02 Tol=  0.10000D-05 Strict=F.
 There are   626 symmetry adapted cartesian basis functions of A   symmetry.
 There are   601 symmetry adapted basis functions of A   symmetry.
   601 basis functions,  1043 primitive gaussians,   626 cartesian basis functions
    89 alpha electrons       89 beta electrons
       nuclear repulsion energy      2056.6778086010 Hartrees.
 IExCor=33909 DFT=T Ex+Corr=LC-wHPBE ExCW=0 ScaHFX=  1.000000
 ScaDFX=  1.000000  1.000000  1.000000  1.000000 ScalE2=  1.000000  1.000000
 IRadAn=      5 IRanWt=     -1 IRanGd=            0 ICorTp=0 IEmpDi=  4
 HFx  wShort=  0.000000 wLong=  0.328100 cFull=  0.000000 cShort=  0.000000 cLong=  1.000000
 DFx  wShort=  0.000000 wLong=  0.328100 cFull=  0.000000 cShort=  1.000000 cLong=  0.000000
 NAtoms=   46 NActive=   46 NUniq=   46 SFac= 1.00D+00 NAtFMM=   60 NAOKFM=F Big=F
 Integral buffers will be    131072 words long.
 Raffenetti 2 integral format.
 Two-electron integral symmetry is turned on.
 Leave Link  301 at Sat Jan 16 23:53:13 2021, MaxMem=  4026531840 cpu:               0.4 elap:               0.1
 (Enter /opt/ohpc/pub/libs/gaussian/g16-A.03/sandybridge/g16/l302.exe)
 NPDir=0 NMtPBC=     1 NCelOv=     1 NCel=       1 NClECP=     1 NCelD=      1
         NCelK=      1 NCelE2=     1 NClLst=     1 CellRange=     0.0.
 One-electron integrals computed using PRISM.
 One-electron integral symmetry used in STVInt
 NBasis=   601 RedAO= T EigKep=  7.47D-06  NBF=   601
 NBsUse=   601 1.00D-06 EigRej= -1.00D+00 NBFU=   601
 Precomputing XC quadrature grid using
 IXCGrd= 4 IRadAn=           5 IRanWt=          -1 IRanGd=           0 AccXCQ= 0.00D+00.
 Generated NRdTot=       0 NPtTot=           0 NUsed=           0 NTot=          32
 NSgBfM=   597   597   597   597   597 MxSgAt=    46 MxSgA2=    46.
 Leave Link  302 at Sat Jan 16 23:53:17 2021, MaxMem=  4026531840 cpu:              27.3 elap:               3.9
 (Enter /opt/ohpc/pub/libs/gaussian/g16-A.03/sandybridge/g16/l303.exe)
 DipDrv:  MaxL=1.
 Leave Link  303 at Sat Jan 16 23:53:17 2021, MaxMem=  4026531840 cpu:               0.9 elap:               0.1
 (Enter /opt/ohpc/pub/libs/gaussian/g16-A.03/sandybridge/g16/l401.exe)
 ExpMin= 9.52D-02 ExpMax= 2.70D+04 ExpMxC= 9.22D+02 IAcc=3 IRadAn=         5 AccDes= 0.00D+00
 Harris functional with IExCor=33909 and IRadAn=       5 diagonalized for initial guess.
 HarFok:  IExCor=33909 AccDes= 0.00D+00 IRadAn=         5 IDoV= 1 UseB2=F ITyADJ=14
 ICtDFT=  3500011 ScaDFX=  1.000000  1.000000  1.000000  1.000000
 FoFCou: FMM=F IPFlag=           0 FMFlag=      100000 FMFlg1=           0
         NFxFlg=           0 DoJE=T BraDBF=F KetDBF=T FulRan=T
         wScrn=  0.000000 ICntrl=       500 IOpCl=  0 I1Cent=   200000004 NGrid=           0
         NMat0=    1 NMatS0=      1 NMatT0=    0 NMatD0=    1 NMtDS0=    0 NMtDT0=    0
 Petite list used in FoFCou.
 Harris En= -1063.03193787218    
 JPrj=0 DoOrth=F DoCkMO=F.
 Leave Link  401 at Sat Jan 16 23:53:25 2021, MaxMem=  4026531840 cpu:              57.2 elap:               8.2
 (Enter /opt/ohpc/pub/libs/gaussian/g16-A.03/sandybridge/g16/l502.exe)
 Integral symmetry usage will be decided dynamically.
 Closed shell SCF:
 Using DIIS extrapolation, IDIIS=    10.
 NGot=  4026531840 LenX=  4025736816 LenY=  4025344314
 Requested convergence on RMS density matrix=1.00D-06 within  32 cycles.
 Requested convergence on MAX density matrix=1.00D-04.
 Requested convergence on             energy=1.00D-04.
 Virtual orbitals will be shifted by   0.500 hartree.
 No special actions if energy rises.
 Dynamic level shift is on during FON iterations.

 Cycle   1  Pass 1  IDiag  1:
 FoFJK:  IHMeth= 1 ICntrl=       0 DoSepK=T KAlg= 0 I1Cent=           0 FoldK=F
 IRaf=         1 NMat=       1 IRICut=       1 DoRegI=T DoRafI=F ISym2E= 0 IDoP0=0 IntGTp=1.
 FoFCou: FMM=F IPFlag=           0 FMFlag=      100000 FMFlg1=           0
         NFxFlg=           0 DoJE=T BraDBF=F KetDBF=F FulRan=T
         wScrn=  0.000000 ICntrl=       500 IOpCl=  0 I1Cent=           0 NGrid=           0
         NMat0=    1 NMatS0=      1 NMatT0=    0 NMatD0=    1 NMtDS0=    0 NMtDT0=    0
 Symmetry not used in FoFCou.
 E= -1092.48759910908    
 DIIS: error= 2.43D-02 at cycle   1 NSaved=   1.
 NSaved= 1 IEnMin= 1 EnMin= -1092.48759910908     IErMin= 1 ErrMin= 2.43D-02
 ErrMax= 2.43D-02  0.00D+00 EMaxC= 1.00D+00 BMatC= 3.16D-01 BMatP= 3.16D-01
 IDIUse=1 WtCom= 1.00D+00 WtEn= 0.00D+00
 Coeff-Com:  0.100D+01
 Coeff:      0.100D+01
 Gap=     0.339 Goal=   None    Shift=    0.500
 T= 1369. Gap= 0.810 NK=0 IS=   90 IE=  601 IFin=   89
          NO(<0.9)=   0  NV(>0.1)=   0     89.00e < EF      0.00e >EF  Err=0.0D+00
 GapD=    0.339 DampG=1.000 DampE=0.500 DampFc=0.5000 IDamp=-1.
 Damping current iteration by 5.00D-01
 RMSDP=1.60D-03 MaxDP=5.87D-02              OVMax= 5.49D-02

 Cycle   2  Pass 1  IDiag  1:
 E= -1092.65892581285     Delta-E=       -0.171326703770 Rises=F Damp=T
 DIIS: error= 1.08D-02 at cycle   2 NSaved=   2.
 NSaved= 2 IEnMin= 2 EnMin= -1092.65892581285     IErMin= 2 ErrMin= 1.08D-02
 ErrMax= 1.08D-02  0.00D+00 EMaxC= 1.00D+00 BMatC= 6.22D-02 BMatP= 3.16D-01
 IDIUse=1 WtCom= 1.00D+00 WtEn= 0.00D+00
 Coeff-Com: -0.671D+00 0.167D+01
 Coeff:     -0.671D+00 0.167D+01
 Gap=     0.304 Goal=   None    Shift=    0.500
 T= 1247. Gap= 0.789 NK=0 IS=   90 IE=  601 IFin=   89
          NO(<0.9)=   0  NV(>0.1)=   0     89.00e < EF      0.00e >EF  Err=0.0D+00
 GapD=    0.304 DampG=1.000 DampE=0.500 DampFc=0.5000 IDamp=-1.
 Damping current iteration by 5.00D-01
 RMSDP=1.12D-03 MaxDP=5.12D-02 DE=-1.71D-01 OVMax= 1.22D-02

 Cycle   3  Pass 1  IDiag  1:
 E= -1092.72265011562     Delta-E=       -0.063724302775 Rises=F Damp=T
 DIIS: error= 4.87D-03 at cycle   3 NSaved=   3.
 NSaved= 3 IEnMin= 3 EnMin= -1092.72265011562     IErMin= 3 ErrMin= 4.87D-03
 ErrMax= 4.87D-03  0.00D+00 EMaxC= 1.00D+00 BMatC= 1.40D-02 BMatP= 6.22D-02
 IDIUse=1 WtCom= 1.00D+00 WtEn= 0.00D+00
 Coeff-Com:  0.342D-01-0.959D+00 0.193D+01
 Coeff:      0.342D-01-0.959D+00 0.193D+01
 Gap=     0.303 Goal=   None    Shift=    0.500
 T= 1009. Gap= 0.802 NK=0 IS=   90 IE=  601 IFin=   89
          NO(<0.9)=   0  NV(>0.1)=   0     89.00e < EF      0.00e >EF  Err=0.0D+00
 GapD=    0.303 DampG=1.000 DampE=1.000 DampFc=1.0000 IDamp=-1.
 RMSDP=7.23D-04 MaxDP=3.18D-02 DE=-6.37D-02 OVMax= 9.50D-03

 Cycle   4  Pass 1  IDiag  1:
 E= -1092.77840201717     Delta-E=       -0.055751901546 Rises=F Damp=F
 DIIS: error= 1.11D-03 at cycle   4 NSaved=   4.
 NSaved= 4 IEnMin= 4 EnMin= -1092.77840201717     IErMin= 4 ErrMin= 1.11D-03
 ErrMax= 1.11D-03  0.00D+00 EMaxC= 1.00D+00 BMatC= 3.22D-04 BMatP= 1.40D-02
 IDIUse=1 WtCom= 1.00D+00 WtEn= 0.00D+00
 Coeff-Com:  0.750D-01-0.178D+00 0.636D-01 0.104D+01
 Coeff:      0.750D-01-0.178D+00 0.636D-01 0.104D+01
 Gap=     0.300 Goal=   None    Shift=    0.500
 T=  488. Gap= 0.800 NK=0 IS=   90 IE=  601 IFin=   89
          NO(<0.9)=   0  NV(>0.1)=   0     89.00e < EF      0.00e >EF  Err=0.0D+00
 GapD=    0.300 DampG=1.000 DampE=1.000 DampFc=1.0000 IDamp=-1.
 RMSDP=1.11D-04 MaxDP=4.16D-03 DE=-5.58D-02 OVMax= 4.98D-03

 Cycle   5  Pass 1  IDiag  1:
 E= -1092.77900149595     Delta-E=       -0.000599478783 Rises=F Damp=F
 DIIS: error= 7.60D-04 at cycle   5 NSaved=   5.
 NSaved= 5 IEnMin= 5 EnMin= -1092.77900149595     IErMin= 5 ErrMin= 7.60D-04
 ErrMax= 7.60D-04  0.00D+00 EMaxC= 1.00D+00 BMatC= 7.44D-05 BMatP= 3.22D-04
 IDIUse=1 WtCom= 1.00D+00 WtEn= 0.00D+00
 Coeff-Com:  0.334D-02 0.102D+00-0.237D+00-0.294D+00 0.143D+01
 Coeff:      0.334D-02 0.102D+00-0.237D+00-0.294D+00 0.143D+01
 Gap=     0.301 Goal=   None    Shift=    0.500
 RMSDP=6.53D-05 MaxDP=2.40D-03 DE=-5.99D-04 OVMax= 4.28D-03

 Cycle   6  Pass 1  IDiag  1:
 E= -1092.77923930090     Delta-E=       -0.000237804951 Rises=F Damp=F
 DIIS: error= 4.88D-04 at cycle   6 NSaved=   6.
 NSaved= 6 IEnMin= 6 EnMin= -1092.77923930090     IErMin= 6 ErrMin= 4.88D-04
 ErrMax= 4.88D-04  0.00D+00 EMaxC= 1.00D+00 BMatC= 2.51D-05 BMatP= 7.44D-05
 IDIUse=1 WtCom= 1.00D+00 WtEn= 0.00D+00
 Coeff-Com: -0.201D-01 0.754D-01-0.831D-01-0.319D+00-0.180D-01 0.137D+01
 Coeff:     -0.201D-01 0.754D-01-0.831D-01-0.319D+00-0.180D-01 0.137D+01
 Gap=     0.301 Goal=   None    Shift=    0.500
 RMSDP=3.93D-05 MaxDP=1.37D-03 DE=-2.38D-04 OVMax= 3.22D-03

 Cycle   7  Pass 1  IDiag  1:
 E= -1092.77933484049     Delta-E=       -0.000095539587 Rises=F Damp=F
 DIIS: error= 3.29D-04 at cycle   7 NSaved=   7.
 NSaved= 7 IEnMin= 7 EnMin= -1092.77933484049     IErMin= 7 ErrMin= 3.29D-04
 ErrMax= 3.29D-04  0.00D+00 EMaxC= 1.00D+00 BMatC= 8.48D-06 BMatP= 2.51D-05
 IDIUse=1 WtCom= 1.00D+00 WtEn= 0.00D+00
 Coeff-Com: -0.678D-02-0.362D-02 0.350D-01 0.470D-01-0.496D+00-0.225D+00
 Coeff-Com:  0.165D+01
 Coeff:     -0.678D-02-0.362D-02 0.350D-01 0.470D-01-0.496D+00-0.225D+00
 Coeff:      0.165D+01
 Gap=     0.302 Goal=   None    Shift=    0.500
 RMSDP=2.39D-05 MaxDP=8.03D-04 DE=-9.55D-05 OVMax= 2.20D-03

 Cycle   8  Pass 1  IDiag  1:
 E= -1092.77937248479     Delta-E=       -0.000037644296 Rises=F Damp=F
 DIIS: error= 2.03D-04 at cycle   8 NSaved=   8.
 NSaved= 8 IEnMin= 8 EnMin= -1092.77937248479     IErMin= 8 ErrMin= 2.03D-04
 ErrMax= 2.03D-04  0.00D+00 EMaxC= 1.00D+00 BMatC= 3.12D-06 BMatP= 8.48D-06
 IDIUse=1 WtCom= 1.00D+00 WtEn= 0.00D+00
 Coeff-Com:  0.750D-03-0.120D-01 0.236D-01 0.107D+00-0.258D+00-0.430D+00
 Coeff-Com:  0.273D+00 0.130D+01
 Coeff:      0.750D-03-0.120D-01 0.236D-01 0.107D+00-0.258D+00-0.430D+00
 Coeff:      0.273D+00 0.130D+01
 Gap=     0.302 Goal=   None    Shift=    0.500
 RMSDP=1.47D-05 MaxDP=7.07D-04 DE=-3.76D-05 OVMax= 1.51D-03

 Cycle   9  Pass 1  IDiag  1:
 E= -1092.77938645583     Delta-E=       -0.000013971042 Rises=F Damp=F
 DIIS: error= 1.28D-04 at cycle   9 NSaved=   9.
 NSaved= 9 IEnMin= 9 EnMin= -1092.77938645583     IErMin= 9 ErrMin= 1.28D-04
 ErrMax= 1.28D-04  0.00D+00 EMaxC= 1.00D+00 BMatC= 1.11D-06 BMatP= 3.12D-06
 IDIUse=1 WtCom= 1.00D+00 WtEn= 0.00D+00
 Coeff-Com:  0.251D-02 0.416D-02-0.178D-01 0.290D-01 0.109D+00-0.776D-01
 Coeff-Com: -0.725D+00-0.108D-01 0.169D+01
 Coeff:      0.251D-02 0.416D-02-0.178D-01 0.290D-01 0.109D+00-0.776D-01
 Coeff:     -0.725D+00-0.108D-01 0.169D+01
 Gap=     0.302 Goal=   None    Shift=    0.500
 RMSDP=9.45D-06 MaxDP=5.40D-04 DE=-1.40D-05 OVMax= 9.96D-04

 Cycle  10  Pass 1  IDiag  1:
 E= -1092.77939173665     Delta-E=       -0.000005280823 Rises=F Damp=F
 DIIS: error= 8.27D-05 at cycle  10 NSaved=  10.
 NSaved=10 IEnMin=10 EnMin= -1092.77939173665     IErMin=10 ErrMin= 8.27D-05
 ErrMax= 8.27D-05  0.00D+00 EMaxC= 1.00D+00 BMatC= 3.97D-07 BMatP= 1.11D-06
 IDIUse=1 WtCom= 1.00D+00 WtEn= 0.00D+00
 Coeff-Com: -0.102D-02 0.691D-02-0.105D-01-0.915D-02 0.368D-01 0.712D-01
 Coeff-Com: -0.867D-01-0.274D+00-0.872D+00 0.214D+01
 Coeff:     -0.102D-02 0.691D-02-0.105D-01-0.915D-02 0.368D-01 0.712D-01
 Coeff:     -0.867D-01-0.274D+00-0.872D+00 0.214D+01
 Gap=     0.302 Goal=   None    Shift=    0.500
 RMSDP=5.63D-06 MaxDP=3.13D-04 DE=-5.28D-06 OVMax= 6.24D-04

 Cycle  11  Pass 1  IDiag  1:
 E= -1092.77939359864     Delta-E=       -0.000001861993 Rises=F Damp=F
 DIIS: error= 5.37D-05 at cycle  11 NSaved=  11.
 NSaved=11 IEnMin=11 EnMin= -1092.77939359864     IErMin=11 ErrMin= 5.37D-05
 ErrMax= 5.37D-05  0.00D+00 EMaxC= 1.00D+00 BMatC= 1.37D-07 BMatP= 3.97D-07
 IDIUse=1 WtCom= 1.00D+00 WtEn= 0.00D+00
 Coeff-Com: -0.875D-03 0.145D-02 0.239D-03-0.403D-02-0.204D-01 0.330D-01
 Coeff-Com:  0.137D+00-0.125D+00-0.512D+00-0.414D+00 0.191D+01
 Coeff:     -0.875D-03 0.145D-02 0.239D-03-0.403D-02-0.204D-01 0.330D-01
 Coeff:      0.137D+00-0.125D+00-0.512D+00-0.414D+00 0.191D+01
 Gap=     0.302 Goal=   None    Shift=    0.500
 RMSDP=3.21D-06 MaxDP=1.52D-04 DE=-1.86D-06 OVMax= 3.95D-04

 Cycle  12  Pass 1  IDiag  1:
 E= -1092.77939423333     Delta-E=       -0.000000634686 Rises=F Damp=F
 DIIS: error= 3.15D-05 at cycle  12 NSaved=  12.
 NSaved=12 IEnMin=12 EnMin= -1092.77939423333     IErMin=12 ErrMin= 3.15D-05
 ErrMax= 3.15D-05  0.00D+00 EMaxC= 1.00D+00 BMatC= 5.04D-08 BMatP= 1.37D-07
 IDIUse=1 WtCom= 1.00D+00 WtEn= 0.00D+00
 Coeff-Com: -0.718D-04-0.113D-02 0.260D-02 0.296D-02-0.231D-01-0.395D-02
 Coeff-Com:  0.819D-01 0.173D-01 0.822D-01-0.112D+01 0.530D+00 0.143D+01
 Coeff:     -0.718D-04-0.113D-02 0.260D-02 0.296D-02-0.231D-01-0.395D-02
 Coeff:      0.819D-01 0.173D-01 0.822D-01-0.112D+01 0.530D+00 0.143D+01
 Gap=     0.302 Goal=   None    Shift=    0.500
 RMSDP=1.80D-06 MaxDP=5.73D-05 DE=-6.35D-07 OVMax= 2.34D-04

 Cycle  13  Pass 1  IDiag  1:
 E= -1092.77939445189     Delta-E=       -0.000000218555 Rises=F Damp=F
 DIIS: error= 1.96D-05 at cycle  13 NSaved=  13.
 NSaved=13 IEnMin=13 EnMin= -1092.77939445189     IErMin=13 ErrMin= 1.96D-05
 ErrMax= 1.96D-05  0.00D+00 EMaxC= 1.00D+00 BMatC= 1.77D-08 BMatP= 5.04D-08
 IDIUse=1 WtCom= 1.00D+00 WtEn= 0.00D+00
 Coeff-Com:  0.195D-03 0.232D-03-0.115D-02 0.286D-02 0.296D-02-0.309D-02
 Coeff-Com: -0.490D-01 0.457D-01 0.168D+00-0.904D-01-0.425D+00-0.999D+00
 Coeff-Com:  0.235D+01
 Coeff:      0.195D-03 0.232D-03-0.115D-02 0.286D-02 0.296D-02-0.309D-02
 Coeff:     -0.490D-01 0.457D-01 0.168D+00-0.904D-01-0.425D+00-0.999D+00
 Coeff:      0.235D+01
 Gap=     0.302 Goal=   None    Shift=    0.500
 RMSDP=1.02D-06 MaxDP=3.88D-05 DE=-2.19D-07 OVMax= 1.45D-04

 Cycle  14  Pass 1  IDiag  1:
 E= -1092.77939452667     Delta-E=       -0.000000074781 Rises=F Damp=F
 DIIS: error= 1.17D-05 at cycle  14 NSaved=  14.
 NSaved=14 IEnMin=14 EnMin= -1092.77939452667     IErMin=14 ErrMin= 1.17D-05
 ErrMax= 1.17D-05  0.00D+00 EMaxC= 1.00D+00 BMatC= 6.05D-09 BMatP= 1.77D-08
 IDIUse=1 WtCom= 1.00D+00 WtEn= 0.00D+00
 Coeff-Com:  0.225D-04 0.384D-03-0.845D-03 0.549D-03 0.246D-02 0.174D-02
 Coeff-Com: -0.175D-01 0.311D-02 0.162D-01 0.118D+00-0.140D+00-0.530D+00
 Coeff-Com: -0.231D+00 0.178D+01
 Coeff:      0.225D-04 0.384D-03-0.845D-03 0.549D-03 0.246D-02 0.174D-02
 Coeff:     -0.175D-01 0.311D-02 0.162D-01 0.118D+00-0.140D+00-0.530D+00
 Coeff:     -0.231D+00 0.178D+01
 Gap=     0.302 Goal=   None    Shift=    0.500
 RMSDP=5.78D-07 MaxDP=2.23D-05 DE=-7.48D-08 OVMax= 8.55D-05

 SCF Done:  E(RLC-wHPBE) =  -1092.77939453     A.U. after   14 cycles
            NFock= 14  Conv=0.58D-06     -V/T= 2.0048
 KE= 1.087519150122D+03 PE=-6.659440851963D+03 EE= 2.422464498714D+03
 Leave Link  502 at Sun Jan 17 00:03:59 2021, MaxMem=  4026531840 cpu:            5038.9 elap:             633.5
 (Enter /opt/ohpc/pub/libs/gaussian/g16-A.03/sandybridge/g16/l508.exe)
 QCSCF skips out because SCF is already converged.
 Leave Link  508 at Sun Jan 17 00:03:59 2021, MaxMem=  4026531840 cpu:               0.0 elap:               0.0
 (Enter /opt/ohpc/pub/libs/gaussian/g16-A.03/sandybridge/g16/l601.exe)
 Copying SCF densities to generalized density rwf, IOpCl= 0 IROHF=0.

 **********************************************************************

            Population analysis using the SCF density.

 **********************************************************************

 Orbital symmetries:
       Occupied  (A) (A) (A) (A) (A) (A) (A) (A) (A) (A) (A) (A)
                 (A) (A) (A) (A) (A) (A) (A) (A) (A) (A) (A) (A)
                 (A) (A) (A) (A) (A) (A) (A) (A) (A) (A) (A) (A)
                 (A) (A) (A) (A) (A) (A) (A) (A) (A) (A) (A) (A)
                 (A) (A) (A) (A) (A) (A) (A) (A) (A) (A) (A) (A)
                 (A) (A) (A) (A) (A) (A) (A) (A) (A) (A) (A) (A)
                 (A) (A) (A) (A) (A) (A) (A) (A) (A) (A) (A) (A)
                 (A) (A) (A) (A) (A)
       Virtual   (A) (A) (A) (A) (A) (A) (A) (A) (A) (A) (A) (A)
                 (A) (A) (A) (A) (A) (A) (A) (A) (A) (A) (A) (A)
                 (A) (A) (A) (A) (A) (A) (A) (A) (A) (A) (A) (A)
                 (A) (A) (A) (A) (A) (A) (A) (A) (A) (A) (A) (A)
                 (A) (A) (A) (A) (A) (A) (A) (A) (A) (A) (A) (A)
                 (A) (A) (A) (A) (A) (A) (A) (A) (A) (A) (A) (A)
                 (A) (A) (A) (A) (A) (A) (A) (A) (A) (A) (A) (A)
                 (A) (A) (A) (A) (A) (A) (A) (A) (A) (A) (A) (A)
                 (A) (A) (A) (A) (A) (A) (A) (A) (A) (A) (A) (A)
                 (A) (A) (A) (A) (A) (A) (A) (A) (A) (A) (A) (A)
                 (A) (A) (A) (A) (A) (A) (A) (A) (A) (A) (A) (A)
                 (A) (A) (A) (A) (A) (A) (A) (A) (A) (A) (A) (A)
                 (A) (A) (A) (A) (A) (A) (A) (A) (A) (A) (A) (A)
                 (A) (A) (A) (A) (A) (A) (A) (A) (A) (A) (A) (A)
                 (A) (A) (A) (A) (A) (A) (A) (A) (A) (A) (A) (A)
                 (A) (A) (A) (A) (A) (A) (A) (A) (A) (A) (A) (A)
                 (A) (A) (A) (A) (A) (A) (A) (A) (A) (A) (A) (A)
                 (A) (A) (A) (A) (A) (A) (A) (A) (A) (A) (A) (A)
                 (A) (A) (A) (A) (A) (A) (A) (A) (A) (A) (A) (A)
                 (A) (A) (A) (A) (A) (A) (A) (A) (A) (A) (A) (A)
                 (A) (A) (A) (A) (A) (A) (A) (A) (A) (A) (A) (A)
                 (A) (A) (A) (A) (A) (A) (A) (A) (A) (A) (A) (A)
                 (A) (A) (A) (A) (A) (A) (A) (A) (A) (A) (A) (A)
                 (A) (A) (A) (A) (A) (A) (A) (A) (A) (A) (A) (A)
                 (A) (A) (A) (A) (A) (A) (A) (A) (A) (A) (A) (A)
                 (A) (A) (A) (A) (A) (A) (A) (A) (A) (A) (A) (A)
                 (A) (A) (A) (A) (A) (A) (A) (A) (A) (A) (A) (A)
                 (A) (A) (A) (A) (A) (A) (A) (A) (A) (A) (A) (A)
                 (A) (A) (A) (A) (A) (A) (A) (A) (A) (A) (A) (A)
                 (A) (A) (A) (A) (A) (A) (A) (A) (A) (A) (A) (A)
                 (A) (A) (A) (A) (A) (A) (A) (A) (A) (A) (A) (A)
                 (A) (A) (A) (A) (A) (A) (A) (A) (A) (A) (A) (A)
                 (A) (A) (A) (A) (A) (A) (A) (A) (A) (A) (A) (A)
                 (A) (A) (A) (A) (A) (A) (A) (A) (A) (A) (A) (A)
                 (A) (A) (A) (A) (A) (A) (A) (A) (A) (A) (A) (A)
                 (A) (A) (A) (A) (A) (A) (A) (A) (A) (A) (A) (A)
                 (A) (A) (A) (A) (A) (A) (A) (A) (A) (A) (A) (A)
                 (A) (A) (A) (A) (A) (A) (A) (A) (A) (A) (A) (A)
                 (A) (A) (A) (A) (A) (A) (A) (A) (A) (A) (A) (A)
                 (A) (A) (A) (A) (A) (A) (A) (A) (A) (A) (A) (A)
                 (A) (A) (A) (A) (A) (A) (A) (A) (A) (A) (A) (A)
                 (A) (A) (A) (A) (A) (A) (A) (A) (A) (A) (A) (A)
                 (A) (A) (A) (A) (A) (A) (A) (A)
 The electronic state is 1-A.
 Alpha  occ. eigenvalues --  -18.95824 -18.95753 -18.95667 -14.18645 -10.12492
 Alpha  occ. eigenvalues --  -10.12423 -10.12327 -10.11886 -10.11823 -10.11735
 Alpha  occ. eigenvalues --  -10.10194 -10.10165 -10.10135 -10.06888 -10.06843
 Alpha  occ. eigenvalues --  -10.06797 -10.06766 -10.06758 -10.06750 -10.06708
 Alpha  occ. eigenvalues --  -10.06667 -10.06641 -10.06465 -10.06399 -10.06339
 Alpha  occ. eigenvalues --   -1.16649  -1.16579  -1.16491  -1.07121  -0.97401
 Alpha  occ. eigenvalues --   -0.97329  -0.95239  -0.87998  -0.87778  -0.86662
 Alpha  occ. eigenvalues --   -0.86430  -0.85937  -0.84580  -0.81564  -0.81156
 Alpha  occ. eigenvalues --   -0.78264  -0.73799  -0.72982  -0.72322  -0.70813
 Alpha  occ. eigenvalues --   -0.70376  -0.67897  -0.65437  -0.65416  -0.64232
 Alpha  occ. eigenvalues --   -0.62217  -0.62077  -0.60194  -0.58585  -0.58407
 Alpha  occ. eigenvalues --   -0.58009  -0.57943  -0.57855  -0.55292  -0.55257
 Alpha  occ. eigenvalues --   -0.55095  -0.53105  -0.52970  -0.52815  -0.52681
 Alpha  occ. eigenvalues --   -0.51709  -0.51617  -0.51437  -0.49684  -0.49591
 Alpha  occ. eigenvalues --   -0.49359  -0.48746  -0.48258  -0.46669  -0.45807
 Alpha  occ. eigenvalues --   -0.45570  -0.44243  -0.43055  -0.42900  -0.42530
 Alpha  occ. eigenvalues --   -0.42296  -0.42196  -0.37653  -0.35977  -0.35104
 Alpha  occ. eigenvalues --   -0.34863  -0.32082  -0.31852  -0.25268
 Alpha virt. eigenvalues --    0.04909   0.06833   0.06949   0.07524   0.07722
 Alpha virt. eigenvalues --    0.11833   0.12135   0.12543   0.12583   0.14395
 Alpha virt. eigenvalues --    0.14601   0.14738   0.16093   0.16353   0.16632
 Alpha virt. eigenvalues --    0.16879   0.17609   0.17829   0.18193   0.18789
 Alpha virt. eigenvalues --    0.18995   0.19164   0.19671   0.19816   0.19991
 Alpha virt. eigenvalues --    0.20181   0.20529   0.21244   0.21670   0.21843
 Alpha virt. eigenvalues --    0.23803   0.23904   0.25146   0.25284   0.26762
 Alpha virt. eigenvalues --    0.27124   0.27920   0.28265   0.28551   0.28994
 Alpha virt. eigenvalues --    0.29468   0.29662   0.29813   0.30000   0.30192
 Alpha virt. eigenvalues --    0.30308   0.30394   0.30933   0.31332   0.31885
 Alpha virt. eigenvalues --    0.32118   0.33266   0.33462   0.33646   0.33704
 Alpha virt. eigenvalues --    0.34964   0.35367   0.35689   0.36569   0.36743
 Alpha virt. eigenvalues --    0.37237   0.37657   0.37957   0.38744   0.38989
 Alpha virt. eigenvalues --    0.39593   0.39756   0.40099   0.40200   0.41727
 Alpha virt. eigenvalues --    0.42074   0.42182   0.42351   0.43197   0.44109
 Alpha virt. eigenvalues --    0.44201   0.44847   0.45083   0.45288   0.45815
 Alpha virt. eigenvalues --    0.46001   0.46187   0.46789   0.47674   0.47861
 Alpha virt. eigenvalues --    0.47886   0.48147   0.48642   0.48902   0.49152
 Alpha virt. eigenvalues --    0.49413   0.49617   0.49909   0.50635   0.50793
 Alpha virt. eigenvalues --    0.51164   0.51389   0.51698   0.52031   0.52270
 Alpha virt. eigenvalues --    0.52644   0.52856   0.53079   0.54209   0.54671
 Alpha virt. eigenvalues --    0.54801   0.54992   0.55220   0.55384   0.55516
 Alpha virt. eigenvalues --    0.56038   0.56055   0.56834   0.57164   0.57767
 Alpha virt. eigenvalues --    0.58326   0.58479   0.58630   0.59111   0.59553
 Alpha virt. eigenvalues --    0.59698   0.59970   0.60850   0.61581   0.62880
 Alpha virt. eigenvalues --    0.63777   0.64464   0.64812   0.65315   0.65442
 Alpha virt. eigenvalues --    0.66157   0.67454   0.69313   0.69840   0.70352
 Alpha virt. eigenvalues --    0.71177   0.72041   0.72515   0.73235   0.73667
 Alpha virt. eigenvalues --    0.73764   0.74244   0.74811   0.75055   0.75555
 Alpha virt. eigenvalues --    0.76875   0.77070   0.77406   0.78438   0.79403
 Alpha virt. eigenvalues --    0.81033   0.81200   0.81544   0.81906   0.82409
 Alpha virt. eigenvalues --    0.82639   0.82885   0.83333   0.84744   0.84964
 Alpha virt. eigenvalues --    0.85729   0.87684   0.87931   0.88669   0.89537
 Alpha virt. eigenvalues --    0.90869   0.91318   0.93636   0.93788   0.95470
 Alpha virt. eigenvalues --    0.97091   0.97499   1.00261   1.00933   1.01047
 Alpha virt. eigenvalues --    1.03156   1.03473   1.05191   1.23324   1.25542
 Alpha virt. eigenvalues --    1.25790   1.27837   1.28118   1.28643   1.32410
 Alpha virt. eigenvalues --    1.32777   1.33180   1.33423   1.34007   1.34691
 Alpha virt. eigenvalues --    1.34835   1.35105   1.35671   1.35869   1.36293
 Alpha virt. eigenvalues --    1.37091   1.37418   1.37808   1.38096   1.38857
 Alpha virt. eigenvalues --    1.38946   1.39509   1.39944   1.40211   1.41170
 Alpha virt. eigenvalues --    1.41632   1.42637   1.43031   1.43353   1.43600
 Alpha virt. eigenvalues --    1.44134   1.44695   1.45521   1.46336   1.46608
 Alpha virt. eigenvalues --    1.48927   1.49197   1.49478   1.50519   1.50671
 Alpha virt. eigenvalues --    1.51101   1.51986   1.52174   1.52548   1.52725
 Alpha virt. eigenvalues --    1.52991   1.53603   1.54062   1.54428   1.54749
 Alpha virt. eigenvalues --    1.54979   1.55365   1.56879   1.57183   1.57564
 Alpha virt. eigenvalues --    1.57862   1.58340   1.58895   1.59279   1.60376
 Alpha virt. eigenvalues --    1.60621   1.60999   1.61076   1.61095   1.61385
 Alpha virt. eigenvalues --    1.61560   1.62152   1.62682   1.63158   1.63439
 Alpha virt. eigenvalues --    1.63792   1.64201   1.65053   1.65564   1.65891
 Alpha virt. eigenvalues --    1.66363   1.66628   1.66684   1.67562   1.68442
 Alpha virt. eigenvalues --    1.68656   1.69496   1.70016   1.70477   1.71014
 Alpha virt. eigenvalues --    1.72655   1.74016   1.74186   1.76308   1.76753
 Alpha virt. eigenvalues --    1.77079   1.77955   1.78239   1.78392   1.82373
 Alpha virt. eigenvalues --    1.83186   1.84731   1.84800   1.84915   1.85332
 Alpha virt. eigenvalues --    1.85757   1.86599   1.86999   1.87442   1.88003
 Alpha virt. eigenvalues --    1.88119   1.88254   1.88366   1.88637   1.88823
 Alpha virt. eigenvalues --    1.89890   1.89934   1.90764   1.91018   1.92213
 Alpha virt. eigenvalues --    1.92506   1.92964   1.93181   1.94672   1.95406
 Alpha virt. eigenvalues --    1.96133   1.96700   1.97592   1.98028   1.99547
 Alpha virt. eigenvalues --    1.99966   2.00179   2.00291   2.01073   2.01750
 Alpha virt. eigenvalues --    2.02063   2.02282   2.02403   2.02683   2.02904
 Alpha virt. eigenvalues --    2.03087   2.04604   2.09638   2.10207   2.10581
 Alpha virt. eigenvalues --    2.12634   2.12787   2.13577   2.14371   2.14597
 Alpha virt. eigenvalues --    2.15505   2.18398   2.19123   2.19732   2.21079
 Alpha virt. eigenvalues --    2.22330   2.23015   2.24461   2.25381   2.28482
 Alpha virt. eigenvalues --    2.28594   2.28752   2.29169   2.29268   2.30012
 Alpha virt. eigenvalues --    2.30740   2.32118   2.32627   2.35124   2.38257
 Alpha virt. eigenvalues --    2.38489   2.38674   2.39548   2.39655   2.39694
 Alpha virt. eigenvalues --    2.40346   2.40758   2.42099   2.42520   2.43677
 Alpha virt. eigenvalues --    2.43805   2.43919   2.44263   2.44435   2.44839
 Alpha virt. eigenvalues --    2.45273   2.46066   2.47049   2.47097   2.47818
 Alpha virt. eigenvalues --    2.47910   2.48007   2.48046   2.48373   2.48535
 Alpha virt. eigenvalues --    2.48747   2.53646   2.53693   2.56517   2.56899
 Alpha virt. eigenvalues --    2.57211   2.57795   2.58287   2.58819   2.59386
 Alpha virt. eigenvalues --    2.63957   2.64108   2.64997   2.65050   2.65137
 Alpha virt. eigenvalues --    2.67768   2.67848   2.69155   2.70091   2.70568
 Alpha virt. eigenvalues --    2.71200   2.72533   2.73234   2.73332   2.73441
 Alpha virt. eigenvalues --    2.75837   2.76124   2.79729   2.79843   2.80858
 Alpha virt. eigenvalues --    2.81091   2.81433   2.81512   2.83108   2.83283
 Alpha virt. eigenvalues --    2.84196   2.84598   2.86503   2.86774   2.86983
 Alpha virt. eigenvalues --    2.87374   2.89563   2.91558   2.92928   2.93538
 Alpha virt. eigenvalues --    2.96907   2.97528   2.98027   2.98306   3.03660
 Alpha virt. eigenvalues --    3.03713   3.04535   3.04796   3.04973   3.08236
 Alpha virt. eigenvalues --    3.08319   3.08487   3.09256   3.10146   3.12799
 Alpha virt. eigenvalues --    3.13358   3.13579   3.14003   3.14454   3.15621
 Alpha virt. eigenvalues --    3.15968   3.16051   3.16122   3.16257   3.17054
 Alpha virt. eigenvalues --    3.19213   3.19530   3.22080   3.24054   3.24550
 Alpha virt. eigenvalues --    3.24771   3.25994   3.26236   3.28737   3.29927
 Alpha virt. eigenvalues --    3.30475   3.34377   3.34855   3.35334   3.36339
 Alpha virt. eigenvalues --    3.36448   3.36970   3.37042   3.37130   3.37230
 Alpha virt. eigenvalues --    3.38089   3.40559   3.40758   3.41597   3.45056
 Alpha virt. eigenvalues --    3.45219   3.45852   3.46745   3.47472   3.50259
 Alpha virt. eigenvalues --    3.51268   3.52845   3.55567   3.64497   3.64861
 Alpha virt. eigenvalues --    3.65257   3.67333   3.67676   3.80028   3.94225
 Alpha virt. eigenvalues --    3.94577   4.05182   4.05585   4.05841   4.26141
 Alpha virt. eigenvalues --    4.26901   4.26954  21.34564  21.36242  21.36380
 Alpha virt. eigenvalues --   21.78824  21.82187  21.82630  21.87424  21.89775
 Alpha virt. eigenvalues --   21.89864  21.89993  21.95447  21.96419  22.01724
 Alpha virt. eigenvalues --   22.05881  22.06579  22.07498  22.11497  22.12975
 Alpha virt. eigenvalues --   22.18346  22.25942  22.26670  32.16581  43.43932
 Alpha virt. eigenvalues --   43.44039  43.44126
          Condensed to atoms (all electrons):
               1          2          3          4          5          6
     1  N    6.647952   0.104854  -0.008746   0.001726   0.029886   0.016916
     2  C    0.104854   5.452792   0.426251   0.346472  -0.006299   0.014977
     3  C   -0.008746   0.426251   5.393231  -0.171423   0.067466  -0.026524
     4  C    0.001726   0.346472  -0.171423   5.350148  -0.040962   0.240130
     5  C    0.029886  -0.006299   0.067466  -0.040962   5.916379  -0.233139
     6  C    0.016916   0.014977  -0.026524   0.240130  -0.233139   5.537093
     7  C    0.002275  -0.122288   0.043575   0.007350   0.230161   0.407180
     8  H   -0.007582  -0.011746   0.382483   0.007998  -0.030809   0.001140
     9  H   -0.005547  -0.035233   0.012396   0.414670  -0.002739  -0.052599
    10  H   -0.000568   0.003825   0.032996   0.006251   0.349719  -0.005963
    11  H   -0.000454   0.014280  -0.002251  -0.041514   0.013479   0.423501
    12  C    0.109976  -0.051036   0.034257  -0.019980  -0.006871  -0.003578
    13  C   -0.008029   0.036550  -0.081747   0.023029  -0.007369   0.003128
    14  C   -0.002616  -0.021830   0.023100  -0.014327   0.002646  -0.000123
    15  C    0.027222  -0.005695  -0.006774   0.002544   0.000303  -0.000037
    16  C    0.017970  -0.003696   0.003429  -0.000169  -0.000010  -0.000079
    17  C    0.002217   0.001928  -0.001936   0.000024  -0.000119   0.000037
    18  H   -0.006606   0.001881   0.001941  -0.003053  -0.003007   0.001021
    19  H   -0.006226  -0.002159   0.000616  -0.000425   0.000013   0.000023
    20  H   -0.000539  -0.000057   0.000144  -0.000048   0.000033  -0.000001
    21  H   -0.000450   0.000021  -0.000026   0.000002  -0.000002   0.000000
    22  O   -0.000003   0.000007  -0.000005   0.000000  -0.000000  -0.000000
    23  C   -0.000000  -0.000012  -0.000003  -0.000000   0.000001   0.000000
    24  H    0.000002   0.000001   0.000012  -0.000000   0.000000   0.000000
    25  H    0.000000  -0.000003  -0.000001   0.000000   0.000000  -0.000000
    26  H   -0.000000   0.000000  -0.000000   0.000000  -0.000000   0.000000
    27  O   -0.000002  -0.000170   0.011265   0.006011  -0.114687  -0.095747
    28  C    0.000001   0.002006  -0.011113  -0.001004   0.023001   0.005425
    29  H    0.000001   0.000348  -0.001012  -0.000060   0.014707  -0.002203
    30  H    0.000000  -0.000095  -0.000767   0.000161   0.011254  -0.001230
    31  H   -0.000000  -0.000065   0.000321   0.000173  -0.000772  -0.000090
    32  C    0.117710  -0.054633  -0.022780   0.038161  -0.004962  -0.000743
    33  C   -0.011613   0.036961   0.024005  -0.083947   0.004243  -0.007245
    34  C   -0.000230  -0.014746  -0.014093   0.021553  -0.000167   0.001745
    35  C    0.027392  -0.006002   0.002427  -0.008034   0.000087  -0.000044
    36  C    0.015300  -0.003157  -0.000307   0.003384  -0.000096  -0.000038
    37  C    0.002633   0.001995   0.000092  -0.002124   0.000046  -0.000132
    38  H   -0.006945   0.000439  -0.003478   0.002460   0.001302  -0.002291
    39  H   -0.005416  -0.001643  -0.000379   0.000487   0.000023   0.000018
    40  H   -0.000550  -0.000025  -0.000051   0.000147  -0.000004   0.000037
    41  H   -0.000432   0.000012   0.000002  -0.000017   0.000000  -0.000001
    42  O   -0.000002   0.000006   0.000000  -0.000003  -0.000000  -0.000000
    43  C    0.000000  -0.000012  -0.000000  -0.000005   0.000000   0.000000
    44  H    0.000001   0.000001  -0.000000   0.000010  -0.000000   0.000000
    45  H    0.000000  -0.000004   0.000000  -0.000001   0.000000   0.000000
    46  H   -0.000000   0.000000   0.000000  -0.000000   0.000000  -0.000000
               7          8          9         10         11         12
     1  N    0.002275  -0.007582  -0.005547  -0.000568  -0.000454   0.109976
     2  C   -0.122288  -0.011746  -0.035233   0.003825   0.014280  -0.051036
     3  C    0.043575   0.382483   0.012396   0.032996  -0.002251   0.034257
     4  C    0.007350   0.007998   0.414670   0.006251  -0.041514  -0.019980
     5  C    0.230161  -0.030809  -0.002739   0.349719   0.013479  -0.006871
     6  C    0.407180   0.001140  -0.052599  -0.005963   0.423501  -0.003578
     7  C    5.104404   0.005034   0.014586  -0.041869  -0.067303   0.002047
     8  H    0.005034   0.494095  -0.000186  -0.001903   0.000016   0.002187
     9  H    0.014586  -0.000186   0.500567   0.000017  -0.006571  -0.001589
    10  H   -0.041869  -0.001903   0.000017   0.496617  -0.000208  -0.000045
    11  H   -0.067303   0.000016  -0.006571  -0.000208   0.530319   0.000010
    12  C    0.002047   0.002187  -0.001589  -0.000045   0.000010   5.445229
    13  C   -0.001882   0.002102   0.000520   0.000142  -0.000024   0.421764
    14  C    0.000024  -0.003043  -0.000430  -0.000050   0.000003   0.347313
    15  C   -0.000111  -0.003050   0.000015   0.000032  -0.000002  -0.002155
    16  C    0.000037   0.001101   0.000021  -0.000001   0.000000   0.012639
    17  C   -0.000020   0.000170  -0.000007  -0.000001   0.000000  -0.121667
    18  H    0.000162   0.000849  -0.000050  -0.000015   0.000007  -0.013608
    19  H   -0.000007  -0.000075  -0.000018  -0.000000  -0.000000  -0.034732
    20  H   -0.000001  -0.000015  -0.000000   0.000000   0.000000   0.004045
    21  H    0.000000   0.000010   0.000000   0.000000  -0.000000   0.013911
    22  O    0.000000   0.000002   0.000000  -0.000000  -0.000000  -0.000236
    23  C   -0.000000  -0.000009  -0.000000   0.000000  -0.000000   0.002029
    24  H   -0.000000  -0.000000   0.000000   0.000000   0.000000   0.000356
    25  H    0.000000  -0.000000  -0.000000  -0.000000  -0.000000  -0.000102
    26  H   -0.000000  -0.000000  -0.000000   0.000000   0.000000  -0.000065
    27  O    0.437481  -0.000061  -0.000073  -0.006574   0.002915   0.000006
    28  C   -0.118489  -0.000209   0.000027   0.011431   0.000427  -0.000013
    29  H   -0.020800  -0.000054  -0.000000  -0.000396   0.000008   0.000002
    30  H   -0.018224  -0.000002  -0.000001  -0.001193   0.000085  -0.000004
    31  H    0.009738   0.000003   0.000001   0.000059  -0.000123   0.000000
    32  C    0.001994  -0.000935   0.001130   0.000026  -0.000160  -0.060991
    33  C   -0.001845   0.000317   0.000689  -0.000042   0.000086  -0.017403
    34  C    0.000042  -0.000407  -0.002300   0.000003  -0.000024   0.040952
    35  C   -0.000156  -0.000014  -0.002895  -0.000002   0.000022  -0.004581
    36  C    0.000031   0.000020   0.001030   0.000000  -0.000002  -0.000095
    37  C   -0.000014  -0.000007   0.000191  -0.000000  -0.000000   0.001986
    38  H    0.000509  -0.000009   0.000980   0.000005  -0.000031  -0.001032
    39  H   -0.000005  -0.000015  -0.000064  -0.000000   0.000000  -0.000114
    40  H   -0.000001  -0.000000  -0.000014   0.000000  -0.000000   0.000027
    41  H    0.000000   0.000000   0.000005  -0.000000  -0.000000  -0.000155
    42  O    0.000000   0.000000   0.000001  -0.000000  -0.000000  -0.000005
    43  C   -0.000000  -0.000000  -0.000009  -0.000000   0.000000   0.000001
    44  H   -0.000000   0.000000   0.000000   0.000000   0.000000  -0.000001
    45  H    0.000000  -0.000000  -0.000000  -0.000000   0.000000   0.000002
    46  H   -0.000000  -0.000000  -0.000000   0.000000   0.000000  -0.000000
              13         14         15         16         17         18
     1  N   -0.008029  -0.002616   0.027222   0.017970   0.002217  -0.006606
     2  C    0.036550  -0.021830  -0.005695  -0.003696   0.001928   0.001881
     3  C   -0.081747   0.023100  -0.006774   0.003429  -0.001936   0.001941
     4  C    0.023029  -0.014327   0.002544  -0.000169   0.000024  -0.003053
     5  C   -0.007369   0.002646   0.000303  -0.000010  -0.000119  -0.003007
     6  C    0.003128  -0.000123  -0.000037  -0.000079   0.000037   0.001021
     7  C   -0.001882   0.000024  -0.000111   0.000037  -0.000020   0.000162
     8  H    0.002102  -0.003043  -0.003050   0.001101   0.000170   0.000849
     9  H    0.000520  -0.000430   0.000015   0.000021  -0.000007  -0.000050
    10  H    0.000142  -0.000050   0.000032  -0.000001  -0.000001  -0.000015
    11  H   -0.000024   0.000003  -0.000002   0.000000   0.000000   0.000007
    12  C    0.421764   0.347313  -0.002155   0.012639  -0.121667  -0.013608
    13  C    5.396373  -0.172348   0.070215  -0.025619   0.045962   0.383275
    14  C   -0.172348   5.354145  -0.038113   0.242002   0.003536   0.007754
    15  C    0.070215  -0.038113   5.909788  -0.235570   0.227973  -0.030231
    16  C   -0.025619   0.242002  -0.235570   5.531302   0.413101   0.001138
    17  C    0.045962   0.003536   0.227973   0.413101   5.101584   0.005267
    18  H    0.383275   0.007754  -0.030231   0.001138   0.005267   0.494434
    19  H    0.012321   0.412042  -0.002562  -0.050201   0.014094  -0.000185
    20  H    0.031544   0.006136   0.350825  -0.005852  -0.041774  -0.002063
    21  H   -0.002180  -0.040695   0.013343   0.422646  -0.066522   0.000016
    22  O    0.011367   0.006202  -0.114757  -0.095968   0.437574  -0.000059
    23  C   -0.011041  -0.001009   0.023147   0.005344  -0.118653  -0.000212
    24  H   -0.001030  -0.000079   0.014657  -0.002155  -0.020792  -0.000057
    25  H   -0.000769   0.000179   0.011229  -0.001290  -0.018186   0.000001
    26  H    0.000320   0.000173  -0.000778  -0.000083   0.009754   0.000003
    27  O   -0.000004   0.000000  -0.000000  -0.000000   0.000000   0.000002
    28  C   -0.000003  -0.000000   0.000001   0.000000  -0.000000  -0.000009
    29  H    0.000011  -0.000000   0.000000   0.000000  -0.000000  -0.000000
    30  H   -0.000001   0.000000   0.000000  -0.000000   0.000000  -0.000000
    31  H   -0.000000   0.000000  -0.000000   0.000000  -0.000000  -0.000000
    32  C   -0.016893   0.040080  -0.004393  -0.000739   0.002140  -0.000479
    33  C   -0.014096   0.023248  -0.000293   0.001645   0.000105  -0.000372
    34  C    0.022870  -0.085975   0.003975  -0.008277  -0.001911   0.000244
    35  C   -0.000327   0.004169  -0.000109   0.000031   0.000034   0.000018
    36  C    0.001599  -0.007904  -0.000001  -0.000277  -0.000148  -0.000002
    37  C    0.000104  -0.001921   0.000035  -0.000154  -0.000007  -0.000004
    38  H   -0.000370   0.000355   0.000021  -0.000004  -0.000004  -0.000012
    39  H   -0.002800   0.001355   0.001235  -0.002213   0.000512  -0.000004
    40  H    0.000003  -0.000035   0.000000  -0.000002   0.000000   0.000000
    41  H   -0.000026   0.000079  -0.000004   0.000025  -0.000001  -0.000000
    42  O    0.000000   0.000008  -0.000000   0.000000   0.000000   0.000000
    43  C   -0.000000  -0.000002  -0.000000  -0.000000   0.000000   0.000000
    44  H    0.000000   0.000000   0.000000  -0.000000   0.000000  -0.000000
    45  H   -0.000000  -0.000002  -0.000000  -0.000000   0.000000   0.000000
    46  H   -0.000000   0.000000  -0.000000   0.000000   0.000000  -0.000000
              19         20         21         22         23         24
     1  N   -0.006226  -0.000539  -0.000450  -0.000003  -0.000000   0.000002
     2  C   -0.002159  -0.000057   0.000021   0.000007  -0.000012   0.000001
     3  C    0.000616   0.000144  -0.000026  -0.000005  -0.000003   0.000012
     4  C   -0.000425  -0.000048   0.000002   0.000000  -0.000000  -0.000000
     5  C    0.000013   0.000033  -0.000002  -0.000000   0.000001   0.000000
     6  C    0.000023  -0.000001   0.000000  -0.000000   0.000000   0.000000
     7  C   -0.000007  -0.000001   0.000000   0.000000  -0.000000  -0.000000
     8  H   -0.000075  -0.000015   0.000010   0.000002  -0.000009  -0.000000
     9  H   -0.000018  -0.000000   0.000000   0.000000  -0.000000   0.000000
    10  H   -0.000000   0.000000   0.000000  -0.000000   0.000000   0.000000
    11  H   -0.000000   0.000000  -0.000000  -0.000000  -0.000000   0.000000
    12  C   -0.034732   0.004045   0.013911  -0.000236   0.002029   0.000356
    13  C    0.012321   0.031544  -0.002180   0.011367  -0.011041  -0.001030
    14  C    0.412042   0.006136  -0.040695   0.006202  -0.001009  -0.000079
    15  C   -0.002562   0.350825   0.013343  -0.114757   0.023147   0.014657
    16  C   -0.050201  -0.005852   0.422646  -0.095968   0.005344  -0.002155
    17  C    0.014094  -0.041774  -0.066522   0.437574  -0.118653  -0.020792
    18  H   -0.000185  -0.002063   0.000016  -0.000059  -0.000212  -0.000057
    19  H    0.498087   0.000017  -0.006462  -0.000073   0.000027  -0.000001
    20  H    0.000017   0.496676  -0.000211  -0.006566   0.011499  -0.000419
    21  H   -0.006462  -0.000211   0.529821   0.002855   0.000431   0.000009
    22  O   -0.000073  -0.006566   0.002855   7.800595   0.223023  -0.042633
    23  C    0.000027   0.011499   0.000431   0.223023   4.890952   0.412419
    24  H   -0.000001  -0.000419   0.000009  -0.042633   0.412419   0.591861
    25  H   -0.000000  -0.001200   0.000083  -0.042973   0.414265  -0.058824
    26  H    0.000001   0.000061  -0.000123  -0.029218   0.393055  -0.017870
    27  O    0.000000  -0.000000  -0.000000  -0.000000   0.000000   0.000000
    28  C   -0.000000   0.000000  -0.000000   0.000000  -0.000000   0.000000
    29  H    0.000000   0.000000   0.000000   0.000000   0.000000  -0.000000
    30  H   -0.000000  -0.000000  -0.000000  -0.000000  -0.000000   0.000000
    31  H   -0.000000   0.000000   0.000000   0.000000  -0.000000  -0.000000
    32  C   -0.000192   0.000016  -0.000154  -0.000006   0.000001  -0.000001
    33  C   -0.002658   0.000003  -0.000027   0.000000  -0.000000   0.000000
    34  C    0.001450  -0.000032   0.000078   0.000008  -0.000002   0.000000
    35  C    0.001282   0.000000  -0.000004  -0.000000  -0.000000   0.000000
    36  C   -0.002228  -0.000002   0.000024   0.000000  -0.000000  -0.000000
    37  C    0.000540   0.000000  -0.000002   0.000000   0.000000   0.000000
    38  H   -0.000028  -0.000000  -0.000000   0.000000   0.000000  -0.000000
    39  H    0.001130   0.000002  -0.000031  -0.000006   0.000003  -0.000000
    40  H    0.000004  -0.000000   0.000000  -0.000000   0.000000  -0.000000
    41  H   -0.000032   0.000000  -0.000000  -0.000000  -0.000000   0.000000
    42  O   -0.000007  -0.000000  -0.000000   0.000000  -0.000000  -0.000000
    43  C    0.000004   0.000000  -0.000000  -0.000000  -0.000000   0.000000
    44  H   -0.000000  -0.000000   0.000000  -0.000000   0.000000  -0.000000
    45  H    0.000003   0.000000  -0.000000   0.000000  -0.000000   0.000000
    46  H   -0.000000   0.000000  -0.000000  -0.000000  -0.000000   0.000000
              25         26         27         28         29         30
     1  N    0.000000  -0.000000  -0.000002   0.000001   0.000001   0.000000
     2  C   -0.000003   0.000000  -0.000170   0.002006   0.000348  -0.000095
     3  C   -0.000001  -0.000000   0.011265  -0.011113  -0.001012  -0.000767
     4  C    0.000000   0.000000   0.006011  -0.001004  -0.000060   0.000161
     5  C    0.000000  -0.000000  -0.114687   0.023001   0.014707   0.011254
     6  C   -0.000000   0.000000  -0.095747   0.005425  -0.002203  -0.001230
     7  C    0.000000  -0.000000   0.437481  -0.118489  -0.020800  -0.018224
     8  H   -0.000000  -0.000000  -0.000061  -0.000209  -0.000054  -0.000002
     9  H   -0.000000  -0.000000  -0.000073   0.000027  -0.000000  -0.000001
    10  H   -0.000000   0.000000  -0.006574   0.011431  -0.000396  -0.001193
    11  H   -0.000000   0.000000   0.002915   0.000427   0.000008   0.000085
    12  C   -0.000102  -0.000065   0.000006  -0.000013   0.000002  -0.000004
    13  C   -0.000769   0.000320  -0.000004  -0.000003   0.000011  -0.000001
    14  C    0.000179   0.000173   0.000000  -0.000000  -0.000000   0.000000
    15  C    0.011229  -0.000778  -0.000000   0.000001   0.000000   0.000000
    16  C   -0.001290  -0.000083  -0.000000   0.000000   0.000000  -0.000000
    17  C   -0.018186   0.009754   0.000000  -0.000000  -0.000000   0.000000
    18  H    0.000001   0.000003   0.000002  -0.000009  -0.000000  -0.000000
    19  H   -0.000000   0.000001   0.000000  -0.000000   0.000000  -0.000000
    20  H   -0.001200   0.000061  -0.000000   0.000000   0.000000  -0.000000
    21  H    0.000083  -0.000123  -0.000000  -0.000000   0.000000  -0.000000
    22  O   -0.042973  -0.029218  -0.000000   0.000000   0.000000  -0.000000
    23  C    0.414265   0.393055   0.000000  -0.000000   0.000000  -0.000000
    24  H   -0.058824  -0.017870   0.000000   0.000000  -0.000000   0.000000
    25  H    0.588827  -0.017679  -0.000000  -0.000000   0.000000  -0.000000
    26  H   -0.017679   0.516430   0.000000  -0.000000  -0.000000   0.000000
    27  O   -0.000000   0.000000   7.800625   0.223047  -0.042591  -0.043006
    28  C   -0.000000  -0.000000   0.223047   4.890849   0.412714   0.414012
    29  H    0.000000  -0.000000  -0.042591   0.412714   0.590850  -0.058752
    30  H   -0.000000   0.000000  -0.043006   0.414012  -0.058752   0.589492
    31  H    0.000000  -0.000000  -0.029185   0.393050  -0.017775  -0.017785
    32  C    0.000002  -0.000000  -0.000005   0.000000  -0.000001   0.000002
    33  C   -0.000000  -0.000000   0.000008  -0.000002  -0.000000  -0.000002
    34  C   -0.000002   0.000000   0.000000  -0.000000   0.000000  -0.000000
    35  C   -0.000000  -0.000000   0.000000  -0.000000  -0.000000  -0.000000
    36  C   -0.000000   0.000000  -0.000000  -0.000000   0.000000  -0.000000
    37  C    0.000000   0.000000   0.000000   0.000000   0.000000  -0.000000
    38  H    0.000000  -0.000000  -0.000006   0.000004  -0.000000   0.000003
    39  H    0.000003  -0.000000   0.000000   0.000000  -0.000000   0.000000
    40  H    0.000000   0.000000  -0.000000  -0.000000   0.000000  -0.000000
    41  H   -0.000000  -0.000000  -0.000000   0.000000  -0.000000   0.000000
    42  O    0.000000  -0.000000  -0.000000  -0.000000  -0.000000   0.000000
    43  C   -0.000000  -0.000000   0.000000  -0.000000  -0.000000  -0.000000
    44  H    0.000000   0.000000   0.000000   0.000000   0.000000  -0.000000
    45  H   -0.000000  -0.000000  -0.000000  -0.000000  -0.000000   0.000000
    46  H   -0.000000  -0.000000   0.000000  -0.000000   0.000000  -0.000000
              31         32         33         34         35         36
     1  N   -0.000000   0.117710  -0.011613  -0.000230   0.027392   0.015300
     2  C   -0.000065  -0.054633   0.036961  -0.014746  -0.006002  -0.003157
     3  C    0.000321  -0.022780   0.024005  -0.014093   0.002427  -0.000307
     4  C    0.000173   0.038161  -0.083947   0.021553  -0.008034   0.003384
     5  C   -0.000772  -0.004962   0.004243  -0.000167   0.000087  -0.000096
     6  C   -0.000090  -0.000743  -0.007245   0.001745  -0.000044  -0.000038
     7  C    0.009738   0.001994  -0.001845   0.000042  -0.000156   0.000031
     8  H    0.000003  -0.000935   0.000317  -0.000407  -0.000014   0.000020
     9  H    0.000001   0.001130   0.000689  -0.002300  -0.002895   0.001030
    10  H    0.000059   0.000026  -0.000042   0.000003  -0.000002   0.000000
    11  H   -0.000123  -0.000160   0.000086  -0.000024   0.000022  -0.000002
    12  C    0.000000  -0.060991  -0.017403   0.040952  -0.004581  -0.000095
    13  C   -0.000000  -0.016893  -0.014096   0.022870  -0.000327   0.001599
    14  C    0.000000   0.040080   0.023248  -0.085975   0.004169  -0.007904
    15  C   -0.000000  -0.004393  -0.000293   0.003975  -0.000109  -0.000001
    16  C    0.000000  -0.000739   0.001645  -0.008277   0.000031  -0.000277
    17  C   -0.000000   0.002140   0.000105  -0.001911   0.000034  -0.000148
    18  H   -0.000000  -0.000479  -0.000372   0.000244   0.000018  -0.000002
    19  H   -0.000000  -0.000192  -0.002658   0.001450   0.001282  -0.002228
    20  H    0.000000   0.000016   0.000003  -0.000032   0.000000  -0.000002
    21  H    0.000000  -0.000154  -0.000027   0.000078  -0.000004   0.000024
    22  O    0.000000  -0.000006   0.000000   0.000008  -0.000000   0.000000
    23  C   -0.000000   0.000001  -0.000000  -0.000002  -0.000000  -0.000000
    24  H   -0.000000  -0.000001   0.000000   0.000000   0.000000  -0.000000
    25  H    0.000000   0.000002  -0.000000  -0.000002  -0.000000  -0.000000
    26  H   -0.000000  -0.000000  -0.000000   0.000000  -0.000000   0.000000
    27  O   -0.029185  -0.000005   0.000008   0.000000   0.000000  -0.000000
    28  C    0.393050   0.000000  -0.000002  -0.000000  -0.000000  -0.000000
    29  H   -0.017775  -0.000001  -0.000000   0.000000  -0.000000   0.000000
    30  H   -0.017785   0.000002  -0.000002  -0.000000  -0.000000  -0.000000
    31  H    0.516399  -0.000000   0.000000  -0.000000   0.000000  -0.000000
    32  C   -0.000000   5.431470   0.419921   0.340716  -0.004001   0.017161
    33  C    0.000000   0.419921   5.413169  -0.174861   0.070074  -0.024505
    34  C   -0.000000   0.340716  -0.174861   5.365942  -0.037621   0.241248
    35  C    0.000000  -0.004001   0.070074  -0.037621   5.906009  -0.236564
    36  C   -0.000000   0.017161  -0.024505   0.241248  -0.236564   5.529318
    37  C    0.000000  -0.122364   0.042858   0.006686   0.232128   0.409983
    38  H   -0.000000  -0.013698   0.379672   0.007537  -0.026119   0.001321
    39  H   -0.000000  -0.036330   0.012126   0.412211  -0.002508  -0.049560
    40  H   -0.000000   0.003985   0.032670   0.006083   0.349873  -0.005821
    41  H    0.000000   0.014204  -0.002313  -0.041791   0.013514   0.423408
    42  O   -0.000000  -0.000258   0.011641   0.006309  -0.115173  -0.096041
    43  C    0.000000   0.002007  -0.011276  -0.000960   0.023284   0.005326
    44  H   -0.000000   0.000349  -0.000996  -0.000076   0.014649  -0.002166
    45  H    0.000000  -0.000093  -0.000762   0.000176   0.011386  -0.001285
    46  H    0.000000  -0.000065   0.000316   0.000174  -0.000783  -0.000076
              37         38         39         40         41         42
     1  N    0.002633  -0.006945  -0.005416  -0.000550  -0.000432  -0.000002
     2  C    0.001995   0.000439  -0.001643  -0.000025   0.000012   0.000006
     3  C    0.000092  -0.003478  -0.000379  -0.000051   0.000002   0.000000
     4  C   -0.002124   0.002460   0.000487   0.000147  -0.000017  -0.000003
     5  C    0.000046   0.001302   0.000023  -0.000004   0.000000  -0.000000
     6  C   -0.000132  -0.002291   0.000018   0.000037  -0.000001  -0.000000
     7  C   -0.000014   0.000509  -0.000005  -0.000001   0.000000   0.000000
     8  H   -0.000007  -0.000009  -0.000015  -0.000000   0.000000   0.000000
     9  H    0.000191   0.000980  -0.000064  -0.000014   0.000005   0.000001
    10  H   -0.000000   0.000005  -0.000000   0.000000  -0.000000  -0.000000
    11  H   -0.000000  -0.000031   0.000000  -0.000000  -0.000000  -0.000000
    12  C    0.001986  -0.001032  -0.000114   0.000027  -0.000155  -0.000005
    13  C    0.000104  -0.000370  -0.002800   0.000003  -0.000026   0.000000
    14  C   -0.001921   0.000355   0.001355  -0.000035   0.000079   0.000008
    15  C    0.000035   0.000021   0.001235   0.000000  -0.000004  -0.000000
    16  C   -0.000154  -0.000004  -0.002213  -0.000002   0.000025   0.000000
    17  C   -0.000007  -0.000004   0.000512   0.000000  -0.000001   0.000000
    18  H   -0.000004  -0.000012  -0.000004   0.000000  -0.000000   0.000000
    19  H    0.000540  -0.000028   0.001130   0.000004  -0.000032  -0.000007
    20  H    0.000000  -0.000000   0.000002  -0.000000   0.000000  -0.000000
    21  H   -0.000002  -0.000000  -0.000031   0.000000  -0.000000  -0.000000
    22  O    0.000000   0.000000  -0.000006  -0.000000  -0.000000   0.000000
    23  C    0.000000   0.000000   0.000003   0.000000  -0.000000  -0.000000
    24  H    0.000000  -0.000000  -0.000000  -0.000000   0.000000  -0.000000
    25  H    0.000000   0.000000   0.000003   0.000000  -0.000000   0.000000
    26  H    0.000000  -0.000000  -0.000000   0.000000  -0.000000  -0.000000
    27  O    0.000000  -0.000006   0.000000  -0.000000  -0.000000  -0.000000
    28  C    0.000000   0.000004   0.000000  -0.000000   0.000000  -0.000000
    29  H    0.000000  -0.000000  -0.000000   0.000000  -0.000000  -0.000000
    30  H   -0.000000   0.000003   0.000000  -0.000000   0.000000   0.000000
    31  H    0.000000  -0.000000  -0.000000  -0.000000   0.000000  -0.000000
    32  C   -0.122364  -0.013698  -0.036330   0.003985   0.014204  -0.000258
    33  C    0.042858   0.379672   0.012126   0.032670  -0.002313   0.011641
    34  C    0.006686   0.007537   0.412211   0.006083  -0.041791   0.006309
    35  C    0.232128  -0.026119  -0.002508   0.349873   0.013514  -0.115173
    36  C    0.409983   0.001321  -0.049560  -0.005821   0.423408  -0.096041
    37  C    5.101795   0.004852   0.014281  -0.041630  -0.066604   0.437499
    38  H    0.004852   0.491248  -0.000183  -0.002068   0.000016  -0.000061
    39  H    0.014281  -0.000183   0.498237   0.000015  -0.006628  -0.000073
    40  H   -0.041630  -0.002068   0.000015   0.496649  -0.000211  -0.006580
    41  H   -0.066604   0.000016  -0.006628  -0.000211   0.530043   0.002871
    42  O    0.437499  -0.000061  -0.000073  -0.006580   0.002871   7.800867
    43  C   -0.118735  -0.000204   0.000027   0.011439   0.000430   0.223106
    44  H   -0.020788  -0.000055  -0.000001  -0.000380   0.000009  -0.042604
    45  H   -0.018295  -0.000003  -0.000001  -0.001198   0.000083  -0.043021
    46  H    0.009773   0.000003   0.000001   0.000058  -0.000123  -0.029174
              43         44         45         46
     1  N    0.000000   0.000001   0.000000  -0.000000
     2  C   -0.000012   0.000001  -0.000004   0.000000
     3  C   -0.000000  -0.000000   0.000000   0.000000
     4  C   -0.000005   0.000010  -0.000001  -0.000000
     5  C    0.000000  -0.000000   0.000000   0.000000
     6  C    0.000000   0.000000   0.000000  -0.000000
     7  C   -0.000000  -0.000000   0.000000  -0.000000
     8  H   -0.000000   0.000000  -0.000000  -0.000000
     9  H   -0.000009   0.000000  -0.000000  -0.000000
    10  H   -0.000000   0.000000  -0.000000   0.000000
    11  H    0.000000   0.000000   0.000000   0.000000
    12  C    0.000001  -0.000001   0.000002  -0.000000
    13  C   -0.000000   0.000000  -0.000000  -0.000000
    14  C   -0.000002   0.000000  -0.000002   0.000000
    15  C   -0.000000   0.000000  -0.000000  -0.000000
    16  C   -0.000000  -0.000000  -0.000000   0.000000
    17  C    0.000000   0.000000   0.000000   0.000000
    18  H    0.000000  -0.000000   0.000000  -0.000000
    19  H    0.000004  -0.000000   0.000003  -0.000000
    20  H    0.000000  -0.000000   0.000000   0.000000
    21  H   -0.000000   0.000000  -0.000000  -0.000000
    22  O   -0.000000  -0.000000   0.000000  -0.000000
    23  C   -0.000000   0.000000  -0.000000  -0.000000
    24  H    0.000000  -0.000000   0.000000   0.000000
    25  H   -0.000000   0.000000  -0.000000  -0.000000
    26  H   -0.000000   0.000000  -0.000000  -0.000000
    27  O    0.000000   0.000000  -0.000000   0.000000
    28  C   -0.000000   0.000000  -0.000000  -0.000000
    29  H   -0.000000   0.000000  -0.000000   0.000000
    30  H   -0.000000  -0.000000   0.000000  -0.000000
    31  H    0.000000  -0.000000   0.000000   0.000000
    32  C    0.002007   0.000349  -0.000093  -0.000065
    33  C   -0.011276  -0.000996  -0.000762   0.000316
    34  C   -0.000960  -0.000076   0.000176   0.000174
    35  C    0.023284   0.014649   0.011386  -0.000783
    36  C    0.005326  -0.002166  -0.001285  -0.000076
    37  C   -0.118735  -0.020788  -0.018295   0.009773
    38  H   -0.000204  -0.000055  -0.000003   0.000003
    39  H    0.000027  -0.000001  -0.000001   0.000001
    40  H    0.011439  -0.000380  -0.001198   0.000058
    41  H    0.000430   0.000009   0.000083  -0.000123
    42  O    0.223106  -0.042604  -0.043021  -0.029174
    43  C    4.890981   0.412892   0.413865   0.392929
    44  H    0.412892   0.590406  -0.058800  -0.017766
    45  H    0.413865  -0.058800   0.589960  -0.017800
    46  H    0.392929  -0.017766  -0.017800   0.516677
 Mulliken charges:
               1
     1  N   -0.051478
     2  C   -0.104999
     3  C   -0.106590
     4  C   -0.085796
     5  C   -0.212733
     6  C   -0.220565
     7  C    0.126386
     8  H    0.162605
     9  H    0.163477
    10  H    0.157706
    11  H    0.133513
    12  C   -0.098678
    13  C   -0.116641
    14  C   -0.084048
    15  C   -0.211924
    16  C   -0.220073
    17  C    0.125737
    18  H    0.162016
    19  H    0.166615
    20  H    0.157779
    21  H    0.133639
    22  O   -0.149131
    23  C   -0.245255
    24  H    0.124545
    25  H    0.126440
    26  H    0.146018
    27  O   -0.149250
    28  C   -0.245151
    29  H    0.125004
    30  H    0.126051
    31  H    0.146052
    32  C   -0.086197
    33  C   -0.119498
    34  C   -0.096525
    35  C   -0.211443
    36  C   -0.218876
    37  C    0.125305
    38  H    0.165875
    39  H    0.166307
    40  H    0.157580
    41  H    0.133638
    42  O   -0.149308
    43  C   -0.245088
    44  H    0.125315
    45  H    0.125789
    46  H    0.145855
 Sum of Mulliken charges =  -0.00000
 Mulliken charges with hydrogens summed into heavy atoms:
               1
     1  N   -0.051478
     2  C   -0.104999
     3  C    0.056015
     4  C    0.077681
     5  C   -0.055027
     6  C   -0.087053
     7  C    0.126386
    12  C   -0.098678
    13  C    0.045375
    14  C    0.082567
    15  C   -0.054145
    16  C   -0.086434
    17  C    0.125737
    22  O   -0.149131
    23  C    0.151748
    27  O   -0.149250
    28  C    0.151956
    32  C   -0.086197
    33  C    0.046377
    34  C    0.069782
    35  C   -0.053862
    36  C   -0.085238
    37  C    0.125305
    42  O   -0.149308
    43  C    0.151871
 Electronic spatial extent (au):  <R**2>=          11477.9180
 Charge=             -0.0000 electrons
 Dipole moment (field-independent basis, Debye):
    X=              1.2709    Y=              1.4095    Z=             -0.8318  Tot=              2.0721
 Quadrupole moment (field-independent basis, Debye-Ang):
   XX=           -118.0872   YY=           -142.9835   ZZ=           -145.0368
   XY=             -0.4184   XZ=              6.9948   YZ=             -7.6877
 Traceless Quadrupole moment (field-independent basis, Debye-Ang):
   XX=             17.2820   YY=             -7.6144   ZZ=             -9.6676
   XY=             -0.4184   XZ=              6.9948   YZ=             -7.6877
 Octapole moment (field-independent basis, Debye-Ang**2):
  XXX=            -13.1855  YYY=             57.6171  ZZZ=             -0.6887  XYY=             65.6836
  XXY=             -0.8750  XXZ=            -15.2781  XZZ=             -1.2257  YZZ=              1.2193
  YYZ=            -19.4831  XYZ=            -33.2160
 Hexadecapole moment (field-independent basis, Debye-Ang**3):
 XXXX=          -6412.0893 YYYY=          -6561.2608 ZZZZ=           -572.4724 XXXY=           -269.6266
 XXXZ=            298.4712 YYYX=            238.6624 YYYZ=           -198.3608 ZZZX=             -0.7320
 ZZZY=              4.0145 XXYY=          -2214.5429 XXZZ=          -1388.7052 YYZZ=          -1213.5737
 XXYZ=            -81.6044 YYXZ=            -35.0606 ZZXY=              2.5690
 N-N= 2.056677808601D+03 E-N=-6.659440923143D+03  KE= 1.087519150122D+03
 No NMR shielding tensors so no spin-rotation constants.
 Leave Link  601 at Sun Jan 17 00:04:00 2021, MaxMem=  4026531840 cpu:               4.6 elap:               0.7
 (Enter /opt/ohpc/pub/libs/gaussian/g16-A.03/sandybridge/g16/l9999.exe)

 Test job not archived.
 1\1\GINC-CASCADEB034\SP\RLC-wHPBE\TZVP\C21H21N1O3\RDU230\17-Jan-2021\0
 \\#P LC-wHPBE/TZVP iop(3/107=0328100000, 3/108=0328100000) scf=(conver
 =6,fermi,ndamp=35,noincfock,novaracc,vshift=500,xqc)\\H21 C21 N1 O3\\0
 ,1\N,0,0.054086,0.063852,0.077784\C,0,-0.275154,-1.311734,0.103506\C,0
 ,-1.260864,-1.827996,-0.72375\C,0,0.386135,-2.184815,0.970218\C,0,-1.5
 98384,-3.175646,-0.688444\C,0,0.074577,-3.526309,0.994438\C,0,-0.9252,
 -4.03443,0.167909\H,0,-1.784639,-1.164375,-1.405148\H,0,1.158634,-1.79
 7039,1.627427\H,0,-2.379444,-3.537517,-1.347421\H,0,0.588853,-4.20682,
 1.665799\C,0,-0.970368,1.03417,-0.019727\C,0,-2.134785,0.917606,0.7248
 71\C,0,-0.835797,2.133662,-0.869883\C,0,-3.151989,1.858174,0.623575\C,
 0,-1.829782,3.083912,-0.958163\C,0,-3.000537,2.952781,-0.215611\H,0,-2
 .255494,0.070396,1.39325\H,0,0.067507,2.240735,-1.462783\H,0,-4.048238
 ,1.726664,1.219136\H,0,-1.725247,3.941045,-1.615932\O,0,-3.928451,3.93
 6733,-0.380204\C,0,-5.121818,3.840279,0.365278\H,0,-5.681122,2.930406,
 0.115451\H,0,-4.925953,3.859223,1.44425\H,0,-5.719912,4.710924,0.09646
 6\O,0,-1.16822,-5.370782,0.273837\C,0,-2.170458,-5.919715,-0.552884\H,
 0,-3.15107,-5.47272,-0.348812\H,0,-1.930216,-5.79407,-1.615623\H,0,-2.
 208576,-6.98373,-0.319613\C,0,1.409258,0.466483,0.091838\C,0,2.372325,
 -0.232608,-0.620224\C,0,1.812213,1.581496,0.83064\C,0,3.707828,0.15075
 4,-0.59385\C,0,3.129962,1.982235,0.842322\C,0,4.092694,1.267169,0.1335
 83\H,0,2.078678,-1.100647,-1.202616\H,0,1.073246,2.139336,1.397822\H,0
 ,4.429565,-0.427688,-1.159301\H,0,3.443945,2.849999,1.413878\O,0,5.369
 584,1.734982,0.218075\C,0,6.368506,1.037347,-0.492266\H,0,6.460713,0.0
 00867,-0.145468\H,0,6.173119,1.041208,-1.571513\H,0,7.303574,1.562498,
 -0.297656\\Version=EM64L-G16RevA.03\State=1-A\HF=-1092.7793945\RMSD=5.
 777e-07\Dipole=-0.4999925,-0.5545451,-0.3272359\Quadrupole=12.8487123,
 -5.6610898,-7.1876225,-0.3110705,-5.2004915,5.7156491\PG=C01 [X(C21H21
 N1O3)]\\@


 ARTHROPOD AXIOM: A COMPUTER SYSTEM IS LIKE A SPIDER'S WEB.
 YOU CANNOT PULL ON ONE END WITHOUT MAKING THE OTHER END MOVE.
     -- GREG WETTSTEIN
 Job cpu time:       0 days  1 hours 25 minutes 33.6 seconds.
 Elapsed time:       0 days  0 hours 10 minutes 47.2 seconds.
 File lengths (MBytes):  RWF=    168 Int=      0 D2E=      0 Chk=     28 Scr=      8
 Normal termination of Gaussian 16 at Sun Jan 17 00:04:00 2021.
