 Entering Gaussian System, Link 0=g16
 Input=mol_NN_ma_frag_tune_n5.gjf
 Output=mol_NN_ma_frag_tune_n5.log
 Initial command:
 /opt/ohpc/pub/libs/gaussian/g16-A.03/sandybridge/g16/l1.exe "/mnt/gpfs2_4m/scratch/rdu230/ondemand/projects/init_structures/wtuning/mol_NN_ma_frag/tuning_mol_NN_ma_frag_ocycle0/Gau-228709.inp" -scrdir="/mnt/gpfs2_4m/scratch/rdu230/ondemand/projects/init_structures/wtuning/mol_NN_ma_frag/tuning_mol_NN_ma_frag_ocycle0/"
 Entering Link 1 = /opt/ohpc/pub/libs/gaussian/g16-A.03/sandybridge/g16/l1.exe PID=    228710.
  
 Copyright (c) 1988,1990,1992,1993,1995,1998,2003,2009,2016,
            Gaussian, Inc.  All Rights Reserved.
  
 This is part of the Gaussian(R) 16 program.  It is based on
 the Gaussian(R) 09 system (copyright 2009, Gaussian, Inc.),
 the Gaussian(R) 03 system (copyright 2003, Gaussian, Inc.),
 the Gaussian(R) 98 system (copyright 1998, Gaussian, Inc.),
 the Gaussian(R) 94 system (copyright 1995, Gaussian, Inc.),
 the Gaussian 92(TM) system (copyright 1992, Gaussian, Inc.),
 the Gaussian 90(TM) system (copyright 1990, Gaussian, Inc.),
 the Gaussian 88(TM) system (copyright 1988, Gaussian, Inc.),
 the Gaussian 86(TM) system (copyright 1986, Carnegie Mellon
 University), and the Gaussian 82(TM) system (copyright 1983,
 Carnegie Mellon University). Gaussian is a federally registered
 trademark of Gaussian, Inc.
  
 This software contains proprietary and confidential information,
 including trade secrets, belonging to Gaussian, Inc.
  
 This software is provided under written license and may be
 used, copied, transmitted, or stored only in accord with that
 written license.
  
 The following legend is applicable only to US Government
 contracts under FAR:
  
                    RESTRICTED RIGHTS LEGEND
  
 Use, reproduction and disclosure by the US Government is
 subject to restrictions as set forth in subparagraphs (a)
 and (c) of the Commercial Computer Software - Restricted
 Rights clause in FAR 52.227-19.
  
 Gaussian, Inc.
 340 Quinnipiac St., Bldg. 40, Wallingford CT 06492
  
  
 ---------------------------------------------------------------
 Warning -- This program may not be used in any manner that
 competes with the business of Gaussian, Inc. or will provide
 assistance to any competitor of Gaussian, Inc.  The licensee
 of this program is prohibited from giving any competitor of
 Gaussian, Inc. access to this program.  By using this program,
 the user acknowledges that Gaussian, Inc. is engaged in the
 business of creating and licensing software in the field of
 computational chemistry and represents and warrants to the
 licensee that it is not a competitor of Gaussian, Inc. and that
 it will not use this program in any manner prohibited above.
 ---------------------------------------------------------------
  

 Cite this work as:
 Gaussian 16, Revision A.03,
 M. J. Frisch, G. W. Trucks, H. B. Schlegel, G. E. Scuseria, 
 M. A. Robb, J. R. Cheeseman, G. Scalmani, V. Barone, 
 G. A. Petersson, H. Nakatsuji, X. Li, M. Caricato, A. V. Marenich, 
 J. Bloino, B. G. Janesko, R. Gomperts, B. Mennucci, H. P. Hratchian, 
 J. V. Ortiz, A. F. Izmaylov, J. L. Sonnenberg, D. Williams-Young, 
 F. Ding, F. Lipparini, F. Egidi, J. Goings, B. Peng, A. Petrone, 
 T. Henderson, D. Ranasinghe, V. G. Zakrzewski, J. Gao, N. Rega, 
 G. Zheng, W. Liang, M. Hada, M. Ehara, K. Toyota, R. Fukuda, 
 J. Hasegawa, M. Ishida, T. Nakajima, Y. Honda, O. Kitao, H. Nakai, 
 T. Vreven, K. Throssell, J. A. Montgomery, Jr., J. E. Peralta, 
 F. Ogliaro, M. J. Bearpark, J. J. Heyd, E. N. Brothers, K. N. Kudin, 
 V. N. Staroverov, T. A. Keith, R. Kobayashi, J. Normand, 
 K. Raghavachari, A. P. Rendell, J. C. Burant, S. S. Iyengar, 
 J. Tomasi, M. Cossi, J. M. Millam, M. Klene, C. Adamo, R. Cammi, 
 J. W. Ochterski, R. L. Martin, K. Morokuma, O. Farkas, 
 J. B. Foresman, and D. J. Fox, Gaussian, Inc., Wallingford CT, 2016.
 
 ******************************************
 Gaussian 16:  EM64L-G16RevA.03 25-Dec-2016
                17-Jan-2021 
 ******************************************
 %mem=30GB
 %nproc=8
 Will use up to    8 processors via shared memory.
 ----------------------------------------------------------------------
 #P LC-wHPBE/TZVP iop(3/107=0177800000, 3/108=0177800000) scf=(conver=6
 ,fermi,ndamp=35,noincfock,novaracc,vshift=500,xqc)
 ----------------------------------------------------------------------
 1/38=1,172=1/1;
 2/12=2,17=6,18=5,40=1/2;
 3/5=19,7=101,11=2,25=1,30=1,74=-71,107=177800000,108=177800000/1,2,3;
 4//1;
 5/5=100002,6=6,8=3,10=500,13=1,18=-1,22=13,38=1,93=35/2,8;
 6/7=2,8=2,9=2,10=2,28=1/1;
 99/5=1,9=1/99;
 Leave Link    1 at Sun Jan 17 01:45:05 2021, MaxMem=  4026531840 cpu:               1.3 elap:               0.2
 (Enter /opt/ohpc/pub/libs/gaussian/g16-A.03/sandybridge/g16/l101.exe)
 -------------
 H21 C21 N1 O3
 -------------
 Symbolic Z-matrix:
 Charge =  0 Multiplicity = 1
 N                     0.05409   0.06385   0.07778 
 C                    -0.27515  -1.31173   0.10351 
 C                    -1.26086  -1.828    -0.72375 
 C                     0.38614  -2.18481   0.97022 
 C                    -1.59838  -3.17565  -0.68844 
 C                     0.07458  -3.52631   0.99444 
 C                    -0.9252   -4.03443   0.16791 
 H                    -1.78464  -1.16438  -1.40515 
 H                     1.15863  -1.79704   1.62743 
 H                    -2.37944  -3.53752  -1.34742 
 H                     0.58885  -4.20682   1.6658 
 C                    -0.97037   1.03417  -0.01973 
 C                    -2.13478   0.91761   0.72487 
 C                    -0.8358    2.13366  -0.86988 
 C                    -3.15199   1.85817   0.62358 
 C                    -1.82978   3.08391  -0.95816 
 C                    -3.00054   2.95278  -0.21561 
 H                    -2.25549   0.0704    1.39325 
 H                     0.06751   2.24073  -1.46278 
 H                    -4.04824   1.72666   1.21914 
 H                    -1.72525   3.94105  -1.61593 
 O                    -3.92845   3.93673  -0.3802 
 C                    -5.12182   3.84028   0.36528 
 H                    -5.68112   2.93041   0.11545 
 H                    -4.92595   3.85922   1.44425 
 H                    -5.71991   4.71092   0.09647 
 O                    -1.16822  -5.37078   0.27384 
 C                    -2.17046  -5.91972  -0.55288 
 H                    -3.15107  -5.47272  -0.34881 
 H                    -1.93022  -5.79407  -1.61562 
 H                    -2.20858  -6.98373  -0.31961 
 C                     1.40926   0.46648   0.09184 
 C                     2.37233  -0.23261  -0.62022 
 C                     1.81221   1.5815    0.83064 
 C                     3.70783   0.15075  -0.59385 
 C                     3.12996   1.98224   0.84232 
 C                     4.09269   1.26717   0.13358 
 H                     2.07868  -1.10065  -1.20262 
 H                     1.07325   2.13934   1.39782 
 H                     4.42957  -0.42769  -1.1593 
 H                     3.44395   2.85      1.41388 
 O                     5.36958   1.73498   0.21808 
 C                     6.36851   1.03735  -0.49227 
 H                     6.46071   0.00087  -0.14547 
 H                     6.17312   1.04121  -1.57151 
 H                     7.30357   1.5625   -0.29766 
 
 ITRead=  0  0  0  0  0  0  0  0  0  0  0  0  0  0  0  0  0  0  0  0
 ITRead=  0  0  0  0  0  0  0  0  0  0  0  0  0  0  0  0  0  0  0  0
 ITRead=  0  0  0  0  0  0
 MicOpt= -1 -1 -1 -1 -1 -1 -1 -1 -1 -1 -1 -1 -1 -1 -1 -1 -1 -1 -1 -1
 MicOpt= -1 -1 -1 -1 -1 -1 -1 -1 -1 -1 -1 -1 -1 -1 -1 -1 -1 -1 -1 -1
 MicOpt= -1 -1 -1 -1 -1 -1
 NAtoms=     46 NQM=       46 NQMF=       0 NMMI=      0 NMMIF=      0
                NMic=       0 NMicF=      0.
                    Isotopes and Nuclear Properties:
 (Nuclear quadrupole moments (NQMom) in fm**2, nuclear magnetic moments (NMagM)
  in nuclear magnetons)

  Atom         1           2           3           4           5           6           7           8           9          10
 IAtWgt=          14          12          12          12          12          12          12           1           1           1
 AtmWgt=  14.0030740  12.0000000  12.0000000  12.0000000  12.0000000  12.0000000  12.0000000   1.0078250   1.0078250   1.0078250
 NucSpn=           2           0           0           0           0           0           0           1           1           1
 AtZEff=  -0.0000000  -0.0000000  -0.0000000  -0.0000000  -0.0000000  -0.0000000  -0.0000000  -0.0000000  -0.0000000  -0.0000000
 NQMom=    2.0440000   0.0000000   0.0000000   0.0000000   0.0000000   0.0000000   0.0000000   0.0000000   0.0000000   0.0000000
 NMagM=    0.4037610   0.0000000   0.0000000   0.0000000   0.0000000   0.0000000   0.0000000   2.7928460   2.7928460   2.7928460
 AtZNuc=   7.0000000   6.0000000   6.0000000   6.0000000   6.0000000   6.0000000   6.0000000   1.0000000   1.0000000   1.0000000

  Atom        11          12          13          14          15          16          17          18          19          20
 IAtWgt=           1          12          12          12          12          12          12           1           1           1
 AtmWgt=   1.0078250  12.0000000  12.0000000  12.0000000  12.0000000  12.0000000  12.0000000   1.0078250   1.0078250   1.0078250
 NucSpn=           1           0           0           0           0           0           0           1           1           1
 AtZEff=  -0.0000000  -0.0000000  -0.0000000  -0.0000000  -0.0000000  -0.0000000  -0.0000000  -0.0000000  -0.0000000  -0.0000000
 NQMom=    0.0000000   0.0000000   0.0000000   0.0000000   0.0000000   0.0000000   0.0000000   0.0000000   0.0000000   0.0000000
 NMagM=    2.7928460   0.0000000   0.0000000   0.0000000   0.0000000   0.0000000   0.0000000   2.7928460   2.7928460   2.7928460
 AtZNuc=   1.0000000   6.0000000   6.0000000   6.0000000   6.0000000   6.0000000   6.0000000   1.0000000   1.0000000   1.0000000

  Atom        21          22          23          24          25          26          27          28          29          30
 IAtWgt=           1          16          12           1           1           1          16          12           1           1
 AtmWgt=   1.0078250  15.9949146  12.0000000   1.0078250   1.0078250   1.0078250  15.9949146  12.0000000   1.0078250   1.0078250
 NucSpn=           1           0           0           1           1           1           0           0           1           1
 AtZEff=  -0.0000000  -0.0000000  -0.0000000  -0.0000000  -0.0000000  -0.0000000  -0.0000000  -0.0000000  -0.0000000  -0.0000000
 NQMom=    0.0000000   0.0000000   0.0000000   0.0000000   0.0000000   0.0000000   0.0000000   0.0000000   0.0000000   0.0000000
 NMagM=    2.7928460   0.0000000   0.0000000   2.7928460   2.7928460   2.7928460   0.0000000   0.0000000   2.7928460   2.7928460
 AtZNuc=   1.0000000   8.0000000   6.0000000   1.0000000   1.0000000   1.0000000   8.0000000   6.0000000   1.0000000   1.0000000

  Atom        31          32          33          34          35          36          37          38          39          40
 IAtWgt=           1          12          12          12          12          12          12           1           1           1
 AtmWgt=   1.0078250  12.0000000  12.0000000  12.0000000  12.0000000  12.0000000  12.0000000   1.0078250   1.0078250   1.0078250
 NucSpn=           1           0           0           0           0           0           0           1           1           1
 AtZEff=  -0.0000000  -0.0000000  -0.0000000  -0.0000000  -0.0000000  -0.0000000  -0.0000000  -0.0000000  -0.0000000  -0.0000000
 NQMom=    0.0000000   0.0000000   0.0000000   0.0000000   0.0000000   0.0000000   0.0000000   0.0000000   0.0000000   0.0000000
 NMagM=    2.7928460   0.0000000   0.0000000   0.0000000   0.0000000   0.0000000   0.0000000   2.7928460   2.7928460   2.7928460
 AtZNuc=   1.0000000   6.0000000   6.0000000   6.0000000   6.0000000   6.0000000   6.0000000   1.0000000   1.0000000   1.0000000

  Atom        41          42          43          44          45          46
 IAtWgt=           1          16          12           1           1           1
 AtmWgt=   1.0078250  15.9949146  12.0000000   1.0078250   1.0078250   1.0078250
 NucSpn=           1           0           0           1           1           1
 AtZEff=  -0.0000000  -0.0000000  -0.0000000  -0.0000000  -0.0000000  -0.0000000
 NQMom=    0.0000000   0.0000000   0.0000000   0.0000000   0.0000000   0.0000000
 NMagM=    2.7928460   0.0000000   0.0000000   2.7928460   2.7928460   2.7928460
 AtZNuc=   1.0000000   8.0000000   6.0000000   1.0000000   1.0000000   1.0000000
 Leave Link  101 at Sun Jan 17 01:45:05 2021, MaxMem=  4026531840 cpu:               1.2 elap:               0.2
 (Enter /opt/ohpc/pub/libs/gaussian/g16-A.03/sandybridge/g16/l202.exe)
                          Input orientation:                          
 ---------------------------------------------------------------------
 Center     Atomic      Atomic             Coordinates (Angstroms)
 Number     Number       Type             X           Y           Z
 ---------------------------------------------------------------------
      1          7           0        0.054086    0.063852    0.077784
      2          6           0       -0.275154   -1.311734    0.103506
      3          6           0       -1.260864   -1.827996   -0.723750
      4          6           0        0.386135   -2.184815    0.970218
      5          6           0       -1.598384   -3.175646   -0.688444
      6          6           0        0.074577   -3.526309    0.994438
      7          6           0       -0.925200   -4.034430    0.167909
      8          1           0       -1.784639   -1.164375   -1.405148
      9          1           0        1.158634   -1.797039    1.627427
     10          1           0       -2.379444   -3.537517   -1.347421
     11          1           0        0.588853   -4.206820    1.665799
     12          6           0       -0.970368    1.034170   -0.019727
     13          6           0       -2.134785    0.917606    0.724871
     14          6           0       -0.835797    2.133662   -0.869883
     15          6           0       -3.151989    1.858174    0.623575
     16          6           0       -1.829782    3.083912   -0.958163
     17          6           0       -3.000537    2.952781   -0.215611
     18          1           0       -2.255494    0.070396    1.393250
     19          1           0        0.067507    2.240735   -1.462783
     20          1           0       -4.048238    1.726664    1.219136
     21          1           0       -1.725247    3.941045   -1.615932
     22          8           0       -3.928451    3.936733   -0.380204
     23          6           0       -5.121818    3.840279    0.365278
     24          1           0       -5.681122    2.930406    0.115451
     25          1           0       -4.925953    3.859223    1.444250
     26          1           0       -5.719912    4.710924    0.096466
     27          8           0       -1.168220   -5.370782    0.273837
     28          6           0       -2.170458   -5.919715   -0.552884
     29          1           0       -3.151070   -5.472720   -0.348812
     30          1           0       -1.930216   -5.794070   -1.615623
     31          1           0       -2.208576   -6.983730   -0.319613
     32          6           0        1.409258    0.466483    0.091838
     33          6           0        2.372325   -0.232608   -0.620224
     34          6           0        1.812213    1.581496    0.830640
     35          6           0        3.707828    0.150754   -0.593850
     36          6           0        3.129962    1.982235    0.842322
     37          6           0        4.092694    1.267169    0.133583
     38          1           0        2.078678   -1.100647   -1.202616
     39          1           0        1.073246    2.139336    1.397822
     40          1           0        4.429565   -0.427688   -1.159301
     41          1           0        3.443945    2.849999    1.413878
     42          8           0        5.369584    1.734982    0.218075
     43          6           0        6.368506    1.037347   -0.492266
     44          1           0        6.460713    0.000867   -0.145468
     45          1           0        6.173119    1.041208   -1.571513
     46          1           0        7.303574    1.562498   -0.297656
 ---------------------------------------------------------------------
                    Distance matrix (angstroms):
                    1          2          3          4          5
     1  N    0.000000
     2  C    1.414672   0.000000
     3  C    2.439393   1.386544   0.000000
     4  C    2.441966   1.396697   2.389446   0.000000
     5  C    3.716465   2.419151   1.389722   2.769697   0.000000
     6  C    3.705392   2.412553   2.760406   1.377411   2.398719
     7  C    4.214622   2.799961   2.403347   2.405073   1.387093
     8  H    2.662431   2.139228   1.085834   3.375785   2.143261
     9  H    2.661641   2.147930   3.373865   1.085840   3.855511
    10  H    4.574181   3.389297   2.136036   3.853528   1.084092
    11  H    4.587636   3.401292   3.845803   2.147890   3.374876
    12  C    1.414401   2.449852   2.961761   3.630696   4.308612
    13  C    2.436960   2.968885   3.224992   4.005028   4.363473
    14  C    2.444193   3.623887   3.987075   4.850601   5.366862
    15  C    3.714350   4.312188   4.356545   5.383702   5.429035
    16  C    3.707143   4.781811   4.950299   6.032282   6.269638
    17  C    4.214583   5.071059   5.112778   6.266628   6.304540
    18  H    2.657942   2.737785   3.012452   3.499019   3.911781
    19  H    2.666898   3.897527   4.343422   5.060288   5.719439
    20  H    4.571290   4.971183   4.917303   5.918217   5.802869
    21  H    4.589916   5.714099   5.856063   6.976551   7.177995
    22  O    5.574008   6.413030   6.361301   7.610036   7.490671
    23  C    6.413582   7.078271   6.944227   8.185674   7.921371
    24  H    6.411799   6.871709   6.548689   7.981712   7.389105
    25  H    6.408811   7.082819   7.104756   8.060607   8.069107
    26  H    7.411793   8.118981   7.956968   9.251944   8.933144
    27  O    5.573842   4.159621   3.681725   3.612665   2.435087
    28  C    6.414781   5.025586   4.195083   4.775509   2.806343
    29  H    6.411602   5.078316   4.122799   5.006194   2.793337
    30  H    6.412514   5.077989   4.119856   5.007872   2.797484
    31  H    7.412555   6.007386   5.257668   5.605870   3.874258
    32  C    1.413789   2.449375   3.613775   2.974511   4.787468
    33  C    2.439126   2.949143   3.969388   3.207112   4.942940
    34  C    2.441525   3.640962   4.846088   4.029675   6.047329
    35  C    3.715976   4.299921   5.349787   4.351418   6.263367
    36  C    3.704825   4.794882   6.020780   4.990917   7.162698
    37  C    4.214432   5.072449   6.243048   5.133686   7.266547
    38  H    2.663542   2.700192   3.451216   2.959954   4.253326
    39  H    2.662484   3.924706   5.068418   4.399233   6.303899
    40  H    4.573490   4.950818   5.876355   4.896087   6.641472
    41  H    4.586819   5.733131   6.970532   5.907316   8.133464
    42  O    5.573767   6.415502   7.585821   6.384770   8.572551
    43  C    6.414402   7.071870   8.152979   6.950536   9.014385
    44  H    6.410825   6.867082   7.956249   6.551523   8.679522
    45  H    6.412330   7.065568   8.013435   7.096253   8.885827
    46  H    7.412285   8.115372   9.220987   7.968740  10.091956
                    6          7          8          9         10
     6  C    0.000000
     7  C    1.393159   0.000000
     8  H    3.846223   3.383838   0.000000
     9  H    2.136874   3.387990   4.273129   0.000000
    10  H    3.392145   2.158234   2.447229   4.939330   0.000000
    11  H    1.085496   2.136761   4.931597   2.476523   4.282318
    12  C    4.787318   5.072273   2.723239   3.906598   4.964734
    13  C    4.970144   5.127959   2.999038   4.362398   4.919591
    14  C    6.028246   6.255427   3.473306   5.066036   5.896877
    15  C    6.288157   6.315774   3.888594   5.740189   5.796131
    16  C    7.150822   7.263408   4.271976   6.280095   6.655597
    17  C    7.273180   7.298988   4.454703   6.576951   6.617456
    18  H    4.304018   4.485615   3.094737   3.898515   4.532513
    19  H    6.268715   6.559140   3.876666   5.200344   6.276072
    20  H    6.681453   6.636916   4.513187   6.300373   6.089638
    21  H    8.112631   8.211599   5.110115   7.194564   7.511921
    22  O    8.579678   8.535771   5.627410   7.923709   7.694111
    23  C    9.036868   8.925335   6.270385   8.533256   8.055174
    24  H    8.694243   8.433889   5.853378   8.450862   7.407773
    25  H    8.930493   8.941187   6.574455   8.309576   8.306016
    26  H   10.111106   9.973745   7.229132   9.592279   9.015560
    27  O    2.337924   1.362394   4.570867   4.474159   2.730641
    28  C    3.628055   2.371605   4.846490   5.730015   2.519887
    29  H    3.999704   2.700033   4.641639   5.999142   2.310333
    30  H    3.996793   2.699514   4.636763   6.002885   2.316413
    31  H    4.346640   3.253168   5.934897   6.483119   3.600273
    32  C    4.305630   5.070868   3.886083   2.746703   5.697170
    33  C    4.328423   5.093984   4.331818   2.995401   5.833571
    34  C    5.397766   6.282616   5.047366   3.532214   6.965503
    35  C    5.407769   6.289753   5.705696   3.902097   7.157241
    36  C    6.300998   7.286936   6.253445   4.334217   8.100382
    37  C    6.313776   7.299821   6.543939   4.497738   8.195545
    38  H    3.837617   4.416866   3.869147   3.056237   5.082731
    39  H    5.767113   6.604685   5.190246   3.943990   7.189165
    40  H    5.762462   6.591175   6.262546   4.509985   7.487926
    41  H    7.223979   8.248468   7.169393   5.182973   9.073973
    42  O    7.504733   8.538907   7.888221   5.673936   9.502497
    43  C    7.915225   8.908249   8.494393   6.298381   9.908950
    44  H    7.383975   8.422205   8.422019   5.872620   9.597564
    45  H    8.039809   8.897967   8.259430   6.590442   9.703673
    46  H    8.934420   9.962684   9.552905   7.263107  10.994226
                   11         12         13         14         15
    11  H    0.000000
    12  C    5.721900   0.000000
    13  C    5.879055   1.387040   0.000000
    14  C    6.975745   1.396337   2.389436   0.000000
    15  C    7.201686   2.419151   1.389112   2.769667   0.000000
    16  C    8.117250   2.412612   2.760165   1.377960   2.398450
    17  C    8.226987   2.800183   2.403325   2.405229   1.387565
    18  H    5.143848   2.139372   1.085848   3.375556   2.142954
    19  H    7.185457   2.148347   3.374402   1.085796   3.855437
    20  H    7.543763   3.389338   2.135457   3.853495   1.084090
    21  H    9.083640   3.401123   3.845551   2.148102   3.374809
    22  O    9.534654   4.159936   3.681515   3.613220   2.435338
    23  C    9.952835   5.025636   4.194483   4.775787   2.806365
    24  H    9.625807   5.079881   4.123016   5.008279   2.793633
    25  H    9.773598   5.076495   4.118402   5.006211   2.797258
    26  H   11.035827   6.007511   5.257118   5.606308   3.874307
    27  O    2.525801   6.414728   6.378205   7.598374   7.504363
    28  C    3.933238   7.076792   6.955781   8.169375   7.927359
    29  H    4.432627   6.870471   6.559108   7.968002   7.395103
    30  H    4.430892   7.077645   7.111002   8.037588   8.066200
    31  H    4.413468   8.118486   7.970414   9.236566   8.941974
    32  C    4.999018   2.448946   3.628289   2.957138   4.798387
    33  C    4.919455   3.624765   4.842139   3.994197   6.036261
    34  C    5.974839   2.960650   4.003839   3.195094   4.976216
    35  C    5.815709   4.795368   6.038478   4.965143   7.173179
    36  C    6.740901   4.295889   5.372596   4.322247   6.286983
    37  C    6.677510   5.070739   6.265246   5.103702   7.285246
    38  H    4.482822   3.905554   5.053892   4.366421   6.280882
    39  H    6.370255   2.721616   3.498135   2.964281   4.304779
    40  H    6.083921   5.709197   6.960647   5.862449   8.116882
    41  H    7.616673   4.983836   5.943997   4.903559   6.716743
    42  O    7.762493   6.382999   7.565745   6.312634   8.532105
    43  C    8.097093   7.354072   8.590793   7.297019   9.620742
    44  H    7.447420   7.503632   8.687951   7.636272   9.820644
    45  H    8.319015   7.310095   8.620321   7.128159   9.614753
    46  H    9.067947   8.295450   9.515465   8.179427  10.500233
                   16         17         18         19         20
    16  C    0.000000
    17  C    1.392568   0.000000
    18  H    3.845992   3.384031   0.000000
    19  H    2.136655   3.387527   4.273597   0.000000
    20  H    3.391799   2.158597   2.446931   4.939263   0.000000
    21  H    1.085479   2.136335   4.931355   2.475576   4.282217
    22  O    2.337895   1.362452   4.570830   4.473932   2.730685
    23  C    3.627821   2.371691   4.846087   5.729698   2.519725
    24  H    4.001129   2.701044   4.641913   6.001100   2.309421
    25  H    3.994868   2.698889   4.635640   6.000416   2.317082
    26  H    4.346553   3.253223   5.934504   6.482847   3.600096
    27  O    8.569559   8.536899   5.660536   7.904307   7.717631
    28  C    9.019180   8.917621   6.298897   8.510543   8.070516
    29  H    8.679462   8.427898   5.879028   8.431937   7.422567
    30  H    8.902859   8.922613   6.599325   8.280842   8.311637
    31  H   10.094981   9.968564   7.259256   9.569647   9.034549
    32  C    4.294743   5.071735   3.909088   2.713874   5.713416
    33  C    5.363880   6.259238   5.055947   3.484181   6.960289
    34  C    4.326800   5.112497   4.375636   2.956076   5.875108
    35  C    6.277043   7.279875   6.286194   4.286607   8.119542
    36  C    5.390223   6.296364   5.741236   3.841739   7.192625
    37  C    6.290325   7.299120   6.581680   4.438282   8.225833
    38  H    5.731174   6.572890   5.186030   3.908622   7.169217
    39  H    3.856224   4.456520   3.919317   3.033950   5.141189
    40  H    7.179918   8.217332   7.173118   5.122512   9.064841
    41  H    5.787356   6.648093   6.341153   4.477356   7.578431
    42  O    7.418492   8.469359   7.892636   5.585077   9.470880
    43  C    8.462707   9.566838   8.880515   6.487884  10.578876
    44  H    8.882452   9.911305   8.851257   6.901117  10.736786
    45  H    8.282226   9.468292   8.987425   6.223278  10.617613
    46  H    9.282735  10.397804   9.821472   7.360584  11.453875
                   21         22         23         24         25
    21  H    0.000000
    22  O    2.526094   0.000000
    23  C    3.933452   1.410380   0.000000
    24  H    4.434865   2.080919   1.096861   0.000000
    25  H    4.428987   2.080781   1.096769   1.788488   0.000000
    26  H    4.413884   2.008960   1.089954   1.781042   1.781092
    27  O    9.517963   9.730184  10.024118   9.449926  10.034113
    28  C    9.927884  10.013487  10.237726   9.544426  10.354174
    29  H    9.605079   9.441563   9.545979   8.788016   9.666977
    30  H    9.737273  10.010381  10.340743   9.653103  10.560461
    31  H   11.012028  11.055232  11.230104  10.513703  11.316580
    32  C    4.981383   6.384089   7.356101   7.506328   7.312633
    33  C    5.933035   7.559153   8.586140   8.683541   8.618004
    34  C    4.905793   6.322065   7.307493   7.647295   7.139148
    35  C    6.702929   8.525963   9.617441   9.817431   9.615028
    36  C    5.783857   7.425350   8.471822   8.891714   8.293562
    37  C    6.637684   8.469316   9.569839   9.914341   9.474840
    38  H    6.329244   7.882713   8.872327   8.843143   8.981707
    39  H    4.490037   5.604372   6.506779   6.920387   6.241038
    40  H    7.561485   9.461057  10.572076  10.729761  10.615168
    41  H    6.090211   7.664982   8.686341   9.217333   8.430578
    42  O    7.652903   9.573876  10.701563  11.115650  10.583666
    43  C    8.671962  10.697959  11.858303  12.212556  11.801605
    44  H    9.203109  11.112195  12.212984  12.492975  12.127253
    45  H    8.413989  10.575680  11.796676  12.121796  11.841682
    46  H    9.429472  11.480514  12.649827  13.063084  12.564653
                   26         27         28         29         30
    26  H    0.000000
    27  O   11.063008   0.000000
    28  C   11.226342   1.410417   0.000000
    29  H   10.512080   2.080812   1.096836   0.000000
    30  H   11.298139   2.080834   1.096776   1.788452   0.000000
    31  H   12.217509   2.009011   1.089952   1.781095   1.781128
    32  C    8.297009   6.383587   7.349392   7.500993   7.298084
    33  C    9.509808   6.303621   7.279052   7.618420   7.101587
    34  C    8.189337   7.584667   8.604881   8.705587   8.624903
    35  C   10.495426   7.417283   8.450238   8.872879   8.256664
    36  C    9.290980   8.536065   9.616749   9.820719   9.597803
    37  C   10.399426   8.471085   9.557699   9.906105   9.444377
    38  H    9.812236   5.563840   6.457610   6.869808   6.186277
    39  H    7.379267   7.917663   8.903661   8.879131   9.002253
    40  H   11.445268   7.604161   8.607578   9.141951   8.333853
    41  H    9.443246   9.494893  10.597054  10.764244  10.619765
    42  O   11.482506   9.655976  10.772233  11.174698  10.645945
    43  C   12.647989   9.922362  11.014458  11.533598  10.807357
    44  H   13.061807   9.339756  10.474559  11.062905  10.302929
    45  H   12.557594   9.920393  10.913631  11.439701  10.601274
    46  H   13.404444  10.962129  12.075013  12.601448  11.879352
                   31         32         33         34         35
    31  H    0.000000
    32  C    8.292387   0.000000
    33  C    8.164109   1.386816   0.000000
    34  C    9.531680   1.396945   2.389499   0.000000
    35  C    9.272535   2.419355   1.389687   2.769395   0.000000
    36  C   10.499458   2.412789   2.760178   1.377385   2.398091
    37  C   10.391762   2.800655   2.403586   2.405262   1.386962
    38  H    7.332865   2.140007   1.085772   3.376244   2.142599
    39  H    9.846333   2.148706   3.374349   1.085796   3.855157
    40  H    9.367587   3.389269   2.135626   3.853209   1.084082
    41  H   11.474241   3.401307   3.845570   2.147514   3.374393
    42  O   11.564323   4.160434   3.682081   3.612988   2.435248
    43  C   11.744523   5.026053   4.195071   4.775561   2.806345
    44  H   11.134249   5.078416   4.122477   5.005969   2.793186
    45  H   11.671319   5.078525   4.119902   5.007969   2.797569
    46  H   12.787474   6.007988   5.257725   5.606109   3.874292
                   36         37         38         39         40
    36  C    0.000000
    37  C    1.393012   0.000000
    38  H    3.845924   3.383525   0.000000
    39  H    2.136198   3.387631   4.274419   0.000000
    40  H    3.391636   2.158141   2.445694   4.938964   0.000000
    41  H    1.085484   2.136675   4.931288   2.474977   4.282047
    42  O    2.338103   1.362511   4.570472   4.473681   2.730923
    43  C    3.627962   2.371461   4.845435   5.729449   2.520071
    44  H    3.999431   2.699797   4.640380   5.998299   2.310212
    45  H    3.996616   2.699366   4.635523   6.002628   2.316798
    46  H    4.346811   3.253143   5.933872   6.482621   3.600444
                   41         42         43         44         45
    41  H    0.000000
    42  O    2.526122   0.000000
    43  C    3.933465   1.410363   0.000000
    44  H    4.432832   2.080837   1.096842   0.000000
    45  H    4.430877   2.080773   1.096798   1.788470   0.000000
    46  H    4.414039   2.008991   1.089958   1.781086   1.781119
                   46
    46  H    0.000000
 Stoichiometry    C21H21NO3
 Framework group  C1[X(C21H21NO3)]
 Deg. of freedom   132
 Full point group                 C1      NOp   1
 Largest Abelian subgroup         C1      NOp   1
 Largest concise Abelian subgroup C1      NOp   1
                         Standard orientation:                         
 ---------------------------------------------------------------------
 Center     Atomic      Atomic             Coordinates (Angstroms)
 Number     Number       Type             X           Y           Z
 ---------------------------------------------------------------------
      1          7           0       -0.054086   -0.063852    0.077784
      2          6           0        0.275154    1.311734    0.103506
      3          6           0        1.260864    1.827996   -0.723750
      4          6           0       -0.386136    2.184815    0.970218
      5          6           0        1.598383    3.175646   -0.688444
      6          6           0       -0.074578    3.526309    0.994438
      7          6           0        0.925199    4.034430    0.167909
      8          1           0        1.784639    1.164376   -1.405148
      9          1           0       -1.158634    1.797039    1.627427
     10          1           0        2.379443    3.537518   -1.347421
     11          1           0       -0.588854    4.206820    1.665799
     12          6           0        0.970368   -1.034170   -0.019727
     13          6           0        2.134785   -0.917605    0.724871
     14          6           0        0.835798   -2.133662   -0.869883
     15          6           0        3.151989   -1.858173    0.623575
     16          6           0        1.829783   -3.083911   -0.958163
     17          6           0        3.000538   -2.952780   -0.215611
     18          1           0        2.255494   -0.070395    1.393250
     19          1           0       -0.067506   -2.240735   -1.462783
     20          1           0        4.048238   -1.726663    1.219136
     21          1           0        1.725248   -3.941045   -1.615932
     22          8           0        3.928452   -3.936732   -0.380204
     23          6           0        5.121819   -3.840278    0.365278
     24          1           0        5.681123   -2.930405    0.115451
     25          1           0        4.925954   -3.859222    1.444250
     26          1           0        5.719913   -4.710923    0.096466
     27          8           0        1.168219    5.370782    0.273837
     28          6           0        2.170457    5.919716   -0.552884
     29          1           0        3.151069    5.472721   -0.348812
     30          1           0        1.930215    5.794071   -1.615623
     31          1           0        2.208574    6.983731   -0.319613
     32          6           0       -1.409258   -0.466483    0.091838
     33          6           0       -2.372325    0.232607   -0.620224
     34          6           0       -1.812213   -1.581496    0.830640
     35          6           0       -3.707828   -0.150755   -0.593850
     36          6           0       -3.129962   -1.982236    0.842322
     37          6           0       -4.092694   -1.267170    0.133583
     38          1           0       -2.078678    1.100647   -1.202616
     39          1           0       -1.073245   -2.139336    1.397822
     40          1           0       -4.429565    0.427687   -1.159301
     41          1           0       -3.443944   -2.850000    1.413878
     42          8           0       -5.369584   -1.734983    0.218075
     43          6           0       -6.368506   -1.037348   -0.492266
     44          1           0       -6.460713   -0.000869   -0.145468
     45          1           0       -6.173119   -1.041209   -1.571513
     46          1           0       -7.303574   -1.562500   -0.297656
 ---------------------------------------------------------------------
 Rotational constants (GHZ):           0.1829468           0.1651743           0.0911050
 Leave Link  202 at Sun Jan 17 01:45:05 2021, MaxMem=  4026531840 cpu:               0.3 elap:               0.1
 (Enter /opt/ohpc/pub/libs/gaussian/g16-A.03/sandybridge/g16/l301.exe)
 Standard basis: TZVP (5D, 7F)
 Ernie: Thresh=  0.10000D-02 Tol=  0.10000D-05 Strict=F.
 There are   626 symmetry adapted cartesian basis functions of A   symmetry.
 There are   601 symmetry adapted basis functions of A   symmetry.
   601 basis functions,  1043 primitive gaussians,   626 cartesian basis functions
    89 alpha electrons       89 beta electrons
       nuclear repulsion energy      2056.6778086010 Hartrees.
 IExCor=33909 DFT=T Ex+Corr=LC-wHPBE ExCW=0 ScaHFX=  1.000000
 ScaDFX=  1.000000  1.000000  1.000000  1.000000 ScalE2=  1.000000  1.000000
 IRadAn=      5 IRanWt=     -1 IRanGd=            0 ICorTp=0 IEmpDi=  4
 HFx  wShort=  0.000000 wLong=  0.177800 cFull=  0.000000 cShort=  0.000000 cLong=  1.000000
 DFx  wShort=  0.000000 wLong=  0.177800 cFull=  0.000000 cShort=  1.000000 cLong=  0.000000
 NAtoms=   46 NActive=   46 NUniq=   46 SFac= 1.00D+00 NAtFMM=   60 NAOKFM=F Big=F
 Integral buffers will be    131072 words long.
 Raffenetti 2 integral format.
 Two-electron integral symmetry is turned on.
 Leave Link  301 at Sun Jan 17 01:45:05 2021, MaxMem=  4026531840 cpu:               0.4 elap:               0.1
 (Enter /opt/ohpc/pub/libs/gaussian/g16-A.03/sandybridge/g16/l302.exe)
 NPDir=0 NMtPBC=     1 NCelOv=     1 NCel=       1 NClECP=     1 NCelD=      1
         NCelK=      1 NCelE2=     1 NClLst=     1 CellRange=     0.0.
 One-electron integrals computed using PRISM.
 One-electron integral symmetry used in STVInt
 NBasis=   601 RedAO= T EigKep=  7.47D-06  NBF=   601
 NBsUse=   601 1.00D-06 EigRej= -1.00D+00 NBFU=   601
 Precomputing XC quadrature grid using
 IXCGrd= 4 IRadAn=           5 IRanWt=          -1 IRanGd=           0 AccXCQ= 0.00D+00.
 Generated NRdTot=       0 NPtTot=           0 NUsed=           0 NTot=          32
 NSgBfM=   597   597   597   597   597 MxSgAt=    46 MxSgA2=    46.
 Leave Link  302 at Sun Jan 17 01:45:06 2021, MaxMem=  4026531840 cpu:               9.2 elap:               1.2
 (Enter /opt/ohpc/pub/libs/gaussian/g16-A.03/sandybridge/g16/l303.exe)
 DipDrv:  MaxL=1.
 Leave Link  303 at Sun Jan 17 01:45:06 2021, MaxMem=  4026531840 cpu:               1.1 elap:               0.2
 (Enter /opt/ohpc/pub/libs/gaussian/g16-A.03/sandybridge/g16/l401.exe)
 ExpMin= 9.52D-02 ExpMax= 2.70D+04 ExpMxC= 9.22D+02 IAcc=3 IRadAn=         5 AccDes= 0.00D+00
 Harris functional with IExCor=33909 and IRadAn=       5 diagonalized for initial guess.
 HarFok:  IExCor=33909 AccDes= 0.00D+00 IRadAn=         5 IDoV= 1 UseB2=F ITyADJ=14
 ICtDFT=  3500011 ScaDFX=  1.000000  1.000000  1.000000  1.000000
 FoFCou: FMM=F IPFlag=           0 FMFlag=      100000 FMFlg1=           0
         NFxFlg=           0 DoJE=T BraDBF=F KetDBF=T FulRan=T
         wScrn=  0.000000 ICntrl=       500 IOpCl=  0 I1Cent=   200000004 NGrid=           0
         NMat0=    1 NMatS0=      1 NMatT0=    0 NMatD0=    1 NMtDS0=    0 NMtDT0=    0
 Petite list used in FoFCou.
 Harris En= -1075.65742662014    
 JPrj=0 DoOrth=F DoCkMO=F.
 Leave Link  401 at Sun Jan 17 01:45:13 2021, MaxMem=  4026531840 cpu:              53.6 elap:               6.8
 (Enter /opt/ohpc/pub/libs/gaussian/g16-A.03/sandybridge/g16/l502.exe)
 Integral symmetry usage will be decided dynamically.
 Closed shell SCF:
 Using DIIS extrapolation, IDIIS=    10.
 NGot=  4026531840 LenX=  4025736816 LenY=  4025344314
 Requested convergence on RMS density matrix=1.00D-06 within  32 cycles.
 Requested convergence on MAX density matrix=1.00D-04.
 Requested convergence on             energy=1.00D-04.
 Virtual orbitals will be shifted by   0.500 hartree.
 No special actions if energy rises.
 Dynamic level shift is on during FON iterations.

 Cycle   1  Pass 1  IDiag  1:
 FoFJK:  IHMeth= 1 ICntrl=       0 DoSepK=T KAlg= 0 I1Cent=           0 FoldK=F
 IRaf=         1 NMat=       1 IRICut=       1 DoRegI=T DoRafI=F ISym2E= 0 IDoP0=0 IntGTp=1.
 FoFCou: FMM=F IPFlag=           0 FMFlag=      100000 FMFlg1=           0
         NFxFlg=           0 DoJE=T BraDBF=F KetDBF=F FulRan=T
         wScrn=  0.000000 ICntrl=       500 IOpCl=  0 I1Cent=           0 NGrid=           0
         NMat0=    1 NMatS0=      1 NMatT0=    0 NMatD0=    1 NMtDS0=    0 NMtDT0=    0
 Symmetry not used in FoFCou.
 E= -1092.18185484716    
 DIIS: error= 3.04D-02 at cycle   1 NSaved=   1.
 NSaved= 1 IEnMin= 1 EnMin= -1092.18185484716     IErMin= 1 ErrMin= 3.04D-02
 ErrMax= 3.04D-02  0.00D+00 EMaxC= 1.00D+00 BMatC= 4.08D-01 BMatP= 4.08D-01
 IDIUse=1 WtCom= 1.00D+00 WtEn= 0.00D+00
 Coeff-Com:  0.100D+01
 Coeff:      0.100D+01
 Gap=     0.286 Goal=   None    Shift=    0.500
 T= 1504. Gap= 0.753 NK=0 IS=   90 IE=  601 IFin=   89
          NO(<0.9)=   0  NV(>0.1)=   0     89.00e < EF      0.00e >EF  Err=0.0D+00
 GapD=    0.286 DampG=1.000 DampE=0.500 DampFc=0.5000 IDamp=-1.
 Damping current iteration by 5.00D-01
 RMSDP=1.92D-03 MaxDP=6.53D-02              OVMax= 6.42D-02

 Cycle   2  Pass 1  IDiag  1:
 E= -1092.42720766770     Delta-E=       -0.245352820541 Rises=F Damp=T
 DIIS: error= 1.37D-02 at cycle   2 NSaved=   2.
 NSaved= 2 IEnMin= 2 EnMin= -1092.42720766770     IErMin= 2 ErrMin= 1.37D-02
 ErrMax= 1.37D-02  0.00D+00 EMaxC= 1.00D+00 BMatC= 6.99D-02 BMatP= 4.08D-01
 IDIUse=1 WtCom= 1.00D+00 WtEn= 0.00D+00
 Coeff-Com: -0.575D+00 0.158D+01
 Coeff:     -0.575D+00 0.158D+01
 Gap=     0.259 Goal=   None    Shift=    0.500
 T= 1383. Gap= 0.738 NK=0 IS=   90 IE=  601 IFin=   89
          NO(<0.9)=   0  NV(>0.1)=   0     89.00e < EF      0.00e >EF  Err=0.0D+00
 GapD=    0.259 DampG=1.000 DampE=0.500 DampFc=0.5000 IDamp=-1.
 Damping current iteration by 5.00D-01
 RMSDP=1.39D-03 MaxDP=7.50D-02 DE=-2.45D-01 OVMax= 1.50D-02

 Cycle   3  Pass 1  IDiag  1:
 E= -1092.51306625886     Delta-E=       -0.085858591159 Rises=F Damp=T
 DIIS: error= 6.32D-03 at cycle   3 NSaved=   3.
 NSaved= 3 IEnMin= 3 EnMin= -1092.51306625886     IErMin= 3 ErrMin= 6.32D-03
 ErrMax= 6.32D-03  0.00D+00 EMaxC= 1.00D+00 BMatC= 1.37D-02 BMatP= 6.99D-02
 IDIUse=1 WtCom= 1.00D+00 WtEn= 0.00D+00
 Coeff-Com:  0.619D-01-0.931D+00 0.187D+01
 Coeff:      0.619D-01-0.931D+00 0.187D+01
 Gap=     0.253 Goal=   None    Shift=    0.500
 T= 1149. Gap= 0.751 NK=0 IS=   90 IE=  601 IFin=   89
          NO(<0.9)=   0  NV(>0.1)=   0     89.00e < EF      0.00e >EF  Err=0.0D+00
 GapD=    0.253 DampG=1.000 DampE=1.000 DampFc=1.0000 IDamp=-1.
 RMSDP=9.39D-04 MaxDP=6.29D-02 DE=-8.59D-02 OVMax= 7.62D-03

 Cycle   4  Pass 1  IDiag  1:
 E= -1092.58440006309     Delta-E=       -0.071333804230 Rises=F Damp=F
 DIIS: error= 6.54D-04 at cycle   4 NSaved=   4.
 NSaved= 4 IEnMin= 4 EnMin= -1092.58440006309     IErMin= 4 ErrMin= 6.54D-04
 ErrMax= 6.54D-04  0.00D+00 EMaxC= 1.00D+00 BMatC= 5.32D-04 BMatP= 1.37D-02
 IDIUse=1 WtCom= 1.00D+00 WtEn= 0.00D+00
 Coeff-Com:  0.818D-01-0.257D+00 0.250D+00 0.925D+00
 Coeff:      0.818D-01-0.257D+00 0.250D+00 0.925D+00
 Gap=     0.248 Goal=   None    Shift=    0.500
 RMSDP=1.67D-04 MaxDP=9.95D-03 DE=-7.13D-02 OVMax= 3.00D-03

 Cycle   5  Pass 1  IDiag  1:
 E= -1092.58495006617     Delta-E=       -0.000550003081 Rises=F Damp=F
 DIIS: error= 3.22D-04 at cycle   5 NSaved=   5.
 NSaved= 5 IEnMin= 5 EnMin= -1092.58495006617     IErMin= 5 ErrMin= 3.22D-04
 ErrMax= 3.22D-04  0.00D+00 EMaxC= 1.00D+00 BMatC= 6.71D-05 BMatP= 5.32D-04
 IDIUse=1 WtCom= 1.00D+00 WtEn= 0.00D+00
 Coeff-Com:  0.159D-01 0.161D-01-0.969D-01-0.542D-01 0.112D+01
 Coeff:      0.159D-01 0.161D-01-0.969D-01-0.542D-01 0.112D+01
 Gap=     0.248 Goal=   None    Shift=    0.500
 RMSDP=1.05D-04 MaxDP=5.62D-03 DE=-5.50D-04 OVMax= 2.11D-03

 Cycle   6  Pass 1  IDiag  1:
 E= -1092.58507006224     Delta-E=       -0.000119996069 Rises=F Damp=F
 DIIS: error= 2.49D-04 at cycle   6 NSaved=   6.
 NSaved= 6 IEnMin= 6 EnMin= -1092.58507006224     IErMin= 6 ErrMin= 2.49D-04
 ErrMax= 2.49D-04  0.00D+00 EMaxC= 1.00D+00 BMatC= 1.38D-05 BMatP= 6.71D-05
 IDIUse=1 WtCom= 1.00D+00 WtEn= 0.00D+00
 Coeff-Com: -0.111D-01 0.613D-01-0.920D-01-0.195D+00 0.155D+00 0.108D+01
 Coeff:     -0.111D-01 0.613D-01-0.920D-01-0.195D+00 0.155D+00 0.108D+01
 Gap=     0.248 Goal=   None    Shift=    0.500
 RMSDP=6.02D-05 MaxDP=2.57D-03 DE=-1.20D-04 OVMax= 1.62D-03

 Cycle   7  Pass 1  IDiag  1:
 E= -1092.58510880410     Delta-E=       -0.000038741859 Rises=F Damp=F
 DIIS: error= 1.67D-04 at cycle   7 NSaved=   7.
 NSaved= 7 IEnMin= 7 EnMin= -1092.58510880410     IErMin= 7 ErrMin= 1.67D-04
 ErrMax= 1.67D-04  0.00D+00 EMaxC= 1.00D+00 BMatC= 3.97D-06 BMatP= 1.38D-05
 IDIUse=1 WtCom= 1.00D+00 WtEn= 0.00D+00
 Coeff-Com: -0.667D-02 0.124D-01-0.432D-02-0.397D-01-0.200D+00-0.159D+00
 Coeff-Com:  0.140D+01
 Coeff:     -0.667D-02 0.124D-01-0.432D-02-0.397D-01-0.200D+00-0.159D+00
 Coeff:      0.140D+01
 Gap=     0.248 Goal=   None    Shift=    0.500
 RMSDP=3.36D-05 MaxDP=1.50D-03 DE=-3.87D-05 OVMax= 1.19D-03

 Cycle   8  Pass 1  IDiag  1:
 E= -1092.58512384741     Delta-E=       -0.000015043302 Rises=F Damp=F
 DIIS: error= 1.25D-04 at cycle   8 NSaved=   8.
 NSaved= 8 IEnMin= 8 EnMin= -1092.58512384741     IErMin= 8 ErrMin= 1.25D-04
 ErrMax= 1.25D-04  0.00D+00 EMaxC= 1.00D+00 BMatC= 1.62D-06 BMatP= 3.97D-06
 IDIUse=1 WtCom= 1.00D+00 WtEn= 0.00D+00
 Coeff-Com:  0.827D-04-0.128D-01 0.250D-01 0.384D-01-0.160D+00-0.432D+00
 Coeff-Com:  0.400D+00 0.114D+01
 Coeff:      0.827D-04-0.128D-01 0.250D-01 0.384D-01-0.160D+00-0.432D+00
 Coeff:      0.400D+00 0.114D+01
 Gap=     0.248 Goal=   None    Shift=    0.500
 RMSDP=1.75D-05 MaxDP=7.97D-04 DE=-1.50D-05 OVMax= 8.99D-04

 Cycle   9  Pass 1  IDiag  1:
 E= -1092.58513032146     Delta-E=       -0.000006474057 Rises=F Damp=F
 DIIS: error= 8.69D-05 at cycle   9 NSaved=   9.
 NSaved= 9 IEnMin= 9 EnMin= -1092.58513032146     IErMin= 9 ErrMin= 8.69D-05
 ErrMax= 8.69D-05  0.00D+00 EMaxC= 1.00D+00 BMatC= 5.75D-07 BMatP= 1.62D-06
 IDIUse=1 WtCom= 1.00D+00 WtEn= 0.00D+00
 Coeff-Com:  0.229D-02-0.667D-02 0.546D-02 0.221D-01 0.402D-01-0.607D-01
 Coeff-Com: -0.501D+00-0.434D+00 0.193D+01
 Coeff:      0.229D-02-0.667D-02 0.546D-02 0.221D-01 0.402D-01-0.607D-01
 Coeff:     -0.501D+00-0.434D+00 0.193D+01
 Gap=     0.248 Goal=   None    Shift=    0.500
 RMSDP=9.48D-06 MaxDP=5.46D-04 DE=-6.47D-06 OVMax= 6.81D-04

 Cycle  10  Pass 1  IDiag  1:
 E= -1092.58513321386     Delta-E=       -0.000002892395 Rises=F Damp=F
 DIIS: error= 5.95D-05 at cycle  10 NSaved=  10.
 NSaved=10 IEnMin=10 EnMin= -1092.58513321386     IErMin=10 ErrMin= 5.95D-05
 ErrMax= 5.95D-05  0.00D+00 EMaxC= 1.00D+00 BMatC= 2.33D-07 BMatP= 5.75D-07
 IDIUse=1 WtCom= 1.00D+00 WtEn= 0.00D+00
 Coeff-Com:  0.144D-03 0.288D-02-0.612D-02 0.191D-02 0.445D-01 0.490D-01
 Coeff-Com: -0.193D+00-0.455D+00-0.209D+00 0.176D+01
 Coeff:      0.144D-03 0.288D-02-0.612D-02 0.191D-02 0.445D-01 0.490D-01
 Coeff:     -0.193D+00-0.455D+00-0.209D+00 0.176D+01
 Gap=     0.248 Goal=   None    Shift=    0.500
 RMSDP=5.26D-06 MaxDP=3.35D-04 DE=-2.89D-06 OVMax= 4.66D-04

 Cycle  11  Pass 1  IDiag  1:
 E= -1092.58513440486     Delta-E=       -0.000001191006 Rises=F Damp=F
 DIIS: error= 4.18D-05 at cycle  11 NSaved=  11.
 NSaved=11 IEnMin=11 EnMin= -1092.58513440486     IErMin=11 ErrMin= 4.18D-05
 ErrMax= 4.18D-05  0.00D+00 EMaxC= 1.00D+00 BMatC= 9.51D-08 BMatP= 2.33D-07
 IDIUse=1 WtCom= 1.00D+00 WtEn= 0.00D+00
 Coeff-Com: -0.648D-03 0.373D-02-0.507D-02-0.282D-02 0.942D-02 0.357D-01
 Coeff-Com:  0.662D-01-0.173D+00-0.671D+00 0.123D+00 0.161D+01
 Coeff:     -0.648D-03 0.373D-02-0.507D-02-0.282D-02 0.942D-02 0.357D-01
 Coeff:      0.662D-01-0.173D+00-0.671D+00 0.123D+00 0.161D+01
 Gap=     0.248 Goal=   None    Shift=    0.500
 RMSDP=3.17D-06 MaxDP=2.06D-04 DE=-1.19D-06 OVMax= 3.28D-04

 Cycle  12  Pass 1  IDiag  1:
 E= -1092.58513489260     Delta-E=       -0.000000487742 Rises=F Damp=F
 DIIS: error= 2.58D-05 at cycle  12 NSaved=  12.
 NSaved=12 IEnMin=12 EnMin= -1092.58513489260     IErMin=12 ErrMin= 2.58D-05
 ErrMax= 2.58D-05  0.00D+00 EMaxC= 1.00D+00 BMatC= 3.93D-08 BMatP= 9.51D-08
 IDIUse=1 WtCom= 1.00D+00 WtEn= 0.00D+00
 Coeff-Com: -0.272D-03 0.116D-03 0.774D-03-0.356D-03-0.167D-01-0.852D-02
 Coeff-Com:  0.124D+00 0.711D-01-0.152D+00-0.102D+01 0.259D+00 0.174D+01
 Coeff:     -0.272D-03 0.116D-03 0.774D-03-0.356D-03-0.167D-01-0.852D-02
 Coeff:      0.124D+00 0.711D-01-0.152D+00-0.102D+01 0.259D+00 0.174D+01
 Gap=     0.248 Goal=   None    Shift=    0.500
 RMSDP=1.88D-06 MaxDP=1.08D-04 DE=-4.88D-07 OVMax= 2.19D-04

 Cycle  13  Pass 1  IDiag  1:
 E= -1092.58513509336     Delta-E=       -0.000000200752 Rises=F Damp=F
 DIIS: error= 1.71D-05 at cycle  13 NSaved=  13.
 NSaved=13 IEnMin=13 EnMin= -1092.58513509336     IErMin=13 ErrMin= 1.71D-05
 ErrMax= 1.71D-05  0.00D+00 EMaxC= 1.00D+00 BMatC= 1.63D-08 BMatP= 3.93D-08
 IDIUse=1 WtCom= 1.00D+00 WtEn= 0.00D+00
 Coeff-Com:  0.391D-04-0.633D-03 0.116D-02 0.127D-02-0.899D-02-0.888D-02
 Coeff-Com:  0.378D-01 0.248D-01 0.142D+00-0.527D+00-0.694D-01-0.515D+00
 Coeff-Com:  0.192D+01
 Coeff:      0.391D-04-0.633D-03 0.116D-02 0.127D-02-0.899D-02-0.888D-02
 Coeff:      0.378D-01 0.248D-01 0.142D+00-0.527D+00-0.694D-01-0.515D+00
 Coeff:      0.192D+01
 Gap=     0.248 Goal=   None    Shift=    0.500
 RMSDP=1.07D-06 MaxDP=4.77D-05 DE=-2.01D-07 OVMax= 1.46D-04

 Cycle  14  Pass 1  IDiag  1:
 E= -1092.58513517256     Delta-E=       -0.000000079207 Rises=F Damp=F
 DIIS: error= 1.06D-05 at cycle  14 NSaved=  14.
 NSaved=14 IEnMin=14 EnMin= -1092.58513517256     IErMin=14 ErrMin= 1.06D-05
 ErrMax= 1.06D-05  0.00D+00 EMaxC= 1.00D+00 BMatC= 6.60D-09 BMatP= 1.63D-08
 IDIUse=1 WtCom= 1.00D+00 WtEn= 0.00D+00
 Coeff-Com:  0.112D-03-0.296D-03 0.213D-03 0.119D-02 0.491D-03-0.193D-02
 Coeff-Com: -0.191D-01-0.229D-01 0.161D+00 0.206D-01-0.101D+00-0.112D+01
 Coeff-Com:  0.460D+00 0.162D+01
 Coeff:      0.112D-03-0.296D-03 0.213D-03 0.119D-02 0.491D-03-0.193D-02
 Coeff:     -0.191D-01-0.229D-01 0.161D+00 0.206D-01-0.101D+00-0.112D+01
 Coeff:      0.460D+00 0.162D+01
 Gap=     0.248 Goal=   None    Shift=    0.500
 RMSDP=6.51D-07 MaxDP=2.03D-05 DE=-7.92D-08 OVMax= 9.40D-05

 SCF Done:  E(RLC-wHPBE) =  -1092.58513517     A.U. after   14 cycles
            NFock= 14  Conv=0.65D-06     -V/T= 2.0042
 KE= 1.088038335143D+03 PE=-6.659843827265D+03 EE= 2.422542548349D+03
 Leave Link  502 at Sun Jan 17 01:55:40 2021, MaxMem=  4026531840 cpu:            4997.6 elap:             626.7
 (Enter /opt/ohpc/pub/libs/gaussian/g16-A.03/sandybridge/g16/l508.exe)
 QCSCF skips out because SCF is already converged.
 Leave Link  508 at Sun Jan 17 01:55:40 2021, MaxMem=  4026531840 cpu:               0.1 elap:               0.0
 (Enter /opt/ohpc/pub/libs/gaussian/g16-A.03/sandybridge/g16/l601.exe)
 Copying SCF densities to generalized density rwf, IOpCl= 0 IROHF=0.

 **********************************************************************

            Population analysis using the SCF density.

 **********************************************************************

 Orbital symmetries:
       Occupied  (A) (A) (A) (A) (A) (A) (A) (A) (A) (A) (A) (A)
                 (A) (A) (A) (A) (A) (A) (A) (A) (A) (A) (A) (A)
                 (A) (A) (A) (A) (A) (A) (A) (A) (A) (A) (A) (A)
                 (A) (A) (A) (A) (A) (A) (A) (A) (A) (A) (A) (A)
                 (A) (A) (A) (A) (A) (A) (A) (A) (A) (A) (A) (A)
                 (A) (A) (A) (A) (A) (A) (A) (A) (A) (A) (A) (A)
                 (A) (A) (A) (A) (A) (A) (A) (A) (A) (A) (A) (A)
                 (A) (A) (A) (A) (A)
       Virtual   (A) (A) (A) (A) (A) (A) (A) (A) (A) (A) (A) (A)
                 (A) (A) (A) (A) (A) (A) (A) (A) (A) (A) (A) (A)
                 (A) (A) (A) (A) (A) (A) (A) (A) (A) (A) (A) (A)
                 (A) (A) (A) (A) (A) (A) (A) (A) (A) (A) (A) (A)
                 (A) (A) (A) (A) (A) (A) (A) (A) (A) (A) (A) (A)
                 (A) (A) (A) (A) (A) (A) (A) (A) (A) (A) (A) (A)
                 (A) (A) (A) (A) (A) (A) (A) (A) (A) (A) (A) (A)
                 (A) (A) (A) (A) (A) (A) (A) (A) (A) (A) (A) (A)
                 (A) (A) (A) (A) (A) (A) (A) (A) (A) (A) (A) (A)
                 (A) (A) (A) (A) (A) (A) (A) (A) (A) (A) (A) (A)
                 (A) (A) (A) (A) (A) (A) (A) (A) (A) (A) (A) (A)
                 (A) (A) (A) (A) (A) (A) (A) (A) (A) (A) (A) (A)
                 (A) (A) (A) (A) (A) (A) (A) (A) (A) (A) (A) (A)
                 (A) (A) (A) (A) (A) (A) (A) (A) (A) (A) (A) (A)
                 (A) (A) (A) (A) (A) (A) (A) (A) (A) (A) (A) (A)
                 (A) (A) (A) (A) (A) (A) (A) (A) (A) (A) (A) (A)
                 (A) (A) (A) (A) (A) (A) (A) (A) (A) (A) (A) (A)
                 (A) (A) (A) (A) (A) (A) (A) (A) (A) (A) (A) (A)
                 (A) (A) (A) (A) (A) (A) (A) (A) (A) (A) (A) (A)
                 (A) (A) (A) (A) (A) (A) (A) (A) (A) (A) (A) (A)
                 (A) (A) (A) (A) (A) (A) (A) (A) (A) (A) (A) (A)
                 (A) (A) (A) (A) (A) (A) (A) (A) (A) (A) (A) (A)
                 (A) (A) (A) (A) (A) (A) (A) (A) (A) (A) (A) (A)
                 (A) (A) (A) (A) (A) (A) (A) (A) (A) (A) (A) (A)
                 (A) (A) (A) (A) (A) (A) (A) (A) (A) (A) (A) (A)
                 (A) (A) (A) (A) (A) (A) (A) (A) (A) (A) (A) (A)
                 (A) (A) (A) (A) (A) (A) (A) (A) (A) (A) (A) (A)
                 (A) (A) (A) (A) (A) (A) (A) (A) (A) (A) (A) (A)
                 (A) (A) (A) (A) (A) (A) (A) (A) (A) (A) (A) (A)
                 (A) (A) (A) (A) (A) (A) (A) (A) (A) (A) (A) (A)
                 (A) (A) (A) (A) (A) (A) (A) (A) (A) (A) (A) (A)
                 (A) (A) (A) (A) (A) (A) (A) (A) (A) (A) (A) (A)
                 (A) (A) (A) (A) (A) (A) (A) (A) (A) (A) (A) (A)
                 (A) (A) (A) (A) (A) (A) (A) (A) (A) (A) (A) (A)
                 (A) (A) (A) (A) (A) (A) (A) (A) (A) (A) (A) (A)
                 (A) (A) (A) (A) (A) (A) (A) (A) (A) (A) (A) (A)
                 (A) (A) (A) (A) (A) (A) (A) (A) (A) (A) (A) (A)
                 (A) (A) (A) (A) (A) (A) (A) (A) (A) (A) (A) (A)
                 (A) (A) (A) (A) (A) (A) (A) (A) (A) (A) (A) (A)
                 (A) (A) (A) (A) (A) (A) (A) (A) (A) (A) (A) (A)
                 (A) (A) (A) (A) (A) (A) (A) (A) (A) (A) (A) (A)
                 (A) (A) (A) (A) (A) (A) (A) (A) (A) (A) (A) (A)
                 (A) (A) (A) (A) (A) (A) (A) (A)
 The electronic state is 1-A.
 Alpha  occ. eigenvalues --  -18.88084 -18.88018 -18.87934 -14.10727 -10.03768
 Alpha  occ. eigenvalues --  -10.03703 -10.03611 -10.03467 -10.03408 -10.03323
 Alpha  occ. eigenvalues --  -10.01567 -10.01537 -10.01504  -9.98362  -9.98318
 Alpha  occ. eigenvalues --   -9.98234  -9.98217  -9.98191  -9.98173  -9.98134
 Alpha  occ. eigenvalues --   -9.98093  -9.98071  -9.97973  -9.97910  -9.97848
 Alpha  occ. eigenvalues --   -1.08331  -1.08265  -1.08180  -0.98412  -0.88604
 Alpha  occ. eigenvalues --   -0.88535  -0.86666  -0.79890  -0.79722  -0.78453
 Alpha  occ. eigenvalues --   -0.78252  -0.77775  -0.76788  -0.73940  -0.73555
 Alpha  occ. eigenvalues --   -0.70772  -0.66562  -0.65819  -0.65117  -0.63871
 Alpha  occ. eigenvalues --   -0.63482  -0.61096  -0.58933  -0.58867  -0.58067
 Alpha  occ. eigenvalues --   -0.56293  -0.56067  -0.53860  -0.52554  -0.52325
 Alpha  occ. eigenvalues --   -0.51703  -0.51640  -0.51556  -0.49334  -0.49300
 Alpha  occ. eigenvalues --   -0.49151  -0.47369  -0.47242  -0.47072  -0.46881
 Alpha  occ. eigenvalues --   -0.46156  -0.46034  -0.45960  -0.43907  -0.43752
 Alpha  occ. eigenvalues --   -0.43569  -0.43426  -0.43075  -0.41314  -0.40529
 Alpha  occ. eigenvalues --   -0.40347  -0.38947  -0.37911  -0.37760  -0.37428
 Alpha  occ. eigenvalues --   -0.37238  -0.37149  -0.32837  -0.32155  -0.31307
 Alpha  occ. eigenvalues --   -0.31081  -0.28441  -0.28234  -0.22247
 Alpha virt. eigenvalues --    0.02593   0.04366   0.04487   0.04915   0.05103
 Alpha virt. eigenvalues --    0.09057   0.09726   0.10135   0.10180   0.11871
 Alpha virt. eigenvalues --    0.11945   0.12043   0.13154   0.13829   0.14005
 Alpha virt. eigenvalues --    0.14349   0.14758   0.14918   0.15617   0.16101
 Alpha virt. eigenvalues --    0.16361   0.16518   0.17123   0.17247   0.17281
 Alpha virt. eigenvalues --    0.17519   0.18027   0.18609   0.18981   0.19134
 Alpha virt. eigenvalues --    0.19498   0.19609   0.21503   0.21994   0.23710
 Alpha virt. eigenvalues --    0.24007   0.24559   0.25000   0.25196   0.25899
 Alpha virt. eigenvalues --    0.26534   0.26653   0.26774   0.26935   0.26980
 Alpha virt. eigenvalues --    0.27244   0.27453   0.27623   0.27950   0.28588
 Alpha virt. eigenvalues --    0.28795   0.29757   0.30041   0.30266   0.30383
 Alpha virt. eigenvalues --    0.31707   0.32005   0.32244   0.32976   0.33357
 Alpha virt. eigenvalues --    0.33911   0.34308   0.34426   0.34744   0.35156
 Alpha virt. eigenvalues --    0.35481   0.35799   0.36754   0.36876   0.37939
 Alpha virt. eigenvalues --    0.38206   0.38333   0.38594   0.39409   0.39930
 Alpha virt. eigenvalues --    0.40311   0.40728   0.41008   0.41281   0.41855
 Alpha virt. eigenvalues --    0.42273   0.42419   0.43105   0.43784   0.44053
 Alpha virt. eigenvalues --    0.44341   0.44395   0.44948   0.45151   0.45362
 Alpha virt. eigenvalues --    0.45586   0.45826   0.46199   0.46776   0.47083
 Alpha virt. eigenvalues --    0.47199   0.47459   0.47951   0.48255   0.48410
 Alpha virt. eigenvalues --    0.48754   0.49077   0.49168   0.50120   0.50643
 Alpha virt. eigenvalues --    0.50849   0.50936   0.51249   0.51360   0.51533
 Alpha virt. eigenvalues --    0.51908   0.52034   0.52870   0.53061   0.53570
 Alpha virt. eigenvalues --    0.53835   0.54145   0.54730   0.54896   0.55225
 Alpha virt. eigenvalues --    0.55285   0.55886   0.56637   0.57310   0.58691
 Alpha virt. eigenvalues --    0.59715   0.60441   0.60693   0.60874   0.61004
 Alpha virt. eigenvalues --    0.62480   0.63324   0.65057   0.65821   0.66090
 Alpha virt. eigenvalues --    0.66696   0.67654   0.67981   0.68361   0.68807
 Alpha virt. eigenvalues --    0.69234   0.69573   0.70558   0.70723   0.70927
 Alpha virt. eigenvalues --    0.72608   0.72810   0.73120   0.73665   0.74463
 Alpha virt. eigenvalues --    0.76034   0.76647   0.76669   0.77003   0.77746
 Alpha virt. eigenvalues --    0.78083   0.78319   0.78563   0.80183   0.80412
 Alpha virt. eigenvalues --    0.81248   0.83217   0.83746   0.84412   0.85285
 Alpha virt. eigenvalues --    0.86515   0.87084   0.89269   0.89372   0.91159
 Alpha virt. eigenvalues --    0.92650   0.93027   0.95654   0.96315   0.96391
 Alpha virt. eigenvalues --    0.98690   0.99020   1.01029   1.17966   1.20119
 Alpha virt. eigenvalues --    1.20372   1.21954   1.22262   1.22772   1.26525
 Alpha virt. eigenvalues --    1.26871   1.27232   1.27491   1.28192   1.28721
 Alpha virt. eigenvalues --    1.29003   1.29249   1.29629   1.29949   1.30397
 Alpha virt. eigenvalues --    1.31080   1.31435   1.31776   1.32313   1.33116
 Alpha virt. eigenvalues --    1.33248   1.33674   1.34176   1.34453   1.35325
 Alpha virt. eigenvalues --    1.35851   1.36660   1.37038   1.37396   1.37644
 Alpha virt. eigenvalues --    1.38269   1.38871   1.39761   1.40518   1.40816
 Alpha virt. eigenvalues --    1.42840   1.43097   1.43381   1.44485   1.44585
 Alpha virt. eigenvalues --    1.45030   1.45824   1.45973   1.46394   1.46589
 Alpha virt. eigenvalues --    1.46882   1.47502   1.47968   1.48339   1.48533
 Alpha virt. eigenvalues --    1.48830   1.49227   1.50733   1.51000   1.51349
 Alpha virt. eigenvalues --    1.51790   1.52413   1.52778   1.53315   1.54451
 Alpha virt. eigenvalues --    1.54504   1.54720   1.54850   1.55110   1.55366
 Alpha virt. eigenvalues --    1.55653   1.56020   1.56597   1.56892   1.57285
 Alpha virt. eigenvalues --    1.57705   1.58082   1.58913   1.59390   1.59756
 Alpha virt. eigenvalues --    1.60167   1.60656   1.60720   1.61438   1.62213
 Alpha virt. eigenvalues --    1.62680   1.63371   1.63993   1.64485   1.64917
 Alpha virt. eigenvalues --    1.66673   1.67916   1.68142   1.70261   1.70810
 Alpha virt. eigenvalues --    1.71091   1.71928   1.72168   1.72328   1.76246
 Alpha virt. eigenvalues --    1.77059   1.78164   1.78237   1.78340   1.78934
 Alpha virt. eigenvalues --    1.79308   1.80079   1.80613   1.81008   1.81345
 Alpha virt. eigenvalues --    1.81550   1.81625   1.81718   1.82137   1.82294
 Alpha virt. eigenvalues --    1.83410   1.83433   1.84356   1.84591   1.85823
 Alpha virt. eigenvalues --    1.86068   1.86502   1.86738   1.88285   1.88926
 Alpha virt. eigenvalues --    1.89646   1.90191   1.91143   1.91589   1.93050
 Alpha virt. eigenvalues --    1.93438   1.93692   1.93820   1.94640   1.95310
 Alpha virt. eigenvalues --    1.95623   1.95829   1.95939   1.96245   1.96447
 Alpha virt. eigenvalues --    1.96644   1.98167   2.02976   2.03700   2.04058
 Alpha virt. eigenvalues --    2.06051   2.06203   2.07003   2.07684   2.07909
 Alpha virt. eigenvalues --    2.08719   2.11886   2.12566   2.13099   2.14387
 Alpha virt. eigenvalues --    2.15597   2.16329   2.17707   2.18615   2.21761
 Alpha virt. eigenvalues --    2.21860   2.21963   2.22444   2.22540   2.23349
 Alpha virt. eigenvalues --    2.23892   2.25280   2.25768   2.28293   2.31494
 Alpha virt. eigenvalues --    2.31720   2.31900   2.32744   2.32781   2.32825
 Alpha virt. eigenvalues --    2.33519   2.33926   2.35232   2.35614   2.36757
 Alpha virt. eigenvalues --    2.36876   2.37058   2.37390   2.37559   2.37944
 Alpha virt. eigenvalues --    2.38338   2.39184   2.40110   2.40151   2.40873
 Alpha virt. eigenvalues --    2.40941   2.41027   2.41133   2.41385   2.41605
 Alpha virt. eigenvalues --    2.41833   2.46732   2.46779   2.49398   2.49747
 Alpha virt. eigenvalues --    2.49938   2.50953   2.51346   2.51864   2.52405
 Alpha virt. eigenvalues --    2.56980   2.57139   2.58035   2.58083   2.58168
 Alpha virt. eigenvalues --    2.61119   2.61211   2.62514   2.63224   2.63666
 Alpha virt. eigenvalues --    2.64290   2.65521   2.66207   2.66332   2.66546
 Alpha virt. eigenvalues --    2.68855   2.69144   2.72762   2.72877   2.73514
 Alpha virt. eigenvalues --    2.73917   2.74190   2.74421   2.76111   2.76271
 Alpha virt. eigenvalues --    2.77117   2.77439   2.79435   2.79654   2.79999
 Alpha virt. eigenvalues --    2.80255   2.82709   2.84641   2.86046   2.86685
 Alpha virt. eigenvalues --    2.89966   2.90584   2.91035   2.91341   2.96271
 Alpha virt. eigenvalues --    2.96331   2.97060   2.97680   2.97918   3.01321
 Alpha virt. eigenvalues --    3.01361   3.01615   3.02628   3.03479   3.06195
 Alpha virt. eigenvalues --    3.06635   3.06821   3.07239   3.07733   3.08338
 Alpha virt. eigenvalues --    3.08396   3.08480   3.08829   3.09388   3.10228
 Alpha virt. eigenvalues --    3.12492   3.12776   3.15291   3.17082   3.17596
 Alpha virt. eigenvalues --    3.17838   3.19031   3.19283   3.21746   3.22977
 Alpha virt. eigenvalues --    3.23577   3.27338   3.27796   3.28270   3.29407
 Alpha virt. eigenvalues --    3.29565   3.29997   3.30044   3.30130   3.30408
 Alpha virt. eigenvalues --    3.31391   3.33412   3.33600   3.34775   3.38325
 Alpha virt. eigenvalues --    3.38458   3.38623   3.39548   3.40421   3.43273
 Alpha virt. eigenvalues --    3.44321   3.45741   3.48557   3.57225   3.57589
 Alpha virt. eigenvalues --    3.58263   3.60254   3.60598   3.72681   3.86828
 Alpha virt. eigenvalues --    3.87185   3.97643   3.98051   3.98303   4.18559
 Alpha virt. eigenvalues --    4.19327   4.19384  21.26354  21.28028  21.28169
 Alpha virt. eigenvalues --   21.70567  21.73936  21.74372  21.79258  21.81406
 Alpha virt. eigenvalues --   21.81490  21.81619  21.87279  21.88247  21.93555
 Alpha virt. eigenvalues --   21.97630  21.98377  21.99285  22.03261  22.04730
 Alpha virt. eigenvalues --   22.10113  22.17736  22.18468  32.07703  43.34815
 Alpha virt. eigenvalues --   43.34920  43.35003
          Condensed to atoms (all electrons):
               1          2          3          4          5          6
     1  N    6.589405   0.137711  -0.025436  -0.008396   0.031834   0.017328
     2  C    0.137711   5.545792   0.379964   0.284689   0.044446   0.061375
     3  C   -0.025436   0.379964   5.460489  -0.166065  -0.019890  -0.021904
     4  C   -0.008396   0.284689  -0.166065   5.425711  -0.051691   0.165284
     5  C    0.031834   0.044446  -0.019890  -0.051691   6.088935  -0.242784
     6  C    0.017328   0.061375  -0.021904   0.165284  -0.242784   5.622936
     7  C    0.002895  -0.160611   0.078912   0.050994   0.102935   0.348032
     8  H   -0.010337  -0.028753   0.393812   0.011532  -0.045955   0.001130
     9  H   -0.008206  -0.058412   0.018305   0.435480  -0.004731  -0.075622
    10  H   -0.000688   0.007677   0.025993   0.007234   0.359636  -0.006562
    11  H   -0.000563   0.021987  -0.003867  -0.062315   0.020695   0.443353
    12  C    0.141393  -0.085216   0.032864  -0.017452  -0.006831  -0.002350
    13  C   -0.020786   0.033821  -0.064746   0.019651  -0.007858   0.002521
    14  C   -0.015274  -0.019765   0.020035  -0.013932   0.002812   0.000109
    15  C    0.029085  -0.005522  -0.007480   0.002769   0.000055  -0.000084
    16  C    0.018291  -0.001908   0.002541   0.000100  -0.000067  -0.000102
    17  C    0.002862   0.001480  -0.001441  -0.000103  -0.000104   0.000046
    18  H   -0.009108   0.003158   0.004272  -0.003034  -0.003230   0.001535
    19  H   -0.009102  -0.002715   0.000577  -0.000455   0.000014   0.000037
    20  H   -0.000661  -0.000081   0.000093  -0.000048   0.000038  -0.000001
    21  H   -0.000553   0.000038  -0.000036   0.000003  -0.000003  -0.000000
    22  O   -0.000001   0.000006  -0.000003   0.000000  -0.000000  -0.000000
    23  C    0.000001  -0.000012  -0.000004  -0.000000   0.000001   0.000000
    24  H    0.000001   0.000003   0.000012  -0.000000   0.000000   0.000000
    25  H    0.000000  -0.000005  -0.000001   0.000000   0.000000  -0.000000
    26  H   -0.000000   0.000000  -0.000000   0.000000  -0.000000   0.000000
    27  O   -0.000001  -0.000192   0.012863   0.006286  -0.125142  -0.098073
    28  C    0.000002   0.002089  -0.009198  -0.001368   0.020561   0.008913
    29  H    0.000001   0.000429  -0.001193  -0.000089   0.020020  -0.002440
    30  H    0.000001  -0.000044  -0.000947   0.000154   0.016387  -0.001251
    31  H   -0.000000  -0.000068   0.000233   0.000199  -0.001661  -0.000087
    32  C    0.148500  -0.089062  -0.018661   0.037364  -0.004089  -0.001145
    33  C   -0.026660   0.035126   0.019776  -0.066232   0.003661  -0.007776
    34  C   -0.009138  -0.013469  -0.013366   0.019245   0.000054   0.001892
    35  C    0.028962  -0.005233   0.002463  -0.008882   0.000077  -0.000305
    36  C    0.015466  -0.001576  -0.000056   0.002515  -0.000119  -0.000085
    37  C    0.003306   0.001571  -0.000031  -0.001578   0.000054  -0.000129
    38  H   -0.009688   0.001577  -0.003106   0.004965   0.001726  -0.002607
    39  H   -0.008043  -0.002150  -0.000399   0.000465   0.000036   0.000018
    40  H   -0.000664  -0.000049  -0.000051   0.000085  -0.000004   0.000045
    41  H   -0.000536   0.000029   0.000003  -0.000026   0.000000  -0.000002
    42  O   -0.000000   0.000005   0.000000  -0.000002  -0.000000  -0.000000
    43  C    0.000001  -0.000011  -0.000000  -0.000006   0.000000   0.000001
    44  H    0.000001   0.000004  -0.000000   0.000010  -0.000000   0.000000
    45  H    0.000001  -0.000005   0.000000  -0.000001   0.000000   0.000000
    46  H   -0.000000   0.000000   0.000000  -0.000000   0.000000  -0.000000
               7          8          9         10         11         12
     1  N    0.002895  -0.010337  -0.008206  -0.000688  -0.000563   0.141393
     2  C   -0.160611  -0.028753  -0.058412   0.007677   0.021987  -0.085216
     3  C    0.078912   0.393812   0.018305   0.025993  -0.003867   0.032864
     4  C    0.050994   0.011532   0.435480   0.007234  -0.062315  -0.017452
     5  C    0.102935  -0.045955  -0.004731   0.359636   0.020695  -0.006831
     6  C    0.348032   0.001130  -0.075622  -0.006562   0.443353  -0.002350
     7  C    5.276826   0.009303   0.022545  -0.064889  -0.097754   0.001786
     8  H    0.009303   0.535599  -0.000280  -0.004265   0.000026   0.003801
     9  H    0.022545  -0.000280   0.545196   0.000022  -0.010571  -0.001953
    10  H   -0.064889  -0.004265   0.000022   0.532970  -0.000283  -0.000075
    11  H   -0.097754   0.000026  -0.010571  -0.000283   0.577995   0.000023
    12  C    0.001786   0.003801  -0.001953  -0.000075   0.000023   5.539230
    13  C   -0.001471   0.004284   0.000455   0.000094  -0.000032   0.372733
    14  C   -0.000091  -0.002984  -0.000465  -0.000050   0.000003   0.287802
    15  C   -0.000100  -0.003234   0.000018   0.000037  -0.000003   0.046951
    16  C    0.000046   0.001682   0.000036  -0.000001   0.000000   0.058589
    17  C   -0.000021   0.000016  -0.000011  -0.000002   0.000000  -0.159592
    18  H    0.000040   0.000860  -0.000035  -0.000023   0.000012  -0.030961
    19  H   -0.000012  -0.000061  -0.000021  -0.000000   0.000000  -0.057721
    20  H   -0.000002  -0.000023   0.000000   0.000000   0.000000   0.007985
    21  H    0.000000   0.000016   0.000000   0.000000  -0.000000   0.021495
    22  O    0.000000   0.000000   0.000000  -0.000000  -0.000000  -0.000259
    23  C   -0.000000  -0.000010  -0.000000  -0.000000  -0.000000   0.002098
    24  H   -0.000000   0.000001   0.000000   0.000000   0.000000   0.000444
    25  H    0.000000  -0.000000  -0.000000  -0.000000  -0.000000  -0.000056
    26  H   -0.000000  -0.000000  -0.000000   0.000000   0.000000  -0.000068
    27  O    0.449212  -0.000098  -0.000111  -0.008552   0.003488   0.000005
    28  C   -0.122620  -0.000264   0.000040   0.015852   0.000161  -0.000012
    29  H   -0.024010  -0.000060  -0.000001   0.001282   0.000029   0.000004
    30  H   -0.021416  -0.000000  -0.000001   0.000223   0.000133  -0.000005
    31  H    0.011600   0.000003   0.000000   0.000014  -0.000162   0.000000
    32  C    0.002364  -0.001258   0.002368   0.000020  -0.000216  -0.096032
    33  C   -0.001647   0.000274   0.002900  -0.000046   0.000056  -0.014052
    34  C   -0.000008  -0.000433  -0.002269   0.000003  -0.000024   0.039836
    35  C   -0.000180  -0.000019  -0.003040  -0.000003   0.000025  -0.003446
    36  C    0.000035   0.000033   0.001522   0.000000  -0.000002  -0.000137
    37  C   -0.000013  -0.000011   0.000073   0.000000  -0.000002   0.002267
    38  H    0.000546   0.000016   0.001032   0.000009  -0.000049  -0.001462
    39  H   -0.000006  -0.000018  -0.000052  -0.000000  -0.000000   0.000766
    40  H   -0.000003  -0.000000  -0.000023   0.000000   0.000000   0.000025
    41  H    0.000000   0.000000   0.000010  -0.000000  -0.000000  -0.000209
    42  O    0.000000   0.000000  -0.000001  -0.000000  -0.000000  -0.000005
    43  C   -0.000000  -0.000000  -0.000009  -0.000000   0.000000   0.000000
    44  H   -0.000000   0.000000   0.000001   0.000000  -0.000000  -0.000002
    45  H    0.000000  -0.000000  -0.000000  -0.000000   0.000000   0.000003
    46  H   -0.000000  -0.000000  -0.000000   0.000000   0.000000  -0.000000
              13         14         15         16         17         18
     1  N   -0.020786  -0.015274   0.029085   0.018291   0.002862  -0.009108
     2  C    0.033821  -0.019765  -0.005522  -0.001908   0.001480   0.003158
     3  C   -0.064746   0.020035  -0.007480   0.002541  -0.001441   0.004272
     4  C    0.019651  -0.013932   0.002769   0.000100  -0.000103  -0.003034
     5  C   -0.007858   0.002812   0.000055  -0.000067  -0.000104  -0.003230
     6  C    0.002521   0.000109  -0.000084  -0.000102   0.000046   0.001535
     7  C   -0.001471  -0.000091  -0.000100   0.000046  -0.000021   0.000040
     8  H    0.004284  -0.002984  -0.003234   0.001682   0.000016   0.000860
     9  H    0.000455  -0.000465   0.000018   0.000036  -0.000011  -0.000035
    10  H    0.000094  -0.000050   0.000037  -0.000001  -0.000002  -0.000023
    11  H   -0.000032   0.000003  -0.000003   0.000000   0.000000   0.000012
    12  C    0.372733   0.287802   0.046951   0.058589  -0.159592  -0.030961
    13  C    5.464214  -0.169746  -0.014899  -0.019666   0.080520   0.394607
    14  C   -0.169746   5.431015  -0.047703   0.168360   0.045886   0.011417
    15  C   -0.014899  -0.047703   6.081008  -0.246950   0.102228  -0.045298
    16  C   -0.019666   0.168360  -0.246950   5.614869   0.355767   0.001084
    17  C    0.080520   0.045886   0.102228   0.355767   5.272068   0.009605
    18  H    0.394607   0.011417  -0.045298   0.001084   0.009605   0.536160
    19  H    0.018218   0.432699  -0.004523  -0.073112   0.021990  -0.000277
    20  H    0.024400   0.007137   0.360802  -0.006493  -0.064772  -0.004473
    21  H   -0.003768  -0.061372   0.020486   0.442401  -0.096727   0.000026
    22  O    0.012971   0.006499  -0.125202  -0.098292   0.449277  -0.000096
    23  C   -0.009142  -0.001373   0.020661   0.008871  -0.122766  -0.000265
    24  H   -0.001214  -0.000111   0.019976  -0.002396  -0.024007  -0.000065
    25  H   -0.000951   0.000175   0.016362  -0.001315  -0.021375   0.000004
    26  H    0.000231   0.000200  -0.001668  -0.000075   0.011615   0.000003
    27  O   -0.000002   0.000000  -0.000000  -0.000000   0.000000   0.000000
    28  C   -0.000004  -0.000000   0.000001   0.000000  -0.000000  -0.000009
    29  H    0.000011  -0.000000   0.000000   0.000000  -0.000000   0.000001
    30  H   -0.000001   0.000000   0.000000  -0.000000   0.000000  -0.000000
    31  H   -0.000000   0.000000  -0.000000   0.000000  -0.000000  -0.000000
    32  C   -0.013531   0.039996  -0.003686  -0.000656   0.002463  -0.000723
    33  C   -0.013032   0.020008  -0.000096   0.001647   0.000062  -0.000387
    34  C    0.019362  -0.067945   0.003432  -0.008950  -0.001650   0.000208
    35  C   -0.000087   0.003375  -0.000132   0.000009   0.000037   0.000031
    36  C    0.001641  -0.008650  -0.000015  -0.000519  -0.000171  -0.000008
    37  C    0.000052  -0.001631   0.000039  -0.000178  -0.000003  -0.000006
    38  H   -0.000381   0.000343   0.000033  -0.000011  -0.000005  -0.000014
    39  H   -0.002503   0.003788   0.001617  -0.002478   0.000549   0.000021
    40  H    0.000003  -0.000040   0.000000  -0.000002   0.000000  -0.000000
    41  H   -0.000027   0.000039  -0.000004   0.000030  -0.000003  -0.000000
    42  O    0.000000   0.000009  -0.000000   0.000000  -0.000000   0.000000
    43  C   -0.000000  -0.000001  -0.000000  -0.000000   0.000000   0.000000
    44  H    0.000000   0.000000   0.000000  -0.000000   0.000000  -0.000000
    45  H   -0.000000  -0.000003  -0.000000  -0.000000   0.000000   0.000000
    46  H   -0.000000   0.000000  -0.000000   0.000000   0.000000  -0.000000
              19         20         21         22         23         24
     1  N   -0.009102  -0.000661  -0.000553  -0.000001   0.000001   0.000001
     2  C   -0.002715  -0.000081   0.000038   0.000006  -0.000012   0.000003
     3  C    0.000577   0.000093  -0.000036  -0.000003  -0.000004   0.000012
     4  C   -0.000455  -0.000048   0.000003   0.000000  -0.000000  -0.000000
     5  C    0.000014   0.000038  -0.000003  -0.000000   0.000001   0.000000
     6  C    0.000037  -0.000001  -0.000000  -0.000000   0.000000   0.000000
     7  C   -0.000012  -0.000002   0.000000   0.000000  -0.000000  -0.000000
     8  H   -0.000061  -0.000023   0.000016   0.000000  -0.000010   0.000001
     9  H   -0.000021   0.000000   0.000000   0.000000  -0.000000   0.000000
    10  H   -0.000000   0.000000   0.000000  -0.000000  -0.000000   0.000000
    11  H    0.000000   0.000000  -0.000000  -0.000000  -0.000000   0.000000
    12  C   -0.057721   0.007985   0.021495  -0.000259   0.002098   0.000444
    13  C    0.018218   0.024400  -0.003768   0.012971  -0.009142  -0.001214
    14  C    0.432699   0.007137  -0.061372   0.006499  -0.001373  -0.000111
    15  C   -0.004523   0.360802   0.020486  -0.125202   0.020661   0.019976
    16  C   -0.073112  -0.006493   0.442401  -0.098292   0.008871  -0.002396
    17  C    0.021990  -0.064772  -0.096727   0.449277  -0.122766  -0.024007
    18  H   -0.000277  -0.004473   0.000026  -0.000096  -0.000265  -0.000065
    19  H    0.542425   0.000022  -0.010432  -0.000110   0.000040  -0.000001
    20  H    0.000022   0.533033  -0.000288  -0.008541   0.015922   0.001259
    21  H   -0.010432  -0.000288   0.577354   0.003428   0.000169   0.000030
    22  O   -0.000110  -0.008541   0.003428   7.783155   0.230528  -0.043849
    23  C    0.000040   0.015922   0.000169   0.230528   4.899058   0.404924
    24  H   -0.000001   0.001259   0.000030  -0.043849   0.404924   0.604208
    25  H   -0.000001   0.000216   0.000130  -0.044217   0.407101  -0.063349
    26  H    0.000000   0.000016  -0.000162  -0.029804   0.387926  -0.020619
    27  O    0.000000  -0.000000  -0.000000  -0.000000   0.000000   0.000000
    28  C   -0.000000   0.000000  -0.000000   0.000000   0.000000   0.000000
    29  H    0.000000   0.000000   0.000000   0.000000   0.000000  -0.000000
    30  H   -0.000000  -0.000000  -0.000000  -0.000000  -0.000000   0.000000
    31  H   -0.000000   0.000000   0.000000   0.000000  -0.000000  -0.000000
    32  C    0.000842   0.000012  -0.000206  -0.000007   0.000000  -0.000002
    33  C   -0.002291   0.000003  -0.000027   0.000000  -0.000000   0.000000
    34  C    0.003753  -0.000037   0.000040   0.000009  -0.000001   0.000000
    35  C    0.001697   0.000000  -0.000004  -0.000000  -0.000000   0.000000
    36  C   -0.002472  -0.000002   0.000028   0.000000  -0.000000  -0.000000
    37  C    0.000566   0.000000  -0.000003   0.000000   0.000000   0.000000
    38  H   -0.000004  -0.000000  -0.000000   0.000000   0.000000  -0.000000
    39  H    0.001226   0.000004  -0.000049  -0.000008   0.000003  -0.000000
    40  H    0.000007  -0.000000   0.000000  -0.000000   0.000000  -0.000000
    41  H   -0.000050   0.000000  -0.000000   0.000000  -0.000000   0.000000
    42  O   -0.000008  -0.000000   0.000000   0.000000  -0.000000  -0.000000
    43  C    0.000003   0.000000  -0.000000  -0.000000  -0.000000   0.000000
    44  H   -0.000000  -0.000000   0.000000  -0.000000   0.000000  -0.000000
    45  H    0.000004   0.000000  -0.000000   0.000000  -0.000000   0.000000
    46  H   -0.000000   0.000000  -0.000000  -0.000000  -0.000000   0.000000
              25         26         27         28         29         30
     1  N    0.000000  -0.000000  -0.000001   0.000002   0.000001   0.000001
     2  C   -0.000005   0.000000  -0.000192   0.002089   0.000429  -0.000044
     3  C   -0.000001  -0.000000   0.012863  -0.009198  -0.001193  -0.000947
     4  C    0.000000   0.000000   0.006286  -0.001368  -0.000089   0.000154
     5  C    0.000000  -0.000000  -0.125142   0.020561   0.020020   0.016387
     6  C   -0.000000   0.000000  -0.098073   0.008913  -0.002440  -0.001251
     7  C    0.000000  -0.000000   0.449212  -0.122620  -0.024010  -0.021416
     8  H   -0.000000  -0.000000  -0.000098  -0.000264  -0.000060  -0.000000
     9  H   -0.000000  -0.000000  -0.000111   0.000040  -0.000001  -0.000001
    10  H   -0.000000   0.000000  -0.008552   0.015852   0.001282   0.000223
    11  H   -0.000000   0.000000   0.003488   0.000161   0.000029   0.000133
    12  C   -0.000056  -0.000068   0.000005  -0.000012   0.000004  -0.000005
    13  C   -0.000951   0.000231  -0.000002  -0.000004   0.000011  -0.000001
    14  C    0.000175   0.000200   0.000000  -0.000000  -0.000000   0.000000
    15  C    0.016362  -0.001668  -0.000000   0.000001   0.000000   0.000000
    16  C   -0.001315  -0.000075  -0.000000   0.000000   0.000000  -0.000000
    17  C   -0.021375   0.011615   0.000000  -0.000000  -0.000000   0.000000
    18  H    0.000004   0.000003   0.000000  -0.000009   0.000001  -0.000000
    19  H   -0.000001   0.000000   0.000000  -0.000000   0.000000  -0.000000
    20  H    0.000216   0.000016  -0.000000   0.000000   0.000000  -0.000000
    21  H    0.000130  -0.000162  -0.000000  -0.000000   0.000000  -0.000000
    22  O   -0.044217  -0.029804  -0.000000   0.000000   0.000000  -0.000000
    23  C    0.407101   0.387926   0.000000   0.000000   0.000000  -0.000000
    24  H   -0.063349  -0.020619   0.000000   0.000000  -0.000000   0.000000
    25  H    0.601152  -0.020572  -0.000000  -0.000000   0.000000  -0.000000
    26  H   -0.020572   0.528399   0.000000  -0.000000  -0.000000   0.000000
    27  O   -0.000000   0.000000   7.783184   0.230558  -0.043810  -0.044249
    28  C   -0.000000  -0.000000   0.230558   4.898920   0.405265   0.406809
    29  H    0.000000  -0.000000  -0.043810   0.405265   0.603163  -0.063273
    30  H   -0.000000   0.000000  -0.044249   0.406809  -0.063273   0.601828
    31  H    0.000000  -0.000000  -0.029773   0.387926  -0.020517  -0.020685
    32  C    0.000003  -0.000000  -0.000005  -0.000001  -0.000002   0.000003
    33  C    0.000000  -0.000000   0.000009  -0.000001   0.000000  -0.000003
    34  C   -0.000003   0.000000   0.000000  -0.000000   0.000000  -0.000000
    35  C   -0.000000  -0.000000   0.000000   0.000000  -0.000000  -0.000000
    36  C   -0.000000   0.000000  -0.000000  -0.000000   0.000000  -0.000000
    37  C    0.000000   0.000000   0.000000   0.000000   0.000000  -0.000000
    38  H    0.000000  -0.000000  -0.000008   0.000003  -0.000000   0.000004
    39  H    0.000004  -0.000000   0.000000   0.000000  -0.000000   0.000000
    40  H    0.000000   0.000000  -0.000000  -0.000000   0.000000  -0.000000
    41  H   -0.000000  -0.000000  -0.000000   0.000000  -0.000000   0.000000
    42  O    0.000000  -0.000000  -0.000000  -0.000000  -0.000000   0.000000
    43  C   -0.000000  -0.000000   0.000000  -0.000000  -0.000000  -0.000000
    44  H    0.000000   0.000000   0.000000   0.000000   0.000000  -0.000000
    45  H   -0.000000  -0.000000  -0.000000  -0.000000  -0.000000   0.000000
    46  H   -0.000000  -0.000000   0.000000  -0.000000   0.000000  -0.000000
              31         32         33         34         35         36
     1  N   -0.000000   0.148500  -0.026660  -0.009138   0.028962   0.015466
     2  C   -0.000068  -0.089062   0.035126  -0.013469  -0.005233  -0.001576
     3  C    0.000233  -0.018661   0.019776  -0.013366   0.002463  -0.000056
     4  C    0.000199   0.037364  -0.066232   0.019245  -0.008882   0.002515
     5  C   -0.001661  -0.004089   0.003661   0.000054   0.000077  -0.000119
     6  C   -0.000087  -0.001145  -0.007776   0.001892  -0.000305  -0.000085
     7  C    0.011600   0.002364  -0.001647  -0.000008  -0.000180   0.000035
     8  H    0.000003  -0.001258   0.000274  -0.000433  -0.000019   0.000033
     9  H    0.000000   0.002368   0.002900  -0.002269  -0.003040   0.001522
    10  H    0.000014   0.000020  -0.000046   0.000003  -0.000003   0.000000
    11  H   -0.000162  -0.000216   0.000056  -0.000024   0.000025  -0.000002
    12  C    0.000000  -0.096032  -0.014052   0.039836  -0.003446  -0.000137
    13  C   -0.000000  -0.013531  -0.013032   0.019362  -0.000087   0.001641
    14  C    0.000000   0.039996   0.020008  -0.067945   0.003375  -0.008650
    15  C   -0.000000  -0.003686  -0.000096   0.003432  -0.000132  -0.000015
    16  C    0.000000  -0.000656   0.001647  -0.008950   0.000009  -0.000519
    17  C   -0.000000   0.002463   0.000062  -0.001650   0.000037  -0.000171
    18  H   -0.000000  -0.000723  -0.000387   0.000208   0.000031  -0.000008
    19  H   -0.000000   0.000842  -0.002291   0.003753   0.001697  -0.002472
    20  H    0.000000   0.000012   0.000003  -0.000037   0.000000  -0.000002
    21  H    0.000000  -0.000206  -0.000027   0.000040  -0.000004   0.000028
    22  O    0.000000  -0.000007   0.000000   0.000009  -0.000000   0.000000
    23  C   -0.000000   0.000000  -0.000000  -0.000001  -0.000000  -0.000000
    24  H   -0.000000  -0.000002   0.000000   0.000000   0.000000  -0.000000
    25  H    0.000000   0.000003   0.000000  -0.000003  -0.000000  -0.000000
    26  H   -0.000000  -0.000000  -0.000000   0.000000  -0.000000   0.000000
    27  O   -0.029773  -0.000005   0.000009   0.000000   0.000000  -0.000000
    28  C    0.387926  -0.000001  -0.000001  -0.000000   0.000000  -0.000000
    29  H   -0.020517  -0.000002   0.000000   0.000000  -0.000000   0.000000
    30  H   -0.020685   0.000003  -0.000003  -0.000000  -0.000000  -0.000000
    31  H    0.528379  -0.000000   0.000000  -0.000000   0.000000  -0.000000
    32  C   -0.000000   5.526242   0.372461   0.278314   0.045009   0.062404
    33  C    0.000000   0.372461   5.480343  -0.175019  -0.012484  -0.017522
    34  C   -0.000000   0.278314  -0.175019   5.443250  -0.046075   0.169374
    35  C    0.000000   0.045009  -0.012484  -0.046075   6.074186  -0.248820
    36  C   -0.000000   0.062404  -0.017522   0.169374  -0.248820   5.611843
    37  C    0.000000  -0.160569   0.076684   0.049131   0.106696   0.352920
    38  H   -0.000000  -0.030772   0.390623   0.011267  -0.041044   0.001271
    39  H   -0.000000  -0.059649   0.018134   0.432863  -0.004499  -0.072459
    40  H   -0.000000   0.007849   0.025502   0.007072   0.359899  -0.006454
    41  H    0.000000   0.021896  -0.003911  -0.062710   0.020700   0.443322
    42  O   -0.000000  -0.000282   0.013253   0.006610  -0.125622  -0.098389
    43  C    0.000000   0.002083  -0.009272  -0.001320   0.020796   0.008798
    44  H    0.000000   0.000432  -0.001184  -0.000107   0.019967  -0.002396
    45  H    0.000000  -0.000041  -0.000950   0.000169   0.016537  -0.001305
    46  H    0.000000  -0.000069   0.000228   0.000202  -0.001689  -0.000074
              37         38         39         40         41         42
     1  N    0.003306  -0.009688  -0.008043  -0.000664  -0.000536  -0.000000
     2  C    0.001571   0.001577  -0.002150  -0.000049   0.000029   0.000005
     3  C   -0.000031  -0.003106  -0.000399  -0.000051   0.000003   0.000000
     4  C   -0.001578   0.004965   0.000465   0.000085  -0.000026  -0.000002
     5  C    0.000054   0.001726   0.000036  -0.000004   0.000000  -0.000000
     6  C   -0.000129  -0.002607   0.000018   0.000045  -0.000002  -0.000000
     7  C   -0.000013   0.000546  -0.000006  -0.000003   0.000000   0.000000
     8  H   -0.000011   0.000016  -0.000018  -0.000000   0.000000   0.000000
     9  H    0.000073   0.001032  -0.000052  -0.000023   0.000010  -0.000001
    10  H    0.000000   0.000009  -0.000000   0.000000  -0.000000  -0.000000
    11  H   -0.000002  -0.000049  -0.000000   0.000000  -0.000000  -0.000000
    12  C    0.002267  -0.001462   0.000766   0.000025  -0.000209  -0.000005
    13  C    0.000052  -0.000381  -0.002503   0.000003  -0.000027   0.000000
    14  C   -0.001631   0.000343   0.003788  -0.000040   0.000039   0.000009
    15  C    0.000039   0.000033   0.001617   0.000000  -0.000004  -0.000000
    16  C   -0.000178  -0.000011  -0.002478  -0.000002   0.000030   0.000000
    17  C   -0.000003  -0.000005   0.000549   0.000000  -0.000003  -0.000000
    18  H   -0.000006  -0.000014   0.000021  -0.000000  -0.000000   0.000000
    19  H    0.000566  -0.000004   0.001226   0.000007  -0.000050  -0.000008
    20  H    0.000000  -0.000000   0.000004  -0.000000   0.000000  -0.000000
    21  H   -0.000003  -0.000000  -0.000049   0.000000  -0.000000   0.000000
    22  O    0.000000   0.000000  -0.000008  -0.000000   0.000000   0.000000
    23  C    0.000000   0.000000   0.000003   0.000000  -0.000000  -0.000000
    24  H    0.000000  -0.000000  -0.000000  -0.000000   0.000000  -0.000000
    25  H    0.000000   0.000000   0.000004   0.000000  -0.000000   0.000000
    26  H    0.000000  -0.000000  -0.000000   0.000000  -0.000000  -0.000000
    27  O    0.000000  -0.000008   0.000000  -0.000000  -0.000000  -0.000000
    28  C    0.000000   0.000003   0.000000  -0.000000   0.000000  -0.000000
    29  H    0.000000  -0.000000  -0.000000   0.000000  -0.000000  -0.000000
    30  H   -0.000000   0.000004   0.000000  -0.000000   0.000000   0.000000
    31  H    0.000000  -0.000000  -0.000000  -0.000000   0.000000  -0.000000
    32  C   -0.160569  -0.030772  -0.059649   0.007849   0.021896  -0.000282
    33  C    0.076684   0.390623   0.018134   0.025502  -0.003911   0.013253
    34  C    0.049131   0.011267   0.432863   0.007072  -0.062710   0.006610
    35  C    0.106696  -0.041044  -0.004499   0.359899   0.020700  -0.125622
    36  C    0.352920   0.001271  -0.072459  -0.006454   0.443322  -0.098389
    37  C    5.272301   0.009161   0.022249  -0.064529  -0.096894   0.449215
    38  H    0.009161   0.532636  -0.000273  -0.004464   0.000025  -0.000097
    39  H    0.022249  -0.000273   0.542771   0.000020  -0.010649  -0.000110
    40  H   -0.064529  -0.004464   0.000020   0.532922  -0.000287  -0.008556
    41  H   -0.096894   0.000025  -0.010649  -0.000287   0.577639   0.003444
    42  O    0.449215  -0.000097  -0.000110  -0.008556   0.003444   7.783426
    43  C   -0.122868  -0.000258   0.000041   0.015879   0.000164   0.230624
    44  H   -0.024019  -0.000060  -0.000001   0.001301   0.000030  -0.043825
    45  H   -0.021491  -0.000002  -0.000001   0.000217   0.000131  -0.044267
    46  H    0.011649   0.000003   0.000000   0.000011  -0.000162  -0.029763
              43         44         45         46
     1  N    0.000001   0.000001   0.000001  -0.000000
     2  C   -0.000011   0.000004  -0.000005   0.000000
     3  C   -0.000000  -0.000000   0.000000   0.000000
     4  C   -0.000006   0.000010  -0.000001  -0.000000
     5  C    0.000000  -0.000000   0.000000   0.000000
     6  C    0.000001   0.000000   0.000000  -0.000000
     7  C   -0.000000  -0.000000   0.000000  -0.000000
     8  H   -0.000000   0.000000  -0.000000  -0.000000
     9  H   -0.000009   0.000001  -0.000000  -0.000000
    10  H   -0.000000   0.000000  -0.000000   0.000000
    11  H    0.000000  -0.000000   0.000000   0.000000
    12  C    0.000000  -0.000002   0.000003  -0.000000
    13  C   -0.000000   0.000000  -0.000000  -0.000000
    14  C   -0.000001   0.000000  -0.000003   0.000000
    15  C   -0.000000   0.000000  -0.000000  -0.000000
    16  C   -0.000000  -0.000000  -0.000000   0.000000
    17  C    0.000000   0.000000   0.000000   0.000000
    18  H    0.000000  -0.000000   0.000000  -0.000000
    19  H    0.000003  -0.000000   0.000004  -0.000000
    20  H    0.000000  -0.000000   0.000000   0.000000
    21  H   -0.000000   0.000000  -0.000000  -0.000000
    22  O   -0.000000  -0.000000   0.000000  -0.000000
    23  C   -0.000000   0.000000  -0.000000  -0.000000
    24  H    0.000000  -0.000000   0.000000   0.000000
    25  H   -0.000000   0.000000  -0.000000  -0.000000
    26  H   -0.000000   0.000000  -0.000000  -0.000000
    27  O    0.000000   0.000000  -0.000000   0.000000
    28  C   -0.000000   0.000000  -0.000000  -0.000000
    29  H   -0.000000   0.000000  -0.000000   0.000000
    30  H   -0.000000  -0.000000   0.000000  -0.000000
    31  H    0.000000   0.000000   0.000000   0.000000
    32  C    0.002083   0.000432  -0.000041  -0.000069
    33  C   -0.009272  -0.001184  -0.000950   0.000228
    34  C   -0.001320  -0.000107   0.000169   0.000202
    35  C    0.020796   0.019967   0.016537  -0.001689
    36  C    0.008798  -0.002396  -0.001305  -0.000074
    37  C   -0.122868  -0.024019  -0.021491   0.011649
    38  H   -0.000258  -0.000060  -0.000002   0.000003
    39  H    0.000041  -0.000001  -0.000001   0.000000
    40  H    0.015879   0.001301   0.000217   0.000011
    41  H    0.000164   0.000030   0.000131  -0.000162
    42  O    0.230624  -0.043825  -0.044267  -0.029763
    43  C    4.898948   0.405467   0.406635   0.387804
    44  H    0.405467   0.602739  -0.063333  -0.020518
    45  H    0.406635  -0.063333   0.602345  -0.020704
    46  H    0.387804  -0.020518  -0.020704   0.528697
 Mulliken charges:
               1
     1  N   -0.003204
     2  C   -0.088117
     3  C   -0.095321
     4  C   -0.073061
     5  C   -0.199818
     6  C   -0.211247
     7  C    0.136782
     8  H    0.135673
     9  H    0.135809
    10  H    0.134373
    11  H    0.107861
    12  C   -0.082205
    13  C   -0.105942
    14  C   -0.070572
    15  C   -0.198959
    16  C   -0.211153
    17  C    0.136285
    18  H    0.134968
    19  H    0.139247
    20  H    0.134478
    21  H    0.107985
    22  O   -0.135484
    23  C   -0.243728
    24  H    0.124754
    25  H    0.126698
    26  H    0.144578
    27  O   -0.135592
    28  C   -0.243621
    29  H    0.125191
    30  H    0.126333
    31  H    0.144599
    32  C   -0.069963
    33  C   -0.108159
    34  C   -0.083561
    35  C   -0.198905
    36  C   -0.209942
    37  C    0.136021
    38  H    0.139067
    39  H    0.138774
    40  H    0.134289
    41  H    0.108008
    42  O   -0.135659
    43  C   -0.243496
    44  H    0.125491
    45  H    0.126061
    46  H    0.144385
 Sum of Mulliken charges =  -0.00000
 Mulliken charges with hydrogens summed into heavy atoms:
               1
     1  N   -0.003204
     2  C   -0.088117
     3  C    0.040352
     4  C    0.062748
     5  C   -0.065444
     6  C   -0.103386
     7  C    0.136782
    12  C   -0.082205
    13  C    0.029025
    14  C    0.068675
    15  C   -0.064481
    16  C   -0.103167
    17  C    0.136285
    22  O   -0.135484
    23  C    0.152302
    27  O   -0.135592
    28  C    0.152501
    32  C   -0.069963
    33  C    0.030909
    34  C    0.055213
    35  C   -0.064616
    36  C   -0.101934
    37  C    0.136021
    42  O   -0.135659
    43  C    0.152441
 Electronic spatial extent (au):  <R**2>=          11478.9781
 Charge=             -0.0000 electrons
 Dipole moment (field-independent basis, Debye):
    X=              1.2080    Y=              1.3384    Z=             -0.7911  Tot=              1.9688
 Quadrupole moment (field-independent basis, Debye-Ang):
   XX=           -118.9383   YY=           -142.6422   ZZ=           -145.9528
   XY=             -0.3985   XZ=              6.6128   YZ=             -7.2673
 Traceless Quadrupole moment (field-independent basis, Debye-Ang):
   XX=             16.9062   YY=             -6.7978   ZZ=            -10.1084
   XY=             -0.3985   XZ=              6.6128   YZ=             -7.2673
 Octapole moment (field-independent basis, Debye-Ang**2):
  XXX=            -16.3443  YYY=             58.5023  ZZZ=             -0.5126  XYY=             65.9661
  XXY=             -4.8945  XXZ=            -14.6139  XZZ=             -1.2351  YZZ=              1.0731
  YYZ=            -18.5722  XYZ=            -31.4739
 Hexadecapole moment (field-independent basis, Debye-Ang**3):
 XXXX=          -6474.0344 YYYY=          -6567.2882 ZZZZ=           -579.6643 XXXY=           -257.5791
 XXXZ=            282.0048 YYYX=            228.1965 YYYZ=           -187.6786 ZZZX=             -2.2092
 ZZZY=              5.4423 XXYY=          -2223.5783 XXZZ=          -1399.0639 YYZZ=          -1223.0907
 XXYZ=            -76.2100 YYXZ=            -33.6249 ZZXY=              2.4975
 N-N= 2.056677808601D+03 E-N=-6.659843637584D+03  KE= 1.088038335143D+03
 No NMR shielding tensors so no spin-rotation constants.
 Leave Link  601 at Sun Jan 17 01:55:40 2021, MaxMem=  4026531840 cpu:               3.0 elap:               0.4
 (Enter /opt/ohpc/pub/libs/gaussian/g16-A.03/sandybridge/g16/l9999.exe)

 Test job not archived.
 1\1\GINC-CASCADEB034\SP\RLC-wHPBE\TZVP\C21H21N1O3\RDU230\17-Jan-2021\0
 \\#P LC-wHPBE/TZVP iop(3/107=0177800000, 3/108=0177800000) scf=(conver
 =6,fermi,ndamp=35,noincfock,novaracc,vshift=500,xqc)\\H21 C21 N1 O3\\0
 ,1\N,0,0.054086,0.063852,0.077784\C,0,-0.275154,-1.311734,0.103506\C,0
 ,-1.260864,-1.827996,-0.72375\C,0,0.386135,-2.184815,0.970218\C,0,-1.5
 98384,-3.175646,-0.688444\C,0,0.074577,-3.526309,0.994438\C,0,-0.9252,
 -4.03443,0.167909\H,0,-1.784639,-1.164375,-1.405148\H,0,1.158634,-1.79
 7039,1.627427\H,0,-2.379444,-3.537517,-1.347421\H,0,0.588853,-4.20682,
 1.665799\C,0,-0.970368,1.03417,-0.019727\C,0,-2.134785,0.917606,0.7248
 71\C,0,-0.835797,2.133662,-0.869883\C,0,-3.151989,1.858174,0.623575\C,
 0,-1.829782,3.083912,-0.958163\C,0,-3.000537,2.952781,-0.215611\H,0,-2
 .255494,0.070396,1.39325\H,0,0.067507,2.240735,-1.462783\H,0,-4.048238
 ,1.726664,1.219136\H,0,-1.725247,3.941045,-1.615932\O,0,-3.928451,3.93
 6733,-0.380204\C,0,-5.121818,3.840279,0.365278\H,0,-5.681122,2.930406,
 0.115451\H,0,-4.925953,3.859223,1.44425\H,0,-5.719912,4.710924,0.09646
 6\O,0,-1.16822,-5.370782,0.273837\C,0,-2.170458,-5.919715,-0.552884\H,
 0,-3.15107,-5.47272,-0.348812\H,0,-1.930216,-5.79407,-1.615623\H,0,-2.
 208576,-6.98373,-0.319613\C,0,1.409258,0.466483,0.091838\C,0,2.372325,
 -0.232608,-0.620224\C,0,1.812213,1.581496,0.83064\C,0,3.707828,0.15075
 4,-0.59385\C,0,3.129962,1.982235,0.842322\C,0,4.092694,1.267169,0.1335
 83\H,0,2.078678,-1.100647,-1.202616\H,0,1.073246,2.139336,1.397822\H,0
 ,4.429565,-0.427688,-1.159301\H,0,3.443945,2.849999,1.413878\O,0,5.369
 584,1.734982,0.218075\C,0,6.368506,1.037347,-0.492266\H,0,6.460713,0.0
 00867,-0.145468\H,0,6.173119,1.041208,-1.571513\H,0,7.303574,1.562498,
 -0.297656\\Version=EM64L-G16RevA.03\State=1-A\HF=-1092.5851352\RMSD=6.
 511e-07\Dipole=-0.4752646,-0.5265509,-0.3112425\Quadrupole=12.5693159,
 -5.0539906,-7.5153253,-0.2963081,-4.9164631,5.4030941\PG=C01 [X(C21H21
 N1O3)]\\@


 THEORY:  SUPPOSITION WHICH HAS SCIENTIFIC BASIS,
          BUT NOT EXPERIMENTALLY PROVEN.
 FACT:    A THEORY WHICH HAS BEEN PROVEN BY ENOUGH 
          MONEY TO PAY FOR THE EXPERIMENTS.

                          --  THE WIZARD OF ID
 Job cpu time:       0 days  1 hours 24 minutes 28.9 seconds.
 Elapsed time:       0 days  0 hours 10 minutes 36.1 seconds.
 File lengths (MBytes):  RWF=    168 Int=      0 D2E=      0 Chk=     28 Scr=      8
 Normal termination of Gaussian 16 at Sun Jan 17 01:55:40 2021.
