 Entering Gaussian System, Link 0=g16
 Input=mol_NN_ma_frag_tune_n2.gjf
 Output=mol_NN_ma_frag_tune_n2.log
 Initial command:
 /opt/ohpc/pub/libs/gaussian/g16-A.03/sandybridge/g16/l1.exe "/mnt/gpfs2_4m/scratch/rdu230/ondemand/projects/init_structures/wtuning/mol_NN_ma_frag/tuning_mol_NN_ma_frag_ocycle0/Gau-210719.inp" -scrdir="/mnt/gpfs2_4m/scratch/rdu230/ondemand/projects/init_structures/wtuning/mol_NN_ma_frag/tuning_mol_NN_ma_frag_ocycle0/"
 Entering Link 1 = /opt/ohpc/pub/libs/gaussian/g16-A.03/sandybridge/g16/l1.exe PID=    210720.
  
 Copyright (c) 1988,1990,1992,1993,1995,1998,2003,2009,2016,
            Gaussian, Inc.  All Rights Reserved.
  
 This is part of the Gaussian(R) 16 program.  It is based on
 the Gaussian(R) 09 system (copyright 2009, Gaussian, Inc.),
 the Gaussian(R) 03 system (copyright 2003, Gaussian, Inc.),
 the Gaussian(R) 98 system (copyright 1998, Gaussian, Inc.),
 the Gaussian(R) 94 system (copyright 1995, Gaussian, Inc.),
 the Gaussian 92(TM) system (copyright 1992, Gaussian, Inc.),
 the Gaussian 90(TM) system (copyright 1990, Gaussian, Inc.),
 the Gaussian 88(TM) system (copyright 1988, Gaussian, Inc.),
 the Gaussian 86(TM) system (copyright 1986, Carnegie Mellon
 University), and the Gaussian 82(TM) system (copyright 1983,
 Carnegie Mellon University). Gaussian is a federally registered
 trademark of Gaussian, Inc.
  
 This software contains proprietary and confidential information,
 including trade secrets, belonging to Gaussian, Inc.
  
 This software is provided under written license and may be
 used, copied, transmitted, or stored only in accord with that
 written license.
  
 The following legend is applicable only to US Government
 contracts under FAR:
  
                    RESTRICTED RIGHTS LEGEND
  
 Use, reproduction and disclosure by the US Government is
 subject to restrictions as set forth in subparagraphs (a)
 and (c) of the Commercial Computer Software - Restricted
 Rights clause in FAR 52.227-19.
  
 Gaussian, Inc.
 340 Quinnipiac St., Bldg. 40, Wallingford CT 06492
  
  
 ---------------------------------------------------------------
 Warning -- This program may not be used in any manner that
 competes with the business of Gaussian, Inc. or will provide
 assistance to any competitor of Gaussian, Inc.  The licensee
 of this program is prohibited from giving any competitor of
 Gaussian, Inc. access to this program.  By using this program,
 the user acknowledges that Gaussian, Inc. is engaged in the
 business of creating and licensing software in the field of
 computational chemistry and represents and warrants to the
 licensee that it is not a competitor of Gaussian, Inc. and that
 it will not use this program in any manner prohibited above.
 ---------------------------------------------------------------
  

 Cite this work as:
 Gaussian 16, Revision A.03,
 M. J. Frisch, G. W. Trucks, H. B. Schlegel, G. E. Scuseria, 
 M. A. Robb, J. R. Cheeseman, G. Scalmani, V. Barone, 
 G. A. Petersson, H. Nakatsuji, X. Li, M. Caricato, A. V. Marenich, 
 J. Bloino, B. G. Janesko, R. Gomperts, B. Mennucci, H. P. Hratchian, 
 J. V. Ortiz, A. F. Izmaylov, J. L. Sonnenberg, D. Williams-Young, 
 F. Ding, F. Lipparini, F. Egidi, J. Goings, B. Peng, A. Petrone, 
 T. Henderson, D. Ranasinghe, V. G. Zakrzewski, J. Gao, N. Rega, 
 G. Zheng, W. Liang, M. Hada, M. Ehara, K. Toyota, R. Fukuda, 
 J. Hasegawa, M. Ishida, T. Nakajima, Y. Honda, O. Kitao, H. Nakai, 
 T. Vreven, K. Throssell, J. A. Montgomery, Jr., J. E. Peralta, 
 F. Ogliaro, M. J. Bearpark, J. J. Heyd, E. N. Brothers, K. N. Kudin, 
 V. N. Staroverov, T. A. Keith, R. Kobayashi, J. Normand, 
 K. Raghavachari, A. P. Rendell, J. C. Burant, S. S. Iyengar, 
 J. Tomasi, M. Cossi, J. M. Millam, M. Klene, C. Adamo, R. Cammi, 
 J. W. Ochterski, R. L. Martin, K. Morokuma, O. Farkas, 
 J. B. Foresman, and D. J. Fox, Gaussian, Inc., Wallingford CT, 2016.
 
 ******************************************
 Gaussian 16:  EM64L-G16RevA.03 25-Dec-2016
                17-Jan-2021 
 ******************************************
 %mem=30GB
 %nproc=8
 Will use up to    8 processors via shared memory.
 ----------------------------------------------------------------------
 #P LC-wHPBE/TZVP iop(3/107=0156200000, 3/108=0156200000) scf=(conver=6
 ,fermi,ndamp=35,noincfock,novaracc,vshift=500,xqc)
 ----------------------------------------------------------------------
 1/38=1,172=1/1;
 2/12=2,17=6,18=5,40=1/2;
 3/5=19,7=101,11=2,25=1,30=1,74=-71,107=156200000,108=156200000/1,2,3;
 4//1;
 5/5=100002,6=6,8=3,10=500,13=1,18=-1,22=13,38=1,93=35/2,8;
 6/7=2,8=2,9=2,10=2,28=1/1;
 99/5=1,9=1/99;
 Leave Link    1 at Sun Jan 17 00:22:20 2021, MaxMem=  4026531840 cpu:               1.4 elap:               0.2
 (Enter /opt/ohpc/pub/libs/gaussian/g16-A.03/sandybridge/g16/l101.exe)
 -------------
 H21 C21 N1 O3
 -------------
 Symbolic Z-matrix:
 Charge =  0 Multiplicity = 1
 N                     0.05409   0.06385   0.07778 
 C                    -0.27515  -1.31173   0.10351 
 C                    -1.26086  -1.828    -0.72375 
 C                     0.38614  -2.18481   0.97022 
 C                    -1.59838  -3.17565  -0.68844 
 C                     0.07458  -3.52631   0.99444 
 C                    -0.9252   -4.03443   0.16791 
 H                    -1.78464  -1.16438  -1.40515 
 H                     1.15863  -1.79704   1.62743 
 H                    -2.37944  -3.53752  -1.34742 
 H                     0.58885  -4.20682   1.6658 
 C                    -0.97037   1.03417  -0.01973 
 C                    -2.13478   0.91761   0.72487 
 C                    -0.8358    2.13366  -0.86988 
 C                    -3.15199   1.85817   0.62358 
 C                    -1.82978   3.08391  -0.95816 
 C                    -3.00054   2.95278  -0.21561 
 H                    -2.25549   0.0704    1.39325 
 H                     0.06751   2.24073  -1.46278 
 H                    -4.04824   1.72666   1.21914 
 H                    -1.72525   3.94105  -1.61593 
 O                    -3.92845   3.93673  -0.3802 
 C                    -5.12182   3.84028   0.36528 
 H                    -5.68112   2.93041   0.11545 
 H                    -4.92595   3.85922   1.44425 
 H                    -5.71991   4.71092   0.09647 
 O                    -1.16822  -5.37078   0.27384 
 C                    -2.17046  -5.91972  -0.55288 
 H                    -3.15107  -5.47272  -0.34881 
 H                    -1.93022  -5.79407  -1.61562 
 H                    -2.20858  -6.98373  -0.31961 
 C                     1.40926   0.46648   0.09184 
 C                     2.37233  -0.23261  -0.62022 
 C                     1.81221   1.5815    0.83064 
 C                     3.70783   0.15075  -0.59385 
 C                     3.12996   1.98224   0.84232 
 C                     4.09269   1.26717   0.13358 
 H                     2.07868  -1.10065  -1.20262 
 H                     1.07325   2.13934   1.39782 
 H                     4.42957  -0.42769  -1.1593 
 H                     3.44395   2.85      1.41388 
 O                     5.36958   1.73498   0.21808 
 C                     6.36851   1.03735  -0.49227 
 H                     6.46071   0.00087  -0.14547 
 H                     6.17312   1.04121  -1.57151 
 H                     7.30357   1.5625   -0.29766 
 
 ITRead=  0  0  0  0  0  0  0  0  0  0  0  0  0  0  0  0  0  0  0  0
 ITRead=  0  0  0  0  0  0  0  0  0  0  0  0  0  0  0  0  0  0  0  0
 ITRead=  0  0  0  0  0  0
 MicOpt= -1 -1 -1 -1 -1 -1 -1 -1 -1 -1 -1 -1 -1 -1 -1 -1 -1 -1 -1 -1
 MicOpt= -1 -1 -1 -1 -1 -1 -1 -1 -1 -1 -1 -1 -1 -1 -1 -1 -1 -1 -1 -1
 MicOpt= -1 -1 -1 -1 -1 -1
 NAtoms=     46 NQM=       46 NQMF=       0 NMMI=      0 NMMIF=      0
                NMic=       0 NMicF=      0.
                    Isotopes and Nuclear Properties:
 (Nuclear quadrupole moments (NQMom) in fm**2, nuclear magnetic moments (NMagM)
  in nuclear magnetons)

  Atom         1           2           3           4           5           6           7           8           9          10
 IAtWgt=          14          12          12          12          12          12          12           1           1           1
 AtmWgt=  14.0030740  12.0000000  12.0000000  12.0000000  12.0000000  12.0000000  12.0000000   1.0078250   1.0078250   1.0078250
 NucSpn=           2           0           0           0           0           0           0           1           1           1
 AtZEff=  -0.0000000  -0.0000000  -0.0000000  -0.0000000  -0.0000000  -0.0000000  -0.0000000  -0.0000000  -0.0000000  -0.0000000
 NQMom=    2.0440000   0.0000000   0.0000000   0.0000000   0.0000000   0.0000000   0.0000000   0.0000000   0.0000000   0.0000000
 NMagM=    0.4037610   0.0000000   0.0000000   0.0000000   0.0000000   0.0000000   0.0000000   2.7928460   2.7928460   2.7928460
 AtZNuc=   7.0000000   6.0000000   6.0000000   6.0000000   6.0000000   6.0000000   6.0000000   1.0000000   1.0000000   1.0000000

  Atom        11          12          13          14          15          16          17          18          19          20
 IAtWgt=           1          12          12          12          12          12          12           1           1           1
 AtmWgt=   1.0078250  12.0000000  12.0000000  12.0000000  12.0000000  12.0000000  12.0000000   1.0078250   1.0078250   1.0078250
 NucSpn=           1           0           0           0           0           0           0           1           1           1
 AtZEff=  -0.0000000  -0.0000000  -0.0000000  -0.0000000  -0.0000000  -0.0000000  -0.0000000  -0.0000000  -0.0000000  -0.0000000
 NQMom=    0.0000000   0.0000000   0.0000000   0.0000000   0.0000000   0.0000000   0.0000000   0.0000000   0.0000000   0.0000000
 NMagM=    2.7928460   0.0000000   0.0000000   0.0000000   0.0000000   0.0000000   0.0000000   2.7928460   2.7928460   2.7928460
 AtZNuc=   1.0000000   6.0000000   6.0000000   6.0000000   6.0000000   6.0000000   6.0000000   1.0000000   1.0000000   1.0000000

  Atom        21          22          23          24          25          26          27          28          29          30
 IAtWgt=           1          16          12           1           1           1          16          12           1           1
 AtmWgt=   1.0078250  15.9949146  12.0000000   1.0078250   1.0078250   1.0078250  15.9949146  12.0000000   1.0078250   1.0078250
 NucSpn=           1           0           0           1           1           1           0           0           1           1
 AtZEff=  -0.0000000  -0.0000000  -0.0000000  -0.0000000  -0.0000000  -0.0000000  -0.0000000  -0.0000000  -0.0000000  -0.0000000
 NQMom=    0.0000000   0.0000000   0.0000000   0.0000000   0.0000000   0.0000000   0.0000000   0.0000000   0.0000000   0.0000000
 NMagM=    2.7928460   0.0000000   0.0000000   2.7928460   2.7928460   2.7928460   0.0000000   0.0000000   2.7928460   2.7928460
 AtZNuc=   1.0000000   8.0000000   6.0000000   1.0000000   1.0000000   1.0000000   8.0000000   6.0000000   1.0000000   1.0000000

  Atom        31          32          33          34          35          36          37          38          39          40
 IAtWgt=           1          12          12          12          12          12          12           1           1           1
 AtmWgt=   1.0078250  12.0000000  12.0000000  12.0000000  12.0000000  12.0000000  12.0000000   1.0078250   1.0078250   1.0078250
 NucSpn=           1           0           0           0           0           0           0           1           1           1
 AtZEff=  -0.0000000  -0.0000000  -0.0000000  -0.0000000  -0.0000000  -0.0000000  -0.0000000  -0.0000000  -0.0000000  -0.0000000
 NQMom=    0.0000000   0.0000000   0.0000000   0.0000000   0.0000000   0.0000000   0.0000000   0.0000000   0.0000000   0.0000000
 NMagM=    2.7928460   0.0000000   0.0000000   0.0000000   0.0000000   0.0000000   0.0000000   2.7928460   2.7928460   2.7928460
 AtZNuc=   1.0000000   6.0000000   6.0000000   6.0000000   6.0000000   6.0000000   6.0000000   1.0000000   1.0000000   1.0000000

  Atom        41          42          43          44          45          46
 IAtWgt=           1          16          12           1           1           1
 AtmWgt=   1.0078250  15.9949146  12.0000000   1.0078250   1.0078250   1.0078250
 NucSpn=           1           0           0           1           1           1
 AtZEff=  -0.0000000  -0.0000000  -0.0000000  -0.0000000  -0.0000000  -0.0000000
 NQMom=    0.0000000   0.0000000   0.0000000   0.0000000   0.0000000   0.0000000
 NMagM=    2.7928460   0.0000000   0.0000000   2.7928460   2.7928460   2.7928460
 AtZNuc=   1.0000000   8.0000000   6.0000000   1.0000000   1.0000000   1.0000000
 Leave Link  101 at Sun Jan 17 00:22:21 2021, MaxMem=  4026531840 cpu:               0.8 elap:               0.1
 (Enter /opt/ohpc/pub/libs/gaussian/g16-A.03/sandybridge/g16/l202.exe)
                          Input orientation:                          
 ---------------------------------------------------------------------
 Center     Atomic      Atomic             Coordinates (Angstroms)
 Number     Number       Type             X           Y           Z
 ---------------------------------------------------------------------
      1          7           0        0.054086    0.063852    0.077784
      2          6           0       -0.275154   -1.311734    0.103506
      3          6           0       -1.260864   -1.827996   -0.723750
      4          6           0        0.386135   -2.184815    0.970218
      5          6           0       -1.598384   -3.175646   -0.688444
      6          6           0        0.074577   -3.526309    0.994438
      7          6           0       -0.925200   -4.034430    0.167909
      8          1           0       -1.784639   -1.164375   -1.405148
      9          1           0        1.158634   -1.797039    1.627427
     10          1           0       -2.379444   -3.537517   -1.347421
     11          1           0        0.588853   -4.206820    1.665799
     12          6           0       -0.970368    1.034170   -0.019727
     13          6           0       -2.134785    0.917606    0.724871
     14          6           0       -0.835797    2.133662   -0.869883
     15          6           0       -3.151989    1.858174    0.623575
     16          6           0       -1.829782    3.083912   -0.958163
     17          6           0       -3.000537    2.952781   -0.215611
     18          1           0       -2.255494    0.070396    1.393250
     19          1           0        0.067507    2.240735   -1.462783
     20          1           0       -4.048238    1.726664    1.219136
     21          1           0       -1.725247    3.941045   -1.615932
     22          8           0       -3.928451    3.936733   -0.380204
     23          6           0       -5.121818    3.840279    0.365278
     24          1           0       -5.681122    2.930406    0.115451
     25          1           0       -4.925953    3.859223    1.444250
     26          1           0       -5.719912    4.710924    0.096466
     27          8           0       -1.168220   -5.370782    0.273837
     28          6           0       -2.170458   -5.919715   -0.552884
     29          1           0       -3.151070   -5.472720   -0.348812
     30          1           0       -1.930216   -5.794070   -1.615623
     31          1           0       -2.208576   -6.983730   -0.319613
     32          6           0        1.409258    0.466483    0.091838
     33          6           0        2.372325   -0.232608   -0.620224
     34          6           0        1.812213    1.581496    0.830640
     35          6           0        3.707828    0.150754   -0.593850
     36          6           0        3.129962    1.982235    0.842322
     37          6           0        4.092694    1.267169    0.133583
     38          1           0        2.078678   -1.100647   -1.202616
     39          1           0        1.073246    2.139336    1.397822
     40          1           0        4.429565   -0.427688   -1.159301
     41          1           0        3.443945    2.849999    1.413878
     42          8           0        5.369584    1.734982    0.218075
     43          6           0        6.368506    1.037347   -0.492266
     44          1           0        6.460713    0.000867   -0.145468
     45          1           0        6.173119    1.041208   -1.571513
     46          1           0        7.303574    1.562498   -0.297656
 ---------------------------------------------------------------------
                    Distance matrix (angstroms):
                    1          2          3          4          5
     1  N    0.000000
     2  C    1.414672   0.000000
     3  C    2.439393   1.386544   0.000000
     4  C    2.441966   1.396697   2.389446   0.000000
     5  C    3.716465   2.419151   1.389722   2.769697   0.000000
     6  C    3.705392   2.412553   2.760406   1.377411   2.398719
     7  C    4.214622   2.799961   2.403347   2.405073   1.387093
     8  H    2.662431   2.139228   1.085834   3.375785   2.143261
     9  H    2.661641   2.147930   3.373865   1.085840   3.855511
    10  H    4.574181   3.389297   2.136036   3.853528   1.084092
    11  H    4.587636   3.401292   3.845803   2.147890   3.374876
    12  C    1.414401   2.449852   2.961761   3.630696   4.308612
    13  C    2.436960   2.968885   3.224992   4.005028   4.363473
    14  C    2.444193   3.623887   3.987075   4.850601   5.366862
    15  C    3.714350   4.312188   4.356545   5.383702   5.429035
    16  C    3.707143   4.781811   4.950299   6.032282   6.269638
    17  C    4.214583   5.071059   5.112778   6.266628   6.304540
    18  H    2.657942   2.737785   3.012452   3.499019   3.911781
    19  H    2.666898   3.897527   4.343422   5.060288   5.719439
    20  H    4.571290   4.971183   4.917303   5.918217   5.802869
    21  H    4.589916   5.714099   5.856063   6.976551   7.177995
    22  O    5.574008   6.413030   6.361301   7.610036   7.490671
    23  C    6.413582   7.078271   6.944227   8.185674   7.921371
    24  H    6.411799   6.871709   6.548689   7.981712   7.389105
    25  H    6.408811   7.082819   7.104756   8.060607   8.069107
    26  H    7.411793   8.118981   7.956968   9.251944   8.933144
    27  O    5.573842   4.159621   3.681725   3.612665   2.435087
    28  C    6.414781   5.025586   4.195083   4.775509   2.806343
    29  H    6.411602   5.078316   4.122799   5.006194   2.793337
    30  H    6.412514   5.077989   4.119856   5.007872   2.797484
    31  H    7.412555   6.007386   5.257668   5.605870   3.874258
    32  C    1.413789   2.449375   3.613775   2.974511   4.787468
    33  C    2.439126   2.949143   3.969388   3.207112   4.942940
    34  C    2.441525   3.640962   4.846088   4.029675   6.047329
    35  C    3.715976   4.299921   5.349787   4.351418   6.263367
    36  C    3.704825   4.794882   6.020780   4.990917   7.162698
    37  C    4.214432   5.072449   6.243048   5.133686   7.266547
    38  H    2.663542   2.700192   3.451216   2.959954   4.253326
    39  H    2.662484   3.924706   5.068418   4.399233   6.303899
    40  H    4.573490   4.950818   5.876355   4.896087   6.641472
    41  H    4.586819   5.733131   6.970532   5.907316   8.133464
    42  O    5.573767   6.415502   7.585821   6.384770   8.572551
    43  C    6.414402   7.071870   8.152979   6.950536   9.014385
    44  H    6.410825   6.867082   7.956249   6.551523   8.679522
    45  H    6.412330   7.065568   8.013435   7.096253   8.885827
    46  H    7.412285   8.115372   9.220987   7.968740  10.091956
                    6          7          8          9         10
     6  C    0.000000
     7  C    1.393159   0.000000
     8  H    3.846223   3.383838   0.000000
     9  H    2.136874   3.387990   4.273129   0.000000
    10  H    3.392145   2.158234   2.447229   4.939330   0.000000
    11  H    1.085496   2.136761   4.931597   2.476523   4.282318
    12  C    4.787318   5.072273   2.723239   3.906598   4.964734
    13  C    4.970144   5.127959   2.999038   4.362398   4.919591
    14  C    6.028246   6.255427   3.473306   5.066036   5.896877
    15  C    6.288157   6.315774   3.888594   5.740189   5.796131
    16  C    7.150822   7.263408   4.271976   6.280095   6.655597
    17  C    7.273180   7.298988   4.454703   6.576951   6.617456
    18  H    4.304018   4.485615   3.094737   3.898515   4.532513
    19  H    6.268715   6.559140   3.876666   5.200344   6.276072
    20  H    6.681453   6.636916   4.513187   6.300373   6.089638
    21  H    8.112631   8.211599   5.110115   7.194564   7.511921
    22  O    8.579678   8.535771   5.627410   7.923709   7.694111
    23  C    9.036868   8.925335   6.270385   8.533256   8.055174
    24  H    8.694243   8.433889   5.853378   8.450862   7.407773
    25  H    8.930493   8.941187   6.574455   8.309576   8.306016
    26  H   10.111106   9.973745   7.229132   9.592279   9.015560
    27  O    2.337924   1.362394   4.570867   4.474159   2.730641
    28  C    3.628055   2.371605   4.846490   5.730015   2.519887
    29  H    3.999704   2.700033   4.641639   5.999142   2.310333
    30  H    3.996793   2.699514   4.636763   6.002885   2.316413
    31  H    4.346640   3.253168   5.934897   6.483119   3.600273
    32  C    4.305630   5.070868   3.886083   2.746703   5.697170
    33  C    4.328423   5.093984   4.331818   2.995401   5.833571
    34  C    5.397766   6.282616   5.047366   3.532214   6.965503
    35  C    5.407769   6.289753   5.705696   3.902097   7.157241
    36  C    6.300998   7.286936   6.253445   4.334217   8.100382
    37  C    6.313776   7.299821   6.543939   4.497738   8.195545
    38  H    3.837617   4.416866   3.869147   3.056237   5.082731
    39  H    5.767113   6.604685   5.190246   3.943990   7.189165
    40  H    5.762462   6.591175   6.262546   4.509985   7.487926
    41  H    7.223979   8.248468   7.169393   5.182973   9.073973
    42  O    7.504733   8.538907   7.888221   5.673936   9.502497
    43  C    7.915225   8.908249   8.494393   6.298381   9.908950
    44  H    7.383975   8.422205   8.422019   5.872620   9.597564
    45  H    8.039809   8.897967   8.259430   6.590442   9.703673
    46  H    8.934420   9.962684   9.552905   7.263107  10.994226
                   11         12         13         14         15
    11  H    0.000000
    12  C    5.721900   0.000000
    13  C    5.879055   1.387040   0.000000
    14  C    6.975745   1.396337   2.389436   0.000000
    15  C    7.201686   2.419151   1.389112   2.769667   0.000000
    16  C    8.117250   2.412612   2.760165   1.377960   2.398450
    17  C    8.226987   2.800183   2.403325   2.405229   1.387565
    18  H    5.143848   2.139372   1.085848   3.375556   2.142954
    19  H    7.185457   2.148347   3.374402   1.085796   3.855437
    20  H    7.543763   3.389338   2.135457   3.853495   1.084090
    21  H    9.083640   3.401123   3.845551   2.148102   3.374809
    22  O    9.534654   4.159936   3.681515   3.613220   2.435338
    23  C    9.952835   5.025636   4.194483   4.775787   2.806365
    24  H    9.625807   5.079881   4.123016   5.008279   2.793633
    25  H    9.773598   5.076495   4.118402   5.006211   2.797258
    26  H   11.035827   6.007511   5.257118   5.606308   3.874307
    27  O    2.525801   6.414728   6.378205   7.598374   7.504363
    28  C    3.933238   7.076792   6.955781   8.169375   7.927359
    29  H    4.432627   6.870471   6.559108   7.968002   7.395103
    30  H    4.430892   7.077645   7.111002   8.037588   8.066200
    31  H    4.413468   8.118486   7.970414   9.236566   8.941974
    32  C    4.999018   2.448946   3.628289   2.957138   4.798387
    33  C    4.919455   3.624765   4.842139   3.994197   6.036261
    34  C    5.974839   2.960650   4.003839   3.195094   4.976216
    35  C    5.815709   4.795368   6.038478   4.965143   7.173179
    36  C    6.740901   4.295889   5.372596   4.322247   6.286983
    37  C    6.677510   5.070739   6.265246   5.103702   7.285246
    38  H    4.482822   3.905554   5.053892   4.366421   6.280882
    39  H    6.370255   2.721616   3.498135   2.964281   4.304779
    40  H    6.083921   5.709197   6.960647   5.862449   8.116882
    41  H    7.616673   4.983836   5.943997   4.903559   6.716743
    42  O    7.762493   6.382999   7.565745   6.312634   8.532105
    43  C    8.097093   7.354072   8.590793   7.297019   9.620742
    44  H    7.447420   7.503632   8.687951   7.636272   9.820644
    45  H    8.319015   7.310095   8.620321   7.128159   9.614753
    46  H    9.067947   8.295450   9.515465   8.179427  10.500233
                   16         17         18         19         20
    16  C    0.000000
    17  C    1.392568   0.000000
    18  H    3.845992   3.384031   0.000000
    19  H    2.136655   3.387527   4.273597   0.000000
    20  H    3.391799   2.158597   2.446931   4.939263   0.000000
    21  H    1.085479   2.136335   4.931355   2.475576   4.282217
    22  O    2.337895   1.362452   4.570830   4.473932   2.730685
    23  C    3.627821   2.371691   4.846087   5.729698   2.519725
    24  H    4.001129   2.701044   4.641913   6.001100   2.309421
    25  H    3.994868   2.698889   4.635640   6.000416   2.317082
    26  H    4.346553   3.253223   5.934504   6.482847   3.600096
    27  O    8.569559   8.536899   5.660536   7.904307   7.717631
    28  C    9.019180   8.917621   6.298897   8.510543   8.070516
    29  H    8.679462   8.427898   5.879028   8.431937   7.422567
    30  H    8.902859   8.922613   6.599325   8.280842   8.311637
    31  H   10.094981   9.968564   7.259256   9.569647   9.034549
    32  C    4.294743   5.071735   3.909088   2.713874   5.713416
    33  C    5.363880   6.259238   5.055947   3.484181   6.960289
    34  C    4.326800   5.112497   4.375636   2.956076   5.875108
    35  C    6.277043   7.279875   6.286194   4.286607   8.119542
    36  C    5.390223   6.296364   5.741236   3.841739   7.192625
    37  C    6.290325   7.299120   6.581680   4.438282   8.225833
    38  H    5.731174   6.572890   5.186030   3.908622   7.169217
    39  H    3.856224   4.456520   3.919317   3.033950   5.141189
    40  H    7.179918   8.217332   7.173118   5.122512   9.064841
    41  H    5.787356   6.648093   6.341153   4.477356   7.578431
    42  O    7.418492   8.469359   7.892636   5.585077   9.470880
    43  C    8.462707   9.566838   8.880515   6.487884  10.578876
    44  H    8.882452   9.911305   8.851257   6.901117  10.736786
    45  H    8.282226   9.468292   8.987425   6.223278  10.617613
    46  H    9.282735  10.397804   9.821472   7.360584  11.453875
                   21         22         23         24         25
    21  H    0.000000
    22  O    2.526094   0.000000
    23  C    3.933452   1.410380   0.000000
    24  H    4.434865   2.080919   1.096861   0.000000
    25  H    4.428987   2.080781   1.096769   1.788488   0.000000
    26  H    4.413884   2.008960   1.089954   1.781042   1.781092
    27  O    9.517963   9.730184  10.024118   9.449926  10.034113
    28  C    9.927884  10.013487  10.237726   9.544426  10.354174
    29  H    9.605079   9.441563   9.545979   8.788016   9.666977
    30  H    9.737273  10.010381  10.340743   9.653103  10.560461
    31  H   11.012028  11.055232  11.230104  10.513703  11.316580
    32  C    4.981383   6.384089   7.356101   7.506328   7.312633
    33  C    5.933035   7.559153   8.586140   8.683541   8.618004
    34  C    4.905793   6.322065   7.307493   7.647295   7.139148
    35  C    6.702929   8.525963   9.617441   9.817431   9.615028
    36  C    5.783857   7.425350   8.471822   8.891714   8.293562
    37  C    6.637684   8.469316   9.569839   9.914341   9.474840
    38  H    6.329244   7.882713   8.872327   8.843143   8.981707
    39  H    4.490037   5.604372   6.506779   6.920387   6.241038
    40  H    7.561485   9.461057  10.572076  10.729761  10.615168
    41  H    6.090211   7.664982   8.686341   9.217333   8.430578
    42  O    7.652903   9.573876  10.701563  11.115650  10.583666
    43  C    8.671962  10.697959  11.858303  12.212556  11.801605
    44  H    9.203109  11.112195  12.212984  12.492975  12.127253
    45  H    8.413989  10.575680  11.796676  12.121796  11.841682
    46  H    9.429472  11.480514  12.649827  13.063084  12.564653
                   26         27         28         29         30
    26  H    0.000000
    27  O   11.063008   0.000000
    28  C   11.226342   1.410417   0.000000
    29  H   10.512080   2.080812   1.096836   0.000000
    30  H   11.298139   2.080834   1.096776   1.788452   0.000000
    31  H   12.217509   2.009011   1.089952   1.781095   1.781128
    32  C    8.297009   6.383587   7.349392   7.500993   7.298084
    33  C    9.509808   6.303621   7.279052   7.618420   7.101587
    34  C    8.189337   7.584667   8.604881   8.705587   8.624903
    35  C   10.495426   7.417283   8.450238   8.872879   8.256664
    36  C    9.290980   8.536065   9.616749   9.820719   9.597803
    37  C   10.399426   8.471085   9.557699   9.906105   9.444377
    38  H    9.812236   5.563840   6.457610   6.869808   6.186277
    39  H    7.379267   7.917663   8.903661   8.879131   9.002253
    40  H   11.445268   7.604161   8.607578   9.141951   8.333853
    41  H    9.443246   9.494893  10.597054  10.764244  10.619765
    42  O   11.482506   9.655976  10.772233  11.174698  10.645945
    43  C   12.647989   9.922362  11.014458  11.533598  10.807357
    44  H   13.061807   9.339756  10.474559  11.062905  10.302929
    45  H   12.557594   9.920393  10.913631  11.439701  10.601274
    46  H   13.404444  10.962129  12.075013  12.601448  11.879352
                   31         32         33         34         35
    31  H    0.000000
    32  C    8.292387   0.000000
    33  C    8.164109   1.386816   0.000000
    34  C    9.531680   1.396945   2.389499   0.000000
    35  C    9.272535   2.419355   1.389687   2.769395   0.000000
    36  C   10.499458   2.412789   2.760178   1.377385   2.398091
    37  C   10.391762   2.800655   2.403586   2.405262   1.386962
    38  H    7.332865   2.140007   1.085772   3.376244   2.142599
    39  H    9.846333   2.148706   3.374349   1.085796   3.855157
    40  H    9.367587   3.389269   2.135626   3.853209   1.084082
    41  H   11.474241   3.401307   3.845570   2.147514   3.374393
    42  O   11.564323   4.160434   3.682081   3.612988   2.435248
    43  C   11.744523   5.026053   4.195071   4.775561   2.806345
    44  H   11.134249   5.078416   4.122477   5.005969   2.793186
    45  H   11.671319   5.078525   4.119902   5.007969   2.797569
    46  H   12.787474   6.007988   5.257725   5.606109   3.874292
                   36         37         38         39         40
    36  C    0.000000
    37  C    1.393012   0.000000
    38  H    3.845924   3.383525   0.000000
    39  H    2.136198   3.387631   4.274419   0.000000
    40  H    3.391636   2.158141   2.445694   4.938964   0.000000
    41  H    1.085484   2.136675   4.931288   2.474977   4.282047
    42  O    2.338103   1.362511   4.570472   4.473681   2.730923
    43  C    3.627962   2.371461   4.845435   5.729449   2.520071
    44  H    3.999431   2.699797   4.640380   5.998299   2.310212
    45  H    3.996616   2.699366   4.635523   6.002628   2.316798
    46  H    4.346811   3.253143   5.933872   6.482621   3.600444
                   41         42         43         44         45
    41  H    0.000000
    42  O    2.526122   0.000000
    43  C    3.933465   1.410363   0.000000
    44  H    4.432832   2.080837   1.096842   0.000000
    45  H    4.430877   2.080773   1.096798   1.788470   0.000000
    46  H    4.414039   2.008991   1.089958   1.781086   1.781119
                   46
    46  H    0.000000
 Stoichiometry    C21H21NO3
 Framework group  C1[X(C21H21NO3)]
 Deg. of freedom   132
 Full point group                 C1      NOp   1
 Largest Abelian subgroup         C1      NOp   1
 Largest concise Abelian subgroup C1      NOp   1
                         Standard orientation:                         
 ---------------------------------------------------------------------
 Center     Atomic      Atomic             Coordinates (Angstroms)
 Number     Number       Type             X           Y           Z
 ---------------------------------------------------------------------
      1          7           0       -0.054086   -0.063852    0.077784
      2          6           0        0.275154    1.311734    0.103506
      3          6           0        1.260864    1.827996   -0.723750
      4          6           0       -0.386136    2.184815    0.970218
      5          6           0        1.598383    3.175646   -0.688444
      6          6           0       -0.074578    3.526309    0.994438
      7          6           0        0.925199    4.034430    0.167909
      8          1           0        1.784639    1.164376   -1.405148
      9          1           0       -1.158634    1.797039    1.627427
     10          1           0        2.379443    3.537518   -1.347421
     11          1           0       -0.588854    4.206820    1.665799
     12          6           0        0.970368   -1.034170   -0.019727
     13          6           0        2.134785   -0.917605    0.724871
     14          6           0        0.835798   -2.133662   -0.869883
     15          6           0        3.151989   -1.858173    0.623575
     16          6           0        1.829783   -3.083911   -0.958163
     17          6           0        3.000538   -2.952780   -0.215611
     18          1           0        2.255494   -0.070395    1.393250
     19          1           0       -0.067506   -2.240735   -1.462783
     20          1           0        4.048238   -1.726663    1.219136
     21          1           0        1.725248   -3.941045   -1.615932
     22          8           0        3.928452   -3.936732   -0.380204
     23          6           0        5.121819   -3.840278    0.365278
     24          1           0        5.681123   -2.930405    0.115451
     25          1           0        4.925954   -3.859222    1.444250
     26          1           0        5.719913   -4.710923    0.096466
     27          8           0        1.168219    5.370782    0.273837
     28          6           0        2.170457    5.919716   -0.552884
     29          1           0        3.151069    5.472721   -0.348812
     30          1           0        1.930215    5.794071   -1.615623
     31          1           0        2.208574    6.983731   -0.319613
     32          6           0       -1.409258   -0.466483    0.091838
     33          6           0       -2.372325    0.232607   -0.620224
     34          6           0       -1.812213   -1.581496    0.830640
     35          6           0       -3.707828   -0.150755   -0.593850
     36          6           0       -3.129962   -1.982236    0.842322
     37          6           0       -4.092694   -1.267170    0.133583
     38          1           0       -2.078678    1.100647   -1.202616
     39          1           0       -1.073245   -2.139336    1.397822
     40          1           0       -4.429565    0.427687   -1.159301
     41          1           0       -3.443944   -2.850000    1.413878
     42          8           0       -5.369584   -1.734983    0.218075
     43          6           0       -6.368506   -1.037348   -0.492266
     44          1           0       -6.460713   -0.000869   -0.145468
     45          1           0       -6.173119   -1.041209   -1.571513
     46          1           0       -7.303574   -1.562500   -0.297656
 ---------------------------------------------------------------------
 Rotational constants (GHZ):           0.1829468           0.1651743           0.0911050
 Leave Link  202 at Sun Jan 17 00:22:21 2021, MaxMem=  4026531840 cpu:               0.3 elap:               0.1
 (Enter /opt/ohpc/pub/libs/gaussian/g16-A.03/sandybridge/g16/l301.exe)
 Standard basis: TZVP (5D, 7F)
 Ernie: Thresh=  0.10000D-02 Tol=  0.10000D-05 Strict=F.
 There are   626 symmetry adapted cartesian basis functions of A   symmetry.
 There are   601 symmetry adapted basis functions of A   symmetry.
   601 basis functions,  1043 primitive gaussians,   626 cartesian basis functions
    89 alpha electrons       89 beta electrons
       nuclear repulsion energy      2056.6778086010 Hartrees.
 IExCor=33909 DFT=T Ex+Corr=LC-wHPBE ExCW=0 ScaHFX=  1.000000
 ScaDFX=  1.000000  1.000000  1.000000  1.000000 ScalE2=  1.000000  1.000000
 IRadAn=      5 IRanWt=     -1 IRanGd=            0 ICorTp=0 IEmpDi=  4
 HFx  wShort=  0.000000 wLong=  0.156200 cFull=  0.000000 cShort=  0.000000 cLong=  1.000000
 DFx  wShort=  0.000000 wLong=  0.156200 cFull=  0.000000 cShort=  1.000000 cLong=  0.000000
 NAtoms=   46 NActive=   46 NUniq=   46 SFac= 1.00D+00 NAtFMM=   60 NAOKFM=F Big=F
 Integral buffers will be    131072 words long.
 Raffenetti 2 integral format.
 Two-electron integral symmetry is turned on.
 Leave Link  301 at Sun Jan 17 00:22:21 2021, MaxMem=  4026531840 cpu:               0.4 elap:               0.1
 (Enter /opt/ohpc/pub/libs/gaussian/g16-A.03/sandybridge/g16/l302.exe)
 NPDir=0 NMtPBC=     1 NCelOv=     1 NCel=       1 NClECP=     1 NCelD=      1
         NCelK=      1 NCelE2=     1 NClLst=     1 CellRange=     0.0.
 One-electron integrals computed using PRISM.
 One-electron integral symmetry used in STVInt
 NBasis=   601 RedAO= T EigKep=  7.47D-06  NBF=   601
 NBsUse=   601 1.00D-06 EigRej= -1.00D+00 NBFU=   601
 Precomputing XC quadrature grid using
 IXCGrd= 4 IRadAn=           5 IRanWt=          -1 IRanGd=           0 AccXCQ= 0.00D+00.
 Generated NRdTot=       0 NPtTot=           0 NUsed=           0 NTot=          32
 NSgBfM=   597   597   597   597   597 MxSgAt=    46 MxSgA2=    46.
 Leave Link  302 at Sun Jan 17 00:22:25 2021, MaxMem=  4026531840 cpu:              30.5 elap:               4.5
 (Enter /opt/ohpc/pub/libs/gaussian/g16-A.03/sandybridge/g16/l303.exe)
 DipDrv:  MaxL=1.
 Leave Link  303 at Sun Jan 17 00:22:25 2021, MaxMem=  4026531840 cpu:               0.7 elap:               0.1
 (Enter /opt/ohpc/pub/libs/gaussian/g16-A.03/sandybridge/g16/l401.exe)
 ExpMin= 9.52D-02 ExpMax= 2.70D+04 ExpMxC= 9.22D+02 IAcc=3 IRadAn=         5 AccDes= 0.00D+00
 Harris functional with IExCor=33909 and IRadAn=       5 diagonalized for initial guess.
 HarFok:  IExCor=33909 AccDes= 0.00D+00 IRadAn=         5 IDoV= 1 UseB2=F ITyADJ=14
 ICtDFT=  3500011 ScaDFX=  1.000000  1.000000  1.000000  1.000000
 FoFCou: FMM=F IPFlag=           0 FMFlag=      100000 FMFlg1=           0
         NFxFlg=           0 DoJE=T BraDBF=F KetDBF=T FulRan=T
         wScrn=  0.000000 ICntrl=       500 IOpCl=  0 I1Cent=   200000004 NGrid=           0
         NMat0=    1 NMatS0=      1 NMatT0=    0 NMatD0=    1 NMtDS0=    0 NMtDT0=    0
 Petite list used in FoFCou.
 Harris En= -1077.62647629106    
 JPrj=0 DoOrth=F DoCkMO=F.
 Leave Link  401 at Sun Jan 17 00:22:32 2021, MaxMem=  4026531840 cpu:              53.2 elap:               6.7
 (Enter /opt/ohpc/pub/libs/gaussian/g16-A.03/sandybridge/g16/l502.exe)
 Integral symmetry usage will be decided dynamically.
 Closed shell SCF:
 Using DIIS extrapolation, IDIIS=    10.
 NGot=  4026531840 LenX=  4025736816 LenY=  4025344314
 Requested convergence on RMS density matrix=1.00D-06 within  32 cycles.
 Requested convergence on MAX density matrix=1.00D-04.
 Requested convergence on             energy=1.00D-04.
 Virtual orbitals will be shifted by   0.500 hartree.
 No special actions if energy rises.
 Dynamic level shift is on during FON iterations.

 Cycle   1  Pass 1  IDiag  1:
 FoFJK:  IHMeth= 1 ICntrl=       0 DoSepK=T KAlg= 0 I1Cent=           0 FoldK=F
 IRaf=         1 NMat=       1 IRICut=       1 DoRegI=T DoRafI=F ISym2E= 0 IDoP0=0 IntGTp=1.
 FoFCou: FMM=F IPFlag=           0 FMFlag=      100000 FMFlg1=           0
         NFxFlg=           0 DoJE=T BraDBF=F KetDBF=F FulRan=T
         wScrn=  0.000000 ICntrl=       500 IOpCl=  0 I1Cent=           0 NGrid=           0
         NMat0=    1 NMatS0=      1 NMatT0=    0 NMatD0=    1 NMtDS0=    0 NMtDT0=    0
 Symmetry not used in FoFCou.
 E= -1092.13589285470    
 DIIS: error= 3.11D-02 at cycle   1 NSaved=   1.
 NSaved= 1 IEnMin= 1 EnMin= -1092.13589285470     IErMin= 1 ErrMin= 3.11D-02
 ErrMax= 3.11D-02  0.00D+00 EMaxC= 1.00D+00 BMatC= 4.18D-01 BMatP= 4.18D-01
 IDIUse=1 WtCom= 1.00D+00 WtEn= 0.00D+00
 Coeff-Com:  0.100D+01
 Coeff:      0.100D+01
 Gap=     0.273 Goal=   None    Shift=    0.500
 T= 1517. Gap= 0.741 NK=0 IS=   90 IE=  601 IFin=   89
          NO(<0.9)=   0  NV(>0.1)=   0     89.00e < EF      0.00e >EF  Err=0.0D+00
 GapD=    0.273 DampG=1.000 DampE=0.500 DampFc=0.5000 IDamp=-1.
 Damping current iteration by 5.00D-01
 RMSDP=1.97D-03 MaxDP=7.23D-02              OVMax= 6.60D-02

 Cycle   2  Pass 1  IDiag  1:
 E= -1092.39128259249     Delta-E=       -0.255389737790 Rises=F Damp=T
 DIIS: error= 1.40D-02 at cycle   2 NSaved=   2.
 NSaved= 2 IEnMin= 2 EnMin= -1092.39128259249     IErMin= 2 ErrMin= 1.40D-02
 ErrMax= 1.40D-02  0.00D+00 EMaxC= 1.00D+00 BMatC= 6.98D-02 BMatP= 4.18D-01
 IDIUse=1 WtCom= 1.00D+00 WtEn= 0.00D+00
 Coeff-Com: -0.557D+00 0.156D+01
 Coeff:     -0.557D+00 0.156D+01
 Gap=     0.249 Goal=   None    Shift=    0.500
 T= 1395. Gap= 0.726 NK=0 IS=   90 IE=  601 IFin=   89
          NO(<0.9)=   0  NV(>0.1)=   0     89.00e < EF      0.00e >EF  Err=0.0D+00
 GapD=    0.249 DampG=1.000 DampE=0.500 DampFc=0.5000 IDamp=-1.
 Damping current iteration by 5.00D-01
 RMSDP=1.45D-03 MaxDP=8.34D-02 DE=-2.55D-01 OVMax= 1.59D-02

 Cycle   3  Pass 1  IDiag  1:
 E= -1092.47946611421     Delta-E=       -0.088183521712 Rises=F Damp=T
 DIIS: error= 6.36D-03 at cycle   3 NSaved=   3.
 NSaved= 3 IEnMin= 3 EnMin= -1092.47946611421     IErMin= 3 ErrMin= 6.36D-03
 ErrMax= 6.36D-03  0.00D+00 EMaxC= 1.00D+00 BMatC= 1.33D-02 BMatP= 6.98D-02
 IDIUse=1 WtCom= 1.00D+00 WtEn= 0.00D+00
 Coeff-Com:  0.651D-01-0.919D+00 0.185D+01
 Coeff:      0.651D-01-0.919D+00 0.185D+01
 Gap=     0.241 Goal=   None    Shift=    0.500
 T= 1160. Gap= 0.739 NK=0 IS=   90 IE=  601 IFin=   89
          NO(<0.9)=   0  NV(>0.1)=   0     89.00e < EF      0.00e >EF  Err=0.0D+00
 GapD=    0.241 DampG=1.000 DampE=1.000 DampFc=1.0000 IDamp=-1.
 RMSDP=9.89D-04 MaxDP=6.97D-02 DE=-8.82D-02 OVMax= 7.33D-03

 Cycle   4  Pass 1  IDiag  1:
 E= -1092.55228394347     Delta-E=       -0.072817829262 Rises=F Damp=F
 DIIS: error= 6.80D-04 at cycle   4 NSaved=   4.
 NSaved= 4 IEnMin= 4 EnMin= -1092.55228394347     IErMin= 4 ErrMin= 6.80D-04
 ErrMax= 6.80D-04  0.00D+00 EMaxC= 1.00D+00 BMatC= 6.08D-04 BMatP= 1.33D-02
 IDIUse=1 WtCom= 1.00D+00 WtEn= 0.00D+00
 Coeff-Com:  0.839D-01-0.268D+00 0.274D+00 0.909D+00
 Coeff:      0.839D-01-0.268D+00 0.274D+00 0.909D+00
 Gap=     0.236 Goal=   None    Shift=    0.500
 RMSDP=1.82D-04 MaxDP=1.06D-02 DE=-7.28D-02 OVMax= 2.78D-03

 Cycle   5  Pass 1  IDiag  1:
 E= -1092.55287602534     Delta-E=       -0.000592081869 Rises=F Damp=F
 DIIS: error= 2.53D-04 at cycle   5 NSaved=   5.
 NSaved= 5 IEnMin= 5 EnMin= -1092.55287602534     IErMin= 5 ErrMin= 2.53D-04
 ErrMax= 2.53D-04  0.00D+00 EMaxC= 1.00D+00 BMatC= 7.25D-05 BMatP= 6.08D-04
 IDIUse=1 WtCom= 1.00D+00 WtEn= 0.00D+00
 Coeff-Com:  0.183D-01 0.449D-02-0.791D-01-0.280D-01 0.108D+01
 Coeff:      0.183D-01 0.449D-02-0.791D-01-0.280D-01 0.108D+01
 Gap=     0.236 Goal=   None    Shift=    0.500
 RMSDP=1.13D-04 MaxDP=5.92D-03 DE=-5.92D-04 OVMax= 1.83D-03

 Cycle   6  Pass 1  IDiag  1:
 E= -1092.55299293781     Delta-E=       -0.000116912473 Rises=F Damp=F
 DIIS: error= 2.00D-04 at cycle   6 NSaved=   6.
 NSaved= 6 IEnMin= 6 EnMin= -1092.55299293781     IErMin= 6 ErrMin= 2.00D-04
 ErrMax= 2.00D-04  0.00D+00 EMaxC= 1.00D+00 BMatC= 1.34D-05 BMatP= 7.25D-05
 IDIUse=1 WtCom= 1.00D+00 WtEn= 0.00D+00
 Coeff-Com: -0.101D-01 0.593D-01-0.917D-01-0.178D+00 0.167D+00 0.105D+01
 Coeff:     -0.101D-01 0.593D-01-0.917D-01-0.178D+00 0.167D+00 0.105D+01
 Gap=     0.236 Goal=   None    Shift=    0.500
 RMSDP=6.39D-05 MaxDP=2.69D-03 DE=-1.17D-04 OVMax= 1.40D-03

 Cycle   7  Pass 1  IDiag  1:
 E= -1092.55302727943     Delta-E=       -0.000034341617 Rises=F Damp=F
 DIIS: error= 1.34D-04 at cycle   7 NSaved=   7.
 NSaved= 7 IEnMin= 7 EnMin= -1092.55302727943     IErMin= 7 ErrMin= 1.34D-04
 ErrMax= 1.34D-04  0.00D+00 EMaxC= 1.00D+00 BMatC= 3.50D-06 BMatP= 1.34D-05
 IDIUse=1 WtCom= 1.00D+00 WtEn= 0.00D+00
 Coeff-Com: -0.670D-02 0.165D-01-0.131D-01-0.453D-01-0.157D+00-0.109D+00
 Coeff-Com:  0.132D+01
 Coeff:     -0.670D-02 0.165D-01-0.131D-01-0.453D-01-0.157D+00-0.109D+00
 Coeff:      0.132D+01
 Gap=     0.236 Goal=   None    Shift=    0.500
 RMSDP=3.46D-05 MaxDP=1.50D-03 DE=-3.43D-05 OVMax= 1.00D-03

 Cycle   8  Pass 1  IDiag  1:
 E= -1092.55303988600     Delta-E=       -0.000012606573 Rises=F Damp=F
 DIIS: error= 1.04D-04 at cycle   8 NSaved=   8.
 NSaved= 8 IEnMin= 8 EnMin= -1092.55303988600     IErMin= 8 ErrMin= 1.04D-04
 ErrMax= 1.04D-04  0.00D+00 EMaxC= 1.00D+00 BMatC= 1.38D-06 BMatP= 3.50D-06
 IDIUse=1 WtCom= 1.00D+00 WtEn= 0.00D+00
 Coeff-Com: -0.170D-03-0.104D-01 0.207D-01 0.302D-01-0.141D+00-0.388D+00
 Coeff-Com:  0.339D+00 0.115D+01
 Coeff:     -0.170D-03-0.104D-01 0.207D-01 0.302D-01-0.141D+00-0.388D+00
 Coeff:      0.339D+00 0.115D+01
 Gap=     0.236 Goal=   None    Shift=    0.500
 RMSDP=1.82D-05 MaxDP=7.86D-04 DE=-1.26D-05 OVMax= 7.78D-04

 Cycle   9  Pass 1  IDiag  1:
 E= -1092.55304525597     Delta-E=       -0.000005369969 Rises=F Damp=F
 DIIS: error= 7.20D-05 at cycle   9 NSaved=   9.
 NSaved= 9 IEnMin= 9 EnMin= -1092.55304525597     IErMin= 9 ErrMin= 7.20D-05
 ErrMax= 7.20D-05  0.00D+00 EMaxC= 1.00D+00 BMatC= 4.86D-07 BMatP= 1.38D-06
 IDIUse=1 WtCom= 1.00D+00 WtEn= 0.00D+00
 Coeff-Com:  0.214D-02-0.755D-02 0.772D-02 0.196D-01 0.255D-01-0.521D-01
 Coeff-Com: -0.462D+00-0.423D+00 0.189D+01
 Coeff:      0.214D-02-0.755D-02 0.772D-02 0.196D-01 0.255D-01-0.521D-01
 Coeff:     -0.462D+00-0.423D+00 0.189D+01
 Gap=     0.236 Goal=   None    Shift=    0.500
 RMSDP=9.69D-06 MaxDP=5.17D-04 DE=-5.37D-06 OVMax= 5.89D-04

 Cycle  10  Pass 1  IDiag  1:
 E= -1092.55304764681     Delta-E=       -0.000002390842 Rises=F Damp=F
 DIIS: error= 5.02D-05 at cycle  10 NSaved=  10.
 NSaved=10 IEnMin=10 EnMin= -1092.55304764681     IErMin=10 ErrMin= 5.02D-05
 ErrMax= 5.02D-05  0.00D+00 EMaxC= 1.00D+00 BMatC= 1.96D-07 BMatP= 4.86D-07
 IDIUse=1 WtCom= 1.00D+00 WtEn= 0.00D+00
 Coeff-Com:  0.198D-03 0.200D-02-0.456D-02 0.111D-02 0.402D-01 0.532D-01
 Coeff-Com: -0.187D+00-0.437D+00-0.278D+00 0.181D+01
 Coeff:      0.198D-03 0.200D-02-0.456D-02 0.111D-02 0.402D-01 0.532D-01
 Coeff:     -0.187D+00-0.437D+00-0.278D+00 0.181D+01
 Gap=     0.236 Goal=   None    Shift=    0.500
 RMSDP=5.31D-06 MaxDP=3.20D-04 DE=-2.39D-06 OVMax= 4.14D-04

 Cycle  11  Pass 1  IDiag  1:
 E= -1092.55304865391     Delta-E=       -0.000001007096 Rises=F Damp=F
 DIIS: error= 3.60D-05 at cycle  11 NSaved=  11.
 NSaved=11 IEnMin=11 EnMin= -1092.55304865391     IErMin=11 ErrMin= 3.60D-05
 ErrMax= 3.60D-05  0.00D+00 EMaxC= 1.00D+00 BMatC= 8.15D-08 BMatP= 1.96D-07
 IDIUse=1 WtCom= 1.00D+00 WtEn= 0.00D+00
 Coeff-Com: -0.557D-03 0.346D-02-0.487D-02-0.277D-02 0.132D-01 0.367D-01
 Coeff-Com:  0.496D-01-0.163D+00-0.704D+00 0.181D+00 0.159D+01
 Coeff:     -0.557D-03 0.346D-02-0.487D-02-0.277D-02 0.132D-01 0.367D-01
 Coeff:      0.496D-01-0.163D+00-0.704D+00 0.181D+00 0.159D+01
 Gap=     0.236 Goal=   None    Shift=    0.500
 RMSDP=3.18D-06 MaxDP=1.99D-04 DE=-1.01D-06 OVMax= 2.97D-04

 Cycle  12  Pass 1  IDiag  1:
 E= -1092.55304907775     Delta-E=       -0.000000423846 Rises=F Damp=F
 DIIS: error= 2.25D-05 at cycle  12 NSaved=  12.
 NSaved=12 IEnMin=12 EnMin= -1092.55304907775     IErMin=12 ErrMin= 2.25D-05
 ErrMax= 2.25D-05  0.00D+00 EMaxC= 1.00D+00 BMatC= 3.44D-08 BMatP= 8.15D-08
 IDIUse=1 WtCom= 1.00D+00 WtEn= 0.00D+00
 Coeff-Com: -0.292D-03 0.416D-03 0.229D-03-0.386D-03-0.140D-01-0.100D-01
 Coeff-Com:  0.123D+00 0.860D-01-0.162D+00-0.107D+01 0.260D+00 0.179D+01
 Coeff:     -0.292D-03 0.416D-03 0.229D-03-0.386D-03-0.140D-01-0.100D-01
 Coeff:      0.123D+00 0.860D-01-0.162D+00-0.107D+01 0.260D+00 0.179D+01
 Gap=     0.236 Goal=   None    Shift=    0.500
 RMSDP=1.90D-06 MaxDP=1.10D-04 DE=-4.24D-07 OVMax= 2.05D-04

 Cycle  13  Pass 1  IDiag  1:
 E= -1092.55304925908     Delta-E=       -0.000000181330 Rises=F Damp=F
 DIIS: error= 1.51D-05 at cycle  13 NSaved=  13.
 NSaved=13 IEnMin=13 EnMin= -1092.55304925908     IErMin=13 ErrMin= 1.51D-05
 ErrMax= 1.51D-05  0.00D+00 EMaxC= 1.00D+00 BMatC= 1.46D-08 BMatP= 3.44D-08
 IDIUse=1 WtCom= 1.00D+00 WtEn= 0.00D+00
 Coeff-Com: -0.110D-04-0.488D-03 0.104D-02 0.933D-03-0.982D-02-0.100D-01
 Coeff-Com:  0.512D-01 0.379D-01 0.122D+00-0.625D+00-0.404D-01-0.339D+00
 Coeff-Com:  0.181D+01
 Coeff:     -0.110D-04-0.488D-03 0.104D-02 0.933D-03-0.982D-02-0.100D-01
 Coeff:      0.512D-01 0.379D-01 0.122D+00-0.625D+00-0.404D-01-0.339D+00
 Coeff:      0.181D+01
 Gap=     0.236 Goal=   None    Shift=    0.500
 RMSDP=1.09D-06 MaxDP=5.27D-05 DE=-1.81D-07 OVMax= 1.39D-04

 Cycle  14  Pass 1  IDiag  1:
 E= -1092.55304933337     Delta-E=       -0.000000074290 Rises=F Damp=F
 DIIS: error= 9.47D-06 at cycle  14 NSaved=  14.
 NSaved=14 IEnMin=14 EnMin= -1092.55304933337     IErMin=14 ErrMin= 9.47D-06
 ErrMax= 9.47D-06  0.00D+00 EMaxC= 1.00D+00 BMatC= 6.08D-09 BMatP= 1.46D-08
 IDIUse=1 WtCom= 1.00D+00 WtEn= 0.00D+00
 Coeff-Com:  0.104D-03-0.390D-03 0.430D-03 0.932D-03-0.725D-03-0.185D-02
 Coeff-Com: -0.135D-01-0.232D-01 0.165D+00 0.799D-02-0.906D-01-0.116D+01
 Coeff-Com:  0.403D+00 0.171D+01
 Coeff:      0.104D-03-0.390D-03 0.430D-03 0.932D-03-0.725D-03-0.185D-02
 Coeff:     -0.135D-01-0.232D-01 0.165D+00 0.799D-02-0.906D-01-0.116D+01
 Coeff:      0.403D+00 0.171D+01
 Gap=     0.236 Goal=   None    Shift=    0.500
 RMSDP=6.76D-07 MaxDP=2.02D-05 DE=-7.43D-08 OVMax= 9.24D-05

 SCF Done:  E(RLC-wHPBE) =  -1092.55304933     A.U. after   14 cycles
            NFock= 14  Conv=0.68D-06     -V/T= 2.0041
 KE= 1.088108073026D+03 PE=-6.659892644568D+03 EE= 2.422553713607D+03
 Leave Link  502 at Sun Jan 17 00:32:57 2021, MaxMem=  4026531840 cpu:            4968.8 elap:             624.5
 (Enter /opt/ohpc/pub/libs/gaussian/g16-A.03/sandybridge/g16/l508.exe)
 QCSCF skips out because SCF is already converged.
 Leave Link  508 at Sun Jan 17 00:32:57 2021, MaxMem=  4026531840 cpu:               0.2 elap:               0.0
 (Enter /opt/ohpc/pub/libs/gaussian/g16-A.03/sandybridge/g16/l601.exe)
 Copying SCF densities to generalized density rwf, IOpCl= 0 IROHF=0.

 **********************************************************************

            Population analysis using the SCF density.

 **********************************************************************

 Orbital symmetries:
       Occupied  (A) (A) (A) (A) (A) (A) (A) (A) (A) (A) (A) (A)
                 (A) (A) (A) (A) (A) (A) (A) (A) (A) (A) (A) (A)
                 (A) (A) (A) (A) (A) (A) (A) (A) (A) (A) (A) (A)
                 (A) (A) (A) (A) (A) (A) (A) (A) (A) (A) (A) (A)
                 (A) (A) (A) (A) (A) (A) (A) (A) (A) (A) (A) (A)
                 (A) (A) (A) (A) (A) (A) (A) (A) (A) (A) (A) (A)
                 (A) (A) (A) (A) (A) (A) (A) (A) (A) (A) (A) (A)
                 (A) (A) (A) (A) (A)
       Virtual   (A) (A) (A) (A) (A) (A) (A) (A) (A) (A) (A) (A)
                 (A) (A) (A) (A) (A) (A) (A) (A) (A) (A) (A) (A)
                 (A) (A) (A) (A) (A) (A) (A) (A) (A) (A) (A) (A)
                 (A) (A) (A) (A) (A) (A) (A) (A) (A) (A) (A) (A)
                 (A) (A) (A) (A) (A) (A) (A) (A) (A) (A) (A) (A)
                 (A) (A) (A) (A) (A) (A) (A) (A) (A) (A) (A) (A)
                 (A) (A) (A) (A) (A) (A) (A) (A) (A) (A) (A) (A)
                 (A) (A) (A) (A) (A) (A) (A) (A) (A) (A) (A) (A)
                 (A) (A) (A) (A) (A) (A) (A) (A) (A) (A) (A) (A)
                 (A) (A) (A) (A) (A) (A) (A) (A) (A) (A) (A) (A)
                 (A) (A) (A) (A) (A) (A) (A) (A) (A) (A) (A) (A)
                 (A) (A) (A) (A) (A) (A) (A) (A) (A) (A) (A) (A)
                 (A) (A) (A) (A) (A) (A) (A) (A) (A) (A) (A) (A)
                 (A) (A) (A) (A) (A) (A) (A) (A) (A) (A) (A) (A)
                 (A) (A) (A) (A) (A) (A) (A) (A) (A) (A) (A) (A)
                 (A) (A) (A) (A) (A) (A) (A) (A) (A) (A) (A) (A)
                 (A) (A) (A) (A) (A) (A) (A) (A) (A) (A) (A) (A)
                 (A) (A) (A) (A) (A) (A) (A) (A) (A) (A) (A) (A)
                 (A) (A) (A) (A) (A) (A) (A) (A) (A) (A) (A) (A)
                 (A) (A) (A) (A) (A) (A) (A) (A) (A) (A) (A) (A)
                 (A) (A) (A) (A) (A) (A) (A) (A) (A) (A) (A) (A)
                 (A) (A) (A) (A) (A) (A) (A) (A) (A) (A) (A) (A)
                 (A) (A) (A) (A) (A) (A) (A) (A) (A) (A) (A) (A)
                 (A) (A) (A) (A) (A) (A) (A) (A) (A) (A) (A) (A)
                 (A) (A) (A) (A) (A) (A) (A) (A) (A) (A) (A) (A)
                 (A) (A) (A) (A) (A) (A) (A) (A) (A) (A) (A) (A)
                 (A) (A) (A) (A) (A) (A) (A) (A) (A) (A) (A) (A)
                 (A) (A) (A) (A) (A) (A) (A) (A) (A) (A) (A) (A)
                 (A) (A) (A) (A) (A) (A) (A) (A) (A) (A) (A) (A)
                 (A) (A) (A) (A) (A) (A) (A) (A) (A) (A) (A) (A)
                 (A) (A) (A) (A) (A) (A) (A) (A) (A) (A) (A) (A)
                 (A) (A) (A) (A) (A) (A) (A) (A) (A) (A) (A) (A)
                 (A) (A) (A) (A) (A) (A) (A) (A) (A) (A) (A) (A)
                 (A) (A) (A) (A) (A) (A) (A) (A) (A) (A) (A) (A)
                 (A) (A) (A) (A) (A) (A) (A) (A) (A) (A) (A) (A)
                 (A) (A) (A) (A) (A) (A) (A) (A) (A) (A) (A) (A)
                 (A) (A) (A) (A) (A) (A) (A) (A) (A) (A) (A) (A)
                 (A) (A) (A) (A) (A) (A) (A) (A) (A) (A) (A) (A)
                 (A) (A) (A) (A) (A) (A) (A) (A) (A) (A) (A) (A)
                 (A) (A) (A) (A) (A) (A) (A) (A) (A) (A) (A) (A)
                 (A) (A) (A) (A) (A) (A) (A) (A) (A) (A) (A) (A)
                 (A) (A) (A) (A) (A) (A) (A) (A) (A) (A) (A) (A)
                 (A) (A) (A) (A) (A) (A) (A) (A)
 The electronic state is 1-A.
 Alpha  occ. eigenvalues --  -18.86941 -18.86875 -18.86792 -14.09588 -10.02519
 Alpha  occ. eigenvalues --  -10.02455 -10.02364 -10.02254 -10.02195 -10.02112
 Alpha  occ. eigenvalues --  -10.00328 -10.00299 -10.00265  -9.97136  -9.97093
 Alpha  occ. eigenvalues --   -9.97010  -9.96986  -9.96961  -9.96943  -9.96905
 Alpha  occ. eigenvalues --   -9.96863  -9.96842  -9.96752  -9.96690  -9.96629
 Alpha  occ. eigenvalues --   -1.07109  -1.07043  -1.06959  -0.97150  -0.87310
 Alpha  occ. eigenvalues --   -0.87242  -0.85388  -0.78648  -0.78484  -0.77201
 Alpha  occ. eigenvalues --   -0.77001  -0.76526  -0.75571  -0.72735  -0.72353
 Alpha  occ. eigenvalues --   -0.69580  -0.65391  -0.64656  -0.63952  -0.62730
 Alpha  occ. eigenvalues --   -0.62347  -0.59966  -0.57821  -0.57750  -0.57003
 Alpha  occ. eigenvalues --   -0.55268  -0.55032  -0.52780  -0.51508  -0.51276
 Alpha  occ. eigenvalues --   -0.50626  -0.50565  -0.50481  -0.48290  -0.48257
 Alpha  occ. eigenvalues --   -0.48111  -0.46365  -0.46236  -0.46066  -0.45864
 Alpha  occ. eigenvalues --   -0.45184  -0.45051  -0.44986  -0.42886  -0.42697
 Alpha  occ. eigenvalues --   -0.42523  -0.42447  -0.42143  -0.40357  -0.39586
 Alpha  occ. eigenvalues --   -0.39413  -0.37984  -0.36952  -0.36802  -0.36507
 Alpha  occ. eigenvalues --   -0.36322  -0.36237  -0.31931  -0.31347  -0.30511
 Alpha  occ. eigenvalues --   -0.30288  -0.27689  -0.27485  -0.21622
 Alpha virt. eigenvalues --    0.01990   0.03763   0.03891   0.04265   0.04456
 Alpha virt. eigenvalues --    0.08384   0.09123   0.09532   0.09578   0.11228
 Alpha virt. eigenvalues --    0.11302   0.11392   0.12460   0.13199   0.13357
 Alpha virt. eigenvalues --    0.13726   0.14085   0.14260   0.14992   0.15460
 Alpha virt. eigenvalues --    0.15726   0.15878   0.16486   0.16602   0.16622
 Alpha virt. eigenvalues --    0.16877   0.17414   0.17970   0.18313   0.18463
 Alpha virt. eigenvalues --    0.18637   0.18755   0.20665   0.21270   0.23000
 Alpha virt. eigenvalues --    0.23291   0.23801   0.24259   0.24493   0.25179
 Alpha virt. eigenvalues --    0.25831   0.25936   0.26066   0.26225   0.26251
 Alpha virt. eigenvalues --    0.26496   0.26758   0.26906   0.27234   0.27887
 Alpha virt. eigenvalues --    0.28078   0.28996   0.29298   0.29520   0.29651
 Alpha virt. eigenvalues --    0.30974   0.31261   0.31489   0.32179   0.32623
 Alpha virt. eigenvalues --    0.33169   0.33569   0.33667   0.33942   0.34371
 Alpha virt. eigenvalues --    0.34671   0.34987   0.36013   0.36135   0.37133
 Alpha virt. eigenvalues --    0.37411   0.37541   0.37814   0.38611   0.39096
 Alpha virt. eigenvalues --    0.39524   0.39907   0.40196   0.40468   0.41073
 Alpha virt. eigenvalues --    0.41513   0.41647   0.42379   0.42982   0.43273
 Alpha virt. eigenvalues --    0.43579   0.43661   0.44190   0.44350   0.44592
 Alpha virt. eigenvalues --    0.44840   0.45045   0.45436   0.46016   0.46301
 Alpha virt. eigenvalues --    0.46406   0.46679   0.47186   0.47487   0.47633
 Alpha virt. eigenvalues --    0.47990   0.48303   0.48400   0.49328   0.49864
 Alpha virt. eigenvalues --    0.50070   0.50157   0.50472   0.50577   0.50754
 Alpha virt. eigenvalues --    0.51100   0.51234   0.52083   0.52254   0.52746
 Alpha virt. eigenvalues --    0.52993   0.53309   0.53934   0.54075   0.54398
 Alpha virt. eigenvalues --    0.54479   0.55088   0.55824   0.56480   0.57881
 Alpha virt. eigenvalues --    0.58903   0.59620   0.59828   0.60048   0.60160
 Alpha virt. eigenvalues --    0.61713   0.62496   0.64207   0.65002   0.65240
 Alpha virt. eigenvalues --    0.65825   0.66785   0.67097   0.67442   0.67898
 Alpha virt. eigenvalues --    0.68350   0.68674   0.69716   0.69885   0.70067
 Alpha virt. eigenvalues --    0.71758   0.71977   0.72304   0.72772   0.73549
 Alpha virt. eigenvalues --    0.75078   0.75713   0.75796   0.76112   0.76896
 Alpha virt. eigenvalues --    0.77213   0.77472   0.77728   0.79329   0.79560
 Alpha virt. eigenvalues --    0.80389   0.82356   0.82920   0.83586   0.84457
 Alpha virt. eigenvalues --    0.85691   0.86266   0.88433   0.88543   0.90324
 Alpha virt. eigenvalues --    0.91805   0.92183   0.94800   0.95456   0.95531
 Alpha virt. eigenvalues --    0.97854   0.98184   1.00221   1.17025   1.19164
 Alpha virt. eigenvalues --    1.19418   1.20955   1.21267   1.21774   1.25527
 Alpha virt. eigenvalues --    1.25870   1.26223   1.26486   1.27201   1.27711
 Alpha virt. eigenvalues --    1.28007   1.28252   1.28608   1.28953   1.29402
 Alpha virt. eigenvalues --    1.30067   1.30428   1.30760   1.31330   1.32137
 Alpha virt. eigenvalues --    1.32277   1.32685   1.33195   1.33473   1.34336
 Alpha virt. eigenvalues --    1.34874   1.35663   1.36039   1.36399   1.36639
 Alpha virt. eigenvalues --    1.37275   1.37883   1.38782   1.39532   1.39832
 Alpha virt. eigenvalues --    1.41825   1.42081   1.42364   1.43478   1.43571
 Alpha virt. eigenvalues --    1.44018   1.44806   1.44952   1.45380   1.45574
 Alpha virt. eigenvalues --    1.45871   1.46491   1.46954   1.47329   1.47512
 Alpha virt. eigenvalues --    1.47813   1.48210   1.49716   1.49979   1.50326
 Alpha virt. eigenvalues --    1.50777   1.51411   1.51766   1.52315   1.53442
 Alpha virt. eigenvalues --    1.53488   1.53690   1.53825   1.54098   1.54377
 Alpha virt. eigenvalues --    1.54663   1.55003   1.55587   1.55864   1.56266
 Alpha virt. eigenvalues --    1.56687   1.57072   1.57896   1.58370   1.58740
 Alpha virt. eigenvalues --    1.59143   1.59656   1.59720   1.60422   1.61189
 Alpha virt. eigenvalues --    1.61683   1.62360   1.62991   1.63485   1.63907
 Alpha virt. eigenvalues --    1.65674   1.66904   1.67142   1.69258   1.69816
 Alpha virt. eigenvalues --    1.70092   1.70927   1.71162   1.71324   1.75232
 Alpha virt. eigenvalues --    1.76044   1.77093   1.77167   1.77268   1.77889
 Alpha virt. eigenvalues --    1.78257   1.79019   1.79569   1.79957   1.80266
 Alpha virt. eigenvalues --    1.80478   1.80569   1.80649   1.81080   1.81237
 Alpha virt. eigenvalues --    1.82356   1.82380   1.83309   1.83545   1.84778
 Alpha virt. eigenvalues --    1.85017   1.85448   1.85692   1.87242   1.87873
 Alpha virt. eigenvalues --    1.88593   1.89135   1.90090   1.90537   1.91996
 Alpha virt. eigenvalues --    1.92381   1.92637   1.92766   1.93589   1.94261
 Alpha virt. eigenvalues --    1.94574   1.94778   1.94887   1.95196   1.95395
 Alpha virt. eigenvalues --    1.95595   1.97118   2.01903   2.02648   2.03003
 Alpha virt. eigenvalues --    2.04987   2.05140   2.05942   2.06610   2.06834
 Alpha virt. eigenvalues --    2.07634   2.10835   2.11508   2.12034   2.13315
 Alpha virt. eigenvalues --    2.14523   2.15259   2.16629   2.17537   2.20685
 Alpha virt. eigenvalues --    2.20782   2.20881   2.21369   2.21467   2.22280
 Alpha virt. eigenvalues --    2.22807   2.24195   2.24682   2.27209   2.30417
 Alpha virt. eigenvalues --    2.30642   2.30822   2.31663   2.31698   2.31741
 Alpha virt. eigenvalues --    2.32439   2.32845   2.34147   2.34522   2.35662
 Alpha virt. eigenvalues --    2.35783   2.35970   2.36302   2.36474   2.36856
 Alpha virt. eigenvalues --    2.37247   2.38099   2.39016   2.39058   2.39777
 Alpha virt. eigenvalues --    2.39844   2.39928   2.40042   2.40287   2.40514
 Alpha virt. eigenvalues --    2.40744   2.45639   2.45686   2.48281   2.48624
 Alpha virt. eigenvalues --    2.48807   2.49866   2.50255   2.50771   2.51308
 Alpha virt. eigenvalues --    2.55883   2.56042   2.56939   2.56986   2.57071
 Alpha virt. eigenvalues --    2.60053   2.60147   2.61448   2.62137   2.62576
 Alpha virt. eigenvalues --    2.63201   2.64422   2.65105   2.65235   2.65458
 Alpha virt. eigenvalues --    2.67758   2.68046   2.71660   2.71775   2.72374
 Alpha virt. eigenvalues --    2.72790   2.73056   2.73325   2.75008   2.75166
 Alpha virt. eigenvalues --    2.76005   2.76317   2.78325   2.78539   2.78897
 Alpha virt. eigenvalues --    2.79143   2.81621   2.83547   2.84957   2.85600
 Alpha virt. eigenvalues --    2.88870   2.89486   2.89932   2.90243   2.95125
 Alpha virt. eigenvalues --    2.95189   2.95910   2.96574   2.96815   3.00225
 Alpha virt. eigenvalues --    3.00261   3.00523   3.01569   3.02415   3.05134
 Alpha virt. eigenvalues --    3.05559   3.05741   3.06157   3.06656   3.07177
 Alpha virt. eigenvalues --    3.07232   3.07315   3.07745   3.08303   3.09145
 Alpha virt. eigenvalues --    3.11420   3.11701   3.14212   3.15984   3.16500
 Alpha virt. eigenvalues --    3.16744   3.17934   3.18186   3.20647   3.21881
 Alpha virt. eigenvalues --    3.22486   3.26231   3.26688   3.27160   3.28303
 Alpha virt. eigenvalues --    3.28486   3.28893   3.28939   3.29024   3.29330
 Alpha virt. eigenvalues --    3.30321   3.32297   3.32484   3.33691   3.37250
 Alpha virt. eigenvalues --    3.37379   3.37504   3.38430   3.39318   3.42174
 Alpha virt. eigenvalues --    3.43226   3.44631   3.47457   3.56097   3.56461
 Alpha virt. eigenvalues --    3.57163   3.59146   3.59491   3.71545   3.85685
 Alpha virt. eigenvalues --    3.86042   3.96490   3.96899   3.97150   4.17403
 Alpha virt. eigenvalues --    4.18171   4.18229  21.25157  21.26830  21.26972
 Alpha virt. eigenvalues --   21.69364  21.72734  21.73169  21.78068  21.80192
 Alpha virt. eigenvalues --   21.80275  21.80404  21.86087  21.87055  21.92364
 Alpha virt. eigenvalues --   21.96428  21.97182  21.98088  22.02062  22.03529
 Alpha virt. eigenvalues --   22.08915  22.16541  22.17273  32.06418  43.33529
 Alpha virt. eigenvalues --   43.33632  43.33715
          Condensed to atoms (all electrons):
               1          2          3          4          5          6
     1  N    6.585535   0.140153  -0.027610  -0.009476   0.032211   0.017489
     2  C    0.140153   5.567038   0.373546   0.274359   0.049587   0.067951
     3  C   -0.027610   0.373546   5.475132  -0.165630  -0.032086  -0.022524
     4  C   -0.009476   0.274359  -0.165630   5.442018  -0.053756   0.153370
     5  C    0.032211   0.049587  -0.032086  -0.053756   6.111203  -0.244001
     6  C    0.017489   0.067951  -0.022524   0.153370  -0.244001   5.639005
     7  C    0.003003  -0.165960   0.082912   0.057521   0.088391   0.337800
     8  H   -0.010627  -0.030355   0.394172   0.011910  -0.047480   0.001227
     9  H   -0.008492  -0.061085   0.019036   0.437287  -0.004929  -0.078310
    10  H   -0.000706   0.008129   0.025186   0.007458   0.360312  -0.006728
    11  H   -0.000580   0.022876  -0.003940  -0.064124   0.021418   0.444616
    12  C    0.143623  -0.091228   0.032681  -0.016860  -0.006803  -0.002159
    13  C   -0.022303   0.033501  -0.062874   0.019368  -0.008072   0.002409
    14  C   -0.016752  -0.019247   0.019800  -0.014055   0.002864   0.000143
    15  C    0.029448  -0.005474  -0.007718   0.002829   0.000007  -0.000091
    16  C    0.018438  -0.001644   0.002395   0.000136  -0.000075  -0.000106
    17  C    0.002974   0.001403  -0.001363  -0.000124  -0.000102   0.000048
    18  H   -0.009366   0.003319   0.004503  -0.003000  -0.003209   0.001604
    19  H   -0.009415  -0.002802   0.000573  -0.000457   0.000014   0.000039
    20  H   -0.000680  -0.000088   0.000090  -0.000048   0.000039  -0.000001
    21  H   -0.000569   0.000041  -0.000038   0.000004  -0.000003  -0.000000
    22  O   -0.000001   0.000006  -0.000003   0.000000  -0.000000  -0.000000
    23  C    0.000001  -0.000012  -0.000004  -0.000000   0.000001   0.000000
    24  H    0.000001   0.000004   0.000012  -0.000000   0.000000   0.000000
    25  H    0.000001  -0.000005  -0.000001   0.000000   0.000000  -0.000000
    26  H   -0.000000   0.000000  -0.000000   0.000000  -0.000000   0.000000
    27  O   -0.000000  -0.000143   0.013008   0.006335  -0.125996  -0.098465
    28  C    0.000002   0.002083  -0.008992  -0.001417   0.020293   0.009420
    29  H    0.000001   0.000437  -0.001246  -0.000088   0.020727  -0.002500
    30  H    0.000001  -0.000041  -0.001007   0.000152   0.017026  -0.001241
    31  H   -0.000000  -0.000070   0.000226   0.000205  -0.001762  -0.000098
    32  C    0.150609  -0.095139  -0.017762   0.037453  -0.004005  -0.001199
    33  C   -0.028528   0.034866   0.019318  -0.064337   0.003590  -0.007907
    34  C   -0.009976  -0.013040  -0.013439   0.019104   0.000082   0.001930
    35  C    0.029284  -0.005102   0.002485  -0.009156   0.000079  -0.000348
    36  C    0.015587  -0.001333  -0.000023   0.002374  -0.000122  -0.000092
    37  C    0.003425   0.001495  -0.000051  -0.001497   0.000055  -0.000129
    38  H   -0.009979   0.001710  -0.003022   0.005231   0.001786  -0.002607
    39  H   -0.008325  -0.002234  -0.000401   0.000464   0.000038   0.000018
    40  H   -0.000682  -0.000056  -0.000051   0.000082  -0.000004   0.000047
    41  H   -0.000551   0.000031   0.000003  -0.000028   0.000000  -0.000002
    42  O    0.000000   0.000005   0.000000  -0.000001  -0.000000  -0.000000
    43  C    0.000001  -0.000011  -0.000000  -0.000006   0.000000   0.000001
    44  H    0.000001   0.000004  -0.000000   0.000010  -0.000000   0.000000
    45  H    0.000001  -0.000006   0.000000  -0.000000   0.000000   0.000000
    46  H   -0.000000   0.000000   0.000000  -0.000000   0.000000  -0.000000
               7          8          9         10         11         12
     1  N    0.003003  -0.010627  -0.008492  -0.000706  -0.000580   0.143623
     2  C   -0.165960  -0.030355  -0.061085   0.008129   0.022876  -0.091228
     3  C    0.082912   0.394172   0.019036   0.025186  -0.003940   0.032681
     4  C    0.057521   0.011910   0.437287   0.007458  -0.064124  -0.016860
     5  C    0.088391  -0.047480  -0.004929   0.360312   0.021418  -0.006803
     6  C    0.337800   0.001227  -0.078310  -0.006728   0.444616  -0.002159
     7  C    5.301335   0.009653   0.023584  -0.067641  -0.101225   0.001733
     8  H    0.009653   0.539872  -0.000303  -0.004494   0.000031   0.003998
     9  H    0.023584  -0.000303   0.549928   0.000025  -0.011021  -0.002010
    10  H   -0.067641  -0.004494   0.000025   0.536944  -0.000307  -0.000083
    11  H   -0.101225   0.000031  -0.011021  -0.000307   0.582793   0.000025
    12  C    0.001733   0.003998  -0.002010  -0.000083   0.000025   5.560344
    13  C   -0.001404   0.004499   0.000446   0.000092  -0.000033   0.365778
    14  C   -0.000110  -0.002943  -0.000469  -0.000050   0.000003   0.277998
    15  C   -0.000099  -0.003207   0.000018   0.000039  -0.000003   0.051852
    16  C    0.000047   0.001760   0.000037  -0.000001   0.000000   0.065049
    17  C   -0.000022  -0.000015  -0.000012  -0.000002   0.000000  -0.164851
    18  H    0.000014   0.000850  -0.000034  -0.000024   0.000012  -0.032604
    19  H   -0.000012  -0.000061  -0.000021   0.000000   0.000000  -0.060357
    20  H   -0.000002  -0.000024   0.000000   0.000000   0.000000   0.008450
    21  H    0.000000   0.000017   0.000000   0.000000  -0.000000   0.022363
    22  O    0.000000  -0.000000   0.000000  -0.000000  -0.000000  -0.000211
    23  C   -0.000000  -0.000010  -0.000000  -0.000000  -0.000000   0.002090
    24  H   -0.000000   0.000001   0.000000   0.000000   0.000000   0.000455
    25  H    0.000000  -0.000000  -0.000000  -0.000000  -0.000000  -0.000055
    26  H   -0.000000  -0.000000  -0.000000   0.000000   0.000000  -0.000069
    27  O    0.449603  -0.000106  -0.000116  -0.008737   0.003556   0.000005
    28  C   -0.123500  -0.000270   0.000043   0.016510   0.000125  -0.000012
    29  H   -0.024415  -0.000060  -0.000001   0.001480   0.000030   0.000005
    30  H   -0.021777   0.000001  -0.000001   0.000365   0.000141  -0.000006
    31  H    0.011796   0.000003   0.000000   0.000012  -0.000170   0.000000
    32  C    0.002450  -0.001299   0.002518   0.000020  -0.000227  -0.102308
    33  C   -0.001649   0.000266   0.003100  -0.000047   0.000057  -0.013248
    34  C   -0.000015  -0.000436  -0.002225   0.000003  -0.000025   0.039888
    35  C   -0.000186  -0.000020  -0.003009  -0.000003   0.000027  -0.003323
    36  C    0.000036   0.000035   0.001589   0.000000  -0.000002  -0.000144
    37  C   -0.000013  -0.000011   0.000048   0.000000  -0.000002   0.002342
    38  H    0.000543   0.000018   0.001027   0.000009  -0.000051  -0.001525
    39  H   -0.000007  -0.000018  -0.000051  -0.000000  -0.000000   0.000870
    40  H   -0.000004  -0.000000  -0.000024   0.000000   0.000000   0.000025
    41  H    0.000000   0.000000   0.000010  -0.000000  -0.000000  -0.000220
    42  O    0.000000   0.000000  -0.000001  -0.000000  -0.000000  -0.000005
    43  C   -0.000000  -0.000000  -0.000009  -0.000000   0.000000   0.000000
    44  H   -0.000000   0.000000   0.000001   0.000000  -0.000000  -0.000002
    45  H    0.000000  -0.000000  -0.000000  -0.000000   0.000000   0.000004
    46  H   -0.000000  -0.000000  -0.000000   0.000000   0.000000  -0.000000
              13         14         15         16         17         18
     1  N   -0.022303  -0.016752   0.029448   0.018438   0.002974  -0.009366
     2  C    0.033501  -0.019247  -0.005474  -0.001644   0.001403   0.003319
     3  C   -0.062874   0.019800  -0.007718   0.002395  -0.001363   0.004503
     4  C    0.019368  -0.014055   0.002829   0.000136  -0.000124  -0.003000
     5  C   -0.008072   0.002864   0.000007  -0.000075  -0.000102  -0.003209
     6  C    0.002409   0.000143  -0.000091  -0.000106   0.000048   0.001604
     7  C   -0.001404  -0.000110  -0.000099   0.000047  -0.000022   0.000014
     8  H    0.004499  -0.002943  -0.003207   0.001760  -0.000015   0.000850
     9  H    0.000446  -0.000469   0.000018   0.000037  -0.000012  -0.000034
    10  H    0.000092  -0.000050   0.000039  -0.000001  -0.000002  -0.000024
    11  H   -0.000033   0.000003  -0.000003   0.000000   0.000000   0.000012
    12  C    0.365778   0.277998   0.051852   0.065049  -0.164851  -0.032604
    13  C    5.478864  -0.169670  -0.026668  -0.020116   0.084401   0.394934
    14  C   -0.169670   5.447318  -0.049591   0.156649   0.052201   0.011807
    15  C   -0.026668  -0.049591   6.102992  -0.248393   0.087874  -0.046780
    16  C   -0.020116   0.156649  -0.248393   5.630622   0.345808   0.001178
    17  C    0.084401   0.052201   0.087874   0.345808   5.296333   0.009960
    18  H    0.394934   0.011807  -0.046780   0.001178   0.009960   0.540423
    19  H    0.018954   0.434497  -0.004718  -0.075817   0.023021  -0.000300
    20  H    0.023574   0.007365   0.361490  -0.006664  -0.067526  -0.004707
    21  H   -0.003839  -0.063168   0.021202   0.443652  -0.100156   0.000030
    22  O    0.013117   0.006548  -0.126056  -0.098683   0.449665  -0.000105
    23  C   -0.008936  -0.001422   0.020388   0.009384  -0.123645  -0.000271
    24  H   -0.001268  -0.000111   0.020685  -0.002455  -0.024412  -0.000065
    25  H   -0.001009   0.000174   0.016999  -0.001307  -0.021737   0.000005
    26  H    0.000225   0.000206  -0.001770  -0.000086   0.011811   0.000003
    27  O   -0.000002   0.000000  -0.000000  -0.000000   0.000000  -0.000000
    28  C   -0.000004  -0.000000   0.000001   0.000000  -0.000000  -0.000009
    29  H    0.000011  -0.000000   0.000000   0.000000  -0.000000   0.000001
    30  H   -0.000001   0.000000   0.000000  -0.000000   0.000000  -0.000000
    31  H   -0.000000   0.000000  -0.000000   0.000000  -0.000000  -0.000000
    32  C   -0.012720   0.040160  -0.003621  -0.000645   0.002543  -0.000755
    33  C   -0.013055   0.019696  -0.000073   0.001656   0.000055  -0.000389
    34  C    0.019005  -0.066103   0.003366  -0.009110  -0.001645   0.000202
    35  C   -0.000060   0.003278  -0.000135   0.000008   0.000038   0.000033
    36  C    0.001655  -0.008816  -0.000014  -0.000558  -0.000176  -0.000009
    37  C    0.000044  -0.001622   0.000039  -0.000183  -0.000003  -0.000006
    38  H   -0.000382   0.000341   0.000034  -0.000011  -0.000005  -0.000014
    39  H   -0.002422   0.004023   0.001673  -0.002470   0.000545   0.000023
    40  H    0.000003  -0.000041   0.000000  -0.000002   0.000000  -0.000000
    41  H   -0.000027   0.000039  -0.000004   0.000031  -0.000003  -0.000000
    42  O    0.000000   0.000009  -0.000000   0.000000  -0.000000   0.000000
    43  C   -0.000000  -0.000001  -0.000000  -0.000000   0.000000   0.000000
    44  H    0.000000   0.000000   0.000000  -0.000000   0.000000  -0.000000
    45  H   -0.000000  -0.000003  -0.000000  -0.000000   0.000000   0.000000
    46  H   -0.000000   0.000000  -0.000000   0.000000   0.000000  -0.000000
              19         20         21         22         23         24
     1  N   -0.009415  -0.000680  -0.000569  -0.000001   0.000001   0.000001
     2  C   -0.002802  -0.000088   0.000041   0.000006  -0.000012   0.000004
     3  C    0.000573   0.000090  -0.000038  -0.000003  -0.000004   0.000012
     4  C   -0.000457  -0.000048   0.000004   0.000000  -0.000000  -0.000000
     5  C    0.000014   0.000039  -0.000003  -0.000000   0.000001   0.000000
     6  C    0.000039  -0.000001  -0.000000  -0.000000   0.000000   0.000000
     7  C   -0.000012  -0.000002   0.000000   0.000000  -0.000000  -0.000000
     8  H   -0.000061  -0.000024   0.000017  -0.000000  -0.000010   0.000001
     9  H   -0.000021   0.000000   0.000000   0.000000  -0.000000   0.000000
    10  H    0.000000   0.000000   0.000000  -0.000000  -0.000000   0.000000
    11  H    0.000000   0.000000  -0.000000  -0.000000  -0.000000   0.000000
    12  C   -0.060357   0.008450   0.022363  -0.000211   0.002090   0.000455
    13  C    0.018954   0.023574  -0.003839   0.013117  -0.008936  -0.001268
    14  C    0.434497   0.007365  -0.063168   0.006548  -0.001422  -0.000111
    15  C   -0.004718   0.361490   0.021202  -0.126056   0.020388   0.020685
    16  C   -0.075817  -0.006664   0.443652  -0.098683   0.009384  -0.002455
    17  C    0.023021  -0.067526  -0.100156   0.449665  -0.123645  -0.024412
    18  H   -0.000300  -0.004707   0.000030  -0.000105  -0.000271  -0.000065
    19  H    0.547174   0.000025  -0.010879  -0.000115   0.000043  -0.000001
    20  H    0.000025   0.537007  -0.000311  -0.008726   0.016581   0.001457
    21  H   -0.010879  -0.000311   0.582126   0.003496   0.000135   0.000032
    22  O   -0.000115  -0.008726   0.003496   7.783828   0.230411  -0.043941
    23  C    0.000043   0.016581   0.000135   0.230411   4.904094   0.403714
    24  H   -0.000001   0.001457   0.000032  -0.043941   0.403714   0.605571
    25  H   -0.000001   0.000358   0.000138  -0.044325   0.405957  -0.064161
    26  H    0.000000   0.000014  -0.000169  -0.029810   0.387319  -0.021038
    27  O    0.000000  -0.000000  -0.000000  -0.000000   0.000000   0.000000
    28  C   -0.000000  -0.000000  -0.000000   0.000000   0.000000   0.000000
    29  H    0.000000   0.000000   0.000000   0.000000   0.000000  -0.000000
    30  H   -0.000000  -0.000000  -0.000000  -0.000000  -0.000000   0.000000
    31  H   -0.000000   0.000000   0.000000   0.000000  -0.000000  -0.000000
    32  C    0.000956   0.000012  -0.000216  -0.000007   0.000000  -0.000002
    33  C   -0.002198   0.000003  -0.000028   0.000000  -0.000000   0.000000
    34  C    0.003976  -0.000038   0.000040   0.000010  -0.000001   0.000000
    35  C    0.001758   0.000000  -0.000004  -0.000000  -0.000000   0.000000
    36  C   -0.002462  -0.000002   0.000030   0.000000  -0.000000  -0.000000
    37  C    0.000561   0.000000  -0.000003   0.000000   0.000000   0.000000
    38  H   -0.000004  -0.000000  -0.000000   0.000000   0.000000  -0.000000
    39  H    0.001226   0.000005  -0.000052  -0.000008   0.000003  -0.000000
    40  H    0.000007  -0.000000   0.000000  -0.000000   0.000000  -0.000000
    41  H   -0.000053   0.000000  -0.000000   0.000000  -0.000000   0.000000
    42  O   -0.000009  -0.000000   0.000000   0.000000  -0.000000  -0.000000
    43  C    0.000003   0.000000  -0.000000  -0.000000  -0.000000   0.000000
    44  H   -0.000000  -0.000000   0.000000  -0.000000   0.000000  -0.000000
    45  H    0.000004   0.000000  -0.000000   0.000000  -0.000000   0.000000
    46  H   -0.000000   0.000000  -0.000000  -0.000000  -0.000000   0.000000
              25         26         27         28         29         30
     1  N    0.000001  -0.000000  -0.000000   0.000002   0.000001   0.000001
     2  C   -0.000005   0.000000  -0.000143   0.002083   0.000437  -0.000041
     3  C   -0.000001  -0.000000   0.013008  -0.008992  -0.001246  -0.001007
     4  C    0.000000   0.000000   0.006335  -0.001417  -0.000088   0.000152
     5  C    0.000000  -0.000000  -0.125996   0.020293   0.020727   0.017026
     6  C   -0.000000   0.000000  -0.098465   0.009420  -0.002500  -0.001241
     7  C    0.000000  -0.000000   0.449603  -0.123500  -0.024415  -0.021777
     8  H   -0.000000  -0.000000  -0.000106  -0.000270  -0.000060   0.000001
     9  H   -0.000000  -0.000000  -0.000116   0.000043  -0.000001  -0.000001
    10  H   -0.000000   0.000000  -0.008737   0.016510   0.001480   0.000365
    11  H   -0.000000   0.000000   0.003556   0.000125   0.000030   0.000141
    12  C   -0.000055  -0.000069   0.000005  -0.000012   0.000005  -0.000006
    13  C   -0.001009   0.000225  -0.000002  -0.000004   0.000011  -0.000001
    14  C    0.000174   0.000206   0.000000  -0.000000  -0.000000   0.000000
    15  C    0.016999  -0.001770  -0.000000   0.000001   0.000000   0.000000
    16  C   -0.001307  -0.000086  -0.000000   0.000000   0.000000  -0.000000
    17  C   -0.021737   0.011811   0.000000  -0.000000  -0.000000   0.000000
    18  H    0.000005   0.000003  -0.000000  -0.000009   0.000001  -0.000000
    19  H   -0.000001   0.000000   0.000000  -0.000000   0.000000  -0.000000
    20  H    0.000358   0.000014  -0.000000  -0.000000   0.000000  -0.000000
    21  H    0.000138  -0.000169  -0.000000  -0.000000   0.000000  -0.000000
    22  O   -0.044325  -0.029810  -0.000000   0.000000   0.000000  -0.000000
    23  C    0.405957   0.387319   0.000000   0.000000   0.000000  -0.000000
    24  H   -0.064161  -0.021038   0.000000   0.000000  -0.000000   0.000000
    25  H    0.602497  -0.021022  -0.000000  -0.000000   0.000000  -0.000000
    26  H   -0.021022   0.529254   0.000000  -0.000000  -0.000000   0.000000
    27  O   -0.000000   0.000000   7.783858   0.230441  -0.043902  -0.044357
    28  C   -0.000000  -0.000000   0.230441   4.903952   0.404063   0.405658
    29  H    0.000000  -0.000000  -0.043902   0.404063   0.604521  -0.064084
    30  H   -0.000000   0.000000  -0.044357   0.405658  -0.064084   0.603176
    31  H    0.000000  -0.000000  -0.029778   0.387319  -0.020934  -0.021136
    32  C    0.000004  -0.000000  -0.000005  -0.000001  -0.000002   0.000004
    33  C    0.000000  -0.000000   0.000009  -0.000001   0.000000  -0.000003
    34  C   -0.000003   0.000000   0.000000  -0.000000   0.000000  -0.000000
    35  C   -0.000000  -0.000000   0.000000   0.000000  -0.000000  -0.000000
    36  C   -0.000000   0.000000  -0.000000  -0.000000   0.000000  -0.000000
    37  C    0.000000   0.000000   0.000000   0.000000   0.000000  -0.000000
    38  H    0.000000  -0.000000  -0.000008   0.000003  -0.000000   0.000004
    39  H    0.000004  -0.000000   0.000000   0.000000  -0.000000   0.000000
    40  H    0.000000   0.000000  -0.000000  -0.000000   0.000000  -0.000000
    41  H   -0.000000  -0.000000  -0.000000   0.000000  -0.000000   0.000000
    42  O    0.000000  -0.000000   0.000000  -0.000000  -0.000000   0.000000
    43  C   -0.000000  -0.000000   0.000000  -0.000000  -0.000000  -0.000000
    44  H    0.000000   0.000000   0.000000   0.000000   0.000000  -0.000000
    45  H   -0.000000  -0.000000  -0.000000  -0.000000  -0.000000   0.000000
    46  H   -0.000000  -0.000000   0.000000  -0.000000   0.000000  -0.000000
              31         32         33         34         35         36
     1  N   -0.000000   0.150609  -0.028528  -0.009976   0.029284   0.015587
     2  C   -0.000070  -0.095139   0.034866  -0.013040  -0.005102  -0.001333
     3  C    0.000226  -0.017762   0.019318  -0.013439   0.002485  -0.000023
     4  C    0.000205   0.037453  -0.064337   0.019104  -0.009156   0.002374
     5  C   -0.001762  -0.004005   0.003590   0.000082   0.000079  -0.000122
     6  C   -0.000098  -0.001199  -0.007907   0.001930  -0.000348  -0.000092
     7  C    0.011796   0.002450  -0.001649  -0.000015  -0.000186   0.000036
     8  H    0.000003  -0.001299   0.000266  -0.000436  -0.000020   0.000035
     9  H    0.000000   0.002518   0.003100  -0.002225  -0.003009   0.001589
    10  H    0.000012   0.000020  -0.000047   0.000003  -0.000003   0.000000
    11  H   -0.000170  -0.000227   0.000057  -0.000025   0.000027  -0.000002
    12  C    0.000000  -0.102308  -0.013248   0.039888  -0.003323  -0.000144
    13  C   -0.000000  -0.012720  -0.013055   0.019005  -0.000060   0.001655
    14  C    0.000000   0.040160   0.019696  -0.066103   0.003278  -0.008816
    15  C   -0.000000  -0.003621  -0.000073   0.003366  -0.000135  -0.000014
    16  C    0.000000  -0.000645   0.001656  -0.009110   0.000008  -0.000558
    17  C   -0.000000   0.002543   0.000055  -0.001645   0.000038  -0.000176
    18  H   -0.000000  -0.000755  -0.000389   0.000202   0.000033  -0.000009
    19  H   -0.000000   0.000956  -0.002198   0.003976   0.001758  -0.002462
    20  H    0.000000   0.000012   0.000003  -0.000038   0.000000  -0.000002
    21  H    0.000000  -0.000216  -0.000028   0.000040  -0.000004   0.000030
    22  O    0.000000  -0.000007   0.000000   0.000010  -0.000000   0.000000
    23  C   -0.000000   0.000000  -0.000000  -0.000001  -0.000000  -0.000000
    24  H   -0.000000  -0.000002   0.000000   0.000000   0.000000  -0.000000
    25  H    0.000000   0.000004   0.000000  -0.000003  -0.000000  -0.000000
    26  H   -0.000000  -0.000000  -0.000000   0.000000  -0.000000   0.000000
    27  O   -0.029778  -0.000005   0.000009   0.000000   0.000000  -0.000000
    28  C    0.387319  -0.000001  -0.000001  -0.000000   0.000000  -0.000000
    29  H   -0.020934  -0.000002   0.000000   0.000000  -0.000000   0.000000
    30  H   -0.021136   0.000004  -0.000003  -0.000000  -0.000000  -0.000000
    31  H    0.529237  -0.000000   0.000000  -0.000000   0.000000   0.000000
    32  C   -0.000000   5.547267   0.365903   0.267964   0.049834   0.068759
    33  C    0.000000   0.365903   5.494811  -0.175328  -0.023926  -0.017809
    34  C   -0.000000   0.267964  -0.175328   5.459563  -0.047817   0.157978
    35  C    0.000000   0.049834  -0.023926  -0.047817   6.095851  -0.250393
    36  C    0.000000   0.068759  -0.017809   0.157978  -0.250393   5.627461
    37  C    0.000000  -0.165861   0.080402   0.055457   0.092444   0.342972
    38  H   -0.000000  -0.032367   0.390921   0.011673  -0.042557   0.001364
    39  H   -0.000000  -0.062321   0.018883   0.434626  -0.004696  -0.075142
    40  H   -0.000000   0.008300   0.024665   0.007296   0.360599  -0.006622
    41  H    0.000000   0.022779  -0.003982  -0.064544   0.021422   0.444605
    42  O   -0.000000  -0.000234   0.013399   0.006662  -0.126474  -0.098786
    43  C    0.000000   0.002075  -0.009057  -0.001368   0.020519   0.009303
    44  H    0.000000   0.000440  -0.001236  -0.000107   0.020672  -0.002454
    45  H   -0.000000  -0.000038  -0.001011   0.000167   0.017179  -0.001297
    46  H    0.000000  -0.000070   0.000221   0.000209  -0.001793  -0.000086
              37         38         39         40         41         42
     1  N    0.003425  -0.009979  -0.008325  -0.000682  -0.000551   0.000000
     2  C    0.001495   0.001710  -0.002234  -0.000056   0.000031   0.000005
     3  C   -0.000051  -0.003022  -0.000401  -0.000051   0.000003   0.000000
     4  C   -0.001497   0.005231   0.000464   0.000082  -0.000028  -0.000001
     5  C    0.000055   0.001786   0.000038  -0.000004   0.000000  -0.000000
     6  C   -0.000129  -0.002607   0.000018   0.000047  -0.000002  -0.000000
     7  C   -0.000013   0.000543  -0.000007  -0.000004   0.000000   0.000000
     8  H   -0.000011   0.000018  -0.000018  -0.000000   0.000000   0.000000
     9  H    0.000048   0.001027  -0.000051  -0.000024   0.000010  -0.000001
    10  H    0.000000   0.000009  -0.000000   0.000000  -0.000000  -0.000000
    11  H   -0.000002  -0.000051  -0.000000   0.000000  -0.000000  -0.000000
    12  C    0.002342  -0.001525   0.000870   0.000025  -0.000220  -0.000005
    13  C    0.000044  -0.000382  -0.002422   0.000003  -0.000027   0.000000
    14  C   -0.001622   0.000341   0.004023  -0.000041   0.000039   0.000009
    15  C    0.000039   0.000034   0.001673   0.000000  -0.000004  -0.000000
    16  C   -0.000183  -0.000011  -0.002470  -0.000002   0.000031   0.000000
    17  C   -0.000003  -0.000005   0.000545   0.000000  -0.000003  -0.000000
    18  H   -0.000006  -0.000014   0.000023  -0.000000  -0.000000   0.000000
    19  H    0.000561  -0.000004   0.001226   0.000007  -0.000053  -0.000009
    20  H    0.000000  -0.000000   0.000005  -0.000000   0.000000  -0.000000
    21  H   -0.000003  -0.000000  -0.000052   0.000000  -0.000000   0.000000
    22  O    0.000000   0.000000  -0.000008  -0.000000   0.000000   0.000000
    23  C    0.000000   0.000000   0.000003   0.000000  -0.000000  -0.000000
    24  H    0.000000  -0.000000  -0.000000  -0.000000   0.000000  -0.000000
    25  H    0.000000   0.000000   0.000004   0.000000  -0.000000   0.000000
    26  H    0.000000  -0.000000  -0.000000   0.000000  -0.000000  -0.000000
    27  O    0.000000  -0.000008   0.000000  -0.000000  -0.000000   0.000000
    28  C    0.000000   0.000003   0.000000  -0.000000   0.000000  -0.000000
    29  H    0.000000  -0.000000  -0.000000   0.000000  -0.000000  -0.000000
    30  H   -0.000000   0.000004   0.000000  -0.000000   0.000000   0.000000
    31  H    0.000000  -0.000000  -0.000000  -0.000000   0.000000  -0.000000
    32  C   -0.165861  -0.032367  -0.062321   0.008300   0.022779  -0.000234
    33  C    0.080402   0.390921   0.018883   0.024665  -0.003982   0.013399
    34  C    0.055457   0.011673   0.434626   0.007296  -0.064544   0.006662
    35  C    0.092444  -0.042557  -0.004696   0.360599   0.021422  -0.126474
    36  C    0.342972   0.001364  -0.075142  -0.006622   0.444605  -0.098786
    37  C    5.296574   0.009513   0.023287  -0.067264  -0.100340   0.449603
    38  H    0.009513   0.536918  -0.000296  -0.004696   0.000029  -0.000105
    39  H    0.023287  -0.000296   0.547512   0.000023  -0.011101  -0.000116
    40  H   -0.067264  -0.004696   0.000023   0.536879  -0.000311  -0.008741
    41  H   -0.100340   0.000029  -0.011101  -0.000311   0.582420   0.003511
    42  O    0.449603  -0.000105  -0.000116  -0.008741   0.003511   7.784101
    43  C   -0.123743  -0.000264   0.000043   0.016540   0.000128   0.230508
    44  H   -0.024424  -0.000060  -0.000001   0.001500   0.000032  -0.043918
    45  H   -0.021852  -0.000001  -0.000001   0.000358   0.000139  -0.044376
    46  H    0.011847   0.000003   0.000000   0.000008  -0.000169  -0.029768
              43         44         45         46
     1  N    0.000001   0.000001   0.000001  -0.000000
     2  C   -0.000011   0.000004  -0.000006   0.000000
     3  C   -0.000000  -0.000000   0.000000   0.000000
     4  C   -0.000006   0.000010  -0.000000  -0.000000
     5  C    0.000000  -0.000000   0.000000   0.000000
     6  C    0.000001   0.000000   0.000000  -0.000000
     7  C   -0.000000  -0.000000   0.000000  -0.000000
     8  H   -0.000000   0.000000  -0.000000  -0.000000
     9  H   -0.000009   0.000001  -0.000000  -0.000000
    10  H   -0.000000   0.000000  -0.000000   0.000000
    11  H    0.000000  -0.000000   0.000000   0.000000
    12  C    0.000000  -0.000002   0.000004  -0.000000
    13  C   -0.000000   0.000000  -0.000000  -0.000000
    14  C   -0.000001   0.000000  -0.000003   0.000000
    15  C   -0.000000   0.000000  -0.000000  -0.000000
    16  C   -0.000000  -0.000000  -0.000000   0.000000
    17  C    0.000000   0.000000   0.000000   0.000000
    18  H    0.000000  -0.000000   0.000000  -0.000000
    19  H    0.000003  -0.000000   0.000004  -0.000000
    20  H    0.000000  -0.000000   0.000000   0.000000
    21  H   -0.000000   0.000000  -0.000000  -0.000000
    22  O   -0.000000  -0.000000   0.000000  -0.000000
    23  C   -0.000000   0.000000  -0.000000  -0.000000
    24  H    0.000000  -0.000000   0.000000   0.000000
    25  H   -0.000000   0.000000  -0.000000  -0.000000
    26  H   -0.000000   0.000000  -0.000000  -0.000000
    27  O    0.000000   0.000000  -0.000000   0.000000
    28  C   -0.000000   0.000000  -0.000000  -0.000000
    29  H   -0.000000   0.000000  -0.000000   0.000000
    30  H   -0.000000  -0.000000   0.000000  -0.000000
    31  H    0.000000   0.000000  -0.000000   0.000000
    32  C    0.002075   0.000440  -0.000038  -0.000070
    33  C   -0.009057  -0.001236  -0.001011   0.000221
    34  C   -0.001368  -0.000107   0.000167   0.000209
    35  C    0.020519   0.020672   0.017179  -0.001793
    36  C    0.009303  -0.002454  -0.001297  -0.000086
    37  C   -0.123743  -0.024424  -0.021852   0.011847
    38  H   -0.000264  -0.000060  -0.000001   0.000003
    39  H    0.000043  -0.000001  -0.000001   0.000000
    40  H    0.016540   0.001500   0.000358   0.000008
    41  H    0.000128   0.000032   0.000139  -0.000169
    42  O    0.230508  -0.043918  -0.044376  -0.029768
    43  C    4.903973   0.404267   0.405481   0.387199
    44  H    0.404267   0.604098  -0.064145  -0.020937
    45  H    0.405481  -0.064145   0.603697  -0.021154
    46  H    0.387199  -0.020937  -0.021154   0.529557
 Mulliken charges:
               1
     1  N    0.002830
     2  C   -0.087470
     3  C   -0.095292
     4  C   -0.073607
     5  C   -0.197319
     6  C   -0.208607
     7  C    0.137619
     8  H    0.133428
     9  H    0.133425
    10  H    0.132237
    11  H    0.106001
    12  C   -0.081492
    13  C   -0.106014
    14  C   -0.070947
    15  C   -0.196522
    16  C   -0.208524
    17  C    0.137120
    18  H    0.132748
    19  H    0.136852
    20  H    0.132348
    21  H    0.106131
    22  O   -0.135091
    23  C   -0.245816
    24  H    0.125524
    25  H    0.127488
    26  H    0.145131
    27  O   -0.135199
    28  C   -0.245707
    29  H    0.125957
    30  H    0.127125
    31  H    0.145149
    32  C   -0.069245
    33  C   -0.108011
    34  C   -0.083981
    35  C   -0.196508
    36  C   -0.207405
    37  C    0.136895
    38  H    0.136830
    39  H    0.136397
    40  H    0.132163
    41  H    0.106155
    42  O   -0.135265
    43  C   -0.245580
    44  H    0.126258
    45  H    0.126854
    46  H    0.144934
 Sum of Mulliken charges =  -0.00000
 Mulliken charges with hydrogens summed into heavy atoms:
               1
     1  N    0.002830
     2  C   -0.087470
     3  C    0.038135
     4  C    0.059818
     5  C   -0.065082
     6  C   -0.102606
     7  C    0.137619
    12  C   -0.081492
    13  C    0.026735
    14  C    0.065905
    15  C   -0.064174
    16  C   -0.102394
    17  C    0.137120
    22  O   -0.135091
    23  C    0.152326
    27  O   -0.135199
    28  C    0.152524
    32  C   -0.069245
    33  C    0.028819
    34  C    0.052417
    35  C   -0.064345
    36  C   -0.101249
    37  C    0.136895
    42  O   -0.135265
    43  C    0.152467
 Electronic spatial extent (au):  <R**2>=          11479.0977
 Charge=             -0.0000 electrons
 Dipole moment (field-independent basis, Debye):
    X=              1.1998    Y=              1.3292    Z=             -0.7859  Tot=              1.9555
 Quadrupole moment (field-independent basis, Debye-Ang):
   XX=           -119.0255   YY=           -142.5872   ZZ=           -146.0814
   XY=             -0.3960   XZ=              6.5655   YZ=             -7.2153
 Traceless Quadrupole moment (field-independent basis, Debye-Ang):
   XX=             16.8725   YY=             -6.6892   ZZ=            -10.1833
   XY=             -0.3960   XZ=              6.5655   YZ=             -7.2153
 Octapole moment (field-independent basis, Debye-Ang**2):
  XXX=            -16.8205  YYY=             58.7012  ZZZ=             -0.4915  XYY=             66.0852
  XXY=             -5.4798  XXZ=            -14.5377  XZZ=             -1.2371  YZZ=              1.0546
  YYZ=            -18.4649  XYZ=            -31.2621
 Hexadecapole moment (field-independent basis, Debye-Ang**3):
 XXXX=          -6479.9863 YYYY=          -6566.8235 ZZZZ=           -580.6479 XXXY=           -256.1772
 XXXZ=            280.0672 YYYX=            226.9858 YYYZ=           -186.3809 ZZZX=             -2.3966
 ZZZY=              5.6267 XXYY=          -2224.2298 XXZZ=          -1400.3507 YYZZ=          -1224.2525
 XXYZ=            -75.5729 YYXZ=            -33.4955 ZZXY=              2.4886
 N-N= 2.056677808601D+03 E-N=-6.659892385882D+03  KE= 1.088108073026D+03
 No NMR shielding tensors so no spin-rotation constants.
 Leave Link  601 at Sun Jan 17 00:32:58 2021, MaxMem=  4026531840 cpu:               6.6 elap:               1.2
 (Enter /opt/ohpc/pub/libs/gaussian/g16-A.03/sandybridge/g16/l9999.exe)

 Test job not archived.
 1\1\GINC-CASCADEB034\SP\RLC-wHPBE\TZVP\C21H21N1O3\RDU230\17-Jan-2021\0
 \\#P LC-wHPBE/TZVP iop(3/107=0156200000, 3/108=0156200000) scf=(conver
 =6,fermi,ndamp=35,noincfock,novaracc,vshift=500,xqc)\\H21 C21 N1 O3\\0
 ,1\N,0,0.054086,0.063852,0.077784\C,0,-0.275154,-1.311734,0.103506\C,0
 ,-1.260864,-1.827996,-0.72375\C,0,0.386135,-2.184815,0.970218\C,0,-1.5
 98384,-3.175646,-0.688444\C,0,0.074577,-3.526309,0.994438\C,0,-0.9252,
 -4.03443,0.167909\H,0,-1.784639,-1.164375,-1.405148\H,0,1.158634,-1.79
 7039,1.627427\H,0,-2.379444,-3.537517,-1.347421\H,0,0.588853,-4.20682,
 1.665799\C,0,-0.970368,1.03417,-0.019727\C,0,-2.134785,0.917606,0.7248
 71\C,0,-0.835797,2.133662,-0.869883\C,0,-3.151989,1.858174,0.623575\C,
 0,-1.829782,3.083912,-0.958163\C,0,-3.000537,2.952781,-0.215611\H,0,-2
 .255494,0.070396,1.39325\H,0,0.067507,2.240735,-1.462783\H,0,-4.048238
 ,1.726664,1.219136\H,0,-1.725247,3.941045,-1.615932\O,0,-3.928451,3.93
 6733,-0.380204\C,0,-5.121818,3.840279,0.365278\H,0,-5.681122,2.930406,
 0.115451\H,0,-4.925953,3.859223,1.44425\H,0,-5.719912,4.710924,0.09646
 6\O,0,-1.16822,-5.370782,0.273837\C,0,-2.170458,-5.919715,-0.552884\H,
 0,-3.15107,-5.47272,-0.348812\H,0,-1.930216,-5.79407,-1.615623\H,0,-2.
 208576,-6.98373,-0.319613\C,0,1.409258,0.466483,0.091838\C,0,2.372325,
 -0.232608,-0.620224\C,0,1.812213,1.581496,0.83064\C,0,3.707828,0.15075
 4,-0.59385\C,0,3.129962,1.982235,0.842322\C,0,4.092694,1.267169,0.1335
 83\H,0,2.078678,-1.100647,-1.202616\H,0,1.073246,2.139336,1.397822\H,0
 ,4.429565,-0.427688,-1.159301\H,0,3.443945,2.849999,1.413878\O,0,5.369
 584,1.734982,0.218075\C,0,6.368506,1.037347,-0.492266\H,0,6.460713,0.0
 00867,-0.145468\H,0,6.173119,1.041208,-1.571513\H,0,7.303574,1.562498,
 -0.297656\\Version=EM64L-G16RevA.03\State=1-A\HF=-1092.5530493\RMSD=6.
 758e-07\Dipole=-0.4720474,-0.52293,-0.309211\Quadrupole=12.5442912,-4.
 9732225,-7.5710687,-0.2944395,-4.881324,5.364432\PG=C01 [X(C21H21N1O3)
 ]\\@


 A ROPE OVER THE TOP OF A FENCE HAS THE SAME LENGTH ON EACH SIDE.
 WEIGHS 1/3 POUND PER FOOT.  ON ONE END HANGS A MONKEY HOLDING A
 BANANA, AND ON THE OTHER END A WEIGHT EQUAL TO THE WEIGHT
 OF THE MONKEY.  THE BANANA WEIGHS TWO OUNCES PER INCH.
 THE ROPE IS AS LONG AS THE AGE OF THE MONKEY, 
 AND THE WEIGHT OF THE MONKEY (IN OUNCES) IS AS MUCH
 AS THE AGE OF THE MONKEY'S MOTHER.  THE COMBINED AGES OF MONKEY
 AND MOTHER ARE THIRTY YEARS.  HALF THE WEIGHT OF THE MONKEY,
  PLUS THE WEIGHT OF THE BANANA, IS ONE FOURTH AS MUCH AS THE WEIGHT
 OF THE WEIGHT AND THE ROPE.
 THE MONKEY'S MOTHER IS HALF AS OLD AS THE MONKEY WILL BE
 WHEN IT IS 3 TIMES AS OLD AS ITS MOTHER WAS WHEN
 SHE WAS HALF AS OLD AS THE MONKEY WILL BE WHEN IT IS
 AS OLD AS ITS MOTHER WILL BE WHEN SHE IS 4 TIMES AS
 OLD AS THE MONKEY WAS WHEN IT WAS TWICE AS OLD AS 
 ITS MOTHER WAS WHEN SHE WAS ONE THIRD AS OLD AS THE
 MONKEY WAS WHEN IT WAS AS OLD AS ITS MOTHER WAS WHEN 
 SHE WAS 3 TIMES AS OLD AS THE MONKEY WAS WHEN IT WAS AS OLD AS ITS
 MOTHER WAS WHEN SHE WAS 3 TIMES AS OLD AS THE MONKEY 
 WAS WHEN IT WAS ONE FOURTH WAS OLD AS IT IS NOW.

 HOW LONG IS THE BANANA?
 Job cpu time:       0 days  1 hours 24 minutes 23.7 seconds.
 Elapsed time:       0 days  0 hours 10 minutes 37.6 seconds.
 File lengths (MBytes):  RWF=    168 Int=      0 D2E=      0 Chk=     28 Scr=      8
 Normal termination of Gaussian 16 at Sun Jan 17 00:32:58 2021.
