 Entering Gaussian System, Link 0=g16
 Input=mol_NN_ma_frag_tune_n3.gjf
 Output=mol_NN_ma_frag_tune_n3.log
 Initial command:
 /opt/ohpc/pub/libs/gaussian/g16-A.03/sandybridge/g16/l1.exe "/mnt/gpfs2_4m/scratch/rdu230/ondemand/projects/init_structures/wtuning/mol_NN_ma_frag/tuning_mol_NN_ma_frag_ocycle0/Gau-216469.inp" -scrdir="/mnt/gpfs2_4m/scratch/rdu230/ondemand/projects/init_structures/wtuning/mol_NN_ma_frag/tuning_mol_NN_ma_frag_ocycle0/"
 Entering Link 1 = /opt/ohpc/pub/libs/gaussian/g16-A.03/sandybridge/g16/l1.exe PID=    216470.
  
 Copyright (c) 1988,1990,1992,1993,1995,1998,2003,2009,2016,
            Gaussian, Inc.  All Rights Reserved.
  
 This is part of the Gaussian(R) 16 program.  It is based on
 the Gaussian(R) 09 system (copyright 2009, Gaussian, Inc.),
 the Gaussian(R) 03 system (copyright 2003, Gaussian, Inc.),
 the Gaussian(R) 98 system (copyright 1998, Gaussian, Inc.),
 the Gaussian(R) 94 system (copyright 1995, Gaussian, Inc.),
 the Gaussian 92(TM) system (copyright 1992, Gaussian, Inc.),
 the Gaussian 90(TM) system (copyright 1990, Gaussian, Inc.),
 the Gaussian 88(TM) system (copyright 1988, Gaussian, Inc.),
 the Gaussian 86(TM) system (copyright 1986, Carnegie Mellon
 University), and the Gaussian 82(TM) system (copyright 1983,
 Carnegie Mellon University). Gaussian is a federally registered
 trademark of Gaussian, Inc.
  
 This software contains proprietary and confidential information,
 including trade secrets, belonging to Gaussian, Inc.
  
 This software is provided under written license and may be
 used, copied, transmitted, or stored only in accord with that
 written license.
  
 The following legend is applicable only to US Government
 contracts under FAR:
  
                    RESTRICTED RIGHTS LEGEND
  
 Use, reproduction and disclosure by the US Government is
 subject to restrictions as set forth in subparagraphs (a)
 and (c) of the Commercial Computer Software - Restricted
 Rights clause in FAR 52.227-19.
  
 Gaussian, Inc.
 340 Quinnipiac St., Bldg. 40, Wallingford CT 06492
  
  
 ---------------------------------------------------------------
 Warning -- This program may not be used in any manner that
 competes with the business of Gaussian, Inc. or will provide
 assistance to any competitor of Gaussian, Inc.  The licensee
 of this program is prohibited from giving any competitor of
 Gaussian, Inc. access to this program.  By using this program,
 the user acknowledges that Gaussian, Inc. is engaged in the
 business of creating and licensing software in the field of
 computational chemistry and represents and warrants to the
 licensee that it is not a competitor of Gaussian, Inc. and that
 it will not use this program in any manner prohibited above.
 ---------------------------------------------------------------
  

 Cite this work as:
 Gaussian 16, Revision A.03,
 M. J. Frisch, G. W. Trucks, H. B. Schlegel, G. E. Scuseria, 
 M. A. Robb, J. R. Cheeseman, G. Scalmani, V. Barone, 
 G. A. Petersson, H. Nakatsuji, X. Li, M. Caricato, A. V. Marenich, 
 J. Bloino, B. G. Janesko, R. Gomperts, B. Mennucci, H. P. Hratchian, 
 J. V. Ortiz, A. F. Izmaylov, J. L. Sonnenberg, D. Williams-Young, 
 F. Ding, F. Lipparini, F. Egidi, J. Goings, B. Peng, A. Petrone, 
 T. Henderson, D. Ranasinghe, V. G. Zakrzewski, J. Gao, N. Rega, 
 G. Zheng, W. Liang, M. Hada, M. Ehara, K. Toyota, R. Fukuda, 
 J. Hasegawa, M. Ishida, T. Nakajima, Y. Honda, O. Kitao, H. Nakai, 
 T. Vreven, K. Throssell, J. A. Montgomery, Jr., J. E. Peralta, 
 F. Ogliaro, M. J. Bearpark, J. J. Heyd, E. N. Brothers, K. N. Kudin, 
 V. N. Staroverov, T. A. Keith, R. Kobayashi, J. Normand, 
 K. Raghavachari, A. P. Rendell, J. C. Burant, S. S. Iyengar, 
 J. Tomasi, M. Cossi, J. M. Millam, M. Klene, C. Adamo, R. Cammi, 
 J. W. Ochterski, R. L. Martin, K. Morokuma, O. Farkas, 
 J. B. Foresman, and D. J. Fox, Gaussian, Inc., Wallingford CT, 2016.
 
 ******************************************
 Gaussian 16:  EM64L-G16RevA.03 25-Dec-2016
                17-Jan-2021 
 ******************************************
 %mem=30GB
 %nproc=8
 Will use up to    8 processors via shared memory.
 ----------------------------------------------------------------------
 #P LC-wHPBE/TZVP iop(3/107=0199600000, 3/108=0199600000) scf=(conver=6
 ,fermi,ndamp=35,noincfock,novaracc,vshift=500,xqc)
 ----------------------------------------------------------------------
 1/38=1,172=1/1;
 2/12=2,17=6,18=5,40=1/2;
 3/5=19,7=101,11=2,25=1,30=1,74=-71,107=199600000,108=199600000/1,2,3;
 4//1;
 5/5=100002,6=6,8=3,10=500,13=1,18=-1,22=13,38=1,93=35/2,8;
 6/7=2,8=2,9=2,10=2,28=1/1;
 99/5=1,9=1/99;
 Leave Link    1 at Sun Jan 17 00:49:13 2021, MaxMem=  4026531840 cpu:               1.0 elap:               0.2
 (Enter /opt/ohpc/pub/libs/gaussian/g16-A.03/sandybridge/g16/l101.exe)
 -------------
 H21 C21 N1 O3
 -------------
 Symbolic Z-matrix:
 Charge =  0 Multiplicity = 1
 N                     0.05409   0.06385   0.07778 
 C                    -0.27515  -1.31173   0.10351 
 C                    -1.26086  -1.828    -0.72375 
 C                     0.38614  -2.18481   0.97022 
 C                    -1.59838  -3.17565  -0.68844 
 C                     0.07458  -3.52631   0.99444 
 C                    -0.9252   -4.03443   0.16791 
 H                    -1.78464  -1.16438  -1.40515 
 H                     1.15863  -1.79704   1.62743 
 H                    -2.37944  -3.53752  -1.34742 
 H                     0.58885  -4.20682   1.6658 
 C                    -0.97037   1.03417  -0.01973 
 C                    -2.13478   0.91761   0.72487 
 C                    -0.8358    2.13366  -0.86988 
 C                    -3.15199   1.85817   0.62358 
 C                    -1.82978   3.08391  -0.95816 
 C                    -3.00054   2.95278  -0.21561 
 H                    -2.25549   0.0704    1.39325 
 H                     0.06751   2.24073  -1.46278 
 H                    -4.04824   1.72666   1.21914 
 H                    -1.72525   3.94105  -1.61593 
 O                    -3.92845   3.93673  -0.3802 
 C                    -5.12182   3.84028   0.36528 
 H                    -5.68112   2.93041   0.11545 
 H                    -4.92595   3.85922   1.44425 
 H                    -5.71991   4.71092   0.09647 
 O                    -1.16822  -5.37078   0.27384 
 C                    -2.17046  -5.91972  -0.55288 
 H                    -3.15107  -5.47272  -0.34881 
 H                    -1.93022  -5.79407  -1.61562 
 H                    -2.20858  -6.98373  -0.31961 
 C                     1.40926   0.46648   0.09184 
 C                     2.37233  -0.23261  -0.62022 
 C                     1.81221   1.5815    0.83064 
 C                     3.70783   0.15075  -0.59385 
 C                     3.12996   1.98224   0.84232 
 C                     4.09269   1.26717   0.13358 
 H                     2.07868  -1.10065  -1.20262 
 H                     1.07325   2.13934   1.39782 
 H                     4.42957  -0.42769  -1.1593 
 H                     3.44395   2.85      1.41388 
 O                     5.36958   1.73498   0.21808 
 C                     6.36851   1.03735  -0.49227 
 H                     6.46071   0.00087  -0.14547 
 H                     6.17312   1.04121  -1.57151 
 H                     7.30357   1.5625   -0.29766 
 
 ITRead=  0  0  0  0  0  0  0  0  0  0  0  0  0  0  0  0  0  0  0  0
 ITRead=  0  0  0  0  0  0  0  0  0  0  0  0  0  0  0  0  0  0  0  0
 ITRead=  0  0  0  0  0  0
 MicOpt= -1 -1 -1 -1 -1 -1 -1 -1 -1 -1 -1 -1 -1 -1 -1 -1 -1 -1 -1 -1
 MicOpt= -1 -1 -1 -1 -1 -1 -1 -1 -1 -1 -1 -1 -1 -1 -1 -1 -1 -1 -1 -1
 MicOpt= -1 -1 -1 -1 -1 -1
 NAtoms=     46 NQM=       46 NQMF=       0 NMMI=      0 NMMIF=      0
                NMic=       0 NMicF=      0.
                    Isotopes and Nuclear Properties:
 (Nuclear quadrupole moments (NQMom) in fm**2, nuclear magnetic moments (NMagM)
  in nuclear magnetons)

  Atom         1           2           3           4           5           6           7           8           9          10
 IAtWgt=          14          12          12          12          12          12          12           1           1           1
 AtmWgt=  14.0030740  12.0000000  12.0000000  12.0000000  12.0000000  12.0000000  12.0000000   1.0078250   1.0078250   1.0078250
 NucSpn=           2           0           0           0           0           0           0           1           1           1
 AtZEff=  -0.0000000  -0.0000000  -0.0000000  -0.0000000  -0.0000000  -0.0000000  -0.0000000  -0.0000000  -0.0000000  -0.0000000
 NQMom=    2.0440000   0.0000000   0.0000000   0.0000000   0.0000000   0.0000000   0.0000000   0.0000000   0.0000000   0.0000000
 NMagM=    0.4037610   0.0000000   0.0000000   0.0000000   0.0000000   0.0000000   0.0000000   2.7928460   2.7928460   2.7928460
 AtZNuc=   7.0000000   6.0000000   6.0000000   6.0000000   6.0000000   6.0000000   6.0000000   1.0000000   1.0000000   1.0000000

  Atom        11          12          13          14          15          16          17          18          19          20
 IAtWgt=           1          12          12          12          12          12          12           1           1           1
 AtmWgt=   1.0078250  12.0000000  12.0000000  12.0000000  12.0000000  12.0000000  12.0000000   1.0078250   1.0078250   1.0078250
 NucSpn=           1           0           0           0           0           0           0           1           1           1
 AtZEff=  -0.0000000  -0.0000000  -0.0000000  -0.0000000  -0.0000000  -0.0000000  -0.0000000  -0.0000000  -0.0000000  -0.0000000
 NQMom=    0.0000000   0.0000000   0.0000000   0.0000000   0.0000000   0.0000000   0.0000000   0.0000000   0.0000000   0.0000000
 NMagM=    2.7928460   0.0000000   0.0000000   0.0000000   0.0000000   0.0000000   0.0000000   2.7928460   2.7928460   2.7928460
 AtZNuc=   1.0000000   6.0000000   6.0000000   6.0000000   6.0000000   6.0000000   6.0000000   1.0000000   1.0000000   1.0000000

  Atom        21          22          23          24          25          26          27          28          29          30
 IAtWgt=           1          16          12           1           1           1          16          12           1           1
 AtmWgt=   1.0078250  15.9949146  12.0000000   1.0078250   1.0078250   1.0078250  15.9949146  12.0000000   1.0078250   1.0078250
 NucSpn=           1           0           0           1           1           1           0           0           1           1
 AtZEff=  -0.0000000  -0.0000000  -0.0000000  -0.0000000  -0.0000000  -0.0000000  -0.0000000  -0.0000000  -0.0000000  -0.0000000
 NQMom=    0.0000000   0.0000000   0.0000000   0.0000000   0.0000000   0.0000000   0.0000000   0.0000000   0.0000000   0.0000000
 NMagM=    2.7928460   0.0000000   0.0000000   2.7928460   2.7928460   2.7928460   0.0000000   0.0000000   2.7928460   2.7928460
 AtZNuc=   1.0000000   8.0000000   6.0000000   1.0000000   1.0000000   1.0000000   8.0000000   6.0000000   1.0000000   1.0000000

  Atom        31          32          33          34          35          36          37          38          39          40
 IAtWgt=           1          12          12          12          12          12          12           1           1           1
 AtmWgt=   1.0078250  12.0000000  12.0000000  12.0000000  12.0000000  12.0000000  12.0000000   1.0078250   1.0078250   1.0078250
 NucSpn=           1           0           0           0           0           0           0           1           1           1
 AtZEff=  -0.0000000  -0.0000000  -0.0000000  -0.0000000  -0.0000000  -0.0000000  -0.0000000  -0.0000000  -0.0000000  -0.0000000
 NQMom=    0.0000000   0.0000000   0.0000000   0.0000000   0.0000000   0.0000000   0.0000000   0.0000000   0.0000000   0.0000000
 NMagM=    2.7928460   0.0000000   0.0000000   0.0000000   0.0000000   0.0000000   0.0000000   2.7928460   2.7928460   2.7928460
 AtZNuc=   1.0000000   6.0000000   6.0000000   6.0000000   6.0000000   6.0000000   6.0000000   1.0000000   1.0000000   1.0000000

  Atom        41          42          43          44          45          46
 IAtWgt=           1          16          12           1           1           1
 AtmWgt=   1.0078250  15.9949146  12.0000000   1.0078250   1.0078250   1.0078250
 NucSpn=           1           0           0           1           1           1
 AtZEff=  -0.0000000  -0.0000000  -0.0000000  -0.0000000  -0.0000000  -0.0000000
 NQMom=    0.0000000   0.0000000   0.0000000   0.0000000   0.0000000   0.0000000
 NMagM=    2.7928460   0.0000000   0.0000000   2.7928460   2.7928460   2.7928460
 AtZNuc=   1.0000000   8.0000000   6.0000000   1.0000000   1.0000000   1.0000000
 Leave Link  101 at Sun Jan 17 00:49:13 2021, MaxMem=  4026531840 cpu:               0.8 elap:               0.1
 (Enter /opt/ohpc/pub/libs/gaussian/g16-A.03/sandybridge/g16/l202.exe)
                          Input orientation:                          
 ---------------------------------------------------------------------
 Center     Atomic      Atomic             Coordinates (Angstroms)
 Number     Number       Type             X           Y           Z
 ---------------------------------------------------------------------
      1          7           0        0.054086    0.063852    0.077784
      2          6           0       -0.275154   -1.311734    0.103506
      3          6           0       -1.260864   -1.827996   -0.723750
      4          6           0        0.386135   -2.184815    0.970218
      5          6           0       -1.598384   -3.175646   -0.688444
      6          6           0        0.074577   -3.526309    0.994438
      7          6           0       -0.925200   -4.034430    0.167909
      8          1           0       -1.784639   -1.164375   -1.405148
      9          1           0        1.158634   -1.797039    1.627427
     10          1           0       -2.379444   -3.537517   -1.347421
     11          1           0        0.588853   -4.206820    1.665799
     12          6           0       -0.970368    1.034170   -0.019727
     13          6           0       -2.134785    0.917606    0.724871
     14          6           0       -0.835797    2.133662   -0.869883
     15          6           0       -3.151989    1.858174    0.623575
     16          6           0       -1.829782    3.083912   -0.958163
     17          6           0       -3.000537    2.952781   -0.215611
     18          1           0       -2.255494    0.070396    1.393250
     19          1           0        0.067507    2.240735   -1.462783
     20          1           0       -4.048238    1.726664    1.219136
     21          1           0       -1.725247    3.941045   -1.615932
     22          8           0       -3.928451    3.936733   -0.380204
     23          6           0       -5.121818    3.840279    0.365278
     24          1           0       -5.681122    2.930406    0.115451
     25          1           0       -4.925953    3.859223    1.444250
     26          1           0       -5.719912    4.710924    0.096466
     27          8           0       -1.168220   -5.370782    0.273837
     28          6           0       -2.170458   -5.919715   -0.552884
     29          1           0       -3.151070   -5.472720   -0.348812
     30          1           0       -1.930216   -5.794070   -1.615623
     31          1           0       -2.208576   -6.983730   -0.319613
     32          6           0        1.409258    0.466483    0.091838
     33          6           0        2.372325   -0.232608   -0.620224
     34          6           0        1.812213    1.581496    0.830640
     35          6           0        3.707828    0.150754   -0.593850
     36          6           0        3.129962    1.982235    0.842322
     37          6           0        4.092694    1.267169    0.133583
     38          1           0        2.078678   -1.100647   -1.202616
     39          1           0        1.073246    2.139336    1.397822
     40          1           0        4.429565   -0.427688   -1.159301
     41          1           0        3.443945    2.849999    1.413878
     42          8           0        5.369584    1.734982    0.218075
     43          6           0        6.368506    1.037347   -0.492266
     44          1           0        6.460713    0.000867   -0.145468
     45          1           0        6.173119    1.041208   -1.571513
     46          1           0        7.303574    1.562498   -0.297656
 ---------------------------------------------------------------------
                    Distance matrix (angstroms):
                    1          2          3          4          5
     1  N    0.000000
     2  C    1.414672   0.000000
     3  C    2.439393   1.386544   0.000000
     4  C    2.441966   1.396697   2.389446   0.000000
     5  C    3.716465   2.419151   1.389722   2.769697   0.000000
     6  C    3.705392   2.412553   2.760406   1.377411   2.398719
     7  C    4.214622   2.799961   2.403347   2.405073   1.387093
     8  H    2.662431   2.139228   1.085834   3.375785   2.143261
     9  H    2.661641   2.147930   3.373865   1.085840   3.855511
    10  H    4.574181   3.389297   2.136036   3.853528   1.084092
    11  H    4.587636   3.401292   3.845803   2.147890   3.374876
    12  C    1.414401   2.449852   2.961761   3.630696   4.308612
    13  C    2.436960   2.968885   3.224992   4.005028   4.363473
    14  C    2.444193   3.623887   3.987075   4.850601   5.366862
    15  C    3.714350   4.312188   4.356545   5.383702   5.429035
    16  C    3.707143   4.781811   4.950299   6.032282   6.269638
    17  C    4.214583   5.071059   5.112778   6.266628   6.304540
    18  H    2.657942   2.737785   3.012452   3.499019   3.911781
    19  H    2.666898   3.897527   4.343422   5.060288   5.719439
    20  H    4.571290   4.971183   4.917303   5.918217   5.802869
    21  H    4.589916   5.714099   5.856063   6.976551   7.177995
    22  O    5.574008   6.413030   6.361301   7.610036   7.490671
    23  C    6.413582   7.078271   6.944227   8.185674   7.921371
    24  H    6.411799   6.871709   6.548689   7.981712   7.389105
    25  H    6.408811   7.082819   7.104756   8.060607   8.069107
    26  H    7.411793   8.118981   7.956968   9.251944   8.933144
    27  O    5.573842   4.159621   3.681725   3.612665   2.435087
    28  C    6.414781   5.025586   4.195083   4.775509   2.806343
    29  H    6.411602   5.078316   4.122799   5.006194   2.793337
    30  H    6.412514   5.077989   4.119856   5.007872   2.797484
    31  H    7.412555   6.007386   5.257668   5.605870   3.874258
    32  C    1.413789   2.449375   3.613775   2.974511   4.787468
    33  C    2.439126   2.949143   3.969388   3.207112   4.942940
    34  C    2.441525   3.640962   4.846088   4.029675   6.047329
    35  C    3.715976   4.299921   5.349787   4.351418   6.263367
    36  C    3.704825   4.794882   6.020780   4.990917   7.162698
    37  C    4.214432   5.072449   6.243048   5.133686   7.266547
    38  H    2.663542   2.700192   3.451216   2.959954   4.253326
    39  H    2.662484   3.924706   5.068418   4.399233   6.303899
    40  H    4.573490   4.950818   5.876355   4.896087   6.641472
    41  H    4.586819   5.733131   6.970532   5.907316   8.133464
    42  O    5.573767   6.415502   7.585821   6.384770   8.572551
    43  C    6.414402   7.071870   8.152979   6.950536   9.014385
    44  H    6.410825   6.867082   7.956249   6.551523   8.679522
    45  H    6.412330   7.065568   8.013435   7.096253   8.885827
    46  H    7.412285   8.115372   9.220987   7.968740  10.091956
                    6          7          8          9         10
     6  C    0.000000
     7  C    1.393159   0.000000
     8  H    3.846223   3.383838   0.000000
     9  H    2.136874   3.387990   4.273129   0.000000
    10  H    3.392145   2.158234   2.447229   4.939330   0.000000
    11  H    1.085496   2.136761   4.931597   2.476523   4.282318
    12  C    4.787318   5.072273   2.723239   3.906598   4.964734
    13  C    4.970144   5.127959   2.999038   4.362398   4.919591
    14  C    6.028246   6.255427   3.473306   5.066036   5.896877
    15  C    6.288157   6.315774   3.888594   5.740189   5.796131
    16  C    7.150822   7.263408   4.271976   6.280095   6.655597
    17  C    7.273180   7.298988   4.454703   6.576951   6.617456
    18  H    4.304018   4.485615   3.094737   3.898515   4.532513
    19  H    6.268715   6.559140   3.876666   5.200344   6.276072
    20  H    6.681453   6.636916   4.513187   6.300373   6.089638
    21  H    8.112631   8.211599   5.110115   7.194564   7.511921
    22  O    8.579678   8.535771   5.627410   7.923709   7.694111
    23  C    9.036868   8.925335   6.270385   8.533256   8.055174
    24  H    8.694243   8.433889   5.853378   8.450862   7.407773
    25  H    8.930493   8.941187   6.574455   8.309576   8.306016
    26  H   10.111106   9.973745   7.229132   9.592279   9.015560
    27  O    2.337924   1.362394   4.570867   4.474159   2.730641
    28  C    3.628055   2.371605   4.846490   5.730015   2.519887
    29  H    3.999704   2.700033   4.641639   5.999142   2.310333
    30  H    3.996793   2.699514   4.636763   6.002885   2.316413
    31  H    4.346640   3.253168   5.934897   6.483119   3.600273
    32  C    4.305630   5.070868   3.886083   2.746703   5.697170
    33  C    4.328423   5.093984   4.331818   2.995401   5.833571
    34  C    5.397766   6.282616   5.047366   3.532214   6.965503
    35  C    5.407769   6.289753   5.705696   3.902097   7.157241
    36  C    6.300998   7.286936   6.253445   4.334217   8.100382
    37  C    6.313776   7.299821   6.543939   4.497738   8.195545
    38  H    3.837617   4.416866   3.869147   3.056237   5.082731
    39  H    5.767113   6.604685   5.190246   3.943990   7.189165
    40  H    5.762462   6.591175   6.262546   4.509985   7.487926
    41  H    7.223979   8.248468   7.169393   5.182973   9.073973
    42  O    7.504733   8.538907   7.888221   5.673936   9.502497
    43  C    7.915225   8.908249   8.494393   6.298381   9.908950
    44  H    7.383975   8.422205   8.422019   5.872620   9.597564
    45  H    8.039809   8.897967   8.259430   6.590442   9.703673
    46  H    8.934420   9.962684   9.552905   7.263107  10.994226
                   11         12         13         14         15
    11  H    0.000000
    12  C    5.721900   0.000000
    13  C    5.879055   1.387040   0.000000
    14  C    6.975745   1.396337   2.389436   0.000000
    15  C    7.201686   2.419151   1.389112   2.769667   0.000000
    16  C    8.117250   2.412612   2.760165   1.377960   2.398450
    17  C    8.226987   2.800183   2.403325   2.405229   1.387565
    18  H    5.143848   2.139372   1.085848   3.375556   2.142954
    19  H    7.185457   2.148347   3.374402   1.085796   3.855437
    20  H    7.543763   3.389338   2.135457   3.853495   1.084090
    21  H    9.083640   3.401123   3.845551   2.148102   3.374809
    22  O    9.534654   4.159936   3.681515   3.613220   2.435338
    23  C    9.952835   5.025636   4.194483   4.775787   2.806365
    24  H    9.625807   5.079881   4.123016   5.008279   2.793633
    25  H    9.773598   5.076495   4.118402   5.006211   2.797258
    26  H   11.035827   6.007511   5.257118   5.606308   3.874307
    27  O    2.525801   6.414728   6.378205   7.598374   7.504363
    28  C    3.933238   7.076792   6.955781   8.169375   7.927359
    29  H    4.432627   6.870471   6.559108   7.968002   7.395103
    30  H    4.430892   7.077645   7.111002   8.037588   8.066200
    31  H    4.413468   8.118486   7.970414   9.236566   8.941974
    32  C    4.999018   2.448946   3.628289   2.957138   4.798387
    33  C    4.919455   3.624765   4.842139   3.994197   6.036261
    34  C    5.974839   2.960650   4.003839   3.195094   4.976216
    35  C    5.815709   4.795368   6.038478   4.965143   7.173179
    36  C    6.740901   4.295889   5.372596   4.322247   6.286983
    37  C    6.677510   5.070739   6.265246   5.103702   7.285246
    38  H    4.482822   3.905554   5.053892   4.366421   6.280882
    39  H    6.370255   2.721616   3.498135   2.964281   4.304779
    40  H    6.083921   5.709197   6.960647   5.862449   8.116882
    41  H    7.616673   4.983836   5.943997   4.903559   6.716743
    42  O    7.762493   6.382999   7.565745   6.312634   8.532105
    43  C    8.097093   7.354072   8.590793   7.297019   9.620742
    44  H    7.447420   7.503632   8.687951   7.636272   9.820644
    45  H    8.319015   7.310095   8.620321   7.128159   9.614753
    46  H    9.067947   8.295450   9.515465   8.179427  10.500233
                   16         17         18         19         20
    16  C    0.000000
    17  C    1.392568   0.000000
    18  H    3.845992   3.384031   0.000000
    19  H    2.136655   3.387527   4.273597   0.000000
    20  H    3.391799   2.158597   2.446931   4.939263   0.000000
    21  H    1.085479   2.136335   4.931355   2.475576   4.282217
    22  O    2.337895   1.362452   4.570830   4.473932   2.730685
    23  C    3.627821   2.371691   4.846087   5.729698   2.519725
    24  H    4.001129   2.701044   4.641913   6.001100   2.309421
    25  H    3.994868   2.698889   4.635640   6.000416   2.317082
    26  H    4.346553   3.253223   5.934504   6.482847   3.600096
    27  O    8.569559   8.536899   5.660536   7.904307   7.717631
    28  C    9.019180   8.917621   6.298897   8.510543   8.070516
    29  H    8.679462   8.427898   5.879028   8.431937   7.422567
    30  H    8.902859   8.922613   6.599325   8.280842   8.311637
    31  H   10.094981   9.968564   7.259256   9.569647   9.034549
    32  C    4.294743   5.071735   3.909088   2.713874   5.713416
    33  C    5.363880   6.259238   5.055947   3.484181   6.960289
    34  C    4.326800   5.112497   4.375636   2.956076   5.875108
    35  C    6.277043   7.279875   6.286194   4.286607   8.119542
    36  C    5.390223   6.296364   5.741236   3.841739   7.192625
    37  C    6.290325   7.299120   6.581680   4.438282   8.225833
    38  H    5.731174   6.572890   5.186030   3.908622   7.169217
    39  H    3.856224   4.456520   3.919317   3.033950   5.141189
    40  H    7.179918   8.217332   7.173118   5.122512   9.064841
    41  H    5.787356   6.648093   6.341153   4.477356   7.578431
    42  O    7.418492   8.469359   7.892636   5.585077   9.470880
    43  C    8.462707   9.566838   8.880515   6.487884  10.578876
    44  H    8.882452   9.911305   8.851257   6.901117  10.736786
    45  H    8.282226   9.468292   8.987425   6.223278  10.617613
    46  H    9.282735  10.397804   9.821472   7.360584  11.453875
                   21         22         23         24         25
    21  H    0.000000
    22  O    2.526094   0.000000
    23  C    3.933452   1.410380   0.000000
    24  H    4.434865   2.080919   1.096861   0.000000
    25  H    4.428987   2.080781   1.096769   1.788488   0.000000
    26  H    4.413884   2.008960   1.089954   1.781042   1.781092
    27  O    9.517963   9.730184  10.024118   9.449926  10.034113
    28  C    9.927884  10.013487  10.237726   9.544426  10.354174
    29  H    9.605079   9.441563   9.545979   8.788016   9.666977
    30  H    9.737273  10.010381  10.340743   9.653103  10.560461
    31  H   11.012028  11.055232  11.230104  10.513703  11.316580
    32  C    4.981383   6.384089   7.356101   7.506328   7.312633
    33  C    5.933035   7.559153   8.586140   8.683541   8.618004
    34  C    4.905793   6.322065   7.307493   7.647295   7.139148
    35  C    6.702929   8.525963   9.617441   9.817431   9.615028
    36  C    5.783857   7.425350   8.471822   8.891714   8.293562
    37  C    6.637684   8.469316   9.569839   9.914341   9.474840
    38  H    6.329244   7.882713   8.872327   8.843143   8.981707
    39  H    4.490037   5.604372   6.506779   6.920387   6.241038
    40  H    7.561485   9.461057  10.572076  10.729761  10.615168
    41  H    6.090211   7.664982   8.686341   9.217333   8.430578
    42  O    7.652903   9.573876  10.701563  11.115650  10.583666
    43  C    8.671962  10.697959  11.858303  12.212556  11.801605
    44  H    9.203109  11.112195  12.212984  12.492975  12.127253
    45  H    8.413989  10.575680  11.796676  12.121796  11.841682
    46  H    9.429472  11.480514  12.649827  13.063084  12.564653
                   26         27         28         29         30
    26  H    0.000000
    27  O   11.063008   0.000000
    28  C   11.226342   1.410417   0.000000
    29  H   10.512080   2.080812   1.096836   0.000000
    30  H   11.298139   2.080834   1.096776   1.788452   0.000000
    31  H   12.217509   2.009011   1.089952   1.781095   1.781128
    32  C    8.297009   6.383587   7.349392   7.500993   7.298084
    33  C    9.509808   6.303621   7.279052   7.618420   7.101587
    34  C    8.189337   7.584667   8.604881   8.705587   8.624903
    35  C   10.495426   7.417283   8.450238   8.872879   8.256664
    36  C    9.290980   8.536065   9.616749   9.820719   9.597803
    37  C   10.399426   8.471085   9.557699   9.906105   9.444377
    38  H    9.812236   5.563840   6.457610   6.869808   6.186277
    39  H    7.379267   7.917663   8.903661   8.879131   9.002253
    40  H   11.445268   7.604161   8.607578   9.141951   8.333853
    41  H    9.443246   9.494893  10.597054  10.764244  10.619765
    42  O   11.482506   9.655976  10.772233  11.174698  10.645945
    43  C   12.647989   9.922362  11.014458  11.533598  10.807357
    44  H   13.061807   9.339756  10.474559  11.062905  10.302929
    45  H   12.557594   9.920393  10.913631  11.439701  10.601274
    46  H   13.404444  10.962129  12.075013  12.601448  11.879352
                   31         32         33         34         35
    31  H    0.000000
    32  C    8.292387   0.000000
    33  C    8.164109   1.386816   0.000000
    34  C    9.531680   1.396945   2.389499   0.000000
    35  C    9.272535   2.419355   1.389687   2.769395   0.000000
    36  C   10.499458   2.412789   2.760178   1.377385   2.398091
    37  C   10.391762   2.800655   2.403586   2.405262   1.386962
    38  H    7.332865   2.140007   1.085772   3.376244   2.142599
    39  H    9.846333   2.148706   3.374349   1.085796   3.855157
    40  H    9.367587   3.389269   2.135626   3.853209   1.084082
    41  H   11.474241   3.401307   3.845570   2.147514   3.374393
    42  O   11.564323   4.160434   3.682081   3.612988   2.435248
    43  C   11.744523   5.026053   4.195071   4.775561   2.806345
    44  H   11.134249   5.078416   4.122477   5.005969   2.793186
    45  H   11.671319   5.078525   4.119902   5.007969   2.797569
    46  H   12.787474   6.007988   5.257725   5.606109   3.874292
                   36         37         38         39         40
    36  C    0.000000
    37  C    1.393012   0.000000
    38  H    3.845924   3.383525   0.000000
    39  H    2.136198   3.387631   4.274419   0.000000
    40  H    3.391636   2.158141   2.445694   4.938964   0.000000
    41  H    1.085484   2.136675   4.931288   2.474977   4.282047
    42  O    2.338103   1.362511   4.570472   4.473681   2.730923
    43  C    3.627962   2.371461   4.845435   5.729449   2.520071
    44  H    3.999431   2.699797   4.640380   5.998299   2.310212
    45  H    3.996616   2.699366   4.635523   6.002628   2.316798
    46  H    4.346811   3.253143   5.933872   6.482621   3.600444
                   41         42         43         44         45
    41  H    0.000000
    42  O    2.526122   0.000000
    43  C    3.933465   1.410363   0.000000
    44  H    4.432832   2.080837   1.096842   0.000000
    45  H    4.430877   2.080773   1.096798   1.788470   0.000000
    46  H    4.414039   2.008991   1.089958   1.781086   1.781119
                   46
    46  H    0.000000
 Stoichiometry    C21H21NO3
 Framework group  C1[X(C21H21NO3)]
 Deg. of freedom   132
 Full point group                 C1      NOp   1
 Largest Abelian subgroup         C1      NOp   1
 Largest concise Abelian subgroup C1      NOp   1
                         Standard orientation:                         
 ---------------------------------------------------------------------
 Center     Atomic      Atomic             Coordinates (Angstroms)
 Number     Number       Type             X           Y           Z
 ---------------------------------------------------------------------
      1          7           0       -0.054086   -0.063852    0.077784
      2          6           0        0.275154    1.311734    0.103506
      3          6           0        1.260864    1.827996   -0.723750
      4          6           0       -0.386136    2.184815    0.970218
      5          6           0        1.598383    3.175646   -0.688444
      6          6           0       -0.074578    3.526309    0.994438
      7          6           0        0.925199    4.034430    0.167909
      8          1           0        1.784639    1.164376   -1.405148
      9          1           0       -1.158634    1.797039    1.627427
     10          1           0        2.379443    3.537518   -1.347421
     11          1           0       -0.588854    4.206820    1.665799
     12          6           0        0.970368   -1.034170   -0.019727
     13          6           0        2.134785   -0.917605    0.724871
     14          6           0        0.835798   -2.133662   -0.869883
     15          6           0        3.151989   -1.858173    0.623575
     16          6           0        1.829783   -3.083911   -0.958163
     17          6           0        3.000538   -2.952780   -0.215611
     18          1           0        2.255494   -0.070395    1.393250
     19          1           0       -0.067506   -2.240735   -1.462783
     20          1           0        4.048238   -1.726663    1.219136
     21          1           0        1.725248   -3.941045   -1.615932
     22          8           0        3.928452   -3.936732   -0.380204
     23          6           0        5.121819   -3.840278    0.365278
     24          1           0        5.681123   -2.930405    0.115451
     25          1           0        4.925954   -3.859222    1.444250
     26          1           0        5.719913   -4.710923    0.096466
     27          8           0        1.168219    5.370782    0.273837
     28          6           0        2.170457    5.919716   -0.552884
     29          1           0        3.151069    5.472721   -0.348812
     30          1           0        1.930215    5.794071   -1.615623
     31          1           0        2.208574    6.983731   -0.319613
     32          6           0       -1.409258   -0.466483    0.091838
     33          6           0       -2.372325    0.232607   -0.620224
     34          6           0       -1.812213   -1.581496    0.830640
     35          6           0       -3.707828   -0.150755   -0.593850
     36          6           0       -3.129962   -1.982236    0.842322
     37          6           0       -4.092694   -1.267170    0.133583
     38          1           0       -2.078678    1.100647   -1.202616
     39          1           0       -1.073245   -2.139336    1.397822
     40          1           0       -4.429565    0.427687   -1.159301
     41          1           0       -3.443944   -2.850000    1.413878
     42          8           0       -5.369584   -1.734983    0.218075
     43          6           0       -6.368506   -1.037348   -0.492266
     44          1           0       -6.460713   -0.000869   -0.145468
     45          1           0       -6.173119   -1.041209   -1.571513
     46          1           0       -7.303574   -1.562500   -0.297656
 ---------------------------------------------------------------------
 Rotational constants (GHZ):           0.1829468           0.1651743           0.0911050
 Leave Link  202 at Sun Jan 17 00:49:13 2021, MaxMem=  4026531840 cpu:               0.3 elap:               0.1
 (Enter /opt/ohpc/pub/libs/gaussian/g16-A.03/sandybridge/g16/l301.exe)
 Standard basis: TZVP (5D, 7F)
 Ernie: Thresh=  0.10000D-02 Tol=  0.10000D-05 Strict=F.
 There are   626 symmetry adapted cartesian basis functions of A   symmetry.
 There are   601 symmetry adapted basis functions of A   symmetry.
   601 basis functions,  1043 primitive gaussians,   626 cartesian basis functions
    89 alpha electrons       89 beta electrons
       nuclear repulsion energy      2056.6778086010 Hartrees.
 IExCor=33909 DFT=T Ex+Corr=LC-wHPBE ExCW=0 ScaHFX=  1.000000
 ScaDFX=  1.000000  1.000000  1.000000  1.000000 ScalE2=  1.000000  1.000000
 IRadAn=      5 IRanWt=     -1 IRanGd=            0 ICorTp=0 IEmpDi=  4
 HFx  wShort=  0.000000 wLong=  0.199600 cFull=  0.000000 cShort=  0.000000 cLong=  1.000000
 DFx  wShort=  0.000000 wLong=  0.199600 cFull=  0.000000 cShort=  1.000000 cLong=  0.000000
 NAtoms=   46 NActive=   46 NUniq=   46 SFac= 1.00D+00 NAtFMM=   60 NAOKFM=F Big=F
 Integral buffers will be    131072 words long.
 Raffenetti 2 integral format.
 Two-electron integral symmetry is turned on.
 Leave Link  301 at Sun Jan 17 00:49:14 2021, MaxMem=  4026531840 cpu:               0.4 elap:               0.1
 (Enter /opt/ohpc/pub/libs/gaussian/g16-A.03/sandybridge/g16/l302.exe)
 NPDir=0 NMtPBC=     1 NCelOv=     1 NCel=       1 NClECP=     1 NCelD=      1
         NCelK=      1 NCelE2=     1 NClLst=     1 CellRange=     0.0.
 One-electron integrals computed using PRISM.
 One-electron integral symmetry used in STVInt
 NBasis=   601 RedAO= T EigKep=  7.47D-06  NBF=   601
 NBsUse=   601 1.00D-06 EigRej= -1.00D+00 NBFU=   601
 Precomputing XC quadrature grid using
 IXCGrd= 4 IRadAn=           5 IRanWt=          -1 IRanGd=           0 AccXCQ= 0.00D+00.
 Generated NRdTot=       0 NPtTot=           0 NUsed=           0 NTot=          32
 NSgBfM=   597   597   597   597   597 MxSgAt=    46 MxSgA2=    46.
 Leave Link  302 at Sun Jan 17 00:49:16 2021, MaxMem=  4026531840 cpu:              14.4 elap:               2.1
 (Enter /opt/ohpc/pub/libs/gaussian/g16-A.03/sandybridge/g16/l303.exe)
 DipDrv:  MaxL=1.
 Leave Link  303 at Sun Jan 17 00:49:16 2021, MaxMem=  4026531840 cpu:               0.8 elap:               0.1
 (Enter /opt/ohpc/pub/libs/gaussian/g16-A.03/sandybridge/g16/l401.exe)
 ExpMin= 9.52D-02 ExpMax= 2.70D+04 ExpMxC= 9.22D+02 IAcc=3 IRadAn=         5 AccDes= 0.00D+00
 Harris functional with IExCor=33909 and IRadAn=       5 diagonalized for initial guess.
 HarFok:  IExCor=33909 AccDes= 0.00D+00 IRadAn=         5 IDoV= 1 UseB2=F ITyADJ=14
 ICtDFT=  3500011 ScaDFX=  1.000000  1.000000  1.000000  1.000000
 FoFCou: FMM=F IPFlag=           0 FMFlag=      100000 FMFlg1=           0
         NFxFlg=           0 DoJE=T BraDBF=F KetDBF=T FulRan=T
         wScrn=  0.000000 ICntrl=       500 IOpCl=  0 I1Cent=   200000004 NGrid=           0
         NMat0=    1 NMatS0=      1 NMatT0=    0 NMatD0=    1 NMtDS0=    0 NMtDT0=    0
 Petite list used in FoFCou.
 Harris En= -1073.70857735173    
 JPrj=0 DoOrth=F DoCkMO=F.
 Leave Link  401 at Sun Jan 17 00:49:23 2021, MaxMem=  4026531840 cpu:              53.7 elap:               6.8
 (Enter /opt/ohpc/pub/libs/gaussian/g16-A.03/sandybridge/g16/l502.exe)
 Integral symmetry usage will be decided dynamically.
 Closed shell SCF:
 Using DIIS extrapolation, IDIIS=    10.
 NGot=  4026531840 LenX=  4025736816 LenY=  4025344314
 Requested convergence on RMS density matrix=1.00D-06 within  32 cycles.
 Requested convergence on MAX density matrix=1.00D-04.
 Requested convergence on             energy=1.00D-04.
 Virtual orbitals will be shifted by   0.500 hartree.
 No special actions if energy rises.
 Dynamic level shift is on during FON iterations.

 Cycle   1  Pass 1  IDiag  1:
 FoFJK:  IHMeth= 1 ICntrl=       0 DoSepK=T KAlg= 0 I1Cent=           0 FoldK=F
 IRaf=         1 NMat=       1 IRICut=       1 DoRegI=T DoRafI=F ISym2E= 0 IDoP0=0 IntGTp=1.
 FoFCou: FMM=F IPFlag=           0 FMFlag=      100000 FMFlg1=           0
         NFxFlg=           0 DoJE=T BraDBF=F KetDBF=F FulRan=T
         wScrn=  0.000000 ICntrl=       500 IOpCl=  0 I1Cent=           0 NGrid=           0
         NMat0=    1 NMatS0=      1 NMatT0=    0 NMatD0=    1 NMtDS0=    0 NMtDT0=    0
 Symmetry not used in FoFCou.
 E= -1092.22930367591    
 DIIS: error= 2.97D-02 at cycle   1 NSaved=   1.
 NSaved= 1 IEnMin= 1 EnMin= -1092.22930367591     IErMin= 1 ErrMin= 2.97D-02
 ErrMax= 2.97D-02  0.00D+00 EMaxC= 1.00D+00 BMatC= 3.96D-01 BMatP= 3.96D-01
 IDIUse=1 WtCom= 1.00D+00 WtEn= 0.00D+00
 Coeff-Com:  0.100D+01
 Coeff:      0.100D+01
 Gap=     0.297 Goal=   None    Shift=    0.500
 T= 1489. Gap= 0.765 NK=0 IS=   90 IE=  601 IFin=   89
          NO(<0.9)=   0  NV(>0.1)=   0     89.00e < EF      0.00e >EF  Err=0.0D+00
 GapD=    0.297 DampG=1.000 DampE=0.500 DampFc=0.5000 IDamp=-1.
 Damping current iteration by 5.00D-01
 RMSDP=1.86D-03 MaxDP=6.32D-02              OVMax= 6.23D-02

 Cycle   2  Pass 1  IDiag  1:
 E= -1092.46411703358     Delta-E=       -0.234813357668 Rises=F Damp=T
 DIIS: error= 1.35D-02 at cycle   2 NSaved=   2.
 NSaved= 2 IEnMin= 2 EnMin= -1092.46411703358     IErMin= 2 ErrMin= 1.35D-02
 ErrMax= 1.35D-02  0.00D+00 EMaxC= 1.00D+00 BMatC= 6.96D-02 BMatP= 3.96D-01
 IDIUse=1 WtCom= 1.00D+00 WtEn= 0.00D+00
 Coeff-Com: -0.593D+00 0.159D+01
 Coeff:     -0.593D+00 0.159D+01
 Gap=     0.268 Goal=   None    Shift=    0.500
 T= 1369. Gap= 0.748 NK=0 IS=   90 IE=  601 IFin=   89
          NO(<0.9)=   0  NV(>0.1)=   0     89.00e < EF      0.00e >EF  Err=0.0D+00
 GapD=    0.268 DampG=1.000 DampE=0.500 DampFc=0.5000 IDamp=-1.
 Damping current iteration by 5.00D-01
 RMSDP=1.33D-03 MaxDP=6.56D-02 DE=-2.35D-01 OVMax= 1.42D-02

 Cycle   3  Pass 1  IDiag  1:
 E= -1092.54725776282     Delta-E=       -0.083140729238 Rises=F Damp=T
 DIIS: error= 6.22D-03 at cycle   3 NSaved=   3.
 NSaved= 3 IEnMin= 3 EnMin= -1092.54725776282     IErMin= 3 ErrMin= 6.22D-03
 ErrMax= 6.22D-03  0.00D+00 EMaxC= 1.00D+00 BMatC= 1.39D-02 BMatP= 6.96D-02
 IDIUse=1 WtCom= 1.00D+00 WtEn= 0.00D+00
 Coeff-Com:  0.587D-01-0.942D+00 0.188D+01
 Coeff:      0.587D-01-0.942D+00 0.188D+01
 Gap=     0.263 Goal=   None    Shift=    0.500
 T= 1136. Gap= 0.762 NK=0 IS=   90 IE=  601 IFin=   89
          NO(<0.9)=   0  NV(>0.1)=   0     89.00e < EF      0.00e >EF  Err=0.0D+00
 GapD=    0.263 DampG=1.000 DampE=1.000 DampFc=1.0000 IDamp=-1.
 RMSDP=8.84D-04 MaxDP=5.52D-02 DE=-8.31D-02 OVMax= 7.91D-03

 Cycle   4  Pass 1  IDiag  1:
 E= -1092.61674635152     Delta-E=       -0.069488588696 Rises=F Damp=F
 DIIS: error= 7.15D-04 at cycle   4 NSaved=   4.
 NSaved= 4 IEnMin= 4 EnMin= -1092.61674635152     IErMin= 4 ErrMin= 7.15D-04
 ErrMax= 7.15D-04  0.00D+00 EMaxC= 1.00D+00 BMatC= 4.68D-04 BMatP= 1.39D-02
 IDIUse=1 WtCom= 1.00D+00 WtEn= 0.00D+00
 Coeff-Com:  0.798D-01-0.244D+00 0.224D+00 0.940D+00
 Coeff:      0.798D-01-0.244D+00 0.224D+00 0.940D+00
 Gap=     0.259 Goal=   None    Shift=    0.500
 RMSDP=1.50D-04 MaxDP=8.92D-03 DE=-6.95D-02 OVMax= 3.23D-03

 Cycle   5  Pass 1  IDiag  1:
 E= -1092.61726567501     Delta-E=       -0.000519323490 Rises=F Damp=F
 DIIS: error= 3.91D-04 at cycle   5 NSaved=   5.
 NSaved= 5 IEnMin= 5 EnMin= -1092.61726567501     IErMin= 5 ErrMin= 3.91D-04
 ErrMax= 3.91D-04  0.00D+00 EMaxC= 1.00D+00 BMatC= 6.32D-05 BMatP= 4.68D-04
 IDIUse=1 WtCom= 1.00D+00 WtEn= 0.00D+00
 Coeff-Com:  0.134D-01 0.284D-01-0.115D+00-0.885D-01 0.116D+01
 Coeff:      0.134D-01 0.284D-01-0.115D+00-0.885D-01 0.116D+01
 Gap=     0.259 Goal=   None    Shift=    0.500
 RMSDP=9.56D-05 MaxDP=5.11D-03 DE=-5.19D-04 OVMax= 2.44D-03

 Cycle   6  Pass 1  IDiag  1:
 E= -1092.61739176057     Delta-E=       -0.000126085566 Rises=F Damp=F
 DIIS: error= 2.96D-04 at cycle   6 NSaved=   6.
 NSaved= 6 IEnMin= 6 EnMin= -1092.61739176057     IErMin= 6 ErrMin= 2.96D-04
 ErrMax= 2.96D-04  0.00D+00 EMaxC= 1.00D+00 BMatC= 1.45D-05 BMatP= 6.32D-05
 IDIUse=1 WtCom= 1.00D+00 WtEn= 0.00D+00
 Coeff-Com: -0.123D-01 0.629D-01-0.909D-01-0.214D+00 0.137D+00 0.112D+01
 Coeff:     -0.123D-01 0.629D-01-0.909D-01-0.214D+00 0.137D+00 0.112D+01
 Gap=     0.259 Goal=   None    Shift=    0.500
 RMSDP=5.53D-05 MaxDP=2.35D-03 DE=-1.26D-04 OVMax= 1.85D-03

 Cycle   7  Pass 1  IDiag  1:
 E= -1092.61743592425     Delta-E=       -0.000044163675 Rises=F Damp=F
 DIIS: error= 1.95D-04 at cycle   7 NSaved=   7.
 NSaved= 7 IEnMin= 7 EnMin= -1092.61743592425     IErMin= 7 ErrMin= 1.95D-04
 ErrMax= 1.95D-04  0.00D+00 EMaxC= 1.00D+00 BMatC= 4.50D-06 BMatP= 1.45D-05
 IDIUse=1 WtCom= 1.00D+00 WtEn= 0.00D+00
 Coeff-Com: -0.652D-02 0.741D-02 0.596D-02-0.299D-01-0.252D+00-0.217D+00
 Coeff-Com:  0.149D+01
 Coeff:     -0.652D-02 0.741D-02 0.596D-02-0.299D-01-0.252D+00-0.217D+00
 Coeff:      0.149D+01
 Gap=     0.259 Goal=   None    Shift=    0.500
 RMSDP=3.20D-05 MaxDP=1.45D-03 DE=-4.42D-05 OVMax= 1.38D-03

 Cycle   8  Pass 1  IDiag  1:
 E= -1092.61745383379     Delta-E=       -0.000017909548 Rises=F Damp=F
 DIIS: error= 1.42D-04 at cycle   8 NSaved=   8.
 NSaved= 8 IEnMin= 8 EnMin= -1092.61745383379     IErMin= 8 ErrMin= 1.42D-04
 ErrMax= 1.42D-04  0.00D+00 EMaxC= 1.00D+00 BMatC= 1.88D-06 BMatP= 4.50D-06
 IDIUse=1 WtCom= 1.00D+00 WtEn= 0.00D+00
 Coeff-Com:  0.297D-03-0.148D-01 0.284D-01 0.485D-01-0.182D+00-0.476D+00
 Coeff-Com:  0.478D+00 0.112D+01
 Coeff:      0.297D-03-0.148D-01 0.284D-01 0.485D-01-0.182D+00-0.476D+00
 Coeff:      0.478D+00 0.112D+01
 Gap=     0.259 Goal=   None    Shift=    0.500
 RMSDP=1.66D-05 MaxDP=7.82D-04 DE=-1.79D-05 OVMax= 1.01D-03

 Cycle   9  Pass 1  IDiag  1:
 E= -1092.61746146998     Delta-E=       -0.000007636183 Rises=F Damp=F
 DIIS: error= 9.84D-05 at cycle   9 NSaved=   9.
 NSaved= 9 IEnMin= 9 EnMin= -1092.61746146998     IErMin= 9 ErrMin= 9.84D-05
 ErrMax= 9.84D-05  0.00D+00 EMaxC= 1.00D+00 BMatC= 6.63D-07 BMatP= 1.88D-06
 IDIUse=1 WtCom= 1.00D+00 WtEn= 0.00D+00
 Coeff-Com:  0.236D-02-0.528D-02 0.239D-02 0.248D-01 0.545D-01-0.739D-01
 Coeff-Com: -0.529D+00-0.418D+00 0.194D+01
 Coeff:      0.236D-02-0.528D-02 0.239D-02 0.248D-01 0.545D-01-0.739D-01
 Coeff:     -0.529D+00-0.418D+00 0.194D+01
 Gap=     0.259 Goal=   None    Shift=    0.500
 RMSDP=9.23D-06 MaxDP=5.61D-04 DE=-7.64D-06 OVMax= 7.61D-04

 Cycle  10  Pass 1  IDiag  1:
 E= -1092.61746484579     Delta-E=       -0.000003375808 Rises=F Damp=F
 DIIS: error= 6.61D-05 at cycle  10 NSaved=  10.
 NSaved=10 IEnMin=10 EnMin= -1092.61746484579     IErMin=10 ErrMin= 6.61D-05
 ErrMax= 6.61D-05  0.00D+00 EMaxC= 1.00D+00 BMatC= 2.68D-07 BMatP= 6.63D-07
 IDIUse=1 WtCom= 1.00D+00 WtEn= 0.00D+00
 Coeff-Com:  0.793D-04 0.375D-02-0.761D-02 0.247D-02 0.475D-01 0.458D-01
 Coeff-Com: -0.199D+00-0.456D+00-0.152D+00 0.172D+01
 Coeff:      0.793D-04 0.375D-02-0.761D-02 0.247D-02 0.475D-01 0.458D-01
 Coeff:     -0.199D+00-0.456D+00-0.152D+00 0.172D+01
 Gap=     0.259 Goal=   None    Shift=    0.500
 RMSDP=5.23D-06 MaxDP=3.41D-04 DE=-3.38D-06 OVMax= 5.07D-04

 Cycle  11  Pass 1  IDiag  1:
 E= -1092.61746619643     Delta-E=       -0.000001350642 Rises=F Damp=F
 DIIS: error= 4.58D-05 at cycle  11 NSaved=  11.
 NSaved=11 IEnMin=11 EnMin= -1092.61746619643     IErMin=11 ErrMin= 4.58D-05
 ErrMax= 4.58D-05  0.00D+00 EMaxC= 1.00D+00 BMatC= 1.07D-07 BMatP= 2.68D-07
 IDIUse=1 WtCom= 1.00D+00 WtEn= 0.00D+00
 Coeff-Com: -0.732D-03 0.383D-02-0.495D-02-0.313D-02 0.459D-02 0.381D-01
 Coeff-Com:  0.779D-01-0.180D+00-0.637D+00 0.720D-01 0.163D+01
 Coeff:     -0.732D-03 0.383D-02-0.495D-02-0.313D-02 0.459D-02 0.381D-01
 Coeff:      0.779D-01-0.180D+00-0.637D+00 0.720D-01 0.163D+01
 Gap=     0.259 Goal=   None    Shift=    0.500
 RMSDP=3.17D-06 MaxDP=2.06D-04 DE=-1.35D-06 OVMax= 3.51D-04

 Cycle  12  Pass 1  IDiag  1:
 E= -1092.61746673371     Delta-E=       -0.000000537279 Rises=F Damp=F
 DIIS: error= 2.80D-05 at cycle  12 NSaved=  12.
 NSaved=12 IEnMin=12 EnMin= -1092.61746673371     IErMin=12 ErrMin= 2.80D-05
 ErrMax= 2.80D-05  0.00D+00 EMaxC= 1.00D+00 BMatC= 4.31D-08 BMatP= 1.07D-07
 IDIUse=1 WtCom= 1.00D+00 WtEn= 0.00D+00
 Coeff-Com: -0.244D-03-0.208D-03 0.133D-02-0.293D-03-0.190D-01-0.597D-02
 Coeff-Com:  0.121D+00 0.564D-01-0.133D+00-0.970D+00 0.233D+00 0.172D+01
 Coeff:     -0.244D-03-0.208D-03 0.133D-02-0.293D-03-0.190D-01-0.597D-02
 Coeff:      0.121D+00 0.564D-01-0.133D+00-0.970D+00 0.233D+00 0.172D+01
 Gap=     0.259 Goal=   None    Shift=    0.500
 RMSDP=1.87D-06 MaxDP=1.02D-04 DE=-5.37D-07 OVMax= 2.29D-04

 Cycle  13  Pass 1  IDiag  1:
 E= -1092.61746694696     Delta-E=       -0.000000213248 Rises=F Damp=F
 DIIS: error= 1.82D-05 at cycle  13 NSaved=  13.
 NSaved=13 IEnMin=13 EnMin= -1092.61746694696     IErMin=13 ErrMin= 1.82D-05
 ErrMax= 1.82D-05  0.00D+00 EMaxC= 1.00D+00 BMatC= 1.74D-08 BMatP= 4.31D-08
 IDIUse=1 WtCom= 1.00D+00 WtEn= 0.00D+00
 Coeff-Com:  0.841D-04-0.696D-03 0.113D-02 0.165D-02-0.757D-02-0.800D-02
 Coeff-Com:  0.230D-01 0.177D-01 0.160D+00-0.444D+00-0.112D+00-0.643D+00
 Coeff-Com:  0.201D+01
 Coeff:      0.841D-04-0.696D-03 0.113D-02 0.165D-02-0.757D-02-0.800D-02
 Coeff:      0.230D-01 0.177D-01 0.160D+00-0.444D+00-0.112D+00-0.643D+00
 Coeff:      0.201D+01
 Gap=     0.259 Goal=   None    Shift=    0.500
 RMSDP=1.05D-06 MaxDP=4.08D-05 DE=-2.13D-07 OVMax= 1.50D-04

 Cycle  14  Pass 1  IDiag  1:
 E= -1092.61746702851     Delta-E=       -0.000000081550 Rises=F Damp=F
 DIIS: error= 1.12D-05 at cycle  14 NSaved=  14.
 NSaved=14 IEnMin=14 EnMin= -1092.61746702851     IErMin=14 ErrMin= 1.12D-05
 ErrMax= 1.12D-05  0.00D+00 EMaxC= 1.00D+00 BMatC= 6.87D-09 BMatP= 1.74D-08
 IDIUse=1 WtCom= 1.00D+00 WtEn= 0.00D+00
 Coeff-Com:  0.115D-03-0.177D-03-0.464D-04 0.141D-02 0.164D-02-0.216D-02
 Coeff-Com: -0.242D-01-0.188D-01 0.155D+00 0.300D-01-0.113D+00-0.109D+01
 Coeff-Com:  0.489D+00 0.157D+01
 Coeff:      0.115D-03-0.177D-03-0.464D-04 0.141D-02 0.164D-02-0.216D-02
 Coeff:     -0.242D-01-0.188D-01 0.155D+00 0.300D-01-0.113D+00-0.109D+01
 Coeff:      0.489D+00 0.157D+01
 Gap=     0.259 Goal=   None    Shift=    0.500
 RMSDP=6.33D-07 MaxDP=2.01D-05 DE=-8.16D-08 OVMax= 9.42D-05

 SCF Done:  E(RLC-wHPBE) =  -1092.61746703     A.U. after   14 cycles
            NFock= 14  Conv=0.63D-06     -V/T= 2.0043
 KE= 1.087964588140D+03 PE=-6.659791386110D+03 EE= 2.422531522340D+03
 Leave Link  502 at Sun Jan 17 00:59:53 2021, MaxMem=  4026531840 cpu:            5026.9 elap:             630.1
 (Enter /opt/ohpc/pub/libs/gaussian/g16-A.03/sandybridge/g16/l508.exe)
 QCSCF skips out because SCF is already converged.
 Leave Link  508 at Sun Jan 17 00:59:53 2021, MaxMem=  4026531840 cpu:               0.1 elap:               0.0
 (Enter /opt/ohpc/pub/libs/gaussian/g16-A.03/sandybridge/g16/l601.exe)
 Copying SCF densities to generalized density rwf, IOpCl= 0 IROHF=0.

 **********************************************************************

            Population analysis using the SCF density.

 **********************************************************************

 Orbital symmetries:
       Occupied  (A) (A) (A) (A) (A) (A) (A) (A) (A) (A) (A) (A)
                 (A) (A) (A) (A) (A) (A) (A) (A) (A) (A) (A) (A)
                 (A) (A) (A) (A) (A) (A) (A) (A) (A) (A) (A) (A)
                 (A) (A) (A) (A) (A) (A) (A) (A) (A) (A) (A) (A)
                 (A) (A) (A) (A) (A) (A) (A) (A) (A) (A) (A) (A)
                 (A) (A) (A) (A) (A) (A) (A) (A) (A) (A) (A) (A)
                 (A) (A) (A) (A) (A) (A) (A) (A) (A) (A) (A) (A)
                 (A) (A) (A) (A) (A)
       Virtual   (A) (A) (A) (A) (A) (A) (A) (A) (A) (A) (A) (A)
                 (A) (A) (A) (A) (A) (A) (A) (A) (A) (A) (A) (A)
                 (A) (A) (A) (A) (A) (A) (A) (A) (A) (A) (A) (A)
                 (A) (A) (A) (A) (A) (A) (A) (A) (A) (A) (A) (A)
                 (A) (A) (A) (A) (A) (A) (A) (A) (A) (A) (A) (A)
                 (A) (A) (A) (A) (A) (A) (A) (A) (A) (A) (A) (A)
                 (A) (A) (A) (A) (A) (A) (A) (A) (A) (A) (A) (A)
                 (A) (A) (A) (A) (A) (A) (A) (A) (A) (A) (A) (A)
                 (A) (A) (A) (A) (A) (A) (A) (A) (A) (A) (A) (A)
                 (A) (A) (A) (A) (A) (A) (A) (A) (A) (A) (A) (A)
                 (A) (A) (A) (A) (A) (A) (A) (A) (A) (A) (A) (A)
                 (A) (A) (A) (A) (A) (A) (A) (A) (A) (A) (A) (A)
                 (A) (A) (A) (A) (A) (A) (A) (A) (A) (A) (A) (A)
                 (A) (A) (A) (A) (A) (A) (A) (A) (A) (A) (A) (A)
                 (A) (A) (A) (A) (A) (A) (A) (A) (A) (A) (A) (A)
                 (A) (A) (A) (A) (A) (A) (A) (A) (A) (A) (A) (A)
                 (A) (A) (A) (A) (A) (A) (A) (A) (A) (A) (A) (A)
                 (A) (A) (A) (A) (A) (A) (A) (A) (A) (A) (A) (A)
                 (A) (A) (A) (A) (A) (A) (A) (A) (A) (A) (A) (A)
                 (A) (A) (A) (A) (A) (A) (A) (A) (A) (A) (A) (A)
                 (A) (A) (A) (A) (A) (A) (A) (A) (A) (A) (A) (A)
                 (A) (A) (A) (A) (A) (A) (A) (A) (A) (A) (A) (A)
                 (A) (A) (A) (A) (A) (A) (A) (A) (A) (A) (A) (A)
                 (A) (A) (A) (A) (A) (A) (A) (A) (A) (A) (A) (A)
                 (A) (A) (A) (A) (A) (A) (A) (A) (A) (A) (A) (A)
                 (A) (A) (A) (A) (A) (A) (A) (A) (A) (A) (A) (A)
                 (A) (A) (A) (A) (A) (A) (A) (A) (A) (A) (A) (A)
                 (A) (A) (A) (A) (A) (A) (A) (A) (A) (A) (A) (A)
                 (A) (A) (A) (A) (A) (A) (A) (A) (A) (A) (A) (A)
                 (A) (A) (A) (A) (A) (A) (A) (A) (A) (A) (A) (A)
                 (A) (A) (A) (A) (A) (A) (A) (A) (A) (A) (A) (A)
                 (A) (A) (A) (A) (A) (A) (A) (A) (A) (A) (A) (A)
                 (A) (A) (A) (A) (A) (A) (A) (A) (A) (A) (A) (A)
                 (A) (A) (A) (A) (A) (A) (A) (A) (A) (A) (A) (A)
                 (A) (A) (A) (A) (A) (A) (A) (A) (A) (A) (A) (A)
                 (A) (A) (A) (A) (A) (A) (A) (A) (A) (A) (A) (A)
                 (A) (A) (A) (A) (A) (A) (A) (A) (A) (A) (A) (A)
                 (A) (A) (A) (A) (A) (A) (A) (A) (A) (A) (A) (A)
                 (A) (A) (A) (A) (A) (A) (A) (A) (A) (A) (A) (A)
                 (A) (A) (A) (A) (A) (A) (A) (A) (A) (A) (A) (A)
                 (A) (A) (A) (A) (A) (A) (A) (A) (A) (A) (A) (A)
                 (A) (A) (A) (A) (A) (A) (A) (A) (A) (A) (A) (A)
                 (A) (A) (A) (A) (A) (A) (A) (A)
 The electronic state is 1-A.
 Alpha  occ. eigenvalues --  -18.89228 -18.89160 -18.89076 -14.11875 -10.05030
 Alpha  occ. eigenvalues --  -10.04965 -10.04872 -10.04690 -10.04630 -10.04545
 Alpha  occ. eigenvalues --  -10.02818 -10.02788 -10.02755  -9.99598  -9.99554
 Alpha  occ. eigenvalues --   -9.99470  -9.99460  -9.99433  -9.99416  -9.99376
 Alpha  occ. eigenvalues --   -9.99335  -9.99312  -9.99205  -9.99141  -9.99079
 Alpha  occ. eigenvalues --   -1.09562  -1.09495  -1.09410  -0.99690  -0.89912
 Alpha  occ. eigenvalues --   -0.89843  -0.87953  -0.81133  -0.80960  -0.79708
 Alpha  occ. eigenvalues --   -0.79505  -0.79026  -0.78001  -0.75136  -0.74748
 Alpha  occ. eigenvalues --   -0.71954  -0.67718  -0.66965  -0.66267  -0.64991
 Alpha  occ. eigenvalues --   -0.64596  -0.62203  -0.60015  -0.59956  -0.59098
 Alpha  occ. eigenvalues --   -0.57284  -0.57068  -0.54911  -0.53565  -0.53340
 Alpha  occ. eigenvalues --   -0.52750  -0.52687  -0.52601  -0.50340  -0.50306
 Alpha  occ. eigenvalues --   -0.50154  -0.48337  -0.48209  -0.48041  -0.47862
 Alpha  occ. eigenvalues --   -0.47089  -0.46978  -0.46894  -0.44900  -0.44769
 Alpha  occ. eigenvalues --   -0.44574  -0.44350  -0.43963  -0.42230  -0.41431
 Alpha  occ. eigenvalues --   -0.41239  -0.39865  -0.38818  -0.38666  -0.38305
 Alpha  occ. eigenvalues --   -0.38109  -0.38018  -0.33689  -0.32893  -0.32037
 Alpha  occ. eigenvalues --   -0.31808  -0.29129  -0.28919  -0.22817
 Alpha virt. eigenvalues --    0.03116   0.04895   0.05012   0.05484   0.05670
 Alpha virt. eigenvalues --    0.09649   0.10253   0.10661   0.10706   0.12430
 Alpha virt. eigenvalues --    0.12514   0.12620   0.13773   0.14380   0.14576
 Alpha virt. eigenvalues --    0.14895   0.15358   0.15508   0.16167   0.16669
 Alpha virt. eigenvalues --    0.16922   0.17084   0.17680   0.17811   0.17862
 Alpha virt. eigenvalues --    0.18086   0.18566   0.19170   0.19562   0.19716
 Alpha virt. eigenvalues --    0.20310   0.20418   0.22269   0.22644   0.24345
 Alpha virt. eigenvalues --    0.24650   0.25249   0.25674   0.25827   0.26544
 Alpha virt. eigenvalues --    0.27159   0.27292   0.27410   0.27569   0.27639
 Alpha virt. eigenvalues --    0.27916   0.28071   0.28276   0.28592   0.29223
 Alpha virt. eigenvalues --    0.29447   0.30450   0.30715   0.30940   0.31045
 Alpha virt. eigenvalues --    0.32367   0.32678   0.32931   0.33708   0.34018
 Alpha virt. eigenvalues --    0.34580   0.34974   0.35117   0.35489   0.35879
 Alpha virt. eigenvalues --    0.36235   0.36549   0.37423   0.37544   0.38680
 Alpha virt. eigenvalues --    0.38937   0.39063   0.39309   0.40141   0.40708
 Alpha virt. eigenvalues --    0.41036   0.41493   0.41761   0.42033   0.42581
 Alpha virt. eigenvalues --    0.42973   0.43131   0.43778   0.44531   0.44776
 Alpha virt. eigenvalues --    0.45040   0.45067   0.45645   0.45886   0.46072
 Alpha virt. eigenvalues --    0.46279   0.46545   0.46901   0.47483   0.47801
 Alpha virt. eigenvalues --    0.47936   0.48183   0.48657   0.48966   0.49128
 Alpha virt. eigenvalues --    0.49466   0.49792   0.49884   0.50863   0.51370
 Alpha virt. eigenvalues --    0.51577   0.51662   0.51973   0.52092   0.52260
 Alpha virt. eigenvalues --    0.52663   0.52779   0.53601   0.53814   0.54341
 Alpha virt. eigenvalues --    0.54633   0.54932   0.55460   0.55667   0.56005
 Alpha virt. eigenvalues --    0.56048   0.56630   0.57396   0.58088   0.59447
 Alpha virt. eigenvalues --    0.60468   0.61199   0.61509   0.61632   0.61801
 Alpha virt. eigenvalues --    0.63181   0.64093   0.65849   0.66578   0.66883
 Alpha virt. eigenvalues --    0.67515   0.68467   0.68809   0.69232   0.69669
 Alpha virt. eigenvalues --    0.70064   0.70420   0.71342   0.71508   0.71738
 Alpha virt. eigenvalues --    0.73398   0.73590   0.73881   0.74510   0.75330
 Alpha virt. eigenvalues --    0.76941   0.77475   0.77542   0.77858   0.78550
 Alpha virt. eigenvalues --    0.78905   0.79118   0.79346   0.80986   0.81213
 Alpha virt. eigenvalues --    0.82054   0.84024   0.84516   0.85184   0.86058
 Alpha virt. eigenvalues --    0.87288   0.87849   0.90053   0.90151   0.91940
 Alpha virt. eigenvalues --    0.93444   0.93822   0.96462   0.97127   0.97204
 Alpha virt. eigenvalues --    0.99477   0.99807   1.01782   1.18868   1.21036
 Alpha virt. eigenvalues --    1.21288   1.22924   1.23228   1.23740   1.27494
 Alpha virt. eigenvalues --    1.27843   1.28212   1.28468   1.29154   1.29702
 Alpha virt. eigenvalues --    1.29968   1.30216   1.30622   1.30916   1.31364
 Alpha virt. eigenvalues --    1.32065   1.32414   1.32765   1.33265   1.34063
 Alpha virt. eigenvalues --    1.34187   1.34633   1.35127   1.35402   1.36284
 Alpha virt. eigenvalues --    1.36798   1.37630   1.38011   1.38365   1.38621
 Alpha virt. eigenvalues --    1.39234   1.39828   1.40709   1.41474   1.41769
 Alpha virt. eigenvalues --    1.43829   1.44088   1.44371   1.45465   1.45572
 Alpha virt. eigenvalues --    1.46014   1.46816   1.46970   1.47383   1.47578
 Alpha virt. eigenvalues --    1.47867   1.48487   1.48956   1.49323   1.49529
 Alpha virt. eigenvalues --    1.49821   1.50218   1.51725   1.51996   1.52348
 Alpha virt. eigenvalues --    1.52777   1.53384   1.53764   1.54286   1.55425
 Alpha virt. eigenvalues --    1.55496   1.55729   1.55852   1.56096   1.56328
 Alpha virt. eigenvalues --    1.56615   1.57012   1.57581   1.57898   1.58280
 Alpha virt. eigenvalues --    1.58696   1.59066   1.59905   1.60385   1.60747
 Alpha virt. eigenvalues --    1.61166   1.61627   1.61693   1.62428   1.63213
 Alpha virt. eigenvalues --    1.63648   1.64358   1.64968   1.65457   1.65900
 Alpha virt. eigenvalues --    1.67645   1.68903   1.69117   1.71238   1.71775
 Alpha virt. eigenvalues --    1.72062   1.72902   1.73149   1.73305   1.77235
 Alpha virt. eigenvalues --    1.78048   1.79214   1.79287   1.79392   1.79959
 Alpha virt. eigenvalues --    1.80338   1.81119   1.81635   1.82039   1.82407
 Alpha virt. eigenvalues --    1.82602   1.82664   1.82770   1.83174   1.83332
 Alpha virt. eigenvalues --    1.84443   1.84467   1.85382   1.85617   1.86847
 Alpha virt. eigenvalues --    1.87099   1.87535   1.87764   1.89307   1.89959
 Alpha virt. eigenvalues --    1.90680   1.91226   1.92175   1.92619   1.94085
 Alpha virt. eigenvalues --    1.94476   1.94726   1.94852   1.95671   1.96338
 Alpha virt. eigenvalues --    1.96652   1.96860   1.96970   1.97274   1.97477
 Alpha virt. eigenvalues --    1.97672   1.99195   2.04032   2.04733   2.05093
 Alpha virt. eigenvalues --    2.07096   2.07249   2.08046   2.08741   2.08966
 Alpha virt. eigenvalues --    2.09788   2.12918   2.13604   2.14146   2.15441
 Alpha virt. eigenvalues --    2.16656   2.17381   2.18769   2.19677   2.22821
 Alpha virt. eigenvalues --    2.22922   2.23029   2.23503   2.23597   2.24401
 Alpha virt. eigenvalues --    2.24964   2.26351   2.26841   2.29362   2.32555
 Alpha virt. eigenvalues --    2.32782   2.32962   2.33811   2.33853   2.33896
 Alpha virt. eigenvalues --    2.34586   2.34993   2.36303   2.36693   2.37839
 Alpha virt. eigenvalues --    2.37957   2.38131   2.38464   2.38631   2.39019
 Alpha virt. eigenvalues --    2.39418   2.40256   2.41191   2.41232   2.41955
 Alpha virt. eigenvalues --    2.42026   2.42113   2.42211   2.42472   2.42682
 Alpha virt. eigenvalues --    2.42909   2.47812   2.47859   2.50504   2.50859
 Alpha virt. eigenvalues --    2.51061   2.52023   2.52423   2.52945   2.53490
 Alpha virt. eigenvalues --    2.58064   2.58223   2.59119   2.59168   2.59253
 Alpha virt. eigenvalues --    2.62167   2.62257   2.63562   2.64296   2.64742
 Alpha virt. eigenvalues --    2.65367   2.66608   2.67298   2.67417   2.67621
 Alpha virt. eigenvalues --    2.69939   2.70228   2.73849   2.73963   2.74645
 Alpha virt. eigenvalues --    2.75035   2.75316   2.75504   2.77200   2.77362
 Alpha virt. eigenvalues --    2.78217   2.78549   2.80533   2.80757   2.81087
 Alpha virt. eigenvalues --    2.81357   2.83781   2.85721   2.87119   2.87755
 Alpha virt. eigenvalues --    2.91048   2.91667   2.92124   2.92425   2.97410
 Alpha virt. eigenvalues --    2.97467   2.98204   2.98774   2.99008   3.02404
 Alpha virt. eigenvalues --    3.02446   3.02692   3.03669   3.04526   3.07237
 Alpha virt. eigenvalues --    3.07693   3.07884   3.08303   3.08792   3.09498
 Alpha virt. eigenvalues --    3.09558   3.09642   3.09898   3.10458   3.11296
 Alpha virt. eigenvalues --    3.13548   3.13835   3.16354   3.18167   3.18679
 Alpha virt. eigenvalues --    3.18917   3.20115   3.20365   3.22831   3.24059
 Alpha virt. eigenvalues --    3.24654   3.28432   3.28892   3.29367   3.30497
 Alpha virt. eigenvalues --    3.30629   3.31087   3.31136   3.31223   3.31471
 Alpha virt. eigenvalues --    3.32444   3.34517   3.34706   3.35843   3.39382
 Alpha virt. eigenvalues --    3.39520   3.39734   3.40656   3.41513   3.44359
 Alpha virt. eigenvalues --    3.45403   3.46840   3.49644   3.58344   3.58708
 Alpha virt. eigenvalues --    3.59349   3.61350   3.61694   3.73808   3.87962
 Alpha virt. eigenvalues --    3.88319   3.98791   3.99199   3.99451   4.19711
 Alpha virt. eigenvalues --    4.20479   4.20535  21.27558  21.29233  21.29374
 Alpha virt. eigenvalues --   21.71777  21.75146  21.75583  21.80456  21.82630
 Alpha virt. eigenvalues --   21.82715  21.82844  21.88477  21.89447  21.94753
 Alpha virt. eigenvalues --   21.98839  21.99580  22.00489  22.04468  22.05938
 Alpha virt. eigenvalues --   22.11320  22.18939  22.19670  32.09000  43.36123
 Alpha virt. eigenvalues --   43.36228  43.36313
          Condensed to atoms (all electrons):
               1          2          3          4          5          6
     1  N    6.594586   0.134495  -0.023049  -0.007117   0.031460   0.017187
     2  C    0.134495   5.524814   0.387388   0.296034   0.037963   0.053824
     3  C   -0.023049   0.387388   5.446112  -0.167021  -0.006694  -0.021368
     4  C   -0.007117   0.296034  -0.167021   5.408967  -0.049258   0.178391
     5  C    0.031460   0.037963  -0.006694  -0.049258   6.064435  -0.241865
     6  C    0.017187   0.053824  -0.021368   0.178391  -0.241865   5.606118
     7  C    0.002791  -0.154473   0.074156   0.043489   0.119799   0.359135
     8  H   -0.009997  -0.026684   0.392938   0.011063  -0.044070   0.001076
     9  H   -0.007874  -0.055273   0.017467   0.433100  -0.004477  -0.072517
    10  H   -0.000669   0.007143   0.026913   0.007038   0.358683  -0.006436
    11  H   -0.000546   0.020933  -0.003725  -0.059911   0.019803   0.441365
    12  C    0.138397  -0.079283   0.033032  -0.017963  -0.006854  -0.002549
    13  C   -0.019069   0.034156  -0.066841   0.019991  -0.007678   0.002631
    14  C   -0.013579  -0.020205   0.020327  -0.013850   0.002765   0.000074
    15  C    0.028722  -0.005566  -0.007273   0.002714   0.000100  -0.000077
    16  C    0.018167  -0.002187   0.002688   0.000060  -0.000058  -0.000099
    17  C    0.002752   0.001558  -0.001522  -0.000082  -0.000106   0.000045
    18  H   -0.008803   0.002981   0.003998  -0.003059  -0.003236   0.001460
    19  H   -0.008741  -0.002626   0.000582  -0.000451   0.000013   0.000035
    20  H   -0.000642  -0.000075   0.000097  -0.000048   0.000036  -0.000001
    21  H   -0.000537   0.000035  -0.000034   0.000003  -0.000003  -0.000000
    22  O   -0.000001   0.000006  -0.000004   0.000000  -0.000000  -0.000000
    23  C    0.000001  -0.000012  -0.000004  -0.000000   0.000001   0.000000
    24  H    0.000002   0.000003   0.000012  -0.000000   0.000000   0.000000
    25  H    0.000000  -0.000005  -0.000001   0.000000   0.000000  -0.000000
    26  H   -0.000000   0.000000  -0.000000   0.000000  -0.000000   0.000000
    27  O   -0.000001  -0.000227   0.012695   0.006228  -0.124067  -0.097626
    28  C    0.000002   0.002093  -0.009452  -0.001318   0.020889   0.008389
    29  H    0.000001   0.000419  -0.001145  -0.000088   0.019255  -0.002387
    30  H    0.000001  -0.000049  -0.000896   0.000156   0.015671  -0.001254
    31  H   -0.000000  -0.000068   0.000242   0.000193  -0.001541  -0.000079
    32  C    0.145613  -0.083061  -0.019486   0.037304  -0.004188  -0.001086
    33  C   -0.024571   0.035369   0.020284  -0.068376   0.003739  -0.007655
    34  C   -0.008092  -0.013805  -0.013335   0.019432   0.000024   0.001857
    35  C    0.028646  -0.005365   0.002444  -0.008641   0.000077  -0.000262
    36  C    0.015363  -0.001829  -0.000093   0.002658  -0.000115  -0.000078
    37  C    0.003190   0.001648  -0.000011  -0.001663   0.000052  -0.000130
    38  H   -0.009349   0.001428  -0.003185   0.004655   0.001662  -0.002592
    39  H   -0.007715  -0.002065  -0.000397   0.000467   0.000034   0.000018
    40  H   -0.000646  -0.000043  -0.000051   0.000091  -0.000004   0.000044
    41  H   -0.000519   0.000026   0.000003  -0.000024   0.000000  -0.000002
    42  O   -0.000001   0.000005   0.000000  -0.000002  -0.000000  -0.000000
    43  C    0.000001  -0.000011  -0.000000  -0.000006   0.000000   0.000000
    44  H    0.000001   0.000003  -0.000000   0.000010  -0.000000   0.000000
    45  H    0.000001  -0.000005   0.000000  -0.000001   0.000000   0.000000
    46  H   -0.000000   0.000000   0.000000  -0.000000   0.000000  -0.000000
               7          8          9         10         11         12
     1  N    0.002791  -0.009997  -0.007874  -0.000669  -0.000546   0.138397
     2  C   -0.154473  -0.026684  -0.055273   0.007143   0.020933  -0.079283
     3  C    0.074156   0.392938   0.017467   0.026913  -0.003725   0.033032
     4  C    0.043489   0.011063   0.433100   0.007038  -0.059911  -0.017963
     5  C    0.119799  -0.044070  -0.004477   0.358683   0.019803  -0.006854
     6  C    0.359135   0.001076  -0.072517  -0.006436   0.441365  -0.002549
     7  C    5.250110   0.008809   0.021383  -0.061757  -0.093676   0.001838
     8  H    0.008809   0.530526  -0.000259  -0.003981   0.000023   0.003580
     9  H    0.021383  -0.000259   0.539637   0.000020  -0.010046  -0.001894
    10  H   -0.061757  -0.003981   0.000020   0.528376  -0.000264  -0.000068
    11  H   -0.093676   0.000023  -0.010046  -0.000264   0.572207   0.000020
    12  C    0.001838   0.003580  -0.001894  -0.000068   0.000020   5.518342
    13  C   -0.001540   0.004030   0.000463   0.000097  -0.000030   0.380652
    14  C   -0.000071  -0.003016  -0.000460  -0.000050   0.000003   0.298640
    15  C   -0.000102  -0.003247   0.000017   0.000036  -0.000002   0.040730
    16  C    0.000045   0.001597   0.000034  -0.000001   0.000000   0.051163
    17  C   -0.000021   0.000046  -0.000011  -0.000002   0.000000  -0.153550
    18  H    0.000065   0.000866  -0.000036  -0.000022   0.000011  -0.028843
    19  H   -0.000011  -0.000061  -0.000021  -0.000000   0.000000  -0.054624
    20  H   -0.000002  -0.000022   0.000000   0.000000   0.000000   0.007438
    21  H    0.000000   0.000016   0.000000   0.000000  -0.000000   0.020464
    22  O    0.000000   0.000001   0.000000  -0.000000  -0.000000  -0.000293
    23  C   -0.000000  -0.000010  -0.000000   0.000000  -0.000000   0.002103
    24  H   -0.000000   0.000000   0.000000   0.000000   0.000000   0.000433
    25  H    0.000000  -0.000000  -0.000000  -0.000000  -0.000000  -0.000059
    26  H   -0.000000  -0.000000  -0.000000   0.000000   0.000000  -0.000067
    27  O    0.448527  -0.000090  -0.000105  -0.008327   0.003419   0.000005
    28  C   -0.121815  -0.000257   0.000038   0.015162   0.000201  -0.000012
    29  H   -0.023562  -0.000060  -0.000001   0.001057   0.000026   0.000004
    30  H   -0.020991  -0.000001  -0.000001   0.000048   0.000125  -0.000005
    31  H    0.011363   0.000003   0.000000   0.000019  -0.000155   0.000000
    32  C    0.002282  -0.001213   0.002200   0.000021  -0.000205  -0.089849
    33  C   -0.001654   0.000282   0.002654  -0.000045   0.000056  -0.014774
    34  C    0.000000  -0.000430  -0.002303   0.000003  -0.000024   0.039817
    35  C   -0.000174  -0.000018  -0.003057  -0.000003   0.000024  -0.003586
    36  C    0.000035   0.000031   0.001449   0.000000  -0.000002  -0.000130
    37  C   -0.000013  -0.000010   0.000098  -0.000000  -0.000002   0.002197
    38  H    0.000546   0.000014   0.001033   0.000008  -0.000046  -0.001395
    39  H   -0.000006  -0.000017  -0.000053  -0.000000  -0.000000   0.000652
    40  H   -0.000003  -0.000000  -0.000021   0.000000   0.000000   0.000025
    41  H    0.000000   0.000000   0.000009  -0.000000  -0.000000  -0.000198
    42  O    0.000000   0.000000  -0.000000  -0.000000  -0.000000  -0.000005
    43  C   -0.000000  -0.000000  -0.000009  -0.000000   0.000000   0.000000
    44  H   -0.000000   0.000000   0.000001   0.000000  -0.000000  -0.000002
    45  H    0.000000  -0.000000  -0.000000  -0.000000   0.000000   0.000003
    46  H   -0.000000  -0.000000  -0.000000   0.000000   0.000000  -0.000000
              13         14         15         16         17         18
     1  N   -0.019069  -0.013579   0.028722   0.018167   0.002752  -0.008803
     2  C    0.034156  -0.020205  -0.005566  -0.002187   0.001558   0.002981
     3  C   -0.066841   0.020327  -0.007273   0.002688  -0.001522   0.003998
     4  C    0.019991  -0.013850   0.002714   0.000060  -0.000082  -0.003059
     5  C   -0.007678   0.002765   0.000100  -0.000058  -0.000106  -0.003236
     6  C    0.002631   0.000074  -0.000077  -0.000099   0.000045   0.001460
     7  C   -0.001540  -0.000071  -0.000102   0.000045  -0.000021   0.000065
     8  H    0.004030  -0.003016  -0.003247   0.001597   0.000046   0.000866
     9  H    0.000463  -0.000460   0.000017   0.000034  -0.000011  -0.000036
    10  H    0.000097  -0.000050   0.000036  -0.000001  -0.000002  -0.000022
    11  H   -0.000030   0.000003  -0.000002   0.000000   0.000000   0.000011
    12  C    0.380652   0.298640   0.040730   0.051163  -0.153550  -0.028843
    13  C    5.449823  -0.170301  -0.002129  -0.019328   0.075898   0.393755
    14  C   -0.170301   5.414247  -0.045456   0.181235   0.038607   0.010932
    15  C   -0.002129  -0.045456   6.056781  -0.245779   0.118878  -0.043445
    16  C   -0.019328   0.181235  -0.245779   5.598414   0.366570   0.001034
    17  C    0.075898   0.038607   0.118878   0.366570   5.245630   0.009104
    18  H    0.393755   0.010932  -0.043445   0.001034   0.009104   0.531080
    19  H    0.017379   0.430341  -0.004275  -0.070005   0.020839  -0.000256
    20  H    0.025340   0.006938   0.359839  -0.006360  -0.061639  -0.004182
    21  H   -0.003629  -0.058984   0.019604   0.440428  -0.092692   0.000023
    22  O    0.012802   0.006439  -0.124129  -0.097844   0.448594  -0.000088
    23  C   -0.009395  -0.001323   0.020994   0.008342  -0.121963  -0.000258
    24  H   -0.001164  -0.000109   0.019210  -0.002344  -0.023559  -0.000064
    25  H   -0.000901   0.000175   0.015647  -0.001317  -0.020949   0.000002
    26  H    0.000241   0.000194  -0.001548  -0.000068   0.011378   0.000003
    27  O   -0.000003   0.000000  -0.000000  -0.000000   0.000000   0.000001
    28  C   -0.000004  -0.000000   0.000001   0.000000  -0.000000  -0.000009
    29  H    0.000011  -0.000000   0.000000   0.000000  -0.000000   0.000000
    30  H   -0.000001   0.000000   0.000000  -0.000000   0.000000  -0.000000
    31  H   -0.000000   0.000000  -0.000000   0.000000  -0.000000  -0.000000
    32  C   -0.014254   0.039841  -0.003763  -0.000667   0.002387  -0.000687
    33  C   -0.013052   0.020363  -0.000122   0.001641   0.000068  -0.000385
    34  C    0.019763  -0.070065   0.003505  -0.008801  -0.001665   0.000214
    35  C   -0.000118   0.003481  -0.000128   0.000010   0.000037   0.000029
    36  C    0.001628  -0.008491  -0.000015  -0.000479  -0.000166  -0.000007
    37  C    0.000060  -0.001650   0.000038  -0.000173  -0.000004  -0.000006
    38  H   -0.000380   0.000345   0.000031  -0.000010  -0.000005  -0.000014
    39  H   -0.002576   0.003502   0.001558  -0.002471   0.000549   0.000018
    40  H    0.000003  -0.000039   0.000000  -0.000002   0.000000  -0.000000
    41  H   -0.000026   0.000042  -0.000004   0.000029  -0.000003  -0.000000
    42  O    0.000000   0.000009  -0.000000   0.000000  -0.000000   0.000000
    43  C   -0.000000  -0.000001  -0.000000  -0.000000   0.000000   0.000000
    44  H    0.000000   0.000000   0.000000  -0.000000   0.000000  -0.000000
    45  H   -0.000000  -0.000003  -0.000000  -0.000000   0.000000   0.000000
    46  H   -0.000000   0.000000  -0.000000   0.000000   0.000000  -0.000000
              19         20         21         22         23         24
     1  N   -0.008741  -0.000642  -0.000537  -0.000001   0.000001   0.000002
     2  C   -0.002626  -0.000075   0.000035   0.000006  -0.000012   0.000003
     3  C    0.000582   0.000097  -0.000034  -0.000004  -0.000004   0.000012
     4  C   -0.000451  -0.000048   0.000003   0.000000  -0.000000  -0.000000
     5  C    0.000013   0.000036  -0.000003  -0.000000   0.000001   0.000000
     6  C    0.000035  -0.000001  -0.000000  -0.000000   0.000000   0.000000
     7  C   -0.000011  -0.000002   0.000000   0.000000  -0.000000  -0.000000
     8  H   -0.000061  -0.000022   0.000016   0.000001  -0.000010   0.000000
     9  H   -0.000021   0.000000   0.000000   0.000000  -0.000000   0.000000
    10  H   -0.000000   0.000000   0.000000  -0.000000   0.000000   0.000000
    11  H    0.000000   0.000000  -0.000000  -0.000000  -0.000000   0.000000
    12  C   -0.054624   0.007438   0.020464  -0.000293   0.002103   0.000433
    13  C    0.017379   0.025340  -0.003629   0.012802  -0.009395  -0.001164
    14  C    0.430341   0.006938  -0.058984   0.006439  -0.001323  -0.000109
    15  C   -0.004275   0.359839   0.019604  -0.124129   0.020994   0.019210
    16  C   -0.070005  -0.006360   0.440428  -0.097844   0.008342  -0.002344
    17  C    0.020839  -0.061639  -0.092692   0.448594  -0.121963  -0.023559
    18  H   -0.000256  -0.004182   0.000023  -0.000088  -0.000258  -0.000064
    19  H    0.536871   0.000020  -0.009912  -0.000104   0.000038  -0.000001
    20  H    0.000020   0.528439  -0.000268  -0.008317   0.015232   0.001034
    21  H   -0.009912  -0.000268   0.571591   0.003359   0.000209   0.000028
    22  O   -0.000104  -0.008317   0.003359   7.783117   0.230321  -0.043729
    23  C    0.000038   0.015232   0.000209   0.230321   4.894856   0.406154
    24  H   -0.000001   0.001034   0.000028  -0.043729   0.406154   0.602686
    25  H   -0.000001   0.000041   0.000123  -0.044086   0.408270  -0.062545
    26  H    0.000000   0.000021  -0.000155  -0.029770   0.388613  -0.020175
    27  O    0.000000  -0.000000  -0.000000  -0.000000   0.000000   0.000000
    28  C   -0.000000   0.000000  -0.000000   0.000000   0.000000   0.000000
    29  H    0.000000   0.000000   0.000000   0.000000   0.000000  -0.000000
    30  H   -0.000000  -0.000000  -0.000000  -0.000000  -0.000000   0.000000
    31  H   -0.000000   0.000000   0.000000   0.000000  -0.000000  -0.000000
    32  C    0.000711   0.000013  -0.000196  -0.000007   0.000001  -0.000002
    33  C   -0.002376   0.000003  -0.000027   0.000000  -0.000000   0.000000
    34  C    0.003484  -0.000036   0.000042   0.000009  -0.000001   0.000000
    35  C    0.001634   0.000000  -0.000004  -0.000000  -0.000000   0.000000
    36  C   -0.002468  -0.000002   0.000027   0.000000  -0.000000  -0.000000
    37  C    0.000568   0.000000  -0.000003   0.000000   0.000000   0.000000
    38  H   -0.000006  -0.000000  -0.000000   0.000000   0.000000  -0.000000
    39  H    0.001222   0.000004  -0.000047  -0.000008   0.000003  -0.000000
    40  H    0.000007  -0.000000   0.000000  -0.000000   0.000000  -0.000000
    41  H   -0.000048   0.000000  -0.000000  -0.000000  -0.000000   0.000000
    42  O   -0.000008  -0.000000   0.000000   0.000000  -0.000000  -0.000000
    43  C    0.000003   0.000000  -0.000000  -0.000000  -0.000000   0.000000
    44  H   -0.000000  -0.000000   0.000000  -0.000000   0.000000  -0.000000
    45  H    0.000004   0.000000  -0.000000   0.000000  -0.000000   0.000000
    46  H   -0.000000   0.000000  -0.000000  -0.000000  -0.000000   0.000000
              25         26         27         28         29         30
     1  N    0.000000  -0.000000  -0.000001   0.000002   0.000001   0.000001
     2  C   -0.000005   0.000000  -0.000227   0.002093   0.000419  -0.000049
     3  C   -0.000001  -0.000000   0.012695  -0.009452  -0.001145  -0.000896
     4  C    0.000000   0.000000   0.006228  -0.001318  -0.000088   0.000156
     5  C    0.000000  -0.000000  -0.124067   0.020889   0.019255   0.015671
     6  C   -0.000000   0.000000  -0.097626   0.008389  -0.002387  -0.001254
     7  C    0.000000  -0.000000   0.448527  -0.121815  -0.023562  -0.020991
     8  H   -0.000000  -0.000000  -0.000090  -0.000257  -0.000060  -0.000001
     9  H   -0.000000  -0.000000  -0.000105   0.000038  -0.000001  -0.000001
    10  H   -0.000000   0.000000  -0.008327   0.015162   0.001057   0.000048
    11  H   -0.000000   0.000000   0.003419   0.000201   0.000026   0.000125
    12  C   -0.000059  -0.000067   0.000005  -0.000012   0.000004  -0.000005
    13  C   -0.000901   0.000241  -0.000003  -0.000004   0.000011  -0.000001
    14  C    0.000175   0.000194   0.000000  -0.000000  -0.000000   0.000000
    15  C    0.015647  -0.001548  -0.000000   0.000001   0.000000   0.000000
    16  C   -0.001317  -0.000068  -0.000000   0.000000   0.000000  -0.000000
    17  C   -0.020949   0.011378   0.000000  -0.000000  -0.000000   0.000000
    18  H    0.000002   0.000003   0.000001  -0.000009   0.000000  -0.000000
    19  H   -0.000001   0.000000   0.000000  -0.000000   0.000000  -0.000000
    20  H    0.000041   0.000021  -0.000000   0.000000   0.000000  -0.000000
    21  H    0.000123  -0.000155  -0.000000  -0.000000   0.000000  -0.000000
    22  O   -0.044086  -0.029770  -0.000000   0.000000   0.000000  -0.000000
    23  C    0.408270   0.388613   0.000000   0.000000   0.000000  -0.000000
    24  H   -0.062545  -0.020175   0.000000   0.000000  -0.000000   0.000000
    25  H    0.599641  -0.020100  -0.000000  -0.000000   0.000000  -0.000000
    26  H   -0.020100   0.527229   0.000000  -0.000000  -0.000000   0.000000
    27  O   -0.000000   0.000000   7.783146   0.230349  -0.043690  -0.044117
    28  C   -0.000000  -0.000000   0.230349   4.894722   0.406488   0.407985
    29  H    0.000000  -0.000000  -0.043690   0.406488   0.601647  -0.062469
    30  H   -0.000000   0.000000  -0.044117   0.407985  -0.062469   0.600316
    31  H    0.000000  -0.000000  -0.029738   0.388612  -0.020074  -0.020212
    32  C    0.000003  -0.000000  -0.000005  -0.000001  -0.000001   0.000003
    33  C    0.000000  -0.000000   0.000009  -0.000001   0.000000  -0.000003
    34  C   -0.000003   0.000000   0.000000  -0.000000   0.000000  -0.000000
    35  C   -0.000000  -0.000000   0.000000   0.000000  -0.000000  -0.000000
    36  C   -0.000000   0.000000  -0.000000  -0.000000   0.000000  -0.000000
    37  C    0.000000   0.000000   0.000000   0.000000   0.000000  -0.000000
    38  H    0.000000  -0.000000  -0.000008   0.000003  -0.000000   0.000004
    39  H    0.000003  -0.000000   0.000000   0.000000  -0.000000   0.000000
    40  H    0.000000   0.000000  -0.000000  -0.000000   0.000000  -0.000000
    41  H   -0.000000  -0.000000  -0.000000   0.000000  -0.000000   0.000000
    42  O    0.000000  -0.000000  -0.000000  -0.000000  -0.000000   0.000000
    43  C   -0.000000  -0.000000   0.000000  -0.000000  -0.000000  -0.000000
    44  H    0.000000   0.000000   0.000000   0.000000   0.000000  -0.000000
    45  H   -0.000000  -0.000000  -0.000000  -0.000000  -0.000000   0.000000
    46  H   -0.000000  -0.000000   0.000000  -0.000000   0.000000  -0.000000
              31         32         33         34         35         36
     1  N   -0.000000   0.145613  -0.024571  -0.008092   0.028646   0.015363
     2  C   -0.000068  -0.083061   0.035369  -0.013805  -0.005365  -0.001829
     3  C    0.000242  -0.019486   0.020284  -0.013335   0.002444  -0.000093
     4  C    0.000193   0.037304  -0.068376   0.019432  -0.008641   0.002658
     5  C   -0.001541  -0.004188   0.003739   0.000024   0.000077  -0.000115
     6  C   -0.000079  -0.001086  -0.007655   0.001857  -0.000262  -0.000078
     7  C    0.011363   0.002282  -0.001654   0.000000  -0.000174   0.000035
     8  H    0.000003  -0.001213   0.000282  -0.000430  -0.000018   0.000031
     9  H    0.000000   0.002200   0.002654  -0.002303  -0.003057   0.001449
    10  H    0.000019   0.000021  -0.000045   0.000003  -0.000003   0.000000
    11  H   -0.000155  -0.000205   0.000056  -0.000024   0.000024  -0.000002
    12  C    0.000000  -0.089849  -0.014774   0.039817  -0.003586  -0.000130
    13  C   -0.000000  -0.014254  -0.013052   0.019763  -0.000118   0.001628
    14  C    0.000000   0.039841   0.020363  -0.070065   0.003481  -0.008491
    15  C   -0.000000  -0.003763  -0.000122   0.003505  -0.000128  -0.000015
    16  C    0.000000  -0.000667   0.001641  -0.008801   0.000010  -0.000479
    17  C   -0.000000   0.002387   0.000068  -0.001665   0.000037  -0.000166
    18  H   -0.000000  -0.000687  -0.000385   0.000214   0.000029  -0.000007
    19  H   -0.000000   0.000711  -0.002376   0.003484   0.001634  -0.002468
    20  H    0.000000   0.000013   0.000003  -0.000036   0.000000  -0.000002
    21  H    0.000000  -0.000196  -0.000027   0.000042  -0.000004   0.000027
    22  O    0.000000  -0.000007   0.000000   0.000009  -0.000000   0.000000
    23  C   -0.000000   0.000001  -0.000000  -0.000001  -0.000000  -0.000000
    24  H   -0.000000  -0.000002   0.000000   0.000000   0.000000  -0.000000
    25  H    0.000000   0.000003   0.000000  -0.000003  -0.000000  -0.000000
    26  H   -0.000000  -0.000000  -0.000000   0.000000  -0.000000   0.000000
    27  O   -0.029738  -0.000005   0.000009   0.000000   0.000000  -0.000000
    28  C    0.388612  -0.000001  -0.000001  -0.000000   0.000000  -0.000000
    29  H   -0.020074  -0.000001   0.000000   0.000000  -0.000000   0.000000
    30  H   -0.020212   0.000003  -0.000003  -0.000000  -0.000000  -0.000000
    31  H    0.527206  -0.000000   0.000000  -0.000000   0.000000  -0.000000
    32  C   -0.000000   5.505414   0.380004   0.289665   0.038864   0.055095
    33  C    0.000000   0.380004   5.466142  -0.175159  -0.000094  -0.017349
    34  C   -0.000000   0.289665  -0.175159   5.426465  -0.043994   0.181930
    35  C    0.000000   0.038864  -0.000094  -0.043994   6.050357  -0.247509
    36  C   -0.000000   0.055095  -0.017349   0.181930  -0.247509   5.595537
    37  C    0.000000  -0.154496   0.072223   0.041847   0.123240   0.363696
    38  H   -0.000000  -0.028708   0.389817   0.010767  -0.039182   0.001221
    39  H   -0.000000  -0.056511   0.017280   0.430529  -0.004248  -0.069367
    40  H   -0.000000   0.007315   0.026450   0.006875   0.358926  -0.006323
    41  H    0.000000   0.020849  -0.003771  -0.060284   0.019812   0.441319
    42  O   -0.000000  -0.000316   0.013082   0.006548  -0.124548  -0.097936
    43  C    0.000000   0.002088  -0.009536  -0.001271   0.021133   0.008277
    44  H   -0.000000   0.000422  -0.001135  -0.000106   0.019203  -0.002345
    45  H    0.000000  -0.000046  -0.000897   0.000170   0.015818  -0.001308
    46  H    0.000000  -0.000068   0.000237   0.000196  -0.001566  -0.000067
              37         38         39         40         41         42
     1  N    0.003190  -0.009349  -0.007715  -0.000646  -0.000519  -0.000001
     2  C    0.001648   0.001428  -0.002065  -0.000043   0.000026   0.000005
     3  C   -0.000011  -0.003185  -0.000397  -0.000051   0.000003   0.000000
     4  C   -0.001663   0.004655   0.000467   0.000091  -0.000024  -0.000002
     5  C    0.000052   0.001662   0.000034  -0.000004   0.000000  -0.000000
     6  C   -0.000130  -0.002592   0.000018   0.000044  -0.000002  -0.000000
     7  C   -0.000013   0.000546  -0.000006  -0.000003   0.000000   0.000000
     8  H   -0.000010   0.000014  -0.000017  -0.000000   0.000000   0.000000
     9  H    0.000098   0.001033  -0.000053  -0.000021   0.000009  -0.000000
    10  H   -0.000000   0.000008  -0.000000   0.000000  -0.000000  -0.000000
    11  H   -0.000002  -0.000046  -0.000000   0.000000  -0.000000  -0.000000
    12  C    0.002197  -0.001395   0.000652   0.000025  -0.000198  -0.000005
    13  C    0.000060  -0.000380  -0.002576   0.000003  -0.000026   0.000000
    14  C   -0.001650   0.000345   0.003502  -0.000039   0.000042   0.000009
    15  C    0.000038   0.000031   0.001558   0.000000  -0.000004  -0.000000
    16  C   -0.000173  -0.000010  -0.002471  -0.000002   0.000029   0.000000
    17  C   -0.000004  -0.000005   0.000549   0.000000  -0.000003  -0.000000
    18  H   -0.000006  -0.000014   0.000018  -0.000000  -0.000000   0.000000
    19  H    0.000568  -0.000006   0.001222   0.000007  -0.000048  -0.000008
    20  H    0.000000  -0.000000   0.000004  -0.000000   0.000000  -0.000000
    21  H   -0.000003  -0.000000  -0.000047   0.000000  -0.000000   0.000000
    22  O    0.000000   0.000000  -0.000008  -0.000000  -0.000000   0.000000
    23  C    0.000000   0.000000   0.000003   0.000000  -0.000000  -0.000000
    24  H    0.000000  -0.000000  -0.000000  -0.000000   0.000000  -0.000000
    25  H    0.000000   0.000000   0.000003   0.000000  -0.000000   0.000000
    26  H    0.000000  -0.000000  -0.000000   0.000000  -0.000000  -0.000000
    27  O    0.000000  -0.000008   0.000000  -0.000000  -0.000000  -0.000000
    28  C    0.000000   0.000003   0.000000  -0.000000   0.000000  -0.000000
    29  H    0.000000  -0.000000  -0.000000   0.000000  -0.000000  -0.000000
    30  H   -0.000000   0.000004   0.000000  -0.000000   0.000000   0.000000
    31  H    0.000000  -0.000000  -0.000000  -0.000000   0.000000  -0.000000
    32  C   -0.154496  -0.028708  -0.056511   0.007315   0.020849  -0.000316
    33  C    0.072223   0.389817   0.017280   0.026450  -0.003771   0.013082
    34  C    0.041847   0.010767   0.430529   0.006875  -0.060284   0.006548
    35  C    0.123240  -0.039182  -0.004248   0.358926   0.019812  -0.124548
    36  C    0.363696   0.001221  -0.069367  -0.006323   0.441319  -0.097936
    37  C    5.245871   0.008665   0.021090  -0.061417  -0.092842   0.448532
    38  H    0.008665   0.527563  -0.000253  -0.004176   0.000022  -0.000089
    39  H    0.021090  -0.000253   0.537211   0.000018  -0.010121  -0.000105
    40  H   -0.061417  -0.004176   0.000018   0.528344  -0.000268  -0.008331
    41  H   -0.092842   0.000022  -0.010121  -0.000268   0.571866   0.003376
    42  O    0.448532  -0.000089  -0.000105  -0.008331   0.003376   7.783387
    43  C   -0.122067  -0.000251   0.000038   0.015187   0.000204   0.230414
    44  H   -0.023569  -0.000060  -0.000001   0.001075   0.000028  -0.043705
    45  H   -0.021065  -0.000003  -0.000001   0.000042   0.000123  -0.044135
    46  H    0.011410   0.000003   0.000000   0.000016  -0.000155  -0.029728
              43         44         45         46
     1  N    0.000001   0.000001   0.000001  -0.000000
     2  C   -0.000011   0.000003  -0.000005   0.000000
     3  C   -0.000000  -0.000000   0.000000   0.000000
     4  C   -0.000006   0.000010  -0.000001  -0.000000
     5  C    0.000000  -0.000000   0.000000   0.000000
     6  C    0.000000   0.000000   0.000000  -0.000000
     7  C   -0.000000  -0.000000   0.000000  -0.000000
     8  H   -0.000000   0.000000  -0.000000  -0.000000
     9  H   -0.000009   0.000001  -0.000000  -0.000000
    10  H   -0.000000   0.000000  -0.000000   0.000000
    11  H    0.000000  -0.000000   0.000000   0.000000
    12  C    0.000000  -0.000002   0.000003  -0.000000
    13  C   -0.000000   0.000000  -0.000000  -0.000000
    14  C   -0.000001   0.000000  -0.000003   0.000000
    15  C   -0.000000   0.000000  -0.000000  -0.000000
    16  C   -0.000000  -0.000000  -0.000000   0.000000
    17  C    0.000000   0.000000   0.000000   0.000000
    18  H    0.000000  -0.000000   0.000000  -0.000000
    19  H    0.000003  -0.000000   0.000004  -0.000000
    20  H    0.000000  -0.000000   0.000000   0.000000
    21  H   -0.000000   0.000000  -0.000000  -0.000000
    22  O   -0.000000  -0.000000   0.000000  -0.000000
    23  C   -0.000000   0.000000  -0.000000  -0.000000
    24  H    0.000000  -0.000000   0.000000   0.000000
    25  H   -0.000000   0.000000  -0.000000  -0.000000
    26  H   -0.000000   0.000000  -0.000000  -0.000000
    27  O    0.000000   0.000000  -0.000000   0.000000
    28  C   -0.000000   0.000000  -0.000000  -0.000000
    29  H   -0.000000   0.000000  -0.000000   0.000000
    30  H   -0.000000  -0.000000   0.000000  -0.000000
    31  H    0.000000  -0.000000   0.000000   0.000000
    32  C    0.002088   0.000422  -0.000046  -0.000068
    33  C   -0.009536  -0.001135  -0.000897   0.000237
    34  C   -0.001271  -0.000106   0.000170   0.000196
    35  C    0.021133   0.019203   0.015818  -0.001566
    36  C    0.008277  -0.002345  -0.001308  -0.000067
    37  C   -0.122067  -0.023569  -0.021065   0.011410
    38  H   -0.000251  -0.000060  -0.000003   0.000003
    39  H    0.000038  -0.000001  -0.000001   0.000000
    40  H    0.015187   0.001075   0.000042   0.000016
    41  H    0.000204   0.000028   0.000123  -0.000155
    42  O    0.230414  -0.043705  -0.044135  -0.029728
    43  C    4.894761   0.406686   0.407814   0.388490
    44  H    0.406686   0.601221  -0.062527  -0.020074
    45  H    0.407814  -0.062527   0.600828  -0.020231
    46  H    0.388490  -0.020074  -0.020231   0.527522
 Mulliken charges:
               1
     1  N   -0.009862
     2  C   -0.089410
     3  C   -0.095793
     4  C   -0.073164
     5  C   -0.202247
     6  C   -0.213588
     7  C    0.135499
     8  H    0.138542
     9  H    0.138813
    10  H    0.137000
    11  H    0.110417
    12  C   -0.083530
    13  C   -0.106305
    14  C   -0.070843
    15  C   -0.201346
    16  C   -0.213464
    17  C    0.134997
    18  H    0.137824
    19  H    0.142244
    20  H    0.137099
    21  H    0.110539
    22  O   -0.136269
    23  C   -0.242169
    24  H    0.124131
    25  H    0.126060
    26  H    0.144205
    27  O   -0.136378
    28  C   -0.242064
    29  H    0.124571
    30  H    0.125691
    31  H    0.144228
    32  C   -0.071278
    33  C   -0.108722
    34  C   -0.083768
    35  C   -0.201238
    36  C   -0.212189
    37  C    0.134696
    38  H    0.141922
    39  H    0.141765
    40  H    0.136906
    41  H    0.110559
    42  O   -0.136445
    43  C   -0.241943
    44  H    0.124872
    45  H    0.125419
    46  H    0.144015
 Sum of Mulliken charges =  -0.00000
 Mulliken charges with hydrogens summed into heavy atoms:
               1
     1  N   -0.009862
     2  C   -0.089410
     3  C    0.042749
     4  C    0.065649
     5  C   -0.065247
     6  C   -0.103171
     7  C    0.135499
    12  C   -0.083530
    13  C    0.031519
    14  C    0.071400
    15  C   -0.064248
    16  C   -0.102926
    17  C    0.134997
    22  O   -0.136269
    23  C    0.152227
    27  O   -0.136378
    28  C    0.152427
    32  C   -0.071278
    33  C    0.033200
    34  C    0.057997
    35  C   -0.064331
    36  C   -0.101629
    37  C    0.134696
    42  O   -0.136445
    43  C    0.152363
 Electronic spatial extent (au):  <R**2>=          11478.8476
 Charge=             -0.0000 electrons
 Dipole moment (field-independent basis, Debye):
    X=              1.2168    Y=              1.3483    Z=             -0.7967  Tot=              1.9833
 Quadrupole moment (field-independent basis, Debye-Ang):
   XX=           -118.8384   YY=           -142.7010   ZZ=           -145.8184
   XY=             -0.4013   XZ=              6.6649   YZ=             -7.3246
 Traceless Quadrupole moment (field-independent basis, Debye-Ang):
   XX=             16.9475   YY=             -6.9150   ZZ=            -10.0325
   XY=             -0.4013   XZ=              6.6649   YZ=             -7.3246
 Octapole moment (field-independent basis, Debye-Ang**2):
  XXX=            -15.8505  YYY=             58.3126  ZZZ=             -0.5359  XYY=             65.8631
  XXY=             -4.2804  XXZ=            -14.6998  XZZ=             -1.2335  YZZ=              1.0930
  YYZ=            -18.6920  XYZ=            -31.7080
 Hexadecapole moment (field-independent basis, Debye-Ang**3):
 XXXX=          -6467.0611 YYYY=          -6567.5228 ZZZZ=           -578.6310 XXXY=           -259.1483
 XXXZ=            284.1591 YYYX=            229.5539 YYYZ=           -189.1221 ZZZX=             -2.0056
 ZZZY=              5.2429 XXYY=          -2222.7517 XXZZ=          -1397.6740 YYZZ=          -1221.8318
 XXYZ=            -76.9122 YYXZ=            -33.7732 ZZXY=              2.5076
 N-N= 2.056677808601D+03 E-N=-6.659791258335D+03  KE= 1.087964588140D+03
 No NMR shielding tensors so no spin-rotation constants.
 Leave Link  601 at Sun Jan 17 00:59:53 2021, MaxMem=  4026531840 cpu:               3.0 elap:               0.4
 (Enter /opt/ohpc/pub/libs/gaussian/g16-A.03/sandybridge/g16/l9999.exe)

 Test job not archived.
 1\1\GINC-CASCADEB034\SP\RLC-wHPBE\TZVP\C21H21N1O3\RDU230\17-Jan-2021\0
 \\#P LC-wHPBE/TZVP iop(3/107=0199600000, 3/108=0199600000) scf=(conver
 =6,fermi,ndamp=35,noincfock,novaracc,vshift=500,xqc)\\H21 C21 N1 O3\\0
 ,1\N,0,0.054086,0.063852,0.077784\C,0,-0.275154,-1.311734,0.103506\C,0
 ,-1.260864,-1.827996,-0.72375\C,0,0.386135,-2.184815,0.970218\C,0,-1.5
 98384,-3.175646,-0.688444\C,0,0.074577,-3.526309,0.994438\C,0,-0.9252,
 -4.03443,0.167909\H,0,-1.784639,-1.164375,-1.405148\H,0,1.158634,-1.79
 7039,1.627427\H,0,-2.379444,-3.537517,-1.347421\H,0,0.588853,-4.20682,
 1.665799\C,0,-0.970368,1.03417,-0.019727\C,0,-2.134785,0.917606,0.7248
 71\C,0,-0.835797,2.133662,-0.869883\C,0,-3.151989,1.858174,0.623575\C,
 0,-1.829782,3.083912,-0.958163\C,0,-3.000537,2.952781,-0.215611\H,0,-2
 .255494,0.070396,1.39325\H,0,0.067507,2.240735,-1.462783\H,0,-4.048238
 ,1.726664,1.219136\H,0,-1.725247,3.941045,-1.615932\O,0,-3.928451,3.93
 6733,-0.380204\C,0,-5.121818,3.840279,0.365278\H,0,-5.681122,2.930406,
 0.115451\H,0,-4.925953,3.859223,1.44425\H,0,-5.719912,4.710924,0.09646
 6\O,0,-1.16822,-5.370782,0.273837\C,0,-2.170458,-5.919715,-0.552884\H,
 0,-3.15107,-5.47272,-0.348812\H,0,-1.930216,-5.79407,-1.615623\H,0,-2.
 208576,-6.98373,-0.319613\C,0,1.409258,0.466483,0.091838\C,0,2.372325,
 -0.232608,-0.620224\C,0,1.812213,1.581496,0.83064\C,0,3.707828,0.15075
 4,-0.59385\C,0,3.129962,1.982235,0.842322\C,0,4.092694,1.267169,0.1335
 83\H,0,2.078678,-1.100647,-1.202616\H,0,1.073246,2.139336,1.397822\H,0
 ,4.429565,-0.427688,-1.159301\H,0,3.443945,2.849999,1.413878\O,0,5.369
 584,1.734982,0.218075\C,0,6.368506,1.037347,-0.492266\H,0,6.460713,0.0
 00867,-0.145468\H,0,6.173119,1.041208,-1.571513\H,0,7.303574,1.562498,
 -0.297656\\Version=EM64L-G16RevA.03\State=1-A\HF=-1092.617467\RMSD=6.3
 30e-07\Dipole=-0.4787314,-0.5304654,-0.3134579\Quadrupole=12.6000446,-
 5.1411488,-7.4588958,-0.2983386,-4.9551526,5.4456666\PG=C01 [X(C21H21N
 1O3)]\\@


 MY DESCRIPTION OF EXPERIENCE IS NOT WHAT HAPPENS
 TO A MAN.  EXPERIENCE IS WHAT A MAN DOES WITH WHAT
 HAPPENS TO HIM.
                         - CHUCK KNOX, SEATTLE SEAHAWKS, 1985
 Job cpu time:       0 days  1 hours 25 minutes  2.1 seconds.
 Elapsed time:       0 days  0 hours 10 minutes 40.3 seconds.
 File lengths (MBytes):  RWF=    168 Int=      0 D2E=      0 Chk=     28 Scr=      8
 Normal termination of Gaussian 16 at Sun Jan 17 00:59:53 2021.
