 Entering Gaussian System, Link 0=g16
 Input=mol_NN_ma_frag_tune_c7.gjf
 Output=mol_NN_ma_frag_tune_c7.log
 Initial command:
 /opt/ohpc/pub/libs/gaussian/g16-A.03/sandybridge/g16/l1.exe "/mnt/gpfs2_4m/scratch/rdu230/ondemand/projects/init_structures/wtuning/mol_NN_ma_frag/tuning_mol_NN_ma_frag_ocycle0/Gau-243363.inp" -scrdir="/mnt/gpfs2_4m/scratch/rdu230/ondemand/projects/init_structures/wtuning/mol_NN_ma_frag/tuning_mol_NN_ma_frag_ocycle0/"
 Entering Link 1 = /opt/ohpc/pub/libs/gaussian/g16-A.03/sandybridge/g16/l1.exe PID=    243364.
  
 Copyright (c) 1988,1990,1992,1993,1995,1998,2003,2009,2016,
            Gaussian, Inc.  All Rights Reserved.
  
 This is part of the Gaussian(R) 16 program.  It is based on
 the Gaussian(R) 09 system (copyright 2009, Gaussian, Inc.),
 the Gaussian(R) 03 system (copyright 2003, Gaussian, Inc.),
 the Gaussian(R) 98 system (copyright 1998, Gaussian, Inc.),
 the Gaussian(R) 94 system (copyright 1995, Gaussian, Inc.),
 the Gaussian 92(TM) system (copyright 1992, Gaussian, Inc.),
 the Gaussian 90(TM) system (copyright 1990, Gaussian, Inc.),
 the Gaussian 88(TM) system (copyright 1988, Gaussian, Inc.),
 the Gaussian 86(TM) system (copyright 1986, Carnegie Mellon
 University), and the Gaussian 82(TM) system (copyright 1983,
 Carnegie Mellon University). Gaussian is a federally registered
 trademark of Gaussian, Inc.
  
 This software contains proprietary and confidential information,
 including trade secrets, belonging to Gaussian, Inc.
  
 This software is provided under written license and may be
 used, copied, transmitted, or stored only in accord with that
 written license.
  
 The following legend is applicable only to US Government
 contracts under FAR:
  
                    RESTRICTED RIGHTS LEGEND
  
 Use, reproduction and disclosure by the US Government is
 subject to restrictions as set forth in subparagraphs (a)
 and (c) of the Commercial Computer Software - Restricted
 Rights clause in FAR 52.227-19.
  
 Gaussian, Inc.
 340 Quinnipiac St., Bldg. 40, Wallingford CT 06492
  
  
 ---------------------------------------------------------------
 Warning -- This program may not be used in any manner that
 competes with the business of Gaussian, Inc. or will provide
 assistance to any competitor of Gaussian, Inc.  The licensee
 of this program is prohibited from giving any competitor of
 Gaussian, Inc. access to this program.  By using this program,
 the user acknowledges that Gaussian, Inc. is engaged in the
 business of creating and licensing software in the field of
 computational chemistry and represents and warrants to the
 licensee that it is not a competitor of Gaussian, Inc. and that
 it will not use this program in any manner prohibited above.
 ---------------------------------------------------------------
  

 Cite this work as:
 Gaussian 16, Revision A.03,
 M. J. Frisch, G. W. Trucks, H. B. Schlegel, G. E. Scuseria, 
 M. A. Robb, J. R. Cheeseman, G. Scalmani, V. Barone, 
 G. A. Petersson, H. Nakatsuji, X. Li, M. Caricato, A. V. Marenich, 
 J. Bloino, B. G. Janesko, R. Gomperts, B. Mennucci, H. P. Hratchian, 
 J. V. Ortiz, A. F. Izmaylov, J. L. Sonnenberg, D. Williams-Young, 
 F. Ding, F. Lipparini, F. Egidi, J. Goings, B. Peng, A. Petrone, 
 T. Henderson, D. Ranasinghe, V. G. Zakrzewski, J. Gao, N. Rega, 
 G. Zheng, W. Liang, M. Hada, M. Ehara, K. Toyota, R. Fukuda, 
 J. Hasegawa, M. Ishida, T. Nakajima, Y. Honda, O. Kitao, H. Nakai, 
 T. Vreven, K. Throssell, J. A. Montgomery, Jr., J. E. Peralta, 
 F. Ogliaro, M. J. Bearpark, J. J. Heyd, E. N. Brothers, K. N. Kudin, 
 V. N. Staroverov, T. A. Keith, R. Kobayashi, J. Normand, 
 K. Raghavachari, A. P. Rendell, J. C. Burant, S. S. Iyengar, 
 J. Tomasi, M. Cossi, J. M. Millam, M. Klene, C. Adamo, R. Cammi, 
 J. W. Ochterski, R. L. Martin, K. Morokuma, O. Farkas, 
 J. B. Foresman, and D. J. Fox, Gaussian, Inc., Wallingford CT, 2016.
 
 ******************************************
 Gaussian 16:  EM64L-G16RevA.03 25-Dec-2016
                17-Jan-2021 
 ******************************************
 %mem=30GB
 %nproc=8
 Will use up to    8 processors via shared memory.
 ----------------------------------------------------------------------
 #P LC-wHPBE/TZVP iop(3/107=0184700000, 3/108=0184700000) scf=(conver=6
 ,fermi,ndamp=35,noincfock,novaracc,vshift=500,xqc)
 ----------------------------------------------------------------------
 1/38=1,172=1/1;
 2/12=2,17=6,18=5,40=1/2;
 3/5=19,7=101,11=2,25=1,30=1,74=-71,107=184700000,108=184700000/1,2,3;
 4//1;
 5/5=100002,6=6,8=3,10=500,13=1,18=-1,22=13,38=1,93=35/2,8;
 6/7=2,8=2,9=2,10=2,28=1/1;
 99/5=1,9=1/99;
 Leave Link    1 at Sun Jan 17 02:51:16 2021, MaxMem=  4026531840 cpu:               1.2 elap:               0.2
 (Enter /opt/ohpc/pub/libs/gaussian/g16-A.03/sandybridge/g16/l101.exe)
 -------------
 H21 C21 N1 O3
 -------------
 Symbolic Z-matrix:
 Charge =  1 Multiplicity = 2
 N                     0.05409   0.06385   0.07778 
 C                    -0.27515  -1.31173   0.10351 
 C                    -1.26086  -1.828    -0.72375 
 C                     0.38614  -2.18481   0.97022 
 C                    -1.59838  -3.17565  -0.68844 
 C                     0.07458  -3.52631   0.99444 
 C                    -0.9252   -4.03443   0.16791 
 H                    -1.78464  -1.16438  -1.40515 
 H                     1.15863  -1.79704   1.62743 
 H                    -2.37944  -3.53752  -1.34742 
 H                     0.58885  -4.20682   1.6658 
 C                    -0.97037   1.03417  -0.01973 
 C                    -2.13478   0.91761   0.72487 
 C                    -0.8358    2.13366  -0.86988 
 C                    -3.15199   1.85817   0.62358 
 C                    -1.82978   3.08391  -0.95816 
 C                    -3.00054   2.95278  -0.21561 
 H                    -2.25549   0.0704    1.39325 
 H                     0.06751   2.24073  -1.46278 
 H                    -4.04824   1.72666   1.21914 
 H                    -1.72525   3.94105  -1.61593 
 O                    -3.92845   3.93673  -0.3802 
 C                    -5.12182   3.84028   0.36528 
 H                    -5.68112   2.93041   0.11545 
 H                    -4.92595   3.85922   1.44425 
 H                    -5.71991   4.71092   0.09647 
 O                    -1.16822  -5.37078   0.27384 
 C                    -2.17046  -5.91972  -0.55288 
 H                    -3.15107  -5.47272  -0.34881 
 H                    -1.93022  -5.79407  -1.61562 
 H                    -2.20858  -6.98373  -0.31961 
 C                     1.40926   0.46648   0.09184 
 C                     2.37233  -0.23261  -0.62022 
 C                     1.81221   1.5815    0.83064 
 C                     3.70783   0.15075  -0.59385 
 C                     3.12996   1.98224   0.84232 
 C                     4.09269   1.26717   0.13358 
 H                     2.07868  -1.10065  -1.20262 
 H                     1.07325   2.13934   1.39782 
 H                     4.42957  -0.42769  -1.1593 
 H                     3.44395   2.85      1.41388 
 O                     5.36958   1.73498   0.21808 
 C                     6.36851   1.03735  -0.49227 
 H                     6.46071   0.00087  -0.14547 
 H                     6.17312   1.04121  -1.57151 
 H                     7.30357   1.5625   -0.29766 
 
 ITRead=  0  0  0  0  0  0  0  0  0  0  0  0  0  0  0  0  0  0  0  0
 ITRead=  0  0  0  0  0  0  0  0  0  0  0  0  0  0  0  0  0  0  0  0
 ITRead=  0  0  0  0  0  0
 MicOpt= -1 -1 -1 -1 -1 -1 -1 -1 -1 -1 -1 -1 -1 -1 -1 -1 -1 -1 -1 -1
 MicOpt= -1 -1 -1 -1 -1 -1 -1 -1 -1 -1 -1 -1 -1 -1 -1 -1 -1 -1 -1 -1
 MicOpt= -1 -1 -1 -1 -1 -1
 NAtoms=     46 NQM=       46 NQMF=       0 NMMI=      0 NMMIF=      0
                NMic=       0 NMicF=      0.
                    Isotopes and Nuclear Properties:
 (Nuclear quadrupole moments (NQMom) in fm**2, nuclear magnetic moments (NMagM)
  in nuclear magnetons)

  Atom         1           2           3           4           5           6           7           8           9          10
 IAtWgt=          14          12          12          12          12          12          12           1           1           1
 AtmWgt=  14.0030740  12.0000000  12.0000000  12.0000000  12.0000000  12.0000000  12.0000000   1.0078250   1.0078250   1.0078250
 NucSpn=           2           0           0           0           0           0           0           1           1           1
 AtZEff=  -0.0000000  -0.0000000  -0.0000000  -0.0000000  -0.0000000  -0.0000000  -0.0000000  -0.0000000  -0.0000000  -0.0000000
 NQMom=    2.0440000   0.0000000   0.0000000   0.0000000   0.0000000   0.0000000   0.0000000   0.0000000   0.0000000   0.0000000
 NMagM=    0.4037610   0.0000000   0.0000000   0.0000000   0.0000000   0.0000000   0.0000000   2.7928460   2.7928460   2.7928460
 AtZNuc=   7.0000000   6.0000000   6.0000000   6.0000000   6.0000000   6.0000000   6.0000000   1.0000000   1.0000000   1.0000000

  Atom        11          12          13          14          15          16          17          18          19          20
 IAtWgt=           1          12          12          12          12          12          12           1           1           1
 AtmWgt=   1.0078250  12.0000000  12.0000000  12.0000000  12.0000000  12.0000000  12.0000000   1.0078250   1.0078250   1.0078250
 NucSpn=           1           0           0           0           0           0           0           1           1           1
 AtZEff=  -0.0000000  -0.0000000  -0.0000000  -0.0000000  -0.0000000  -0.0000000  -0.0000000  -0.0000000  -0.0000000  -0.0000000
 NQMom=    0.0000000   0.0000000   0.0000000   0.0000000   0.0000000   0.0000000   0.0000000   0.0000000   0.0000000   0.0000000
 NMagM=    2.7928460   0.0000000   0.0000000   0.0000000   0.0000000   0.0000000   0.0000000   2.7928460   2.7928460   2.7928460
 AtZNuc=   1.0000000   6.0000000   6.0000000   6.0000000   6.0000000   6.0000000   6.0000000   1.0000000   1.0000000   1.0000000

  Atom        21          22          23          24          25          26          27          28          29          30
 IAtWgt=           1          16          12           1           1           1          16          12           1           1
 AtmWgt=   1.0078250  15.9949146  12.0000000   1.0078250   1.0078250   1.0078250  15.9949146  12.0000000   1.0078250   1.0078250
 NucSpn=           1           0           0           1           1           1           0           0           1           1
 AtZEff=  -0.0000000  -0.0000000  -0.0000000  -0.0000000  -0.0000000  -0.0000000  -0.0000000  -0.0000000  -0.0000000  -0.0000000
 NQMom=    0.0000000   0.0000000   0.0000000   0.0000000   0.0000000   0.0000000   0.0000000   0.0000000   0.0000000   0.0000000
 NMagM=    2.7928460   0.0000000   0.0000000   2.7928460   2.7928460   2.7928460   0.0000000   0.0000000   2.7928460   2.7928460
 AtZNuc=   1.0000000   8.0000000   6.0000000   1.0000000   1.0000000   1.0000000   8.0000000   6.0000000   1.0000000   1.0000000

  Atom        31          32          33          34          35          36          37          38          39          40
 IAtWgt=           1          12          12          12          12          12          12           1           1           1
 AtmWgt=   1.0078250  12.0000000  12.0000000  12.0000000  12.0000000  12.0000000  12.0000000   1.0078250   1.0078250   1.0078250
 NucSpn=           1           0           0           0           0           0           0           1           1           1
 AtZEff=  -0.0000000  -0.0000000  -0.0000000  -0.0000000  -0.0000000  -0.0000000  -0.0000000  -0.0000000  -0.0000000  -0.0000000
 NQMom=    0.0000000   0.0000000   0.0000000   0.0000000   0.0000000   0.0000000   0.0000000   0.0000000   0.0000000   0.0000000
 NMagM=    2.7928460   0.0000000   0.0000000   0.0000000   0.0000000   0.0000000   0.0000000   2.7928460   2.7928460   2.7928460
 AtZNuc=   1.0000000   6.0000000   6.0000000   6.0000000   6.0000000   6.0000000   6.0000000   1.0000000   1.0000000   1.0000000

  Atom        41          42          43          44          45          46
 IAtWgt=           1          16          12           1           1           1
 AtmWgt=   1.0078250  15.9949146  12.0000000   1.0078250   1.0078250   1.0078250
 NucSpn=           1           0           0           1           1           1
 AtZEff=  -0.0000000  -0.0000000  -0.0000000  -0.0000000  -0.0000000  -0.0000000
 NQMom=    0.0000000   0.0000000   0.0000000   0.0000000   0.0000000   0.0000000
 NMagM=    2.7928460   0.0000000   0.0000000   2.7928460   2.7928460   2.7928460
 AtZNuc=   1.0000000   8.0000000   6.0000000   1.0000000   1.0000000   1.0000000
 Leave Link  101 at Sun Jan 17 02:51:16 2021, MaxMem=  4026531840 cpu:               0.8 elap:               0.1
 (Enter /opt/ohpc/pub/libs/gaussian/g16-A.03/sandybridge/g16/l202.exe)
                          Input orientation:                          
 ---------------------------------------------------------------------
 Center     Atomic      Atomic             Coordinates (Angstroms)
 Number     Number       Type             X           Y           Z
 ---------------------------------------------------------------------
      1          7           0        0.054086    0.063852    0.077784
      2          6           0       -0.275154   -1.311734    0.103506
      3          6           0       -1.260864   -1.827996   -0.723750
      4          6           0        0.386135   -2.184815    0.970218
      5          6           0       -1.598384   -3.175646   -0.688444
      6          6           0        0.074577   -3.526309    0.994438
      7          6           0       -0.925200   -4.034430    0.167909
      8          1           0       -1.784639   -1.164375   -1.405148
      9          1           0        1.158634   -1.797039    1.627427
     10          1           0       -2.379444   -3.537517   -1.347421
     11          1           0        0.588853   -4.206820    1.665799
     12          6           0       -0.970368    1.034170   -0.019727
     13          6           0       -2.134785    0.917606    0.724871
     14          6           0       -0.835797    2.133662   -0.869883
     15          6           0       -3.151989    1.858174    0.623575
     16          6           0       -1.829782    3.083912   -0.958163
     17          6           0       -3.000537    2.952781   -0.215611
     18          1           0       -2.255494    0.070396    1.393250
     19          1           0        0.067507    2.240735   -1.462783
     20          1           0       -4.048238    1.726664    1.219136
     21          1           0       -1.725247    3.941045   -1.615932
     22          8           0       -3.928451    3.936733   -0.380204
     23          6           0       -5.121818    3.840279    0.365278
     24          1           0       -5.681122    2.930406    0.115451
     25          1           0       -4.925953    3.859223    1.444250
     26          1           0       -5.719912    4.710924    0.096466
     27          8           0       -1.168220   -5.370782    0.273837
     28          6           0       -2.170458   -5.919715   -0.552884
     29          1           0       -3.151070   -5.472720   -0.348812
     30          1           0       -1.930216   -5.794070   -1.615623
     31          1           0       -2.208576   -6.983730   -0.319613
     32          6           0        1.409258    0.466483    0.091838
     33          6           0        2.372325   -0.232608   -0.620224
     34          6           0        1.812213    1.581496    0.830640
     35          6           0        3.707828    0.150754   -0.593850
     36          6           0        3.129962    1.982235    0.842322
     37          6           0        4.092694    1.267169    0.133583
     38          1           0        2.078678   -1.100647   -1.202616
     39          1           0        1.073246    2.139336    1.397822
     40          1           0        4.429565   -0.427688   -1.159301
     41          1           0        3.443945    2.849999    1.413878
     42          8           0        5.369584    1.734982    0.218075
     43          6           0        6.368506    1.037347   -0.492266
     44          1           0        6.460713    0.000867   -0.145468
     45          1           0        6.173119    1.041208   -1.571513
     46          1           0        7.303574    1.562498   -0.297656
 ---------------------------------------------------------------------
                    Distance matrix (angstroms):
                    1          2          3          4          5
     1  N    0.000000
     2  C    1.414672   0.000000
     3  C    2.439393   1.386544   0.000000
     4  C    2.441966   1.396697   2.389446   0.000000
     5  C    3.716465   2.419151   1.389722   2.769697   0.000000
     6  C    3.705392   2.412553   2.760406   1.377411   2.398719
     7  C    4.214622   2.799961   2.403347   2.405073   1.387093
     8  H    2.662431   2.139228   1.085834   3.375785   2.143261
     9  H    2.661641   2.147930   3.373865   1.085840   3.855511
    10  H    4.574181   3.389297   2.136036   3.853528   1.084092
    11  H    4.587636   3.401292   3.845803   2.147890   3.374876
    12  C    1.414401   2.449852   2.961761   3.630696   4.308612
    13  C    2.436960   2.968885   3.224992   4.005028   4.363473
    14  C    2.444193   3.623887   3.987075   4.850601   5.366862
    15  C    3.714350   4.312188   4.356545   5.383702   5.429035
    16  C    3.707143   4.781811   4.950299   6.032282   6.269638
    17  C    4.214583   5.071059   5.112778   6.266628   6.304540
    18  H    2.657942   2.737785   3.012452   3.499019   3.911781
    19  H    2.666898   3.897527   4.343422   5.060288   5.719439
    20  H    4.571290   4.971183   4.917303   5.918217   5.802869
    21  H    4.589916   5.714099   5.856063   6.976551   7.177995
    22  O    5.574008   6.413030   6.361301   7.610036   7.490671
    23  C    6.413582   7.078271   6.944227   8.185674   7.921371
    24  H    6.411799   6.871709   6.548689   7.981712   7.389105
    25  H    6.408811   7.082819   7.104756   8.060607   8.069107
    26  H    7.411793   8.118981   7.956968   9.251944   8.933144
    27  O    5.573842   4.159621   3.681725   3.612665   2.435087
    28  C    6.414781   5.025586   4.195083   4.775509   2.806343
    29  H    6.411602   5.078316   4.122799   5.006194   2.793337
    30  H    6.412514   5.077989   4.119856   5.007872   2.797484
    31  H    7.412555   6.007386   5.257668   5.605870   3.874258
    32  C    1.413789   2.449375   3.613775   2.974511   4.787468
    33  C    2.439126   2.949143   3.969388   3.207112   4.942940
    34  C    2.441525   3.640962   4.846088   4.029675   6.047329
    35  C    3.715976   4.299921   5.349787   4.351418   6.263367
    36  C    3.704825   4.794882   6.020780   4.990917   7.162698
    37  C    4.214432   5.072449   6.243048   5.133686   7.266547
    38  H    2.663542   2.700192   3.451216   2.959954   4.253326
    39  H    2.662484   3.924706   5.068418   4.399233   6.303899
    40  H    4.573490   4.950818   5.876355   4.896087   6.641472
    41  H    4.586819   5.733131   6.970532   5.907316   8.133464
    42  O    5.573767   6.415502   7.585821   6.384770   8.572551
    43  C    6.414402   7.071870   8.152979   6.950536   9.014385
    44  H    6.410825   6.867082   7.956249   6.551523   8.679522
    45  H    6.412330   7.065568   8.013435   7.096253   8.885827
    46  H    7.412285   8.115372   9.220987   7.968740  10.091956
                    6          7          8          9         10
     6  C    0.000000
     7  C    1.393159   0.000000
     8  H    3.846223   3.383838   0.000000
     9  H    2.136874   3.387990   4.273129   0.000000
    10  H    3.392145   2.158234   2.447229   4.939330   0.000000
    11  H    1.085496   2.136761   4.931597   2.476523   4.282318
    12  C    4.787318   5.072273   2.723239   3.906598   4.964734
    13  C    4.970144   5.127959   2.999038   4.362398   4.919591
    14  C    6.028246   6.255427   3.473306   5.066036   5.896877
    15  C    6.288157   6.315774   3.888594   5.740189   5.796131
    16  C    7.150822   7.263408   4.271976   6.280095   6.655597
    17  C    7.273180   7.298988   4.454703   6.576951   6.617456
    18  H    4.304018   4.485615   3.094737   3.898515   4.532513
    19  H    6.268715   6.559140   3.876666   5.200344   6.276072
    20  H    6.681453   6.636916   4.513187   6.300373   6.089638
    21  H    8.112631   8.211599   5.110115   7.194564   7.511921
    22  O    8.579678   8.535771   5.627410   7.923709   7.694111
    23  C    9.036868   8.925335   6.270385   8.533256   8.055174
    24  H    8.694243   8.433889   5.853378   8.450862   7.407773
    25  H    8.930493   8.941187   6.574455   8.309576   8.306016
    26  H   10.111106   9.973745   7.229132   9.592279   9.015560
    27  O    2.337924   1.362394   4.570867   4.474159   2.730641
    28  C    3.628055   2.371605   4.846490   5.730015   2.519887
    29  H    3.999704   2.700033   4.641639   5.999142   2.310333
    30  H    3.996793   2.699514   4.636763   6.002885   2.316413
    31  H    4.346640   3.253168   5.934897   6.483119   3.600273
    32  C    4.305630   5.070868   3.886083   2.746703   5.697170
    33  C    4.328423   5.093984   4.331818   2.995401   5.833571
    34  C    5.397766   6.282616   5.047366   3.532214   6.965503
    35  C    5.407769   6.289753   5.705696   3.902097   7.157241
    36  C    6.300998   7.286936   6.253445   4.334217   8.100382
    37  C    6.313776   7.299821   6.543939   4.497738   8.195545
    38  H    3.837617   4.416866   3.869147   3.056237   5.082731
    39  H    5.767113   6.604685   5.190246   3.943990   7.189165
    40  H    5.762462   6.591175   6.262546   4.509985   7.487926
    41  H    7.223979   8.248468   7.169393   5.182973   9.073973
    42  O    7.504733   8.538907   7.888221   5.673936   9.502497
    43  C    7.915225   8.908249   8.494393   6.298381   9.908950
    44  H    7.383975   8.422205   8.422019   5.872620   9.597564
    45  H    8.039809   8.897967   8.259430   6.590442   9.703673
    46  H    8.934420   9.962684   9.552905   7.263107  10.994226
                   11         12         13         14         15
    11  H    0.000000
    12  C    5.721900   0.000000
    13  C    5.879055   1.387040   0.000000
    14  C    6.975745   1.396337   2.389436   0.000000
    15  C    7.201686   2.419151   1.389112   2.769667   0.000000
    16  C    8.117250   2.412612   2.760165   1.377960   2.398450
    17  C    8.226987   2.800183   2.403325   2.405229   1.387565
    18  H    5.143848   2.139372   1.085848   3.375556   2.142954
    19  H    7.185457   2.148347   3.374402   1.085796   3.855437
    20  H    7.543763   3.389338   2.135457   3.853495   1.084090
    21  H    9.083640   3.401123   3.845551   2.148102   3.374809
    22  O    9.534654   4.159936   3.681515   3.613220   2.435338
    23  C    9.952835   5.025636   4.194483   4.775787   2.806365
    24  H    9.625807   5.079881   4.123016   5.008279   2.793633
    25  H    9.773598   5.076495   4.118402   5.006211   2.797258
    26  H   11.035827   6.007511   5.257118   5.606308   3.874307
    27  O    2.525801   6.414728   6.378205   7.598374   7.504363
    28  C    3.933238   7.076792   6.955781   8.169375   7.927359
    29  H    4.432627   6.870471   6.559108   7.968002   7.395103
    30  H    4.430892   7.077645   7.111002   8.037588   8.066200
    31  H    4.413468   8.118486   7.970414   9.236566   8.941974
    32  C    4.999018   2.448946   3.628289   2.957138   4.798387
    33  C    4.919455   3.624765   4.842139   3.994197   6.036261
    34  C    5.974839   2.960650   4.003839   3.195094   4.976216
    35  C    5.815709   4.795368   6.038478   4.965143   7.173179
    36  C    6.740901   4.295889   5.372596   4.322247   6.286983
    37  C    6.677510   5.070739   6.265246   5.103702   7.285246
    38  H    4.482822   3.905554   5.053892   4.366421   6.280882
    39  H    6.370255   2.721616   3.498135   2.964281   4.304779
    40  H    6.083921   5.709197   6.960647   5.862449   8.116882
    41  H    7.616673   4.983836   5.943997   4.903559   6.716743
    42  O    7.762493   6.382999   7.565745   6.312634   8.532105
    43  C    8.097093   7.354072   8.590793   7.297019   9.620742
    44  H    7.447420   7.503632   8.687951   7.636272   9.820644
    45  H    8.319015   7.310095   8.620321   7.128159   9.614753
    46  H    9.067947   8.295450   9.515465   8.179427  10.500233
                   16         17         18         19         20
    16  C    0.000000
    17  C    1.392568   0.000000
    18  H    3.845992   3.384031   0.000000
    19  H    2.136655   3.387527   4.273597   0.000000
    20  H    3.391799   2.158597   2.446931   4.939263   0.000000
    21  H    1.085479   2.136335   4.931355   2.475576   4.282217
    22  O    2.337895   1.362452   4.570830   4.473932   2.730685
    23  C    3.627821   2.371691   4.846087   5.729698   2.519725
    24  H    4.001129   2.701044   4.641913   6.001100   2.309421
    25  H    3.994868   2.698889   4.635640   6.000416   2.317082
    26  H    4.346553   3.253223   5.934504   6.482847   3.600096
    27  O    8.569559   8.536899   5.660536   7.904307   7.717631
    28  C    9.019180   8.917621   6.298897   8.510543   8.070516
    29  H    8.679462   8.427898   5.879028   8.431937   7.422567
    30  H    8.902859   8.922613   6.599325   8.280842   8.311637
    31  H   10.094981   9.968564   7.259256   9.569647   9.034549
    32  C    4.294743   5.071735   3.909088   2.713874   5.713416
    33  C    5.363880   6.259238   5.055947   3.484181   6.960289
    34  C    4.326800   5.112497   4.375636   2.956076   5.875108
    35  C    6.277043   7.279875   6.286194   4.286607   8.119542
    36  C    5.390223   6.296364   5.741236   3.841739   7.192625
    37  C    6.290325   7.299120   6.581680   4.438282   8.225833
    38  H    5.731174   6.572890   5.186030   3.908622   7.169217
    39  H    3.856224   4.456520   3.919317   3.033950   5.141189
    40  H    7.179918   8.217332   7.173118   5.122512   9.064841
    41  H    5.787356   6.648093   6.341153   4.477356   7.578431
    42  O    7.418492   8.469359   7.892636   5.585077   9.470880
    43  C    8.462707   9.566838   8.880515   6.487884  10.578876
    44  H    8.882452   9.911305   8.851257   6.901117  10.736786
    45  H    8.282226   9.468292   8.987425   6.223278  10.617613
    46  H    9.282735  10.397804   9.821472   7.360584  11.453875
                   21         22         23         24         25
    21  H    0.000000
    22  O    2.526094   0.000000
    23  C    3.933452   1.410380   0.000000
    24  H    4.434865   2.080919   1.096861   0.000000
    25  H    4.428987   2.080781   1.096769   1.788488   0.000000
    26  H    4.413884   2.008960   1.089954   1.781042   1.781092
    27  O    9.517963   9.730184  10.024118   9.449926  10.034113
    28  C    9.927884  10.013487  10.237726   9.544426  10.354174
    29  H    9.605079   9.441563   9.545979   8.788016   9.666977
    30  H    9.737273  10.010381  10.340743   9.653103  10.560461
    31  H   11.012028  11.055232  11.230104  10.513703  11.316580
    32  C    4.981383   6.384089   7.356101   7.506328   7.312633
    33  C    5.933035   7.559153   8.586140   8.683541   8.618004
    34  C    4.905793   6.322065   7.307493   7.647295   7.139148
    35  C    6.702929   8.525963   9.617441   9.817431   9.615028
    36  C    5.783857   7.425350   8.471822   8.891714   8.293562
    37  C    6.637684   8.469316   9.569839   9.914341   9.474840
    38  H    6.329244   7.882713   8.872327   8.843143   8.981707
    39  H    4.490037   5.604372   6.506779   6.920387   6.241038
    40  H    7.561485   9.461057  10.572076  10.729761  10.615168
    41  H    6.090211   7.664982   8.686341   9.217333   8.430578
    42  O    7.652903   9.573876  10.701563  11.115650  10.583666
    43  C    8.671962  10.697959  11.858303  12.212556  11.801605
    44  H    9.203109  11.112195  12.212984  12.492975  12.127253
    45  H    8.413989  10.575680  11.796676  12.121796  11.841682
    46  H    9.429472  11.480514  12.649827  13.063084  12.564653
                   26         27         28         29         30
    26  H    0.000000
    27  O   11.063008   0.000000
    28  C   11.226342   1.410417   0.000000
    29  H   10.512080   2.080812   1.096836   0.000000
    30  H   11.298139   2.080834   1.096776   1.788452   0.000000
    31  H   12.217509   2.009011   1.089952   1.781095   1.781128
    32  C    8.297009   6.383587   7.349392   7.500993   7.298084
    33  C    9.509808   6.303621   7.279052   7.618420   7.101587
    34  C    8.189337   7.584667   8.604881   8.705587   8.624903
    35  C   10.495426   7.417283   8.450238   8.872879   8.256664
    36  C    9.290980   8.536065   9.616749   9.820719   9.597803
    37  C   10.399426   8.471085   9.557699   9.906105   9.444377
    38  H    9.812236   5.563840   6.457610   6.869808   6.186277
    39  H    7.379267   7.917663   8.903661   8.879131   9.002253
    40  H   11.445268   7.604161   8.607578   9.141951   8.333853
    41  H    9.443246   9.494893  10.597054  10.764244  10.619765
    42  O   11.482506   9.655976  10.772233  11.174698  10.645945
    43  C   12.647989   9.922362  11.014458  11.533598  10.807357
    44  H   13.061807   9.339756  10.474559  11.062905  10.302929
    45  H   12.557594   9.920393  10.913631  11.439701  10.601274
    46  H   13.404444  10.962129  12.075013  12.601448  11.879352
                   31         32         33         34         35
    31  H    0.000000
    32  C    8.292387   0.000000
    33  C    8.164109   1.386816   0.000000
    34  C    9.531680   1.396945   2.389499   0.000000
    35  C    9.272535   2.419355   1.389687   2.769395   0.000000
    36  C   10.499458   2.412789   2.760178   1.377385   2.398091
    37  C   10.391762   2.800655   2.403586   2.405262   1.386962
    38  H    7.332865   2.140007   1.085772   3.376244   2.142599
    39  H    9.846333   2.148706   3.374349   1.085796   3.855157
    40  H    9.367587   3.389269   2.135626   3.853209   1.084082
    41  H   11.474241   3.401307   3.845570   2.147514   3.374393
    42  O   11.564323   4.160434   3.682081   3.612988   2.435248
    43  C   11.744523   5.026053   4.195071   4.775561   2.806345
    44  H   11.134249   5.078416   4.122477   5.005969   2.793186
    45  H   11.671319   5.078525   4.119902   5.007969   2.797569
    46  H   12.787474   6.007988   5.257725   5.606109   3.874292
                   36         37         38         39         40
    36  C    0.000000
    37  C    1.393012   0.000000
    38  H    3.845924   3.383525   0.000000
    39  H    2.136198   3.387631   4.274419   0.000000
    40  H    3.391636   2.158141   2.445694   4.938964   0.000000
    41  H    1.085484   2.136675   4.931288   2.474977   4.282047
    42  O    2.338103   1.362511   4.570472   4.473681   2.730923
    43  C    3.627962   2.371461   4.845435   5.729449   2.520071
    44  H    3.999431   2.699797   4.640380   5.998299   2.310212
    45  H    3.996616   2.699366   4.635523   6.002628   2.316798
    46  H    4.346811   3.253143   5.933872   6.482621   3.600444
                   41         42         43         44         45
    41  H    0.000000
    42  O    2.526122   0.000000
    43  C    3.933465   1.410363   0.000000
    44  H    4.432832   2.080837   1.096842   0.000000
    45  H    4.430877   2.080773   1.096798   1.788470   0.000000
    46  H    4.414039   2.008991   1.089958   1.781086   1.781119
                   46
    46  H    0.000000
 Stoichiometry    C21H21NO3(1+,2)
 Framework group  C1[X(C21H21NO3)]
 Deg. of freedom   132
 Full point group                 C1      NOp   1
 Largest Abelian subgroup         C1      NOp   1
 Largest concise Abelian subgroup C1      NOp   1
                         Standard orientation:                         
 ---------------------------------------------------------------------
 Center     Atomic      Atomic             Coordinates (Angstroms)
 Number     Number       Type             X           Y           Z
 ---------------------------------------------------------------------
      1          7           0       -0.054086   -0.063852    0.077784
      2          6           0        0.275154    1.311734    0.103506
      3          6           0        1.260864    1.827996   -0.723750
      4          6           0       -0.386136    2.184815    0.970218
      5          6           0        1.598383    3.175646   -0.688444
      6          6           0       -0.074578    3.526309    0.994438
      7          6           0        0.925199    4.034430    0.167909
      8          1           0        1.784639    1.164376   -1.405148
      9          1           0       -1.158634    1.797039    1.627427
     10          1           0        2.379443    3.537518   -1.347421
     11          1           0       -0.588854    4.206820    1.665799
     12          6           0        0.970368   -1.034170   -0.019727
     13          6           0        2.134785   -0.917605    0.724871
     14          6           0        0.835798   -2.133662   -0.869883
     15          6           0        3.151989   -1.858173    0.623575
     16          6           0        1.829783   -3.083911   -0.958163
     17          6           0        3.000538   -2.952780   -0.215611
     18          1           0        2.255494   -0.070395    1.393250
     19          1           0       -0.067506   -2.240735   -1.462783
     20          1           0        4.048238   -1.726663    1.219136
     21          1           0        1.725248   -3.941045   -1.615932
     22          8           0        3.928452   -3.936732   -0.380204
     23          6           0        5.121819   -3.840278    0.365278
     24          1           0        5.681123   -2.930405    0.115451
     25          1           0        4.925954   -3.859222    1.444250
     26          1           0        5.719913   -4.710923    0.096466
     27          8           0        1.168219    5.370782    0.273837
     28          6           0        2.170457    5.919716   -0.552884
     29          1           0        3.151069    5.472721   -0.348812
     30          1           0        1.930215    5.794071   -1.615623
     31          1           0        2.208574    6.983731   -0.319613
     32          6           0       -1.409258   -0.466483    0.091838
     33          6           0       -2.372325    0.232607   -0.620224
     34          6           0       -1.812213   -1.581496    0.830640
     35          6           0       -3.707828   -0.150755   -0.593850
     36          6           0       -3.129962   -1.982236    0.842322
     37          6           0       -4.092694   -1.267170    0.133583
     38          1           0       -2.078678    1.100647   -1.202616
     39          1           0       -1.073245   -2.139336    1.397822
     40          1           0       -4.429565    0.427687   -1.159301
     41          1           0       -3.443944   -2.850000    1.413878
     42          8           0       -5.369584   -1.734983    0.218075
     43          6           0       -6.368506   -1.037348   -0.492266
     44          1           0       -6.460713   -0.000869   -0.145468
     45          1           0       -6.173119   -1.041209   -1.571513
     46          1           0       -7.303574   -1.562500   -0.297656
 ---------------------------------------------------------------------
 Rotational constants (GHZ):           0.1829468           0.1651743           0.0911050
 Leave Link  202 at Sun Jan 17 02:51:17 2021, MaxMem=  4026531840 cpu:               0.3 elap:               0.1
 (Enter /opt/ohpc/pub/libs/gaussian/g16-A.03/sandybridge/g16/l301.exe)
 Standard basis: TZVP (5D, 7F)
 Ernie: Thresh=  0.10000D-02 Tol=  0.10000D-05 Strict=F.
 There are   626 symmetry adapted cartesian basis functions of A   symmetry.
 There are   601 symmetry adapted basis functions of A   symmetry.
   601 basis functions,  1043 primitive gaussians,   626 cartesian basis functions
    89 alpha electrons       88 beta electrons
       nuclear repulsion energy      2056.6778086010 Hartrees.
 IExCor=33909 DFT=T Ex+Corr=LC-wHPBE ExCW=0 ScaHFX=  1.000000
 ScaDFX=  1.000000  1.000000  1.000000  1.000000 ScalE2=  1.000000  1.000000
 IRadAn=      5 IRanWt=     -1 IRanGd=            0 ICorTp=0 IEmpDi=  4
 HFx  wShort=  0.000000 wLong=  0.184700 cFull=  0.000000 cShort=  0.000000 cLong=  1.000000
 DFx  wShort=  0.000000 wLong=  0.184700 cFull=  0.000000 cShort=  1.000000 cLong=  0.000000
 NAtoms=   46 NActive=   46 NUniq=   46 SFac= 1.00D+00 NAtFMM=   60 NAOKFM=F Big=F
 Integral buffers will be    131072 words long.
 Raffenetti 2 integral format.
 Two-electron integral symmetry is turned on.
 Leave Link  301 at Sun Jan 17 02:51:17 2021, MaxMem=  4026531840 cpu:               0.5 elap:               0.1
 (Enter /opt/ohpc/pub/libs/gaussian/g16-A.03/sandybridge/g16/l302.exe)
 NPDir=0 NMtPBC=     1 NCelOv=     1 NCel=       1 NClECP=     1 NCelD=      1
         NCelK=      1 NCelE2=     1 NClLst=     1 CellRange=     0.0.
 One-electron integrals computed using PRISM.
 One-electron integral symmetry used in STVInt
 NBasis=   601 RedAO= T EigKep=  7.47D-06  NBF=   601
 NBsUse=   601 1.00D-06 EigRej= -1.00D+00 NBFU=   601
 Precomputing XC quadrature grid using
 IXCGrd= 4 IRadAn=           5 IRanWt=          -1 IRanGd=           0 AccXCQ= 0.00D+00.
 Generated NRdTot=       0 NPtTot=           0 NUsed=           0 NTot=          32
 NSgBfM=   597   597   597   597   597 MxSgAt=    46 MxSgA2=    46.
 Leave Link  302 at Sun Jan 17 02:51:18 2021, MaxMem=  4026531840 cpu:               8.9 elap:               1.1
 (Enter /opt/ohpc/pub/libs/gaussian/g16-A.03/sandybridge/g16/l303.exe)
 DipDrv:  MaxL=1.
 Leave Link  303 at Sun Jan 17 02:51:18 2021, MaxMem=  4026531840 cpu:               1.0 elap:               0.2
 (Enter /opt/ohpc/pub/libs/gaussian/g16-A.03/sandybridge/g16/l401.exe)
 ExpMin= 9.52D-02 ExpMax= 2.70D+04 ExpMxC= 9.22D+02 IAcc=3 IRadAn=         5 AccDes= 0.00D+00
 Harris functional with IExCor=33909 and IRadAn=       5 diagonalized for initial guess.
 HarFok:  IExCor=33909 AccDes= 0.00D+00 IRadAn=         5 IDoV= 1 UseB2=F ITyADJ=14
 ICtDFT=  3500011 ScaDFX=  1.000000  1.000000  1.000000  1.000000
 FoFCou: FMM=F IPFlag=           0 FMFlag=      100000 FMFlg1=           0
         NFxFlg=           0 DoJE=T BraDBF=F KetDBF=T FulRan=T
         wScrn=  0.000000 ICntrl=       500 IOpCl=  0 I1Cent=   200000004 NGrid=           0
         NMat0=    1 NMatS0=      1 NMatT0=    0 NMatD0=    1 NMtDS0=    0 NMtDT0=    0
 Petite list used in FoFCou.
 Harris En= -1074.87125805270    
 JPrj=0 DoOrth=F DoCkMO=F.
 Initial guess <Sx>= 0.0000 <Sy>= 0.0000 <Sz>= 0.5000 <S**2>= 0.7500 S= 0.5000
 Leave Link  401 at Sun Jan 17 02:51:25 2021, MaxMem=  4026531840 cpu:              54.6 elap:               6.9
 (Enter /opt/ohpc/pub/libs/gaussian/g16-A.03/sandybridge/g16/l502.exe)
 Integral symmetry usage will be decided dynamically.
 UHF open shell SCF:
 Using DIIS extrapolation, IDIIS=    10.
 NGot=  4026531840 LenX=  4025736816 LenY=  4025344314
 Requested convergence on RMS density matrix=1.00D-06 within  32 cycles.
 Requested convergence on MAX density matrix=1.00D-04.
 Requested convergence on             energy=1.00D-04.
 Virtual orbitals will be shifted by   0.500 hartree.
 No special actions if energy rises.
 Dynamic level shift is on during FON iterations.

 Cycle   1  Pass 1  IDiag  1:
 FoFJK:  IHMeth= 1 ICntrl=       0 DoSepK=T KAlg= 0 I1Cent=           0 FoldK=F
 IRaf=         1 NMat=       1 IRICut=       1 DoRegI=T DoRafI=F ISym2E= 0 IDoP0=0 IntGTp=1.
 FoFCou: FMM=F IPFlag=           0 FMFlag=      100000 FMFlg1=           0
         NFxFlg=           0 DoJE=T BraDBF=F KetDBF=F FulRan=T
         wScrn=  0.000000 ICntrl=       500 IOpCl=  0 I1Cent=           0 NGrid=           0
         NMat0=    1 NMatS0=      1 NMatT0=    0 NMatD0=    1 NMtDS0=    0 NMtDT0=    0
 Symmetry not used in FoFCou.
 E= -1092.01364866326    
 DIIS: error= 2.72D-02 at cycle   1 NSaved=   1.
 NSaved= 1 IEnMin= 1 EnMin= -1092.01364866326     IErMin= 1 ErrMin= 2.72D-02
 ErrMax= 2.72D-02  0.00D+00 EMaxC= 1.00D+00 BMatC= 1.53D+00 BMatP= 1.53D+00
 IDIUse=1 WtCom= 1.00D+00 WtEn= 0.00D+00
 Coeff-Com:  0.100D+01
 Coeff:      0.100D+01
 Gap=     0.340 Goal=   None    Shift=    0.500
 T= 1436. Gap= 0.770 NK=0 IS=   90 IE=  601 IFin=   89
          NO(<0.9)=   0  NV(>0.1)=   0     89.00e < EF      0.00e >EF  Err=0.0D+00
 Gap=     0.128 Goal=   None    Shift=    0.500
 T= 1436. Gap= 0.614 NK=0 IS=   89 IE=  601 IFin=   88
          NO(<0.9)=   0  NV(>0.1)=   0     88.00e < EF      0.00e >EF  Err=0.0D+00
 GapD=    0.128 DampG=1.000 DampE=0.500 DampFc=0.5000 IDamp=-1.
 Damping current iteration by 5.00D-01
 RMSDP=2.03D-03 MaxDP=6.51D-02              OVMax= 6.97D-02

 Cycle   2  Pass 1  IDiag  1:
 E= -1092.23403312897     Delta-E=       -0.220384465717 Rises=F Damp=T
 DIIS: error= 1.20D-02 at cycle   2 NSaved=   2.
 NSaved= 2 IEnMin= 2 EnMin= -1092.23403312897     IErMin= 2 ErrMin= 1.20D-02
 ErrMax= 1.20D-02  0.00D+00 EMaxC= 1.00D+00 BMatC= 2.38D-01 BMatP= 1.53D+00
 IDIUse=1 WtCom= 1.00D+00 WtEn= 0.00D+00
 Coeff-Com: -0.489D+00 0.149D+01
 Coeff:     -0.489D+00 0.149D+01
 Gap=     0.292 Goal=   None    Shift=    0.500
 T= 1313. Gap= 0.758 NK=0 IS=   90 IE=  601 IFin=   89
          NO(<0.9)=   0  NV(>0.1)=   0     89.00e < EF      0.00e >EF  Err=0.0D+00
 Gap=     0.196 Goal=   None    Shift=    0.500
 T= 1313. Gap= 0.676 NK=0 IS=   89 IE=  601 IFin=   88
          NO(<0.9)=   0  NV(>0.1)=   0     88.00e < EF      0.00e >EF  Err=0.0D+00
 GapD=    0.196 DampG=1.000 DampE=0.500 DampFc=0.5000 IDamp=-1.
 Damping current iteration by 5.00D-01
 RMSDP=1.11D-03 MaxDP=4.44D-02 DE=-2.20D-01 OVMax= 2.44D-02

 Cycle   3  Pass 1  IDiag  1:
 E= -1092.30706190308     Delta-E=       -0.073028774108 Rises=F Damp=T
 DIIS: error= 5.24D-03 at cycle   3 NSaved=   3.
 NSaved= 3 IEnMin= 3 EnMin= -1092.30706190308     IErMin= 3 ErrMin= 5.24D-03
 ErrMax= 5.24D-03  0.00D+00 EMaxC= 1.00D+00 BMatC= 4.39D-02 BMatP= 2.38D-01
 IDIUse=1 WtCom= 1.00D+00 WtEn= 0.00D+00
 Coeff-Com:  0.517D-01-0.844D+00 0.179D+01
 Coeff:      0.517D-01-0.844D+00 0.179D+01
 Gap=     0.272 Goal=   None    Shift=    0.500
 T= 1072. Gap= 0.770 NK=4 IS=   90 IE=  100 IFin=   89
          NO(<0.9)=   0  NV(>0.1)=   0     89.00e < EF      0.00e >EF  Err=0.0D+00
 Gap=     0.167 Goal=   None    Shift=    0.500
 T= 1072. Gap= 0.666 NK=4 IS=   89 IE=  100 IFin=   88
          NO(<0.9)=   0  NV(>0.1)=   0     88.00e < EF      0.00e >EF  Err=0.0D+00
 GapD=    0.167 DampG=1.000 DampE=1.000 DampFc=1.0000 IDamp=-1.
 RMSDP=6.76D-04 MaxDP=3.38D-02 DE=-7.30D-02 OVMax= 9.56D-03

 Cycle   4  Pass 1  IDiag  1:
 E= -1092.36897568593     Delta-E=       -0.061913782848 Rises=F Damp=F
 DIIS: error= 1.63D-03 at cycle   4 NSaved=   4.
 NSaved= 4 IEnMin= 4 EnMin= -1092.36897568593     IErMin= 4 ErrMin= 1.63D-03
 ErrMax= 1.63D-03  0.00D+00 EMaxC= 1.00D+00 BMatC= 2.20D-03 BMatP= 4.39D-02
 IDIUse=1 WtCom= 1.00D+00 WtEn= 0.00D+00
 Coeff-Com:  0.673D-01-0.180D+00 0.161D+00 0.952D+00
 Coeff:      0.673D-01-0.180D+00 0.161D+00 0.952D+00
 Gap=     0.270 Goal=   None    Shift=    0.500
 T=  558. Gap= 0.770 NK=4 IS=   90 IE=  100 IFin=   89
          NO(<0.9)=   0  NV(>0.1)=   0     89.00e < EF      0.00e >EF  Err=0.0D+00
 Gap=     0.170 Goal=   None    Shift=    0.500
 T=  558. Gap= 0.670 NK=4 IS=   89 IE=  100 IFin=   88
          NO(<0.9)=   0  NV(>0.1)=   0     88.00e < EF      0.00e >EF  Err=0.0D+00
 GapD=    0.170 DampG=1.000 DampE=1.000 DampFc=1.0000 IDamp=-1.
 RMSDP=1.14D-04 MaxDP=3.46D-03 DE=-6.19D-02 OVMax= 7.31D-03

 Cycle   5  Pass 1  IDiag  1:
 E= -1092.36966690701     Delta-E=       -0.000691221086 Rises=F Damp=F
 DIIS: error= 1.11D-03 at cycle   5 NSaved=   5.
 NSaved= 5 IEnMin= 5 EnMin= -1092.36966690701     IErMin= 5 ErrMin= 1.11D-03
 ErrMax= 1.11D-03  0.00D+00 EMaxC= 1.00D+00 BMatC= 3.94D-04 BMatP= 2.20D-03
 IDIUse=1 WtCom= 1.00D+00 WtEn= 0.00D+00
 Coeff-Com:  0.137D-01 0.286D-01-0.120D+00-0.758D-01 0.115D+01
 Coeff:      0.137D-01 0.286D-01-0.120D+00-0.758D-01 0.115D+01
 Gap=     0.270 Goal=   None    Shift=    0.500
 T=   42. Gap= 0.770 NK=4 IS=   90 IE=  100 IFin=   89
          NO(<0.9)=   0  NV(>0.1)=   0     89.00e < EF      0.00e >EF  Err=0.0D+00
 Gap=     0.171 Goal=   None    Shift=    0.500
 T=   42. Gap= 0.671 NK=4 IS=   89 IE=  100 IFin=   88
          NO(<0.9)=   0  NV(>0.1)=   0     88.00e < EF      0.00e >EF  Err=0.0D+00
 GapD=    0.171 DampG=1.000 DampE=1.000 DampFc=1.0000 IDamp=-1.
 RMSDP=7.53D-05 MaxDP=2.09D-03 DE=-6.91D-04 OVMax= 6.29D-03

 Cycle   6  Pass 1  IDiag  1:
 E= -1092.36992092923     Delta-E=       -0.000254022215 Rises=F Damp=F
 DIIS: error= 9.20D-04 at cycle   6 NSaved=   6.
 NSaved= 6 IEnMin= 6 EnMin= -1092.36992092923     IErMin= 6 ErrMin= 9.20D-04
 ErrMax= 9.20D-04  0.00D+00 EMaxC= 1.00D+00 BMatC= 1.30D-04 BMatP= 3.94D-04
 IDIUse=1 WtCom= 1.00D+00 WtEn= 0.00D+00
 Coeff-Com: -0.161D-01 0.644D-01-0.869D-01-0.261D+00-0.326D-01 0.133D+01
 Coeff:     -0.161D-01 0.644D-01-0.869D-01-0.261D+00-0.326D-01 0.133D+01
 Gap=     0.271 Goal=   None    Shift=    0.500
 Gap=     0.172 Goal=   None    Shift=    0.500
 RMSDP=4.70D-05 MaxDP=1.22D-03 DE=-2.54D-04 OVMax= 5.72D-03

 Cycle   7  Pass 1  IDiag  1:
 E= -1092.37006388246     Delta-E=       -0.000142953233 Rises=F Damp=F
 DIIS: error= 7.71D-04 at cycle   7 NSaved=   7.
 NSaved= 7 IEnMin= 7 EnMin= -1092.37006388246     IErMin= 7 ErrMin= 7.71D-04
 ErrMax= 7.71D-04  0.00D+00 EMaxC= 1.00D+00 BMatC= 6.80D-05 BMatP= 1.30D-04
 IDIUse=1 WtCom= 1.00D+00 WtEn= 0.00D+00
 Coeff-Com: -0.107D-01 0.123D-01 0.941D-02-0.479D-01-0.422D+00-0.128D+00
 Coeff-Com:  0.159D+01
 Coeff:     -0.107D-01 0.123D-01 0.941D-02-0.479D-01-0.422D+00-0.128D+00
 Coeff:      0.159D+01
 Gap=     0.271 Goal=   None    Shift=    0.500
 Gap=     0.173 Goal=   None    Shift=    0.500
 RMSDP=2.99D-05 MaxDP=8.89D-04 DE=-1.43D-04 OVMax= 5.30D-03

 Cycle   8  Pass 1  IDiag  1:
 E= -1092.37015606336     Delta-E=       -0.000092180902 Rises=F Damp=F
 DIIS: error= 6.73D-04 at cycle   8 NSaved=   8.
 NSaved= 8 IEnMin= 8 EnMin= -1092.37015606336     IErMin= 8 ErrMin= 6.73D-04
 ErrMax= 6.73D-04  0.00D+00 EMaxC= 1.00D+00 BMatC= 4.00D-05 BMatP= 6.80D-05
 IDIUse=1 WtCom= 1.00D+00 WtEn= 0.00D+00
 Coeff-Com:  0.306D-02-0.308D-01 0.548D-01 0.124D+00-0.238D+00-0.998D+00
 Coeff-Com:  0.563D+00 0.152D+01
 Coeff:      0.306D-02-0.308D-01 0.548D-01 0.124D+00-0.238D+00-0.998D+00
 Coeff:      0.563D+00 0.152D+01
 Gap=     0.271 Goal=   None    Shift=    0.500
 Gap=     0.174 Goal=   None    Shift=    0.500
 RMSDP=2.10D-05 MaxDP=7.73D-04 DE=-9.22D-05 OVMax= 5.00D-03

 Cycle   9  Pass 1  IDiag  1:
 E= -1092.37021874683     Delta-E=       -0.000062683468 Rises=F Damp=F
 DIIS: error= 5.49D-04 at cycle   9 NSaved=   9.
 NSaved= 9 IEnMin= 9 EnMin= -1092.37021874683     IErMin= 9 ErrMin= 5.49D-04
 ErrMax= 5.49D-04  0.00D+00 EMaxC= 1.00D+00 BMatC= 2.08D-05 BMatP= 4.00D-05
 IDIUse=1 WtCom= 1.00D+00 WtEn= 0.00D+00
 Coeff-Com:  0.561D-02-0.160D-01 0.143D-01 0.324D-01 0.182D+00-0.292D+00
 Coeff-Com: -0.691D+00-0.426D+00 0.219D+01
 Coeff:      0.561D-02-0.160D-01 0.143D-01 0.324D-01 0.182D+00-0.292D+00
 Coeff:     -0.691D+00-0.426D+00 0.219D+01
 Gap=     0.271 Goal=   None    Shift=    0.500
 Gap=     0.175 Goal=   None    Shift=    0.500
 RMSDP=1.45D-05 MaxDP=6.91D-04 DE=-6.27D-05 OVMax= 4.39D-03

 Cycle  10  Pass 1  IDiag  1:
 E= -1092.37025793644     Delta-E=       -0.000039189606 Rises=F Damp=F
 DIIS: error= 4.46D-04 at cycle  10 NSaved=  10.
 NSaved=10 IEnMin=10 EnMin= -1092.37025793644     IErMin=10 ErrMin= 4.46D-04
 ErrMax= 4.46D-04  0.00D+00 EMaxC= 1.00D+00 BMatC= 1.17D-05 BMatP= 2.08D-05
 IDIUse=1 WtCom= 1.00D+00 WtEn= 0.00D+00
 Coeff-Com:  0.127D-02-0.266D-02 0.112D-02-0.391D-01 0.141D+00 0.148D+00
 Coeff-Com: -0.459D+00-0.496D+00-0.226D+00 0.193D+01
 Coeff:      0.127D-02-0.266D-02 0.112D-02-0.391D-01 0.141D+00 0.148D+00
 Coeff:     -0.459D+00-0.496D+00-0.226D+00 0.193D+01
 Gap=     0.271 Goal=   None    Shift=    0.500
 Gap=     0.175 Goal=   None    Shift=    0.500
 RMSDP=1.01D-05 MaxDP=4.91D-04 DE=-3.92D-05 OVMax= 3.44D-03

 Cycle  11  Pass 1  IDiag  1:
 E= -1092.37027930188     Delta-E=       -0.000021365443 Rises=F Damp=F
 DIIS: error= 3.48D-04 at cycle  11 NSaved=  11.
 NSaved=11 IEnMin=11 EnMin= -1092.37027930188     IErMin=11 ErrMin= 3.48D-04
 ErrMax= 3.48D-04  0.00D+00 EMaxC= 1.00D+00 BMatC= 6.91D-06 BMatP= 1.17D-05
 IDIUse=1 WtCom= 1.00D+00 WtEn= 0.00D+00
 Coeff-Com: -0.198D-02 0.774D-03 0.516D-02-0.446D-01-0.478D-01 0.218D+00
 Coeff-Com:  0.212D+00 0.788D-01-0.175D+01 0.101D+00 0.223D+01
 Coeff:     -0.198D-02 0.774D-03 0.516D-02-0.446D-01-0.478D-01 0.218D+00
 Coeff:      0.212D+00 0.788D-01-0.175D+01 0.101D+00 0.223D+01
 Gap=     0.272 Goal=   None    Shift=    0.500
 Gap=     0.175 Goal=   None    Shift=    0.500
 RMSDP=8.43D-06 MaxDP=4.02D-04 DE=-2.14D-05 OVMax= 2.72D-03

 Cycle  12  Pass 1  IDiag  1:
 E= -1092.37029135268     Delta-E=       -0.000012050799 Rises=F Damp=F
 DIIS: error= 2.82D-04 at cycle  12 NSaved=  12.
 NSaved=12 IEnMin=12 EnMin= -1092.37029135268     IErMin=12 ErrMin= 2.82D-04
 ErrMax= 2.82D-04  0.00D+00 EMaxC= 1.00D+00 BMatC= 4.48D-06 BMatP= 6.91D-06
 IDIUse=1 WtCom= 1.00D+00 WtEn= 0.00D+00
 Coeff-Com:  0.257D-03-0.997D-02 0.190D-01-0.431D-02-0.977D-01-0.845D-01
 Coeff-Com:  0.412D+00 0.357D+00-0.470D+00-0.166D+01 0.497D+00 0.204D+01
 Coeff:      0.257D-03-0.997D-02 0.190D-01-0.431D-02-0.977D-01-0.845D-01
 Coeff:      0.412D+00 0.357D+00-0.470D+00-0.166D+01 0.497D+00 0.204D+01
 Gap=     0.272 Goal=   None    Shift=    0.500
 Gap=     0.175 Goal=   None    Shift=    0.500
 RMSDP=5.91D-06 MaxDP=3.04D-04 DE=-1.21D-05 OVMax= 2.13D-03

 Cycle  13  Pass 1  IDiag  1:
 E= -1092.37029773374     Delta-E=       -0.000006381060 Rises=F Damp=F
 DIIS: error= 2.12D-04 at cycle  13 NSaved=  13.
 NSaved=13 IEnMin=13 EnMin= -1092.37029773374     IErMin=13 ErrMin= 2.12D-04
 ErrMax= 2.12D-04  0.00D+00 EMaxC= 1.00D+00 BMatC= 2.59D-06 BMatP= 4.48D-06
 IDIUse=1 WtCom= 1.00D+00 WtEn= 0.00D+00
 Coeff-Com:  0.163D-02-0.959D-02 0.137D-01 0.764D-02-0.484D-02-0.143D+00
 Coeff-Com:  0.625D-01 0.658D-01 0.684D+00-0.824D+00-0.567D+00-0.796D+00
 Coeff-Com:  0.251D+01
 Coeff:      0.163D-02-0.959D-02 0.137D-01 0.764D-02-0.484D-02-0.143D+00
 Coeff:      0.625D-01 0.658D-01 0.684D+00-0.824D+00-0.567D+00-0.796D+00
 Coeff:      0.251D+01
 Gap=     0.272 Goal=   None    Shift=    0.500
 Gap=     0.175 Goal=   None    Shift=    0.500
 RMSDP=4.23D-06 MaxDP=2.03D-04 DE=-6.38D-06 OVMax= 1.57D-03

 Cycle  14  Pass 1  IDiag  1:
 E= -1092.37030092971     Delta-E=       -0.000003195969 Rises=F Damp=F
 DIIS: error= 1.62D-04 at cycle  14 NSaved=  14.
 NSaved=14 IEnMin=14 EnMin= -1092.37030092971     IErMin=14 ErrMin= 1.62D-04
 ErrMax= 1.62D-04  0.00D+00 EMaxC= 1.00D+00 BMatC= 1.47D-06 BMatP= 2.59D-06
 IDIUse=1 WtCom= 1.00D+00 WtEn= 0.00D+00
 Coeff-Com:  0.884D-03-0.224D-02 0.136D-02-0.204D-02 0.533D-01-0.290D-01
 Coeff-Com: -0.179D+00-0.143D+00 0.557D+00 0.426D+00-0.412D+00-0.199D+01
 Coeff-Com:  0.826D+00 0.189D+01
 Coeff:      0.884D-03-0.224D-02 0.136D-02-0.204D-02 0.533D-01-0.290D-01
 Coeff:     -0.179D+00-0.143D+00 0.557D+00 0.426D+00-0.412D+00-0.199D+01
 Coeff:      0.826D+00 0.189D+01
 Gap=     0.272 Goal=   None    Shift=    0.500
 Gap=     0.175 Goal=   None    Shift=    0.500
 RMSDP=2.94D-06 MaxDP=1.29D-04 DE=-3.20D-06 OVMax= 1.16D-03

 Cycle  15  Pass 1  IDiag  1:
 E= -1092.37030256233     Delta-E=       -0.000001632618 Rises=F Damp=F
 DIIS: error= 1.21D-04 at cycle  15 NSaved=  15.
 NSaved=15 IEnMin=15 EnMin= -1092.37030256233     IErMin=15 ErrMin= 1.21D-04
 ErrMax= 1.21D-04  0.00D+00 EMaxC= 1.00D+00 BMatC= 7.64D-07 BMatP= 1.47D-06
 IDIUse=1 WtCom= 1.00D+00 WtEn= 0.00D+00
 Coeff-Com: -0.431D-03 0.112D-02-0.776D-03-0.959D-02 0.313D-02 0.592D-01
 Coeff-Com: -0.254D-01 0.107D-01-0.391D+00 0.369D+00 0.392D+00 0.346D-01
 Coeff-Com: -0.112D+01-0.116D+01 0.284D+01
 Coeff:     -0.431D-03 0.112D-02-0.776D-03-0.959D-02 0.313D-02 0.592D-01
 Coeff:     -0.254D-01 0.107D-01-0.391D+00 0.369D+00 0.392D+00 0.346D-01
 Coeff:     -0.112D+01-0.116D+01 0.284D+01
 Gap=     0.272 Goal=   None    Shift=    0.500
 Gap=     0.175 Goal=   None    Shift=    0.500
 RMSDP=2.11D-06 MaxDP=9.23D-05 DE=-1.63D-06 OVMax= 8.74D-04

 Cycle  16  Pass 1  IDiag  1:
 E= -1092.37030342387     Delta-E=       -0.000000861545 Rises=F Damp=F
 DIIS: error= 9.12D-05 at cycle  16 NSaved=  16.
 NSaved=16 IEnMin=16 EnMin= -1092.37030342387     IErMin=16 ErrMin= 9.12D-05
 ErrMax= 9.12D-05  0.00D+00 EMaxC= 1.00D+00 BMatC= 4.31D-07 BMatP= 7.64D-07
 IDIUse=1 WtCom= 1.00D+00 WtEn= 0.00D+00
 Coeff-Com: -0.321D-03-0.310D-03 0.175D-02-0.745D-02-0.131D-01 0.308D-01
 Coeff-Com:  0.599D-01 0.407D-01-0.364D+00 0.341D-01 0.357D+00 0.486D+00
 Coeff-Com: -0.729D+00-0.123D+01 0.772D+00 0.157D+01
 Coeff:     -0.321D-03-0.310D-03 0.175D-02-0.745D-02-0.131D-01 0.308D-01
 Coeff:      0.599D-01 0.407D-01-0.364D+00 0.341D-01 0.357D+00 0.486D+00
 Coeff:     -0.729D+00-0.123D+01 0.772D+00 0.157D+01
 Gap=     0.272 Goal=   None    Shift=    0.500
 Gap=     0.175 Goal=   None    Shift=    0.500
 RMSDP=1.42D-06 MaxDP=7.15D-05 DE=-8.62D-07 OVMax= 6.40D-04

 Cycle  17  Pass 1  IDiag  1:
 E= -1092.37030388190     Delta-E=       -0.000000458026 Rises=F Damp=F
 DIIS: error= 6.88D-05 at cycle  17 NSaved=  17.
 NSaved=17 IEnMin=17 EnMin= -1092.37030388190     IErMin=17 ErrMin= 6.88D-05
 ErrMax= 6.88D-05  0.00D+00 EMaxC= 1.00D+00 BMatC= 2.37D-07 BMatP= 4.31D-07
 IDIUse=1 WtCom= 1.00D+00 WtEn= 0.00D+00
 Coeff-Com:  0.150D-03-0.182D-02 0.316D-02-0.120D-02-0.982D-02-0.207D-01
 Coeff-Com:  0.708D-01 0.682D-02 0.110D-01-0.225D+00 0.195D-01 0.210D+00
 Coeff-Com:  0.311D+00-0.164D+00-0.152D+01 0.479D+00 0.183D+01
 Coeff:      0.150D-03-0.182D-02 0.316D-02-0.120D-02-0.982D-02-0.207D-01
 Coeff:      0.708D-01 0.682D-02 0.110D-01-0.225D+00 0.195D-01 0.210D+00
 Coeff:      0.311D+00-0.164D+00-0.152D+01 0.479D+00 0.183D+01
 Gap=     0.272 Goal=   None    Shift=    0.500
 Gap=     0.175 Goal=   None    Shift=    0.500
 RMSDP=1.03D-06 MaxDP=5.70D-05 DE=-4.58D-07 OVMax= 4.91D-04

 Cycle  18  Pass 1  IDiag  1:
 E= -1092.37030415041     Delta-E=       -0.000000268511 Rises=F Damp=F
 DIIS: error= 5.16D-05 at cycle  18 NSaved=  18.
 NSaved=18 IEnMin=18 EnMin= -1092.37030415041     IErMin=18 ErrMin= 5.16D-05
 ErrMax= 5.16D-05  0.00D+00 EMaxC= 1.00D+00 BMatC= 1.33D-07 BMatP= 2.37D-07
 IDIUse=1 WtCom= 1.00D+00 WtEn= 0.00D+00
 Coeff-Com:  0.257D-03-0.122D-02 0.155D-02 0.794D-03 0.339D-02-0.195D-01
 Coeff-Com:  0.113D-02-0.229D-01 0.170D+00-0.944D-01-0.127D+00-0.266D+00
 Coeff-Com:  0.572D+00 0.437D+00-0.977D+00-0.829D+00 0.167D+00 0.198D+01
 Coeff:      0.257D-03-0.122D-02 0.155D-02 0.794D-03 0.339D-02-0.195D-01
 Coeff:      0.113D-02-0.229D-01 0.170D+00-0.944D-01-0.127D+00-0.266D+00
 Coeff:      0.572D+00 0.437D+00-0.977D+00-0.829D+00 0.167D+00 0.198D+01
 Gap=     0.272 Goal=   None    Shift=    0.500
 Gap=     0.175 Goal=   None    Shift=    0.500
 RMSDP=7.78D-07 MaxDP=4.31D-05 DE=-2.69D-07 OVMax= 3.75D-04

 SCF Done:  E(ULC-wHPBE) =  -1092.37030415     A.U. after   18 cycles
            NFock= 18  Conv=0.78D-06     -V/T= 2.0043
 <Sx>= 0.0000 <Sy>= 0.0000 <Sz>= 0.5000 <S**2>= 0.7642 S= 0.5071
 <L.S>= 0.000000000000E+00
 KE= 1.087697976514D+03 PE=-6.636585408319D+03 EE= 2.399839319053D+03
 Annihilation of the first spin contaminant:
 S**2 before annihilation     0.7642,   after     0.7502
 Leave Link  502 at Sun Jan 17 03:08:20 2021, MaxMem=  4026531840 cpu:            8090.9 elap:            1015.0
 (Enter /opt/ohpc/pub/libs/gaussian/g16-A.03/sandybridge/g16/l508.exe)
 QCSCF skips out because SCF is already converged.
 Leave Link  508 at Sun Jan 17 03:08:20 2021, MaxMem=  4026531840 cpu:               0.1 elap:               0.0
 (Enter /opt/ohpc/pub/libs/gaussian/g16-A.03/sandybridge/g16/l601.exe)
 Copying SCF densities to generalized density rwf, IOpCl= 1 IROHF=0.

 **********************************************************************

            Population analysis using the SCF density.

 **********************************************************************

 Orbital symmetries:
 Alpha Orbitals:
       Occupied  (A) (A) (A) (A) (A) (A) (A) (A) (A) (A) (A) (A)
                 (A) (A) (A) (A) (A) (A) (A) (A) (A) (A) (A) (A)
                 (A) (A) (A) (A) (A) (A) (A) (A) (A) (A) (A) (A)
                 (A) (A) (A) (A) (A) (A) (A) (A) (A) (A) (A) (A)
                 (A) (A) (A) (A) (A) (A) (A) (A) (A) (A) (A) (A)
                 (A) (A) (A) (A) (A) (A) (A) (A) (A) (A) (A) (A)
                 (A) (A) (A) (A) (A) (A) (A) (A) (A) (A) (A) (A)
                 (A) (A) (A) (A) (A)
       Virtual   (A) (A) (A) (A) (A) (A) (A) (A) (A) (A) (A) (A)
                 (A) (A) (A) (A) (A) (A) (A) (A) (A) (A) (A) (A)
                 (A) (A) (A) (A) (A) (A) (A) (A) (A) (A) (A) (A)
                 (A) (A) (A) (A) (A) (A) (A) (A) (A) (A) (A) (A)
                 (A) (A) (A) (A) (A) (A) (A) (A) (A) (A) (A) (A)
                 (A) (A) (A) (A) (A) (A) (A) (A) (A) (A) (A) (A)
                 (A) (A) (A) (A) (A) (A) (A) (A) (A) (A) (A) (A)
                 (A) (A) (A) (A) (A) (A) (A) (A) (A) (A) (A) (A)
                 (A) (A) (A) (A) (A) (A) (A) (A) (A) (A) (A) (A)
                 (A) (A) (A) (A) (A) (A) (A) (A) (A) (A) (A) (A)
                 (A) (A) (A) (A) (A) (A) (A) (A) (A) (A) (A) (A)
                 (A) (A) (A) (A) (A) (A) (A) (A) (A) (A) (A) (A)
                 (A) (A) (A) (A) (A) (A) (A) (A) (A) (A) (A) (A)
                 (A) (A) (A) (A) (A) (A) (A) (A) (A) (A) (A) (A)
                 (A) (A) (A) (A) (A) (A) (A) (A) (A) (A) (A) (A)
                 (A) (A) (A) (A) (A) (A) (A) (A) (A) (A) (A) (A)
                 (A) (A) (A) (A) (A) (A) (A) (A) (A) (A) (A) (A)
                 (A) (A) (A) (A) (A) (A) (A) (A) (A) (A) (A) (A)
                 (A) (A) (A) (A) (A) (A) (A) (A) (A) (A) (A) (A)
                 (A) (A) (A) (A) (A) (A) (A) (A) (A) (A) (A) (A)
                 (A) (A) (A) (A) (A) (A) (A) (A) (A) (A) (A) (A)
                 (A) (A) (A) (A) (A) (A) (A) (A) (A) (A) (A) (A)
                 (A) (A) (A) (A) (A) (A) (A) (A) (A) (A) (A) (A)
                 (A) (A) (A) (A) (A) (A) (A) (A) (A) (A) (A) (A)
                 (A) (A) (A) (A) (A) (A) (A) (A) (A) (A) (A) (A)
                 (A) (A) (A) (A) (A) (A) (A) (A) (A) (A) (A) (A)
                 (A) (A) (A) (A) (A) (A) (A) (A) (A) (A) (A) (A)
                 (A) (A) (A) (A) (A) (A) (A) (A) (A) (A) (A) (A)
                 (A) (A) (A) (A) (A) (A) (A) (A) (A) (A) (A) (A)
                 (A) (A) (A) (A) (A) (A) (A) (A) (A) (A) (A) (A)
                 (A) (A) (A) (A) (A) (A) (A) (A) (A) (A) (A) (A)
                 (A) (A) (A) (A) (A) (A) (A) (A) (A) (A) (A) (A)
                 (A) (A) (A) (A) (A) (A) (A) (A) (A) (A) (A) (A)
                 (A) (A) (A) (A) (A) (A) (A) (A) (A) (A) (A) (A)
                 (A) (A) (A) (A) (A) (A) (A) (A) (A) (A) (A) (A)
                 (A) (A) (A) (A) (A) (A) (A) (A) (A) (A) (A) (A)
                 (A) (A) (A) (A) (A) (A) (A) (A) (A) (A) (A) (A)
                 (A) (A) (A) (A) (A) (A) (A) (A) (A) (A) (A) (A)
                 (A) (A) (A) (A) (A) (A) (A) (A) (A) (A) (A) (A)
                 (A) (A) (A) (A) (A) (A) (A) (A) (A) (A) (A) (A)
                 (A) (A) (A) (A) (A) (A) (A) (A) (A) (A) (A) (A)
                 (A) (A) (A) (A) (A) (A) (A) (A) (A) (A) (A) (A)
                 (A) (A) (A) (A) (A) (A) (A) (A)
 Beta  Orbitals:
       Occupied  (A) (A) (A) (A) (A) (A) (A) (A) (A) (A) (A) (A)
                 (A) (A) (A) (A) (A) (A) (A) (A) (A) (A) (A) (A)
                 (A) (A) (A) (A) (A) (A) (A) (A) (A) (A) (A) (A)
                 (A) (A) (A) (A) (A) (A) (A) (A) (A) (A) (A) (A)
                 (A) (A) (A) (A) (A) (A) (A) (A) (A) (A) (A) (A)
                 (A) (A) (A) (A) (A) (A) (A) (A) (A) (A) (A) (A)
                 (A) (A) (A) (A) (A) (A) (A) (A) (A) (A) (A) (A)
                 (A) (A) (A) (A)
       Virtual   (A) (A) (A) (A) (A) (A) (A) (A) (A) (A) (A) (A)
                 (A) (A) (A) (A) (A) (A) (A) (A) (A) (A) (A) (A)
                 (A) (A) (A) (A) (A) (A) (A) (A) (A) (A) (A) (A)
                 (A) (A) (A) (A) (A) (A) (A) (A) (A) (A) (A) (A)
                 (A) (A) (A) (A) (A) (A) (A) (A) (A) (A) (A) (A)
                 (A) (A) (A) (A) (A) (A) (A) (A) (A) (A) (A) (A)
                 (A) (A) (A) (A) (A) (A) (A) (A) (A) (A) (A) (A)
                 (A) (A) (A) (A) (A) (A) (A) (A) (A) (A) (A) (A)
                 (A) (A) (A) (A) (A) (A) (A) (A) (A) (A) (A) (A)
                 (A) (A) (A) (A) (A) (A) (A) (A) (A) (A) (A) (A)
                 (A) (A) (A) (A) (A) (A) (A) (A) (A) (A) (A) (A)
                 (A) (A) (A) (A) (A) (A) (A) (A) (A) (A) (A) (A)
                 (A) (A) (A) (A) (A) (A) (A) (A) (A) (A) (A) (A)
                 (A) (A) (A) (A) (A) (A) (A) (A) (A) (A) (A) (A)
                 (A) (A) (A) (A) (A) (A) (A) (A) (A) (A) (A) (A)
                 (A) (A) (A) (A) (A) (A) (A) (A) (A) (A) (A) (A)
                 (A) (A) (A) (A) (A) (A) (A) (A) (A) (A) (A) (A)
                 (A) (A) (A) (A) (A) (A) (A) (A) (A) (A) (A) (A)
                 (A) (A) (A) (A) (A) (A) (A) (A) (A) (A) (A) (A)
                 (A) (A) (A) (A) (A) (A) (A) (A) (A) (A) (A) (A)
                 (A) (A) (A) (A) (A) (A) (A) (A) (A) (A) (A) (A)
                 (A) (A) (A) (A) (A) (A) (A) (A) (A) (A) (A) (A)
                 (A) (A) (A) (A) (A) (A) (A) (A) (A) (A) (A) (A)
                 (A) (A) (A) (A) (A) (A) (A) (A) (A) (A) (A) (A)
                 (A) (A) (A) (A) (A) (A) (A) (A) (A) (A) (A) (A)
                 (A) (A) (A) (A) (A) (A) (A) (A) (A) (A) (A) (A)
                 (A) (A) (A) (A) (A) (A) (A) (A) (A) (A) (A) (A)
                 (A) (A) (A) (A) (A) (A) (A) (A) (A) (A) (A) (A)
                 (A) (A) (A) (A) (A) (A) (A) (A) (A) (A) (A) (A)
                 (A) (A) (A) (A) (A) (A) (A) (A) (A) (A) (A) (A)
                 (A) (A) (A) (A) (A) (A) (A) (A) (A) (A) (A) (A)
                 (A) (A) (A) (A) (A) (A) (A) (A) (A) (A) (A) (A)
                 (A) (A) (A) (A) (A) (A) (A) (A) (A) (A) (A) (A)
                 (A) (A) (A) (A) (A) (A) (A) (A) (A) (A) (A) (A)
                 (A) (A) (A) (A) (A) (A) (A) (A) (A) (A) (A) (A)
                 (A) (A) (A) (A) (A) (A) (A) (A) (A) (A) (A) (A)
                 (A) (A) (A) (A) (A) (A) (A) (A) (A) (A) (A) (A)
                 (A) (A) (A) (A) (A) (A) (A) (A) (A) (A) (A) (A)
                 (A) (A) (A) (A) (A) (A) (A) (A) (A) (A) (A) (A)
                 (A) (A) (A) (A) (A) (A) (A) (A) (A) (A) (A) (A)
                 (A) (A) (A) (A) (A) (A) (A) (A) (A) (A) (A) (A)
                 (A) (A) (A) (A) (A) (A) (A) (A) (A) (A) (A) (A)
                 (A) (A) (A) (A) (A) (A) (A) (A) (A)
 The electronic state is 2-A.
 Alpha  occ. eigenvalues --  -19.00715 -19.00695 -19.00693 -14.30889 -10.17809
 Alpha  occ. eigenvalues --  -10.17786 -10.17773 -10.16466 -10.16465 -10.16455
 Alpha  occ. eigenvalues --  -10.13738 -10.13697 -10.13658 -10.12919 -10.12890
 Alpha  occ. eigenvalues --  -10.12878 -10.12561 -10.12537 -10.12510 -10.11704
 Alpha  occ. eigenvalues --  -10.11668 -10.11658 -10.11292 -10.11272 -10.11244
 Alpha  occ. eigenvalues --   -1.20706  -1.20679  -1.20667  -1.15759  -1.02859
 Alpha  occ. eigenvalues --   -1.02846  -1.00833  -0.93789  -0.93636  -0.92026
 Alpha  occ. eigenvalues --   -0.91872  -0.91585  -0.89783  -0.86304  -0.85823
 Alpha  occ. eigenvalues --   -0.83712  -0.80628  -0.79468  -0.78843  -0.77528
 Alpha  occ. eigenvalues --   -0.76754  -0.74508  -0.72606  -0.72576  -0.70206
 Alpha  occ. eigenvalues --   -0.69113  -0.69069  -0.67840  -0.65762  -0.65552
 Alpha  occ. eigenvalues --   -0.63164  -0.63141  -0.63093  -0.62452  -0.62402
 Alpha  occ. eigenvalues --   -0.62331  -0.60396  -0.60255  -0.60239  -0.59887
 Alpha  occ. eigenvalues --   -0.59512  -0.58204  -0.58179  -0.57224  -0.57050
 Alpha  occ. eigenvalues --   -0.56823  -0.56788  -0.56762  -0.54520  -0.53259
 Alpha  occ. eigenvalues --   -0.53208  -0.52446  -0.50756  -0.50648  -0.49549
 Alpha  occ. eigenvalues --   -0.49445  -0.49421  -0.46980  -0.45759  -0.44819
 Alpha  occ. eigenvalues --   -0.44629  -0.41631  -0.41493  -0.37506
 Alpha virt. eigenvalues --   -0.10353  -0.09075  -0.08967  -0.08124  -0.07976
 Alpha virt. eigenvalues --   -0.04725  -0.01041   0.00300   0.00425   0.01162
 Alpha virt. eigenvalues --    0.01358   0.01956   0.02866   0.02987   0.03353
 Alpha virt. eigenvalues --    0.03543   0.04319   0.04334   0.04611   0.06353
 Alpha virt. eigenvalues --    0.06518   0.06834   0.07091   0.07335   0.07780
 Alpha virt. eigenvalues --    0.07840   0.07949   0.08047   0.08225   0.08424
 Alpha virt. eigenvalues --    0.08488   0.08896   0.09387   0.09665   0.11981
 Alpha virt. eigenvalues --    0.12483   0.12638   0.13400   0.13834   0.14225
 Alpha virt. eigenvalues --    0.14856   0.14876   0.15204   0.15734   0.16026
 Alpha virt. eigenvalues --    0.16277   0.16394   0.16675   0.17227   0.17670
 Alpha virt. eigenvalues --    0.17862   0.18204   0.18399   0.18561   0.18831
 Alpha virt. eigenvalues --    0.20113   0.20242   0.20655   0.21606   0.21937
 Alpha virt. eigenvalues --    0.22690   0.22820   0.22898   0.23264   0.23683
 Alpha virt. eigenvalues --    0.23843   0.24761   0.25229   0.25307   0.25887
 Alpha virt. eigenvalues --    0.26598   0.26744   0.26976   0.28034   0.28398
 Alpha virt. eigenvalues --    0.28910   0.29106   0.29520   0.29726   0.30465
 Alpha virt. eigenvalues --    0.31147   0.31384   0.32080   0.32370   0.32449
 Alpha virt. eigenvalues --    0.32643   0.32996   0.33232   0.33593   0.34082
 Alpha virt. eigenvalues --    0.34283   0.34543   0.35218   0.35801   0.36080
 Alpha virt. eigenvalues --    0.36257   0.36537   0.36666   0.37094   0.37331
 Alpha virt. eigenvalues --    0.38046   0.38265   0.38492   0.38844   0.39853
 Alpha virt. eigenvalues --    0.40198   0.40490   0.40746   0.40823   0.41048
 Alpha virt. eigenvalues --    0.41207   0.41275   0.41819   0.41985   0.42279
 Alpha virt. eigenvalues --    0.42848   0.42858   0.43223   0.43314   0.44025
 Alpha virt. eigenvalues --    0.44423   0.44653   0.44992   0.45643   0.47167
 Alpha virt. eigenvalues --    0.47860   0.48410   0.48522   0.48966   0.49019
 Alpha virt. eigenvalues --    0.50722   0.51622   0.52948   0.54088   0.54173
 Alpha virt. eigenvalues --    0.55069   0.56062   0.56709   0.56904   0.57183
 Alpha virt. eigenvalues --    0.57761   0.58050   0.58905   0.59233   0.59670
 Alpha virt. eigenvalues --    0.61098   0.61163   0.61642   0.62357   0.62963
 Alpha virt. eigenvalues --    0.63633   0.64353   0.64692   0.65171   0.65779
 Alpha virt. eigenvalues --    0.66161   0.66826   0.66958   0.68163   0.68422
 Alpha virt. eigenvalues --    0.68752   0.71015   0.72320   0.72610   0.73261
 Alpha virt. eigenvalues --    0.74739   0.75426   0.77082   0.77696   0.79211
 Alpha virt. eigenvalues --    0.80578   0.81607   0.84434   0.85509   0.85698
 Alpha virt. eigenvalues --    0.86737   0.86996   0.87962   1.05072   1.07220
 Alpha virt. eigenvalues --    1.07571   1.11364   1.11816   1.12546   1.14035
 Alpha virt. eigenvalues --    1.14243   1.14407   1.15086   1.15678   1.16293
 Alpha virt. eigenvalues --    1.16627   1.17023   1.17334   1.18302   1.18658
 Alpha virt. eigenvalues --    1.20006   1.20203   1.20466   1.20933   1.21239
 Alpha virt. eigenvalues --    1.21536   1.21889   1.22591   1.22758   1.23345
 Alpha virt. eigenvalues --    1.23552   1.24841   1.25409   1.25962   1.26427
 Alpha virt. eigenvalues --    1.26965   1.27208   1.29134   1.29517   1.29812
 Alpha virt. eigenvalues --    1.30555   1.30832   1.31020   1.32485   1.32835
 Alpha virt. eigenvalues --    1.32912   1.33659   1.33917   1.34186   1.34281
 Alpha virt. eigenvalues --    1.34650   1.35549   1.35898   1.36192   1.36522
 Alpha virt. eigenvalues --    1.36753   1.37415   1.37953   1.38181   1.38818
 Alpha virt. eigenvalues --    1.39191   1.39831   1.40259   1.40766   1.42216
 Alpha virt. eigenvalues --    1.42503   1.42621   1.42790   1.43231   1.43574
 Alpha virt. eigenvalues --    1.43673   1.43951   1.44486   1.44992   1.45434
 Alpha virt. eigenvalues --    1.46061   1.46245   1.46565   1.46611   1.47137
 Alpha virt. eigenvalues --    1.47492   1.47677   1.47766   1.49084   1.49261
 Alpha virt. eigenvalues --    1.50147   1.51501   1.51890   1.52469   1.53061
 Alpha virt. eigenvalues --    1.55024   1.55806   1.56056   1.57900   1.58011
 Alpha virt. eigenvalues --    1.58336   1.59511   1.59721   1.60278   1.63179
 Alpha virt. eigenvalues --    1.63991   1.66420   1.66517   1.67416   1.68224
 Alpha virt. eigenvalues --    1.68441   1.68514   1.68591   1.69191   1.69714
 Alpha virt. eigenvalues --    1.70244   1.71400   1.71597   1.71785   1.71880
 Alpha virt. eigenvalues --    1.71941   1.71975   1.72425   1.72740   1.73227
 Alpha virt. eigenvalues --    1.73585   1.73993   1.74137   1.75469   1.77004
 Alpha virt. eigenvalues --    1.77595   1.78199   1.78982   1.79296   1.80078
 Alpha virt. eigenvalues --    1.81561   1.81762   1.82095   1.82402   1.82924
 Alpha virt. eigenvalues --    1.83024   1.83265   1.83468   1.83575   1.83681
 Alpha virt. eigenvalues --    1.84072   1.85201   1.90171   1.90555   1.90950
 Alpha virt. eigenvalues --    1.93339   1.93433   1.94303   1.95922   1.96178
 Alpha virt. eigenvalues --    1.96781   1.99362   2.00098   2.00885   2.02128
 Alpha virt. eigenvalues --    2.03259   2.04238   2.05264   2.06146   2.08484
 Alpha virt. eigenvalues --    2.08613   2.09423   2.10364   2.11007   2.11335
 Alpha virt. eigenvalues --    2.12225   2.12794   2.12860   2.15146   2.19255
 Alpha virt. eigenvalues --    2.19344   2.19522   2.19666   2.19714   2.20312
 Alpha virt. eigenvalues --    2.20682   2.21148   2.22514   2.22984   2.24195
 Alpha virt. eigenvalues --    2.24321   2.25038   2.25214   2.25919   2.27061
 Alpha virt. eigenvalues --    2.27113   2.27434   2.27479   2.27600   2.27846
 Alpha virt. eigenvalues --    2.28111   2.28225   2.28474   2.29867   2.29943
 Alpha virt. eigenvalues --    2.30161   2.32543   2.32686   2.36755   2.37051
 Alpha virt. eigenvalues --    2.37294   2.38953   2.40018   2.40299   2.40497
 Alpha virt. eigenvalues --    2.44682   2.44835   2.48233   2.48296   2.48443
 Alpha virt. eigenvalues --    2.48796   2.48930   2.49991   2.50559   2.50953
 Alpha virt. eigenvalues --    2.51238   2.52995   2.53232   2.53816   2.54131
 Alpha virt. eigenvalues --    2.56055   2.56532   2.61516   2.61758   2.61865
 Alpha virt. eigenvalues --    2.62188   2.62572   2.62809   2.64017   2.64239
 Alpha virt. eigenvalues --    2.64851   2.65277   2.65763   2.66178   2.67713
 Alpha virt. eigenvalues --    2.68133   2.69138   2.71328   2.73021   2.73804
 Alpha virt. eigenvalues --    2.76924   2.77540   2.78371   2.78817   2.82920
 Alpha virt. eigenvalues --    2.83306   2.85008   2.85049   2.85260   2.89789
 Alpha virt. eigenvalues --    2.89999   2.90099   2.90477   2.91416   2.93713
 Alpha virt. eigenvalues --    2.94425   2.94712   2.95064   2.95765   2.97028
 Alpha virt. eigenvalues --    2.97072   2.97079   2.97445   2.98085   2.98241
 Alpha virt. eigenvalues --    3.00059   3.00523   3.02716   3.03980   3.04689
 Alpha virt. eigenvalues --    3.05096   3.06678   3.07073   3.08992   3.10351
 Alpha virt. eigenvalues --    3.11308   3.15173   3.15986   3.16495   3.17811
 Alpha virt. eigenvalues --    3.18226   3.18482   3.18783   3.20367   3.20406
 Alpha virt. eigenvalues --    3.20443   3.20758   3.21530   3.22411   3.25492
 Alpha virt. eigenvalues --    3.26141   3.27194   3.27667   3.28793   3.32076
 Alpha virt. eigenvalues --    3.32928   3.33715   3.34009   3.43491   3.43895
 Alpha virt. eigenvalues --    3.45234   3.47136   3.47508   3.59174   3.72214
 Alpha virt. eigenvalues --    3.72572   3.86639   3.86920   3.87092   4.06495
 Alpha virt. eigenvalues --    4.07094   4.07184  21.13078  21.14825  21.15005
 Alpha virt. eigenvalues --   21.57518  21.60972  21.61353  21.65644  21.71853
 Alpha virt. eigenvalues --   21.71944  21.72043  21.73885  21.74809  21.79912
 Alpha virt. eigenvalues --   21.84387  21.85145  21.86002  21.89848  21.91369
 Alpha virt. eigenvalues --   21.96901  22.03931  22.04675  31.88487  43.23004
 Alpha virt. eigenvalues --   43.23088  43.23094
  Beta  occ. eigenvalues --  -19.00606 -19.00582 -19.00576 -14.30118 -10.17685
  Beta  occ. eigenvalues --  -10.17659 -10.17643 -10.16487 -10.16485 -10.16475
  Beta  occ. eigenvalues --  -10.13743 -10.13702 -10.13663 -10.12791 -10.12760
  Beta  occ. eigenvalues --  -10.12746 -10.12464 -10.12440 -10.12411 -10.11733
  Beta  occ. eigenvalues --  -10.11700 -10.11687 -10.11324 -10.11302 -10.11277
  Beta  occ. eigenvalues --   -1.20520  -1.20488  -1.20469  -1.14787  -1.02660
  Beta  occ. eigenvalues --   -1.02641  -1.00553  -0.93586  -0.93434  -0.91904
  Beta  occ. eigenvalues --   -0.91745  -0.91458  -0.89461  -0.86239  -0.85766
  Beta  occ. eigenvalues --   -0.83469  -0.80417  -0.79277  -0.78660  -0.77328
  Beta  occ. eigenvalues --   -0.76598  -0.74378  -0.72469  -0.72435  -0.70103
  Beta  occ. eigenvalues --   -0.68983  -0.68929  -0.67348  -0.65667  -0.65448
  Beta  occ. eigenvalues --   -0.62905  -0.62876  -0.62822  -0.62340  -0.62295
  Beta  occ. eigenvalues --   -0.62238  -0.60298  -0.60177  -0.60166  -0.59398
  Beta  occ. eigenvalues --   -0.59334  -0.58149  -0.58129  -0.57060  -0.56826
  Beta  occ. eigenvalues --   -0.56536  -0.56526  -0.56487  -0.53974  -0.53150
  Beta  occ. eigenvalues --   -0.53106  -0.51951  -0.50183  -0.50068  -0.49433
  Beta  occ. eigenvalues --   -0.49359  -0.49333  -0.45506  -0.45168  -0.44543
  Beta  occ. eigenvalues --   -0.44320  -0.40287  -0.40073
  Beta virt. eigenvalues --   -0.22547  -0.09981  -0.08436  -0.08279  -0.07628
  Beta virt. eigenvalues --   -0.07423  -0.03585  -0.00968   0.00361   0.00480
  Beta virt. eigenvalues --    0.01224   0.01413   0.01993   0.02934   0.03033
  Beta virt. eigenvalues --    0.03401   0.03599   0.04387   0.04408   0.04765
  Beta virt. eigenvalues --    0.06513   0.06817   0.07015   0.07128   0.07437
  Beta virt. eigenvalues --    0.07825   0.07919   0.08063   0.08103   0.08271
  Beta virt. eigenvalues --    0.08477   0.08566   0.08932   0.09606   0.09861
  Beta virt. eigenvalues --    0.12214   0.12581   0.12744   0.13533   0.13940
  Beta virt. eigenvalues --    0.14318   0.14981   0.15018   0.15286   0.15823
  Beta virt. eigenvalues --    0.16165   0.16395   0.16527   0.16824   0.17332
  Beta virt. eigenvalues --    0.17730   0.17947   0.18305   0.18543   0.18676
  Beta virt. eigenvalues --    0.18957   0.20180   0.20314   0.20771   0.21689
  Beta virt. eigenvalues --    0.22016   0.22758   0.22934   0.22980   0.23419
  Beta virt. eigenvalues --    0.23777   0.23937   0.24821   0.25392   0.25455
  Beta virt. eigenvalues --    0.26037   0.26684   0.26826   0.27103   0.28167
  Beta virt. eigenvalues --    0.28531   0.29052   0.29244   0.29634   0.29863
  Beta virt. eigenvalues --    0.30590   0.31298   0.31492   0.32191   0.32489
  Beta virt. eigenvalues --    0.32567   0.32805   0.33163   0.33354   0.33743
  Beta virt. eigenvalues --    0.34152   0.34388   0.34666   0.35309   0.35916
  Beta virt. eigenvalues --    0.36170   0.36343   0.36579   0.36788   0.37146
  Beta virt. eigenvalues --    0.37380   0.38108   0.38324   0.38547   0.38911
  Beta virt. eigenvalues --    0.39931   0.40276   0.40587   0.40840   0.40894
  Beta virt. eigenvalues --    0.41119   0.41304   0.41342   0.41891   0.42065
  Beta virt. eigenvalues --    0.42353   0.42931   0.42936   0.43333   0.43431
  Beta virt. eigenvalues --    0.44097   0.44502   0.44737   0.45109   0.45760
  Beta virt. eigenvalues --    0.47270   0.47956   0.48524   0.48618   0.49083
  Beta virt. eigenvalues --    0.49143   0.50905   0.51759   0.53045   0.54207
  Beta virt. eigenvalues --    0.54270   0.55182   0.56141   0.56858   0.57016
  Beta virt. eigenvalues --    0.57329   0.57889   0.58215   0.58996   0.59335
  Beta virt. eigenvalues --    0.59739   0.61155   0.61230   0.61732   0.62466
  Beta virt. eigenvalues --    0.63063   0.63785   0.64498   0.64832   0.65248
  Beta virt. eigenvalues --    0.65881   0.66306   0.66895   0.67090   0.68254
  Beta virt. eigenvalues --    0.68544   0.68849   0.71134   0.72393   0.72709
  Beta virt. eigenvalues --    0.73497   0.74807   0.75495   0.77488   0.77838
  Beta virt. eigenvalues --    0.79457   0.80778   0.81675   0.84528   0.85595
  Beta virt. eigenvalues --    0.85777   0.86846   0.87091   0.88254   1.05176
  Beta virt. eigenvalues --    1.07312   1.07659   1.11436   1.11888   1.12606
  Beta virt. eigenvalues --    1.14169   1.14392   1.14544   1.15189   1.15786
  Beta virt. eigenvalues --    1.16419   1.16780   1.17193   1.17501   1.18431
  Beta virt. eigenvalues --    1.18780   1.20089   1.20324   1.20533   1.20991
  Beta virt. eigenvalues --    1.21320   1.21615   1.21982   1.22676   1.22850
  Beta virt. eigenvalues --    1.23479   1.23654   1.25045   1.25595   1.26118
  Beta virt. eigenvalues --    1.26485   1.27001   1.27228   1.29164   1.29562
  Beta virt. eigenvalues --    1.29857   1.30748   1.31028   1.31267   1.32698
  Beta virt. eigenvalues --    1.32990   1.33062   1.33835   1.34066   1.34409
  Beta virt. eigenvalues --    1.34461   1.34847   1.35711   1.35989   1.36241
  Beta virt. eigenvalues --    1.36577   1.36818   1.37483   1.38072   1.38346
  Beta virt. eigenvalues --    1.38965   1.39307   1.40088   1.40502   1.40958
  Beta virt. eigenvalues --    1.42442   1.42628   1.42834   1.43074   1.43546
  Beta virt. eigenvalues --    1.43777   1.43900   1.44137   1.44573   1.45120
  Beta virt. eigenvalues --    1.45522   1.46226   1.46366   1.46682   1.46779
  Beta virt. eigenvalues --    1.47267   1.47600   1.47917   1.47995   1.49265
  Beta virt. eigenvalues --    1.49444   1.50330   1.51675   1.52035   1.52584
  Beta virt. eigenvalues --    1.53171   1.55132   1.55936   1.56176   1.58080
  Beta virt. eigenvalues --    1.58180   1.58465   1.59657   1.59847   1.60374
  Beta virt. eigenvalues --    1.63295   1.64119   1.66651   1.66775   1.67626
  Beta virt. eigenvalues --    1.68435   1.68524   1.68605   1.68674   1.69243
  Beta virt. eigenvalues --    1.69815   1.70367   1.71520   1.71681   1.71831
  Beta virt. eigenvalues --    1.71945   1.71996   1.72073   1.72513   1.72834
  Beta virt. eigenvalues --    1.73277   1.73914   1.74078   1.74206   1.75673
  Beta virt. eigenvalues --    1.77170   1.77761   1.78379   1.79095   1.79442
  Beta virt. eigenvalues --    1.80369   1.81702   1.81901   1.82170   1.82559
  Beta virt. eigenvalues --    1.83077   1.83191   1.83406   1.83675   1.83734
  Beta virt. eigenvalues --    1.83815   1.84169   1.85435   1.90428   1.90737
  Beta virt. eigenvalues --    1.91112   1.93526   1.93624   1.94584   1.96078
  Beta virt. eigenvalues --    1.96324   1.97031   1.99494   2.00257   2.01015
  Beta virt. eigenvalues --    2.02367   2.03505   2.04415   2.05506   2.06374
  Beta virt. eigenvalues --    2.08874   2.08976   2.09821   2.10743   2.11083
  Beta virt. eigenvalues --    2.11411   2.12318   2.12926   2.13030   2.15362
  Beta virt. eigenvalues --    2.19449   2.19543   2.19771   2.19880   2.19936
  Beta virt. eigenvalues --    2.20495   2.20884   2.21331   2.22705   2.23319
  Beta virt. eigenvalues --    2.24435   2.24571   2.25274   2.25421   2.26137
  Beta virt. eigenvalues --    2.27206   2.27253   2.27537   2.27603   2.27750
  Beta virt. eigenvalues --    2.28103   2.28292   2.28595   2.28662   2.29964
  Beta virt. eigenvalues --    2.30061   2.30272   2.32945   2.33086   2.37033
  Beta virt. eigenvalues --    2.37238   2.37647   2.39287   2.40101   2.40388
  Beta virt. eigenvalues --    2.40576   2.44757   2.44907   2.48317   2.48378
[...]
     7   Atom        0.008720     -0.045531      0.036811
     8   Atom        0.000969     -0.002055      0.001086
     9   Atom        0.001138     -0.001718      0.000580
    10   Atom       -0.000760      0.000929     -0.000169
    11   Atom       -0.000611      0.000719     -0.000108
    12   Atom       -0.004880     -0.009422      0.014302
    13   Atom        0.010696     -0.006571     -0.004125
    14   Atom       -0.016272      0.027670     -0.011399
    15   Atom        0.009709      0.000585     -0.010294
    16   Atom        0.003348      0.007881     -0.011229
    17   Atom       -0.030383     -0.015599      0.045981
    18   Atom       -0.001164      0.000509      0.000655
    19   Atom        0.000469     -0.000364     -0.000105
    20   Atom        0.000430     -0.000012     -0.000419
    21   Atom        0.000456     -0.000220     -0.000236
    22   Atom       -0.047178     -0.023491      0.070670
    23   Atom        0.002427     -0.001505     -0.000921
    24   Atom        0.002075     -0.000842     -0.001233
    25   Atom        0.000638     -0.000856      0.000218
    26   Atom        0.001503     -0.000453     -0.001050
    27   Atom        0.038600     -0.091985      0.053384
    28   Atom        0.000169      0.000422     -0.000591
    29   Atom        0.001061      0.000058     -0.001118
    30   Atom       -0.000696      0.000310      0.000386
    31   Atom       -0.000385      0.001345     -0.000960
    32   Atom        0.002205     -0.016777      0.014572
    33   Atom       -0.036096      0.029051      0.007045
    34   Atom       -0.039958      0.040093     -0.000135
    35   Atom        0.012756     -0.000157     -0.012599
    36   Atom        0.010835      0.003045     -0.013881
    37   Atom       -0.049778     -0.011037      0.060816
    38   Atom       -0.002892      0.003197     -0.000305
    39   Atom       -0.001239      0.001961     -0.000722
    40   Atom        0.001010     -0.000352     -0.000658
    41   Atom        0.000932     -0.000323     -0.000609
    42   Atom       -0.097635     -0.002902      0.100537
    43   Atom        0.002260     -0.001156     -0.001104
    44   Atom        0.001496     -0.000166     -0.001330
    45   Atom        0.000945     -0.001178      0.000233
    46   Atom        0.002245     -0.001211     -0.001035
 --------------------------------------------------------
                        XY            XZ            YZ
 --------------------------------------------------------
     1   Atom       -0.002129      0.051658     -0.058675
     2   Atom        0.003956      0.006303     -0.004427
     3   Atom       -0.011187      0.066141     -0.009786
     4   Atom       -0.035300      0.043460     -0.016190
     5   Atom        0.007028     -0.012207      0.007493
     6   Atom        0.001066     -0.016754      0.001032
     7   Atom       -0.015957      0.077438     -0.020110
     8   Atom       -0.001722     -0.004860      0.002704
     9   Atom       -0.000495     -0.004824      0.000621
    10   Atom        0.000604     -0.001732      0.000402
    11   Atom        0.000622     -0.001829      0.000312
    12   Atom       -0.010900     -0.004677     -0.003098
    13   Atom        0.053970     -0.053398     -0.050197
    14   Atom        0.040200     -0.027418     -0.040555
    15   Atom       -0.006872      0.005988      0.014265
    16   Atom       -0.007275      0.011886      0.009117
    17   Atom        0.027099     -0.049884     -0.062435
    18   Atom        0.002488      0.002763      0.004797
    19   Atom        0.001660      0.003918      0.002940
    20   Atom       -0.000955      0.001144      0.001390
    21   Atom       -0.000680      0.001382      0.001409
    22   Atom        0.066649     -0.096950     -0.120824
    23   Atom       -0.000845      0.002315      0.000301
    24   Atom       -0.000006      0.000639      0.000200
    25   Atom       -0.000834      0.001495     -0.000371
    26   Atom       -0.001382      0.000507     -0.000313
    27   Atom       -0.034072      0.146251     -0.039081
    28   Atom        0.001969     -0.002184     -0.001141
    29   Atom        0.001301     -0.000806     -0.000291
    30   Atom        0.000905     -0.000991     -0.001174
    31   Atom        0.001371     -0.000325     -0.000681
    32   Atom        0.006724      0.001974      0.003300
    33   Atom       -0.038911     -0.029803      0.072248
    34   Atom       -0.007645     -0.008381      0.055362
    35   Atom        0.000447     -0.000962     -0.013387
    36   Atom        0.005705      0.007634     -0.013612
    37   Atom       -0.011033     -0.021044      0.075081
    38   Atom       -0.000497     -0.000167     -0.005529
    39   Atom       -0.001428      0.002063     -0.004310
    40   Atom        0.000315      0.000517     -0.001852
    41   Atom        0.000059      0.000696     -0.001876
    42   Atom       -0.031607     -0.041094      0.149067
    43   Atom       -0.001280      0.001958     -0.001434
    44   Atom       -0.001253      0.000443     -0.000419
    45   Atom       -0.000252      0.001548     -0.000505
    46   Atom       -0.000048      0.000699      0.000033
 --------------------------------------------------------


 ---------------------------------------------------------------------------------
              Anisotropic Spin Dipole Couplings in Principal Axis System
 ---------------------------------------------------------------------------------

       Atom             a.u.   MegaHertz   Gauss  10(-4) cm-1        Axes

              Baa    -0.4763   -18.368    -6.554    -6.127  0.0007  0.9992  0.0412
     1 N(14)  Bbb    -0.4755   -18.341    -6.544    -6.118  0.9993  0.0008 -0.0362
              Bcc     0.9518    36.709    13.099    12.245  0.0362 -0.0411  0.9985
 
              Baa    -0.0188    -2.522    -0.900    -0.841  0.9523 -0.2135 -0.2179
     2 C(13)  Bbb     0.0033     0.445     0.159     0.148  0.2659  0.9310  0.2501
              Bcc     0.0155     2.077     0.741     0.693  0.1495 -0.2961  0.9434
 
              Baa    -0.0551    -7.389    -2.637    -2.465 -0.2596  0.7565  0.6003
     3 C(13)  Bbb    -0.0490    -6.576    -2.347    -2.194  0.4283  0.6473 -0.6305
              Bcc     0.1041    13.965     4.983     4.658  0.8655 -0.0934  0.4921
 
              Baa    -0.0417    -5.600    -1.998    -1.868  0.5673  0.5983 -0.5659
     4 C(13)  Bbb    -0.0361    -4.839    -1.727    -1.614 -0.0645  0.7173  0.6938
              Bcc     0.0778    10.439     3.725     3.482  0.8210 -0.3571  0.4455
 
              Baa    -0.0210    -2.813    -1.004    -0.938  0.5607 -0.3205  0.7635
     5 C(13)  Bbb     0.0080     1.070     0.382     0.357  0.7256 -0.2541 -0.6395
              Bcc     0.0130     1.744     0.622     0.582  0.3990  0.9125  0.0900
 
              Baa    -0.0240    -3.218    -1.148    -1.073  0.6505 -0.0389  0.7585
     6 C(13)  Bbb     0.0100     1.339     0.478     0.447  0.7577 -0.0342 -0.6517
              Bcc     0.0140     1.879     0.671     0.627  0.0513  0.9987  0.0072
 
              Baa    -0.0560    -7.515    -2.681    -2.507  0.7530 -0.1012 -0.6502
     7 C(13)  Bbb    -0.0498    -6.685    -2.385    -2.230  0.1854  0.9807  0.0620
              Bcc     0.1058    14.200     5.067     4.737  0.6314 -0.1672  0.7572
 
              Baa    -0.0042    -2.250    -0.803    -0.750  0.5052 -0.4880  0.7118
     8 H(1)   Bbb    -0.0028    -1.475    -0.526    -0.492  0.5689  0.8085  0.1505
              Bcc     0.0070     3.724     1.329     1.242 -0.6489  0.3290  0.6860
 
              Baa    -0.0040    -2.123    -0.757    -0.708  0.6825 -0.0510  0.7291
     9 H(1)   Bbb    -0.0018    -0.958    -0.342    -0.319  0.1110  0.9932 -0.0344
              Bcc     0.0058     3.080     1.099     1.027  0.7224 -0.1044 -0.6835
 
              Baa    -0.0024    -1.269    -0.453    -0.423  0.7498 -0.2130  0.6264
    10 H(1)   Bbb     0.0011     0.565     0.202     0.188 -0.0552  0.9233  0.3800
              Bcc     0.0013     0.705     0.251     0.235 -0.6593 -0.3195  0.6806
 
              Baa    -0.0024    -1.256    -0.448    -0.419  0.7425 -0.2149  0.6345
    11 H(1)   Bbb     0.0008     0.439     0.157     0.147 -0.0039  0.9457  0.3249
              Bcc     0.0015     0.817     0.291     0.272 -0.6699 -0.2437  0.7014
 
              Baa    -0.0191    -2.569    -0.917    -0.857  0.6318  0.7588  0.1586
    12 C(13)  Bbb     0.0037     0.503     0.179     0.168  0.7464 -0.6507  0.1398
              Bcc     0.0154     2.066     0.737     0.689 -0.2093 -0.0301  0.9774
 
              Baa    -0.0558    -7.482    -2.670    -2.496 -0.1425  0.7793  0.6103
    13 C(13)  Bbb    -0.0498    -6.688    -2.386    -2.231  0.7678 -0.3021  0.5651
              Bcc     0.1056    14.170     5.056     4.726  0.6247  0.5491 -0.5552
 
              Baa    -0.0418    -5.614    -2.003    -1.873  0.8457 -0.2006  0.4945
    14 C(13)  Bbb    -0.0364    -4.878    -1.741    -1.627 -0.2742  0.6316  0.7252
              Bcc     0.0782    10.492     3.744     3.500  0.4578  0.7489 -0.4791
 
              Baa    -0.0225    -3.026    -1.080    -1.009 -0.2651 -0.5619  0.7836
    15 C(13)  Bbb     0.0089     1.199     0.428     0.400  0.5399  0.5868  0.6035
              Bcc     0.0136     1.827     0.652     0.610  0.7989 -0.5830 -0.1478
 
              Baa    -0.0223    -2.991    -1.067    -0.998 -0.4744 -0.3575  0.8045
    16 C(13)  Bbb     0.0090     1.214     0.433     0.405  0.6726  0.4424  0.5932
              Bcc     0.0132     1.777     0.634     0.593 -0.5680  0.8225  0.0306
 
              Baa    -0.0571    -7.665    -2.735    -2.557  0.6105  0.5112  0.6049
    17 C(13)  Bbb    -0.0509    -6.830    -2.437    -2.278 -0.6954  0.7116  0.1005
              Bcc     0.1080    14.496     5.172     4.835 -0.3791 -0.4820  0.7899
 
              Baa    -0.0042    -2.258    -0.806    -0.753 -0.1012 -0.6808  0.7254
    18 H(1)   Bbb    -0.0028    -1.508    -0.538    -0.503  0.9056 -0.3648 -0.2161
              Bcc     0.0071     3.766     1.344     1.256  0.4118  0.6351  0.6535
 
              Baa    -0.0042    -2.219    -0.792    -0.740 -0.5196 -0.3696  0.7703
    19 H(1)   Bbb    -0.0017    -0.884    -0.315    -0.295 -0.5959  0.8029 -0.0168
              Bcc     0.0058     3.103     1.107     1.035  0.6123  0.4677  0.6374
 
              Baa    -0.0024    -1.283    -0.458    -0.428 -0.4654 -0.5763  0.6718
    20 H(1)   Bbb     0.0012     0.628     0.224     0.209 -0.4551  0.8068  0.3769
              Bcc     0.0012     0.655     0.234     0.218  0.7592  0.1303  0.6377
 
              Baa    -0.0024    -1.281    -0.457    -0.427 -0.4626 -0.5784  0.6719
    21 H(1)   Bbb     0.0008     0.408     0.145     0.136 -0.6021  0.7612  0.2408
              Bcc     0.0016     0.874     0.312     0.291  0.6507  0.2931  0.7004
 
              Baa    -0.1061     7.677     2.739     2.561 -0.0558  0.8383  0.5424
    22 O(17)  Bbb    -0.1015     7.344     2.620     2.450  0.9062 -0.1856  0.3801
              Bcc     0.2076   -15.021    -5.360    -5.011 -0.4192 -0.5127  0.7493
 
              Baa    -0.0025    -0.341    -0.122    -0.114 -0.4270 -0.5557  0.7134
    23 C(13)  Bbb    -0.0011    -0.153    -0.055    -0.051 -0.1591  0.8228  0.5456
              Bcc     0.0037     0.494     0.176     0.165  0.8902 -0.1195  0.4397
 
              Baa    -0.0014    -0.758    -0.270    -0.253 -0.1707 -0.3237  0.9306
    24 H(1)   Bbb    -0.0008    -0.413    -0.147    -0.138 -0.0690  0.9461  0.3164
              Bcc     0.0022     1.171     0.418     0.391  0.9829  0.0102  0.1839
 
              Baa    -0.0014    -0.721    -0.257    -0.241  0.5932  0.6986 -0.3999
    25 H(1)   Bbb    -0.0008    -0.447    -0.159    -0.149 -0.3175  0.6596  0.6813
              Bcc     0.0022     1.168     0.417     0.390  0.7398 -0.2772  0.6131
 
              Baa    -0.0012    -0.643    -0.230    -0.215  0.2507  0.7263  0.6401
    26 H(1)   Bbb    -0.0011    -0.596    -0.213    -0.199 -0.4170 -0.5157  0.7485
              Bcc     0.0023     1.239     0.442     0.413  0.8736 -0.4546  0.1736
 
              Baa    -0.1030     7.454     2.660     2.486 -0.3815  0.7477  0.5435
    27 O(17)  Bbb    -0.0986     7.132     2.545     2.379  0.6288  0.6409 -0.4404
              Bcc     0.2016   -14.586    -5.204    -4.865  0.6776 -0.1738  0.7146
 
              Baa    -0.0025    -0.337    -0.120    -0.112  0.7054 -0.2101  0.6769
    28 C(13)  Bbb    -0.0011    -0.146    -0.052    -0.049 -0.2880  0.7877  0.5446
              Bcc     0.0036     0.483     0.172     0.161  0.6476  0.5791 -0.4952
 
              Baa    -0.0014    -0.750    -0.267    -0.250  0.3811 -0.1576  0.9110
    29 H(1)   Bbb    -0.0008    -0.405    -0.145    -0.135 -0.4475  0.8308  0.3309
              Bcc     0.0022     1.155     0.412     0.385  0.8090  0.5338 -0.2461
 
              Baa    -0.0013    -0.709    -0.253    -0.237  0.9027 -0.2447  0.3539
    30 H(1)   Bbb    -0.0008    -0.440    -0.157    -0.147 -0.0613  0.7410  0.6687
              Bcc     0.0022     1.149     0.410     0.383 -0.4259 -0.6254  0.6539
 
              Baa    -0.0012    -0.630    -0.225    -0.210 -0.5660  0.4867  0.6654
    31 H(1)   Bbb    -0.0011    -0.584    -0.208    -0.195  0.6789 -0.1828  0.7111
              Bcc     0.0023     1.214     0.433     0.405  0.4677  0.8542 -0.2269
 
              Baa    -0.0191    -2.565    -0.915    -0.856 -0.2935  0.9529 -0.0761
    32 C(13)  Bbb     0.0036     0.484     0.173     0.161  0.9312  0.2670 -0.2480
              Bcc     0.0155     2.081     0.742     0.694  0.2160  0.1437  0.9658
 
              Baa    -0.0567    -7.614    -2.717    -2.540  0.5186  0.6760 -0.5234
    33 C(13)  Bbb    -0.0510    -6.849    -2.444    -2.285  0.7920 -0.1493  0.5920
              Bcc     0.1078    14.463     5.161     4.824 -0.3221  0.7216  0.6128
 
              Baa    -0.0426    -5.720    -2.041    -1.908  0.8286 -0.2564  0.4976
    34 C(13)  Bbb    -0.0373    -5.003    -1.785    -1.669 -0.5522 -0.5206  0.6513
              Bcc     0.0799    10.722     3.826     3.577 -0.0920  0.8144  0.5729
 
              Baa    -0.0211    -2.838    -1.013    -0.947  0.0168  0.5373  0.8432
    35 C(13)  Bbb     0.0082     1.101     0.393     0.367 -0.1924  0.8293 -0.5246
              Bcc     0.0129     1.737     0.620     0.579  0.9812  0.1534 -0.1174
 
              Baa    -0.0240    -3.222    -1.150    -1.075 -0.2619  0.4773  0.8388
    36 C(13)  Bbb     0.0101     1.361     0.486     0.454 -0.3401  0.7678 -0.5430
              Bcc     0.0139     1.860     0.664     0.621  0.9032  0.4275  0.0388
 
              Baa    -0.0590    -7.911    -2.823    -2.639 -0.3077  0.7809 -0.5436
    37 C(13)  Bbb    -0.0526    -7.064    -2.521    -2.356  0.9403  0.3368 -0.0485
              Bcc     0.1116    14.976     5.344     4.995 -0.1452  0.5261  0.8379
 
              Baa    -0.0045    -2.385    -0.851    -0.796  0.2631  0.5755  0.7744
    38 H(1)   Bbb    -0.0028    -1.486    -0.530    -0.496  0.9643 -0.1320 -0.2295
              Bcc     0.0073     3.871     1.381     1.291 -0.0299  0.8071 -0.5896
 
              Baa    -0.0042    -2.230    -0.796    -0.744 -0.3284  0.4903  0.8073
    39 H(1)   Bbb    -0.0017    -0.933    -0.333    -0.311  0.8898  0.4474  0.0902
              Bcc     0.0059     3.162     1.128     1.055 -0.3169  0.7479 -0.5832
 
              Baa    -0.0025    -1.315    -0.469    -0.439 -0.1684  0.6639  0.7286
    40 H(1)   Bbb     0.0011     0.568     0.203     0.189  0.9135  0.3828 -0.1376
              Bcc     0.0014     0.747     0.267     0.249  0.3703 -0.6425  0.6709
 
              Baa    -0.0024    -1.301    -0.464    -0.434 -0.1633  0.6572  0.7358
    41 H(1)   Bbb     0.0008     0.401     0.143     0.134  0.8303  0.4944 -0.2572
              Bcc     0.0017     0.900     0.321     0.300  0.5328 -0.5690  0.6264
 
              Baa    -0.1099     7.955     2.839     2.654  0.4492  0.7681 -0.4563
    42 O(17)  Bbb    -0.1052     7.615     2.717     2.540  0.8784 -0.2862  0.3828
              Bcc     0.2152   -15.570    -5.556    -5.194 -0.1634  0.5727  0.8033
 
              Baa    -0.0026    -0.353    -0.126    -0.118 -0.1456  0.6214  0.7698
    43 C(13)  Bbb    -0.0012    -0.157    -0.056    -0.052  0.5315  0.7054 -0.4689
              Bcc     0.0038     0.510     0.182     0.170  0.8345 -0.3409  0.4330
 
              Baa    -0.0015    -0.782    -0.279    -0.261 -0.0217  0.2876  0.9575
    44 H(1)   Bbb    -0.0008    -0.427    -0.152    -0.142  0.5005  0.8322 -0.2386
              Bcc     0.0023     1.209     0.431     0.403  0.8655 -0.4740  0.1620
 
              Baa    -0.0014    -0.744    -0.266    -0.248 -0.2234  0.8504  0.4764
    45 H(1)   Bbb    -0.0009    -0.459    -0.164    -0.153 -0.6015 -0.5049  0.6191
              Bcc     0.0023     1.203     0.429     0.401  0.7670 -0.1482  0.6243
 
              Baa    -0.0012    -0.661    -0.236    -0.221  0.1209  0.8290 -0.5461
    46 H(1)   Bbb    -0.0011    -0.613    -0.219    -0.205 -0.1597  0.5592  0.8135
              Bcc     0.0024     1.274     0.455     0.425  0.9797 -0.0112  0.2000
 

 ---------------------------------------------------------------------------------

 No NMR shielding tensors so no spin-rotation constants.
 Leave Link  601 at Sun Jan 17 03:08:22 2021, MaxMem=  4026531840 cpu:              10.6 elap:               1.6
 (Enter /opt/ohpc/pub/libs/gaussian/g16-A.03/sandybridge/g16/l9999.exe)

 Test job not archived.
 1\1\GINC-CASCADEB034\SP\ULC-wHPBE\TZVP\C21H21N1O3(1+,2)\RDU230\17-Jan-
 2021\0\\#P LC-wHPBE/TZVP iop(3/107=0184700000, 3/108=0184700000) scf=(
 conver=6,fermi,ndamp=35,noincfock,novaracc,vshift=500,xqc)\\H21 C21 N1
  O3\\1,2\N,0,0.054086,0.063852,0.077784\C,0,-0.275154,-1.311734,0.1035
 06\C,0,-1.260864,-1.827996,-0.72375\C,0,0.386135,-2.184815,0.970218\C,
 0,-1.598384,-3.175646,-0.688444\C,0,0.074577,-3.526309,0.994438\C,0,-0
 .9252,-4.03443,0.167909\H,0,-1.784639,-1.164375,-1.405148\H,0,1.158634
 ,-1.797039,1.627427\H,0,-2.379444,-3.537517,-1.347421\H,0,0.588853,-4.
 20682,1.665799\C,0,-0.970368,1.03417,-0.019727\C,0,-2.134785,0.917606,
 0.724871\C,0,-0.835797,2.133662,-0.869883\C,0,-3.151989,1.858174,0.623
 575\C,0,-1.829782,3.083912,-0.958163\C,0,-3.000537,2.952781,-0.215611\
 H,0,-2.255494,0.070396,1.39325\H,0,0.067507,2.240735,-1.462783\H,0,-4.
 048238,1.726664,1.219136\H,0,-1.725247,3.941045,-1.615932\O,0,-3.92845
 1,3.936733,-0.380204\C,0,-5.121818,3.840279,0.365278\H,0,-5.681122,2.9
 30406,0.115451\H,0,-4.925953,3.859223,1.44425\H,0,-5.719912,4.710924,0
 .096466\O,0,-1.16822,-5.370782,0.273837\C,0,-2.170458,-5.919715,-0.552
 884\H,0,-3.15107,-5.47272,-0.348812\H,0,-1.930216,-5.79407,-1.615623\H
 ,0,-2.208576,-6.98373,-0.319613\C,0,1.409258,0.466483,0.091838\C,0,2.3
 72325,-0.232608,-0.620224\C,0,1.812213,1.581496,0.83064\C,0,3.707828,0
 .150754,-0.59385\C,0,3.129962,1.982235,0.842322\C,0,4.092694,1.267169,
 0.133583\H,0,2.078678,-1.100647,-1.202616\H,0,1.073246,2.139336,1.3978
 22\H,0,4.429565,-0.427688,-1.159301\H,0,3.443945,2.849999,1.413878\O,0
 ,5.369584,1.734982,0.218075\C,0,6.368506,1.037347,-0.492266\H,0,6.4607
 13,0.000867,-0.145468\H,0,6.173119,1.041208,-1.571513\H,0,7.303574,1.5
 62498,-0.297656\\Version=EM64L-G16RevA.03\State=2-A\HF=-1092.3703042\S
 2=0.764249\S2-1=0.\S2A=0.750181\RMSD=7.783e-07\Dipole=-0.4366265,-0.49
 77105,-0.3090147\Quadrupole=24.6675509,2.7553845,-27.4229354,-0.277895
 8,-4.9556462,5.4377076\PG=C01 [X(C21H21N1O3)]\\@


 THE 2ND LAW OF THERMODYNAMICS HAS THE SAME
 DEGREE OF TRUTH AS THE STATEMENT THAT IF YOU THROW
 A TUMBLERFULL OF WATER INTO THE SEA, YOU CANNOT GET
 THE SAME TUMBLERFULL OF WATER OUT AGAIN.
          - J.C. MAXWELL, LETTER TO LORD RAYLEIGH, DECEMBER 6,1870
 Job cpu time:       0 days  2 hours 16 minutes 10.0 seconds.
 Elapsed time:       0 days  0 hours 17 minutes  5.6 seconds.
 File lengths (MBytes):  RWF=    228 Int=      0 D2E=      0 Chk=     32 Scr=      8
 Normal termination of Gaussian 16 at Sun Jan 17 03:08:22 2021.
