 Entering Gaussian System, Link 0=g16
 Input=mol_NN_ma_frag_tune_c9.gjf
 Output=mol_NN_ma_frag_tune_c9.log
 Initial command:
 /opt/ohpc/pub/libs/gaussian/g16-A.03/sandybridge/g16/l1.exe "/mnt/gpfs2_4m/scratch/rdu230/ondemand/projects/init_structures/wtuning/mol_NN_ma_frag/tuning_mol_NN_ma_frag_ocycle0/Gau-255418.inp" -scrdir="/mnt/gpfs2_4m/scratch/rdu230/ondemand/projects/init_structures/wtuning/mol_NN_ma_frag/tuning_mol_NN_ma_frag_ocycle0/"
 Entering Link 1 = /opt/ohpc/pub/libs/gaussian/g16-A.03/sandybridge/g16/l1.exe PID=    255419.
  
 Copyright (c) 1988,1990,1992,1993,1995,1998,2003,2009,2016,
            Gaussian, Inc.  All Rights Reserved.
  
 This is part of the Gaussian(R) 16 program.  It is based on
 the Gaussian(R) 09 system (copyright 2009, Gaussian, Inc.),
 the Gaussian(R) 03 system (copyright 2003, Gaussian, Inc.),
 the Gaussian(R) 98 system (copyright 1998, Gaussian, Inc.),
 the Gaussian(R) 94 system (copyright 1995, Gaussian, Inc.),
 the Gaussian 92(TM) system (copyright 1992, Gaussian, Inc.),
 the Gaussian 90(TM) system (copyright 1990, Gaussian, Inc.),
 the Gaussian 88(TM) system (copyright 1988, Gaussian, Inc.),
 the Gaussian 86(TM) system (copyright 1986, Carnegie Mellon
 University), and the Gaussian 82(TM) system (copyright 1983,
 Carnegie Mellon University). Gaussian is a federally registered
 trademark of Gaussian, Inc.
  
 This software contains proprietary and confidential information,
 including trade secrets, belonging to Gaussian, Inc.
  
 This software is provided under written license and may be
 used, copied, transmitted, or stored only in accord with that
 written license.
  
 The following legend is applicable only to US Government
 contracts under FAR:
  
                    RESTRICTED RIGHTS LEGEND
  
 Use, reproduction and disclosure by the US Government is
 subject to restrictions as set forth in subparagraphs (a)
 and (c) of the Commercial Computer Software - Restricted
 Rights clause in FAR 52.227-19.
  
 Gaussian, Inc.
 340 Quinnipiac St., Bldg. 40, Wallingford CT 06492
  
  
 ---------------------------------------------------------------
 Warning -- This program may not be used in any manner that
 competes with the business of Gaussian, Inc. or will provide
 assistance to any competitor of Gaussian, Inc.  The licensee
 of this program is prohibited from giving any competitor of
 Gaussian, Inc. access to this program.  By using this program,
 the user acknowledges that Gaussian, Inc. is engaged in the
 business of creating and licensing software in the field of
 computational chemistry and represents and warrants to the
 licensee that it is not a competitor of Gaussian, Inc. and that
 it will not use this program in any manner prohibited above.
 ---------------------------------------------------------------
  

 Cite this work as:
 Gaussian 16, Revision A.03,
 M. J. Frisch, G. W. Trucks, H. B. Schlegel, G. E. Scuseria, 
 M. A. Robb, J. R. Cheeseman, G. Scalmani, V. Barone, 
 G. A. Petersson, H. Nakatsuji, X. Li, M. Caricato, A. V. Marenich, 
 J. Bloino, B. G. Janesko, R. Gomperts, B. Mennucci, H. P. Hratchian, 
 J. V. Ortiz, A. F. Izmaylov, J. L. Sonnenberg, D. Williams-Young, 
 F. Ding, F. Lipparini, F. Egidi, J. Goings, B. Peng, A. Petrone, 
 T. Henderson, D. Ranasinghe, V. G. Zakrzewski, J. Gao, N. Rega, 
 G. Zheng, W. Liang, M. Hada, M. Ehara, K. Toyota, R. Fukuda, 
 J. Hasegawa, M. Ishida, T. Nakajima, Y. Honda, O. Kitao, H. Nakai, 
 T. Vreven, K. Throssell, J. A. Montgomery, Jr., J. E. Peralta, 
 F. Ogliaro, M. J. Bearpark, J. J. Heyd, E. N. Brothers, K. N. Kudin, 
 V. N. Staroverov, T. A. Keith, R. Kobayashi, J. Normand, 
 K. Raghavachari, A. P. Rendell, J. C. Burant, S. S. Iyengar, 
 J. Tomasi, M. Cossi, J. M. Millam, M. Klene, C. Adamo, R. Cammi, 
 J. W. Ochterski, R. L. Martin, K. Morokuma, O. Farkas, 
 J. B. Foresman, and D. J. Fox, Gaussian, Inc., Wallingford CT, 2016.
 
 ******************************************
 Gaussian 16:  EM64L-G16RevA.03 25-Dec-2016
                17-Jan-2021 
 ******************************************
 %mem=30GB
 %nproc=8
 Will use up to    8 processors via shared memory.
 ----------------------------------------------------------------------
 #P LC-wHPBE/TZVP iop(3/107=0189400000, 3/108=0189400000) scf=(conver=6
 ,fermi,ndamp=35,noincfock,novaracc,vshift=500,xqc)
 ----------------------------------------------------------------------
 1/38=1,172=1/1;
 2/12=2,17=6,18=5,40=1/2;
 3/5=19,7=101,11=2,25=1,30=1,74=-71,107=189400000,108=189400000/1,2,3;
 4//1;
 5/5=100002,6=6,8=3,10=500,13=1,18=-1,22=13,38=1,93=35/2,8;
 6/7=2,8=2,9=2,10=2,28=1/1;
 99/5=1,9=1/99;
 Leave Link    1 at Sun Jan 17 03:46:51 2021, MaxMem=  4026531840 cpu:               0.8 elap:               0.1
 (Enter /opt/ohpc/pub/libs/gaussian/g16-A.03/sandybridge/g16/l101.exe)
 -------------
 H21 C21 N1 O3
 -------------
 Symbolic Z-matrix:
 Charge =  1 Multiplicity = 2
 N                     0.05409   0.06385   0.07778 
 C                    -0.27515  -1.31173   0.10351 
 C                    -1.26086  -1.828    -0.72375 
 C                     0.38614  -2.18481   0.97022 
 C                    -1.59838  -3.17565  -0.68844 
 C                     0.07458  -3.52631   0.99444 
 C                    -0.9252   -4.03443   0.16791 
 H                    -1.78464  -1.16438  -1.40515 
 H                     1.15863  -1.79704   1.62743 
 H                    -2.37944  -3.53752  -1.34742 
 H                     0.58885  -4.20682   1.6658 
 C                    -0.97037   1.03417  -0.01973 
 C                    -2.13478   0.91761   0.72487 
 C                    -0.8358    2.13366  -0.86988 
 C                    -3.15199   1.85817   0.62358 
 C                    -1.82978   3.08391  -0.95816 
 C                    -3.00054   2.95278  -0.21561 
 H                    -2.25549   0.0704    1.39325 
 H                     0.06751   2.24073  -1.46278 
 H                    -4.04824   1.72666   1.21914 
 H                    -1.72525   3.94105  -1.61593 
 O                    -3.92845   3.93673  -0.3802 
 C                    -5.12182   3.84028   0.36528 
 H                    -5.68112   2.93041   0.11545 
 H                    -4.92595   3.85922   1.44425 
 H                    -5.71991   4.71092   0.09647 
 O                    -1.16822  -5.37078   0.27384 
 C                    -2.17046  -5.91972  -0.55288 
 H                    -3.15107  -5.47272  -0.34881 
 H                    -1.93022  -5.79407  -1.61562 
 H                    -2.20858  -6.98373  -0.31961 
 C                     1.40926   0.46648   0.09184 
 C                     2.37233  -0.23261  -0.62022 
 C                     1.81221   1.5815    0.83064 
 C                     3.70783   0.15075  -0.59385 
 C                     3.12996   1.98224   0.84232 
 C                     4.09269   1.26717   0.13358 
 H                     2.07868  -1.10065  -1.20262 
 H                     1.07325   2.13934   1.39782 
 H                     4.42957  -0.42769  -1.1593 
 H                     3.44395   2.85      1.41388 
 O                     5.36958   1.73498   0.21808 
 C                     6.36851   1.03735  -0.49227 
 H                     6.46071   0.00087  -0.14547 
 H                     6.17312   1.04121  -1.57151 
 H                     7.30357   1.5625   -0.29766 
 
 ITRead=  0  0  0  0  0  0  0  0  0  0  0  0  0  0  0  0  0  0  0  0
 ITRead=  0  0  0  0  0  0  0  0  0  0  0  0  0  0  0  0  0  0  0  0
 ITRead=  0  0  0  0  0  0
 MicOpt= -1 -1 -1 -1 -1 -1 -1 -1 -1 -1 -1 -1 -1 -1 -1 -1 -1 -1 -1 -1
 MicOpt= -1 -1 -1 -1 -1 -1 -1 -1 -1 -1 -1 -1 -1 -1 -1 -1 -1 -1 -1 -1
 MicOpt= -1 -1 -1 -1 -1 -1
 NAtoms=     46 NQM=       46 NQMF=       0 NMMI=      0 NMMIF=      0
                NMic=       0 NMicF=      0.
                    Isotopes and Nuclear Properties:
 (Nuclear quadrupole moments (NQMom) in fm**2, nuclear magnetic moments (NMagM)
  in nuclear magnetons)

  Atom         1           2           3           4           5           6           7           8           9          10
 IAtWgt=          14          12          12          12          12          12          12           1           1           1
 AtmWgt=  14.0030740  12.0000000  12.0000000  12.0000000  12.0000000  12.0000000  12.0000000   1.0078250   1.0078250   1.0078250
 NucSpn=           2           0           0           0           0           0           0           1           1           1
 AtZEff=  -0.0000000  -0.0000000  -0.0000000  -0.0000000  -0.0000000  -0.0000000  -0.0000000  -0.0000000  -0.0000000  -0.0000000
 NQMom=    2.0440000   0.0000000   0.0000000   0.0000000   0.0000000   0.0000000   0.0000000   0.0000000   0.0000000   0.0000000
 NMagM=    0.4037610   0.0000000   0.0000000   0.0000000   0.0000000   0.0000000   0.0000000   2.7928460   2.7928460   2.7928460
 AtZNuc=   7.0000000   6.0000000   6.0000000   6.0000000   6.0000000   6.0000000   6.0000000   1.0000000   1.0000000   1.0000000

  Atom        11          12          13          14          15          16          17          18          19          20
 IAtWgt=           1          12          12          12          12          12          12           1           1           1
 AtmWgt=   1.0078250  12.0000000  12.0000000  12.0000000  12.0000000  12.0000000  12.0000000   1.0078250   1.0078250   1.0078250
 NucSpn=           1           0           0           0           0           0           0           1           1           1
 AtZEff=  -0.0000000  -0.0000000  -0.0000000  -0.0000000  -0.0000000  -0.0000000  -0.0000000  -0.0000000  -0.0000000  -0.0000000
 NQMom=    0.0000000   0.0000000   0.0000000   0.0000000   0.0000000   0.0000000   0.0000000   0.0000000   0.0000000   0.0000000
 NMagM=    2.7928460   0.0000000   0.0000000   0.0000000   0.0000000   0.0000000   0.0000000   2.7928460   2.7928460   2.7928460
 AtZNuc=   1.0000000   6.0000000   6.0000000   6.0000000   6.0000000   6.0000000   6.0000000   1.0000000   1.0000000   1.0000000

  Atom        21          22          23          24          25          26          27          28          29          30
 IAtWgt=           1          16          12           1           1           1          16          12           1           1
 AtmWgt=   1.0078250  15.9949146  12.0000000   1.0078250   1.0078250   1.0078250  15.9949146  12.0000000   1.0078250   1.0078250
 NucSpn=           1           0           0           1           1           1           0           0           1           1
 AtZEff=  -0.0000000  -0.0000000  -0.0000000  -0.0000000  -0.0000000  -0.0000000  -0.0000000  -0.0000000  -0.0000000  -0.0000000
 NQMom=    0.0000000   0.0000000   0.0000000   0.0000000   0.0000000   0.0000000   0.0000000   0.0000000   0.0000000   0.0000000
 NMagM=    2.7928460   0.0000000   0.0000000   2.7928460   2.7928460   2.7928460   0.0000000   0.0000000   2.7928460   2.7928460
 AtZNuc=   1.0000000   8.0000000   6.0000000   1.0000000   1.0000000   1.0000000   8.0000000   6.0000000   1.0000000   1.0000000

  Atom        31          32          33          34          35          36          37          38          39          40
 IAtWgt=           1          12          12          12          12          12          12           1           1           1
 AtmWgt=   1.0078250  12.0000000  12.0000000  12.0000000  12.0000000  12.0000000  12.0000000   1.0078250   1.0078250   1.0078250
 NucSpn=           1           0           0           0           0           0           0           1           1           1
 AtZEff=  -0.0000000  -0.0000000  -0.0000000  -0.0000000  -0.0000000  -0.0000000  -0.0000000  -0.0000000  -0.0000000  -0.0000000
 NQMom=    0.0000000   0.0000000   0.0000000   0.0000000   0.0000000   0.0000000   0.0000000   0.0000000   0.0000000   0.0000000
 NMagM=    2.7928460   0.0000000   0.0000000   0.0000000   0.0000000   0.0000000   0.0000000   2.7928460   2.7928460   2.7928460
 AtZNuc=   1.0000000   6.0000000   6.0000000   6.0000000   6.0000000   6.0000000   6.0000000   1.0000000   1.0000000   1.0000000

  Atom        41          42          43          44          45          46
 IAtWgt=           1          16          12           1           1           1
 AtmWgt=   1.0078250  15.9949146  12.0000000   1.0078250   1.0078250   1.0078250
 NucSpn=           1           0           0           1           1           1
 AtZEff=  -0.0000000  -0.0000000  -0.0000000  -0.0000000  -0.0000000  -0.0000000
 NQMom=    0.0000000   0.0000000   0.0000000   0.0000000   0.0000000   0.0000000
 NMagM=    2.7928460   0.0000000   0.0000000   2.7928460   2.7928460   2.7928460
 AtZNuc=   1.0000000   8.0000000   6.0000000   1.0000000   1.0000000   1.0000000
 Leave Link  101 at Sun Jan 17 03:46:51 2021, MaxMem=  4026531840 cpu:               0.7 elap:               0.1
 (Enter /opt/ohpc/pub/libs/gaussian/g16-A.03/sandybridge/g16/l202.exe)
                          Input orientation:                          
 ---------------------------------------------------------------------
 Center     Atomic      Atomic             Coordinates (Angstroms)
 Number     Number       Type             X           Y           Z
 ---------------------------------------------------------------------
      1          7           0        0.054086    0.063852    0.077784
      2          6           0       -0.275154   -1.311734    0.103506
      3          6           0       -1.260864   -1.827996   -0.723750
      4          6           0        0.386135   -2.184815    0.970218
      5          6           0       -1.598384   -3.175646   -0.688444
      6          6           0        0.074577   -3.526309    0.994438
      7          6           0       -0.925200   -4.034430    0.167909
      8          1           0       -1.784639   -1.164375   -1.405148
      9          1           0        1.158634   -1.797039    1.627427
     10          1           0       -2.379444   -3.537517   -1.347421
     11          1           0        0.588853   -4.206820    1.665799
     12          6           0       -0.970368    1.034170   -0.019727
     13          6           0       -2.134785    0.917606    0.724871
     14          6           0       -0.835797    2.133662   -0.869883
     15          6           0       -3.151989    1.858174    0.623575
     16          6           0       -1.829782    3.083912   -0.958163
     17          6           0       -3.000537    2.952781   -0.215611
     18          1           0       -2.255494    0.070396    1.393250
     19          1           0        0.067507    2.240735   -1.462783
     20          1           0       -4.048238    1.726664    1.219136
     21          1           0       -1.725247    3.941045   -1.615932
     22          8           0       -3.928451    3.936733   -0.380204
     23          6           0       -5.121818    3.840279    0.365278
     24          1           0       -5.681122    2.930406    0.115451
     25          1           0       -4.925953    3.859223    1.444250
     26          1           0       -5.719912    4.710924    0.096466
     27          8           0       -1.168220   -5.370782    0.273837
     28          6           0       -2.170458   -5.919715   -0.552884
     29          1           0       -3.151070   -5.472720   -0.348812
     30          1           0       -1.930216   -5.794070   -1.615623
     31          1           0       -2.208576   -6.983730   -0.319613
     32          6           0        1.409258    0.466483    0.091838
     33          6           0        2.372325   -0.232608   -0.620224
     34          6           0        1.812213    1.581496    0.830640
     35          6           0        3.707828    0.150754   -0.593850
     36          6           0        3.129962    1.982235    0.842322
     37          6           0        4.092694    1.267169    0.133583
     38          1           0        2.078678   -1.100647   -1.202616
     39          1           0        1.073246    2.139336    1.397822
     40          1           0        4.429565   -0.427688   -1.159301
     41          1           0        3.443945    2.849999    1.413878
     42          8           0        5.369584    1.734982    0.218075
     43          6           0        6.368506    1.037347   -0.492266
     44          1           0        6.460713    0.000867   -0.145468
     45          1           0        6.173119    1.041208   -1.571513
     46          1           0        7.303574    1.562498   -0.297656
 ---------------------------------------------------------------------
                    Distance matrix (angstroms):
                    1          2          3          4          5
     1  N    0.000000
     2  C    1.414672   0.000000
     3  C    2.439393   1.386544   0.000000
     4  C    2.441966   1.396697   2.389446   0.000000
     5  C    3.716465   2.419151   1.389722   2.769697   0.000000
     6  C    3.705392   2.412553   2.760406   1.377411   2.398719
     7  C    4.214622   2.799961   2.403347   2.405073   1.387093
     8  H    2.662431   2.139228   1.085834   3.375785   2.143261
     9  H    2.661641   2.147930   3.373865   1.085840   3.855511
    10  H    4.574181   3.389297   2.136036   3.853528   1.084092
    11  H    4.587636   3.401292   3.845803   2.147890   3.374876
    12  C    1.414401   2.449852   2.961761   3.630696   4.308612
    13  C    2.436960   2.968885   3.224992   4.005028   4.363473
    14  C    2.444193   3.623887   3.987075   4.850601   5.366862
    15  C    3.714350   4.312188   4.356545   5.383702   5.429035
    16  C    3.707143   4.781811   4.950299   6.032282   6.269638
    17  C    4.214583   5.071059   5.112778   6.266628   6.304540
    18  H    2.657942   2.737785   3.012452   3.499019   3.911781
    19  H    2.666898   3.897527   4.343422   5.060288   5.719439
    20  H    4.571290   4.971183   4.917303   5.918217   5.802869
    21  H    4.589916   5.714099   5.856063   6.976551   7.177995
    22  O    5.574008   6.413030   6.361301   7.610036   7.490671
    23  C    6.413582   7.078271   6.944227   8.185674   7.921371
    24  H    6.411799   6.871709   6.548689   7.981712   7.389105
    25  H    6.408811   7.082819   7.104756   8.060607   8.069107
    26  H    7.411793   8.118981   7.956968   9.251944   8.933144
    27  O    5.573842   4.159621   3.681725   3.612665   2.435087
    28  C    6.414781   5.025586   4.195083   4.775509   2.806343
    29  H    6.411602   5.078316   4.122799   5.006194   2.793337
    30  H    6.412514   5.077989   4.119856   5.007872   2.797484
    31  H    7.412555   6.007386   5.257668   5.605870   3.874258
    32  C    1.413789   2.449375   3.613775   2.974511   4.787468
    33  C    2.439126   2.949143   3.969388   3.207112   4.942940
    34  C    2.441525   3.640962   4.846088   4.029675   6.047329
    35  C    3.715976   4.299921   5.349787   4.351418   6.263367
    36  C    3.704825   4.794882   6.020780   4.990917   7.162698
    37  C    4.214432   5.072449   6.243048   5.133686   7.266547
    38  H    2.663542   2.700192   3.451216   2.959954   4.253326
    39  H    2.662484   3.924706   5.068418   4.399233   6.303899
    40  H    4.573490   4.950818   5.876355   4.896087   6.641472
    41  H    4.586819   5.733131   6.970532   5.907316   8.133464
    42  O    5.573767   6.415502   7.585821   6.384770   8.572551
    43  C    6.414402   7.071870   8.152979   6.950536   9.014385
    44  H    6.410825   6.867082   7.956249   6.551523   8.679522
    45  H    6.412330   7.065568   8.013435   7.096253   8.885827
    46  H    7.412285   8.115372   9.220987   7.968740  10.091956
                    6          7          8          9         10
     6  C    0.000000
     7  C    1.393159   0.000000
     8  H    3.846223   3.383838   0.000000
     9  H    2.136874   3.387990   4.273129   0.000000
    10  H    3.392145   2.158234   2.447229   4.939330   0.000000
    11  H    1.085496   2.136761   4.931597   2.476523   4.282318
    12  C    4.787318   5.072273   2.723239   3.906598   4.964734
    13  C    4.970144   5.127959   2.999038   4.362398   4.919591
    14  C    6.028246   6.255427   3.473306   5.066036   5.896877
    15  C    6.288157   6.315774   3.888594   5.740189   5.796131
    16  C    7.150822   7.263408   4.271976   6.280095   6.655597
    17  C    7.273180   7.298988   4.454703   6.576951   6.617456
    18  H    4.304018   4.485615   3.094737   3.898515   4.532513
    19  H    6.268715   6.559140   3.876666   5.200344   6.276072
    20  H    6.681453   6.636916   4.513187   6.300373   6.089638
    21  H    8.112631   8.211599   5.110115   7.194564   7.511921
    22  O    8.579678   8.535771   5.627410   7.923709   7.694111
    23  C    9.036868   8.925335   6.270385   8.533256   8.055174
    24  H    8.694243   8.433889   5.853378   8.450862   7.407773
    25  H    8.930493   8.941187   6.574455   8.309576   8.306016
    26  H   10.111106   9.973745   7.229132   9.592279   9.015560
    27  O    2.337924   1.362394   4.570867   4.474159   2.730641
    28  C    3.628055   2.371605   4.846490   5.730015   2.519887
    29  H    3.999704   2.700033   4.641639   5.999142   2.310333
    30  H    3.996793   2.699514   4.636763   6.002885   2.316413
    31  H    4.346640   3.253168   5.934897   6.483119   3.600273
    32  C    4.305630   5.070868   3.886083   2.746703   5.697170
    33  C    4.328423   5.093984   4.331818   2.995401   5.833571
    34  C    5.397766   6.282616   5.047366   3.532214   6.965503
    35  C    5.407769   6.289753   5.705696   3.902097   7.157241
    36  C    6.300998   7.286936   6.253445   4.334217   8.100382
    37  C    6.313776   7.299821   6.543939   4.497738   8.195545
    38  H    3.837617   4.416866   3.869147   3.056237   5.082731
    39  H    5.767113   6.604685   5.190246   3.943990   7.189165
    40  H    5.762462   6.591175   6.262546   4.509985   7.487926
    41  H    7.223979   8.248468   7.169393   5.182973   9.073973
    42  O    7.504733   8.538907   7.888221   5.673936   9.502497
    43  C    7.915225   8.908249   8.494393   6.298381   9.908950
    44  H    7.383975   8.422205   8.422019   5.872620   9.597564
    45  H    8.039809   8.897967   8.259430   6.590442   9.703673
    46  H    8.934420   9.962684   9.552905   7.263107  10.994226
                   11         12         13         14         15
    11  H    0.000000
    12  C    5.721900   0.000000
    13  C    5.879055   1.387040   0.000000
    14  C    6.975745   1.396337   2.389436   0.000000
    15  C    7.201686   2.419151   1.389112   2.769667   0.000000
    16  C    8.117250   2.412612   2.760165   1.377960   2.398450
    17  C    8.226987   2.800183   2.403325   2.405229   1.387565
    18  H    5.143848   2.139372   1.085848   3.375556   2.142954
    19  H    7.185457   2.148347   3.374402   1.085796   3.855437
    20  H    7.543763   3.389338   2.135457   3.853495   1.084090
    21  H    9.083640   3.401123   3.845551   2.148102   3.374809
    22  O    9.534654   4.159936   3.681515   3.613220   2.435338
    23  C    9.952835   5.025636   4.194483   4.775787   2.806365
    24  H    9.625807   5.079881   4.123016   5.008279   2.793633
    25  H    9.773598   5.076495   4.118402   5.006211   2.797258
    26  H   11.035827   6.007511   5.257118   5.606308   3.874307
    27  O    2.525801   6.414728   6.378205   7.598374   7.504363
    28  C    3.933238   7.076792   6.955781   8.169375   7.927359
    29  H    4.432627   6.870471   6.559108   7.968002   7.395103
    30  H    4.430892   7.077645   7.111002   8.037588   8.066200
    31  H    4.413468   8.118486   7.970414   9.236566   8.941974
    32  C    4.999018   2.448946   3.628289   2.957138   4.798387
    33  C    4.919455   3.624765   4.842139   3.994197   6.036261
    34  C    5.974839   2.960650   4.003839   3.195094   4.976216
    35  C    5.815709   4.795368   6.038478   4.965143   7.173179
    36  C    6.740901   4.295889   5.372596   4.322247   6.286983
    37  C    6.677510   5.070739   6.265246   5.103702   7.285246
    38  H    4.482822   3.905554   5.053892   4.366421   6.280882
    39  H    6.370255   2.721616   3.498135   2.964281   4.304779
    40  H    6.083921   5.709197   6.960647   5.862449   8.116882
    41  H    7.616673   4.983836   5.943997   4.903559   6.716743
    42  O    7.762493   6.382999   7.565745   6.312634   8.532105
    43  C    8.097093   7.354072   8.590793   7.297019   9.620742
    44  H    7.447420   7.503632   8.687951   7.636272   9.820644
    45  H    8.319015   7.310095   8.620321   7.128159   9.614753
    46  H    9.067947   8.295450   9.515465   8.179427  10.500233
                   16         17         18         19         20
    16  C    0.000000
    17  C    1.392568   0.000000
    18  H    3.845992   3.384031   0.000000
    19  H    2.136655   3.387527   4.273597   0.000000
    20  H    3.391799   2.158597   2.446931   4.939263   0.000000
    21  H    1.085479   2.136335   4.931355   2.475576   4.282217
    22  O    2.337895   1.362452   4.570830   4.473932   2.730685
    23  C    3.627821   2.371691   4.846087   5.729698   2.519725
    24  H    4.001129   2.701044   4.641913   6.001100   2.309421
    25  H    3.994868   2.698889   4.635640   6.000416   2.317082
    26  H    4.346553   3.253223   5.934504   6.482847   3.600096
    27  O    8.569559   8.536899   5.660536   7.904307   7.717631
    28  C    9.019180   8.917621   6.298897   8.510543   8.070516
    29  H    8.679462   8.427898   5.879028   8.431937   7.422567
    30  H    8.902859   8.922613   6.599325   8.280842   8.311637
    31  H   10.094981   9.968564   7.259256   9.569647   9.034549
    32  C    4.294743   5.071735   3.909088   2.713874   5.713416
    33  C    5.363880   6.259238   5.055947   3.484181   6.960289
    34  C    4.326800   5.112497   4.375636   2.956076   5.875108
    35  C    6.277043   7.279875   6.286194   4.286607   8.119542
    36  C    5.390223   6.296364   5.741236   3.841739   7.192625
    37  C    6.290325   7.299120   6.581680   4.438282   8.225833
    38  H    5.731174   6.572890   5.186030   3.908622   7.169217
    39  H    3.856224   4.456520   3.919317   3.033950   5.141189
    40  H    7.179918   8.217332   7.173118   5.122512   9.064841
    41  H    5.787356   6.648093   6.341153   4.477356   7.578431
    42  O    7.418492   8.469359   7.892636   5.585077   9.470880
    43  C    8.462707   9.566838   8.880515   6.487884  10.578876
    44  H    8.882452   9.911305   8.851257   6.901117  10.736786
    45  H    8.282226   9.468292   8.987425   6.223278  10.617613
    46  H    9.282735  10.397804   9.821472   7.360584  11.453875
                   21         22         23         24         25
    21  H    0.000000
    22  O    2.526094   0.000000
    23  C    3.933452   1.410380   0.000000
    24  H    4.434865   2.080919   1.096861   0.000000
    25  H    4.428987   2.080781   1.096769   1.788488   0.000000
    26  H    4.413884   2.008960   1.089954   1.781042   1.781092
    27  O    9.517963   9.730184  10.024118   9.449926  10.034113
    28  C    9.927884  10.013487  10.237726   9.544426  10.354174
    29  H    9.605079   9.441563   9.545979   8.788016   9.666977
    30  H    9.737273  10.010381  10.340743   9.653103  10.560461
    31  H   11.012028  11.055232  11.230104  10.513703  11.316580
    32  C    4.981383   6.384089   7.356101   7.506328   7.312633
    33  C    5.933035   7.559153   8.586140   8.683541   8.618004
    34  C    4.905793   6.322065   7.307493   7.647295   7.139148
    35  C    6.702929   8.525963   9.617441   9.817431   9.615028
    36  C    5.783857   7.425350   8.471822   8.891714   8.293562
    37  C    6.637684   8.469316   9.569839   9.914341   9.474840
    38  H    6.329244   7.882713   8.872327   8.843143   8.981707
    39  H    4.490037   5.604372   6.506779   6.920387   6.241038
    40  H    7.561485   9.461057  10.572076  10.729761  10.615168
    41  H    6.090211   7.664982   8.686341   9.217333   8.430578
    42  O    7.652903   9.573876  10.701563  11.115650  10.583666
    43  C    8.671962  10.697959  11.858303  12.212556  11.801605
    44  H    9.203109  11.112195  12.212984  12.492975  12.127253
    45  H    8.413989  10.575680  11.796676  12.121796  11.841682
    46  H    9.429472  11.480514  12.649827  13.063084  12.564653
                   26         27         28         29         30
    26  H    0.000000
    27  O   11.063008   0.000000
    28  C   11.226342   1.410417   0.000000
    29  H   10.512080   2.080812   1.096836   0.000000
    30  H   11.298139   2.080834   1.096776   1.788452   0.000000
    31  H   12.217509   2.009011   1.089952   1.781095   1.781128
    32  C    8.297009   6.383587   7.349392   7.500993   7.298084
    33  C    9.509808   6.303621   7.279052   7.618420   7.101587
    34  C    8.189337   7.584667   8.604881   8.705587   8.624903
    35  C   10.495426   7.417283   8.450238   8.872879   8.256664
    36  C    9.290980   8.536065   9.616749   9.820719   9.597803
    37  C   10.399426   8.471085   9.557699   9.906105   9.444377
    38  H    9.812236   5.563840   6.457610   6.869808   6.186277
    39  H    7.379267   7.917663   8.903661   8.879131   9.002253
    40  H   11.445268   7.604161   8.607578   9.141951   8.333853
    41  H    9.443246   9.494893  10.597054  10.764244  10.619765
    42  O   11.482506   9.655976  10.772233  11.174698  10.645945
    43  C   12.647989   9.922362  11.014458  11.533598  10.807357
    44  H   13.061807   9.339756  10.474559  11.062905  10.302929
    45  H   12.557594   9.920393  10.913631  11.439701  10.601274
    46  H   13.404444  10.962129  12.075013  12.601448  11.879352
                   31         32         33         34         35
    31  H    0.000000
    32  C    8.292387   0.000000
    33  C    8.164109   1.386816   0.000000
    34  C    9.531680   1.396945   2.389499   0.000000
    35  C    9.272535   2.419355   1.389687   2.769395   0.000000
    36  C   10.499458   2.412789   2.760178   1.377385   2.398091
    37  C   10.391762   2.800655   2.403586   2.405262   1.386962
    38  H    7.332865   2.140007   1.085772   3.376244   2.142599
    39  H    9.846333   2.148706   3.374349   1.085796   3.855157
    40  H    9.367587   3.389269   2.135626   3.853209   1.084082
    41  H   11.474241   3.401307   3.845570   2.147514   3.374393
    42  O   11.564323   4.160434   3.682081   3.612988   2.435248
    43  C   11.744523   5.026053   4.195071   4.775561   2.806345
    44  H   11.134249   5.078416   4.122477   5.005969   2.793186
    45  H   11.671319   5.078525   4.119902   5.007969   2.797569
    46  H   12.787474   6.007988   5.257725   5.606109   3.874292
                   36         37         38         39         40
    36  C    0.000000
    37  C    1.393012   0.000000
    38  H    3.845924   3.383525   0.000000
    39  H    2.136198   3.387631   4.274419   0.000000
    40  H    3.391636   2.158141   2.445694   4.938964   0.000000
    41  H    1.085484   2.136675   4.931288   2.474977   4.282047
    42  O    2.338103   1.362511   4.570472   4.473681   2.730923
    43  C    3.627962   2.371461   4.845435   5.729449   2.520071
    44  H    3.999431   2.699797   4.640380   5.998299   2.310212
    45  H    3.996616   2.699366   4.635523   6.002628   2.316798
    46  H    4.346811   3.253143   5.933872   6.482621   3.600444
                   41         42         43         44         45
    41  H    0.000000
    42  O    2.526122   0.000000
    43  C    3.933465   1.410363   0.000000
    44  H    4.432832   2.080837   1.096842   0.000000
    45  H    4.430877   2.080773   1.096798   1.788470   0.000000
    46  H    4.414039   2.008991   1.089958   1.781086   1.781119
                   46
    46  H    0.000000
 Stoichiometry    C21H21NO3(1+,2)
 Framework group  C1[X(C21H21NO3)]
 Deg. of freedom   132
 Full point group                 C1      NOp   1
 Largest Abelian subgroup         C1      NOp   1
 Largest concise Abelian subgroup C1      NOp   1
                         Standard orientation:                         
 ---------------------------------------------------------------------
 Center     Atomic      Atomic             Coordinates (Angstroms)
 Number     Number       Type             X           Y           Z
 ---------------------------------------------------------------------
      1          7           0       -0.054086   -0.063852    0.077784
      2          6           0        0.275154    1.311734    0.103506
      3          6           0        1.260864    1.827996   -0.723750
      4          6           0       -0.386136    2.184815    0.970218
      5          6           0        1.598383    3.175646   -0.688444
      6          6           0       -0.074578    3.526309    0.994438
      7          6           0        0.925199    4.034430    0.167909
      8          1           0        1.784639    1.164376   -1.405148
      9          1           0       -1.158634    1.797039    1.627427
     10          1           0        2.379443    3.537518   -1.347421
     11          1           0       -0.588854    4.206820    1.665799
     12          6           0        0.970368   -1.034170   -0.019727
     13          6           0        2.134785   -0.917605    0.724871
     14          6           0        0.835798   -2.133662   -0.869883
     15          6           0        3.151989   -1.858173    0.623575
     16          6           0        1.829783   -3.083911   -0.958163
     17          6           0        3.000538   -2.952780   -0.215611
     18          1           0        2.255494   -0.070395    1.393250
     19          1           0       -0.067506   -2.240735   -1.462783
     20          1           0        4.048238   -1.726663    1.219136
     21          1           0        1.725248   -3.941045   -1.615932
     22          8           0        3.928452   -3.936732   -0.380204
     23          6           0        5.121819   -3.840278    0.365278
     24          1           0        5.681123   -2.930405    0.115451
     25          1           0        4.925954   -3.859222    1.444250
     26          1           0        5.719913   -4.710923    0.096466
     27          8           0        1.168219    5.370782    0.273837
     28          6           0        2.170457    5.919716   -0.552884
     29          1           0        3.151069    5.472721   -0.348812
     30          1           0        1.930215    5.794071   -1.615623
     31          1           0        2.208574    6.983731   -0.319613
     32          6           0       -1.409258   -0.466483    0.091838
     33          6           0       -2.372325    0.232607   -0.620224
     34          6           0       -1.812213   -1.581496    0.830640
     35          6           0       -3.707828   -0.150755   -0.593850
     36          6           0       -3.129962   -1.982236    0.842322
     37          6           0       -4.092694   -1.267170    0.133583
     38          1           0       -2.078678    1.100647   -1.202616
     39          1           0       -1.073245   -2.139336    1.397822
     40          1           0       -4.429565    0.427687   -1.159301
     41          1           0       -3.443944   -2.850000    1.413878
     42          8           0       -5.369584   -1.734983    0.218075
     43          6           0       -6.368506   -1.037348   -0.492266
     44          1           0       -6.460713   -0.000869   -0.145468
     45          1           0       -6.173119   -1.041209   -1.571513
     46          1           0       -7.303574   -1.562500   -0.297656
 ---------------------------------------------------------------------
 Rotational constants (GHZ):           0.1829468           0.1651743           0.0911050
 Leave Link  202 at Sun Jan 17 03:46:51 2021, MaxMem=  4026531840 cpu:               0.5 elap:               0.1
 (Enter /opt/ohpc/pub/libs/gaussian/g16-A.03/sandybridge/g16/l301.exe)
 Standard basis: TZVP (5D, 7F)
 Ernie: Thresh=  0.10000D-02 Tol=  0.10000D-05 Strict=F.
 There are   626 symmetry adapted cartesian basis functions of A   symmetry.
 There are   601 symmetry adapted basis functions of A   symmetry.
   601 basis functions,  1043 primitive gaussians,   626 cartesian basis functions
    89 alpha electrons       88 beta electrons
       nuclear repulsion energy      2056.6778086010 Hartrees.
 IExCor=33909 DFT=T Ex+Corr=LC-wHPBE ExCW=0 ScaHFX=  1.000000
 ScaDFX=  1.000000  1.000000  1.000000  1.000000 ScalE2=  1.000000  1.000000
 IRadAn=      5 IRanWt=     -1 IRanGd=            0 ICorTp=0 IEmpDi=  4
 HFx  wShort=  0.000000 wLong=  0.189400 cFull=  0.000000 cShort=  0.000000 cLong=  1.000000
 DFx  wShort=  0.000000 wLong=  0.189400 cFull=  0.000000 cShort=  1.000000 cLong=  0.000000
 NAtoms=   46 NActive=   46 NUniq=   46 SFac= 1.00D+00 NAtFMM=   60 NAOKFM=F Big=F
 Integral buffers will be    131072 words long.
 Raffenetti 2 integral format.
 Two-electron integral symmetry is turned on.
 Leave Link  301 at Sun Jan 17 03:46:51 2021, MaxMem=  4026531840 cpu:               0.4 elap:               0.1
 (Enter /opt/ohpc/pub/libs/gaussian/g16-A.03/sandybridge/g16/l302.exe)
 NPDir=0 NMtPBC=     1 NCelOv=     1 NCel=       1 NClECP=     1 NCelD=      1
         NCelK=      1 NCelE2=     1 NClLst=     1 CellRange=     0.0.
 One-electron integrals computed using PRISM.
 One-electron integral symmetry used in STVInt
 NBasis=   601 RedAO= T EigKep=  7.47D-06  NBF=   601
 NBsUse=   601 1.00D-06 EigRej= -1.00D+00 NBFU=   601
 Precomputing XC quadrature grid using
 IXCGrd= 4 IRadAn=           5 IRanWt=          -1 IRanGd=           0 AccXCQ= 0.00D+00.
 Generated NRdTot=       0 NPtTot=           0 NUsed=           0 NTot=          32
 NSgBfM=   597   597   597   597   597 MxSgAt=    46 MxSgA2=    46.
 Leave Link  302 at Sun Jan 17 03:46:52 2021, MaxMem=  4026531840 cpu:              10.1 elap:               1.3
 (Enter /opt/ohpc/pub/libs/gaussian/g16-A.03/sandybridge/g16/l303.exe)
 DipDrv:  MaxL=1.
 Leave Link  303 at Sun Jan 17 03:46:52 2021, MaxMem=  4026531840 cpu:               1.0 elap:               0.2
 (Enter /opt/ohpc/pub/libs/gaussian/g16-A.03/sandybridge/g16/l401.exe)
 ExpMin= 9.52D-02 ExpMax= 2.70D+04 ExpMxC= 9.22D+02 IAcc=3 IRadAn=         5 AccDes= 0.00D+00
 Harris functional with IExCor=33909 and IRadAn=       5 diagonalized for initial guess.
 HarFok:  IExCor=33909 AccDes= 0.00D+00 IRadAn=         5 IDoV= 1 UseB2=F ITyADJ=14
 ICtDFT=  3500011 ScaDFX=  1.000000  1.000000  1.000000  1.000000
 FoFCou: FMM=F IPFlag=           0 FMFlag=      100000 FMFlg1=           0
         NFxFlg=           0 DoJE=T BraDBF=F KetDBF=T FulRan=T
         wScrn=  0.000000 ICntrl=       500 IOpCl=  0 I1Cent=   200000004 NGrid=           0
         NMat0=    1 NMatS0=      1 NMatT0=    0 NMatD0=    1 NMtDS0=    0 NMtDT0=    0
 Petite list used in FoFCou.
 Harris En= -1074.45279802058    
 JPrj=0 DoOrth=F DoCkMO=F.
 Initial guess <Sx>= 0.0000 <Sy>= 0.0000 <Sz>= 0.5000 <S**2>= 0.7500 S= 0.5000
 Leave Link  401 at Sun Jan 17 03:46:59 2021, MaxMem=  4026531840 cpu:              54.1 elap:               6.8
 (Enter /opt/ohpc/pub/libs/gaussian/g16-A.03/sandybridge/g16/l502.exe)
 Integral symmetry usage will be decided dynamically.
 UHF open shell SCF:
 Using DIIS extrapolation, IDIIS=    10.
 NGot=  4026531840 LenX=  4025736816 LenY=  4025344314
 Requested convergence on RMS density matrix=1.00D-06 within  32 cycles.
 Requested convergence on MAX density matrix=1.00D-04.
 Requested convergence on             energy=1.00D-04.
 Virtual orbitals will be shifted by   0.500 hartree.
 No special actions if energy rises.
 Dynamic level shift is on during FON iterations.

 Cycle   1  Pass 1  IDiag  1:
 FoFJK:  IHMeth= 1 ICntrl=       0 DoSepK=T KAlg= 0 I1Cent=           0 FoldK=F
 IRaf=         1 NMat=       1 IRICut=       1 DoRegI=T DoRafI=F ISym2E= 0 IDoP0=0 IntGTp=1.
 FoFCou: FMM=F IPFlag=           0 FMFlag=      100000 FMFlg1=           0
         NFxFlg=           0 DoJE=T BraDBF=F KetDBF=F FulRan=T
         wScrn=  0.000000 ICntrl=       500 IOpCl=  0 I1Cent=           0 NGrid=           0
         NMat0=    1 NMatS0=      1 NMatT0=    0 NMatD0=    1 NMtDS0=    0 NMtDT0=    0
 Symmetry not used in FoFCou.
 E= -1092.02279982589    
 DIIS: error= 2.70D-02 at cycle   1 NSaved=   1.
 NSaved= 1 IEnMin= 1 EnMin= -1092.02279982589     IErMin= 1 ErrMin= 2.70D-02
 ErrMax= 2.70D-02  0.00D+00 EMaxC= 1.00D+00 BMatC= 1.52D+00 BMatP= 1.52D+00
 IDIUse=1 WtCom= 1.00D+00 WtEn= 0.00D+00
 Coeff-Com:  0.100D+01
 Coeff:      0.100D+01
 Gap=     0.342 Goal=   None    Shift=    0.500
 T= 1433. Gap= 0.773 NK=0 IS=   90 IE=  601 IFin=   89
          NO(<0.9)=   0  NV(>0.1)=   0     89.00e < EF      0.00e >EF  Err=0.0D+00
 Gap=     0.129 Goal=   None    Shift=    0.500
 T= 1433. Gap= 0.615 NK=0 IS=   89 IE=  601 IFin=   88
          NO(<0.9)=   0  NV(>0.1)=   0     88.00e < EF      0.00e >EF  Err=0.0D+00
 GapD=    0.129 DampG=1.000 DampE=0.500 DampFc=0.5000 IDamp=-1.
 Damping current iteration by 5.00D-01
 RMSDP=2.02D-03 MaxDP=6.52D-02              OVMax= 6.93D-02

 Cycle   2  Pass 1  IDiag  1:
 E= -1092.24133880939     Delta-E=       -0.218538983509 Rises=F Damp=T
 DIIS: error= 1.19D-02 at cycle   2 NSaved=   2.
 NSaved= 2 IEnMin= 2 EnMin= -1092.24133880939     IErMin= 2 ErrMin= 1.19D-02
 ErrMax= 1.19D-02  0.00D+00 EMaxC= 1.00D+00 BMatC= 2.38D-01 BMatP= 1.52D+00
 IDIUse=1 WtCom= 1.00D+00 WtEn= 0.00D+00
 Coeff-Com: -0.493D+00 0.149D+01
 Coeff:     -0.493D+00 0.149D+01
 Gap=     0.295 Goal=   None    Shift=    0.500
 T= 1309. Gap= 0.761 NK=0 IS=   90 IE=  601 IFin=   89
          NO(<0.9)=   0  NV(>0.1)=   0     89.00e < EF      0.00e >EF  Err=0.0D+00
 Gap=     0.198 Goal=   None    Shift=    0.500
 T= 1309. Gap= 0.677 NK=0 IS=   89 IE=  601 IFin=   88
          NO(<0.9)=   0  NV(>0.1)=   0     88.00e < EF      0.00e >EF  Err=0.0D+00
 GapD=    0.198 DampG=1.000 DampE=0.500 DampFc=0.5000 IDamp=-1.
 Damping current iteration by 5.00D-01
 RMSDP=1.10D-03 MaxDP=4.26D-02 DE=-2.19D-01 OVMax= 2.45D-02

 Cycle   3  Pass 1  IDiag  1:
 E= -1092.31392002981     Delta-E=       -0.072581220418 Rises=F Damp=T
 DIIS: error= 5.22D-03 at cycle   3 NSaved=   3.
 NSaved= 3 IEnMin= 3 EnMin= -1092.31392002981     IErMin= 3 ErrMin= 5.22D-03
 ErrMax= 5.22D-03  0.00D+00 EMaxC= 1.00D+00 BMatC= 4.41D-02 BMatP= 2.38D-01
 IDIUse=1 WtCom= 1.00D+00 WtEn= 0.00D+00
 Coeff-Com:  0.510D-01-0.846D+00 0.180D+01
 Coeff:      0.510D-01-0.846D+00 0.180D+01
 Gap=     0.275 Goal=   None    Shift=    0.500
 T= 1068. Gap= 0.772 NK=4 IS=   90 IE=  100 IFin=   89
          NO(<0.9)=   0  NV(>0.1)=   0     89.00e < EF      0.00e >EF  Err=0.0D+00
 Gap=     0.168 Goal=   None    Shift=    0.500
 T= 1068. Gap= 0.668 NK=4 IS=   89 IE=  100 IFin=   88
          NO(<0.9)=   0  NV(>0.1)=   0     88.00e < EF      0.00e >EF  Err=0.0D+00
 GapD=    0.168 DampG=1.000 DampE=1.000 DampFc=1.0000 IDamp=-1.
 RMSDP=6.70D-04 MaxDP=3.25D-02 DE=-7.26D-02 OVMax= 9.65D-03

 Cycle   4  Pass 1  IDiag  1:
 E= -1092.37553402239     Delta-E=       -0.061613992580 Rises=F Damp=F
 DIIS: error= 1.68D-03 at cycle   4 NSaved=   4.
 NSaved= 4 IEnMin= 4 EnMin= -1092.37553402239     IErMin= 4 ErrMin= 1.68D-03
 ErrMax= 1.68D-03  0.00D+00 EMaxC= 1.00D+00 BMatC= 2.15D-03 BMatP= 4.41D-02
 IDIUse=1 WtCom= 1.00D+00 WtEn= 0.00D+00
 Coeff-Com:  0.667D-01-0.177D+00 0.155D+00 0.955D+00
 Coeff:      0.667D-01-0.177D+00 0.155D+00 0.955D+00
 Gap=     0.272 Goal=   None    Shift=    0.500
 T=  557. Gap= 0.772 NK=4 IS=   90 IE=  100 IFin=   89
          NO(<0.9)=   0  NV(>0.1)=   0     89.00e < EF      0.00e >EF  Err=0.0D+00
 Gap=     0.172 Goal=   None    Shift=    0.500
 T=  557. Gap= 0.672 NK=4 IS=   89 IE=  100 IFin=   88
          NO(<0.9)=   0  NV(>0.1)=   0     88.00e < EF      0.00e >EF  Err=0.0D+00
 GapD=    0.172 DampG=1.000 DampE=1.000 DampFc=1.0000 IDamp=-1.
 RMSDP=1.12D-04 MaxDP=3.29D-03 DE=-6.16D-02 OVMax= 7.57D-03

 Cycle   5  Pass 1  IDiag  1:
 E= -1092.37622792384     Delta-E=       -0.000693901449 Rises=F Damp=F
 DIIS: error= 1.15D-03 at cycle   5 NSaved=   5.
 NSaved= 5 IEnMin= 5 EnMin= -1092.37622792384     IErMin= 5 ErrMin= 1.15D-03
 ErrMax= 1.15D-03  0.00D+00 EMaxC= 1.00D+00 BMatC= 3.96D-04 BMatP= 2.15D-03
 IDIUse=1 WtCom= 1.00D+00 WtEn= 0.00D+00
 Coeff-Com:  0.130D-01 0.326D-01-0.126D+00-0.851D-01 0.117D+01
 Coeff:      0.130D-01 0.326D-01-0.126D+00-0.851D-01 0.117D+01
 Gap=     0.272 Goal=   None    Shift=    0.500
 T=   48. Gap= 0.772 NK=4 IS=   90 IE=  100 IFin=   89
          NO(<0.9)=   0  NV(>0.1)=   0     89.00e < EF      0.00e >EF  Err=0.0D+00
 Gap=     0.173 Goal=   None    Shift=    0.500
 T=   48. Gap= 0.673 NK=4 IS=   89 IE=  100 IFin=   88
          NO(<0.9)=   0  NV(>0.1)=   0     88.00e < EF      0.00e >EF  Err=0.0D+00
 GapD=    0.173 DampG=1.000 DampE=1.000 DampFc=1.0000 IDamp=-1.
 RMSDP=7.43D-05 MaxDP=2.01D-03 DE=-6.94D-04 OVMax= 6.53D-03

 Cycle   6  Pass 1  IDiag  1:
 E= -1092.37649129919     Delta-E=       -0.000263375351 Rises=F Damp=F
 DIIS: error= 9.61D-04 at cycle   6 NSaved=   6.
 NSaved= 6 IEnMin= 6 EnMin= -1092.37649129919     IErMin= 6 ErrMin= 9.61D-04
 ErrMax= 9.61D-04  0.00D+00 EMaxC= 1.00D+00 BMatC= 1.35D-04 BMatP= 3.96D-04
 IDIUse=1 WtCom= 1.00D+00 WtEn= 0.00D+00
 Coeff-Com: -0.167D-01 0.658D-01-0.876D-01-0.268D+00-0.418D-01 0.135D+01
 Coeff:     -0.167D-01 0.658D-01-0.876D-01-0.268D+00-0.418D-01 0.135D+01
 Gap=     0.273 Goal=   None    Shift=    0.500
 Gap=     0.174 Goal=   None    Shift=    0.500
 RMSDP=4.67D-05 MaxDP=1.23D-03 DE=-2.63D-04 OVMax= 5.96D-03

 Cycle   7  Pass 1  IDiag  1:
 E= -1092.37664219430     Delta-E=       -0.000150895107 Rises=F Damp=F
 DIIS: error= 8.04D-04 at cycle   7 NSaved=   7.
 NSaved= 7 IEnMin= 7 EnMin= -1092.37664219430     IErMin= 7 ErrMin= 8.04D-04
 ErrMax= 8.04D-04  0.00D+00 EMaxC= 1.00D+00 BMatC= 7.13D-05 BMatP= 1.35D-04
 IDIUse=1 WtCom= 1.00D+00 WtEn= 0.00D+00
 Coeff-Com: -0.107D-01 0.106D-01 0.131D-01-0.448D-01-0.441D+00-0.147D+00
 Coeff-Com:  0.162D+01
 Coeff:     -0.107D-01 0.106D-01 0.131D-01-0.448D-01-0.441D+00-0.147D+00
 Coeff:      0.162D+01
 Gap=     0.273 Goal=   None    Shift=    0.500
 Gap=     0.175 Goal=   None    Shift=    0.500
 RMSDP=3.02D-05 MaxDP=9.30D-04 DE=-1.51D-04 OVMax= 5.53D-03

 Cycle   8  Pass 1  IDiag  1:
 E= -1092.37674010596     Delta-E=       -0.000097911663 Rises=F Damp=F
 DIIS: error= 7.00D-04 at cycle   8 NSaved=   8.
 NSaved= 8 IEnMin= 8 EnMin= -1092.37674010596     IErMin= 8 ErrMin= 7.00D-04
 ErrMax= 7.00D-04  0.00D+00 EMaxC= 1.00D+00 BMatC= 4.20D-05 BMatP= 7.13D-05
 IDIUse=1 WtCom= 1.00D+00 WtEn= 0.00D+00
 Coeff-Com:  0.324D-02-0.322D-01 0.571D-01 0.127D+00-0.244D+00-0.101D+01
 Coeff-Com:  0.602D+00 0.150D+01
 Coeff:      0.324D-02-0.322D-01 0.571D-01 0.127D+00-0.244D+00-0.101D+01
 Coeff:      0.602D+00 0.150D+01
 Gap=     0.274 Goal=   None    Shift=    0.500
 Gap=     0.176 Goal=   None    Shift=    0.500
 RMSDP=2.13D-05 MaxDP=8.04D-04 DE=-9.79D-05 OVMax= 5.18D-03

 Cycle   9  Pass 1  IDiag  1:
 E= -1092.37680614534     Delta-E=       -0.000066039378 Rises=F Damp=F
 DIIS: error= 5.69D-04 at cycle   9 NSaved=   9.
 NSaved= 9 IEnMin= 9 EnMin= -1092.37680614534     IErMin= 9 ErrMin= 5.69D-04
 ErrMax= 5.69D-04  0.00D+00 EMaxC= 1.00D+00 BMatC= 2.18D-05 BMatP= 4.20D-05
 IDIUse=1 WtCom= 1.00D+00 WtEn= 0.00D+00
 Coeff-Com:  0.569D-02-0.157D-01 0.134D-01 0.303D-01 0.194D+00-0.290D+00
 Coeff-Com: -0.700D+00-0.446D+00 0.221D+01
 Coeff:      0.569D-02-0.157D-01 0.134D-01 0.303D-01 0.194D+00-0.290D+00
 Coeff:     -0.700D+00-0.446D+00 0.221D+01
 Gap=     0.274 Goal=   None    Shift=    0.500
 Gap=     0.176 Goal=   None    Shift=    0.500
 RMSDP=1.49D-05 MaxDP=7.17D-04 DE=-6.60D-05 OVMax= 4.53D-03

 Cycle  10  Pass 1  IDiag  1:
 E= -1092.37684744455     Delta-E=       -0.000041299214 Rises=F Damp=F
 DIIS: error= 4.61D-04 at cycle  10 NSaved=  10.
 NSaved=10 IEnMin=10 EnMin= -1092.37684744455     IErMin=10 ErrMin= 4.61D-04
 ErrMax= 4.61D-04  0.00D+00 EMaxC= 1.00D+00 BMatC= 1.23D-05 BMatP= 2.18D-05
 IDIUse=1 WtCom= 1.00D+00 WtEn= 0.00D+00
 Coeff-Com:  0.122D-02-0.249D-02 0.872D-03-0.430D-01 0.146D+00 0.159D+00
 Coeff-Com: -0.461D+00-0.503D+00-0.244D+00 0.195D+01
 Coeff:      0.122D-02-0.249D-02 0.872D-03-0.430D-01 0.146D+00 0.159D+00
 Coeff:     -0.461D+00-0.503D+00-0.244D+00 0.195D+01
 Gap=     0.274 Goal=   None    Shift=    0.500
 Gap=     0.177 Goal=   None    Shift=    0.500
 RMSDP=1.04D-05 MaxDP=5.10D-04 DE=-4.13D-05 OVMax= 3.55D-03

 Cycle  11  Pass 1  IDiag  1:
 E= -1092.37686989977     Delta-E=       -0.000022455217 Rises=F Damp=F
 DIIS: error= 3.59D-04 at cycle  11 NSaved=  11.
 NSaved=11 IEnMin=11 EnMin= -1092.37686989977     IErMin=11 ErrMin= 3.59D-04
 ErrMax= 3.59D-04  0.00D+00 EMaxC= 1.00D+00 BMatC= 7.27D-06 BMatP= 1.23D-05
 IDIUse=1 WtCom= 1.00D+00 WtEn= 0.00D+00
 Coeff-Com: -0.201D-02 0.273D-03 0.625D-02-0.464D-01-0.531D-01 0.223D+00
 Coeff-Com:  0.222D+00 0.770D-01-0.176D+01 0.959D-01 0.223D+01
 Coeff:     -0.201D-02 0.273D-03 0.625D-02-0.464D-01-0.531D-01 0.223D+00
 Coeff:      0.222D+00 0.770D-01-0.176D+01 0.959D-01 0.223D+01
 Gap=     0.274 Goal=   None    Shift=    0.500
 Gap=     0.177 Goal=   None    Shift=    0.500
 RMSDP=8.67D-06 MaxDP=4.17D-04 DE=-2.25D-05 OVMax= 2.79D-03

 Cycle  12  Pass 1  IDiag  1:
 E= -1092.37688252045     Delta-E=       -0.000012620677 Rises=F Damp=F
 DIIS: error= 2.90D-04 at cycle  12 NSaved=  12.
 NSaved=12 IEnMin=12 EnMin= -1092.37688252045     IErMin=12 ErrMin= 2.90D-04
 ErrMax= 2.90D-04  0.00D+00 EMaxC= 1.00D+00 BMatC= 4.72D-06 BMatP= 7.27D-06
 IDIUse=1 WtCom= 1.00D+00 WtEn= 0.00D+00
 Coeff-Com:  0.355D-03-0.106D-01 0.200D-01-0.343D-02-0.100D+00-0.898D-01
 Coeff-Com:  0.417D+00 0.346D+00-0.432D+00-0.168D+01 0.498D+00 0.203D+01
 Coeff:      0.355D-03-0.106D-01 0.200D-01-0.343D-02-0.100D+00-0.898D-01
 Coeff:      0.417D+00 0.346D+00-0.432D+00-0.168D+01 0.498D+00 0.203D+01
 Gap=     0.274 Goal=   None    Shift=    0.500
 Gap=     0.177 Goal=   None    Shift=    0.500
 RMSDP=6.07D-06 MaxDP=3.12D-04 DE=-1.26D-05 OVMax= 2.18D-03

 Cycle  13  Pass 1  IDiag  1:
 E= -1092.37688917170     Delta-E=       -0.000006651253 Rises=F Damp=F
 DIIS: error= 2.18D-04 at cycle  13 NSaved=  13.
 NSaved=13 IEnMin=13 EnMin= -1092.37688917170     IErMin=13 ErrMin= 2.18D-04
 ErrMax= 2.18D-04  0.00D+00 EMaxC= 1.00D+00 BMatC= 2.72D-06 BMatP= 4.72D-06
 IDIUse=1 WtCom= 1.00D+00 WtEn= 0.00D+00
 Coeff-Com:  0.169D-02-0.957D-02 0.135D-01 0.828D-02-0.919D-04-0.146D+00
 Coeff-Com:  0.513D-01 0.505D-01 0.723D+00-0.810D+00-0.580D+00-0.843D+00
 Coeff-Com:  0.254D+01
 Coeff:      0.169D-02-0.957D-02 0.135D-01 0.828D-02-0.919D-04-0.146D+00
 Coeff:      0.513D-01 0.505D-01 0.723D+00-0.810D+00-0.580D+00-0.843D+00
 Coeff:      0.254D+01
 Gap=     0.274 Goal=   None    Shift=    0.500
 Gap=     0.177 Goal=   None    Shift=    0.500
 RMSDP=4.34D-06 MaxDP=2.08D-04 DE=-6.65D-06 OVMax= 1.60D-03

 Cycle  14  Pass 1  IDiag  1:
 E= -1092.37689248952     Delta-E=       -0.000003317820 Rises=F Damp=F
 DIIS: error= 1.66D-04 at cycle  14 NSaved=  14.
 NSaved=14 IEnMin=14 EnMin= -1092.37689248952     IErMin=14 ErrMin= 1.66D-04
 ErrMax= 1.66D-04  0.00D+00 EMaxC= 1.00D+00 BMatC= 1.53D-06 BMatP= 2.72D-06
 IDIUse=1 WtCom= 1.00D+00 WtEn= 0.00D+00
 Coeff-Com:  0.871D-03-0.205D-02 0.104D-02-0.248D-02 0.557D-01-0.289D-01
 Coeff-Com: -0.181D+00-0.141D+00 0.550D+00 0.423D+00-0.413D+00-0.196D+01
 Coeff-Com:  0.839D+00 0.186D+01
 Coeff:      0.871D-03-0.205D-02 0.104D-02-0.248D-02 0.557D-01-0.289D-01
 Coeff:     -0.181D+00-0.141D+00 0.550D+00 0.423D+00-0.413D+00-0.196D+01
 Coeff:      0.839D+00 0.186D+01
 Gap=     0.274 Goal=   None    Shift=    0.500
 Gap=     0.177 Goal=   None    Shift=    0.500
 RMSDP=3.00D-06 MaxDP=1.30D-04 DE=-3.32D-06 OVMax= 1.18D-03

 Cycle  15  Pass 1  IDiag  1:
 E= -1092.37689417441     Delta-E=       -0.000001684885 Rises=F Damp=F
 DIIS: error= 1.23D-04 at cycle  15 NSaved=  15.
 NSaved=15 IEnMin=15 EnMin= -1092.37689417441     IErMin=15 ErrMin= 1.23D-04
 ErrMax= 1.23D-04  0.00D+00 EMaxC= 1.00D+00 BMatC= 7.90D-07 BMatP= 1.53D-06
 IDIUse=1 WtCom= 1.00D+00 WtEn= 0.00D+00
 Coeff-Com: -0.455D-03 0.109D-02-0.626D-03-0.985D-02 0.900D-03 0.605D-01
 Coeff-Com: -0.194D-01 0.158D-01-0.411D+00 0.366D+00 0.397D+00 0.727D-01
 Coeff-Com: -0.116D+01-0.117D+01 0.285D+01
 Coeff:     -0.455D-03 0.109D-02-0.626D-03-0.985D-02 0.900D-03 0.605D-01
 Coeff:     -0.194D-01 0.158D-01-0.411D+00 0.366D+00 0.397D+00 0.727D-01
 Coeff:     -0.116D+01-0.117D+01 0.285D+01
 Gap=     0.274 Goal=   None    Shift=    0.500
 Gap=     0.177 Goal=   None    Shift=    0.500
 RMSDP=2.15D-06 MaxDP=9.43D-05 DE=-1.68D-06 OVMax= 8.87D-04

 Cycle  16  Pass 1  IDiag  1:
 E= -1092.37689506196     Delta-E=       -0.000000887550 Rises=F Damp=F
 DIIS: error= 9.28D-05 at cycle  16 NSaved=  16.
 NSaved=16 IEnMin=16 EnMin= -1092.37689506196     IErMin=16 ErrMin= 9.28D-05
 ErrMax= 9.28D-05  0.00D+00 EMaxC= 1.00D+00 BMatC= 4.44D-07 BMatP= 7.90D-07
 IDIUse=1 WtCom= 1.00D+00 WtEn= 0.00D+00
 Coeff-Com: -0.296D-03-0.533D-03 0.211D-02-0.725D-02-0.146D-01 0.281D-01
 Coeff-Com:  0.654D-01 0.398D-01-0.351D+00 0.158D-01 0.346D+00 0.487D+00
 Coeff-Com: -0.694D+00-0.119D+01 0.633D+00 0.164D+01
 Coeff:     -0.296D-03-0.533D-03 0.211D-02-0.725D-02-0.146D-01 0.281D-01
 Coeff:      0.654D-01 0.398D-01-0.351D+00 0.158D-01 0.346D+00 0.487D+00
 Coeff:     -0.694D+00-0.119D+01 0.633D+00 0.164D+01
 Gap=     0.274 Goal=   None    Shift=    0.500
 Gap=     0.177 Goal=   None    Shift=    0.500
 RMSDP=1.45D-06 MaxDP=7.31D-05 DE=-8.88D-07 OVMax= 6.49D-04

 Cycle  17  Pass 1  IDiag  1:
 E= -1092.37689553345     Delta-E=       -0.000000471490 Rises=F Damp=F
 DIIS: error= 6.99D-05 at cycle  17 NSaved=  17.
 NSaved=17 IEnMin=17 EnMin= -1092.37689553345     IErMin=17 ErrMin= 6.99D-05
 ErrMax= 6.99D-05  0.00D+00 EMaxC= 1.00D+00 BMatC= 2.45D-07 BMatP= 4.44D-07
 IDIUse=1 WtCom= 1.00D+00 WtEn= 0.00D+00
 Coeff-Com:  0.168D-03-0.191D-02 0.328D-02-0.112D-02-0.941D-02-0.216D-01
 Coeff-Com:  0.695D-01 0.324D-02 0.234D-01-0.228D+00 0.185D-01 0.190D+00
 Coeff-Com:  0.329D+00-0.162D+00-0.153D+01 0.530D+00 0.179D+01
 Coeff:      0.168D-03-0.191D-02 0.328D-02-0.112D-02-0.941D-02-0.216D-01
 Coeff:      0.695D-01 0.324D-02 0.234D-01-0.228D+00 0.185D-01 0.190D+00
 Coeff:      0.329D+00-0.162D+00-0.153D+01 0.530D+00 0.179D+01
 Gap=     0.274 Goal=   None    Shift=    0.500
 Gap=     0.177 Goal=   None    Shift=    0.500
 RMSDP=1.04D-06 MaxDP=5.78D-05 DE=-4.71D-07 OVMax= 4.95D-04

 Cycle  18  Pass 1  IDiag  1:
 E= -1092.37689580909     Delta-E=       -0.000000275646 Rises=F Damp=F
 DIIS: error= 5.23D-05 at cycle  18 NSaved=  18.
 NSaved=18 IEnMin=18 EnMin= -1092.37689580909     IErMin=18 ErrMin= 5.23D-05
 ErrMax= 5.23D-05  0.00D+00 EMaxC= 1.00D+00 BMatC= 1.36D-07 BMatP= 2.45D-07
 IDIUse=1 WtCom= 1.00D+00 WtEn= 0.00D+00
 Coeff-Com:  0.256D-03-0.113D-02 0.136D-02 0.912D-03 0.450D-02-0.187D-01
 Coeff-Com: -0.421D-02-0.238D-01 0.175D+00-0.862D-01-0.129D+00-0.281D+00
 Coeff-Com:  0.570D+00 0.437D+00-0.892D+00-0.925D+00 0.137D+00 0.203D+01
 Coeff:      0.256D-03-0.113D-02 0.136D-02 0.912D-03 0.450D-02-0.187D-01
 Coeff:     -0.421D-02-0.238D-01 0.175D+00-0.862D-01-0.129D+00-0.281D+00
 Coeff:      0.570D+00 0.437D+00-0.892D+00-0.925D+00 0.137D+00 0.203D+01
 Gap=     0.274 Goal=   None    Shift=    0.500
 Gap=     0.177 Goal=   None    Shift=    0.500
 RMSDP=7.96D-07 MaxDP=4.37D-05 DE=-2.76D-07 OVMax= 3.79D-04

 SCF Done:  E(ULC-wHPBE) =  -1092.37689581     A.U. after   18 cycles
            NFock= 18  Conv=0.80D-06     -V/T= 2.0043
 <Sx>= 0.0000 <Sy>= 0.0000 <Sz>= 0.5000 <S**2>= 0.7649 S= 0.5074
 <L.S>= 0.000000000000E+00
 KE= 1.087682002323D+03 PE=-6.636564320409D+03 EE= 2.399827613676D+03
 Annihilation of the first spin contaminant:
 S**2 before annihilation     0.7649,   after     0.7502
 Leave Link  502 at Sun Jan 17 04:04:30 2021, MaxMem=  4026531840 cpu:            8158.5 elap:            1050.6
 (Enter /opt/ohpc/pub/libs/gaussian/g16-A.03/sandybridge/g16/l508.exe)
 QCSCF skips out because SCF is already converged.
 Leave Link  508 at Sun Jan 17 04:04:30 2021, MaxMem=  4026531840 cpu:               0.1 elap:               0.0
 (Enter /opt/ohpc/pub/libs/gaussian/g16-A.03/sandybridge/g16/l601.exe)
 Copying SCF densities to generalized density rwf, IOpCl= 1 IROHF=0.

 **********************************************************************

            Population analysis using the SCF density.

 **********************************************************************

 Orbital symmetries:
 Alpha Orbitals:
       Occupied  (A) (A) (A) (A) (A) (A) (A) (A) (A) (A) (A) (A)
                 (A) (A) (A) (A) (A) (A) (A) (A) (A) (A) (A) (A)
                 (A) (A) (A) (A) (A) (A) (A) (A) (A) (A) (A) (A)
                 (A) (A) (A) (A) (A) (A) (A) (A) (A) (A) (A) (A)
                 (A) (A) (A) (A) (A) (A) (A) (A) (A) (A) (A) (A)
                 (A) (A) (A) (A) (A) (A) (A) (A) (A) (A) (A) (A)
                 (A) (A) (A) (A) (A) (A) (A) (A) (A) (A) (A) (A)
                 (A) (A) (A) (A) (A)
       Virtual   (A) (A) (A) (A) (A) (A) (A) (A) (A) (A) (A) (A)
                 (A) (A) (A) (A) (A) (A) (A) (A) (A) (A) (A) (A)
                 (A) (A) (A) (A) (A) (A) (A) (A) (A) (A) (A) (A)
                 (A) (A) (A) (A) (A) (A) (A) (A) (A) (A) (A) (A)
                 (A) (A) (A) (A) (A) (A) (A) (A) (A) (A) (A) (A)
                 (A) (A) (A) (A) (A) (A) (A) (A) (A) (A) (A) (A)
                 (A) (A) (A) (A) (A) (A) (A) (A) (A) (A) (A) (A)
                 (A) (A) (A) (A) (A) (A) (A) (A) (A) (A) (A) (A)
                 (A) (A) (A) (A) (A) (A) (A) (A) (A) (A) (A) (A)
                 (A) (A) (A) (A) (A) (A) (A) (A) (A) (A) (A) (A)
                 (A) (A) (A) (A) (A) (A) (A) (A) (A) (A) (A) (A)
                 (A) (A) (A) (A) (A) (A) (A) (A) (A) (A) (A) (A)
                 (A) (A) (A) (A) (A) (A) (A) (A) (A) (A) (A) (A)
                 (A) (A) (A) (A) (A) (A) (A) (A) (A) (A) (A) (A)
                 (A) (A) (A) (A) (A) (A) (A) (A) (A) (A) (A) (A)
                 (A) (A) (A) (A) (A) (A) (A) (A) (A) (A) (A) (A)
                 (A) (A) (A) (A) (A) (A) (A) (A) (A) (A) (A) (A)
                 (A) (A) (A) (A) (A) (A) (A) (A) (A) (A) (A) (A)
                 (A) (A) (A) (A) (A) (A) (A) (A) (A) (A) (A) (A)
                 (A) (A) (A) (A) (A) (A) (A) (A) (A) (A) (A) (A)
                 (A) (A) (A) (A) (A) (A) (A) (A) (A) (A) (A) (A)
                 (A) (A) (A) (A) (A) (A) (A) (A) (A) (A) (A) (A)
                 (A) (A) (A) (A) (A) (A) (A) (A) (A) (A) (A) (A)
                 (A) (A) (A) (A) (A) (A) (A) (A) (A) (A) (A) (A)
                 (A) (A) (A) (A) (A) (A) (A) (A) (A) (A) (A) (A)
                 (A) (A) (A) (A) (A) (A) (A) (A) (A) (A) (A) (A)
                 (A) (A) (A) (A) (A) (A) (A) (A) (A) (A) (A) (A)
                 (A) (A) (A) (A) (A) (A) (A) (A) (A) (A) (A) (A)
                 (A) (A) (A) (A) (A) (A) (A) (A) (A) (A) (A) (A)
                 (A) (A) (A) (A) (A) (A) (A) (A) (A) (A) (A) (A)
                 (A) (A) (A) (A) (A) (A) (A) (A) (A) (A) (A) (A)
                 (A) (A) (A) (A) (A) (A) (A) (A) (A) (A) (A) (A)
                 (A) (A) (A) (A) (A) (A) (A) (A) (A) (A) (A) (A)
                 (A) (A) (A) (A) (A) (A) (A) (A) (A) (A) (A) (A)
                 (A) (A) (A) (A) (A) (A) (A) (A) (A) (A) (A) (A)
                 (A) (A) (A) (A) (A) (A) (A) (A) (A) (A) (A) (A)
                 (A) (A) (A) (A) (A) (A) (A) (A) (A) (A) (A) (A)
                 (A) (A) (A) (A) (A) (A) (A) (A) (A) (A) (A) (A)
                 (A) (A) (A) (A) (A) (A) (A) (A) (A) (A) (A) (A)
                 (A) (A) (A) (A) (A) (A) (A) (A) (A) (A) (A) (A)
                 (A) (A) (A) (A) (A) (A) (A) (A) (A) (A) (A) (A)
                 (A) (A) (A) (A) (A) (A) (A) (A) (A) (A) (A) (A)
                 (A) (A) (A) (A) (A) (A) (A) (A)
 Beta  Orbitals:
       Occupied  (A) (A) (A) (A) (A) (A) (A) (A) (A) (A) (A) (A)
                 (A) (A) (A) (A) (A) (A) (A) (A) (A) (A) (A) (A)
                 (A) (A) (A) (A) (A) (A) (A) (A) (A) (A) (A) (A)
                 (A) (A) (A) (A) (A) (A) (A) (A) (A) (A) (A) (A)
                 (A) (A) (A) (A) (A) (A) (A) (A) (A) (A) (A) (A)
                 (A) (A) (A) (A) (A) (A) (A) (A) (A) (A) (A) (A)
                 (A) (A) (A) (A) (A) (A) (A) (A) (A) (A) (A) (A)
                 (A) (A) (A) (A)
       Virtual   (A) (A) (A) (A) (A) (A) (A) (A) (A) (A) (A) (A)
                 (A) (A) (A) (A) (A) (A) (A) (A) (A) (A) (A) (A)
                 (A) (A) (A) (A) (A) (A) (A) (A) (A) (A) (A) (A)
                 (A) (A) (A) (A) (A) (A) (A) (A) (A) (A) (A) (A)
                 (A) (A) (A) (A) (A) (A) (A) (A) (A) (A) (A) (A)
                 (A) (A) (A) (A) (A) (A) (A) (A) (A) (A) (A) (A)
                 (A) (A) (A) (A) (A) (A) (A) (A) (A) (A) (A) (A)
                 (A) (A) (A) (A) (A) (A) (A) (A) (A) (A) (A) (A)
                 (A) (A) (A) (A) (A) (A) (A) (A) (A) (A) (A) (A)
                 (A) (A) (A) (A) (A) (A) (A) (A) (A) (A) (A) (A)
                 (A) (A) (A) (A) (A) (A) (A) (A) (A) (A) (A) (A)
                 (A) (A) (A) (A) (A) (A) (A) (A) (A) (A) (A) (A)
                 (A) (A) (A) (A) (A) (A) (A) (A) (A) (A) (A) (A)
                 (A) (A) (A) (A) (A) (A) (A) (A) (A) (A) (A) (A)
                 (A) (A) (A) (A) (A) (A) (A) (A) (A) (A) (A) (A)
                 (A) (A) (A) (A) (A) (A) (A) (A) (A) (A) (A) (A)
                 (A) (A) (A) (A) (A) (A) (A) (A) (A) (A) (A) (A)
                 (A) (A) (A) (A) (A) (A) (A) (A) (A) (A) (A) (A)
                 (A) (A) (A) (A) (A) (A) (A) (A) (A) (A) (A) (A)
                 (A) (A) (A) (A) (A) (A) (A) (A) (A) (A) (A) (A)
                 (A) (A) (A) (A) (A) (A) (A) (A) (A) (A) (A) (A)
                 (A) (A) (A) (A) (A) (A) (A) (A) (A) (A) (A) (A)
                 (A) (A) (A) (A) (A) (A) (A) (A) (A) (A) (A) (A)
                 (A) (A) (A) (A) (A) (A) (A) (A) (A) (A) (A) (A)
                 (A) (A) (A) (A) (A) (A) (A) (A) (A) (A) (A) (A)
                 (A) (A) (A) (A) (A) (A) (A) (A) (A) (A) (A) (A)
                 (A) (A) (A) (A) (A) (A) (A) (A) (A) (A) (A) (A)
                 (A) (A) (A) (A) (A) (A) (A) (A) (A) (A) (A) (A)
                 (A) (A) (A) (A) (A) (A) (A) (A) (A) (A) (A) (A)
                 (A) (A) (A) (A) (A) (A) (A) (A) (A) (A) (A) (A)
                 (A) (A) (A) (A) (A) (A) (A) (A) (A) (A) (A) (A)
                 (A) (A) (A) (A) (A) (A) (A) (A) (A) (A) (A) (A)
                 (A) (A) (A) (A) (A) (A) (A) (A) (A) (A) (A) (A)
                 (A) (A) (A) (A) (A) (A) (A) (A) (A) (A) (A) (A)
                 (A) (A) (A) (A) (A) (A) (A) (A) (A) (A) (A) (A)
                 (A) (A) (A) (A) (A) (A) (A) (A) (A) (A) (A) (A)
                 (A) (A) (A) (A) (A) (A) (A) (A) (A) (A) (A) (A)
                 (A) (A) (A) (A) (A) (A) (A) (A) (A) (A) (A) (A)
                 (A) (A) (A) (A) (A) (A) (A) (A) (A) (A) (A) (A)
                 (A) (A) (A) (A) (A) (A) (A) (A) (A) (A) (A) (A)
                 (A) (A) (A) (A) (A) (A) (A) (A) (A) (A) (A) (A)
                 (A) (A) (A) (A) (A) (A) (A) (A) (A) (A) (A) (A)
                 (A) (A) (A) (A) (A) (A) (A) (A) (A)
 The electronic state is 2-A.
 Alpha  occ. eigenvalues --  -19.00957 -19.00937 -19.00935 -14.31198 -10.18088
 Alpha  occ. eigenvalues --  -10.18064 -10.18052 -10.16744 -10.16742 -10.16732
 Alpha  occ. eigenvalues --  -10.13999 -10.13957 -10.13918 -10.13200 -10.13171
 Alpha  occ. eigenvalues --  -10.13159 -10.12841 -10.12817 -10.12790 -10.11971
 Alpha  occ. eigenvalues --  -10.11936 -10.11925 -10.11558 -10.11538 -10.11511
 Alpha  occ. eigenvalues --   -1.20969  -1.20942  -1.20929  -1.16067  -1.03149
 Alpha  occ. eigenvalues --   -1.03137  -1.01120  -0.94066  -0.93912  -0.92303
 Alpha  occ. eigenvalues --   -0.92149  -0.91861  -0.90050  -0.86563  -0.86081
 Alpha  occ. eigenvalues --   -0.83970  -0.80887  -0.79724  -0.79098  -0.77779
 Alpha  occ. eigenvalues --   -0.77002  -0.74755  -0.72851  -0.72821  -0.70431
 Alpha  occ. eigenvalues --   -0.69332  -0.69289  -0.68081  -0.65987  -0.65778
 Alpha  occ. eigenvalues --   -0.63392  -0.63369  -0.63321  -0.62675  -0.62625
 Alpha  occ. eigenvalues --   -0.62554  -0.60617  -0.60472  -0.60456  -0.60109
 Alpha  occ. eigenvalues --   -0.59717  -0.58408  -0.58385  -0.57435  -0.57267
 Alpha  occ. eigenvalues --   -0.57041  -0.57001  -0.56973  -0.54731  -0.53457
 Alpha  occ. eigenvalues --   -0.53405  -0.52648  -0.50952  -0.50844  -0.49740
 Alpha  occ. eigenvalues --   -0.49635  -0.49611  -0.47178  -0.45926  -0.44983
 Alpha  occ. eigenvalues --   -0.44792  -0.41783  -0.41645  -0.37652
 Alpha virt. eigenvalues --   -0.10241  -0.08966  -0.08859  -0.08003  -0.07856
 Alpha virt. eigenvalues --   -0.04604  -0.00929   0.00421   0.00547   0.01278
 Alpha virt. eigenvalues --    0.01474   0.02072   0.02999   0.03107   0.03470
 Alpha virt. eigenvalues --    0.03664   0.04453   0.04475   0.04741   0.06498
 Alpha virt. eigenvalues --    0.06686   0.06981   0.07209   0.07463   0.07911
 Alpha virt. eigenvalues --    0.07975   0.08085   0.08176   0.08356   0.08553
 Alpha virt. eigenvalues --    0.08625   0.09026   0.09531   0.09805   0.12120
 Alpha virt. eigenvalues --    0.12621   0.12776   0.13533   0.13975   0.14367
 Alpha virt. eigenvalues --    0.14994   0.15021   0.15342   0.15863   0.16163
 Alpha virt. eigenvalues --    0.16420   0.16529   0.16814   0.17366   0.17808
 Alpha virt. eigenvalues --    0.17999   0.18342   0.18541   0.18698   0.18972
 Alpha virt. eigenvalues --    0.20250   0.20382   0.20794   0.21757   0.22077
 Alpha virt. eigenvalues --    0.22835   0.22966   0.23045   0.23413   0.23836
 Alpha virt. eigenvalues --    0.23993   0.24917   0.25371   0.25451   0.26047
 Alpha virt. eigenvalues --    0.26754   0.26896   0.27131   0.28187   0.28560
 Alpha virt. eigenvalues --    0.29075   0.29270   0.29681   0.29884   0.30624
 Alpha virt. eigenvalues --    0.31305   0.31546   0.32221   0.32515   0.32596
 Alpha virt. eigenvalues --    0.32791   0.33150   0.33381   0.33739   0.34226
 Alpha virt. eigenvalues --    0.34428   0.34692   0.35359   0.35945   0.36228
 Alpha virt. eigenvalues --    0.36404   0.36691   0.36813   0.37246   0.37485
 Alpha virt. eigenvalues --    0.38190   0.38411   0.38638   0.39000   0.40006
 Alpha virt. eigenvalues --    0.40351   0.40644   0.40907   0.40980   0.41206
 Alpha virt. eigenvalues --    0.41362   0.41430   0.41972   0.42142   0.42438
 Alpha virt. eigenvalues --    0.43000   0.43012   0.43371   0.43465   0.44193
 Alpha virt. eigenvalues --    0.44579   0.44826   0.45150   0.45806   0.47323
 Alpha virt. eigenvalues --    0.48018   0.48577   0.48681   0.49131   0.49176
 Alpha virt. eigenvalues --    0.50868   0.51785   0.53121   0.54257   0.54336
 Alpha virt. eigenvalues --    0.55239   0.56240   0.56890   0.57089   0.57364
 Alpha virt. eigenvalues --    0.57938   0.58231   0.59073   0.59394   0.59838
 Alpha virt. eigenvalues --    0.61258   0.61323   0.61815   0.62541   0.63144
 Alpha virt. eigenvalues --    0.63833   0.64542   0.64867   0.65334   0.65942
 Alpha virt. eigenvalues --    0.66328   0.66989   0.67119   0.68328   0.68586
 Alpha virt. eigenvalues --    0.68918   0.71181   0.72479   0.72769   0.73418
 Alpha virt. eigenvalues --    0.74899   0.75586   0.77239   0.77857   0.79372
 Alpha virt. eigenvalues --    0.80741   0.81777   0.84600   0.85683   0.85872
 Alpha virt. eigenvalues --    0.86899   0.87163   0.88111   1.05259   1.07411
 Alpha virt. eigenvalues --    1.07761   1.11575   1.12027   1.12758   1.14240
 Alpha virt. eigenvalues --    1.14447   1.14611   1.15292   1.15880   1.16501
 Alpha virt. eigenvalues --    1.16832   1.17229   1.17543   1.18507   1.18863
 Alpha virt. eigenvalues --    1.20212   1.20406   1.20668   1.21135   1.21447
 Alpha virt. eigenvalues --    1.21744   1.22096   1.22795   1.22962   1.23544
 Alpha virt. eigenvalues --    1.23755   1.25046   1.25610   1.26163   1.26634
 Alpha virt. eigenvalues --    1.27174   1.27416   1.29342   1.29724   1.30018
 Alpha virt. eigenvalues --    1.30765   1.31043   1.31230   1.32688   1.33043
 Alpha virt. eigenvalues --    1.33118   1.33869   1.34128   1.34395   1.34491
 Alpha virt. eigenvalues --    1.34859   1.35759   1.36107   1.36403   1.36734
 Alpha virt. eigenvalues --    1.36965   1.37626   1.38161   1.38388   1.39028
 Alpha virt. eigenvalues --    1.39392   1.40039   1.40463   1.40969   1.42417
 Alpha virt. eigenvalues --    1.42709   1.42827   1.42995   1.43446   1.43785
 Alpha virt. eigenvalues --    1.43883   1.44154   1.44693   1.45197   1.45647
 Alpha virt. eigenvalues --    1.46268   1.46464   1.46779   1.46821   1.47352
 Alpha virt. eigenvalues --    1.47704   1.47881   1.47969   1.49291   1.49470
 Alpha virt. eigenvalues --    1.50350   1.51706   1.52095   1.52676   1.53268
 Alpha virt. eigenvalues --    1.55229   1.56010   1.56264   1.58102   1.58212
 Alpha virt. eigenvalues --    1.58539   1.59717   1.59927   1.60484   1.63381
 Alpha virt. eigenvalues --    1.64194   1.66631   1.66726   1.67626   1.68440
 Alpha virt. eigenvalues --    1.68671   1.68742   1.68820   1.69409   1.69930
 Alpha virt. eigenvalues --    1.70458   1.71616   1.71816   1.72014   1.72106
 Alpha virt. eigenvalues --    1.72173   1.72199   1.72643   1.72964   1.73452
 Alpha virt. eigenvalues --    1.73807   1.74210   1.74353   1.75681   1.77222
 Alpha virt. eigenvalues --    1.77813   1.78416   1.79200   1.79513   1.80295
 Alpha virt. eigenvalues --    1.81780   1.81981   1.82318   1.82620   1.83142
 Alpha virt. eigenvalues --    1.83242   1.83485   1.83685   1.83791   1.83897
 Alpha virt. eigenvalues --    1.84290   1.85415   1.90390   1.90770   1.91165
 Alpha virt. eigenvalues --    1.93557   1.93652   1.94519   1.96143   1.96399
 Alpha virt. eigenvalues --    1.97006   1.99579   2.00315   2.01107   2.02353
 Alpha virt. eigenvalues --    2.03482   2.04463   2.05488   2.06369   2.08704
 Alpha virt. eigenvalues --    2.08833   2.09643   2.10589   2.11235   2.11562
 Alpha virt. eigenvalues --    2.12452   2.13021   2.13087   2.15369   2.19479
 Alpha virt. eigenvalues --    2.19569   2.19746   2.19889   2.19938   2.20537
 Alpha virt. eigenvalues --    2.20907   2.21373   2.22740   2.23210   2.24421
 Alpha virt. eigenvalues --    2.24547   2.25262   2.25437   2.26144   2.27290
 Alpha virt. eigenvalues --    2.27343   2.27668   2.27711   2.27830   2.28073
 Alpha virt. eigenvalues --    2.28337   2.28448   2.28700   2.30102   2.30179
 Alpha virt. eigenvalues --    2.30397   2.32760   2.32904   2.36973   2.37272
 Alpha virt. eigenvalues --    2.37512   2.39181   2.40261   2.40541   2.40738
 Alpha virt. eigenvalues --    2.44910   2.45063   2.48467   2.48530   2.48680
 Alpha virt. eigenvalues --    2.49020   2.49154   2.50212   2.50783   2.51181
 Alpha virt. eigenvalues --    2.51463   2.53222   2.53460   2.54043   2.54355
 Alpha virt. eigenvalues --    2.56281   2.56757   2.61761   2.61995   2.62108
 Alpha virt. eigenvalues --    2.62415   2.62808   2.63044   2.64248   2.64469
 Alpha virt. eigenvalues --    2.65075   2.65506   2.65993   2.66415   2.67944
 Alpha virt. eigenvalues --    2.68363   2.69362   2.71548   2.73243   2.74026
 Alpha virt. eigenvalues --    2.77147   2.77763   2.78596   2.79045   2.83140
 Alpha virt. eigenvalues --    2.83530   2.85253   2.85296   2.85509   2.90014
 Alpha virt. eigenvalues --    2.90230   2.90324   2.90704   2.91643   2.93934
 Alpha virt. eigenvalues --    2.94649   2.94937   2.95289   2.95988   2.97282
 Alpha virt. eigenvalues --    2.97327   2.97334   2.97672   2.98312   2.98470
 Alpha virt. eigenvalues --    3.00285   3.00749   3.02941   3.04205   3.04915
 Alpha virt. eigenvalues --    3.05323   3.06906   3.07302   3.09220   3.10578
 Alpha virt. eigenvalues --    3.11536   3.15405   3.16219   3.16731   3.18039
 Alpha virt. eigenvalues --    3.18450   3.18717   3.19004   3.20606   3.20645
 Alpha virt. eigenvalues --    3.20682   3.20987   3.21767   3.22641   3.25714
 Alpha virt. eigenvalues --    3.26362   3.27432   3.27905   3.29031   3.32310
 Alpha virt. eigenvalues --    3.33159   3.33928   3.34243   3.43719   3.44124
 Alpha virt. eigenvalues --    3.45462   3.47365   3.47737   3.59407   3.72440
 Alpha virt. eigenvalues --    3.72798   3.86889   3.87170   3.87341   4.06743
 Alpha virt. eigenvalues --    4.07341   4.07431  21.13331  21.15079  21.15259
 Alpha virt. eigenvalues --   21.57774  21.61228  21.61609  21.65895  21.72120
 Alpha virt. eigenvalues --   21.72212  21.72310  21.74136  21.75060  21.80163
 Alpha virt. eigenvalues --   21.84640  21.85399  21.86256  21.90100  21.91622
 Alpha virt. eigenvalues --   21.97155  22.04183  22.04926  31.88707  43.23291
 Alpha virt. eigenvalues --   43.23375  43.23381
  Beta  occ. eigenvalues --  -19.00848 -19.00824 -19.00818 -14.30421 -10.17963
  Beta  occ. eigenvalues --  -10.17937 -10.17921 -10.16766 -10.16764 -10.16754
  Beta  occ. eigenvalues --  -10.14003 -10.13962 -10.13923 -10.13071 -10.13040
  Beta  occ. eigenvalues --  -10.13026 -10.12743 -10.12718 -10.12689 -10.12001
  Beta  occ. eigenvalues --  -10.11968 -10.11956 -10.11591 -10.11569 -10.11544
  Beta  occ. eigenvalues --   -1.20783  -1.20751  -1.20732  -1.15088  -1.02950
  Beta  occ. eigenvalues --   -1.02931  -1.00838  -0.93863  -0.93710  -0.92181
  Beta  occ. eigenvalues --   -0.92021  -0.91734  -0.89723  -0.86498  -0.86024
  Beta  occ. eigenvalues --   -0.83726  -0.80675  -0.79531  -0.78914  -0.77578
  Beta  occ. eigenvalues --   -0.76845  -0.74624  -0.72714  -0.72679  -0.70327
  Beta  occ. eigenvalues --   -0.69201  -0.69149  -0.67582  -0.65891  -0.65673
  Beta  occ. eigenvalues --   -0.63132  -0.63103  -0.63048  -0.62562  -0.62518
  Beta  occ. eigenvalues --   -0.62461  -0.60516  -0.60393  -0.60382  -0.59603
  Beta  occ. eigenvalues --   -0.59549  -0.58353  -0.58335  -0.57265  -0.57030
  Beta  occ. eigenvalues --   -0.56754  -0.56741  -0.56702  -0.54171  -0.53346
  Beta  occ. eigenvalues --   -0.53302  -0.52148  -0.50367  -0.50252  -0.49623
  Beta  occ. eigenvalues --   -0.49549  -0.49523  -0.45671  -0.45325  -0.44707
  Beta  occ. eigenvalues --   -0.44482  -0.40419  -0.40203
  Beta virt. eigenvalues --   -0.22498  -0.09865  -0.08321  -0.08166  -0.07498
  Beta virt. eigenvalues --   -0.07294  -0.03440  -0.00855   0.00482   0.00601
  Beta virt. eigenvalues --    0.01340   0.01529   0.02109   0.03064   0.03156
  Beta virt. eigenvalues --    0.03517   0.03720   0.04521   0.04550   0.04894
  Beta virt. eigenvalues --    0.06644   0.06980   0.07173   0.07248   0.07571
  Beta virt. eigenvalues --    0.07953   0.08049   0.08193   0.08241   0.08402
  Beta virt. eigenvalues --    0.08605   0.08703   0.09061   0.09755   0.10001
  Beta virt. eigenvalues --    0.12354   0.12718   0.12881   0.13666   0.14081
  Beta virt. eigenvalues --    0.14459   0.15120   0.15161   0.15423   0.15952
  Beta virt. eigenvalues --    0.16303   0.16539   0.16664   0.16963   0.17471
  Beta virt. eigenvalues --    0.17867   0.18084   0.18444   0.18687   0.18813
  Beta virt. eigenvalues --    0.19097   0.20317   0.20454   0.20911   0.21840
  Beta virt. eigenvalues --    0.22156   0.22902   0.23079   0.23126   0.23570
  Beta virt. eigenvalues --    0.23929   0.24087   0.24977   0.25535   0.25599
  Beta virt. eigenvalues --    0.26197   0.26840   0.26978   0.27257   0.28322
  Beta virt. eigenvalues --    0.28693   0.29217   0.29407   0.29795   0.30020
  Beta virt. eigenvalues --    0.30749   0.31457   0.31652   0.32330   0.32635
  Beta virt. eigenvalues --    0.32714   0.32954   0.33317   0.33502   0.33890
  Beta virt. eigenvalues --    0.34295   0.34533   0.34815   0.35451   0.36061
  Beta virt. eigenvalues --    0.36318   0.36490   0.36732   0.36935   0.37298
  Beta virt. eigenvalues --    0.37534   0.38252   0.38471   0.38693   0.39068
  Beta virt. eigenvalues --    0.40084   0.40428   0.40741   0.41001   0.41051
  Beta virt. eigenvalues --    0.41276   0.41461   0.41497   0.42044   0.42222
  Beta virt. eigenvalues --    0.42512   0.43085   0.43090   0.43482   0.43582
  Beta virt. eigenvalues --    0.44264   0.44659   0.44909   0.45267   0.45923
  Beta virt. eigenvalues --    0.47426   0.48114   0.48691   0.48777   0.49248
  Beta virt. eigenvalues --    0.49301   0.51052   0.51922   0.53217   0.54375
  Beta virt. eigenvalues --    0.54432   0.55351   0.56320   0.57039   0.57199
  Beta virt. eigenvalues --    0.57510   0.58066   0.58396   0.59163   0.59495
  Beta virt. eigenvalues --    0.59906   0.61315   0.61389   0.61906   0.62649
  Beta virt. eigenvalues --    0.63245   0.63985   0.64687   0.65007   0.65411
  Beta virt. eigenvalues --    0.66044   0.66473   0.67058   0.67252   0.68419
  Beta virt. eigenvalues --    0.68707   0.69015   0.71300   0.72552   0.72869
  Beta virt. eigenvalues --    0.73656   0.74966   0.75654   0.77650   0.77999
  Beta virt. eigenvalues --    0.79618   0.80940   0.81844   0.84694   0.85769
  Beta virt. eigenvalues --    0.85952   0.87008   0.87258   0.88404   1.05363
  Beta virt. eigenvalues --    1.07503   1.07849   1.11647   1.12098   1.12818
  Beta virt. eigenvalues --    1.14374   1.14597   1.14749   1.15395   1.15988
  Beta virt. eigenvalues --    1.16627   1.16984   1.17399   1.17709   1.18637
  Beta virt. eigenvalues --    1.18985   1.20295   1.20526   1.20736   1.21192
  Beta virt. eigenvalues --    1.21528   1.21823   1.22189   1.22879   1.23053
  Beta virt. eigenvalues --    1.23679   1.23857   1.25250   1.25796   1.26319
  Beta virt. eigenvalues --    1.26692   1.27209   1.27437   1.29373   1.29768
  Beta virt. eigenvalues --    1.30063   1.30958   1.31238   1.31477   1.32902
  Beta virt. eigenvalues --    1.33197   1.33269   1.34045   1.34277   1.34619
  Beta virt. eigenvalues --    1.34670   1.35055   1.35921   1.36197   1.36450
  Beta virt. eigenvalues --    1.36787   1.37027   1.37693   1.38279   1.38552
  Beta virt. eigenvalues --    1.39175   1.39507   1.40297   1.40708   1.41162
  Beta virt. eigenvalues --    1.42643   1.42835   1.43040   1.43279   1.43761
  Beta virt. eigenvalues --    1.43989   1.44111   1.44342   1.44779   1.45325
  Beta virt. eigenvalues --    1.45735   1.46435   1.46585   1.46895   1.46987
  Beta virt. eigenvalues --    1.47481   1.47811   1.48120   1.48196   1.49473
  Beta virt. eigenvalues --    1.49652   1.50533   1.51880   1.52240   1.52790
  Beta virt. eigenvalues --    1.53378   1.55337   1.56139   1.56385   1.58282
  Beta virt. eigenvalues --    1.58382   1.58668   1.59863   1.60053   1.60580
  Beta virt. eigenvalues --    1.63497   1.64322   1.66863   1.66985   1.67836
  Beta virt. eigenvalues --    1.68656   1.68752   1.68829   1.68901   1.69461
  Beta virt. eigenvalues --    1.70031   1.70580   1.71736   1.71901   1.72061
  Beta virt. eigenvalues --    1.72173   1.72227   1.72295   1.72730   1.73056
  Beta virt. eigenvalues --    1.73501   1.74134   1.74295   1.74421   1.75886
  Beta virt. eigenvalues --    1.77389   1.77979   1.78597   1.79312   1.79658
  Beta virt. eigenvalues --    1.80585   1.81920   1.82119   1.82393   1.82776
  Beta virt. eigenvalues --    1.83294   1.83408   1.83624   1.83892   1.83950
  Beta virt. eigenvalues --    1.84030   1.84387   1.85650   1.90646   1.90953
  Beta virt. eigenvalues --    1.91326   1.93745   1.93843   1.94801   1.96300
  Beta virt. eigenvalues --    1.96545   1.97257   1.99711   2.00475   2.01236
  Beta virt. eigenvalues --    2.02592   2.03730   2.04640   2.05731   2.06598
  Beta virt. eigenvalues --    2.09095   2.09197   2.10046   2.10966   2.11310
  Beta virt. eigenvalues --    2.11638   2.12544   2.13152   2.13255   2.15585
  Beta virt. eigenvalues --    2.19673   2.19768   2.19994   2.20103   2.20160
  Beta virt. eigenvalues --    2.20721   2.21108   2.21555   2.22930   2.23544
  Beta virt. eigenvalues --    2.24660   2.24797   2.25498   2.25645   2.26362
  Beta virt. eigenvalues --    2.27437   2.27484   2.27771   2.27833   2.27978
  Beta virt. eigenvalues --    2.28330   2.28517   2.28819   2.28887   2.30199
  Beta virt. eigenvalues --    2.30296   2.30508   2.33163   2.33304   2.37254
  Beta virt. eigenvalues --    2.37458   2.37864   2.39517   2.40343   2.40629
  Beta virt. eigenvalues --    2.40815   2.44985   2.45135   2.48551   2.48612
[...]
     4   Atom        0.039145     -0.023933     -0.015212
     5   Atom       -0.000540      0.009636     -0.009096
     6   Atom       -0.004623      0.014430     -0.009807
     7   Atom        0.008860     -0.045871      0.037011
     8   Atom        0.000981     -0.002086      0.001106
     9   Atom        0.001159     -0.001756      0.000597
    10   Atom       -0.000790      0.000977     -0.000187
    11   Atom       -0.000611      0.000736     -0.000126
    12   Atom       -0.004556     -0.009300      0.013856
    13   Atom        0.010615     -0.006667     -0.003949
    14   Atom       -0.016485      0.027752     -0.011267
    15   Atom        0.009960      0.000654     -0.010614
    16   Atom        0.003575      0.007995     -0.011569
    17   Atom       -0.030572     -0.015678      0.046250
    18   Atom       -0.001189      0.000515      0.000673
    19   Atom        0.000475     -0.000383     -0.000092
    20   Atom        0.000407      0.000025     -0.000432
    21   Atom        0.000501     -0.000245     -0.000256
    22   Atom       -0.046981     -0.023408      0.070389
    23   Atom        0.002430     -0.001499     -0.000932
    24   Atom        0.002074     -0.000845     -0.001229
    25   Atom        0.000641     -0.000854      0.000213
    26   Atom        0.001501     -0.000453     -0.001047
    27   Atom        0.038493     -0.091660      0.053167
    28   Atom        0.000166      0.000435     -0.000600
    29   Atom        0.001057      0.000056     -0.001114
    30   Atom       -0.000691      0.000310      0.000381
    31   Atom       -0.000384      0.001341     -0.000958
    32   Atom        0.002774     -0.016749      0.013975
    33   Atom       -0.036517      0.029175      0.007342
    34   Atom       -0.040419      0.040294      0.000125
    35   Atom        0.013260     -0.000198     -0.013063
    36   Atom        0.011333      0.003021     -0.014354
    37   Atom       -0.050154     -0.011044      0.061199
    38   Atom       -0.002940      0.003230     -0.000290
    39   Atom       -0.001264      0.001974     -0.000709
    40   Atom        0.001025     -0.000351     -0.000674
    41   Atom        0.000983     -0.000359     -0.000623
    42   Atom       -0.097297     -0.002863      0.100160
    43   Atom        0.002271     -0.001154     -0.001117
    44   Atom        0.001496     -0.000170     -0.001325
    45   Atom        0.000946     -0.001174      0.000228
    46   Atom        0.002242     -0.001209     -0.001032
 --------------------------------------------------------
                        XY            XZ            YZ
 --------------------------------------------------------
     1   Atom       -0.002144      0.052027     -0.059093
     2   Atom        0.004169      0.005414     -0.004204
     3   Atom       -0.011322      0.066800     -0.009912
     4   Atom       -0.035572      0.044044     -0.016383
     5   Atom        0.007240     -0.012920      0.007714
     6   Atom        0.001247     -0.017495      0.001199
     7   Atom       -0.016094      0.077989     -0.020260
     8   Atom       -0.001748     -0.004878      0.002731
     9   Atom       -0.000497     -0.004849      0.000605
    10   Atom        0.000591     -0.001715      0.000432
    11   Atom        0.000662     -0.001826      0.000277
    12   Atom       -0.011274     -0.004124     -0.002373
    13   Atom        0.054378     -0.053881     -0.050706
    14   Atom        0.040577     -0.027788     -0.041073
    15   Atom       -0.007219      0.006432      0.014869
    16   Atom       -0.007645      0.012395      0.009705
    17   Atom        0.027346     -0.050248     -0.062893
    18   Atom        0.002521      0.002765      0.004828
    19   Atom        0.001689      0.003951      0.002938
    20   Atom       -0.000985      0.001113      0.001408
    21   Atom       -0.000706      0.001395      0.001379
    22   Atom        0.066429     -0.096562     -0.120379
    23   Atom       -0.000853      0.002318      0.000310
    24   Atom       -0.000008      0.000640      0.000199
    25   Atom       -0.000832      0.001495     -0.000371
    26   Atom       -0.001379      0.000507     -0.000313
    27   Atom       -0.033945      0.145676     -0.038952
    28   Atom        0.001970     -0.002191     -0.001137
    29   Atom        0.001303     -0.000806     -0.000292
    30   Atom        0.000904     -0.000991     -0.001175
    31   Atom        0.001369     -0.000325     -0.000681
    32   Atom        0.006886      0.002222      0.002453
    33   Atom       -0.039165     -0.030052      0.072934
    34   Atom       -0.007764     -0.008512      0.056017
    35   Atom        0.000591     -0.000795     -0.014125
    36   Atom        0.005883      0.007869     -0.014344
    37   Atom       -0.011144     -0.021197      0.075653
    38   Atom       -0.000501     -0.000182     -0.005558
    39   Atom       -0.001459      0.002090     -0.004325
    40   Atom        0.000361      0.000485     -0.001851
    41   Atom        0.000042      0.000722     -0.001857
    42   Atom       -0.031526     -0.040923      0.148533
    43   Atom       -0.001273      0.001959     -0.001442
    44   Atom       -0.001253      0.000445     -0.000419
    45   Atom       -0.000254      0.001549     -0.000503
    46   Atom       -0.000049      0.000699      0.000034
 --------------------------------------------------------


 ---------------------------------------------------------------------------------
              Anisotropic Spin Dipole Couplings in Principal Axis System
 ---------------------------------------------------------------------------------

       Atom             a.u.   MegaHertz   Gauss  10(-4) cm-1        Axes

              Baa    -0.4797   -18.502    -6.602    -6.172  0.0007  0.9992  0.0411
     1 N(14)  Bbb    -0.4790   -18.475    -6.592    -6.163  0.9993  0.0008 -0.0362
              Bcc     0.9588    36.977    13.194    12.334  0.0362 -0.0411  0.9985
 
              Baa    -0.0187    -2.507    -0.895    -0.836  0.9578 -0.2126 -0.1935
     2 C(13)  Bbb     0.0038     0.515     0.184     0.172  0.2613  0.9244  0.2778
              Bcc     0.0148     1.991     0.711     0.664  0.1198 -0.3166  0.9410
 
              Baa    -0.0555    -7.453    -2.659    -2.486 -0.2575  0.7606  0.5960
     3 C(13)  Bbb    -0.0494    -6.633    -2.367    -2.212  0.4311  0.6425 -0.6336
              Bcc     0.1050    14.085     5.026     4.698  0.8648 -0.0938  0.4933
 
              Baa    -0.0422    -5.659    -2.019    -1.888  0.5674  0.6034 -0.5603
     4 C(13)  Bbb    -0.0364    -4.888    -1.744    -1.631 -0.0704  0.7135  0.6971
              Bcc     0.0786    10.548     3.764     3.518  0.8204 -0.3561  0.4474
 
              Baa    -0.0219    -2.942    -1.050    -0.981  0.5667 -0.3160  0.7609
     5 C(13)  Bbb     0.0084     1.133     0.404     0.378  0.7253 -0.2467 -0.6427
              Bcc     0.0135     1.808     0.645     0.603  0.3908  0.9161  0.0894
 
              Baa    -0.0250    -3.352    -1.196    -1.118  0.6528 -0.0437  0.7563
     6 C(13)  Bbb     0.0105     1.404     0.501     0.468  0.7553 -0.0397 -0.6542
              Bcc     0.0145     1.947     0.695     0.650  0.0586  0.9983  0.0071
 
              Baa    -0.0564    -7.566    -2.700    -2.524  0.7526 -0.1016 -0.6506
     7 C(13)  Bbb    -0.0502    -6.736    -2.403    -2.247  0.1858  0.9807  0.0617
              Bcc     0.1066    14.301     5.103     4.770  0.6317 -0.1673  0.7569
 
              Baa    -0.0042    -2.257    -0.805    -0.753  0.4971 -0.4991  0.7098
     8 H(1)   Bbb    -0.0028    -1.494    -0.533    -0.498  0.5765  0.8013  0.1597
              Bcc     0.0070     3.751     1.338     1.251 -0.6485  0.3299  0.6860
 
              Baa    -0.0040    -2.126    -0.758    -0.709  0.6830 -0.0454  0.7290
     9 H(1)   Bbb    -0.0018    -0.977    -0.349    -0.326  0.1055  0.9937 -0.0369
              Bcc     0.0058     3.103     1.107     1.035  0.7228 -0.1021 -0.6835
 
              Baa    -0.0024    -1.274    -0.455    -0.425  0.7503 -0.2121  0.6262
    10 H(1)   Bbb     0.0011     0.596     0.213     0.199 -0.0622  0.9202  0.3864
              Bcc     0.0013     0.678     0.242     0.226 -0.6582 -0.3289  0.6772
 
              Baa    -0.0024    -1.259    -0.449    -0.420  0.7429 -0.2155  0.6338
    11 H(1)   Bbb     0.0008     0.433     0.155     0.144 -0.0528  0.9250  0.3764
              Bcc     0.0015     0.827     0.295     0.276 -0.6673 -0.3130  0.6758
 
              Baa    -0.0191    -2.556    -0.912    -0.853  0.6319  0.7633  0.1342
    12 C(13)  Bbb     0.0043     0.579     0.207     0.193  0.7460 -0.6460  0.1618
              Bcc     0.0147     1.978     0.706     0.660 -0.2102  0.0021  0.9777
 
              Baa    -0.0562    -7.547    -2.693    -2.517 -0.1467  0.7814  0.6065
    13 C(13)  Bbb    -0.0503    -6.746    -2.407    -2.250  0.7676 -0.2967  0.5680
              Bcc     0.1065    14.293     5.100     4.768  0.6238  0.5490 -0.5563
 
              Baa    -0.0423    -5.675    -2.025    -1.893  0.8483 -0.2051  0.4882
    14 C(13)  Bbb    -0.0367    -4.928    -1.758    -1.644 -0.2664  0.6315  0.7282
              Bcc     0.0790    10.603     3.783     3.537  0.4577  0.7477 -0.4811
 
              Baa    -0.0235    -3.157    -1.127    -1.053 -0.2712 -0.5616  0.7817
    15 C(13)  Bbb     0.0094     1.263     0.451     0.421  0.5431  0.5812  0.6060
              Bcc     0.0141     1.894     0.676     0.632  0.7947 -0.5889 -0.1474
 
              Baa    -0.0233    -3.126    -1.116    -1.043 -0.4735 -0.3644  0.8019
    16 C(13)  Bbb     0.0095     1.281     0.457     0.427  0.6668  0.4466  0.5967
              Bcc     0.0138     1.845     0.659     0.616 -0.5755  0.8172  0.0315
 
              Baa    -0.0575    -7.718    -2.754    -2.574  0.6101  0.5112  0.6053
    17 C(13)  Bbb    -0.0513    -6.882    -2.456    -2.296 -0.6956  0.7114  0.1003
              Bcc     0.1088    14.600     5.210     4.870 -0.3793 -0.4823  0.7896
 
              Baa    -0.0042    -2.266    -0.808    -0.756 -0.0880 -0.6858  0.7224
    18 H(1)   Bbb    -0.0029    -1.527    -0.545    -0.509  0.9074 -0.3544 -0.2259
              Bcc     0.0071     3.793     1.353     1.265  0.4109  0.6357  0.6535
 
              Baa    -0.0042    -2.223    -0.793    -0.741 -0.5230 -0.3648  0.7703
    19 H(1)   Bbb    -0.0017    -0.904    -0.323    -0.302 -0.5915  0.8061 -0.0198
              Bcc     0.0059     3.127     1.116     1.043  0.6137  0.4660  0.6374
 
              Baa    -0.0024    -1.287    -0.459    -0.429 -0.4662 -0.5760  0.6715
    20 H(1)   Bbb     0.0012     0.628     0.224     0.209  0.7761  0.0980  0.6229
              Bcc     0.0012     0.660     0.235     0.220 -0.4246  0.8115  0.4014
 
              Baa    -0.0024    -1.284    -0.458    -0.428 -0.4625 -0.5792  0.6713
    21 H(1)   Bbb     0.0008     0.411     0.147     0.137 -0.5587  0.7783  0.2866
              Bcc     0.0016     0.874     0.312     0.291  0.6884  0.2425  0.6836
 
              Baa    -0.1057     7.650     2.730     2.552 -0.0616  0.8394  0.5400
    22 O(17)  Bbb    -0.1011     7.315     2.610     2.440  0.9058 -0.1803  0.3835
              Bcc     0.2068   -14.965    -5.340    -4.992 -0.4193 -0.5127  0.7492
 
              Baa    -0.0026    -0.343    -0.122    -0.114 -0.4271 -0.5538  0.7148
    23 C(13)  Bbb    -0.0011    -0.152    -0.054    -0.051 -0.1570  0.8239  0.5445
              Bcc     0.0037     0.495     0.177     0.165  0.8905 -0.1203  0.4388
 
              Baa    -0.0014    -0.756    -0.270    -0.252 -0.1712 -0.3262  0.9297
    24 H(1)   Bbb    -0.0008    -0.415    -0.148    -0.138 -0.0690  0.9452  0.3190
              Bcc     0.0022     1.170     0.418     0.390  0.9828  0.0095  0.1843
 
              Baa    -0.0013    -0.719    -0.257    -0.240  0.5938  0.6966 -0.4027
    25 H(1)   Bbb    -0.0008    -0.448    -0.160    -0.150 -0.3150  0.6618  0.6803
              Bcc     0.0022     1.168     0.417     0.389  0.7404 -0.2771  0.6124
 
              Baa    -0.0012    -0.643    -0.229    -0.214  0.2502  0.7261  0.6405
    26 H(1)   Bbb    -0.0011    -0.594    -0.212    -0.198 -0.4172 -0.5161  0.7481
              Bcc     0.0023     1.237     0.441     0.413  0.8737 -0.4544  0.1738
 
              Baa    -0.1026     7.427     2.650     2.477 -0.3774  0.7518  0.5408
    27 O(17)  Bbb    -0.0982     7.103     2.534     2.369  0.6312  0.6361 -0.4439
              Bcc     0.2008   -14.530    -5.185    -4.847  0.6777 -0.1738  0.7145
 
              Baa    -0.0025    -0.339    -0.121    -0.113  0.7045 -0.2083  0.6784
    28 C(13)  Bbb    -0.0011    -0.144    -0.052    -0.048 -0.2905  0.7876  0.5435
              Bcc     0.0036     0.484     0.173     0.161  0.6475  0.5800 -0.4944
 
              Baa    -0.0014    -0.748    -0.267    -0.249  0.3827 -0.1595  0.9100
    29 H(1)   Bbb    -0.0008    -0.407    -0.145    -0.136 -0.4468  0.8302  0.3334
              Bcc     0.0022     1.154     0.412     0.385  0.8086  0.5342 -0.2465
 
              Baa    -0.0013    -0.707    -0.252    -0.236  0.9022 -0.2426  0.3566
    30 H(1)   Bbb    -0.0008    -0.441    -0.158    -0.147 -0.0646  0.7415  0.6679
              Bcc     0.0022     1.149     0.410     0.383 -0.4264 -0.6256  0.6533
 
              Baa    -0.0012    -0.630    -0.225    -0.210 -0.5656  0.4868  0.6657
    31 H(1)   Bbb    -0.0011    -0.583    -0.208    -0.194  0.6791 -0.1830  0.7108
              Bcc     0.0023     1.212     0.433     0.404  0.4679  0.8541 -0.2271
 
              Baa    -0.0190    -2.552    -0.911    -0.851 -0.2962  0.9538 -0.0510
    32 C(13)  Bbb     0.0041     0.555     0.198     0.185  0.9220  0.2716 -0.2760
              Bcc     0.0149     1.997     0.713     0.666  0.2494  0.1287  0.9598
 
              Baa    -0.0572    -7.681    -2.741    -2.562  0.5238  0.6755 -0.5191
    33 C(13)  Bbb    -0.0515    -6.910    -2.466    -2.305  0.7889 -0.1547  0.5947
              Bcc     0.1087    14.591     5.206     4.867 -0.3214  0.7210  0.6139
 
              Baa    -0.0431    -5.782    -2.063    -1.929  0.8330 -0.2530  0.4920
    34 C(13)  Bbb    -0.0377    -5.056    -1.804    -1.686 -0.5454 -0.5242  0.6540
              Bcc     0.0808    10.838     3.867     3.615 -0.0925  0.8132  0.5746
 
              Baa    -0.0222    -2.973    -1.061    -0.992  0.0099  0.5408  0.8411
    35 C(13)  Bbb     0.0087     1.168     0.417     0.390 -0.1992  0.8253 -0.5284
              Bcc     0.0135     1.805     0.644     0.602  0.9799  0.1623 -0.1159
 
              Baa    -0.0250    -3.361    -1.199    -1.121 -0.2590  0.4820  0.8370
    36 C(13)  Bbb     0.0107     1.430     0.510     0.477 -0.3335  0.7687 -0.5458
              Bcc     0.0144     1.932     0.689     0.644  0.9065  0.4205  0.0383
 
              Baa    -0.0594    -7.966    -2.843    -2.657 -0.3072  0.7808 -0.5440
    37 C(13)  Bbb    -0.0531    -7.119    -2.540    -2.375  0.9405  0.3364 -0.0483
              Bcc     0.1124    15.085     5.383     5.032 -0.1453  0.5264  0.8377
 
              Baa    -0.0045    -2.394    -0.854    -0.799  0.2763  0.5734  0.7713
    38 H(1)   Bbb    -0.0028    -1.505    -0.537    -0.502  0.9606 -0.1406 -0.2396
              Bcc     0.0073     3.900     1.392     1.301 -0.0290  0.8071 -0.5897
 
              Baa    -0.0042    -2.234    -0.797    -0.745 -0.3339  0.4874  0.8069
    39 H(1)   Bbb    -0.0018    -0.953    -0.340    -0.318  0.8870  0.4521  0.0939
              Bcc     0.0060     3.187     1.137     1.063 -0.3190  0.7470 -0.5832
 
              Baa    -0.0025    -1.320    -0.471    -0.440 -0.1694  0.6639  0.7284
    40 H(1)   Bbb     0.0011     0.593     0.212     0.198  0.9535  0.2974 -0.0493
              Bcc     0.0014     0.726     0.259     0.242 -0.2494  0.6862 -0.6834
 
              Baa    -0.0024    -1.305    -0.466    -0.435 -0.1630  0.6579  0.7353
    41 H(1)   Bbb     0.0007     0.397     0.142     0.132  0.7971  0.5270 -0.2948
              Bcc     0.0017     0.908     0.324     0.303  0.5815 -0.5380  0.6103
 
              Baa    -0.1096     7.928     2.829     2.645  0.4548  0.7662 -0.4539
    42 O(17)  Bbb    -0.1048     7.586     2.707     2.531  0.8755 -0.2911  0.3857
              Bcc     0.2144   -15.515    -5.536    -5.175 -0.1634  0.5728  0.8032
 
              Baa    -0.0026    -0.355    -0.127    -0.119 -0.1467  0.6196  0.7711
    43 C(13)  Bbb    -0.0012    -0.155    -0.055    -0.052  0.5301  0.7074 -0.4675
              Bcc     0.0038     0.510     0.182     0.170  0.8351 -0.3402  0.4322
 
              Baa    -0.0015    -0.780    -0.278    -0.260 -0.0209  0.2902  0.9567
    44 H(1)   Bbb    -0.0008    -0.428    -0.153    -0.143  0.5002  0.8316 -0.2413
              Bcc     0.0023     1.208     0.431     0.403  0.8657 -0.4735  0.1625
 
              Baa    -0.0014    -0.742    -0.265    -0.248 -0.2249  0.8486  0.4789
    45 H(1)   Bbb    -0.0009    -0.460    -0.164    -0.154 -0.6004 -0.5078  0.6178
              Bcc     0.0023     1.203     0.429     0.401  0.7674 -0.1485  0.6237
 
              Baa    -0.0012    -0.661    -0.236    -0.220  0.1214  0.8284 -0.5468
    46 H(1)   Bbb    -0.0011    -0.612    -0.218    -0.204 -0.1596  0.5600  0.8130
              Bcc     0.0024     1.272     0.454     0.424  0.9797 -0.0114  0.2002
 

 ---------------------------------------------------------------------------------

 No NMR shielding tensors so no spin-rotation constants.
 Leave Link  601 at Sun Jan 17 04:04:31 2021, MaxMem=  4026531840 cpu:               5.4 elap:               0.7
 (Enter /opt/ohpc/pub/libs/gaussian/g16-A.03/sandybridge/g16/l9999.exe)

 Test job not archived.
 1\1\GINC-CASCADEB034\SP\ULC-wHPBE\TZVP\C21H21N1O3(1+,2)\RDU230\17-Jan-
 2021\0\\#P LC-wHPBE/TZVP iop(3/107=0189400000, 3/108=0189400000) scf=(
 conver=6,fermi,ndamp=35,noincfock,novaracc,vshift=500,xqc)\\H21 C21 N1
  O3\\1,2\N,0,0.054086,0.063852,0.077784\C,0,-0.275154,-1.311734,0.1035
 06\C,0,-1.260864,-1.827996,-0.72375\C,0,0.386135,-2.184815,0.970218\C,
 0,-1.598384,-3.175646,-0.688444\C,0,0.074577,-3.526309,0.994438\C,0,-0
 .9252,-4.03443,0.167909\H,0,-1.784639,-1.164375,-1.405148\H,0,1.158634
 ,-1.797039,1.627427\H,0,-2.379444,-3.537517,-1.347421\H,0,0.588853,-4.
 20682,1.665799\C,0,-0.970368,1.03417,-0.019727\C,0,-2.134785,0.917606,
 0.724871\C,0,-0.835797,2.133662,-0.869883\C,0,-3.151989,1.858174,0.623
 575\C,0,-1.829782,3.083912,-0.958163\C,0,-3.000537,2.952781,-0.215611\
 H,0,-2.255494,0.070396,1.39325\H,0,0.067507,2.240735,-1.462783\H,0,-4.
 048238,1.726664,1.219136\H,0,-1.725247,3.941045,-1.615932\O,0,-3.92845
 1,3.936733,-0.380204\C,0,-5.121818,3.840279,0.365278\H,0,-5.681122,2.9
 30406,0.115451\H,0,-4.925953,3.859223,1.44425\H,0,-5.719912,4.710924,0
 .096466\O,0,-1.16822,-5.370782,0.273837\C,0,-2.170458,-5.919715,-0.552
 884\H,0,-3.15107,-5.47272,-0.348812\H,0,-1.930216,-5.79407,-1.615623\H
 ,0,-2.208576,-6.98373,-0.319613\C,0,1.409258,0.466483,0.091838\C,0,2.3
 72325,-0.232608,-0.620224\C,0,1.812213,1.581496,0.83064\C,0,3.707828,0
 .150754,-0.59385\C,0,3.129962,1.982235,0.842322\C,0,4.092694,1.267169,
 0.133583\H,0,2.078678,-1.100647,-1.202616\H,0,1.073246,2.139336,1.3978
 22\H,0,4.429565,-0.427688,-1.159301\H,0,3.443945,2.849999,1.413878\O,0
 ,5.369584,1.734982,0.218075\C,0,6.368506,1.037347,-0.492266\H,0,6.4607
 13,0.000867,-0.145468\H,0,6.173119,1.041208,-1.571513\H,0,7.303574,1.5
 62498,-0.297656\\Version=EM64L-G16RevA.03\State=2-A\HF=-1092.3768958\S
 2=0.764934\S2-1=0.\S2A=0.750199\RMSD=7.961e-07\Dipole=-0.4369446,-0.49
 81452,-0.3091605\Quadrupole=24.6516026,2.7277219,-27.3793244,-0.277969
 9,-4.9616844,5.4444373\PG=C01 [X(C21H21N1O3)]\\@


 ONLY A FOOL KNOWS EVERYTHING.

               -- THE CHEMIST ANALYST, SEPTEMBER 1946
 Job cpu time:       0 days  2 hours 17 minutes 12.2 seconds.
 Elapsed time:       0 days  0 hours 17 minutes 40.2 seconds.
 File lengths (MBytes):  RWF=    228 Int=      0 D2E=      0 Chk=     32 Scr=      8
 Normal termination of Gaussian 16 at Sun Jan 17 04:04:31 2021.
