 Entering Gaussian System, Link 0=g16
 Input=mol_bp_cp_half_opt_0.gjf
 Output=mol_bp_cp_half_opt_0.log
 Initial command:
 /opt/ohpc/pub/libs/gaussian/g16-A.03/sandybridge/g16/l1.exe "/mnt/gpfs2_4m/scratch/rdu230/ondemand/projects/init_structures/wtuning/mol_bp_cp_half/Gau-193261.inp" -scrdir="/mnt/gpfs2_4m/scratch/rdu230/ondemand/projects/init_structures/wtuning/mol_bp_cp_half/"
 Entering Link 1 = /opt/ohpc/pub/libs/gaussian/g16-A.03/sandybridge/g16/l1.exe PID=    193262.
  
 Copyright (c) 1988,1990,1992,1993,1995,1998,2003,2009,2016,
            Gaussian, Inc.  All Rights Reserved.
  
 This is part of the Gaussian(R) 16 program.  It is based on
 the Gaussian(R) 09 system (copyright 2009, Gaussian, Inc.),
 the Gaussian(R) 03 system (copyright 2003, Gaussian, Inc.),
 the Gaussian(R) 98 system (copyright 1998, Gaussian, Inc.),
 the Gaussian(R) 94 system (copyright 1995, Gaussian, Inc.),
 the Gaussian 92(TM) system (copyright 1992, Gaussian, Inc.),
 the Gaussian 90(TM) system (copyright 1990, Gaussian, Inc.),
 the Gaussian 88(TM) system (copyright 1988, Gaussian, Inc.),
 the Gaussian 86(TM) system (copyright 1986, Carnegie Mellon
 University), and the Gaussian 82(TM) system (copyright 1983,
 Carnegie Mellon University). Gaussian is a federally registered
 trademark of Gaussian, Inc.
  
 This software contains proprietary and confidential information,
 including trade secrets, belonging to Gaussian, Inc.
  
 This software is provided under written license and may be
 used, copied, transmitted, or stored only in accord with that
 written license.
  
 The following legend is applicable only to US Government
 contracts under FAR:
  
                    RESTRICTED RIGHTS LEGEND
  
 Use, reproduction and disclosure by the US Government is
 subject to restrictions as set forth in subparagraphs (a)
 and (c) of the Commercial Computer Software - Restricted
 Rights clause in FAR 52.227-19.
  
 Gaussian, Inc.
 340 Quinnipiac St., Bldg. 40, Wallingford CT 06492
  
  
 ---------------------------------------------------------------
 Warning -- This program may not be used in any manner that
 competes with the business of Gaussian, Inc. or will provide
 assistance to any competitor of Gaussian, Inc.  The licensee
 of this program is prohibited from giving any competitor of
 Gaussian, Inc. access to this program.  By using this program,
 the user acknowledges that Gaussian, Inc. is engaged in the
 business of creating and licensing software in the field of
 computational chemistry and represents and warrants to the
 licensee that it is not a competitor of Gaussian, Inc. and that
 it will not use this program in any manner prohibited above.
 ---------------------------------------------------------------
  

 Cite this work as:
 Gaussian 16, Revision A.03,
 M. J. Frisch, G. W. Trucks, H. B. Schlegel, G. E. Scuseria, 
 M. A. Robb, J. R. Cheeseman, G. Scalmani, V. Barone, 
 G. A. Petersson, H. Nakatsuji, X. Li, M. Caricato, A. V. Marenich, 
 J. Bloino, B. G. Janesko, R. Gomperts, B. Mennucci, H. P. Hratchian, 
 J. V. Ortiz, A. F. Izmaylov, J. L. Sonnenberg, D. Williams-Young, 
 F. Ding, F. Lipparini, F. Egidi, J. Goings, B. Peng, A. Petrone, 
 T. Henderson, D. Ranasinghe, V. G. Zakrzewski, J. Gao, N. Rega, 
 G. Zheng, W. Liang, M. Hada, M. Ehara, K. Toyota, R. Fukuda, 
 J. Hasegawa, M. Ishida, T. Nakajima, Y. Honda, O. Kitao, H. Nakai, 
 T. Vreven, K. Throssell, J. A. Montgomery, Jr., J. E. Peralta, 
 F. Ogliaro, M. J. Bearpark, J. J. Heyd, E. N. Brothers, K. N. Kudin, 
 V. N. Staroverov, T. A. Keith, R. Kobayashi, J. Normand, 
 K. Raghavachari, A. P. Rendell, J. C. Burant, S. S. Iyengar, 
 J. Tomasi, M. Cossi, J. M. Millam, M. Klene, C. Adamo, R. Cammi, 
 J. W. Ochterski, R. L. Martin, K. Morokuma, O. Farkas, 
 J. B. Foresman, and D. J. Fox, Gaussian, Inc., Wallingford CT, 2016.
 
 ******************************************
 Gaussian 16:  EM64L-G16RevA.03 25-Dec-2016
                20-Jan-2021 
 ******************************************
 %mem=30GB
 %nproc=8
 Will use up to    8 processors via shared memory.
 ------------------------------------------------------------
 #P LC-wHPBE/TZVP iop(3/107=0069400000, 3/108=0069400000) opt
 ------------------------------------------------------------
 1/18=20,19=15,26=3,38=1/1,3;
 2/9=110,12=2,17=6,18=5,40=1/2;
 3/5=19,7=101,11=2,25=1,30=1,71=1,74=-71,107=69400000,108=69400000/1,2,3;
 4//1;
 5/5=2,38=5/2;
 6/7=2,8=2,9=2,10=2,28=1/1;
 7//1,2,3,16;
 1/18=20,19=15,26=3/3(2);
 2/9=110/2;
 99//99;
 2/9=110/2;
 3/5=19,7=101,11=2,25=1,30=1,71=1,74=-71,107=69400000,108=69400000/1,2,3;
 4/5=5,16=3,69=1/1;
 5/5=2,38=5/2;
 7//1,2,3,16;
 1/18=20,19=15,26=3/3(-5);
 2/9=110/2;
 6/7=2,8=2,9=2,10=2,19=2,28=1/1;
 99/9=1/99;
 Leave Link    1 at Wed Jan 20 21:07:38 2021, MaxMem=  4026531840 cpu:               2.8 elap:               0.4
 (Enter /opt/ohpc/pub/libs/gaussian/g16-A.03/sandybridge/g16/l101.exe)
 ----------
 H21 C19 N2
 ----------
 Symbolic Z-matrix:
 Charge =  1 Multiplicity = 1
 C                    -2.32699   0.37905  -2.59898 
 C                    -3.4922    0.39833  -1.84936 
 C                    -1.0397    0.40603  -1.87376 
 C                    -3.44565   0.41328  -0.51474 
 C                    -1.11045   0.42927  -0.53281 
 C                    -2.28017   0.36139   0.23058 
 H                    -4.40224   0.36148  -2.43509 
 H                    -0.10458   0.41806  -2.40585 
 H                    -4.48035   0.38935   0.05427 
 H                    -2.3289    0.3977    1.25665 
 C                     0.28319   0.43428   0.23296 
 C                     0.30586   0.41529   1.61701 
 C                     1.47929   0.4313   -0.4718 
 C                     1.51229   0.44719   2.34908 
 C                     2.71903   0.43484   0.27735 
 C                     2.73735   0.41635   1.61483 
 H                    -0.62422   0.44269   2.22678 
 H                     1.44664   0.41921  -1.55035 
 H                     1.45059   0.39099   3.44033 
 H                     3.67123   0.37861  -0.30773 
 H                    -2.27651   0.40509  -3.65342 
 C                     3.75694   0.30669   2.32868 
 C                     5.1367    0.70494   2.92064 
 C                     4.65848  -0.74015   2.87281 
 N                     6.11786   1.63562   3.26824 
 N                     4.87616  -2.17803   3.26708 
 C                     6.58982   2.52986   2.24213 
 H                     7.61807   2.67231   2.21164 
 H                     6.34357   2.06865   1.22702 
 H                     6.12716   3.50961   2.20385 
 C                     5.84864   2.4374    4.52214 
 H                     6.74002   2.60142   5.15101 
 H                     5.42272   3.47746   4.19767 
 H                     5.05743   2.02033   5.12892 
 C                     5.85711  -2.83641   2.44405 
 H                     5.49478  -3.76657   1.97395 
 H                     6.21138  -2.22431   1.61495 
 H                     6.73747  -3.17879   3.00288 
 C                     5.05663  -2.49564   4.69249 
 H                     4.7157   -3.48897   4.83867 
 H                     6.06024  -2.34223   4.9588 
 H                     4.46941  -1.78191   5.32203 
 
 ITRead=  0  0  0  0  0  0  0  0  0  0  0  0  0  0  0  0  0  0  0  0
 ITRead=  0  0  0  0  0  0  0  0  0  0  0  0  0  0  0  0  0  0  0  0
 ITRead=  0  0
 MicOpt= -1 -1 -1 -1 -1 -1 -1 -1 -1 -1 -1 -1 -1 -1 -1 -1 -1 -1 -1 -1
 MicOpt= -1 -1 -1 -1 -1 -1 -1 -1 -1 -1 -1 -1 -1 -1 -1 -1 -1 -1 -1 -1
 MicOpt= -1 -1
 NAtoms=     42 NQM=       42 NQMF=       0 NMMI=      0 NMMIF=      0
                NMic=       0 NMicF=      0.
                    Isotopes and Nuclear Properties:
 (Nuclear quadrupole moments (NQMom) in fm**2, nuclear magnetic moments (NMagM)
  in nuclear magnetons)

  Atom         1           2           3           4           5           6           7           8           9          10
 IAtWgt=          12          12          12          12          12          12           1           1           1           1
 AtmWgt=  12.0000000  12.0000000  12.0000000  12.0000000  12.0000000  12.0000000   1.0078250   1.0078250   1.0078250   1.0078250
 NucSpn=           0           0           0           0           0           0           1           1           1           1
 AtZEff=  -0.0000000  -0.0000000  -0.0000000  -0.0000000  -0.0000000  -0.0000000  -0.0000000  -0.0000000  -0.0000000  -0.0000000
 NQMom=    0.0000000   0.0000000   0.0000000   0.0000000   0.0000000   0.0000000   0.0000000   0.0000000   0.0000000   0.0000000
 NMagM=    0.0000000   0.0000000   0.0000000   0.0000000   0.0000000   0.0000000   2.7928460   2.7928460   2.7928460   2.7928460
 AtZNuc=   6.0000000   6.0000000   6.0000000   6.0000000   6.0000000   6.0000000   1.0000000   1.0000000   1.0000000   1.0000000

  Atom        11          12          13          14          15          16          17          18          19          20
 IAtWgt=          12          12          12          12          12          12           1           1           1           1
 AtmWgt=  12.0000000  12.0000000  12.0000000  12.0000000  12.0000000  12.0000000   1.0078250   1.0078250   1.0078250   1.0078250
 NucSpn=           0           0           0           0           0           0           1           1           1           1
 AtZEff=  -0.0000000  -0.0000000  -0.0000000  -0.0000000  -0.0000000  -0.0000000  -0.0000000  -0.0000000  -0.0000000  -0.0000000
 NQMom=    0.0000000   0.0000000   0.0000000   0.0000000   0.0000000   0.0000000   0.0000000   0.0000000   0.0000000   0.0000000
 NMagM=    0.0000000   0.0000000   0.0000000   0.0000000   0.0000000   0.0000000   2.7928460   2.7928460   2.7928460   2.7928460
 AtZNuc=   6.0000000   6.0000000   6.0000000   6.0000000   6.0000000   6.0000000   1.0000000   1.0000000   1.0000000   1.0000000

  Atom        21          22          23          24          25          26          27          28          29          30
 IAtWgt=           1          12          12          12          14          14          12           1           1           1
 AtmWgt=   1.0078250  12.0000000  12.0000000  12.0000000  14.0030740  14.0030740  12.0000000   1.0078250   1.0078250   1.0078250
 NucSpn=           1           0           0           0           2           2           0           1           1           1
 AtZEff=  -0.0000000  -0.0000000  -0.0000000  -0.0000000  -0.0000000  -0.0000000  -0.0000000  -0.0000000  -0.0000000  -0.0000000
 NQMom=    0.0000000   0.0000000   0.0000000   0.0000000   2.0440000   2.0440000   0.0000000   0.0000000   0.0000000   0.0000000
 NMagM=    2.7928460   0.0000000   0.0000000   0.0000000   0.4037610   0.4037610   0.0000000   2.7928460   2.7928460   2.7928460
 AtZNuc=   1.0000000   6.0000000   6.0000000   6.0000000   7.0000000   7.0000000   6.0000000   1.0000000   1.0000000   1.0000000

  Atom        31          32          33          34          35          36          37          38          39          40
 IAtWgt=          12           1           1           1          12           1           1           1          12           1
 AtmWgt=  12.0000000   1.0078250   1.0078250   1.0078250  12.0000000   1.0078250   1.0078250   1.0078250  12.0000000   1.0078250
 NucSpn=           0           1           1           1           0           1           1           1           0           1
 AtZEff=  -0.0000000  -0.0000000  -0.0000000  -0.0000000  -0.0000000  -0.0000000  -0.0000000  -0.0000000  -0.0000000  -0.0000000
 NQMom=    0.0000000   0.0000000   0.0000000   0.0000000   0.0000000   0.0000000   0.0000000   0.0000000   0.0000000   0.0000000
 NMagM=    0.0000000   2.7928460   2.7928460   2.7928460   0.0000000   2.7928460   2.7928460   2.7928460   0.0000000   2.7928460
 AtZNuc=   6.0000000   1.0000000   1.0000000   1.0000000   6.0000000   1.0000000   1.0000000   1.0000000   6.0000000   1.0000000

  Atom        41          42
 IAtWgt=           1           1
 AtmWgt=   1.0078250   1.0078250
 NucSpn=           1           1
 AtZEff=  -0.0000000  -0.0000000
 NQMom=    0.0000000   0.0000000
 NMagM=    2.7928460   2.7928460
 AtZNuc=   1.0000000   1.0000000
 Leave Link  101 at Wed Jan 20 21:07:38 2021, MaxMem=  4026531840 cpu:               2.7 elap:               0.4
 (Enter /opt/ohpc/pub/libs/gaussian/g16-A.03/sandybridge/g16/l103.exe)

 GradGradGradGradGradGradGradGradGradGradGradGradGradGradGradGradGradGrad
 Berny optimization.
 Initialization pass.
                           ----------------------------
                           !    Initial Parameters    !
                           ! (Angstroms and Degrees)  !
 --------------------------                            --------------------------
 ! Name  Definition              Value          Derivative Info.                !
 --------------------------------------------------------------------------------
 ! R1    R(1,2)                  1.3856         estimate D2E/DX2                !
 ! R2    R(1,3)                  1.4778         estimate D2E/DX2                !
 ! R3    R(1,21)                 1.056          estimate D2E/DX2                !
 ! R4    R(2,4)                  1.3355         estimate D2E/DX2                !
 ! R5    R(2,7)                  1.0829         estimate D2E/DX2                !
 ! R6    R(3,5)                  1.343          estimate D2E/DX2                !
 ! R7    R(3,8)                  1.076          estimate D2E/DX2                !
 ! R8    R(4,6)                  1.3844         estimate D2E/DX2                !
 ! R9    R(4,9)                  1.1811         estimate D2E/DX2                !
 ! R10   R(5,6)                  1.3984         estimate D2E/DX2                !
 ! R11   R(5,11)                 1.5902         estimate D2E/DX2                !
 ! R12   R(6,10)                 1.0279         estimate D2E/DX2                !
 ! R13   R(11,12)                1.3844         estimate D2E/DX2                !
 ! R14   R(11,13)                1.3883         estimate D2E/DX2                !
 ! R15   R(12,14)                1.4115         estimate D2E/DX2                !
 ! R16   R(12,17)                1.1125         estimate D2E/DX2                !
 ! R17   R(13,15)                1.4485         estimate D2E/DX2                !
 ! R18   R(13,18)                1.0791         estimate D2E/DX2                !
 ! R19   R(14,16)                1.4286         estimate D2E/DX2                !
 ! R20   R(14,19)                1.0944         estimate D2E/DX2                !
 ! R21   R(15,16)                1.3377         estimate D2E/DX2                !
 ! R22   R(15,20)                1.119          estimate D2E/DX2                !
 ! R23   R(16,22)                1.2495         estimate D2E/DX2                !
 ! R24   R(22,23)                1.5533         estimate D2E/DX2                !
 ! R25   R(22,24)                1.4848         estimate D2E/DX2                !
 ! R26   R(23,24)                1.5229         estimate D2E/DX2                !
 ! R27   R(23,25)                1.3963         estimate D2E/DX2                !
 ! R28   R(24,26)                1.5068         estimate D2E/DX2                !
 ! R29   R(25,27)                1.4406         estimate D2E/DX2                !
 ! R30   R(25,31)                1.5125         estimate D2E/DX2                !
 ! R31   R(26,35)                1.4398         estimate D2E/DX2                !
 ! R32   R(26,39)                1.4715         estimate D2E/DX2                !
 ! R33   R(27,28)                1.0385         estimate D2E/DX2                !
 ! R34   R(27,29)                1.1418         estimate D2E/DX2                !
 ! R35   R(27,30)                1.0842         estimate D2E/DX2                !
 ! R36   R(31,32)                1.1031         estimate D2E/DX2                !
 ! R37   R(31,33)                1.1698         estimate D2E/DX2                !
 ! R38   R(31,34)                1.0808         estimate D2E/DX2                !
 ! R39   R(35,36)                1.1034         estimate D2E/DX2                !
 ! R40   R(35,37)                1.0898         estimate D2E/DX2                !
 ! R41   R(35,38)                1.0975         estimate D2E/DX2                !
 ! R42   R(39,40)                1.0603         estimate D2E/DX2                !
 ! R43   R(39,41)                1.0496         estimate D2E/DX2                !
 ! R44   R(39,42)                1.1183         estimate D2E/DX2                !
 ! A1    A(2,1,3)              117.8255         estimate D2E/DX2                !
 ! A2    A(2,1,21)             125.4551         estimate D2E/DX2                !
 ! A3    A(3,1,21)             116.6121         estimate D2E/DX2                !
 ! A4    A(1,2,4)              120.7618         estimate D2E/DX2                !
 ! A5    A(1,2,7)              114.4317         estimate D2E/DX2                !
 ! A6    A(4,2,7)              124.7651         estimate D2E/DX2                !
 ! A7    A(1,3,5)              116.3869         estimate D2E/DX2                !
 ! A8    A(1,3,8)              120.9703         estimate D2E/DX2                !
 ! A9    A(5,3,8)              122.6388         estimate D2E/DX2                !
 ! A10   A(2,4,6)              124.5372         estimate D2E/DX2                !
 ! A11   A(2,4,9)              116.7875         estimate D2E/DX2                !
 ! A12   A(6,4,9)              118.5156         estimate D2E/DX2                !
 ! A13   A(3,5,6)              126.0342         estimate D2E/DX2                !
 ! A14   A(3,5,11)             115.767          estimate D2E/DX2                !
 ! A15   A(6,5,11)             118.0566         estimate D2E/DX2                !
 ! A16   A(4,6,5)              114.1088         estimate D2E/DX2                !
 ! A17   A(4,6,10)             119.7488         estimate D2E/DX2                !
 ! A18   A(5,6,10)             125.6529         estimate D2E/DX2                !
 ! A19   A(5,11,12)            119.7199         estimate D2E/DX2                !
 ! A20   A(5,11,13)            120.7046         estimate D2E/DX2                !
 ! A21   A(12,11,13)           119.5636         estimate D2E/DX2                !
 ! A22   A(11,12,14)           122.1543         estimate D2E/DX2                !
 ! A23   A(11,12,17)           122.2737         estimate D2E/DX2                !
 ! A24   A(14,12,17)           115.4506         estimate D2E/DX2                !
 ! A25   A(11,13,15)           118.349          estimate D2E/DX2                !
 ! A26   A(11,13,18)           118.7724         estimate D2E/DX2                !
 ! A27   A(15,13,18)           122.877          estimate D2E/DX2                !
 ! A28   A(12,14,16)           117.7671         estimate D2E/DX2                !
 ! A29   A(12,14,19)           117.8901         estimate D2E/DX2                !
 ! A30   A(16,14,19)           124.0361         estimate D2E/DX2                !
 ! A31   A(13,15,16)           121.9224         estimate D2E/DX2                !
 ! A32   A(13,15,20)           117.2425         estimate D2E/DX2                !
 ! A33   A(16,15,20)           120.6914         estimate D2E/DX2                !
 ! A34   A(14,16,15)           120.1215         estimate D2E/DX2                !
 ! A35   A(14,16,22)           114.0798         estimate D2E/DX2                !
 ! A36   A(15,16,22)           125.7046         estimate D2E/DX2                !
 ! A37   A(16,22,23)           156.9372         estimate D2E/DX2                !
 ! A38   A(16,22,24)           140.0582         estimate D2E/DX2                !
 ! A39   A(22,23,25)           152.8651         estimate D2E/DX2                !
 ! A40   A(24,23,25)           149.4228         estimate D2E/DX2                !
 ! A41   A(22,24,26)           148.9149         estimate D2E/DX2                !
 ! A42   A(23,24,26)           148.4226         estimate D2E/DX2                !
 ! A43   A(23,25,27)           117.8166         estimate D2E/DX2                !
 ! A44   A(23,25,31)           115.762          estimate D2E/DX2                !
 ! A45   A(27,25,31)           108.6484         estimate D2E/DX2                !
 ! A46   A(24,26,35)           112.6569         estimate D2E/DX2                !
 ! A47   A(24,26,39)           118.5006         estimate D2E/DX2                !
 ! A48   A(35,26,39)           111.806          estimate D2E/DX2                !
 ! A49   A(25,27,28)           115.4947         estimate D2E/DX2                !
 ! A50   A(25,27,29)           108.1698         estimate D2E/DX2                !
 ! A51   A(25,27,30)           116.5066         estimate D2E/DX2                !
 ! A52   A(28,27,29)           104.054          estimate D2E/DX2                !
 ! A53   A(28,27,30)           107.3097         estimate D2E/DX2                !
 ! A54   A(29,27,30)           103.9808         estimate D2E/DX2                !
 ! A55   A(25,31,32)           114.0539         estimate D2E/DX2                !
 ! A56   A(25,31,33)           107.8289         estimate D2E/DX2                !
 ! A57   A(25,31,34)           113.0278         estimate D2E/DX2                !
 ! A58   A(32,31,33)           108.6711         estimate D2E/DX2                !
 ! A59   A(32,31,34)           109.1992         estimate D2E/DX2                !
 ! A60   A(33,31,34)           103.4308         estimate D2E/DX2                !
 ! A61   A(26,35,36)           113.9091         estimate D2E/DX2                !
 ! A62   A(26,35,37)           113.549          estimate D2E/DX2                !
 ! A63   A(26,35,38)           113.459          estimate D2E/DX2                !
 ! A64   A(36,35,37)           104.8391         estimate D2E/DX2                !
 ! A65   A(36,35,38)           102.5539         estimate D2E/DX2                !
 ! A66   A(37,35,38)           107.5682         estimate D2E/DX2                !
 ! A67   A(26,39,40)           107.2358         estimate D2E/DX2                !
 ! A68   A(26,39,41)           109.3599         estimate D2E/DX2                !
 ! A69   A(26,39,42)           110.0699         estimate D2E/DX2                !
 ! A70   A(40,39,41)           114.1661         estimate D2E/DX2                !
 ! A71   A(40,39,42)           110.5763         estimate D2E/DX2                !
 ! A72   A(41,39,42)           105.4259         estimate D2E/DX2                !
 ! D1    D(3,1,2,4)             -1.3315         estimate D2E/DX2                !
 ! D2    D(3,1,2,7)           -179.0996         estimate D2E/DX2                !
 ! D3    D(21,1,2,4)          -177.4249         estimate D2E/DX2                !
 ! D4    D(21,1,2,7)             4.807          estimate D2E/DX2                !
 ! D5    D(2,1,3,5)              0.866          estimate D2E/DX2                !
 ! D6    D(2,1,3,8)           -178.427          estimate D2E/DX2                !
 ! D7    D(21,1,3,5)           177.3072         estimate D2E/DX2                !
 ! D8    D(21,1,3,8)            -1.9858         estimate D2E/DX2                !
 ! D9    D(1,2,4,6)             -2.5049         estimate D2E/DX2                !
 ! D10   D(1,2,4,9)           -177.8294         estimate D2E/DX2                !
 ! D11   D(7,2,4,6)            175.0213         estimate D2E/DX2                !
 ! D12   D(7,2,4,9)             -0.3031         estimate D2E/DX2                !
 ! D13   D(1,3,5,6)              3.4886         estimate D2E/DX2                !
 ! D14   D(1,3,5,11)           179.0459         estimate D2E/DX2                !
 ! D15   D(8,3,5,6)           -177.2314         estimate D2E/DX2                !
 ! D16   D(8,3,5,11)            -1.674          estimate D2E/DX2                !
 ! D17   D(2,4,6,5)              6.2735         estimate D2E/DX2                !
 ! D18   D(2,4,6,10)           178.6958         estimate D2E/DX2                !
 ! D19   D(9,4,6,5)           -178.4767         estimate D2E/DX2                !
 ! D20   D(9,4,6,10)            -6.0544         estimate D2E/DX2                !
 ! D21   D(3,5,6,4)             -6.8588         estimate D2E/DX2                !
 ! D22   D(3,5,6,10)          -178.7588         estimate D2E/DX2                !
 ! D23   D(11,5,6,4)           177.6751         estimate D2E/DX2                !
 ! D24   D(11,5,6,10)            5.7751         estimate D2E/DX2                !
 ! D25   D(3,5,11,12)         -177.9786         estimate D2E/DX2                !
 ! D26   D(3,5,11,13)            0.7634         estimate D2E/DX2                !
 ! D27   D(6,5,11,12)           -2.049          estimate D2E/DX2                !
 ! D28   D(6,5,11,13)          176.693          estimate D2E/DX2                !
 ! D29   D(5,11,12,14)        -178.6325         estimate D2E/DX2                !
 ! D30   D(5,11,12,17)          -2.822          estimate D2E/DX2                !
 ! D31   D(13,11,12,14)          2.611          estimate D2E/DX2                !
 ! D32   D(13,11,12,17)        178.4216         estimate D2E/DX2                !
 ! D33   D(5,11,13,15)        -179.9424         estimate D2E/DX2                !
 ! D34   D(5,11,13,18)          -0.3816         estimate D2E/DX2                !
 ! D35   D(12,11,13,15)         -1.1985         estimate D2E/DX2                !
 ! D36   D(12,11,13,18)        178.3624         estimate D2E/DX2                !
 ! D37   D(11,12,14,16)         -3.8234         estimate D2E/DX2                !
 ! D38   D(11,12,14,19)       -177.7243         estimate D2E/DX2                !
 ! D39   D(17,12,14,16)       -179.9009         estimate D2E/DX2                !
 ! D40   D(17,12,14,19)          6.1982         estimate D2E/DX2                !
 ! D41   D(11,13,15,16)          1.2354         estimate D2E/DX2                !
 ! D42   D(11,13,15,20)        176.9033         estimate D2E/DX2                !
 ! D43   D(18,13,15,16)       -178.3063         estimate D2E/DX2                !
 ! D44   D(18,13,15,20)         -2.6383         estimate D2E/DX2                !
 ! D45   D(12,14,16,15)          3.7493         estimate D2E/DX2                !
 ! D46   D(12,14,16,22)       -172.9221         estimate D2E/DX2                !
 ! D47   D(19,14,16,15)        177.2425         estimate D2E/DX2                !
 ! D48   D(19,14,16,22)          0.5711         estimate D2E/DX2                !
 ! D49   D(13,15,16,14)         -2.5483         estimate D2E/DX2                !
 ! D50   D(13,15,16,22)        173.7088         estimate D2E/DX2                !
 ! D51   D(20,15,16,14)       -178.0691         estimate D2E/DX2                !
 ! D52   D(20,15,16,22)         -1.812          estimate D2E/DX2                !
 ! D53   D(14,16,22,23)       -121.1339         estimate D2E/DX2                !
 ! D54   D(14,16,22,24)         93.3959         estimate D2E/DX2                !
 ! D55   D(15,16,22,23)         62.4119         estimate D2E/DX2                !
 ! D56   D(15,16,22,24)        -83.0582         estimate D2E/DX2                !
 ! D57   D(16,22,23,25)         25.189          estimate D2E/DX2                !
 ! D58   D(16,22,24,26)        -22.8507         estimate D2E/DX2                !
 ! D59   D(25,23,24,26)          7.5649         estimate D2E/DX2                !
 ! D60   D(22,23,25,27)        -54.0944         estimate D2E/DX2                !
 ! D61   D(22,23,25,31)         76.906          estimate D2E/DX2                !
 ! D62   D(24,23,25,27)        126.5245         estimate D2E/DX2                !
 ! D63   D(24,23,25,31)       -102.4751         estimate D2E/DX2                !
 ! D64   D(22,24,26,35)        114.3797         estimate D2E/DX2                !
 ! D65   D(22,24,26,39)       -112.4093         estimate D2E/DX2                !
 ! D66   D(23,24,26,35)        -79.2344         estimate D2E/DX2                !
 ! D67   D(23,24,26,39)         53.9765         estimate D2E/DX2                !
 ! D68   D(23,25,27,28)       -136.4908         estimate D2E/DX2                !
 ! D69   D(23,25,27,29)        -20.4087         estimate D2E/DX2                !
 ! D70   D(23,25,27,30)         96.1955         estimate D2E/DX2                !
 ! D71   D(31,25,27,28)         89.3457         estimate D2E/DX2                !
 ! D72   D(31,25,27,29)       -154.5722         estimate D2E/DX2                !
 ! D73   D(31,25,27,30)        -37.9679         estimate D2E/DX2                !
 ! D74   D(23,25,31,32)        140.1795         estimate D2E/DX2                !
 ! D75   D(23,25,31,33)        -99.0353         estimate D2E/DX2                !
 ! D76   D(23,25,31,34)         14.6565         estimate D2E/DX2                !
 ! D77   D(27,25,31,32)        -84.6083         estimate D2E/DX2                !
 ! D78   D(27,25,31,33)         36.1769         estimate D2E/DX2                !
 ! D79   D(27,25,31,34)        149.8688         estimate D2E/DX2                !
 ! D80   D(24,26,35,36)       -125.4592         estimate D2E/DX2                !
 ! D81   D(24,26,35,37)         -5.5378         estimate D2E/DX2                !
 ! D82   D(24,26,35,38)        117.6964         estimate D2E/DX2                !
 ! D83   D(39,26,35,36)         98.161          estimate D2E/DX2                !
 ! D84   D(39,26,35,37)       -141.9177         estimate D2E/DX2                !
 ! D85   D(39,26,35,38)        -18.6835         estimate D2E/DX2                !
 ! D86   D(24,26,39,40)        152.1628         estimate D2E/DX2                !
 ! D87   D(24,26,39,41)        -83.5509         estimate D2E/DX2                !
 ! D88   D(24,26,39,42)         31.8237         estimate D2E/DX2                !
 ! D89   D(35,26,39,40)        -74.2584         estimate D2E/DX2                !
 ! D90   D(35,26,39,41)         50.0279         estimate D2E/DX2                !
 ! D91   D(35,26,39,42)        165.4025         estimate D2E/DX2                !
 --------------------------------------------------------------------------------
 Trust Radius=3.00D-01 FncErr=1.00D-07 GrdErr=1.00D-06 EigMax=2.50D+02 EigMin=1.00D-04
 Number of steps in this run=    217 maximum allowed number of steps=    252.
 GradGradGradGradGradGradGradGradGradGradGradGradGradGradGradGradGradGrad

 Leave Link  103 at Wed Jan 20 21:07:38 2021, MaxMem=  4026531840 cpu:               0.1 elap:               0.0
 (Enter /opt/ohpc/pub/libs/gaussian/g16-A.03/sandybridge/g16/l202.exe)
                          Input orientation:                          
 ---------------------------------------------------------------------
 Center     Atomic      Atomic             Coordinates (Angstroms)
 Number     Number       Type             X           Y           Z
 ---------------------------------------------------------------------
      1          6           0       -2.326990    0.379052   -2.598978
      2          6           0       -3.492201    0.398327   -1.849359
      3          6           0       -1.039703    0.406031   -1.873760
      4          6           0       -3.445649    0.413283   -0.514740
      5          6           0       -1.110445    0.429267   -0.532811
      6          6           0       -2.280174    0.361387    0.230582
      7          1           0       -4.402244    0.361484   -2.435086
      8          1           0       -0.104580    0.418060   -2.405845
      9          1           0       -4.480353    0.389348    0.054270
     10          1           0       -2.328904    0.397696    1.256646
     11          6           0        0.283191    0.434277    0.232957
     12          6           0        0.305859    0.415294    1.617014
     13          6           0        1.479289    0.431297   -0.471795
     14          6           0        1.512290    0.447193    2.349083
     15          6           0        2.719033    0.434836    0.277350
     16          6           0        2.737351    0.416350    1.614827
     17          1           0       -0.624219    0.442688    2.226782
     18          1           0        1.446636    0.419211   -1.550346
     19          1           0        1.450587    0.390994    3.440332
     20          1           0        3.671233    0.378611   -0.307731
     21          1           0       -2.276506    0.405090   -3.653422
     22          6           0        3.756938    0.306693    2.328684
     23          6           0        5.136700    0.704938    2.920640
     24          6           0        4.658479   -0.740153    2.872807
     25          7           0        6.117864    1.635623    3.268235
     26          7           0        4.876160   -2.178032    3.267079
     27          6           0        6.589823    2.529864    2.242131
     28          1           0        7.618072    2.672307    2.211645
     29          1           0        6.343568    2.068646    1.227019
     30          1           0        6.127165    3.509605    2.203851
     31          6           0        5.848642    2.437399    4.522137
     32          1           0        6.740019    2.601415    5.151007
     33          1           0        5.422721    3.477457    4.197670
     34          1           0        5.057429    2.020328    5.128919
     35          6           0        5.857111   -2.836410    2.444053
     36          1           0        5.494780   -3.766574    1.973947
     37          1           0        6.211377   -2.224307    1.614951
     38          1           0        6.737472   -3.178790    3.002878
     39          6           0        5.056635   -2.495635    4.692494
     40          1           0        4.715701   -3.488973    4.838668
     41          1           0        6.060244   -2.342230    4.958796
     42          1           0        4.469407   -1.781910    5.322032
 ---------------------------------------------------------------------
                    Distance matrix (angstroms):
                    1          2          3          4          5
     1  C    0.000000
     2  C    1.385647   0.000000
     3  C    1.477761   2.452631   0.000000
     4  C    2.365717   1.335514   2.763252   0.000000
     5  C    2.398239   2.721584   1.343015   2.335329   0.000000
     6  C    2.830002   2.407598   2.443157   1.384388   1.398443
     7  H    2.081790   1.082872   3.409363   2.146040   3.802524
     8  H    2.231127   3.433081   1.075971   3.839146   2.126064
     9  H    3.417134   2.144838   3.944065   1.181083   3.420897
    10  H    3.855670   3.316704   3.385491   2.094080   2.165132
    11  C    3.851746   4.311719   2.487791   3.803122   1.590172
    12  C    4.970694   5.142109   3.741140   4.314880   2.574463
    13  C    4.360665   5.158923   2.882961   4.925158   2.590453
    14  C    6.263228   6.532552   4.934244   5.725713   3.896713
    15  C    5.808504   6.565337   4.330843   6.215398   3.914242
    16  C    6.588254   7.127989   5.141642   6.539461   4.406592
    17  H    5.117757   4.984196   4.121701   3.934117   2.802133
    18  H    3.916822   4.947924   2.507320   5.000697   2.752116
    19  H    7.123447   7.239616   5.868675   6.294142   4.727178
    20  H    6.420942   7.327468   4.964486   7.119976   4.787240
    21  H    1.055973   2.175455   2.167229   3.349371   3.331440
    22  C    7.829513   8.367464   6.377944   7.744268   5.647530
    23  C    9.288652   9.864321   7.824549   9.248979   7.143468
    24  C    8.943703   9.488339   7.504193   8.859051   6.800460
    25  N   10.359475  10.957829   8.898470  10.356920   8.255404
    26  N    9.635075  10.141254   8.252457   9.501030   7.554906
    27  C   10.371687  11.087423   8.925295  10.620308   8.450263
    28  H   11.282968  12.045784   9.837866  11.616466   9.420736
    29  H    9.626607  10.440135   8.178741  10.079817   7.832425
    30  H   10.214708  10.892234   8.810396  10.421934   8.328313
    31  C   11.035761  11.489348   9.616821  10.763411   8.832553
    32  H   12.133088  12.591944  10.709395  11.859024   9.932462
    33  H   10.763483  11.203724   9.383967  10.499712   8.622712
    34  H   10.814057  11.154525   9.424356  10.331303   8.522284
    35  C   10.136610  10.784551   8.759165  10.288649   8.250649
    36  H    9.963832  10.617434   8.655342  10.178214   8.216929
    37  H    9.871088  10.631984   8.465692  10.234775   8.078577
    38  H   11.234033  11.873760   9.854795  11.356609   9.333219
    39  C   10.767883  11.146903   9.418105  10.385852   8.596030
    40  H   10.948958  11.278762   9.661906  10.511623   8.840213
    41  H   11.613398  12.046196  10.229663  11.309927   9.447631
    42  H   10.658479  10.934783   9.322918  10.076452   8.384703
                    6          7          8          9         10
     6  C    0.000000
     7  H    3.407193   0.000000
     8  H    3.418650   4.298136   0.000000
     9  H    2.207409   2.490737   5.019998   0.000000
    10  H    1.027862   4.234257   4.285076   2.464652   0.000000
    11  C    2.564402   5.392314   2.667191   4.767106   2.805765
    12  C    2.934734   6.211976   4.043744   5.034945   2.659352
    13  C    3.825151   6.200953   2.499873   5.982962   4.182221
    14  C    4.344904   7.607715   5.022396   6.417264   3.993825
    15  C    4.999965   7.620714   3.895203   7.202985   5.142185
    16  C    5.205258   8.208448   4.923655   7.384532   5.078935
    17  H    2.594920   6.001090   4.661745   4.426333   1.961922
    18  H    4.130879   5.915699   1.771483   6.140430   4.704718
    19  H    4.921580   8.293192   6.049551   6.829456   4.364984
    20  H    5.975728   8.349070   4.319769   8.159627   6.200749
    21  H    3.884252   2.450511   2.504771   4.313255   4.910353
    22  C    6.391537   9.448215   6.110605   8.545920   6.180212
    23  C    7.897117  10.945009   7.478286  10.040089   7.654967
    24  C    7.505974  10.558600   7.203635   9.630066   7.261556
    25  N    9.020979  12.034283   8.508611  11.144729   8.770795
    26  N    8.178146  11.182692   7.983078  10.220466   7.911331
    27  C    9.350159  12.140995   8.418933  11.485527   9.222853
    28  H   10.355686  13.092746   9.275893  12.499522  10.248327
    29  H    8.847403  11.480326   7.582925  11.016018   8.832028
    30  H    9.191758  11.928908   8.345154  11.263931   9.060148
    31  C    9.423636  12.561570   9.354973  11.438727   9.038588
    32  H   10.516282  13.664411  10.426964  12.520652  10.112754
    33  H    9.207729  12.256944   9.138784  11.170276   8.844334
    34  H    8.976982  12.225030   9.272878  10.926182   8.496196
    35  C    9.018912  11.801987   8.345948  11.089623   8.881454
    36  H    8.973812  11.594461   8.249035  10.975433   8.891889
    37  H    8.983804  11.650668   7.939787  11.116655   8.940899
    38  H   10.076528  12.891791   9.434261  12.135300   9.901503
    39  C    9.049862  12.183428   9.247387  10.990468   8.644224
    40  H    9.219653  12.282933   9.538500  11.067938   8.807016
    41  H    9.961331  13.093633   9.993107  11.942365   9.570314
    42  H    8.722008  11.978030   9.245610  10.609518   8.215539
                   11         12         13         14         15
    11  C    0.000000
    12  C    1.384373   0.000000
    13  C    1.388285   2.395896   0.000000
    14  C    2.447211   1.411530   2.821116   0.000000
    15  C    2.436247   2.760161   1.448515   2.397594   0.000000
    16  C    2.816520   2.431493   2.436583   1.428586   1.337730
    17  H    2.190617   1.112480   3.421578   2.140011   3.870101
    18  H    2.129319   3.366535   1.079113   3.900082   2.227041
    19  H    3.413494   2.153017   3.912440   1.094436   3.408127
    20  H    3.431366   3.877078   2.198707   3.424091   1.119002
    21  H    4.653691   5.869089   4.922340   7.098367   6.356671
    22  C    4.058974   3.525367   3.611910   2.249133   2.302529
    23  C    5.554588   5.012021   4.996013   3.678241   3.592360
    24  C    5.243209   4.675187   4.760872   3.403319   3.446512
    25  N    6.685772   6.164019   6.079030   4.844432   4.683944
    26  N    6.093063   5.507786   5.685641   4.364647   4.518712
    27  C    6.942757   6.659608   6.155236   5.489107   4.820013
    28  H    7.919878   7.675686   7.064533   6.500046   5.722618
    29  H    6.355115   6.272129   5.406301   5.218178   4.087598
    30  H    6.891596   6.618666   6.183673   5.540445   4.978049
    31  C    7.306422   6.576556   6.932175   5.242808   5.641181
    32  H    8.400853   7.659416   8.000037   6.310357   6.679441
    33  H    7.169007   6.497608   6.828884   5.281216   5.651228
    34  H    7.019925   6.122665   6.833455   4.771819   5.614232
    35  C    6.830441   6.486445   6.192367   5.446883   5.024260
    36  H    6.916564   6.673854   6.303011   5.810059   5.313667
    37  H    6.642392   6.468589   5.813725   5.455023   4.588756
    38  H    7.898383   7.496913   7.263234   6.393569   6.052656
    39  C    7.159443   6.364115   6.930672   5.168577   5.791851
    40  H    7.500107   6.713350   7.351455   5.652723   6.339447
    41  H    7.963472   7.203082   7.626855   5.939307   6.386840
    42  H    6.952307   5.990826   6.885312   4.748881   5.781573
                   16         17         18         19         20
    16  C    0.000000
    17  H    3.416919   0.000000
    18  H    3.418227   4.307631   0.000000
    19  H    2.233579   2.404204   4.990759   0.000000
    20  H    2.137707   4.987862   2.548445   4.356535   0.000000
    21  H    7.272781   6.108049   4.276086   8.013287   6.824218
    22  C    1.249470   4.384452   4.516307   2.561664   2.638788
    23  C    2.746872   5.808477   5.804130   3.735782   3.560402
    24  C    2.571137   5.451913   5.587875   3.448500   3.513134
    25  N    3.955787   6.925561   6.820466   4.833445   4.511498
    26  N    3.746366   6.180984   6.458707   4.285378   4.557142
    27  C    4.438693   7.509923   6.729793   5.694049   4.432590
    28  H    5.409896   8.538547   7.570709   6.689688   5.214004
    29  H    3.985634   7.224495   5.866373   5.626236   3.514691
    30  H    4.626663   7.415369   6.749213   5.755432   4.705610
    31  C    4.713515   7.151605   7.766968   4.970006   5.683955
    32  H    5.770652   8.212381   8.814196   5.982513   6.645008
    33  H    4.822102   7.046964   7.629011   5.087009   5.741881
    34  H    4.506035   6.572098   7.759767   4.302948   5.845848
    35  C    4.582681   7.266865   6.782815   5.552131   4.763060
    36  H    5.022871   7.431283   6.806534   5.982571   5.070891
    37  H    4.363706   7.362919   6.301591   5.730352   4.113906
    38  H    5.554519   8.240869   7.853051   6.394207   5.746047
    39  C    4.830193   6.854603   7.778269   4.785825   5.931516
    40  H    5.436779   7.127037   8.171915   5.260272   6.521851
    41  H    5.462006   7.739620   8.442740   5.570025   6.391139
    42  H    4.644969   6.361952   7.823788   4.168403   6.082694
                   21         22         23         24         25
    21  H    0.000000
    22  C    8.496924   0.000000
    23  C    9.912811   1.553304   0.000000
    24  C    9.591520   1.484834   1.522915   0.000000
    25  N   10.949383   2.867539   1.396309   2.816111   0.000000
    26  N   10.282338   2.882204   2.915376   1.506762   4.010710
    27  C   10.857440   3.602113   2.429464   3.849786   1.440591
    28  H   11.723564   4.529700   3.245061   4.565217   2.107539
    29  H   10.044491   3.317951   2.486882   3.665719   2.098813
    30  H   10.703614   3.986503   3.059569   4.545875   2.155182
    31  C   11.704190   3.704912   2.464361   3.772746   1.512480
    32  H   12.792167   4.704256   3.337933   4.548525   2.205598
    33  H   11.417407   4.040011   3.065856   4.486375   2.177022
    34  H   11.555307   3.531167   2.571581   3.587403   2.175929
    35  C   10.669688   3.781948   3.645171   2.452517   4.554816
    36  H   10.462454   4.442684   4.584634   3.265972   5.589915
    37  H   10.330229   3.597172   3.382341   2.489258   4.200137
    38  H   11.764452   4.635376   4.201497   3.207192   4.861368
    39  C   11.482311   3.889711   3.659173   2.559591   4.496889
    40  H   11.669202   4.650411   4.630870   3.379925   5.540199
    41  H   12.297132   4.386286   3.780509   2.980427   4.322572
    42  H   11.438929   3.718872   3.520849   2.668278   4.314513
                   26         27         28         29         30
    26  N    0.000000
    27  C    5.113848   0.000000
    28  H    5.670786   1.038516   0.000000
    29  H    4.934512   1.141848   1.719958   0.000000
    30  H    5.919855   1.084163   1.709951   1.754250   0.000000
    31  C    4.880891   2.399235   2.919664   3.352422   2.569368
    32  H    5.465004   2.913630   3.068526   3.979786   3.144221
    33  H    5.757542   2.466616   3.067919   3.414304   2.114850
    34  H    4.596252   3.307779   3.936046   4.108687   3.452290
    35  C    1.439826   5.419828   5.788001   5.077144   6.356299
    36  H    2.139707   6.396575   6.784103   5.943748   7.307226
    37  H    2.124729   4.810272   5.129490   4.312472   5.764689
    38  H    2.129742   5.761013   5.969660   5.553775   6.763545
    39  C    1.471479   5.797464   6.278789   5.873532   6.588041
    40  H    2.052853   6.817678   7.299752   6.825034   7.610163
    41  H    2.071454   5.603394   5.926150   5.784657   6.468243
    42  H    2.131946   5.707307   6.279223   5.925234   6.361709
                   31         32         33         34         35
    31  C    0.000000
    32  H    1.103146   0.000000
    33  H    1.169790   1.847045   0.000000
    34  H    1.080810   1.780241   1.767452   0.000000
    35  C    5.668471   6.138165   6.567251   5.606773   0.000000
    36  H    6.716232   7.224653   7.578002   6.605555   1.103399
    37  H    5.505889   6.005893   6.308925   5.629964   1.089764
    38  H    5.885554   6.166460   6.889247   5.862885   1.097518
    39  C    4.999112   5.387387   6.004723   4.537002   2.410887
    40  H    6.041989   6.425593   7.031494   5.527515   2.731819
    41  H    4.804196   4.993863   5.903770   4.479564   2.570877
    42  H    4.510509   4.939480   5.462045   3.852282   3.364588
                   36         37         38         39         40
    36  H    0.000000
    37  H    1.738096   0.000000
    38  H    1.717112   1.764697   0.000000
    39  C    3.032780   3.298230   2.479257   0.000000
    40  H    2.981720   3.772105   2.748435   1.060341   0.000000
    41  H    3.355269   3.349335   2.232507   1.049610   1.771227
    42  H    4.024917   4.119784   3.531836   1.118284   1.791191
                   41         42
    41  H    0.000000
    42  H    1.725300   0.000000
 Stoichiometry    C19H21N2(1+)
 Framework group  C1[X(C19H21N2)]
 Deg. of freedom   120
 Full point group                 C1      NOp   1
 Largest Abelian subgroup         C1      NOp   1
 Largest concise Abelian subgroup C1      NOp   1
                         Standard orientation:                         
 ---------------------------------------------------------------------
 Center     Atomic      Atomic             Coordinates (Angstroms)
 Number     Number       Type             X           Y           Z
 ---------------------------------------------------------------------
      1          6           0        5.953434   -0.165032   -1.158163
      2          6           0        6.587191    0.087254    0.047955
      3          6           0        4.478524   -0.256768   -1.156442
      4          6           0        5.880142    0.267553    1.166513
      5          6           0        3.870113   -0.067706    0.025835
      6          6           0        4.497156    0.272612    1.228600
      7          1           0        7.665637    0.158494   -0.019067
      8          1           0        3.936328   -0.475680   -2.059667
      9          1           0        6.489491    0.517204    2.146985
     10          1           0        4.027737    0.398402    2.134317
     11          6           0        2.282001   -0.146247    0.006387
     12          6           0        1.569431    0.077982    1.171915
     13          6           0        1.599789   -0.411914   -1.173165
     14          6           0        0.161240   -0.006568    1.219525
     15          6           0        0.153030   -0.470638   -1.132714
     16          6           0       -0.532461   -0.253330   -0.004707
     17          1           0        2.070105    0.269320    2.146763
     18          1           0        2.166884   -0.558294   -2.079510
     19          1           0       -0.333521    0.221397    2.168753
     20          1           0       -0.380358   -0.633024   -2.102917
     21          1           0        6.438200   -0.356389   -2.076565
     22          6           0       -1.776006   -0.176659    0.089592
     23          6           0       -3.248349   -0.664587    0.006607
     24          6           0       -2.872722    0.808136   -0.089640
     25          7           0       -4.230925   -1.656644    0.013435
     26          7           0       -3.319773    2.246034   -0.143734
     27          6           0       -4.087674   -2.751071   -0.912313
     28          1           0       -4.955672   -3.034680   -1.406944
     29          1           0       -3.386799   -2.419106   -1.750400
     30          1           0       -3.626395   -3.653431   -0.527113
     31          6           0       -4.590781   -2.216126    1.371772
     32          1           0       -5.669209   -2.402856    1.509821
     33          1           0       -4.015574   -3.225691    1.507135
     34          1           0       -4.227764   -1.608859    2.188837
     35          6           0       -3.784834    2.633497   -1.450138
     36          1           0       -3.276206    3.522595   -1.860371
     37          1           0       -3.650394    1.861019   -2.206966
     38          1           0       -4.840401    2.933565   -1.466910
     39          6           0       -4.202309    2.747496    0.921590
     40          1           0       -4.023089    3.788486    1.014019
     41          1           0       -5.196947    2.501252    0.694124
     42          1           0       -3.978653    2.223232    1.883715
 ---------------------------------------------------------------------
 Rotational constants (GHZ):           0.6145053           0.1166783           0.1094339
 Leave Link  202 at Wed Jan 20 21:07:38 2021, MaxMem=  4026531840 cpu:               0.1 elap:               0.0
 (Enter /opt/ohpc/pub/libs/gaussian/g16-A.03/sandybridge/g16/l301.exe)
 Standard basis: TZVP (5D, 7F)
 Ernie: Thresh=  0.10000D-02 Tol=  0.10000D-05 Strict=F.
 There are   546 symmetry adapted cartesian basis functions of A   symmetry.
 There are   525 symmetry adapted basis functions of A   symmetry.
   525 basis functions,   903 primitive gaussians,   546 cartesian basis functions
    74 alpha electrons       74 beta electrons
       nuclear repulsion energy      1471.6501520852 Hartrees.
 IExCor=33909 DFT=T Ex+Corr=LC-wHPBE ExCW=0 ScaHFX=  1.000000
 ScaDFX=  1.000000  1.000000  1.000000  1.000000 ScalE2=  1.000000  1.000000
 IRadAn=      5 IRanWt=     -1 IRanGd=            0 ICorTp=0 IEmpDi=  4
 HFx  wShort=  0.000000 wLong=  0.069400 cFull=  0.000000 cShort=  0.000000 cLong=  1.000000
 DFx  wShort=  0.000000 wLong=  0.069400 cFull=  0.000000 cShort=  1.000000 cLong=  0.000000
 NAtoms=   42 NActive=   42 NUniq=   42 SFac= 1.00D+00 NAtFMM=   60 NAOKFM=F Big=F
 Integral buffers will be    131072 words long.
 Raffenetti 2 integral format.
 Two-electron integral symmetry is turned on.
 Leave Link  301 at Wed Jan 20 21:07:38 2021, MaxMem=  4026531840 cpu:               0.9 elap:               0.1
 (Enter /opt/ohpc/pub/libs/gaussian/g16-A.03/sandybridge/g16/l302.exe)
 NPDir=0 NMtPBC=     1 NCelOv=     1 NCel=       1 NClECP=     1 NCelD=      1
         NCelK=      1 NCelE2=     1 NClLst=     1 CellRange=     0.0.
 One-electron integrals computed using PRISM.
 One-electron integral symmetry used in STVInt
 NBasis=   525 RedAO= T EigKep=  8.70D-06  NBF=   525
 NBsUse=   525 1.00D-06 EigRej= -1.00D+00 NBFU=   525
 Precomputing XC quadrature grid using
 IXCGrd= 4 IRadAn=           5 IRanWt=          -1 IRanGd=           0 AccXCQ= 0.00D+00.
 Generated NRdTot=       0 NPtTot=           0 NUsed=           0 NTot=          32
 NSgBfM=   524   524   524   524   524 MxSgAt=    42 MxSgA2=    42.
 Leave Link  302 at Wed Jan 20 21:07:39 2021, MaxMem=  4026531840 cpu:               7.1 elap:               0.9
 (Enter /opt/ohpc/pub/libs/gaussian/g16-A.03/sandybridge/g16/l303.exe)
 DipDrv:  MaxL=1.
 Leave Link  303 at Wed Jan 20 21:07:39 2021, MaxMem=  4026531840 cpu:               0.7 elap:               0.2
 (Enter /opt/ohpc/pub/libs/gaussian/g16-A.03/sandybridge/g16/l401.exe)
 ExpMin= 9.52D-02 ExpMax= 1.97D+04 ExpMxC= 6.73D+02 IAcc=3 IRadAn=         5 AccDes= 0.00D+00
 Harris functional with IExCor=33909 and IRadAn=       5 diagonalized for initial guess.
 HarFok:  IExCor=33909 AccDes= 0.00D+00 IRadAn=         5 IDoV= 1 UseB2=F ITyADJ=14
 ICtDFT=  3500011 ScaDFX=  1.000000  1.000000  1.000000  1.000000
 FoFCou: FMM=F IPFlag=           0 FMFlag=      100000 FMFlg1=           0
         NFxFlg=           0 DoJE=T BraDBF=F KetDBF=T FulRan=T
         wScrn=  0.000000 ICntrl=       500 IOpCl=  0 I1Cent=   200000004 NGrid=           0
         NMat0=    1 NMatS0=      1 NMatT0=    0 NMatD0=    1 NMtDS0=    0 NMtDT0=    0
 Petite list used in FoFCou.
 Harris En= -839.573360351215    
 JPrj=0 DoOrth=F DoCkMO=F.
 Leave Link  401 at Wed Jan 20 21:07:44 2021, MaxMem=  4026531840 cpu:              38.1 elap:               4.8
 (Enter /opt/ohpc/pub/libs/gaussian/g16-A.03/sandybridge/g16/l502.exe)
 Integral symmetry usage will be decided dynamically.
 Closed shell SCF:
 Using DIIS extrapolation, IDIIS=  1040.
 NGot=  4026531840 LenX=  4025925692 LenY=  4025627030
 Requested convergence on RMS density matrix=1.00D-08 within 128 cycles.
 Requested convergence on MAX density matrix=1.00D-06.
 Requested convergence on             energy=1.00D-06.
 No special actions if energy rises.
 Fock matrices will be formed incrementally for  20 cycles.
 Integral accuracy reduced to 1.0D-05 until final iterations.

 Cycle   1  Pass 0  IDiag  1:
 FoFJK:  IHMeth= 1 ICntrl=       0 DoSepK=T KAlg= 0 I1Cent=           0 FoldK=F
 IRaf=         1 NMat=       1 IRICut=       1 DoRegI=T DoRafI=F ISym2E= 0 IDoP0=0 IntGTp=1.
 FoFCou: FMM=F IPFlag=           0 FMFlag=      100000 FMFlg1=           0
         NFxFlg=           0 DoJE=T BraDBF=F KetDBF=F FulRan=T
         wScrn=  0.000000 ICntrl=       500 IOpCl=  0 I1Cent=           0 NGrid=           0
         NMat0=    1 NMatS0=      1 NMatT0=    0 NMatD0=    1 NMtDS0=    0 NMtDT0=    0
 Symmetry not used in FoFCou.
 E= -844.546924804628    
 DIIS: error= 2.25D-02 at cycle   1 NSaved=   1.
 NSaved= 1 IEnMin= 1 EnMin= -844.546924804628     IErMin= 1 ErrMin= 2.25D-02
 ErrMax= 2.25D-02  0.00D+00 EMaxC= 1.00D-01 BMatC= 4.17D-01 BMatP= 4.17D-01
 IDIUse=3 WtCom= 7.75D-01 WtEn= 2.25D-01
 Coeff-Com:  0.100D+01
 Coeff-En:   0.100D+01
 Coeff:      0.100D+01
 Gap=     0.278 Goal=   None    Shift=    0.000
 GapD=    0.278 DampG=1.000 DampE=0.500 DampFc=0.5000 IDamp=-1.
 Damping current iteration by 5.00D-01
 RMSDP=1.04D-02 MaxDP=6.33D-01              OVMax= 7.97D-01

 Cycle   2  Pass 0  IDiag  1:
 RMSU=  5.19D-03    CP:  1.01D+00
 E= -844.219427493126     Delta-E=        0.327497311501 Rises=F Damp=T
 DIIS: error= 1.73D-02 at cycle   2 NSaved=   2.
 NSaved= 2 IEnMin= 1 EnMin= -844.546924804628     IErMin= 2 ErrMin= 1.73D-02
 ErrMax= 1.73D-02  0.00D+00 EMaxC= 1.00D-01 BMatC= 2.17D-01 BMatP= 4.17D-01
 IDIUse=3 WtCom= 8.27D-01 WtEn= 1.73D-01
 Coeff-Com:  0.385D+00 0.615D+00
 Coeff-En:   0.683D+00 0.317D+00
 Coeff:      0.437D+00 0.563D+00
 Gap=    -0.004 Goal=   None    Shift=    0.000
 RMSDP=7.50D-03 MaxDP=4.54D-01 DE= 3.27D-01 OVMax= 7.63D-01

 Cycle   3  Pass 0  IDiag  1:
 RMSU=  7.25D-03    CP:  1.17D+00  1.15D+00
 E= -844.743266410588     Delta-E=       -0.523838917462 Rises=F Damp=F
 DIIS: error= 1.76D-02 at cycle   3 NSaved=   3.
 NSaved= 3 IEnMin= 3 EnMin= -844.743266410588     IErMin= 2 ErrMin= 1.73D-02
 ErrMax= 1.76D-02  0.00D+00 EMaxC= 1.00D-01 BMatC= 1.80D-01 BMatP= 2.17D-01
 IDIUse=3 WtCom= 8.24D-01 WtEn= 1.76D-01
 EnCoef did     2 forward-backward iterations
 Coeff-Com:  0.165D+00 0.421D+00 0.414D+00
 Coeff-En:   0.968D-01 0.188D+00 0.716D+00
 Coeff:      0.153D+00 0.380D+00 0.467D+00
 Gap=     0.209 Goal=   None    Shift=    0.000
 RMSDP=5.10D-03 MaxDP=2.86D-01 DE=-5.24D-01 OVMax= 1.44D-01

 Cycle   4  Pass 0  IDiag  1:
 RMSU=  3.07D-03    CP:  1.08D+00  9.48D-01  4.74D-01
 E= -844.969152770057     Delta-E=       -0.225886359469 Rises=F Damp=F
 DIIS: error= 3.35D-03 at cycle   4 NSaved=   4.
 NSaved= 4 IEnMin= 4 EnMin= -844.969152770057     IErMin= 4 ErrMin= 3.35D-03
 ErrMax= 3.35D-03  0.00D+00 EMaxC= 1.00D-01 BMatC= 1.10D-02 BMatP= 1.80D-01
 IDIUse=3 WtCom= 9.66D-01 WtEn= 3.35D-02
 Coeff-Com:  0.102D-01 0.195D+00 0.153D+00 0.642D+00
 Coeff-En:   0.000D+00 0.000D+00 0.000D+00 0.100D+01
 Coeff:      0.988D-02 0.188D+00 0.148D+00 0.654D+00
 Gap=     0.144 Goal=   None    Shift=    0.000
 RMSDP=3.61D-03 MaxDP=2.13D-01 DE=-2.26D-01 OVMax= 3.95D-02

 Cycle   5  Pass 0  IDiag  1:
 RMSU=  2.11D-03    CP:  1.18D+00  1.23D+00  6.70D-01  1.58D+00
 E= -844.974148322862     Delta-E=       -0.004995552805 Rises=F Damp=F
 DIIS: error= 5.47D-03 at cycle   5 NSaved=   5.
 NSaved= 5 IEnMin= 5 EnMin= -844.974148322862     IErMin= 4 ErrMin= 3.35D-03
 ErrMax= 5.47D-03  0.00D+00 EMaxC= 1.00D-01 BMatC= 7.09D-03 BMatP= 1.10D-02
 IDIUse=3 WtCom= 9.45D-01 WtEn= 5.47D-02
 Coeff-Com: -0.302D-01 0.871D-01-0.459D-02 0.432D+00 0.516D+00
 Coeff-En:   0.000D+00 0.000D+00 0.000D+00 0.318D+00 0.682D+00
 Coeff:     -0.285D-01 0.823D-01-0.434D-02 0.426D+00 0.525D+00
 Gap=     0.141 Goal=   None    Shift=    0.000
 RMSDP=9.44D-03 MaxDP=5.02D-01 DE=-5.00D-03 OVMax= 2.96D-02

 Cycle   6  Pass 0  IDiag  1:
 RMSU=  3.99D-03    CP:  1.41D+00  1.78D+00  1.01D+00  3.00D+00  3.00D+00
 E= -844.982572987869     Delta-E=       -0.008424665007 Rises=F Damp=F
 DIIS: error= 1.62D-03 at cycle   6 NSaved=   6.
 NSaved= 6 IEnMin= 6 EnMin= -844.982572987869     IErMin= 6 ErrMin= 1.62D-03
 ErrMax= 1.62D-03  0.00D+00 EMaxC= 1.00D-01 BMatC= 8.87D-04 BMatP= 7.09D-03
 IDIUse=3 WtCom= 9.84D-01 WtEn= 1.62D-02
 Coeff-Com: -0.194D-01 0.317D-01-0.361D-01 0.129D+00 0.317D+00 0.578D+00
 Coeff-En:   0.000D+00 0.000D+00 0.000D+00 0.000D+00 0.000D+00 0.100D+01
 Coeff:     -0.191D-01 0.312D-01-0.355D-01 0.127D+00 0.311D+00 0.585D+00
 Gap=     0.137 Goal=   None    Shift=    0.000
 RMSDP=1.06D+02 MaxDP=5.68D+03 DE=-8.42D-03 OVMax= 9.51D-01

 Problem detected with inexpensive integrals.
 Switching to full accuracy and repeating last cycle.
 Cycle   7  Pass 1  IDiag  1:
 E= -844.982089200813     Delta-E=        0.000483787056 Rises=F Damp=F
 DIIS: error= 1.42D-03 at cycle   1 NSaved=   1.
 NSaved= 1 IEnMin= 1 EnMin= -844.982089200813     IErMin= 1 ErrMin= 1.42D-03
 ErrMax= 1.42D-03  0.00D+00 EMaxC= 1.00D-01 BMatC= 9.00D-04 BMatP= 9.00D-04
 IDIUse=3 WtCom= 9.86D-01 WtEn= 1.42D-02
 Coeff-Com:  0.100D+01
 Coeff-En:   0.100D+01
 Coeff:      0.100D+01
 Gap=     0.125 Goal=   None    Shift=    0.000
 GapD=    0.125 DampG=1.000 DampE=1.000 DampFc=1.0000 IDamp=-1.
 RMSDP=1.77D-02 MaxDP=1.02D+00 DE= 4.84D-04 OVMax= 2.45D-02

 Cycle   8  Pass 1  IDiag  1:
 RMSU=  8.25D-03    CP:  3.44D-01
 E= -844.980633919298     Delta-E=        0.001455281516 Rises=F Damp=F
 DIIS: error= 2.66D-03 at cycle   2 NSaved=   2.
 NSaved= 2 IEnMin= 1 EnMin= -844.982089200813     IErMin= 1 ErrMin= 1.42D-03
 ErrMax= 2.66D-03  0.00D+00 EMaxC= 1.00D-01 BMatC= 2.63D-03 BMatP= 9.00D-04
 IDIUse=3 WtCom= 1.62D-01 WtEn= 8.38D-01
 Coeff-Com:  0.641D+00 0.359D+00
 Coeff-En:   0.674D+00 0.326D+00
 Coeff:      0.669D+00 0.331D+00
 Gap=     0.133 Goal=   None    Shift=    0.000
 RMSDP=4.44D-04 MaxDP=2.80D-02 DE= 1.46D-03 OVMax= 1.11D-02

 Cycle   9  Pass 1  IDiag  1:
 RMSU=  3.68D-04    CP:  3.33D-01  1.00D+00
 E= -844.983317309059     Delta-E=       -0.002683389761 Rises=F Damp=F
 DIIS: error= 3.45D-04 at cycle   3 NSaved=   3.
 NSaved= 3 IEnMin= 3 EnMin= -844.983317309059     IErMin= 3 ErrMin= 3.45D-04
 ErrMax= 3.45D-04  0.00D+00 EMaxC= 1.00D-01 BMatC= 4.97D-05 BMatP= 9.00D-04
 IDIUse=3 WtCom= 9.97D-01 WtEn= 3.45D-03
 Coeff-Com:  0.229D+00 0.120D+00 0.652D+00
 Coeff-En:   0.000D+00 0.000D+00 0.100D+01
 Coeff:      0.228D+00 0.119D+00 0.653D+00
 Gap=     0.138 Goal=   None    Shift=    0.000
 RMSDP=2.81D-04 MaxDP=1.65D-02 DE=-2.68D-03 OVMax= 3.01D-03

 Cycle  10  Pass 1  IDiag  1:
 RMSU=  1.30D-04    CP:  3.24D-01  1.01D+00  1.18D+00
 E= -844.983343667458     Delta-E=       -0.000026358400 Rises=F Damp=F
 DIIS: error= 3.54D-04 at cycle   4 NSaved=   4.
 NSaved= 4 IEnMin= 4 EnMin= -844.983343667458     IErMin= 3 ErrMin= 3.45D-04
 ErrMax= 3.54D-04  0.00D+00 EMaxC= 1.00D-01 BMatC= 3.09D-05 BMatP= 4.97D-05
 IDIUse=3 WtCom= 9.96D-01 WtEn= 3.54D-03
 Coeff-Com:  0.652D-02-0.108D-01 0.438D+00 0.566D+00
 Coeff-En:   0.000D+00 0.000D+00 0.379D+00 0.621D+00
 Coeff:      0.649D-02-0.108D-01 0.438D+00 0.567D+00
 Gap=     0.137 Goal=   None    Shift=    0.000
 RMSDP=1.40D-04 MaxDP=8.19D-03 DE=-2.64D-05 OVMax= 1.70D-03

 Cycle  11  Pass 1  IDiag  1:
 RMSU=  5.37D-05    CP:  3.19D-01  1.02D+00  1.31D+00  1.03D+00
 E= -844.983376372991     Delta-E=       -0.000032705532 Rises=F Damp=F
 DIIS: error= 7.00D-05 at cycle   5 NSaved=   5.
 NSaved= 5 IEnMin= 5 EnMin= -844.983376372991     IErMin= 5 ErrMin= 7.00D-05
 ErrMax= 7.00D-05  0.00D+00 EMaxC= 1.00D-01 BMatC= 2.90D-06 BMatP= 3.09D-05
 IDIUse=1 WtCom= 1.00D+00 WtEn= 0.00D+00
 Coeff-Com: -0.812D-02-0.133D-01 0.239D+00 0.354D+00 0.428D+00
 Coeff:     -0.812D-02-0.133D-01 0.239D+00 0.354D+00 0.428D+00
 Gap=     0.137 Goal=   None    Shift=    0.000
 RMSDP=2.16D-05 MaxDP=1.44D-03 DE=-3.27D-05 OVMax= 3.13D-04

 Cycle  12  Pass 1  IDiag  1:
 RMSU=  1.06D-05    CP:  3.19D-01  1.02D+00  1.33D+00  1.04D+00  1.11D+00
 E= -844.983379130665     Delta-E=       -0.000002757675 Rises=F Damp=F
 DIIS: error= 1.28D-05 at cycle   6 NSaved=   6.
 NSaved= 6 IEnMin= 6 EnMin= -844.983379130665     IErMin= 6 ErrMin= 1.28D-05
 ErrMax= 1.28D-05  0.00D+00 EMaxC= 1.00D-01 BMatC= 1.12D-07 BMatP= 2.90D-06
 IDIUse=1 WtCom= 1.00D+00 WtEn= 0.00D+00
 Coeff-Com: -0.469D-02-0.508D-02 0.563D-01 0.965D-01 0.183D+00 0.674D+00
 Coeff:     -0.469D-02-0.508D-02 0.563D-01 0.965D-01 0.183D+00 0.674D+00
 Gap=     0.137 Goal=   None    Shift=    0.000
 RMSDP=8.22D-06 MaxDP=5.57D-04 DE=-2.76D-06 OVMax= 2.45D-04

 Cycle  13  Pass 1  IDiag  1:
 RMSU=  3.56D-06    CP:  3.18D-01  1.02D+00  1.34D+00  1.05D+00  1.12D+00
                    CP:  1.08D+00
 E= -844.983379281608     Delta-E=       -0.000000150943 Rises=F Damp=F
 DIIS: error= 8.05D-06 at cycle   7 NSaved=   7.
 NSaved= 7 IEnMin= 7 EnMin= -844.983379281608     IErMin= 7 ErrMin= 8.05D-06
 ErrMax= 8.05D-06  0.00D+00 EMaxC= 1.00D-01 BMatC= 5.54D-08 BMatP= 1.12D-07
 IDIUse=1 WtCom= 1.00D+00 WtEn= 0.00D+00
 Coeff-Com: -0.816D-03-0.654D-03-0.806D-02-0.655D-03 0.300D-01 0.436D+00
 Coeff-Com:  0.545D+00
 Coeff:     -0.816D-03-0.654D-03-0.806D-02-0.655D-03 0.300D-01 0.436D+00
 Coeff:      0.545D+00
 Gap=     0.137 Goal=   None    Shift=    0.000
 RMSDP=2.77D-06 MaxDP=3.29D-04 DE=-1.51D-07 OVMax= 1.24D-04

 Cycle  14  Pass 1  IDiag  1:
 RMSU=  1.60D-06    CP:  3.18D-01  1.02D+00  1.35D+00  1.06D+00  1.12D+00
                    CP:  1.05D+00  1.03D+00
 E= -844.983379354865     Delta-E=       -0.000000073257 Rises=F Damp=F
 DIIS: error= 4.31D-06 at cycle   8 NSaved=   8.
 NSaved= 8 IEnMin= 8 EnMin= -844.983379354865     IErMin= 8 ErrMin= 4.31D-06
 ErrMax= 4.31D-06  0.00D+00 EMaxC= 1.00D-01 BMatC= 1.06D-08 BMatP= 5.54D-08
 IDIUse=1 WtCom= 1.00D+00 WtEn= 0.00D+00
 Coeff-Com:  0.378D-03 0.440D-03-0.178D-01-0.186D-01-0.219D-01 0.141D+00
 Coeff-Com:  0.344D+00 0.572D+00
 Coeff:      0.378D-03 0.440D-03-0.178D-01-0.186D-01-0.219D-01 0.141D+00
 Coeff:      0.344D+00 0.572D+00
 Gap=     0.137 Goal=   None    Shift=    0.000
 RMSDP=8.15D-07 MaxDP=5.22D-05 DE=-7.33D-08 OVMax= 8.35D-05

 Cycle  15  Pass 1  IDiag  1:
 RMSU=  6.96D-07    CP:  3.18D-01  1.02D+00  1.35D+00  1.06D+00  1.12D+00
                    CP:  1.06D+00  1.01D+00  1.17D+00
 E= -844.983379373401     Delta-E=       -0.000000018536 Rises=F Damp=F
 DIIS: error= 1.60D-06 at cycle   9 NSaved=   9.
 NSaved= 9 IEnMin= 9 EnMin= -844.983379373401     IErMin= 9 ErrMin= 1.60D-06
 ErrMax= 1.60D-06  0.00D+00 EMaxC= 1.00D-01 BMatC= 1.87D-09 BMatP= 1.06D-08
 IDIUse=1 WtCom= 1.00D+00 WtEn= 0.00D+00
 Coeff-Com:  0.389D-03 0.320D-03-0.922D-02-0.102D-01-0.220D-01-0.217D-01
 Coeff-Com:  0.718D-01 0.336D+00 0.655D+00
 Coeff:      0.389D-03 0.320D-03-0.922D-02-0.102D-01-0.220D-01-0.217D-01
 Coeff:      0.718D-01 0.336D+00 0.655D+00
 Gap=     0.137 Goal=   None    Shift=    0.000
 RMSDP=5.49D-07 MaxDP=7.08D-05 DE=-1.85D-08 OVMax= 6.06D-05

 Cycle  16  Pass 1  IDiag  1:
 RMSU=  2.44D-07    CP:  3.18D-01  1.02D+00  1.34D+00  1.06D+00  1.12D+00
                    CP:  1.05D+00  1.04D+00  1.32D+00  1.19D+00
 E= -844.983379377992     Delta-E=       -0.000000004591 Rises=F Damp=F
 DIIS: error= 6.90D-07 at cycle  10 NSaved=  10.
 NSaved=10 IEnMin=10 EnMin= -844.983379377992     IErMin=10 ErrMin= 6.90D-07
 ErrMax= 6.90D-07  0.00D+00 EMaxC= 1.00D-01 BMatC= 3.23D-10 BMatP= 1.87D-09
 IDIUse=1 WtCom= 1.00D+00 WtEn= 0.00D+00
 Coeff-Com:  0.166D-03 0.893D-04-0.225D-02-0.252D-02-0.848D-02-0.321D-01
 Coeff-Com: -0.196D-01 0.807D-01 0.366D+00 0.618D+00
 Coeff:      0.166D-03 0.893D-04-0.225D-02-0.252D-02-0.848D-02-0.321D-01
 Coeff:     -0.196D-01 0.807D-01 0.366D+00 0.618D+00
 Gap=     0.137 Goal=   None    Shift=    0.000
 RMSDP=2.63D-07 MaxDP=1.16D-05 DE=-4.59D-09 OVMax= 2.65D-05

 Cycle  17  Pass 1  IDiag  1:
 RMSU=  1.51D-07    CP:  3.18D-01  1.02D+00  1.35D+00  1.06D+00  1.12D+00
                    CP:  1.04D+00  1.05D+00  1.36D+00  1.25D+00  1.02D+00
 E= -844.983379378760     Delta-E=       -0.000000000768 Rises=F Damp=F
 DIIS: error= 3.64D-07 at cycle  11 NSaved=  11.
 NSaved=11 IEnMin=11 EnMin= -844.983379378760     IErMin=11 ErrMin= 3.64D-07
 ErrMax= 3.64D-07  0.00D+00 EMaxC= 1.00D-01 BMatC= 7.71D-11 BMatP= 3.23D-10
 IDIUse=1 WtCom= 1.00D+00 WtEn= 0.00D+00
 Coeff-Com: -0.114D-04-0.343D-04 0.107D-02 0.110D-02 0.235D-03-0.141D-01
 Coeff-Com: -0.348D-01-0.403D-01 0.685D-01 0.376D+00 0.643D+00
 Coeff:     -0.114D-04-0.343D-04 0.107D-02 0.110D-02 0.235D-03-0.141D-01
 Coeff:     -0.348D-01-0.403D-01 0.685D-01 0.376D+00 0.643D+00
 Gap=     0.137 Goal=   None    Shift=    0.000
 RMSDP=1.65D-07 MaxDP=1.08D-05 DE=-7.68D-10 OVMax= 1.65D-05

 Cycle  18  Pass 1  IDiag  1:
 RMSU=  4.99D-08    CP:  3.18D-01  1.02D+00  1.34D+00  1.06D+00  1.12D+00
                    CP:  1.05D+00  1.05D+00  1.35D+00  1.31D+00  1.30D+00
                    CP:  1.12D+00
 E= -844.983379378963     Delta-E=       -0.000000000203 Rises=F Damp=F
 DIIS: error= 1.63D-07 at cycle  12 NSaved=  12.
 NSaved=12 IEnMin=12 EnMin= -844.983379378963     IErMin=12 ErrMin= 1.63D-07
 ErrMax= 1.63D-07  0.00D+00 EMaxC= 1.00D-01 BMatC= 1.23D-11 BMatP= 7.71D-11
 IDIUse=1 WtCom= 1.00D+00 WtEn= 0.00D+00
 Coeff-Com: -0.292D-04-0.271D-04 0.974D-03 0.989D-03 0.146D-02-0.103D-02
 Coeff-Com: -0.155D-01-0.340D-01-0.189D-01 0.918D-01 0.338D+00 0.636D+00
 Coeff:     -0.292D-04-0.271D-04 0.974D-03 0.989D-03 0.146D-02-0.103D-02
 Coeff:     -0.155D-01-0.340D-01-0.189D-01 0.918D-01 0.338D+00 0.636D+00
 Gap=     0.137 Goal=   None    Shift=    0.000
 RMSDP=4.43D-08 MaxDP=1.93D-06 DE=-2.03D-10 OVMax= 5.81D-06

 Cycle  19  Pass 1  IDiag  1:
 RMSU=  1.93D-08    CP:  3.18D-01  1.02D+00  1.34D+00  1.06D+00  1.12D+00
                    CP:  1.05D+00  1.05D+00  1.36D+00  1.32D+00  1.32D+00
                    CP:  1.22D+00  1.19D+00
 E= -844.983379379024     Delta-E=       -0.000000000061 Rises=F Damp=F
 DIIS: error= 5.77D-08 at cycle  13 NSaved=  13.
 NSaved=13 IEnMin=13 EnMin= -844.983379379024     IErMin=13 ErrMin= 5.77D-08
 ErrMax= 5.77D-08  0.00D+00 EMaxC= 1.00D-01 BMatC= 2.60D-12 BMatP= 1.23D-11
 IDIUse=1 WtCom= 1.00D+00 WtEn= 0.00D+00
 Coeff-Com: -0.182D-04-0.749D-05 0.363D-03 0.352D-03 0.825D-03 0.286D-02
 Coeff-Com: -0.166D-02-0.116D-01-0.276D-01-0.388D-01 0.423D-01 0.363D+00
 Coeff-Com:  0.670D+00
 Coeff:     -0.182D-04-0.749D-05 0.363D-03 0.352D-03 0.825D-03 0.286D-02
 Coeff:     -0.166D-02-0.116D-01-0.276D-01-0.388D-01 0.423D-01 0.363D+00
 Coeff:      0.670D+00
 Gap=     0.137 Goal=   None    Shift=    0.000
 RMSDP=1.87D-08 MaxDP=6.86D-07 DE=-6.09D-11 OVMax= 3.51D-06

 Cycle  20  Pass 1  IDiag  1:
 RMSU=  9.97D-09    CP:  3.18D-01  1.02D+00  1.34D+00  1.06D+00  1.12D+00
                    CP:  1.05D+00  1.05D+00  1.36D+00  1.33D+00  1.35D+00
                    CP:  1.25D+00  1.33D+00  1.27D+00
 E= -844.983379379022     Delta-E=        0.000000000002 Rises=F Damp=F
 DIIS: error= 2.42D-08 at cycle  14 NSaved=  14.
 NSaved=14 IEnMin=13 EnMin= -844.983379379024     IErMin=14 ErrMin= 2.42D-08
 ErrMax= 2.42D-08  0.00D+00 EMaxC= 1.00D-01 BMatC= 2.27D-13 BMatP= 2.60D-12
 IDIUse=1 WtCom= 1.00D+00 WtEn= 0.00D+00
 Coeff-Com: -0.489D-05-0.858D-06 0.522D-04 0.583D-04 0.173D-03 0.117D-02
 Coeff-Com:  0.776D-03-0.124D-02-0.787D-02-0.227D-01-0.176D-01 0.703D-01
 Coeff-Com:  0.274D+00 0.703D+00
 Coeff:     -0.489D-05-0.858D-06 0.522D-04 0.583D-04 0.173D-03 0.117D-02
 Coeff:      0.776D-03-0.124D-02-0.787D-02-0.227D-01-0.176D-01 0.703D-01
 Coeff:      0.274D+00 0.703D+00
 Gap=     0.137 Goal=   None    Shift=    0.000
 RMSDP=1.37D-08 MaxDP=1.02D-06 DE= 1.82D-12 OVMax= 1.00D-06

 Cycle  21  Pass 1  IDiag  1:
 RMSU=  3.58D-09    CP:  3.18D-01  1.02D+00  1.34D+00  1.06D+00  1.12D+00
                    CP:  1.05D+00  1.05D+00  1.36D+00  1.33D+00  1.34D+00
                    CP:  1.24D+00  1.35D+00  1.42D+00  1.17D+00
 E= -844.983379379013     Delta-E=        0.000000000009 Rises=F Damp=F
 DIIS: error= 1.46D-08 at cycle  15 NSaved=  15.
 NSaved=15 IEnMin=13 EnMin= -844.983379379024     IErMin=15 ErrMin= 1.46D-08
 ErrMax= 1.46D-08  0.00D+00 EMaxC= 1.00D-01 BMatC= 8.58D-14 BMatP= 2.27D-13
 IDIUse=1 WtCom= 1.00D+00 WtEn= 0.00D+00
 Coeff-Com:  0.193D-05 0.182D-05-0.669D-04-0.602D-04-0.102D-03 0.768D-04
 Coeff-Com:  0.103D-02 0.211D-02 0.154D-02-0.574D-02-0.227D-01-0.483D-01
 Coeff-Com:  0.273D-02 0.427D+00 0.642D+00
 Coeff:      0.193D-05 0.182D-05-0.669D-04-0.602D-04-0.102D-03 0.768D-04
 Coeff:      0.103D-02 0.211D-02 0.154D-02-0.574D-02-0.227D-01-0.483D-01
 Coeff:      0.273D-02 0.427D+00 0.642D+00
 Gap=     0.137 Goal=   None    Shift=    0.000
 RMSDP=4.62D-09 MaxDP=2.15D-07 DE= 9.09D-12 OVMax= 6.01D-07

 SCF Done:  E(RLC-wHPBE) =  -844.983379379     A.U. after   21 cycles
            NFock= 21  Conv=0.46D-08     -V/T= 2.0046
 KE= 8.410966480855D+02 PE=-4.886433031099D+03 EE= 1.728702851550D+03
 Leave Link  502 at Wed Jan 20 21:14:54 2021, MaxMem=  4026531840 cpu:            3423.6 elap:             429.3
 (Enter /opt/ohpc/pub/libs/gaussian/g16-A.03/sandybridge/g16/l601.exe)
 Copying SCF densities to generalized density rwf, IOpCl= 0 IROHF=0.

 **********************************************************************

            Population analysis using the SCF density.

 **********************************************************************

 Orbital symmetries:
       Occupied  (A) (A) (A) (A) (A) (A) (A) (A) (A) (A) (A) (A)
                 (A) (A) (A) (A) (A) (A) (A) (A) (A) (A) (A) (A)
                 (A) (A) (A) (A) (A) (A) (A) (A) (A) (A) (A) (A)
                 (A) (A) (A) (A) (A) (A) (A) (A) (A) (A) (A) (A)
                 (A) (A) (A) (A) (A) (A) (A) (A) (A) (A) (A) (A)
                 (A) (A) (A) (A) (A) (A) (A) (A) (A) (A) (A) (A)
                 (A) (A)
       Virtual   (A) (A) (A) (A) (A) (A) (A) (A) (A) (A) (A) (A)
                 (A) (A) (A) (A) (A) (A) (A) (A) (A) (A) (A) (A)
                 (A) (A) (A) (A) (A) (A) (A) (A) (A) (A) (A) (A)
                 (A) (A) (A) (A) (A) (A) (A) (A) (A) (A) (A) (A)
                 (A) (A) (A) (A) (A) (A) (A) (A) (A) (A) (A) (A)
                 (A) (A) (A) (A) (A) (A) (A) (A) (A) (A) (A) (A)
                 (A) (A) (A) (A) (A) (A) (A) (A) (A) (A) (A) (A)
                 (A) (A) (A) (A) (A) (A) (A) (A) (A) (A) (A) (A)
                 (A) (A) (A) (A) (A) (A) (A) (A) (A) (A) (A) (A)
                 (A) (A) (A) (A) (A) (A) (A) (A) (A) (A) (A) (A)
                 (A) (A) (A) (A) (A) (A) (A) (A) (A) (A) (A) (A)
                 (A) (A) (A) (A) (A) (A) (A) (A) (A) (A) (A) (A)
                 (A) (A) (A) (A) (A) (A) (A) (A) (A) (A) (A) (A)
                 (A) (A) (A) (A) (A) (A) (A) (A) (A) (A) (A) (A)
                 (A) (A) (A) (A) (A) (A) (A) (A) (A) (A) (A) (A)
                 (A) (A) (A) (A) (A) (A) (A) (A) (A) (A) (A) (A)
                 (A) (A) (A) (A) (A) (A) (A) (A) (A) (A) (A) (A)
                 (A) (A) (A) (A) (A) (A) (A) (A) (A) (A) (A) (A)
                 (A) (A) (A) (A) (A) (A) (A) (A) (A) (A) (A) (A)
                 (A) (A) (A) (A) (A) (A) (A) (A) (A) (A) (A) (A)
                 (A) (A) (A) (A) (A) (A) (A) (A) (A) (A) (A) (A)
                 (A) (A) (A) (A) (A) (A) (A) (A) (A) (A) (A) (A)
                 (A) (A) (A) (A) (A) (A) (A) (A) (A) (A) (A) (A)
                 (A) (A) (A) (A) (A) (A) (A) (A) (A) (A) (A) (A)
                 (A) (A) (A) (A) (A) (A) (A) (A) (A) (A) (A) (A)
                 (A) (A) (A) (A) (A) (A) (A) (A) (A) (A) (A) (A)
                 (A) (A) (A) (A) (A) (A) (A) (A) (A) (A) (A) (A)
                 (A) (A) (A) (A) (A) (A) (A) (A) (A) (A) (A) (A)
                 (A) (A) (A) (A) (A) (A) (A) (A) (A) (A) (A) (A)
                 (A) (A) (A) (A) (A) (A) (A) (A) (A) (A) (A) (A)
                 (A) (A) (A) (A) (A) (A) (A) (A) (A) (A) (A) (A)
                 (A) (A) (A) (A) (A) (A) (A) (A) (A) (A) (A) (A)
                 (A) (A) (A) (A) (A) (A) (A) (A) (A) (A) (A) (A)
                 (A) (A) (A) (A) (A) (A) (A) (A) (A) (A) (A) (A)
                 (A) (A) (A) (A) (A) (A) (A) (A) (A) (A) (A) (A)
                 (A) (A) (A) (A) (A) (A) (A) (A) (A) (A) (A) (A)
                 (A) (A) (A) (A) (A) (A) (A) (A) (A) (A) (A) (A)
                 (A) (A) (A) (A) (A) (A) (A)
 The electronic state is 1-A.
 Alpha  occ. eigenvalues --  -14.21424 -14.19132 -10.19539 -10.18705 -10.15782
 Alpha  occ. eigenvalues --  -10.09716 -10.07779 -10.07420 -10.07229 -10.06750
 Alpha  occ. eigenvalues --  -10.06676 -10.06662 -10.06183 -10.05616 -10.05519
 Alpha  occ. eigenvalues --  -10.03608 -10.01961 -10.01817 -10.01560 -10.01460
 Alpha  occ. eigenvalues --  -10.00533  -1.06281  -1.03070  -1.00181  -0.95502
 Alpha  occ. eigenvalues --   -0.92172  -0.88910  -0.84530  -0.82409  -0.82108
 Alpha  occ. eigenvalues --   -0.81436  -0.80556  -0.80512  -0.77227  -0.75598
 Alpha  occ. eigenvalues --   -0.73379  -0.68464  -0.67503  -0.67045  -0.65867
 Alpha  occ. eigenvalues --   -0.65173  -0.61515  -0.61020  -0.59926  -0.59373
 Alpha  occ. eigenvalues --   -0.59016  -0.58306  -0.57718  -0.56945  -0.55234
 Alpha  occ. eigenvalues --   -0.54229  -0.54033  -0.53439  -0.52847  -0.52721
 Alpha  occ. eigenvalues --   -0.52193  -0.51682  -0.51088  -0.50242  -0.49531
 Alpha  occ. eigenvalues --   -0.49225  -0.48845  -0.48707  -0.47831  -0.46558
 Alpha  occ. eigenvalues --   -0.46352  -0.43808  -0.41864  -0.41045  -0.39413
 Alpha  occ. eigenvalues --   -0.38866  -0.35648  -0.35578  -0.35111
 Alpha virt. eigenvalues --   -0.21379  -0.20167  -0.15547  -0.14176  -0.10578
 Alpha virt. eigenvalues --   -0.10016  -0.08185  -0.05420  -0.04823  -0.04780
 Alpha virt. eigenvalues --   -0.04619  -0.03832  -0.02832  -0.01520  -0.01227
 Alpha virt. eigenvalues --   -0.00968  -0.00869  -0.00149   0.00171   0.00528
 Alpha virt. eigenvalues --    0.01166   0.01573   0.01959   0.02283   0.02605
 Alpha virt. eigenvalues --    0.03054   0.03421   0.03746   0.04069   0.04379
 Alpha virt. eigenvalues --    0.04916   0.05350   0.05649   0.05950   0.06476
 Alpha virt. eigenvalues --    0.06625   0.07555   0.07876   0.08359   0.08967
 Alpha virt. eigenvalues --    0.09579   0.10722   0.10942   0.11428   0.11680
 Alpha virt. eigenvalues --    0.12146   0.12409   0.12752   0.12990   0.13413
 Alpha virt. eigenvalues --    0.14204   0.14861   0.15042   0.15332   0.15934
 Alpha virt. eigenvalues --    0.16203   0.17652   0.18008   0.18049   0.18501
 Alpha virt. eigenvalues --    0.19016   0.19154   0.20049   0.20268   0.20750
 Alpha virt. eigenvalues --    0.21045   0.21232   0.21663   0.22222   0.22580
 Alpha virt. eigenvalues --    0.22688   0.23366   0.23898   0.24084   0.24629
 Alpha virt. eigenvalues --    0.25375   0.26138   0.26511   0.26924   0.27264
 Alpha virt. eigenvalues --    0.27471   0.28146   0.28341   0.28603   0.28664
 Alpha virt. eigenvalues --    0.29394   0.29906   0.30516   0.30790   0.31126
 Alpha virt. eigenvalues --    0.32056   0.32285   0.32891   0.33336   0.33508
 Alpha virt. eigenvalues --    0.33726   0.33991   0.34430   0.34954   0.35020
 Alpha virt. eigenvalues --    0.35327   0.35598   0.36034   0.36334   0.36519
 Alpha virt. eigenvalues --    0.36963   0.37061   0.37544   0.38436   0.38735
 Alpha virt. eigenvalues --    0.38869   0.39398   0.39860   0.40699   0.40897
 Alpha virt. eigenvalues --    0.41212   0.42993   0.43365   0.43754   0.44115
 Alpha virt. eigenvalues --    0.45003   0.45768   0.46159   0.46535   0.47678
 Alpha virt. eigenvalues --    0.48479   0.49300   0.49990   0.50758   0.51494
 Alpha virt. eigenvalues --    0.51751   0.52611   0.53095   0.53719   0.54477
 Alpha virt. eigenvalues --    0.54987   0.56230   0.56353   0.56975   0.57868
 Alpha virt. eigenvalues --    0.58771   0.59297   0.59964   0.60362   0.62321
 Alpha virt. eigenvalues --    0.63000   0.63407   0.65157   0.66995   0.67662
 Alpha virt. eigenvalues --    0.68604   0.70735   0.71829   0.72662   0.74882
 Alpha virt. eigenvalues --    0.75534   0.78267   1.01286   1.01429   1.03403
 Alpha virt. eigenvalues --    1.06603   1.07739   1.08061   1.09609   1.09921
 Alpha virt. eigenvalues --    1.10672   1.11603   1.12372   1.12565   1.13200
 Alpha virt. eigenvalues --    1.13361   1.13792   1.14466   1.14626   1.15365
 Alpha virt. eigenvalues --    1.15915   1.16261   1.16456   1.16942   1.17474
 Alpha virt. eigenvalues --    1.18081   1.18360   1.18707   1.19251   1.19620
 Alpha virt. eigenvalues --    1.19888   1.20303   1.21478   1.21666   1.22133
 Alpha virt. eigenvalues --    1.22646   1.22767   1.22905   1.23633   1.24879
 Alpha virt. eigenvalues --    1.25592   1.25944   1.26878   1.26999   1.28182
 Alpha virt. eigenvalues --    1.28918   1.29135   1.29486   1.30131   1.30394
 Alpha virt. eigenvalues --    1.30901   1.31068   1.32028   1.32767   1.32951
 Alpha virt. eigenvalues --    1.33386   1.33870   1.33977   1.34211   1.34387
 Alpha virt. eigenvalues --    1.34909   1.35420   1.35639   1.36413   1.37392
 Alpha virt. eigenvalues --    1.37468   1.38120   1.38255   1.38635   1.38952
 Alpha virt. eigenvalues --    1.39277   1.39310   1.39547   1.40703   1.41300
 Alpha virt. eigenvalues --    1.42142   1.42687   1.43414   1.43934   1.44688
 Alpha virt. eigenvalues --    1.45297   1.45909   1.46398   1.47549   1.48612
 Alpha virt. eigenvalues --    1.48971   1.49177   1.50091   1.51012   1.51656
 Alpha virt. eigenvalues --    1.52066   1.53961   1.54176   1.56303   1.57533
 Alpha virt. eigenvalues --    1.58108   1.58808   1.59655   1.60167   1.60607
 Alpha virt. eigenvalues --    1.61092   1.61723   1.62052   1.62300   1.62837
 Alpha virt. eigenvalues --    1.63178   1.63984   1.64540   1.65355   1.67197
 Alpha virt. eigenvalues --    1.67485   1.68257   1.68747   1.70008   1.70782
 Alpha virt. eigenvalues --    1.71185   1.71901   1.72184   1.72330   1.73383
 Alpha virt. eigenvalues --    1.73755   1.75145   1.75557   1.76824   1.77152
 Alpha virt. eigenvalues --    1.77690   1.78688   1.78810   1.79047   1.79988
 Alpha virt. eigenvalues --    1.80233   1.80548   1.81927   1.82670   1.83093
 Alpha virt. eigenvalues --    1.83843   1.84419   1.84786   1.86023   1.86747
 Alpha virt. eigenvalues --    1.87664   1.88035   1.89089   1.89828   1.91425
 Alpha virt. eigenvalues --    1.91921   1.92413   1.94708   1.97629   1.98320
[...]
    34  H   -0.000000   0.000010   0.000007  -0.000255  -0.000000  -0.000000
    35  C   -0.000004  -0.002823  -0.000044  -0.013715   0.000011  -0.000000
    36  H    0.000005   0.000069  -0.000035  -0.000188  -0.000003   0.000000
    37  H    0.000196   0.008026  -0.001044  -0.020302  -0.000020   0.000000
    38  H   -0.000004  -0.000115   0.000034   0.000909   0.000000  -0.000000
    39  C   -0.000006  -0.000004   0.000070  -0.002842   0.000000   0.000000
    40  H    0.000000  -0.000002  -0.000002   0.000018  -0.000000   0.000000
    41  H   -0.000000  -0.000014   0.000000   0.000092   0.000000  -0.000000
    42  H   -0.000000   0.000007   0.000010  -0.000252  -0.000000  -0.000000
              19         20         21         22         23         24
     1  C   -0.000002  -0.000006   0.408034  -0.000004   0.000000  -0.000000
     2  C    0.000000   0.000000  -0.054260   0.000001   0.000000   0.000000
     3  C   -0.000011   0.000019  -0.053460   0.000182   0.000016  -0.000003
     4  C   -0.000006  -0.000002   0.013510  -0.000004  -0.000000   0.000000
     5  C   -0.000861  -0.000861   0.016085  -0.005171  -0.000100  -0.000100
     6  C    0.000019  -0.000011   0.000730   0.000182  -0.000003   0.000016
     7  H    0.000000   0.000000  -0.007352  -0.000000  -0.000000  -0.000000
     8  H   -0.000001  -0.000035  -0.006799   0.000030   0.000001   0.000001
     9  H   -0.000000   0.000000  -0.000302  -0.000000   0.000000  -0.000000
    10  H   -0.000035  -0.000001   0.000058   0.000030   0.000001   0.000001
    11  C    0.013104   0.013113  -0.001900  -0.020179  -0.002235  -0.002235
    12  C   -0.011008   0.003472   0.000025   0.041418  -0.010020   0.014658
    13  C    0.003475  -0.011014   0.000042   0.041465   0.014652  -0.010014
    14  C    0.406957   0.002960  -0.000001  -0.082991   0.051775  -0.070484
    15  C    0.002950   0.406963  -0.000005  -0.083053  -0.070490   0.051731
    16  C   -0.102966  -0.102948  -0.000000   0.096410  -0.218855  -0.218825
    17  H   -0.006251   0.000078   0.000001  -0.000220   0.000097   0.000201
    18  H    0.000078  -0.006254   0.000026  -0.000221   0.000201   0.000097
    19  H    0.565540  -0.000315   0.000000  -0.005310   0.004576  -0.000741
    20  H   -0.000315   0.565579  -0.000000  -0.005350  -0.000732   0.004569
    21  H    0.000000  -0.000000   0.563356  -0.000000  -0.000000   0.000000
    22  C   -0.005310  -0.005350  -0.000000   6.778737  -0.016860  -0.016090
    23  C    0.004576  -0.000732  -0.000000  -0.016860   6.071740  -0.203547
    24  C   -0.000741   0.004569   0.000000  -0.016090  -0.203547   6.071130
    25  N    0.000028  -0.000159  -0.000000  -0.140399   0.543427  -0.076480
    26  N   -0.000156   0.000028  -0.000000  -0.140368  -0.076461   0.543285
    27  C    0.000001  -0.001788  -0.000000   0.003838  -0.059004  -0.000097
    28  H    0.000000   0.000213   0.000000   0.005053  -0.000457  -0.001076
    29  H   -0.000031   0.000905  -0.000000   0.013925  -0.020873   0.016220
    30  H    0.000000   0.000257   0.000000  -0.003271   0.006607  -0.001308
    31  C    0.000004   0.000036  -0.000000  -0.011635  -0.066972  -0.007788
    32  H    0.000000   0.000012  -0.000000   0.000931   0.008776  -0.001147
    33  H   -0.000000  -0.000003   0.000000  -0.001997  -0.002391   0.002869
    34  H   -0.000001  -0.000000  -0.000000   0.005969  -0.016089   0.003767
    35  C   -0.001796   0.000001  -0.000000   0.003775  -0.000140  -0.058951
    36  H    0.000213   0.000000   0.000000   0.005037  -0.001067  -0.000386
    37  H    0.000904  -0.000031  -0.000000   0.014014   0.016239  -0.020891
    38  H    0.000257   0.000000   0.000000  -0.003272  -0.001318   0.006525
    39  C    0.000036   0.000004   0.000000  -0.011669  -0.007738  -0.067013
    40  H    0.000012   0.000000   0.000000   0.000923  -0.001135   0.008888
    41  H   -0.000003  -0.000000  -0.000000  -0.001995   0.002886  -0.002521
    42  H   -0.000000  -0.000001  -0.000000   0.005904   0.003662  -0.016111
              25         26         27         28         29         30
     1  C    0.000000  -0.000000   0.000000  -0.000000  -0.000000   0.000000
     2  C    0.000000   0.000000   0.000000   0.000000   0.000000   0.000000
     3  C    0.000000   0.000000   0.000000  -0.000000   0.000005   0.000000
     4  C   -0.000000   0.000000  -0.000000   0.000000   0.000000  -0.000000
     5  C   -0.000001  -0.000001  -0.000003   0.000000  -0.000034   0.000000
     6  C    0.000000   0.000000  -0.000000  -0.000000   0.000000   0.000000
     7  H   -0.000000  -0.000000  -0.000000   0.000000  -0.000000  -0.000000
     8  H   -0.000000   0.000000  -0.000001   0.000000   0.000005   0.000000
     9  H   -0.000000  -0.000000  -0.000000   0.000000  -0.000000   0.000000
    10  H    0.000000  -0.000000  -0.000000   0.000000   0.000000   0.000000
    11  C   -0.000030  -0.000030  -0.000079   0.000005  -0.000123   0.000001
    12  C   -0.000018   0.000174  -0.000004   0.000005   0.000195  -0.000004
    13  C    0.000174  -0.000018   0.000209  -0.000107   0.000522   0.000043
    14  C    0.000178   0.001077  -0.000046  -0.000035  -0.001042   0.000034
    15  C    0.001080   0.000180  -0.002802   0.000070   0.008004  -0.000115
    16  C   -0.016541  -0.016537  -0.013741  -0.000188  -0.020275   0.000907
    17  H    0.000000   0.000003  -0.000000   0.000000   0.000000  -0.000000
    18  H    0.000003   0.000000   0.000011  -0.000003  -0.000020   0.000000
    19  H    0.000028  -0.000156   0.000001   0.000000  -0.000031   0.000000
    20  H   -0.000159   0.000028  -0.001788   0.000213   0.000905   0.000257
    21  H   -0.000000  -0.000000  -0.000000   0.000000  -0.000000   0.000000
    22  C   -0.140399  -0.140368   0.003838   0.005053   0.013925  -0.003271
    23  C    0.543427  -0.076461  -0.059004  -0.000457  -0.020873   0.006607
    24  C   -0.076480   0.543285  -0.000097  -0.001076   0.016220  -0.001308
    25  N    6.402503  -0.001618   0.233401  -0.036762  -0.022410  -0.040898
    26  N   -0.001618   6.402681  -0.000706   0.000003   0.000081  -0.000004
    27  C    0.233401  -0.000706   4.973901   0.402239   0.385490   0.404460
    28  H   -0.036762   0.000003   0.402239   0.511690  -0.017728  -0.032837
    29  H   -0.022410   0.000081   0.385490  -0.017728   0.513181  -0.021850
    30  H   -0.040898  -0.000004   0.404460  -0.032837  -0.021850   0.514811
    31  C    0.251093   0.000878  -0.066827  -0.009452   0.009153   0.000954
    32  H   -0.038462  -0.000038  -0.001755   0.007096   0.000464  -0.003622
    33  H   -0.040466  -0.000098  -0.005785  -0.001510  -0.000274   0.006139
    34  H   -0.025810  -0.001913   0.010196  -0.000001  -0.000566   0.000084
    35  C   -0.000706   0.233367   0.000038  -0.000002   0.000002  -0.000001
    36  H    0.000003  -0.036733  -0.000002  -0.000000  -0.000000   0.000000
    37  H    0.000081  -0.022466   0.000002  -0.000000   0.000002   0.000000
    38  H   -0.000004  -0.040929  -0.000001   0.000000   0.000000  -0.000000
    39  C    0.000878   0.250979  -0.000170   0.000006   0.000031  -0.000006
    40  H   -0.000038  -0.038349   0.000002  -0.000000  -0.000001   0.000000
    41  H   -0.000099  -0.040533   0.000006   0.000001   0.000000  -0.000001
    42  H   -0.001894  -0.025720   0.000047  -0.000002   0.000000   0.000002
              31         32         33         34         35         36
     1  C    0.000000  -0.000000   0.000000  -0.000000  -0.000000   0.000000
     2  C    0.000000  -0.000000   0.000000   0.000000   0.000000   0.000000
     3  C    0.000000  -0.000000  -0.000000  -0.000000  -0.000000  -0.000000
     4  C   -0.000000   0.000000  -0.000000   0.000000   0.000000  -0.000000
     5  C   -0.000000   0.000000   0.000000  -0.000000  -0.000003   0.000000
     6  C   -0.000000   0.000000  -0.000000   0.000000   0.000000  -0.000000
     7  H   -0.000000  -0.000000   0.000000   0.000000  -0.000000   0.000000
     8  H    0.000000   0.000000  -0.000000  -0.000000  -0.000000   0.000000
     9  H    0.000000   0.000000  -0.000000  -0.000000  -0.000000   0.000000
    10  H    0.000000  -0.000000   0.000000  -0.000000  -0.000001   0.000000
    11  C   -0.000002   0.000000  -0.000000   0.000000  -0.000080   0.000005
    12  C   -0.000006   0.000000  -0.000000  -0.000000   0.000210  -0.000106
    13  C    0.000021  -0.000002   0.000001  -0.000000  -0.000004   0.000005
    14  C    0.000069  -0.000002   0.000000   0.000010  -0.002823   0.000069
    15  C   -0.000003  -0.000002  -0.000014   0.000007  -0.000044  -0.000035
    16  C   -0.002841   0.000018   0.000092  -0.000255  -0.013715  -0.000188
    17  H    0.000000   0.000000  -0.000000  -0.000000   0.000011  -0.000003
    18  H    0.000000  -0.000000   0.000000  -0.000000  -0.000000   0.000000
    19  H    0.000004   0.000000  -0.000000  -0.000001  -0.001796   0.000213
    20  H    0.000036   0.000012  -0.000003  -0.000000   0.000001   0.000000
    21  H   -0.000000  -0.000000   0.000000  -0.000000  -0.000000   0.000000
    22  C   -0.011635   0.000931  -0.001997   0.005969   0.003775   0.005037
    23  C   -0.066972   0.008776  -0.002391  -0.016089  -0.000140  -0.001067
    24  C   -0.007788  -0.001147   0.002869   0.003767  -0.058951  -0.000386
    25  N    0.251093  -0.038462  -0.040466  -0.025810  -0.000706   0.000003
    26  N    0.000878  -0.000038  -0.000098  -0.001913   0.233367  -0.036733
    27  C   -0.066827  -0.001755  -0.005785   0.010196   0.000038  -0.000002
    28  H   -0.009452   0.007096  -0.001510  -0.000001  -0.000002  -0.000000
    29  H    0.009153   0.000464  -0.000274  -0.000566   0.000002  -0.000000
    30  H    0.000954  -0.003622   0.006139   0.000084  -0.000001   0.000000
    31  C    4.974634   0.395188   0.412034   0.389700  -0.000173   0.000006
    32  H    0.395188   0.512989  -0.031474  -0.020180   0.000002  -0.000000
    33  H    0.412034  -0.031474   0.508777  -0.024551   0.000006   0.000001
    34  H    0.389700  -0.020180  -0.024551   0.531587   0.000049  -0.000002
    35  C   -0.000173   0.000002   0.000006   0.000049   4.973941   0.402184
    36  H    0.000006  -0.000000   0.000001  -0.000002   0.402184   0.511596
    37  H    0.000031  -0.000001   0.000000   0.000000   0.385460  -0.017692
    38  H   -0.000006   0.000000  -0.000001   0.000002   0.404561  -0.032815
    39  C   -0.003039   0.000222  -0.000187  -0.001632  -0.066661  -0.009517
    40  H    0.000223  -0.000009   0.000023   0.000250  -0.001762   0.007074
    41  H   -0.000190   0.000024  -0.000042  -0.000104  -0.005755  -0.001494
    42  H   -0.001735   0.000249  -0.000093   0.003535   0.010170   0.000004
              37         38         39         40         41         42
     1  C    0.000000  -0.000000  -0.000000   0.000000  -0.000000   0.000000
     2  C    0.000000   0.000000   0.000000  -0.000000   0.000000   0.000000
     3  C    0.000000   0.000000  -0.000000   0.000000  -0.000000   0.000000
     4  C   -0.000000   0.000000   0.000000  -0.000000   0.000000  -0.000000
     5  C   -0.000034   0.000000  -0.000000   0.000000   0.000000  -0.000000
     6  C    0.000005   0.000000   0.000000  -0.000000  -0.000000  -0.000000
     7  H   -0.000000  -0.000000  -0.000000  -0.000000   0.000000   0.000000
     8  H    0.000000   0.000000   0.000000  -0.000000   0.000000  -0.000000
     9  H   -0.000000   0.000000  -0.000000  -0.000000   0.000000  -0.000000
    10  H    0.000005   0.000000   0.000000   0.000000  -0.000000  -0.000000
    11  C   -0.000124   0.000001  -0.000002   0.000000  -0.000000   0.000000
    12  C    0.000519   0.000044   0.000022  -0.000002   0.000001  -0.000000
    13  C    0.000196  -0.000004  -0.000006   0.000000  -0.000000  -0.000000
    14  C    0.008026  -0.000115  -0.000004  -0.000002  -0.000014   0.000007
    15  C   -0.001044   0.000034   0.000070  -0.000002   0.000000   0.000010
    16  C   -0.020302   0.000909  -0.002842   0.000018   0.000092  -0.000252
    17  H   -0.000020   0.000000   0.000000  -0.000000   0.000000  -0.000000
    18  H    0.000000  -0.000000   0.000000   0.000000  -0.000000  -0.000000
    19  H    0.000904   0.000257   0.000036   0.000012  -0.000003  -0.000000
    20  H   -0.000031   0.000000   0.000004   0.000000  -0.000000  -0.000001
    21  H   -0.000000   0.000000   0.000000   0.000000  -0.000000  -0.000000
    22  C    0.014014  -0.003272  -0.011669   0.000923  -0.001995   0.005904
    23  C    0.016239  -0.001318  -0.007738  -0.001135   0.002886   0.003662
    24  C   -0.020891   0.006525  -0.067013   0.008888  -0.002521  -0.016111
    25  N    0.000081  -0.000004   0.000878  -0.000038  -0.000099  -0.001894
    26  N   -0.022466  -0.040929   0.250979  -0.038349  -0.040533  -0.025720
    27  C    0.000002  -0.000001  -0.000170   0.000002   0.000006   0.000047
    28  H   -0.000000   0.000000   0.000006  -0.000000   0.000001  -0.000002
    29  H    0.000002   0.000000   0.000031  -0.000001   0.000000   0.000000
    30  H    0.000000  -0.000000  -0.000006   0.000000  -0.000001   0.000002
    31  C    0.000031  -0.000006  -0.003039   0.000223  -0.000190  -0.001735
    32  H   -0.000001   0.000000   0.000222  -0.000009   0.000024   0.000249
    33  H    0.000000  -0.000001  -0.000187   0.000023  -0.000042  -0.000093
    34  H    0.000000   0.000002  -0.001632   0.000250  -0.000104   0.003535
    35  C    0.385460   0.404561  -0.066661  -0.001762  -0.005755   0.010170
    36  H   -0.017692  -0.032815  -0.009517   0.007074  -0.001494   0.000004
    37  H    0.513287  -0.021901   0.009139   0.000473  -0.000279  -0.000565
    38  H   -0.021901   0.514761   0.001032  -0.003636   0.006100   0.000081
    39  C    0.009139   0.001032   4.975016   0.394955   0.412186   0.389911
    40  H    0.000473  -0.003636   0.394955   0.512858  -0.031380  -0.020154
    41  H   -0.000279   0.006100   0.412186  -0.031380   0.508700  -0.024675
    42  H   -0.000565   0.000081   0.389911  -0.020154  -0.024675   0.531367
 Mulliken charges:
               1
     1  C   -0.088266
     2  C   -0.109104
     3  C   -0.109470
     4  C   -0.088264
     5  C   -0.016166
     6  C   -0.109472
     7  H    0.128368
     8  H    0.132997
     9  H    0.122212
    10  H    0.132997
    11  C    0.027732
    12  C   -0.150681
    13  C   -0.150681
    14  C   -0.100522
    15  C   -0.100547
    16  C    0.195734
    17  H    0.149689
    18  H    0.149682
    19  H    0.131339
    20  H    0.131300
    21  H    0.122212
    22  C   -0.467763
    23  C    0.051828
    24  C    0.051850
    25  N    0.009944
    26  N    0.009939
    27  C   -0.261028
    28  H    0.173779
    29  H    0.157039
    30  H    0.169616
    31  C   -0.263356
    32  H    0.170723
    33  H    0.178943
    34  H    0.145948
    35  C   -0.261161
    36  H    0.173842
    37  H    0.156963
    38  H    0.169694
    39  C   -0.264001
    40  H    0.170771
    41  H    0.179088
    42  H    0.146254
 Sum of Mulliken charges =   1.00000
 Mulliken charges with hydrogens summed into heavy atoms:
               1
     1  C    0.033946
     2  C    0.019264
     3  C    0.023527
     4  C    0.033948
     5  C   -0.016166
     6  C    0.023525
    11  C    0.027732
    12  C   -0.000992
    13  C   -0.000999
    14  C    0.030817
    15  C    0.030753
    16  C    0.195734
    22  C   -0.467763
    23  C    0.051828
    24  C    0.051850
    25  N    0.009944
    26  N    0.009939
    27  C    0.239405
    31  C    0.232257
    35  C    0.239339
    39  C    0.232112
 Electronic spatial extent (au):  <R**2>=           9904.7160
 Charge=              1.0000 electrons
 Dipole moment (field-independent basis, Debye):
    X=            -11.2530    Y=              0.0004    Z=             -0.0017  Tot=             11.2530
 Quadrupole moment (field-independent basis, Debye-Ang):
   XX=            -22.5374   YY=            -84.9544   ZZ=           -126.3585
   XY=             -0.0016   XZ=              0.0058   YZ=              0.2567
 Traceless Quadrupole moment (field-independent basis, Debye-Ang):
   XX=             55.4127   YY=             -7.0043   ZZ=            -48.4084
   XY=             -0.0016   XZ=              0.0058   YZ=              0.2567
 Octapole moment (field-independent basis, Debye-Ang**2):
  XXX=           -182.6564  YYY=              0.0203  ZZZ=             -0.0145  XYY=            -91.6670
  XXY=              0.0069  XXZ=             -0.0352  XZZ=            -35.9739  YZZ=             -0.0061
  YYZ=              0.0022  XYZ=             -6.2404
 Hexadecapole moment (field-independent basis, Debye-Ang**3):
 XXXX=          -7948.1609 YYYY=          -1735.6800 ZZZZ=           -226.5673 XXXY=             -0.0641
 XXXZ=             -0.0030 YYYX=             -0.0935 YYYZ=              0.3069 ZZZX=              0.0805
 ZZZY=             -0.9324 XXYY=          -1643.1814 XXZZ=          -1991.8811 YYZZ=           -358.8126
 XXYZ=            -58.1686 YYXZ=             -0.0394 ZZXY=              0.0554
 N-N= 1.487460180802D+03 E-N=-4.918641189591D+03  KE= 8.411132788065D+02
 No NMR shielding tensors so no spin-rotation constants.
 Leave Link  601 at Thu Jan 21 00:04:21 2021, MaxMem=  4026531840 cpu:               2.3 elap:               0.3
 (Enter /opt/ohpc/pub/libs/gaussian/g16-A.03/sandybridge/g16/l9999.exe)

 Test job not archived.
 1\1\GINC-CASCADEB025\FOpt\RLC-wHPBE\TZVP\C19H21N2(1+)\RDU230\21-Jan-20
 21\0\\#P LC-wHPBE/TZVP iop(3/107=0069400000, 3/108=0069400000) opt\\H2
 1 C19 N2\\1,1\C,-2.4894688478,1.6663845441,-2.0793337322\C,-3.26042837
 86,0.5198604517,-2.2891988364\C,-1.3267052433,1.5982889536,-1.31347289
 34\C,-2.8641004623,-0.6953136659,-1.7241971007\C,-0.918196348,0.382121
 9037,-0.7343811172\C,-1.7068840032,-0.7636447476,-0.9500081912\H,-4.16
 82400612,0.5732423614,-2.8918071264\H,-0.7481146288,2.5064107837,-1.13
 37691238\H,-3.4563192969,-1.5958845983,-1.8932654619\H,-1.3929025543,-
 1.7242478999,-0.537210725\C,0.3110596716,0.3098321967,0.0816350439\C,0
 .3917008025,-0.5397410299,1.2045028654\C,1.4435858108,1.0880740429,-0.
 2358775623\C,1.5465904054,-0.615078357,1.9706412044\C,2.5986336385,1.0
 27556469,0.5313464816\C,2.673227786,0.1708919283,1.6496612239\H,-0.480
 4049628,-1.1271550151,1.4943307701\H,1.4221755978,1.7280824957,-1.1188
 017267\H,1.5632268313,-1.2572216503,2.8527806743\H,3.4682996482,1.6176
 30828,0.237593186\H,-2.7995290955,2.6200092294,-2.5092125013\C,3.86981
 41019,0.1004683326,2.4439770129\C,5.0640026145,0.6731677354,2.86894620
 28\C,4.6734820304,-0.5902659066,3.3449063085\N,5.9144755647,1.68234252
 17,2.8426046309\N,4.8943172137,-1.6625533611,4.0823896945\C,5.58534883
 37,2.9313409225,2.1481246803\H,6.2885611263,3.1037264554,1.3202314408\
 H,4.5639820833,2.8823704119,1.7587584113\H,5.6513534293,3.7731795097,2
 .8525223683\C,7.201434776,1.647349544,3.5402682858\H,7.9884895969,2.01
 0236401,2.8646600851\H,7.1793170115,2.2891574184,4.4340645416\H,7.4464
 186094,0.6209048331,3.8298982849\C,4.0277764016,-2.8414252138,3.982155
 8761\H,3.5240113775,-3.0267016666,4.9421007581\H,3.2800672339,-2.68779
 31845,3.1982367535\H,4.6322694105,-3.7222245718,3.7213521328\C,6.03491
 71658,-1.7709075005,4.9943014258\H,5.6888888186,-2.1657090817,5.959659
 1471\H,6.7981330068,-2.4514828978,4.5873187884\H,6.4755412846,-0.78424
 29254,5.1671808191\\Version=EM64L-G16RevA.03\State=1-A\HF=-845.2168091
 \RMSD=3.197e-09\RMSF=3.780e-06\Dipole=3.6845586,-0.2173095,2.4449082\Q
 uadrupole=19.8498619,-10.95199,-8.8978719,4.5465675,32.5705625,-11.480
 8747\PG=C01 [X(C19H21N2)]\\@


 AS FAR AS THE LAWS OF MATHEMATICS REFER TO REALITY,
 THEY ARE NOT CERTAIN; AND AS FAR AS THEY ARE CERTAIN,
 THEY DO NOT REFER TO REALITY.

                                         -- ALBERT EINSTEIN
 Job cpu time:       0 days 23 hours 28 minutes  1.0 seconds.
 Elapsed time:       0 days  2 hours 56 minutes 42.5 seconds.
 File lengths (MBytes):  RWF=    232 Int=      0 D2E=      0 Chk=     28 Scr=      8
 Normal termination of Gaussian 16 at Thu Jan 21 00:04:22 2021.
