 Entering Gaussian System, Link 0=g16
 Input=mol_bp_ma_half_tune_c9.gjf
 Output=mol_bp_ma_half_tune_c9.log
 Initial command:
 /opt/ohpc/pub/libs/gaussian/g16-A.03/sandybridge/g16/l1.exe "/mnt/gpfs2_4m/scratch/rdu230/ondemand/projects/init_structures/wtuning/mol_bp_ma_half/tuning_mol_bp_ma_half_ocycle0/Gau-89219.inp" -scrdir="/mnt/gpfs2_4m/scratch/rdu230/ondemand/projects/init_structures/wtuning/mol_bp_ma_half/tuning_mol_bp_ma_half_ocycle0/"
 Entering Link 1 = /opt/ohpc/pub/libs/gaussian/g16-A.03/sandybridge/g16/l1.exe PID=     89220.
  
 Copyright (c) 1988,1990,1992,1993,1995,1998,2003,2009,2016,
            Gaussian, Inc.  All Rights Reserved.
  
 This is part of the Gaussian(R) 16 program.  It is based on
 the Gaussian(R) 09 system (copyright 2009, Gaussian, Inc.),
 the Gaussian(R) 03 system (copyright 2003, Gaussian, Inc.),
 the Gaussian(R) 98 system (copyright 1998, Gaussian, Inc.),
 the Gaussian(R) 94 system (copyright 1995, Gaussian, Inc.),
 the Gaussian 92(TM) system (copyright 1992, Gaussian, Inc.),
 the Gaussian 90(TM) system (copyright 1990, Gaussian, Inc.),
 the Gaussian 88(TM) system (copyright 1988, Gaussian, Inc.),
 the Gaussian 86(TM) system (copyright 1986, Carnegie Mellon
 University), and the Gaussian 82(TM) system (copyright 1983,
 Carnegie Mellon University). Gaussian is a federally registered
 trademark of Gaussian, Inc.
  
 This software contains proprietary and confidential information,
 including trade secrets, belonging to Gaussian, Inc.
  
 This software is provided under written license and may be
 used, copied, transmitted, or stored only in accord with that
 written license.
  
 The following legend is applicable only to US Government
 contracts under FAR:
  
                    RESTRICTED RIGHTS LEGEND
  
 Use, reproduction and disclosure by the US Government is
 subject to restrictions as set forth in subparagraphs (a)
 and (c) of the Commercial Computer Software - Restricted
 Rights clause in FAR 52.227-19.
  
 Gaussian, Inc.
 340 Quinnipiac St., Bldg. 40, Wallingford CT 06492
  
  
 ---------------------------------------------------------------
 Warning -- This program may not be used in any manner that
 competes with the business of Gaussian, Inc. or will provide
 assistance to any competitor of Gaussian, Inc.  The licensee
 of this program is prohibited from giving any competitor of
 Gaussian, Inc. access to this program.  By using this program,
 the user acknowledges that Gaussian, Inc. is engaged in the
 business of creating and licensing software in the field of
 computational chemistry and represents and warrants to the
 licensee that it is not a competitor of Gaussian, Inc. and that
 it will not use this program in any manner prohibited above.
 ---------------------------------------------------------------
  

 Cite this work as:
 Gaussian 16, Revision A.03,
 M. J. Frisch, G. W. Trucks, H. B. Schlegel, G. E. Scuseria, 
 M. A. Robb, J. R. Cheeseman, G. Scalmani, V. Barone, 
 G. A. Petersson, H. Nakatsuji, X. Li, M. Caricato, A. V. Marenich, 
 J. Bloino, B. G. Janesko, R. Gomperts, B. Mennucci, H. P. Hratchian, 
 J. V. Ortiz, A. F. Izmaylov, J. L. Sonnenberg, D. Williams-Young, 
 F. Ding, F. Lipparini, F. Egidi, J. Goings, B. Peng, A. Petrone, 
 T. Henderson, D. Ranasinghe, V. G. Zakrzewski, J. Gao, N. Rega, 
 G. Zheng, W. Liang, M. Hada, M. Ehara, K. Toyota, R. Fukuda, 
 J. Hasegawa, M. Ishida, T. Nakajima, Y. Honda, O. Kitao, H. Nakai, 
 T. Vreven, K. Throssell, J. A. Montgomery, Jr., J. E. Peralta, 
 F. Ogliaro, M. J. Bearpark, J. J. Heyd, E. N. Brothers, K. N. Kudin, 
 V. N. Staroverov, T. A. Keith, R. Kobayashi, J. Normand, 
 K. Raghavachari, A. P. Rendell, J. C. Burant, S. S. Iyengar, 
 J. Tomasi, M. Cossi, J. M. Millam, M. Klene, C. Adamo, R. Cammi, 
 J. W. Ochterski, R. L. Martin, K. Morokuma, O. Farkas, 
 J. B. Foresman, and D. J. Fox, Gaussian, Inc., Wallingford CT, 2016.
 
 ******************************************
 Gaussian 16:  EM64L-G16RevA.03 25-Dec-2016
                17-Jan-2021 
 ******************************************
 %mem=30GB
 %nproc=8
 Will use up to    8 processors via shared memory.
 ----------------------------------------------------------------------
 #P LC-wHPBE/TZVP iop(3/107=0182900000, 3/108=0182900000) scf=(conver=6
 ,fermi,ndamp=35,noincfock,novaracc,vshift=500,xqc)
 ----------------------------------------------------------------------
 1/38=1,172=1/1;
 2/12=2,17=6,18=5,40=1/2;
 3/5=19,7=101,11=2,25=1,30=1,74=-71,107=182900000,108=182900000/1,2,3;
 4//1;
 5/5=100002,6=6,8=3,10=500,13=1,18=-1,22=13,38=1,93=35/2,8;
 6/7=2,8=2,9=2,10=2,28=1/1;
 99/5=1,9=1/99;
 Leave Link    1 at Sun Jan 17 22:58:16 2021, MaxMem=  4026531840 cpu:               1.2 elap:               0.2
 (Enter /opt/ohpc/pub/libs/gaussian/g16-A.03/sandybridge/g16/l101.exe)
 -------------
 H19 C24 N1 O2
 -------------
 Symbolic Z-matrix:
 Charge =  1 Multiplicity = 2
 C                    -6.53811  -0.21734   1.25551 
 C                    -7.25866   0.08729   0.10788 
 C                    -5.15139  -0.25905   1.21922 
 C                    -6.5807    0.34869  -1.07578 
 C                    -4.458     0.00066   0.03573 
 C                    -5.194     0.30457  -1.11091 
 H                    -8.34564   0.12102   0.13596 
 H                    -4.59391  -0.47628   2.12835 
 H                    -7.13614   0.58116  -1.98219 
 H                    -4.67151   0.48876  -2.0477 
 C                    -2.97448  -0.04496  -0.00277 
 C                    -2.24032   0.91837  -0.6946 
 C                    -2.26558  -1.0513    0.65461 
 C                    -0.85628   0.87593  -0.73981 
 C                    -0.88157  -1.09437   0.62889 
 C                    -0.15564  -0.13324  -0.0774 
 H                    -2.76203   1.72742  -1.20229 
 H                    -2.80904  -1.82389   1.19526 
 H                    -0.30638   1.63919  -1.28492 
 H                    -0.35263  -1.88507   1.15502 
 H                    -7.05947  -0.41619   2.18974 
 N                     1.25703  -0.16083  -0.10381 
 C                     1.9654   -1.37789  -0.17457 
 C                     3.19     -1.50855   0.47802 
 C                     1.4615   -2.45601  -0.91209 
 C                     3.90305  -2.69689   0.39022 
 C                     2.17862  -3.63831  -0.97461 
 C                     3.40295  -3.77506  -0.33284 
 H                     3.60076  -0.69016   1.06207 
 H                     0.51484  -2.3581   -1.43523 
 H                     1.78281  -4.47165  -1.55144 
 H                     3.96392  -4.70643  -0.39806 
 C                     1.97286   1.06837  -0.04581 
 C                     2.97148   1.35095  -0.97234 
 C                     1.68309   2.0122    0.93926 
 C                     3.67678   2.54399  -0.91012 
 C                     2.36561   3.215     0.99216 
 C                     3.37144   3.4833    0.06927 
 H                     3.20527   0.62157  -1.74439 
 H                     0.90427   1.79831   1.66775 
 H                     4.46088   2.7476   -1.6392 
 H                     2.1399    3.9546    1.756 
 O                     4.02299   4.68033   0.17324 
 H                     4.69529   4.73835  -0.51784 
 O                     5.09721  -2.75171   1.05375 
 H                     5.47965  -3.63149   0.94109 
 
 ITRead=  0  0  0  0  0  0  0  0  0  0  0  0  0  0  0  0  0  0  0  0
 ITRead=  0  0  0  0  0  0  0  0  0  0  0  0  0  0  0  0  0  0  0  0
 ITRead=  0  0  0  0  0  0
 MicOpt= -1 -1 -1 -1 -1 -1 -1 -1 -1 -1 -1 -1 -1 -1 -1 -1 -1 -1 -1 -1
 MicOpt= -1 -1 -1 -1 -1 -1 -1 -1 -1 -1 -1 -1 -1 -1 -1 -1 -1 -1 -1 -1
 MicOpt= -1 -1 -1 -1 -1 -1
 NAtoms=     46 NQM=       46 NQMF=       0 NMMI=      0 NMMIF=      0
                NMic=       0 NMicF=      0.
                    Isotopes and Nuclear Properties:
 (Nuclear quadrupole moments (NQMom) in fm**2, nuclear magnetic moments (NMagM)
  in nuclear magnetons)

  Atom         1           2           3           4           5           6           7           8           9          10
 IAtWgt=          12          12          12          12          12          12           1           1           1           1
 AtmWgt=  12.0000000  12.0000000  12.0000000  12.0000000  12.0000000  12.0000000   1.0078250   1.0078250   1.0078250   1.0078250
 NucSpn=           0           0           0           0           0           0           1           1           1           1
 AtZEff=  -0.0000000  -0.0000000  -0.0000000  -0.0000000  -0.0000000  -0.0000000  -0.0000000  -0.0000000  -0.0000000  -0.0000000
 NQMom=    0.0000000   0.0000000   0.0000000   0.0000000   0.0000000   0.0000000   0.0000000   0.0000000   0.0000000   0.0000000
 NMagM=    0.0000000   0.0000000   0.0000000   0.0000000   0.0000000   0.0000000   2.7928460   2.7928460   2.7928460   2.7928460
 AtZNuc=   6.0000000   6.0000000   6.0000000   6.0000000   6.0000000   6.0000000   1.0000000   1.0000000   1.0000000   1.0000000

  Atom        11          12          13          14          15          16          17          18          19          20
 IAtWgt=          12          12          12          12          12          12           1           1           1           1
 AtmWgt=  12.0000000  12.0000000  12.0000000  12.0000000  12.0000000  12.0000000   1.0078250   1.0078250   1.0078250   1.0078250
 NucSpn=           0           0           0           0           0           0           1           1           1           1
 AtZEff=  -0.0000000  -0.0000000  -0.0000000  -0.0000000  -0.0000000  -0.0000000  -0.0000000  -0.0000000  -0.0000000  -0.0000000
 NQMom=    0.0000000   0.0000000   0.0000000   0.0000000   0.0000000   0.0000000   0.0000000   0.0000000   0.0000000   0.0000000
 NMagM=    0.0000000   0.0000000   0.0000000   0.0000000   0.0000000   0.0000000   2.7928460   2.7928460   2.7928460   2.7928460
 AtZNuc=   6.0000000   6.0000000   6.0000000   6.0000000   6.0000000   6.0000000   1.0000000   1.0000000   1.0000000   1.0000000

  Atom        21          22          23          24          25          26          27          28          29          30
 IAtWgt=           1          14          12          12          12          12          12          12           1           1
 AtmWgt=   1.0078250  14.0030740  12.0000000  12.0000000  12.0000000  12.0000000  12.0000000  12.0000000   1.0078250   1.0078250
 NucSpn=           1           2           0           0           0           0           0           0           1           1
 AtZEff=  -0.0000000  -0.0000000  -0.0000000  -0.0000000  -0.0000000  -0.0000000  -0.0000000  -0.0000000  -0.0000000  -0.0000000
 NQMom=    0.0000000   2.0440000   0.0000000   0.0000000   0.0000000   0.0000000   0.0000000   0.0000000   0.0000000   0.0000000
 NMagM=    2.7928460   0.4037610   0.0000000   0.0000000   0.0000000   0.0000000   0.0000000   0.0000000   2.7928460   2.7928460
 AtZNuc=   1.0000000   7.0000000   6.0000000   6.0000000   6.0000000   6.0000000   6.0000000   6.0000000   1.0000000   1.0000000

  Atom        31          32          33          34          35          36          37          38          39          40
 IAtWgt=           1           1          12          12          12          12          12          12           1           1
 AtmWgt=   1.0078250   1.0078250  12.0000000  12.0000000  12.0000000  12.0000000  12.0000000  12.0000000   1.0078250   1.0078250
 NucSpn=           1           1           0           0           0           0           0           0           1           1
 AtZEff=  -0.0000000  -0.0000000  -0.0000000  -0.0000000  -0.0000000  -0.0000000  -0.0000000  -0.0000000  -0.0000000  -0.0000000
 NQMom=    0.0000000   0.0000000   0.0000000   0.0000000   0.0000000   0.0000000   0.0000000   0.0000000   0.0000000   0.0000000
 NMagM=    2.7928460   2.7928460   0.0000000   0.0000000   0.0000000   0.0000000   0.0000000   0.0000000   2.7928460   2.7928460
 AtZNuc=   1.0000000   1.0000000   6.0000000   6.0000000   6.0000000   6.0000000   6.0000000   6.0000000   1.0000000   1.0000000

  Atom        41          42          43          44          45          46
 IAtWgt=           1           1          16           1          16           1
 AtmWgt=   1.0078250   1.0078250  15.9949146   1.0078250  15.9949146   1.0078250
 NucSpn=           1           1           0           1           0           1
 AtZEff=  -0.0000000  -0.0000000  -0.0000000  -0.0000000  -0.0000000  -0.0000000
 NQMom=    0.0000000   0.0000000   0.0000000   0.0000000   0.0000000   0.0000000
 NMagM=    2.7928460   2.7928460   0.0000000   2.7928460   0.0000000   2.7928460
 AtZNuc=   1.0000000   1.0000000   8.0000000   1.0000000   8.0000000   1.0000000
 Leave Link  101 at Sun Jan 17 22:58:16 2021, MaxMem=  4026531840 cpu:               0.6 elap:               0.1
 (Enter /opt/ohpc/pub/libs/gaussian/g16-A.03/sandybridge/g16/l202.exe)
                          Input orientation:                          
 ---------------------------------------------------------------------
 Center     Atomic      Atomic             Coordinates (Angstroms)
 Number     Number       Type             X           Y           Z
 ---------------------------------------------------------------------
      1          6           0       -6.538108   -0.217341    1.255514
      2          6           0       -7.258661    0.087287    0.107878
      3          6           0       -5.151390   -0.259049    1.219222
      4          6           0       -6.580697    0.348691   -1.075777
      5          6           0       -4.458004    0.000662    0.035726
      6          6           0       -5.193998    0.304569   -1.110911
      7          1           0       -8.345644    0.121015    0.135956
      8          1           0       -4.593910   -0.476283    2.128350
      9          1           0       -7.136138    0.581164   -1.982188
     10          1           0       -4.671509    0.488761   -2.047704
     11          6           0       -2.974479   -0.044963   -0.002770
     12          6           0       -2.240322    0.918366   -0.694597
     13          6           0       -2.265576   -1.051297    0.654611
     14          6           0       -0.856277    0.875925   -0.739808
     15          6           0       -0.881570   -1.094369    0.628888
     16          6           0       -0.155643   -0.133238   -0.077397
     17          1           0       -2.762026    1.727417   -1.202285
     18          1           0       -2.809037   -1.823891    1.195264
     19          1           0       -0.306381    1.639189   -1.284917
     20          1           0       -0.352632   -1.885069    1.155020
     21          1           0       -7.059465   -0.416189    2.189743
     22          7           0        1.257026   -0.160831   -0.103806
     23          6           0        1.965402   -1.377887   -0.174570
     24          6           0        3.190004   -1.508547    0.478017
     25          6           0        1.461496   -2.456008   -0.912094
     26          6           0        3.903051   -2.696891    0.390217
     27          6           0        2.178621   -3.638306   -0.974610
     28          6           0        3.402953   -3.775056   -0.332839
     29          1           0        3.600761   -0.690157    1.062074
     30          1           0        0.514840   -2.358097   -1.435231
     31          1           0        1.782807   -4.471654   -1.551437
     32          1           0        3.963923   -4.706428   -0.398055
     33          6           0        1.972861    1.068372   -0.045814
     34          6           0        2.971482    1.350948   -0.972341
     35          6           0        1.683086    2.012203    0.939258
     36          6           0        3.676780    2.543988   -0.910119
     37          6           0        2.365608    3.214996    0.992156
     38          6           0        3.371443    3.483300    0.069272
     39          1           0        3.205268    0.621566   -1.744392
     40          1           0        0.904271    1.798314    1.667748
     41          1           0        4.460878    2.747602   -1.639197
     42          1           0        2.139895    3.954598    1.756001
     43          8           0        4.022986    4.680331    0.173244
     44          1           0        4.695287    4.738350   -0.517835
     45          8           0        5.097214   -2.751708    1.053752
     46          1           0        5.479651   -3.631493    0.941087
 ---------------------------------------------------------------------
                    Distance matrix (angstroms):
                    1          2          3          4          5
     1  C    0.000000
     2  C    1.388907   0.000000
     3  C    1.387820   2.407410   0.000000
     4  C    2.399401   1.388887   2.771153   0.000000
     5  C    2.421206   2.802925   1.396029   2.421237   0.000000
     6  C    2.771099   2.407383   2.397707   1.387846   1.396003
     7  H    2.152924   1.087869   3.394285   2.152945   3.890794
     8  H    2.146811   3.391285   1.088342   3.859318   2.150586
     9  H    3.387914   2.151117   3.859302   1.088182   3.403140
    10  H    3.859277   3.391323   3.385604   2.146919   2.150466
    11  C    3.783179   4.287651   2.505601   3.783004   1.484726
    12  C    4.854248   5.149600   3.677408   4.394165   2.508718
    13  C    4.394439   5.150358   3.045384   4.855356   2.509258
    14  C    6.120437   6.506231   4.855302   5.758458   3.786816
    15  C    5.758321   6.506539   4.390628   6.121140   3.787059
    16  C    6.520704   7.108855   5.162803   6.519995   4.305930
    17  H    4.907306   4.962487   3.939391   4.061913   2.718583
    18  H    4.060862   4.963282   2.817077   4.909497   2.718936
    19  H    6.981040   7.258269   5.774784   6.409069   4.654551
    20  H    6.407147   7.258094   5.067163   6.982473   4.654340
    21  H    1.088181   2.151123   2.146475   3.387902   3.403109
    22  N    7.912968   8.521930   6.544299   7.914180   5.719014
    23  C    8.700672   9.343974   7.337791   8.765218   6.573033
    24  C    9.844180  10.576308   8.466964  10.066291   7.808032
    25  C    8.585093   9.140560   7.286933   8.518803   6.478740
    26  C   10.766369  11.507179   9.413460  11.015157   8.792593
    27  C    9.625893  10.203632   8.364289   9.624554   7.635945
    28  C   10.677307  11.348213   9.378059  10.827304   8.728490
    29  H   10.151731  10.928950   8.764171  10.455224   8.153178
    30  H    7.846465   8.293878   6.599870   7.602799   5.697073
    31  H    9.757857  10.260868   8.573545   9.664894   7.840180
    32  H   11.540314  12.214011  10.270526  11.713349   9.657832
    33  C    8.705349   9.284780   7.356447   8.645352   6.519408
    34  C    9.892177  10.364340   8.565984   9.605173   7.618184
    35  C    8.524020   9.184298   7.207429   8.667050   6.525002
    36  C   10.800872  11.254136   9.504088  10.491073   8.575421
    37  C    9.546018  10.158300   8.284069   9.619170   7.603182
    38  C   10.644300  11.159458   9.379032  10.496761   8.569138
    39  H   10.229202  10.640027   8.910231   9.812574   7.891773
    40  H    7.721516   8.484944   6.411314   8.102659   5.886344
    41  H   11.753635  12.144017  10.469298  11.313204   9.481429
    42  H    9.641748  10.295886   8.438352   9.852424   7.881956
    43  O   11.691673  12.180964  10.471901  11.522207   9.687384
    44  H   12.405354  12.842148  11.178033  12.113142  10.321572
    45  O   11.909846  12.713073  10.548678  12.268699   9.995705
    46  H   12.497273  13.296171  11.156602  12.859300  10.619285
                    6          7          8          9         10
     6  C    0.000000
     7  H    3.394295   0.000000
     8  H    3.385653   4.289744   0.000000
     9  H    2.146517   2.482172   4.947488   0.000000
    10  H    1.088349   4.289857   4.286812   2.467231   0.000000
    11  C    2.505277   5.375519   2.711137   4.650757   2.710448
    12  C    3.045368   6.212934   3.931088   5.073520   2.815338
    13  C    3.678464   6.213738   2.814904   5.774081   3.932277
    14  C    4.390898   7.578091   4.901499   6.408358   4.051726
    15  C    4.856023   7.578426   4.051158   6.981744   4.902457
    16  C    5.161865   8.196724   4.968019   7.270895   4.966089
    17  H    2.819102   5.962232   4.393771   4.588573   2.427988
    18  H    3.941678   5.963121   2.423318   5.882541   4.397045
    19  H    5.069545   8.303823   5.874395   6.946307   4.578173
    20  H    5.776485   8.303680   4.573892   7.870218   5.877517
    21  H    3.859246   2.482113   2.467051   4.290175   4.947446
    22  N    6.545729   9.609797   6.270206   8.632733   6.272817
    23  C    7.413798  10.424049   7.010057   9.483849   7.144340
    24  C    8.723736  11.655199   8.023620  10.818905   8.495404
    25  C    7.208045  10.194089   7.059147   9.180895   6.897465
    26  C    9.696311  12.571228   8.952684  11.757451   9.466516
    27  C    8.361839  11.230583   8.092832  10.275401   8.068983
    28  C    9.547581  12.386633   8.993841  11.522562   9.290739
    29  H    9.113678  12.009675   8.266518  11.232310   8.915774
    30  H    6.307599   9.333960   6.506893   8.214370   5.947936
    31  H    8.466533  11.248352   8.376535  10.259829   8.155378
    32  H   10.463545  13.233095   9.874885  12.396752  10.211857
    33  C    7.285719  10.363497   7.087696   9.325276   6.963560
    34  C    8.233418  11.437587   8.377841  10.187067   7.766279
    35  C    7.376550  10.237056   6.856178   9.400076   7.184963
    36  C    9.151285  12.308686   9.314432  11.041794   8.672484
    37  C    8.369057  11.181982   7.959357  10.298882   8.135977
    38  C    9.212163  12.190141   9.130441  11.092346   8.839566
    39  H    8.429084  11.713660   8.776707  10.344219   7.883733
    40  H    6.865938   9.524739   5.967909   8.913566   6.827066
    41  H    9.973170  13.193071  10.323615  11.802622   9.416461
    42  H    8.679164  11.281287   8.069416  10.554568   8.536710
    43  O   10.283440  13.182252  10.230543  12.082016   9.904348
    44  H   10.853944  13.849661  10.976515  12.625733  10.398864
    45  O   10.951513  13.776985  10.012502  13.037633  10.749308
    46  H   11.559847  14.348113  10.622692  13.618008  11.355854
                   11         12         13         14         15
    11  C    0.000000
    12  C    1.394853   0.000000
    13  C    1.395493   2.387587   0.000000
    14  C    2.424467   1.385433   2.764907   0.000000
    15  C    2.424977   2.765668   1.384915   2.399172   0.000000
    16  C    2.821205   2.415097   2.414640   1.395739   1.396274
    17  H    2.150652   1.088341   3.378724   2.137944   3.853801
    18  H    2.151102   3.378607   1.088374   3.853152   2.137314
    19  H    3.405733   2.146670   3.852133   1.087245   3.386123
    20  H    3.405958   3.852753   2.145912   3.386314   1.087105
    21  H    4.651025   5.772746   5.073595   6.980786   6.408009
    22  N    4.234297   3.707444   3.711718   2.438321   2.445798
    23  C    5.119436   4.819888   4.323815   3.655275   2.971730
    24  C    6.354061   6.062456   5.477556   4.851927   4.095366
    25  C    5.130096   5.013697   4.280052   4.062454   3.117474
    26  C    7.381570   7.210266   6.389823   6.057489   5.051499
    27  C    6.356967   6.353639   5.394244   5.444632   4.290407
    28  C    7.395551   7.348852   6.366015   6.319675   5.144720
    29  H    6.692081   6.308050   5.891550   5.056143   4.521319
    30  H    4.424690   4.344498   3.715626   3.580848   2.794201
    31  H    6.680249   6.780270   5.740635   6.018314   4.822735
    32  H    8.368209   8.379672   7.298955   7.383345   6.130284
    33  C    5.071246   4.265481   4.790401   2.919364   3.644235
    34  C    6.184100   5.237096   5.987030   3.864124   4.836271
    35  C    5.178056   4.388518   5.005795   3.249424   4.040369
    36  C    7.194803   6.140130   7.119414   4.833223   6.031976
    37  C    6.335120   5.416109   6.305796   4.341831   5.408027
    38  C    7.261168   6.217257   7.258180   5.032557   6.273463
    39  H    6.454981   5.553792   6.203533   4.191663   5.027836
    40  H    4.607928   4.030316   4.381171   3.121964   3.554725
    41  H    8.109306   7.010311   8.058435   5.708258   6.960366
    42  H    6.726558   5.866041   6.758714   4.968333   5.990968
    43  O    8.445348   7.357619   8.522282   6.254149   7.590088
    44  H    9.053766   7.919987   9.129527   6.766643   8.150885
    45  O    8.578749   8.388421   7.567125   7.198655   6.218773
    46  H    9.231813   9.109043   8.168722   7.955263   6.855625
                   16         17         18         19         20
    16  C    0.000000
    17  H    3.394207   0.000000
    18  H    3.393888   4.285118   0.000000
    19  H    2.149959   2.458618   4.940396   0.000000
    20  H    2.150946   4.940862   2.457496   4.286703   0.000000
    21  H    7.272052   5.879531   4.586584   7.867781   6.943333
    22  N    1.413185   4.574376   4.581072   2.660702   2.673694
    23  C    2.461184   5.748712   4.987046   3.936574   2.719986
    24  C    3.659688   6.980082   6.049990   5.024031   3.626344
    25  C    2.950783   5.951756   4.803955   4.476050   2.808913
    26  C    4.823274   8.156826   6.816330   6.271123   4.399411
    27  C    4.305727   7.297452   5.733863   5.841531   3.743849
    28  C    5.098205   8.309038   6.688121   6.631716   4.459842
    29  H    3.964735   7.173357   6.510653   5.118591   4.131074
    30  H    2.691330   5.242475   4.272357   4.083539   2.772303
    31  H    4.975162   7.694537   5.969929   6.463601   4.309922
    32  H    6.163417   9.342352   7.531313   7.699927   5.385606
    33  C    2.444462   4.918427   5.724684   2.656342   3.946230
    34  C    3.575282   5.750454   6.942083   3.305325   5.103646
    35  C    3.002903   4.942300   5.912726   3.007336   4.402207
    36  C    4.748519   6.496951   8.097952   4.101793   6.333838
    37  C    4.325658   5.772443   7.225551   3.848085   5.781524
    38  C    5.053830   6.505338   8.223896   4.331393   6.623214
    39  H    3.826790   6.093060   7.126970   3.684882   5.229576
    40  H    2.810666   4.656592   5.208864   3.195189   3.925558
    41  H    5.661336   7.307668   9.043472   4.907224   7.241489
    42  H    5.034009   6.143340   7.628715   4.537903   6.377741
    43  O    6.379201   7.526498   9.488201   5.488005   7.950748
    44  H    6.888968   8.071289  10.114969   5.933793   8.494093
    45  O    5.977323   9.323085   7.961763   7.344943   5.519252
    46  H    6.710562  10.061670   8.487307   8.137159   6.091904
                   21         22         23         24         25
    21  H    0.000000
    22  N    8.630736   0.000000
    23  C    9.378863   1.409975   0.000000
    24  C   10.448678   2.427192   1.393769   0.000000
    25  C    9.294570   2.441920   1.400074   2.412018   0.000000
    26  C   11.340928   3.698257   2.411066   1.388635   2.777630
    27  C   10.282869   3.701415   2.407285   2.769277   1.384198
    28  C   11.274201   4.209523   2.799647   2.416588   2.417577
    29  H   10.723204   2.670685   2.162559   1.086097   3.404706
    30  H    8.618674   2.674231   2.157361   3.396874   1.086009
    31  H   10.422524   4.577693   3.391238   3.857316   2.138885
    32  H   12.108589   5.298710   3.888858   3.404834   3.404522
    33  C    9.422555   1.423630   2.449656   2.897645   3.665132
    34  C   10.664963   2.445238   3.015821   3.213721   4.095925
    35  C    9.159312   2.447772   3.579529   3.857360   4.841644
    36  C   11.560223   3.717714   4.341768   4.311254   5.468770
    37  C   10.171122   3.718373   4.755627   4.822429   6.050113
    38  C   11.336060   4.216682   5.066315   5.011839   6.315565
    39  H   11.041698   2.664454   2.828325   3.078428   3.633858
    40  H    8.282366   2.664787   3.822092   4.192298   5.006530
    41  H   12.545464   4.591413   5.039067   4.920622   6.050002
    42  H   10.194123   4.601641   5.673883   5.708058   6.976735
    43  O   12.363717   5.582485   6.407545   6.252116   7.659408
    44  H   13.117715   5.999586   6.706598   6.502409   7.897571
    45  O   12.431008   4.774896   3.633787   2.348270   4.143722
    46  H   13.004874   5.564877   4.321270   3.156551   4.578386
                   26         27         28         29         30
    26  C    0.000000
    27  C    2.392211   0.000000
    28  C    1.391168   1.389086   0.000000
    29  H    2.137698   3.855145   3.391388   0.000000
    30  H    3.863550   2.149250   3.400623   4.305980   0.000000
    31  H    3.378644   1.088057   2.143619   4.943189   2.467462
    32  H    2.159471   2.158843   1.089217   4.288857   4.299601
    33  C    4.253582   4.801856   5.058294   2.640057   3.974543
    34  C    4.371428   5.051860   5.183729   2.949737   4.472848
    35  C    5.235003   5.986376   6.169971   3.315918   5.109062
    36  C    5.404524   6.361556   6.351264   3.788802   5.856965
    37  C    6.138116   7.132383   7.189751   4.096427   6.354283
    38  C    6.211310   7.295875   7.269554   4.296043   6.674251
    39  H    4.006946   4.448941   4.621888   3.123025   4.026459
    40  H    5.552624   6.177610   6.427147   3.718923   5.201527
    41  H    5.837139   6.813970   6.735788   4.455879   6.456081
    42  H    7.015439   8.069072   8.105931   4.918273   7.257746
    43  O    7.381386   8.597614   8.493181   5.459893   8.027064
    44  H    7.532264   8.758460   8.612922   5.758714   8.287178
    45  O    1.367227   3.663126   2.416691   2.547437   5.229543
    46  H    1.913794   3.816640   2.440527   3.492323   5.649582
                   31         32         33         34         35
    31  H    0.000000
    32  H    2.478442   0.000000
    33  C    5.744120   6.118555   0.000000
    34  C    5.970845   6.164945   1.391239   0.000000
    35  C    6.946503   7.220154   1.394688   2.398215   0.000000
    36  C    7.295043   7.274146   2.414085   1.387322   2.770885
    37  C    8.117519   8.199772   2.416532   2.775069   1.383960
    38  C    8.272349   8.224419   2.793055   2.406627   2.402405
    39  H    5.291646   5.547585   2.145607   1.087528   3.384211
    40  H    7.102639   7.479350   2.147323   3.382834   1.087658
    41  H    7.700482   7.572976   3.398369   2.147938   3.860747
    42  H    9.059160   9.109358   3.406573   3.861914   2.156071
    43  O    9.578714   9.404314   4.158996   3.674618   3.630539
    44  H    9.714682   9.473810   4.593816   3.827868   4.316057
    45  O    4.553078   2.685707   5.056050   5.045352   5.862101
    46  H    4.537092   2.290462   5.946451   5.897189   6.801854
                   36         37         38         39         40
    36  C    0.000000
    37  C    2.405842   0.000000
    38  C    1.390951   1.391189   0.000000
    39  H    2.148032   3.862590   3.392125   0.000000
    40  H    3.858527   2.144509   3.388398   4.280423   0.000000
    41  H    1.089873   3.395973   2.155687   2.471366   4.948382
    42  H    3.385267   1.086930   2.141001   4.949432   2.486788
    43  O    2.420226   2.358967   1.366822   4.562846   4.501772
    44  H    2.450810   3.166715   1.916353   4.546703   5.271849
    45  O    5.823986   6.562547   6.543914   4.773683   6.217754
    46  H    6.694316   7.521588   7.471605   5.520247   7.137573
                   41         42         43         44         45
    41  H    0.000000
    42  H    4.286160   0.000000
    43  O    2.685542   2.564730   0.000000
    44  H    2.296841   3.509220   0.965891   0.000000
    45  O    6.156241   7.362977   7.560718   7.663707   0.000000
    46  H    6.956193   8.328675   8.473363   8.532172   0.965905
                   46
    46  H    0.000000
 Stoichiometry    C24H19NO2(1+,2)
 Framework group  C1[X(C24H19NO2)]
 Deg. of freedom   132
 Full point group                 C1      NOp   1
 Largest Abelian subgroup         C1      NOp   1
 Largest concise Abelian subgroup C1      NOp   1
                         Standard orientation:                         
 ---------------------------------------------------------------------
 Center     Atomic      Atomic             Coordinates (Angstroms)
 Number     Number       Type             X           Y           Z
 ---------------------------------------------------------------------
      1          6           0       -6.538108   -0.217341    1.255514
      2          6           0       -7.258661    0.087287    0.107878
      3          6           0       -5.151390   -0.259049    1.219222
      4          6           0       -6.580697    0.348691   -1.075777
      5          6           0       -4.458004    0.000662    0.035726
      6          6           0       -5.193998    0.304569   -1.110911
      7          1           0       -8.345644    0.121015    0.135956
      8          1           0       -4.593910   -0.476283    2.128350
      9          1           0       -7.136138    0.581164   -1.982188
     10          1           0       -4.671509    0.488761   -2.047704
     11          6           0       -2.974479   -0.044963   -0.002770
     12          6           0       -2.240322    0.918366   -0.694597
     13          6           0       -2.265576   -1.051297    0.654611
     14          6           0       -0.856277    0.875925   -0.739808
     15          6           0       -0.881570   -1.094369    0.628888
     16          6           0       -0.155643   -0.133238   -0.077397
     17          1           0       -2.762026    1.727417   -1.202285
     18          1           0       -2.809037   -1.823891    1.195264
     19          1           0       -0.306381    1.639189   -1.284917
     20          1           0       -0.352632   -1.885069    1.155020
     21          1           0       -7.059465   -0.416189    2.189743
     22          7           0        1.257026   -0.160831   -0.103806
     23          6           0        1.965402   -1.377887   -0.174570
     24          6           0        3.190004   -1.508547    0.478017
     25          6           0        1.461496   -2.456008   -0.912094
     26          6           0        3.903051   -2.696891    0.390217
     27          6           0        2.178621   -3.638306   -0.974610
     28          6           0        3.402953   -3.775056   -0.332839
     29          1           0        3.600761   -0.690157    1.062074
     30          1           0        0.514840   -2.358097   -1.435231
     31          1           0        1.782807   -4.471654   -1.551437
     32          1           0        3.963923   -4.706428   -0.398055
     33          6           0        1.972861    1.068372   -0.045814
     34          6           0        2.971482    1.350948   -0.972341
     35          6           0        1.683086    2.012203    0.939258
     36          6           0        3.676780    2.543988   -0.910119
     37          6           0        2.365608    3.214996    0.992156
     38          6           0        3.371443    3.483300    0.069272
     39          1           0        3.205268    0.621566   -1.744392
     40          1           0        0.904271    1.798314    1.667748
     41          1           0        4.460878    2.747602   -1.639197
     42          1           0        2.139895    3.954598    1.756001
     43          8           0        4.022986    4.680331    0.173244
     44          1           0        4.695287    4.738350   -0.517835
     45          8           0        5.097214   -2.751708    1.053752
     46          1           0        5.479651   -3.631493    0.941087
 ---------------------------------------------------------------------
 Rotational constants (GHZ):           0.2747871           0.0974680           0.0767524
 Leave Link  202 at Sun Jan 17 22:58:16 2021, MaxMem=  4026531840 cpu:               0.2 elap:               0.1
 (Enter /opt/ohpc/pub/libs/gaussian/g16-A.03/sandybridge/g16/l301.exe)
 Standard basis: TZVP (5D, 7F)
 Ernie: Thresh=  0.10000D-02 Tol=  0.10000D-05 Strict=F.
 There are   654 symmetry adapted cartesian basis functions of A   symmetry.
 There are   627 symmetry adapted basis functions of A   symmetry.
   627 basis functions,  1097 primitive gaussians,   654 cartesian basis functions
    93 alpha electrons       92 beta electrons
       nuclear repulsion energy      2186.7759231597 Hartrees.
 IExCor=33909 DFT=T Ex+Corr=LC-wHPBE ExCW=0 ScaHFX=  1.000000
 ScaDFX=  1.000000  1.000000  1.000000  1.000000 ScalE2=  1.000000  1.000000
 IRadAn=      5 IRanWt=     -1 IRanGd=            0 ICorTp=0 IEmpDi=  4
 HFx  wShort=  0.000000 wLong=  0.182900 cFull=  0.000000 cShort=  0.000000 cLong=  1.000000
 DFx  wShort=  0.000000 wLong=  0.182900 cFull=  0.000000 cShort=  1.000000 cLong=  0.000000
 NAtoms=   46 NActive=   46 NUniq=   46 SFac= 1.00D+00 NAtFMM=   60 NAOKFM=F Big=F
 Integral buffers will be    131072 words long.
 Raffenetti 2 integral format.
 Two-electron integral symmetry is turned on.
 Leave Link  301 at Sun Jan 17 22:58:16 2021, MaxMem=  4026531840 cpu:               0.4 elap:               0.1
 (Enter /opt/ohpc/pub/libs/gaussian/g16-A.03/sandybridge/g16/l302.exe)
 NPDir=0 NMtPBC=     1 NCelOv=     1 NCel=       1 NClECP=     1 NCelD=      1
         NCelK=      1 NCelE2=     1 NClLst=     1 CellRange=     0.0.
 One-electron integrals computed using PRISM.
 One-electron integral symmetry used in STVInt
 NBasis=   627 RedAO= T EigKep=  6.83D-06  NBF=   627
 NBsUse=   627 1.00D-06 EigRej= -1.00D+00 NBFU=   627
 Precomputing XC quadrature grid using
 IXCGrd= 4 IRadAn=           5 IRanWt=          -1 IRanGd=           0 AccXCQ= 0.00D+00.
 Generated NRdTot=       0 NPtTot=           0 NUsed=           0 NTot=          32
 NSgBfM=   623   621   621   623   623 MxSgAt=    46 MxSgA2=    46.
 Leave Link  302 at Sun Jan 17 22:58:17 2021, MaxMem=  4026531840 cpu:               9.1 elap:               1.2
 (Enter /opt/ohpc/pub/libs/gaussian/g16-A.03/sandybridge/g16/l303.exe)
 DipDrv:  MaxL=1.
 Leave Link  303 at Sun Jan 17 22:58:18 2021, MaxMem=  4026531840 cpu:               0.8 elap:               0.2
 (Enter /opt/ohpc/pub/libs/gaussian/g16-A.03/sandybridge/g16/l401.exe)
 ExpMin= 9.52D-02 ExpMax= 2.70D+04 ExpMxC= 9.22D+02 IAcc=3 IRadAn=         5 AccDes= 0.00D+00
 Harris functional with IExCor=33909 and IRadAn=       5 diagonalized for initial guess.
 HarFok:  IExCor=33909 AccDes= 0.00D+00 IRadAn=         5 IDoV= 1 UseB2=F ITyADJ=14
 ICtDFT=  3500011 ScaDFX=  1.000000  1.000000  1.000000  1.000000
 FoFCou: FMM=F IPFlag=           0 FMFlag=      100000 FMFlg1=           0
         NFxFlg=           0 DoJE=T BraDBF=F KetDBF=T FulRan=T
         wScrn=  0.000000 ICntrl=       500 IOpCl=  0 I1Cent=   200000004 NGrid=           0
         NMat0=    1 NMatS0=      1 NMatT0=    0 NMatD0=    1 NMtDS0=    0 NMtDT0=    0
 Petite list used in FoFCou.
 Harris En= -1112.17297770539    
 JPrj=0 DoOrth=F DoCkMO=F.
 Initial guess <Sx>= 0.0000 <Sy>= 0.0000 <Sz>= 0.5000 <S**2>= 0.7500 S= 0.5000
 Leave Link  401 at Sun Jan 17 22:58:24 2021, MaxMem=  4026531840 cpu:              53.4 elap:               6.7
 (Enter /opt/ohpc/pub/libs/gaussian/g16-A.03/sandybridge/g16/l502.exe)
 Integral symmetry usage will be decided dynamically.
 UHF open shell SCF:
 Using DIIS extrapolation, IDIIS=    10.
 NGot=  4026531840 LenX=  4025664800 LenY=  4025236430
 Requested convergence on RMS density matrix=1.00D-06 within  32 cycles.
 Requested convergence on MAX density matrix=1.00D-04.
 Requested convergence on             energy=1.00D-04.
 Virtual orbitals will be shifted by   0.500 hartree.
 No special actions if energy rises.
 Dynamic level shift is on during FON iterations.

 Cycle   1  Pass 1  IDiag  1:
 FoFJK:  IHMeth= 1 ICntrl=       0 DoSepK=T KAlg= 0 I1Cent=           0 FoldK=F
 IRaf=         1 NMat=       1 IRICut=       1 DoRegI=T DoRafI=F ISym2E= 0 IDoP0=0 IntGTp=1.
 FoFCou: FMM=F IPFlag=           0 FMFlag=      100000 FMFlg1=           0
         NFxFlg=           0 DoJE=T BraDBF=F KetDBF=F FulRan=T
         wScrn=  0.000000 ICntrl=       500 IOpCl=  0 I1Cent=           0 NGrid=           0
         NMat0=    1 NMatS0=      1 NMatT0=    0 NMatD0=    1 NMtDS0=    0 NMtDT0=    0
 Symmetry not used in FoFCou.
 E= -1129.81963157455    
 DIIS: error= 2.19D-02 at cycle   1 NSaved=   1.
 NSaved= 1 IEnMin= 1 EnMin= -1129.81963157455     IErMin= 1 ErrMin= 2.19D-02
 ErrMax= 2.19D-02  0.00D+00 EMaxC= 1.00D+00 BMatC= 1.83D+00 BMatP= 1.83D+00
 IDIUse=1 WtCom= 1.00D+00 WtEn= 0.00D+00
 Coeff-Com:  0.100D+01
 Coeff:      0.100D+01
 Gap=     0.382 Goal=   None    Shift=    0.500
 T= 1307. Gap= 0.692 NK=0 IS=   94 IE=  627 IFin=   93
          NO(<0.9)=   0  NV(>0.1)=   0     93.00e < EF      0.00e >EF  Err=0.0D+00
 Gap=     0.096 Goal=   None    Shift=    0.500
 T= 1307. Gap= 0.515 NK=0 IS=   93 IE=  627 IFin=   92
          NO(<0.9)=   0  NV(>0.1)=   0     92.00e < EF      0.00e >EF  Err=0.0D+00
 GapD=    0.096 DampG=0.500 DampE=0.500 DampFc=0.2500 IDamp=-1.
 Damping current iteration by 2.50D-01
 RMSDP=2.56D-03 MaxDP=1.27D-01              OVMax= 7.83D-02

 Cycle   2  Pass 1  IDiag  1:
 E= -1129.97722900874     Delta-E=       -0.157597434192 Rises=F Damp=T
 DIIS: error= 1.42D-02 at cycle   2 NSaved=   2.
 NSaved= 2 IEnMin= 2 EnMin= -1129.97722900874     IErMin= 2 ErrMin= 1.42D-02
 ErrMax= 1.42D-02  0.00D+00 EMaxC= 1.00D+00 BMatC= 8.35D-01 BMatP= 1.83D+00
 IDIUse=1 WtCom= 1.00D+00 WtEn= 0.00D+00
 Coeff-Com: -0.185D+01 0.285D+01
 Coeff:     -0.185D+01 0.285D+01
 Gap=     0.286 Goal=   None    Shift=    0.500
 T= 1233. Gap= 0.760 NK=0 IS=   94 IE=  627 IFin=   93
          NO(<0.9)=   0  NV(>0.1)=   0     93.00e < EF      0.00e >EF  Err=0.0D+00
 Gap=     0.176 Goal=   None    Shift=    0.500
 T= 1233. Gap= 0.646 NK=0 IS=   93 IE=  627 IFin=   92
          NO(<0.9)=   0  NV(>0.1)=   0     92.00e < EF      0.00e >EF  Err=0.0D+00
 GapD=    0.176 DampG=1.000 DampE=0.500 DampFc=0.5000 IDamp=-1.
 Damping current iteration by 5.00D-01
 RMSDP=1.88D-03 MaxDP=1.16D-01 DE=-1.58D-01 OVMax= 2.77D-02

 Cycle   3  Pass 1  IDiag  1:
 E= -1130.14049077132     Delta-E=       -0.163261762578 Rises=F Damp=T
 DIIS: error= 6.56D-03 at cycle   3 NSaved=   3.
 NSaved= 3 IEnMin= 3 EnMin= -1130.14049077132     IErMin= 3 ErrMin= 6.56D-03
 ErrMax= 6.56D-03  0.00D+00 EMaxC= 1.00D+00 BMatC= 1.60D-01 BMatP= 8.35D-01
 IDIUse=1 WtCom= 1.00D+00 WtEn= 0.00D+00
 Coeff-Com:  0.901D-02-0.763D+00 0.175D+01
 Coeff:      0.901D-02-0.763D+00 0.175D+01
 Gap=     0.274 Goal=   None    Shift=    0.500
 T= 1048. Gap= 0.772 NK=4 IS=   94 IE=  106 IFin=   93
          NO(<0.9)=   0  NV(>0.1)=   0     93.00e < EF      0.00e >EF  Err=0.0D+00
 Gap=     0.148 Goal=   None    Shift=    0.500
 T= 1048. Gap= 0.647 NK=4 IS=   93 IE=  105 IFin=   92
          NO(<0.9)=   0  NV(>0.1)=   0     92.00e < EF      0.00e >EF  Err=0.0D+00
 GapD=    0.148 DampG=1.000 DampE=1.000 DampFc=1.0000 IDamp=-1.
 RMSDP=9.64D-04 MaxDP=7.25D-02 DE=-1.63D-01 OVMax= 1.08D-02

 Cycle   4  Pass 1  IDiag  1:
 E= -1130.25346699632     Delta-E=       -0.112976225004 Rises=F Damp=F
 DIIS: error= 1.95D-03 at cycle   4 NSaved=   4.
 NSaved= 4 IEnMin= 4 EnMin= -1130.25346699632     IErMin= 4 ErrMin= 1.95D-03
 ErrMax= 1.95D-03  0.00D+00 EMaxC= 1.00D+00 BMatC= 3.70D-03 BMatP= 1.60D-01
 IDIUse=1 WtCom= 1.00D+00 WtEn= 0.00D+00
 Coeff-Com:  0.162D+00-0.259D+00 0.150D+00 0.947D+00
 Coeff:      0.162D+00-0.259D+00 0.150D+00 0.947D+00
 Gap=     0.273 Goal=   None    Shift=    0.500
 T=  671. Gap= 0.773 NK=4 IS=   94 IE=  106 IFin=   93
          NO(<0.9)=   0  NV(>0.1)=   0     93.00e < EF      0.00e >EF  Err=0.0D+00
 Gap=     0.150 Goal=   None    Shift=    0.500
 T=  671. Gap= 0.650 NK=4 IS=   93 IE=  104 IFin=   92
          NO(<0.9)=   0  NV(>0.1)=   0     92.00e < EF      0.00e >EF  Err=0.0D+00
 GapD=    0.150 DampG=1.000 DampE=1.000 DampFc=1.0000 IDamp=-1.
 RMSDP=1.37D-04 MaxDP=5.59D-03 DE=-1.13D-01 OVMax= 8.61D-03

 Cycle   5  Pass 1  IDiag  1:
 E= -1130.25458053920     Delta-E=       -0.001113542883 Rises=F Damp=F
 DIIS: error= 1.51D-03 at cycle   5 NSaved=   5.
 NSaved= 5 IEnMin= 5 EnMin= -1130.25458053920     IErMin= 5 ErrMin= 1.51D-03
 ErrMax= 1.51D-03  0.00D+00 EMaxC= 1.00D+00 BMatC= 6.80D-04 BMatP= 3.70D-03
 IDIUse=1 WtCom= 1.00D+00 WtEn= 0.00D+00
 Coeff-Com:  0.447D-01-0.887D-03-0.120D+00-0.494D-01 0.113D+01
 Coeff:      0.447D-01-0.887D-03-0.120D+00-0.494D-01 0.113D+01
 Gap=     0.274 Goal=   None    Shift=    0.500
 T=  179. Gap= 0.774 NK=4 IS=   94 IE=  106 IFin=   93
          NO(<0.9)=   0  NV(>0.1)=   0     93.00e < EF      0.00e >EF  Err=0.0D+00
 Gap=     0.153 Goal=   None    Shift=    0.500
 T=  179. Gap= 0.653 NK=4 IS=   93 IE=  105 IFin=   92
          NO(<0.9)=   0  NV(>0.1)=   0     92.00e < EF      0.00e >EF  Err=0.0D+00
 GapD=    0.153 DampG=1.000 DampE=1.000 DampFc=1.0000 IDamp=-1.
 RMSDP=9.43D-05 MaxDP=3.51D-03 DE=-1.11D-03 OVMax= 6.26D-03

 Cycle   6  Pass 1  IDiag  1:
 E= -1130.25500070770     Delta-E=       -0.000420168499 Rises=F Damp=F
 DIIS: error= 1.21D-03 at cycle   6 NSaved=   6.
 NSaved= 6 IEnMin= 6 EnMin= -1130.25500070770     IErMin= 6 ErrMin= 1.21D-03
 ErrMax= 1.21D-03  0.00D+00 EMaxC= 1.00D+00 BMatC= 2.16D-04 BMatP= 6.80D-04
 IDIUse=1 WtCom= 1.00D+00 WtEn= 0.00D+00
 Coeff-Com: -0.436D-01 0.942D-01-0.928D-01-0.305D+00 0.517D-01 0.130D+01
 Coeff:     -0.436D-01 0.942D-01-0.928D-01-0.305D+00 0.517D-01 0.130D+01
 Gap=     0.275 Goal=   None    Shift=    0.500
 Gap=     0.155 Goal=   None    Shift=    0.500
 GapD=    0.155 DampG=1.000 DampE=1.000 DampFc=1.0000 IDamp=-1.
 RMSDP=5.90D-05 MaxDP=2.71D-03 DE=-4.20D-04 OVMax= 5.61D-03

 Cycle   7  Pass 1  IDiag  1:
 E= -1130.25523398564     Delta-E=       -0.000233277943 Rises=F Damp=F
 DIIS: error= 1.08D-03 at cycle   7 NSaved=   7.
 NSaved= 7 IEnMin= 7 EnMin= -1130.25523398564     IErMin= 7 ErrMin= 1.08D-03
 ErrMax= 1.08D-03  0.00D+00 EMaxC= 1.00D+00 BMatC= 1.08D-04 BMatP= 2.16D-04
 IDIUse=1 WtCom= 1.00D+00 WtEn= 0.00D+00
 Coeff-Com: -0.290D-01 0.326D-01 0.259D-02-0.872D-01-0.315D+00-0.170D+00
 Coeff-Com:  0.157D+01
 Coeff:     -0.290D-01 0.326D-01 0.259D-02-0.872D-01-0.315D+00-0.170D+00
 Coeff:      0.157D+01
 Gap=     0.275 Goal=   None    Shift=    0.500
 Gap=     0.156 Goal=   None    Shift=    0.500
 GapD=    0.156 DampG=1.000 DampE=1.000 DampFc=1.0000 IDamp=-1.
 RMSDP=3.63D-05 MaxDP=1.61D-03 DE=-2.33D-04 OVMax= 5.10D-03

 Cycle   8  Pass 1  IDiag  1:
 E= -1130.25538168104     Delta-E=       -0.000147695400 Rises=F Damp=F
 DIIS: error= 9.56D-04 at cycle   8 NSaved=   8.
 NSaved= 8 IEnMin= 8 EnMin= -1130.25538168104     IErMin= 8 ErrMin= 9.56D-04
 ErrMax= 9.56D-04  0.00D+00 EMaxC= 1.00D+00 BMatC= 6.20D-05 BMatP= 1.08D-04
 IDIUse=1 WtCom= 1.00D+00 WtEn= 0.00D+00
 Coeff-Com:  0.990D-02-0.337D-01 0.439D-01 0.104D+00-0.157D+00-0.883D+00
 Coeff-Com:  0.177D+00 0.174D+01
 Coeff:      0.990D-02-0.337D-01 0.439D-01 0.104D+00-0.157D+00-0.883D+00
 Coeff:      0.177D+00 0.174D+01
 Gap=     0.276 Goal=   None    Shift=    0.500
 Gap=     0.157 Goal=   None    Shift=    0.500
 RMSDP=2.58D-05 MaxDP=8.92D-04 DE=-1.48D-04 OVMax= 5.01D-03

 Cycle   9  Pass 1  IDiag  1:
 E= -1130.25548285653     Delta-E=       -0.000101175489 Rises=F Damp=F
 DIIS: error= 8.20D-04 at cycle   9 NSaved=   9.
 NSaved= 9 IEnMin= 9 EnMin= -1130.25548285653     IErMin= 9 ErrMin= 8.20D-04
 ErrMax= 8.20D-04  0.00D+00 EMaxC= 1.00D+00 BMatC= 3.51D-05 BMatP= 6.20D-05
 IDIUse=1 WtCom= 1.00D+00 WtEn= 0.00D+00
 Coeff-Com:  0.124D-01-0.184D-01 0.709D-02 0.379D-01 0.166D+00-0.209D+00
 Coeff-Com: -0.857D+00-0.232D+00 0.209D+01
 Coeff:      0.124D-01-0.184D-01 0.709D-02 0.379D-01 0.166D+00-0.209D+00
 Coeff:     -0.857D+00-0.232D+00 0.209D+01
 Gap=     0.276 Goal=   None    Shift=    0.500
 Gap=     0.157 Goal=   None    Shift=    0.500
 RMSDP=1.81D-05 MaxDP=7.53D-04 DE=-1.01D-04 OVMax= 4.59D-03

 Cycle  10  Pass 1  IDiag  1:
 E= -1130.25554823347     Delta-E=       -0.000065376937 Rises=F Damp=F
 DIIS: error= 7.00D-04 at cycle  10 NSaved=  10.
 NSaved=10 IEnMin=10 EnMin= -1130.25554823347     IErMin=10 ErrMin= 7.00D-04
 ErrMax= 7.00D-04  0.00D+00 EMaxC= 1.00D+00 BMatC= 2.15D-05 BMatP= 3.51D-05
 IDIUse=1 WtCom= 1.00D+00 WtEn= 0.00D+00
 Coeff-Com: -0.389D-03 0.566D-02-0.105D-01-0.387D-01 0.148D+00 0.267D+00
 Coeff-Com: -0.586D+00-0.588D+00-0.245D+00 0.205D+01
 Coeff:     -0.389D-03 0.566D-02-0.105D-01-0.387D-01 0.148D+00 0.267D+00
 Coeff:     -0.586D+00-0.588D+00-0.245D+00 0.205D+01
 Gap=     0.276 Goal=   None    Shift=    0.500
 Gap=     0.158 Goal=   None    Shift=    0.500
 RMSDP=1.42D-05 MaxDP=6.61D-04 DE=-6.54D-05 OVMax= 3.90D-03

 Cycle  11  Pass 1  IDiag  1:
 E= -1130.25558890324     Delta-E=       -0.000040669768 Rises=F Damp=F
 DIIS: error= 5.89D-04 at cycle  11 NSaved=  11.
 NSaved=11 IEnMin=11 EnMin= -1130.25558890324     IErMin=11 ErrMin= 5.89D-04
 ErrMax= 5.89D-04  0.00D+00 EMaxC= 1.00D+00 BMatC= 1.38D-05 BMatP= 2.15D-05
 IDIUse=1 WtCom= 1.00D+00 WtEn= 0.00D+00
 Coeff-Com: -0.823D-02 0.108D-01-0.175D-02-0.527D-01-0.606D-01 0.306D+00
 Coeff-Com:  0.272D+00 0.946D-02-0.209D+01 0.231D+00 0.239D+01
 Coeff:     -0.823D-02 0.108D-01-0.175D-02-0.527D-01-0.606D-01 0.306D+00
 Coeff:      0.272D+00 0.946D-02-0.209D+01 0.231D+00 0.239D+01
 Gap=     0.276 Goal=   None    Shift=    0.500
 Gap=     0.158 Goal=   None    Shift=    0.500
 RMSDP=1.25D-05 MaxDP=8.57D-04 DE=-4.07D-05 OVMax= 3.46D-03

 Cycle  12  Pass 1  IDiag  1:
 E= -1130.25561607247     Delta-E=       -0.000027169226 Rises=F Damp=F
 DIIS: error= 5.03D-04 at cycle  12 NSaved=  12.
 NSaved=12 IEnMin=12 EnMin= -1130.25561607247     IErMin=12 ErrMin= 5.03D-04
 ErrMax= 5.03D-04  0.00D+00 EMaxC= 1.00D+00 BMatC= 9.77D-06 BMatP= 1.38D-05
 IDIUse=1 WtCom= 1.00D+00 WtEn= 0.00D+00
 Coeff-Com: -0.200D-02-0.368D-02 0.115D-01-0.218D-01-0.118D+00 0.915D-01
 Coeff-Com:  0.421D+00 0.299D+00-0.127D+01-0.903D+00 0.987D+00 0.151D+01
 Coeff:     -0.200D-02-0.368D-02 0.115D-01-0.218D-01-0.118D+00 0.915D-01
 Coeff:      0.421D+00 0.299D+00-0.127D+01-0.903D+00 0.987D+00 0.151D+01
 Gap=     0.276 Goal=   None    Shift=    0.500
 Gap=     0.158 Goal=   None    Shift=    0.500
 RMSDP=8.57D-06 MaxDP=5.26D-04 DE=-2.72D-05 OVMax= 2.77D-03

 Cycle  13  Pass 1  IDiag  1:
 E= -1130.25563261671     Delta-E=       -0.000016544247 Rises=F Damp=F
 DIIS: error= 4.11D-04 at cycle  13 NSaved=  13.
 NSaved=13 IEnMin=13 EnMin= -1130.25563261671     IErMin=13 ErrMin= 4.11D-04
 ErrMax= 4.11D-04  0.00D+00 EMaxC= 1.00D+00 BMatC= 6.32D-06 BMatP= 9.77D-06
 IDIUse=1 WtCom= 1.00D+00 WtEn= 0.00D+00
 Coeff-Com:  0.600D-02-0.150D-01 0.147D-01 0.208D-01-0.664D-01-0.140D+00
 Coeff-Com:  0.141D+00 0.245D+00 0.570D+00-0.110D+01-0.757D+00-0.433D+00
 Coeff-Com:  0.251D+01
 Coeff:      0.600D-02-0.150D-01 0.147D-01 0.208D-01-0.664D-01-0.140D+00
 Coeff:      0.141D+00 0.245D+00 0.570D+00-0.110D+01-0.757D+00-0.433D+00
 Coeff:      0.251D+01
 Gap=     0.276 Goal=   None    Shift=    0.500
 Gap=     0.158 Goal=   None    Shift=    0.500
 RMSDP=8.27D-06 MaxDP=5.26D-04 DE=-1.65D-05 OVMax= 2.35D-03

 Cycle  14  Pass 1  IDiag  1:
 E= -1130.25564368099     Delta-E=       -0.000011064275 Rises=F Damp=F
 DIIS: error= 3.43D-04 at cycle  14 NSaved=  14.
 NSaved=14 IEnMin=14 EnMin= -1130.25564368099     IErMin=14 ErrMin= 3.43D-04
 ErrMax= 3.43D-04  0.00D+00 EMaxC= 1.00D+00 BMatC= 5.01D-06 BMatP= 6.32D-06
 IDIUse=1 WtCom= 1.00D+00 WtEn= 0.00D+00
 Coeff-Com:  0.373D-02-0.488D-02 0.434D-03 0.147D-01 0.395D-01-0.639D-01
 Coeff-Com: -0.232D+00-0.947D-01 0.100D+01 0.205D+00-0.805D+00-0.265D+01
 Coeff-Com:  0.173D+01 0.186D+01
 Coeff:      0.373D-02-0.488D-02 0.434D-03 0.147D-01 0.395D-01-0.639D-01
 Coeff:     -0.232D+00-0.947D-01 0.100D+01 0.205D+00-0.805D+00-0.265D+01
 Coeff:      0.173D+01 0.186D+01
 Gap=     0.276 Goal=   None    Shift=    0.500
 Gap=     0.158 Goal=   None    Shift=    0.500
 RMSDP=6.59D-06 MaxDP=3.70D-04 DE=-1.11D-05 OVMax= 1.95D-03

 Cycle  15  Pass 1  IDiag  1:
 E= -1130.25565129219     Delta-E=       -0.000007611206 Rises=F Damp=F
 DIIS: error= 2.82D-04 at cycle  15 NSaved=  15.
 NSaved=15 IEnMin=15 EnMin= -1130.25565129219     IErMin=15 ErrMin= 2.82D-04
 ErrMax= 2.82D-04  0.00D+00 EMaxC= 1.00D+00 BMatC= 3.57D-06 BMatP= 5.01D-06
 IDIUse=1 WtCom= 1.00D+00 WtEn= 0.00D+00
 Coeff-Com:  0.693D-03 0.134D-02-0.451D-02-0.669D-03 0.527D-01 0.266D-01
 Coeff-Com: -0.241D+00-0.156D+00 0.468D+00 0.699D+00-0.254D+00-0.243D+01
 Coeff-Com:  0.930D+00 0.412D+00 0.150D+01
 Coeff:      0.693D-03 0.134D-02-0.451D-02-0.669D-03 0.527D-01 0.266D-01
 Coeff:     -0.241D+00-0.156D+00 0.468D+00 0.699D+00-0.254D+00-0.243D+01
 Coeff:      0.930D+00 0.412D+00 0.150D+01
 Gap=     0.276 Goal=   None    Shift=    0.500
 Gap=     0.158 Goal=   None    Shift=    0.500
 RMSDP=4.73D-06 MaxDP=2.67D-04 DE=-7.61D-06 OVMax= 1.56D-03

 Cycle  16  Pass 1  IDiag  1:
 E= -1130.25565639692     Delta-E=       -0.000005104730 Rises=F Damp=F
 DIIS: error= 2.27D-04 at cycle  16 NSaved=  16.
 NSaved=16 IEnMin=16 EnMin= -1130.25565639692     IErMin=16 ErrMin= 2.27D-04
 ErrMax= 2.27D-04  0.00D+00 EMaxC= 1.00D+00 BMatC= 2.36D-06 BMatP= 3.57D-06
 IDIUse=1 WtCom= 1.00D+00 WtEn= 0.00D+00
 Coeff-Com: -0.257D-02 0.383D-02-0.146D-02-0.169D-01-0.950D-02 0.871D-01
 Coeff-Com:  0.674D-01 0.739D-02-0.724D+00 0.369D+00 0.699D+00 0.303D+00
 Coeff-Com: -0.356D+00-0.202D+01-0.625D+00 0.322D+01
 Coeff:     -0.257D-02 0.383D-02-0.146D-02-0.169D-01-0.950D-02 0.871D-01
 Coeff:      0.674D-01 0.739D-02-0.724D+00 0.369D+00 0.699D+00 0.303D+00
 Coeff:     -0.356D+00-0.202D+01-0.625D+00 0.322D+01
 Gap=     0.276 Goal=   None    Shift=    0.500
 Gap=     0.159 Goal=   None    Shift=    0.500
 RMSDP=4.95D-06 MaxDP=2.68D-04 DE=-5.10D-06 OVMax= 1.46D-03

 Cycle  17  Pass 1  IDiag  1:
 E= -1130.25566023891     Delta-E=       -0.000003841992 Rises=F Damp=F
 DIIS: error= 1.85D-04 at cycle  17 NSaved=  17.
 NSaved=17 IEnMin=17 EnMin= -1130.25566023891     IErMin=17 ErrMin= 1.85D-04
 ErrMax= 1.85D-04  0.00D+00 EMaxC= 1.00D+00 BMatC= 1.89D-06 BMatP= 2.36D-06
 IDIUse=1 WtCom= 1.00D+00 WtEn= 0.00D+00
 Coeff-Com: -0.193D-02 0.151D-02 0.157D-02-0.142D-01-0.278D-01 0.555D-01
 Coeff-Com:  0.158D+00 0.531D-01-0.730D+00 0.388D-01 0.636D+00 0.925D+00
 Coeff-Com: -0.305D+00-0.201D+01-0.131D+01 0.264D+01 0.891D+00
 Coeff:     -0.193D-02 0.151D-02 0.157D-02-0.142D-01-0.278D-01 0.555D-01
 Coeff:      0.158D+00 0.531D-01-0.730D+00 0.388D-01 0.636D+00 0.925D+00
 Coeff:     -0.305D+00-0.201D+01-0.131D+01 0.264D+01 0.891D+00
 Gap=     0.276 Goal=   None    Shift=    0.500
 Gap=     0.159 Goal=   None    Shift=    0.500
 RMSDP=3.34D-06 MaxDP=1.96D-04 DE=-3.84D-06 OVMax= 1.20D-03

 Cycle  18  Pass 1  IDiag  1:
 E= -1130.25566287171     Delta-E=       -0.000002632795 Rises=F Damp=F
 DIIS: error= 1.49D-04 at cycle  18 NSaved=  18.
 NSaved=18 IEnMin=18 EnMin= -1130.25566287171     IErMin=18 ErrMin= 1.49D-04
 ErrMax= 1.49D-04  0.00D+00 EMaxC= 1.00D+00 BMatC= 1.26D-06 BMatP= 1.89D-06
 IDIUse=1 WtCom= 1.00D+00 WtEn= 0.00D+00
 Coeff-Com:  0.144D-02-0.359D-02 0.356D-02 0.807D-02-0.170D-01-0.656D-01
 Coeff-Com:  0.871D-01 0.717D-02 0.303D+00-0.480D+00-0.246D+00 0.469D-01
 Coeff-Com:  0.700D+00 0.732D+00-0.105D+01-0.647D+00-0.293D+01 0.455D+01
 Coeff:      0.144D-02-0.359D-02 0.356D-02 0.807D-02-0.170D-01-0.656D-01
 Coeff:      0.871D-01 0.717D-02 0.303D+00-0.480D+00-0.246D+00 0.469D-01
 Coeff:      0.700D+00 0.732D+00-0.105D+01-0.647D+00-0.293D+01 0.455D+01
 Gap=     0.275 Goal=   None    Shift=    0.500
 Gap=     0.159 Goal=   None    Shift=    0.500
 RMSDP=3.91D-06 MaxDP=2.41D-04 DE=-2.63D-06 OVMax= 1.19D-03

 Cycle  19  Pass 1  IDiag  1:
 E= -1130.25566491547     Delta-E=       -0.000002043760 Rises=F Damp=F
 DIIS: error= 1.20D-04 at cycle  19 NSaved=  19.
 NSaved=19 IEnMin=19 EnMin= -1130.25566491547     IErMin=19 ErrMin= 1.20D-04
 ErrMax= 1.20D-04  0.00D+00 EMaxC= 1.00D+00 BMatC= 1.21D-06 BMatP= 1.26D-06
 IDIUse=1 WtCom= 1.00D+00 WtEn= 0.00D+00
 Coeff-Com:  0.122D-02-0.254D-02 0.196D-02 0.616D-02-0.475D-02-0.382D-01
 Coeff-Com:  0.727D-02-0.252D-01 0.366D+00-0.256D+00-0.260D+00-0.608D+00
 Coeff-Com:  0.958D+00 0.830D+00-0.400D+00-0.529D+00-0.357D+01 0.328D+01
 Coeff-Com:  0.124D+01
 Coeff:      0.122D-02-0.254D-02 0.196D-02 0.616D-02-0.475D-02-0.382D-01
 Coeff:      0.727D-02-0.252D-01 0.366D+00-0.256D+00-0.260D+00-0.608D+00
 Coeff:      0.958D+00 0.830D+00-0.400D+00-0.529D+00-0.357D+01 0.328D+01
 Coeff:      0.124D+01
 Gap=     0.275 Goal=   None    Shift=    0.500
 Gap=     0.159 Goal=   None    Shift=    0.500
 RMSDP=2.58D-06 MaxDP=1.42D-04 DE=-2.04D-06 OVMax= 9.64D-04

 Cycle  20  Pass 1  IDiag  1:
 E= -1130.25566626716     Delta-E=       -0.000001351687 Rises=F Damp=F
 DIIS: error= 9.49D-05 at cycle  20 NSaved=  20.
 NSaved=20 IEnMin=20 EnMin= -1130.25566626716     IErMin=20 ErrMin= 9.49D-05
 ErrMax= 9.49D-05  0.00D+00 EMaxC= 1.00D+00 BMatC= 8.87D-07 BMatP= 1.21D-06
 IDIUse=1 WtCom= 1.00D+00 WtEn= 0.00D+00
 Coeff-Com:  0.987D-05 0.121D-03-0.376D-03-0.611D-03 0.186D-02 0.194D-01
 Coeff-Com: -0.453D-01-0.112D-01 0.490D-01 0.141D+00-0.277D-01-0.676D+00
 Coeff-Com:  0.529D+00 0.880D-01 0.179D+00 0.481D+00-0.179D+01 0.766D+00
 Coeff-Com: -0.191D+01 0.320D+01
 Coeff:      0.987D-05 0.121D-03-0.376D-03-0.611D-03 0.186D-02 0.194D-01
 Coeff:     -0.453D-01-0.112D-01 0.490D-01 0.141D+00-0.277D-01-0.676D+00
 Coeff:      0.529D+00 0.880D-01 0.179D+00 0.481D+00-0.179D+01 0.766D+00
 Coeff:     -0.191D+01 0.320D+01
 Gap=     0.275 Goal=   None    Shift=    0.500
 Gap=     0.159 Goal=   None    Shift=    0.500
 RMSDP=2.24D-06 MaxDP=1.01D-04 DE=-1.35D-06 OVMax= 8.39D-04

 Cycle  21  Pass 1  IDiag  1:
 E= -1130.25566717690     Delta-E=       -0.000000909740 Rises=F Damp=F
 DIIS: error= 7.80D-05 at cycle  21 NSaved=  20.
 NSaved=20 IEnMin=20 EnMin= -1130.25566717690     IErMin=20 ErrMin= 7.80D-05
 ErrMax= 7.80D-05  0.00D+00 EMaxC= 1.00D+00 BMatC= 6.69D-07 BMatP= 8.87D-07
 IDIUse=1 WtCom= 1.00D+00 WtEn= 0.00D+00
 Coeff-Com: -0.176D-03 0.281D-03-0.176D-02-0.382D-02 0.107D-01 0.109D-01
 Coeff-Com:  0.239D-01-0.147D+00 0.938D-01 0.862D-01 0.116D-01 0.316D-02
 Coeff-Com: -0.362D+00-0.164D+00 0.854D+00-0.137D+00 0.511D+00-0.337D+01
 Coeff-Com:  0.145D+01 0.213D+01
 Coeff:     -0.176D-03 0.281D-03-0.176D-02-0.382D-02 0.107D-01 0.109D-01
 Coeff:      0.239D-01-0.147D+00 0.938D-01 0.862D-01 0.116D-01 0.316D-02
 Coeff:     -0.362D+00-0.164D+00 0.854D+00-0.137D+00 0.511D+00-0.337D+01
 Coeff:      0.145D+01 0.213D+01
 Gap=     0.275 Goal=   None    Shift=    0.500
 Gap=     0.159 Goal=   None    Shift=    0.500
 RMSDP=1.72D-06 MaxDP=8.29D-05 DE=-9.10D-07 OVMax= 7.01D-04

 Cycle  22  Pass 1  IDiag  1:
 E= -1130.25566776414     Delta-E=       -0.000000587246 Rises=F Damp=F
 DIIS: error= 6.33D-05 at cycle  22 NSaved=  20.
 NSaved=20 IEnMin=20 EnMin= -1130.25566776414     IErMin=20 ErrMin= 6.33D-05
 ErrMax= 6.33D-05  0.00D+00 EMaxC= 1.00D+00 BMatC= 4.77D-07 BMatP= 6.69D-07
 IDIUse=1 WtCom= 1.00D+00 WtEn= 0.00D+00
 Coeff-Com: -0.101D-03-0.211D-02-0.122D-02-0.407D-02 0.394D-01-0.912D-02
 Coeff-Com: -0.699D-01-0.435D-01 0.791D-01 0.171D+00-0.194D-01-0.139D+00
 Coeff-Com: -0.426D+00 0.422D+00-0.250D+00 0.122D+01-0.138D+01-0.802D+00
 Coeff-Com: -0.283D+00 0.249D+01
 Coeff:     -0.101D-03-0.211D-02-0.122D-02-0.407D-02 0.394D-01-0.912D-02
 Coeff:     -0.699D-01-0.435D-01 0.791D-01 0.171D+00-0.194D-01-0.139D+00
 Coeff:     -0.426D+00 0.422D+00-0.250D+00 0.122D+01-0.138D+01-0.802D+00
 Coeff:     -0.283D+00 0.249D+01
 Gap=     0.275 Goal=   None    Shift=    0.500
 Gap=     0.159 Goal=   None    Shift=    0.500
 RMSDP=1.27D-06 MaxDP=5.52D-05 DE=-5.87D-07 OVMax= 5.61D-04

 Cycle  23  Pass 1  IDiag  1:
 E= -1130.25566812853     Delta-E=       -0.000000364386 Rises=F Damp=F
 DIIS: error= 5.06D-05 at cycle  23 NSaved=  20.
 NSaved=20 IEnMin=20 EnMin= -1130.25566812853     IErMin=20 ErrMin= 5.06D-05
 ErrMax= 5.06D-05  0.00D+00 EMaxC= 1.00D+00 BMatC= 3.17D-07 BMatP= 4.77D-07
 IDIUse=1 WtCom= 1.00D+00 WtEn= 0.00D+00
 Coeff-Com:  0.570D-03-0.129D-02-0.117D-01 0.266D-01-0.240D-01 0.663D-01
 Coeff-Com: -0.116D+00-0.126D-02-0.422D-01 0.228D+00 0.142D+00-0.283D+00
 Coeff-Com: -0.753D-01-0.845D+00 0.124D+01 0.820D+00-0.123D+01-0.177D+01
 Coeff-Com:  0.736D+00 0.214D+01
 Coeff:      0.570D-03-0.129D-02-0.117D-01 0.266D-01-0.240D-01 0.663D-01
 Coeff:     -0.116D+00-0.126D-02-0.422D-01 0.228D+00 0.142D+00-0.283D+00
 Coeff:     -0.753D-01-0.845D+00 0.124D+01 0.820D+00-0.123D+01-0.177D+01
 Coeff:      0.736D+00 0.214D+01
 Gap=     0.275 Goal=   None    Shift=    0.500
 Gap=     0.159 Goal=   None    Shift=    0.500
 RMSDP=9.52D-07 MaxDP=3.27D-05 DE=-3.64D-07 OVMax= 4.49D-04

 SCF Done:  E(ULC-wHPBE) =  -1130.25566813     A.U. after   23 cycles
            NFock= 23  Conv=0.95D-06     -V/T= 2.0045
 <Sx>= 0.0000 <Sy>= 0.0000 <Sz>= 0.5000 <S**2>= 0.7674 S= 0.5086
 <L.S>= 0.000000000000E+00
 KE= 1.125243355199D+03 PE=-6.981786484294D+03 EE= 2.539511537807D+03
 Annihilation of the first spin contaminant:
 S**2 before annihilation     0.7674,   after     0.7503
 Leave Link  502 at Sun Jan 17 23:20:49 2021, MaxMem=  4026531840 cpu:           10732.1 elap:            1345.1
 (Enter /opt/ohpc/pub/libs/gaussian/g16-A.03/sandybridge/g16/l508.exe)
 QCSCF skips out because SCF is already converged.
 Leave Link  508 at Sun Jan 17 23:20:49 2021, MaxMem=  4026531840 cpu:               0.0 elap:               0.0
 (Enter /opt/ohpc/pub/libs/gaussian/g16-A.03/sandybridge/g16/l601.exe)
 Copying SCF densities to generalized density rwf, IOpCl= 1 IROHF=0.

 **********************************************************************

            Population analysis using the SCF density.

 **********************************************************************

 Orbital symmetries:
 Alpha Orbitals:
       Occupied  (A) (A) (A) (A) (A) (A) (A) (A) (A) (A) (A) (A)
                 (A) (A) (A) (A) (A) (A) (A) (A) (A) (A) (A) (A)
                 (A) (A) (A) (A) (A) (A) (A) (A) (A) (A) (A) (A)
                 (A) (A) (A) (A) (A) (A) (A) (A) (A) (A) (A) (A)
                 (A) (A) (A) (A) (A) (A) (A) (A) (A) (A) (A) (A)
                 (A) (A) (A) (A) (A) (A) (A) (A) (A) (A) (A) (A)
                 (A) (A) (A) (A) (A) (A) (A) (A) (A) (A) (A) (A)
                 (A) (A) (A) (A) (A) (A) (A) (A) (A)
       Virtual   (A) (A) (A) (A) (A) (A) (A) (A) (A) (A) (A) (A)
                 (A) (A) (A) (A) (A) (A) (A) (A) (A) (A) (A) (A)
                 (A) (A) (A) (A) (A) (A) (A) (A) (A) (A) (A) (A)
                 (A) (A) (A) (A) (A) (A) (A) (A) (A) (A) (A) (A)
                 (A) (A) (A) (A) (A) (A) (A) (A) (A) (A) (A) (A)
                 (A) (A) (A) (A) (A) (A) (A) (A) (A) (A) (A) (A)
                 (A) (A) (A) (A) (A) (A) (A) (A) (A) (A) (A) (A)
                 (A) (A) (A) (A) (A) (A) (A) (A) (A) (A) (A) (A)
                 (A) (A) (A) (A) (A) (A) (A) (A) (A) (A) (A) (A)
                 (A) (A) (A) (A) (A) (A) (A) (A) (A) (A) (A) (A)
                 (A) (A) (A) (A) (A) (A) (A) (A) (A) (A) (A) (A)
                 (A) (A) (A) (A) (A) (A) (A) (A) (A) (A) (A) (A)
                 (A) (A) (A) (A) (A) (A) (A) (A) (A) (A) (A) (A)
                 (A) (A) (A) (A) (A) (A) (A) (A) (A) (A) (A) (A)
                 (A) (A) (A) (A) (A) (A) (A) (A) (A) (A) (A) (A)
                 (A) (A) (A) (A) (A) (A) (A) (A) (A) (A) (A) (A)
                 (A) (A) (A) (A) (A) (A) (A) (A) (A) (A) (A) (A)
                 (A) (A) (A) (A) (A) (A) (A) (A) (A) (A) (A) (A)
                 (A) (A) (A) (A) (A) (A) (A) (A) (A) (A) (A) (A)
                 (A) (A) (A) (A) (A) (A) (A) (A) (A) (A) (A) (A)
                 (A) (A) (A) (A) (A) (A) (A) (A) (A) (A) (A) (A)
                 (A) (A) (A) (A) (A) (A) (A) (A) (A) (A) (A) (A)
                 (A) (A) (A) (A) (A) (A) (A) (A) (A) (A) (A) (A)
                 (A) (A) (A) (A) (A) (A) (A) (A) (A) (A) (A) (A)
                 (A) (A) (A) (A) (A) (A) (A) (A) (A) (A) (A) (A)
                 (A) (A) (A) (A) (A) (A) (A) (A) (A) (A) (A) (A)
                 (A) (A) (A) (A) (A) (A) (A) (A) (A) (A) (A) (A)
                 (A) (A) (A) (A) (A) (A) (A) (A) (A) (A) (A) (A)
                 (A) (A) (A) (A) (A) (A) (A) (A) (A) (A) (A) (A)
                 (A) (A) (A) (A) (A) (A) (A) (A) (A) (A) (A) (A)
                 (A) (A) (A) (A) (A) (A) (A) (A) (A) (A) (A) (A)
                 (A) (A) (A) (A) (A) (A) (A) (A) (A) (A) (A) (A)
                 (A) (A) (A) (A) (A) (A) (A) (A) (A) (A) (A) (A)
                 (A) (A) (A) (A) (A) (A) (A) (A) (A) (A) (A) (A)
                 (A) (A) (A) (A) (A) (A) (A) (A) (A) (A) (A) (A)
                 (A) (A) (A) (A) (A) (A) (A) (A) (A) (A) (A) (A)
                 (A) (A) (A) (A) (A) (A) (A) (A) (A) (A) (A) (A)
                 (A) (A) (A) (A) (A) (A) (A) (A) (A) (A) (A) (A)
                 (A) (A) (A) (A) (A) (A) (A) (A) (A) (A) (A) (A)
                 (A) (A) (A) (A) (A) (A) (A) (A) (A) (A) (A) (A)
                 (A) (A) (A) (A) (A) (A) (A) (A) (A) (A) (A) (A)
                 (A) (A) (A) (A) (A) (A) (A) (A) (A) (A) (A) (A)
                 (A) (A) (A) (A) (A) (A) (A) (A) (A) (A) (A) (A)
                 (A) (A) (A) (A) (A) (A) (A) (A) (A) (A) (A) (A)
                 (A) (A) (A) (A) (A) (A)
 Beta  Orbitals:
       Occupied  (A) (A) (A) (A) (A) (A) (A) (A) (A) (A) (A) (A)
                 (A) (A) (A) (A) (A) (A) (A) (A) (A) (A) (A) (A)
                 (A) (A) (A) (A) (A) (A) (A) (A) (A) (A) (A) (A)
                 (A) (A) (A) (A) (A) (A) (A) (A) (A) (A) (A) (A)
                 (A) (A) (A) (A) (A) (A) (A) (A) (A) (A) (A) (A)
                 (A) (A) (A) (A) (A) (A) (A) (A) (A) (A) (A) (A)
                 (A) (A) (A) (A) (A) (A) (A) (A) (A) (A) (A) (A)
                 (A) (A) (A) (A) (A) (A) (A) (A)
       Virtual   (A) (A) (A) (A) (A) (A) (A) (A) (A) (A) (A) (A)
                 (A) (A) (A) (A) (A) (A) (A) (A) (A) (A) (A) (A)
                 (A) (A) (A) (A) (A) (A) (A) (A) (A) (A) (A) (A)
                 (A) (A) (A) (A) (A) (A) (A) (A) (A) (A) (A) (A)
                 (A) (A) (A) (A) (A) (A) (A) (A) (A) (A) (A) (A)
                 (A) (A) (A) (A) (A) (A) (A) (A) (A) (A) (A) (A)
                 (A) (A) (A) (A) (A) (A) (A) (A) (A) (A) (A) (A)
                 (A) (A) (A) (A) (A) (A) (A) (A) (A) (A) (A) (A)
                 (A) (A) (A) (A) (A) (A) (A) (A) (A) (A) (A) (A)
                 (A) (A) (A) (A) (A) (A) (A) (A) (A) (A) (A) (A)
                 (A) (A) (A) (A) (A) (A) (A) (A) (A) (A) (A) (A)
                 (A) (A) (A) (A) (A) (A) (A) (A) (A) (A) (A) (A)
                 (A) (A) (A) (A) (A) (A) (A) (A) (A) (A) (A) (A)
                 (A) (A) (A) (A) (A) (A) (A) (A) (A) (A) (A) (A)
                 (A) (A) (A) (A) (A) (A) (A) (A) (A) (A) (A) (A)
                 (A) (A) (A) (A) (A) (A) (A) (A) (A) (A) (A) (A)
                 (A) (A) (A) (A) (A) (A) (A) (A) (A) (A) (A) (A)
                 (A) (A) (A) (A) (A) (A) (A) (A) (A) (A) (A) (A)
                 (A) (A) (A) (A) (A) (A) (A) (A) (A) (A) (A) (A)
                 (A) (A) (A) (A) (A) (A) (A) (A) (A) (A) (A) (A)
                 (A) (A) (A) (A) (A) (A) (A) (A) (A) (A) (A) (A)
                 (A) (A) (A) (A) (A) (A) (A) (A) (A) (A) (A) (A)
                 (A) (A) (A) (A) (A) (A) (A) (A) (A) (A) (A) (A)
                 (A) (A) (A) (A) (A) (A) (A) (A) (A) (A) (A) (A)
                 (A) (A) (A) (A) (A) (A) (A) (A) (A) (A) (A) (A)
                 (A) (A) (A) (A) (A) (A) (A) (A) (A) (A) (A) (A)
                 (A) (A) (A) (A) (A) (A) (A) (A) (A) (A) (A) (A)
                 (A) (A) (A) (A) (A) (A) (A) (A) (A) (A) (A) (A)
                 (A) (A) (A) (A) (A) (A) (A) (A) (A) (A) (A) (A)
                 (A) (A) (A) (A) (A) (A) (A) (A) (A) (A) (A) (A)
                 (A) (A) (A) (A) (A) (A) (A) (A) (A) (A) (A) (A)
                 (A) (A) (A) (A) (A) (A) (A) (A) (A) (A) (A) (A)
                 (A) (A) (A) (A) (A) (A) (A) (A) (A) (A) (A) (A)
                 (A) (A) (A) (A) (A) (A) (A) (A) (A) (A) (A) (A)
                 (A) (A) (A) (A) (A) (A) (A) (A) (A) (A) (A) (A)
                 (A) (A) (A) (A) (A) (A) (A) (A) (A) (A) (A) (A)
                 (A) (A) (A) (A) (A) (A) (A) (A) (A) (A) (A) (A)
                 (A) (A) (A) (A) (A) (A) (A) (A) (A) (A) (A) (A)
                 (A) (A) (A) (A) (A) (A) (A) (A) (A) (A) (A) (A)
                 (A) (A) (A) (A) (A) (A) (A) (A) (A) (A) (A) (A)
                 (A) (A) (A) (A) (A) (A) (A) (A) (A) (A) (A) (A)
                 (A) (A) (A) (A) (A) (A) (A) (A) (A) (A) (A) (A)
                 (A) (A) (A) (A) (A) (A) (A) (A) (A) (A) (A) (A)
                 (A) (A) (A) (A) (A) (A) (A) (A) (A) (A) (A) (A)
                 (A) (A) (A) (A) (A) (A) (A)
 The electronic state is 2-A.
 Alpha  occ. eigenvalues --  -19.00945 -18.99948 -14.31898 -10.18670 -10.17915
 Alpha  occ. eigenvalues --  -10.17662 -10.17486 -10.17021 -10.13516 -10.13277
 Alpha  occ. eigenvalues --  -10.13248 -10.12924 -10.12917 -10.12479 -10.12376
 Alpha  occ. eigenvalues --  -10.12334 -10.12207 -10.12176 -10.11819 -10.11713
 Alpha  occ. eigenvalues --  -10.11710 -10.10054 -10.08538 -10.08535 -10.07900
 Alpha  occ. eigenvalues --  -10.07860 -10.07841  -1.20528  -1.19739  -1.16510
 Alpha  occ. eigenvalues --   -1.03338  -1.03014  -1.01228  -0.98564  -0.94284
 Alpha  occ. eigenvalues --   -0.93543  -0.92352  -0.91628  -0.91392  -0.89636
 Alpha  occ. eigenvalues --   -0.87454  -0.86679  -0.81962  -0.81752  -0.79937
 Alpha  occ. eigenvalues --   -0.78729  -0.77898  -0.76782  -0.74159  -0.73609
 Alpha  occ. eigenvalues --   -0.73269  -0.72673  -0.72253  -0.68232  -0.67830
 Alpha  occ. eigenvalues --   -0.67235  -0.66940  -0.64663  -0.64502  -0.63415
 Alpha  occ. eigenvalues --   -0.62539  -0.61234  -0.61068  -0.60714  -0.60305
 Alpha  occ. eigenvalues --   -0.59944  -0.59654  -0.59375  -0.59058  -0.58549
 Alpha  occ. eigenvalues --   -0.58146  -0.56921  -0.56054  -0.55765  -0.55641
 Alpha  occ. eigenvalues --   -0.54595  -0.54305  -0.53387  -0.52904  -0.52596
 Alpha  occ. eigenvalues --   -0.52257  -0.51981  -0.50144  -0.48941  -0.48301
 Alpha  occ. eigenvalues --   -0.46514  -0.45631  -0.44939  -0.44187  -0.41683
 Alpha  occ. eigenvalues --   -0.40943  -0.40893  -0.38682
 Alpha virt. eigenvalues --   -0.11137  -0.10530  -0.10009  -0.08595  -0.07639
 Alpha virt. eigenvalues --   -0.06521  -0.05149  -0.03561  -0.01708  -0.01403
 Alpha virt. eigenvalues --   -0.00779   0.00382   0.00881   0.02137   0.02399
 Alpha virt. eigenvalues --    0.02842   0.03276   0.03631   0.04818   0.04993
 Alpha virt. eigenvalues --    0.05484   0.05747   0.05927   0.06479   0.07160
 Alpha virt. eigenvalues --    0.07635   0.07831   0.08242   0.08598   0.09825
 Alpha virt. eigenvalues --    0.09988   0.10282   0.10763   0.10941   0.11140
 Alpha virt. eigenvalues --    0.11649   0.12964   0.13487   0.13882   0.14105
 Alpha virt. eigenvalues --    0.14325   0.15226   0.15365   0.15487   0.15966
 Alpha virt. eigenvalues --    0.16577   0.16750   0.17012   0.17403   0.17943
 Alpha virt. eigenvalues --    0.18016   0.18393   0.18672   0.19078   0.19662
 Alpha virt. eigenvalues --    0.20115   0.20248   0.20323   0.21367   0.21417
 Alpha virt. eigenvalues --    0.21642   0.21894   0.22217   0.22429   0.22778
 Alpha virt. eigenvalues --    0.22964   0.23442   0.23961   0.24159   0.24856
 Alpha virt. eigenvalues --    0.25086   0.25655   0.26046   0.26399   0.26689
 Alpha virt. eigenvalues --    0.27164   0.27543   0.28095   0.28483   0.29129
 Alpha virt. eigenvalues --    0.29503   0.29573   0.29920   0.30305   0.30350
 Alpha virt. eigenvalues --    0.30548   0.31285   0.31686   0.31910   0.32224
 Alpha virt. eigenvalues --    0.32439   0.33130   0.33349   0.33414   0.33764
 Alpha virt. eigenvalues --    0.33909   0.34505   0.35000   0.35121   0.36173
 Alpha virt. eigenvalues --    0.36340   0.36485   0.36906   0.37343   0.37461
 Alpha virt. eigenvalues --    0.37858   0.38363   0.38449   0.38919   0.39161
 Alpha virt. eigenvalues --    0.39530   0.39858   0.40560   0.40598   0.41065
 Alpha virt. eigenvalues --    0.41136   0.41698   0.41719   0.41991   0.42579
 Alpha virt. eigenvalues --    0.42902   0.43317   0.44182   0.44505   0.45069
 Alpha virt. eigenvalues --    0.45185   0.45687   0.46004   0.46308   0.47069
 Alpha virt. eigenvalues --    0.47337   0.47608   0.48439   0.48562   0.48790
 Alpha virt. eigenvalues --    0.49146   0.49839   0.50926   0.51173   0.51587
 Alpha virt. eigenvalues --    0.51766   0.52574   0.53126   0.53476   0.54448
 Alpha virt. eigenvalues --    0.56043   0.56306   0.57303   0.57915   0.58479
 Alpha virt. eigenvalues --    0.59059   0.59263   0.60900   0.61203   0.61334
 Alpha virt. eigenvalues --    0.61823   0.62646   0.62826   0.63234   0.63367
 Alpha virt. eigenvalues --    0.64434   0.64839   0.65196   0.65691   0.66194
 Alpha virt. eigenvalues --    0.66513   0.66722   0.68299   0.68786   0.69012
 Alpha virt. eigenvalues --    0.69679   0.71492   0.72271   0.73057   0.73587
 Alpha virt. eigenvalues --    0.74606   0.75695   0.76738   0.77286   0.78425
 Alpha virt. eigenvalues --    0.78957   0.80003   0.81151   0.83698   0.84815
 Alpha virt. eigenvalues --    0.86145   0.86452   0.87801   1.04010   1.06530
 Alpha virt. eigenvalues --    1.07751   1.12670   1.12818   1.13853   1.14349
 Alpha virt. eigenvalues --    1.15062   1.15456   1.15901   1.15939   1.16198
 Alpha virt. eigenvalues --    1.16888   1.17821   1.18191   1.18669   1.19028
 Alpha virt. eigenvalues --    1.19812   1.20113   1.20519   1.20999   1.21356
 Alpha virt. eigenvalues --    1.21930   1.22435   1.22579   1.23162   1.23360
 Alpha virt. eigenvalues --    1.23858   1.24178   1.24702   1.25128   1.25671
 Alpha virt. eigenvalues --    1.26222   1.26586   1.26847   1.27082   1.27963
 Alpha virt. eigenvalues --    1.28674   1.29590   1.30218   1.32209   1.32273
 Alpha virt. eigenvalues --    1.32783   1.33010   1.33596   1.33771   1.34261
 Alpha virt. eigenvalues --    1.34863   1.35267   1.35549   1.35754   1.36206
 Alpha virt. eigenvalues --    1.36355   1.36586   1.37068   1.37338   1.37618
 Alpha virt. eigenvalues --    1.37966   1.38830   1.39072   1.39344   1.39422
 Alpha virt. eigenvalues --    1.40148   1.40300   1.41039   1.41374   1.41557
 Alpha virt. eigenvalues --    1.42456   1.42706   1.43227   1.43544   1.43809
 Alpha virt. eigenvalues --    1.44000   1.44125   1.44360   1.44571   1.44831
 Alpha virt. eigenvalues --    1.45719   1.45863   1.46249   1.46520   1.47053
 Alpha virt. eigenvalues --    1.47331   1.47671   1.47923   1.48540   1.48751
 Alpha virt. eigenvalues --    1.49866   1.49958   1.50704   1.51143   1.51791
 Alpha virt. eigenvalues --    1.52766   1.53635   1.54776   1.55766   1.57053
 Alpha virt. eigenvalues --    1.57528   1.58547   1.58936   1.60064   1.60803
 Alpha virt. eigenvalues --    1.62423   1.64264   1.65523   1.66077   1.66609
 Alpha virt. eigenvalues --    1.67311   1.67817   1.68413   1.69245   1.69839
 Alpha virt. eigenvalues --    1.70164   1.70393   1.70905   1.71236   1.71650
 Alpha virt. eigenvalues --    1.72265   1.72519   1.72769   1.73735   1.74423
 Alpha virt. eigenvalues --    1.74585   1.75344   1.76821   1.77066   1.78156
 Alpha virt. eigenvalues --    1.79090   1.79700   1.79892   1.80850   1.81421
 Alpha virt. eigenvalues --    1.81788   1.82115   1.82244   1.82513   1.82803
 Alpha virt. eigenvalues --    1.83206   1.83478   1.83577   1.84028   1.84887
 Alpha virt. eigenvalues --    1.85440   1.85966   1.87093   1.87203   1.87388
 Alpha virt. eigenvalues --    1.88735   1.88890   1.89872   1.90242   1.91515
 Alpha virt. eigenvalues --    1.91908   1.92467   1.92959   1.93047   1.93538
 Alpha virt. eigenvalues --    1.95329   1.95765   1.95948   1.97079   1.98415
 Alpha virt. eigenvalues --    2.00225   2.01991   2.03404   2.03660   2.06570
 Alpha virt. eigenvalues --    2.07738   2.08756   2.10630   2.11219   2.12120
 Alpha virt. eigenvalues --    2.12899   2.14101   2.14981   2.16213   2.17378
 Alpha virt. eigenvalues --    2.18491   2.18914   2.19455   2.20132   2.20323
 Alpha virt. eigenvalues --    2.20743   2.21151   2.21736   2.21786   2.22235
 Alpha virt. eigenvalues --    2.22390   2.23394   2.23650   2.24123   2.24860
 Alpha virt. eigenvalues --    2.25480   2.26066   2.26480   2.27032   2.27483
 Alpha virt. eigenvalues --    2.27835   2.27948   2.28114   2.28803   2.28919
 Alpha virt. eigenvalues --    2.30265   2.30430   2.31010   2.33708   2.34861
 Alpha virt. eigenvalues --    2.36065   2.37542   2.38824   2.41502   2.42558
 Alpha virt. eigenvalues --    2.43267   2.43613   2.44491   2.45790   2.46096
 Alpha virt. eigenvalues --    2.47035   2.47108   2.47953   2.49777   2.50089
 Alpha virt. eigenvalues --    2.50205   2.50558   2.51377   2.53420   2.53629
 Alpha virt. eigenvalues --    2.54127   2.54413   2.55036   2.55719   2.56875
 Alpha virt. eigenvalues --    2.58270   2.58358   2.58997   2.60145   2.61246
 Alpha virt. eigenvalues --    2.61932   2.62694   2.63592   2.64137   2.64371
 Alpha virt. eigenvalues --    2.65737   2.66460   2.67279   2.69578   2.71397
 Alpha virt. eigenvalues --    2.71453   2.73697   2.74402   2.74895   2.75487
 Alpha virt. eigenvalues --    2.76780   2.77866   2.81600   2.82551   2.82735
 Alpha virt. eigenvalues --    2.83782   2.85364   2.86896   2.88136   2.88918
 Alpha virt. eigenvalues --    2.89356   2.90564   2.91558   2.92429   2.92859
 Alpha virt. eigenvalues --    2.93753   2.94446   2.95283   2.97040   2.97111
 Alpha virt. eigenvalues --    2.97366   2.98452   2.99273   3.00502   3.02040
 Alpha virt. eigenvalues --    3.02382   3.03493   3.05032   3.05319   3.06286
 Alpha virt. eigenvalues --    3.07035   3.07823   3.09001   3.10057   3.10839
 Alpha virt. eigenvalues --    3.11331   3.12378   3.12864   3.13527   3.15128
 Alpha virt. eigenvalues --    3.16283   3.17527   3.18809   3.19903   3.22778
 Alpha virt. eigenvalues --    3.23507   3.25145   3.26689   3.28372   3.29304
 Alpha virt. eigenvalues --    3.29626   3.33251   3.33508   3.42413   3.43876
 Alpha virt. eigenvalues --    3.44926   3.45682   3.46249   3.47508   3.59663
 Alpha virt. eigenvalues --    3.70266   3.70890   3.78463   3.95223   3.96058
 Alpha virt. eigenvalues --    4.20664   4.21541  20.97827  21.10856  21.13342
 Alpha virt. eigenvalues --   21.21823  21.51752  21.56922  21.59370  21.61178
 Alpha virt. eigenvalues --   21.62538  21.63437  21.69461  21.74290  21.78295
 Alpha virt. eigenvalues --   21.83242  21.84284  21.84514  21.86548  21.88256
 Alpha virt. eigenvalues --   21.89862  21.91435  21.96030  21.99402  22.01869
 Alpha virt. eigenvalues --   22.04664  31.86139  43.11775  43.14185
  Beta  occ. eigenvalues --  -19.00856 -18.99965 -14.31103 -10.18557 -10.17975
  Beta  occ. eigenvalues --  -10.17726 -10.17509 -10.17025 -10.13415 -10.13183
  Beta  occ. eigenvalues --  -10.13065 -10.12786 -10.12781 -10.12499 -10.12261
  Beta  occ. eigenvalues --  -10.12200 -10.12145 -10.12084 -10.11843 -10.11767
  Beta  occ. eigenvalues --  -10.11763 -10.10069 -10.08505 -10.08502 -10.07889
  Beta  occ. eigenvalues --  -10.07873 -10.07830  -1.20366  -1.19768  -1.15493
  Beta  occ. eigenvalues --   -1.03122  -1.02818  -1.00961  -0.98460  -0.94078
  Beta  occ. eigenvalues --   -0.93330  -0.92236  -0.91476  -0.91232  -0.89317
  Beta  occ. eigenvalues --   -0.87419  -0.86438  -0.81716  -0.81560  -0.79741
  Beta  occ. eigenvalues --   -0.78556  -0.77776  -0.76652  -0.74070  -0.73504
  Beta  occ. eigenvalues --   -0.73178  -0.72548  -0.72072  -0.68113  -0.67630
  Beta  occ. eigenvalues --   -0.66825  -0.66773  -0.64461  -0.64381  -0.63306
  Beta  occ. eigenvalues --   -0.62437  -0.61105  -0.60943  -0.60644  -0.60166
  Beta  occ. eigenvalues --   -0.59745  -0.59336  -0.59192  -0.58905  -0.58475
  Beta  occ. eigenvalues --   -0.57563  -0.56673  -0.55987  -0.55634  -0.55518
  Beta  occ. eigenvalues --   -0.54235  -0.54047  -0.52913  -0.52793  -0.52377
  Beta  occ. eigenvalues --   -0.52175  -0.51898  -0.49020  -0.48899  -0.48162
  Beta  occ. eigenvalues --   -0.45874  -0.44994  -0.44567  -0.42891  -0.40885
  Beta  occ. eigenvalues --   -0.40852  -0.39711
  Beta virt. eigenvalues --   -0.23847  -0.10481  -0.10212  -0.09429  -0.08137
  Beta virt. eigenvalues --   -0.07146  -0.05764  -0.05067  -0.03043  -0.01665
  Beta virt. eigenvalues --   -0.01370  -0.00707   0.00456   0.00953   0.02188
[...]
     4   Atom        0.006341     -0.009558      0.003217
     5   Atom        0.004607     -0.009922      0.005315
     6   Atom       -0.010395      0.023795     -0.013400
     7   Atom        0.002319     -0.000376     -0.001943
     8   Atom       -0.000122     -0.000961      0.001083
     9   Atom        0.000727     -0.000671     -0.000055
    10   Atom       -0.000109     -0.000958      0.001068
    11   Atom       -0.072225     -0.013930      0.086155
    12   Atom        0.021106      0.002622     -0.023728
    13   Atom        0.022389      0.002050     -0.024439
    14   Atom       -0.055096      0.038555      0.016541
    15   Atom       -0.052653      0.037387      0.015266
    16   Atom        0.005325     -0.022130      0.016805
    17   Atom        0.001481     -0.000569     -0.000912
    18   Atom        0.001521     -0.000549     -0.000973
    19   Atom       -0.002713      0.003439     -0.000726
    20   Atom       -0.003058      0.003493     -0.000435
    21   Atom        0.000733     -0.000675     -0.000058
    22   Atom       -0.489557     -0.486887      0.976443
    23   Atom       -0.005309      0.013202     -0.007892
    24   Atom        0.018765     -0.032870      0.014105
    25   Atom       -0.000535     -0.022327      0.022862
    26   Atom        0.007235      0.015177     -0.022412
    27   Atom        0.008635      0.018836     -0.027471
    28   Atom       -0.034599     -0.051665      0.086264
    29   Atom        0.000776     -0.000515     -0.000260
    30   Atom        0.003938     -0.003746     -0.000192
    31   Atom        0.000786      0.000789     -0.001575
    32   Atom       -0.002857      0.006404     -0.003547
    33   Atom       -0.009144     -0.007952      0.017097
    34   Atom        0.057842     -0.029588     -0.028255
    35   Atom        0.016852      0.012324     -0.029177
    36   Atom        0.004478      0.000060     -0.004538
    37   Atom       -0.006328      0.012020     -0.005691
    38   Atom        0.009292     -0.022748      0.013456
    39   Atom        0.000151     -0.001637      0.001486
    40   Atom       -0.000312     -0.001178      0.001491
    41   Atom       -0.000361     -0.000054      0.000415
    42   Atom       -0.000795      0.000323      0.000472
    43   Atom        0.032710     -0.039375      0.006664
    44   Atom        0.002324     -0.003660      0.001335
    45   Atom        0.012265      0.009839     -0.022104
    46   Atom        0.001942     -0.001745     -0.000197
 --------------------------------------------------------
                        XY            XZ            YZ
 --------------------------------------------------------
     1   Atom        0.000552     -0.000045     -0.003707
     2   Atom        0.001496      0.000360      0.010891
     3   Atom        0.009592     -0.000877      0.001198
     4   Atom       -0.001739     -0.000353     -0.003644
     5   Atom       -0.000329      0.000100      0.002063
     6   Atom       -0.007515      0.000781      0.001603
     7   Atom       -0.000075     -0.000099      0.000388
     8   Atom        0.000001     -0.000077     -0.001190
     9   Atom       -0.000085     -0.000085     -0.000086
    10   Atom       -0.000118      0.000063     -0.001196
    11   Atom        0.004460      0.007251      0.102907
    12   Atom       -0.004456     -0.007250     -0.024034
    13   Atom        0.001358      0.002543     -0.025491
    14   Atom       -0.013163     -0.007442      0.081635
    15   Atom        0.021747      0.015181      0.081169
    16   Atom        0.002046      0.005248     -0.001689
    17   Atom        0.000430     -0.000320     -0.001984
    18   Atom       -0.000723      0.000064     -0.001892
    19   Atom        0.001417     -0.002055     -0.005286
    20   Atom       -0.001599      0.001691     -0.005216
    21   Atom       -0.000008      0.000037     -0.000092
    22   Atom       -0.001379      0.038006     -0.073924
    23   Atom       -0.016266      0.018225      0.011512
    24   Atom        0.034056     -0.064159     -0.035917
    25   Atom        0.056923     -0.080033     -0.061966
    26   Atom       -0.011268      0.023765      0.018952
    27   Atom       -0.014163      0.029154      0.018497
    28   Atom        0.029372     -0.085902     -0.062735
    29   Atom        0.002558      0.003485      0.003666
    30   Atom        0.000992      0.005987      0.000002
    31   Atom       -0.001865      0.001303      0.000389
    32   Atom       -0.007859     -0.004014     -0.001669
    33   Atom        0.006280      0.018073     -0.007773
    34   Atom       -0.032168      0.033845     -0.014865
    35   Atom       -0.052268      0.022680     -0.017024
    36   Atom        0.008808     -0.005983      0.008748
    37   Atom        0.004900     -0.013121      0.003962
    38   Atom       -0.035175      0.061840     -0.038892
    39   Atom       -0.000965     -0.004460      0.002738
    40   Atom       -0.000712     -0.004346      0.002440
    41   Atom        0.001085     -0.001535      0.000598
    42   Atom        0.000948     -0.001293      0.000921
    43   Atom       -0.071490      0.101761     -0.064837
    44   Atom        0.001202     -0.004885     -0.001905
    45   Atom       -0.007573      0.020523      0.014450
    46   Atom        0.000294      0.001750     -0.000128
 --------------------------------------------------------


 ---------------------------------------------------------------------------------
              Anisotropic Spin Dipole Couplings in Principal Axis System
 ---------------------------------------------------------------------------------

       Atom             a.u.   MegaHertz   Gauss  10(-4) cm-1        Axes

              Baa    -0.0107    -1.433    -0.511    -0.478 -0.0304  0.9657  0.2578
     1 C(13)  Bbb     0.0042     0.560     0.200     0.187  0.0800 -0.2548  0.9637
              Bcc     0.0065     0.873     0.311     0.291  0.9963  0.0499 -0.0695
 
              Baa    -0.0153    -2.057    -0.734    -0.686  0.0177 -0.2573  0.9662
     2 C(13)  Bbb    -0.0133    -1.785    -0.637    -0.595  0.9992 -0.0309 -0.0265
              Bcc     0.0286     3.841     1.371     1.281  0.0367  0.9658  0.2565
 
              Baa    -0.0140    -1.878    -0.670    -0.627  0.4918 -0.1565  0.8565
     3 C(13)  Bbb    -0.0114    -1.525    -0.544    -0.509  0.8293 -0.2155 -0.5155
              Bcc     0.0254     3.403     1.214     1.135  0.2653  0.9639  0.0239
 
              Baa    -0.0107    -1.437    -0.513    -0.479  0.1033  0.9616  0.2543
     4 C(13)  Bbb     0.0042     0.561     0.200     0.187 -0.0442 -0.2509  0.9670
              Bcc     0.0065     0.876     0.313     0.292  0.9937 -0.1112  0.0165
 
              Baa    -0.0102    -1.369    -0.489    -0.457  0.0229  0.9910 -0.1319
     5 C(13)  Bbb     0.0046     0.619     0.221     0.206  0.9981 -0.0302 -0.0532
              Bcc     0.0056     0.750     0.268     0.250  0.0567  0.1304  0.9898
 
              Baa    -0.0140    -1.883    -0.672    -0.628 -0.4525 -0.1273  0.8826
     6 C(13)  Bbb    -0.0114    -1.529    -0.546    -0.510  0.8680  0.1640  0.4687
              Bcc     0.0254     3.412     1.217     1.138 -0.2044  0.9782  0.0363
 
              Baa    -0.0020    -1.086    -0.387    -0.362  0.0183 -0.2267  0.9738
     7 H(1)   Bbb    -0.0003    -0.154    -0.055    -0.051  0.0364  0.9735  0.2259
              Bcc     0.0023     1.240     0.442     0.414  0.9992 -0.0313 -0.0260
 
              Baa    -0.0015    -0.805    -0.287    -0.268  0.0224  0.9083  0.4178
     8 H(1)   Bbb    -0.0001    -0.066    -0.024    -0.022  0.9989 -0.0371  0.0269
              Bcc     0.0016     0.871     0.311     0.291 -0.0399 -0.4168  0.9081
 
              Baa    -0.0007    -0.368    -0.131    -0.123  0.0678  0.9874  0.1432
     9 H(1)   Bbb    -0.0001    -0.027    -0.010    -0.009  0.0914 -0.1491  0.9846
              Bcc     0.0007     0.395     0.141     0.132  0.9935 -0.0537 -0.1003
 
              Baa    -0.0015    -0.809    -0.289    -0.270  0.0570  0.9067  0.4180
    10 H(1)   Bbb    -0.0001    -0.059    -0.021    -0.020  0.9965 -0.0258 -0.0798
              Bcc     0.0016     0.869     0.310     0.290  0.0616 -0.4211  0.9049
 
              Baa    -0.0783   -10.510    -3.750    -3.506  0.0113  0.8475 -0.5307
    11 C(13)  Bbb    -0.0725    -9.735    -3.474    -3.247  0.9992 -0.0298 -0.0263
              Bcc     0.1509    20.245     7.224     6.753  0.0381  0.5300  0.8471
 
              Baa    -0.0392    -5.255    -1.875    -1.753  0.1398  0.5049  0.8518
    12 C(13)  Bbb     0.0169     2.261     0.807     0.754  0.0251  0.8582 -0.5127
              Bcc     0.0223     2.994     1.068     0.999  0.9899 -0.0931 -0.1073
 
              Baa    -0.0401    -5.375    -1.918    -1.793 -0.0461  0.5184  0.8539
    13 C(13)  Bbb     0.0175     2.352     0.839     0.785  0.0318  0.8551 -0.5175
              Bcc     0.0225     3.023     1.079     1.008  0.9984 -0.0033  0.0559
 
              Baa    -0.0588    -7.886    -2.814    -2.631  0.7882  0.4546 -0.4149
    14 C(13)  Bbb    -0.0525    -7.041    -2.512    -2.349  0.6090 -0.4789  0.6322
              Bcc     0.1112    14.927     5.326     4.979 -0.0887  0.7510  0.6543
 
              Baa    -0.0591    -7.934    -2.831    -2.647  0.7712 -0.5025  0.3909
    15 C(13)  Bbb    -0.0533    -7.156    -2.554    -2.387 -0.6168 -0.4376  0.6543
              Bcc     0.1125    15.091     5.385     5.034  0.1577  0.7457  0.6474
 
              Baa    -0.0224    -3.005    -1.072    -1.002 -0.0837  0.9950  0.0541
    16 C(13)  Bbb     0.0035     0.474     0.169     0.158  0.9297  0.0975 -0.3552
              Bcc     0.0189     2.531     0.903     0.844  0.3588 -0.0206  0.9332
 
              Baa    -0.0027    -1.458    -0.520    -0.486 -0.0132  0.6772  0.7357
    17 H(1)   Bbb     0.0008     0.438     0.156     0.146  0.6279 -0.5670  0.5331
              Bcc     0.0019     1.020     0.364     0.340  0.7781  0.4690 -0.4178
 
              Baa    -0.0027    -1.446    -0.516    -0.482  0.1042  0.6746  0.7308
    18 H(1)   Bbb     0.0007     0.394     0.141     0.132 -0.5689 -0.5623  0.6002
              Bcc     0.0020     1.051     0.375     0.351  0.8158 -0.4783  0.3251
 
              Baa    -0.0048    -2.571    -0.917    -0.857  0.4778  0.4140  0.7748
    19 H(1)   Bbb    -0.0028    -1.467    -0.524    -0.489  0.8499 -0.4409 -0.2885
              Bcc     0.0076     4.038     1.441     1.347  0.2222  0.7964 -0.5625
 
              Baa    -0.0043    -2.309    -0.824    -0.770 -0.5051  0.4050  0.7621
    20 H(1)   Bbb    -0.0033    -1.741    -0.621    -0.581  0.8372  0.4443  0.3188
              Bcc     0.0076     4.050     1.445     1.351 -0.2095  0.7991 -0.5635
 
              Baa    -0.0007    -0.367    -0.131    -0.122  0.0016  0.9895  0.1443
    21 H(1)   Bbb    -0.0000    -0.025    -0.009    -0.008 -0.0479 -0.1441  0.9884
              Bcc     0.0007     0.392     0.140     0.131  0.9989 -0.0085  0.0472
 
              Baa    -0.4911   -18.941    -6.759    -6.318 -0.6828  0.7286  0.0544
    22 N(14)  Bbb    -0.4900   -18.900    -6.744    -6.304  0.7302  0.6831  0.0155
              Bcc     0.9812    37.841    13.503    12.622  0.0258 -0.0503  0.9984
 
              Baa    -0.0331    -4.448    -1.587    -1.484  0.6530  0.3904 -0.6491
    23 C(13)  Bbb     0.0105     1.403     0.501     0.468  0.5854  0.2836  0.7595
              Bcc     0.0227     3.046     1.087     1.016 -0.4805  0.8759  0.0434
 
              Baa    -0.0523    -7.022    -2.506    -2.342  0.0588  0.8533  0.5181
    24 C(13)  Bbb    -0.0468    -6.284    -2.242    -2.096  0.7397 -0.3858  0.5514
              Bcc     0.0992    13.306     4.748     4.439  0.6704  0.3508 -0.6538
 
              Baa    -0.0710    -9.521    -3.397    -3.176  0.8077 -0.4261  0.4076
    25 C(13)  Bbb    -0.0656    -8.805    -3.142    -2.937  0.0926  0.7743  0.6260
              Bcc     0.1366    18.327     6.539     6.113 -0.5823 -0.4679  0.6648
 
              Baa    -0.0438    -5.881    -2.099    -1.962 -0.4576 -0.3499  0.8174
    26 C(13)  Bbb     0.0203     2.724     0.972     0.909  0.8231  0.1809  0.5383
              Bcc     0.0235     3.158     1.127     1.053 -0.3362  0.9191  0.2052
 
              Baa    -0.0513    -6.884    -2.456    -2.296 -0.4742 -0.3128  0.8230
    27 C(13)  Bbb     0.0224     3.000     1.070     1.001  0.5862  0.5853  0.5602
              Bcc     0.0289     3.884     1.386     1.296 -0.6569  0.7481 -0.0942
 
              Baa    -0.0805   -10.803    -3.855    -3.603  0.7365  0.4139  0.5351
    28 C(13)  Bbb    -0.0736    -9.882    -3.526    -3.296 -0.5195  0.8527  0.0554
              Bcc     0.1541    20.684     7.381     6.900 -0.4333 -0.3188  0.8430
 
              Baa    -0.0042    -2.236    -0.798    -0.746 -0.2237 -0.6058  0.7635
    29 H(1)   Bbb    -0.0023    -1.234    -0.440    -0.411  0.7675 -0.5924 -0.2452
              Bcc     0.0065     3.470     1.238     1.157  0.6008  0.5311  0.5975
 
              Baa    -0.0048    -2.556    -0.912    -0.853 -0.5278  0.4997  0.6868
    30 H(1)   Bbb    -0.0035    -1.851    -0.660    -0.617  0.2420  0.8636 -0.4424
              Bcc     0.0083     4.407     1.573     1.470  0.8142  0.0673  0.5767
 
              Baa    -0.0026    -1.385    -0.494    -0.462 -0.5037 -0.3673  0.7819
    31 H(1)   Bbb    -0.0002    -0.086    -0.031    -0.029  0.4585  0.6534  0.6023
              Bcc     0.0028     1.471     0.525     0.491  0.7321 -0.6619  0.1607
 
              Baa    -0.0102    -5.423    -1.935    -1.809  0.7338  0.4031  0.5468
    32 H(1)   Bbb    -0.0008    -0.401    -0.143    -0.134 -0.4555 -0.3052  0.8363
              Bcc     0.0109     5.825     2.078     1.943 -0.5040  0.8628  0.0403
 
              Baa    -0.0237    -3.186    -1.137    -1.063  0.7478 -0.5079 -0.4276
    33 C(13)  Bbb    -0.0031    -0.412    -0.147    -0.137  0.5071  0.8526 -0.1258
              Bcc     0.0268     3.598     1.284     1.200  0.4285 -0.1227  0.8952
 
              Baa    -0.0438    -5.878    -2.097    -1.961 -0.0049  0.7174  0.6967
    34 C(13)  Bbb    -0.0370    -4.968    -1.773    -1.657 -0.4416 -0.6266  0.6421
              Bcc     0.0808    10.846     3.870     3.618  0.8972 -0.3045  0.3199
 
              Baa    -0.0406    -5.446    -1.943    -1.816  0.6419  0.4299 -0.6349
    35 C(13)  Bbb    -0.0340    -4.559    -1.627    -1.521  0.3074  0.6143  0.7268
              Bcc     0.0746    10.004     3.570     3.337  0.7024 -0.6617  0.2622
 
              Baa    -0.0163    -2.190    -0.781    -0.731  0.4447 -0.5961  0.6684
    36 C(13)  Bbb     0.0049     0.661     0.236     0.220 -0.4710  0.4792  0.7407
              Bcc     0.0114     1.529     0.546     0.510  0.7618  0.6442  0.0677
 
              Baa    -0.0204    -2.731    -0.974    -0.911  0.7054 -0.1904  0.6828
    37 C(13)  Bbb     0.0071     0.948     0.338     0.316 -0.6799  0.0905  0.7277
              Bcc     0.0133     1.783     0.636     0.595  0.2003  0.9775  0.0656
 
              Baa    -0.0510    -6.843    -2.442    -2.283 -0.6072  0.2718  0.7466
    38 C(13)  Bbb    -0.0453    -6.082    -2.170    -2.029  0.4805  0.8740  0.0727
              Bcc     0.0963    12.926     4.612     4.311  0.6327 -0.4029  0.6613
 
              Baa    -0.0043    -2.285    -0.815    -0.762  0.5659 -0.4842  0.6673
    39 H(1)   Bbb    -0.0020    -1.058    -0.378    -0.353  0.5760  0.8113  0.1002
              Bcc     0.0063     3.344     1.193     1.115 -0.5899  0.3277  0.7380
 
              Baa    -0.0042    -2.264    -0.808    -0.755  0.6583 -0.3692  0.6560
    40 H(1)   Bbb    -0.0016    -0.842    -0.300    -0.281  0.4894  0.8721 -0.0003
              Bcc     0.0058     3.106     1.108     1.036 -0.5720  0.3212  0.7548
 
              Baa    -0.0022    -1.197    -0.427    -0.399  0.7030 -0.4895  0.5160
    41 H(1)   Bbb     0.0006     0.321     0.115     0.107  0.2820  0.8578  0.4296
              Bcc     0.0016     0.876     0.312     0.292 -0.6529 -0.1565  0.7411
 
              Baa    -0.0023    -1.203    -0.429    -0.401  0.7378 -0.4508  0.5023
    42 H(1)   Bbb     0.0008     0.444     0.159     0.148  0.6045  0.7724 -0.1947
              Bcc     0.0014     0.759     0.271     0.253 -0.3003  0.4473  0.8425
 
              Baa    -0.0852     6.163     2.199     2.056 -0.0541  0.7865  0.6152
    43 O(17)  Bbb    -0.0822     5.945     2.121     1.983  0.7325  0.4500 -0.5108
              Bcc     0.1673   -12.108    -4.320    -4.039  0.6786 -0.4230  0.6005
 
              Baa    -0.0044    -2.331    -0.832    -0.778  0.1524  0.8908  0.4280
    44 H(1)   Bbb    -0.0028    -1.497    -0.534    -0.499  0.6776 -0.4095  0.6109
              Bcc     0.0072     3.829     1.366     1.277  0.7195  0.1969 -0.6660
 
              Baa    -0.0373     2.700     0.964     0.901 -0.4036 -0.3267  0.8546
    45 O(17)  Bbb     0.0154    -1.114    -0.397    -0.372 -0.0390  0.9394  0.3407
              Bcc     0.0219    -1.587    -0.566    -0.529  0.9141 -0.1042  0.3919
 
              Baa    -0.0019    -0.987    -0.352    -0.329 -0.2068  0.9340  0.2912
    46 H(1)   Bbb    -0.0011    -0.577    -0.206    -0.192 -0.4423 -0.3548  0.8237
              Bcc     0.0029     1.564     0.558     0.522  0.8727  0.0415  0.4865
 

 ---------------------------------------------------------------------------------

 No NMR shielding tensors so no spin-rotation constants.
 Leave Link  601 at Sun Jan 17 23:20:50 2021, MaxMem=  4026531840 cpu:               7.1 elap:               1.0
 (Enter /opt/ohpc/pub/libs/gaussian/g16-A.03/sandybridge/g16/l9999.exe)

 Test job not archived.
 1\1\GINC-CASCADEB002\SP\ULC-wHPBE\TZVP\C24H19N1O2(1+,2)\RDU230\17-Jan-
 2021\0\\#P LC-wHPBE/TZVP iop(3/107=0182900000, 3/108=0182900000) scf=(
 conver=6,fermi,ndamp=35,noincfock,novaracc,vshift=500,xqc)\\H19 C24 N1
  O2\\1,2\C,0,-6.538108,-0.217341,1.255514\C,0,-7.258661,0.087287,0.107
 878\C,0,-5.15139,-0.259049,1.219222\C,0,-6.580697,0.348691,-1.075777\C
 ,0,-4.458004,0.000662,0.035726\C,0,-5.193998,0.304569,-1.110911\H,0,-8
 .345644,0.121015,0.135956\H,0,-4.59391,-0.476283,2.12835\H,0,-7.136138
 ,0.581164,-1.982188\H,0,-4.671509,0.488761,-2.047704\C,0,-2.974479,-0.
 044963,-0.00277\C,0,-2.240322,0.918366,-0.694597\C,0,-2.265576,-1.0512
 97,0.654611\C,0,-0.856277,0.875925,-0.739808\C,0,-0.88157,-1.094369,0.
 628888\C,0,-0.155643,-0.133238,-0.077397\H,0,-2.762026,1.727417,-1.202
 285\H,0,-2.809037,-1.823891,1.195264\H,0,-0.306381,1.639189,-1.284917\
 H,0,-0.352632,-1.885069,1.15502\H,0,-7.059465,-0.416189,2.189743\N,0,1
 .257026,-0.160831,-0.103806\C,0,1.965402,-1.377887,-0.17457\C,0,3.1900
 04,-1.508547,0.478017\C,0,1.461496,-2.456008,-0.912094\C,0,3.903051,-2
 .696891,0.390217\C,0,2.178621,-3.638306,-0.97461\C,0,3.402953,-3.77505
 6,-0.332839\H,0,3.600761,-0.690157,1.062074\H,0,0.51484,-2.358097,-1.4
 35231\H,0,1.782807,-4.471654,-1.551437\H,0,3.963923,-4.706428,-0.39805
 5\C,0,1.972861,1.068372,-0.045814\C,0,2.971482,1.350948,-0.972341\C,0,
 1.683086,2.012203,0.939258\C,0,3.67678,2.543988,-0.910119\C,0,2.365608
 ,3.214996,0.992156\C,0,3.371443,3.4833,0.069272\H,0,3.205268,0.621566,
 -1.744392\H,0,0.904271,1.798314,1.667748\H,0,4.460878,2.747602,-1.6391
 97\H,0,2.139895,3.954598,1.756001\O,0,4.022986,4.680331,0.173244\H,0,4
 .695287,4.73835,-0.517835\O,0,5.097214,-2.751708,1.053752\H,0,5.479651
 ,-3.631493,0.941087\\Version=EM64L-G16RevA.03\State=2-A\HF=-1130.25566
 81\S2=0.76735\S2-1=0.\S2A=0.750273\RMSD=9.519e-07\Dipole=1.7074953,-0.
 5689074,-0.6973877\Quadrupole=28.9205781,-2.0519253,-26.8686527,-3.099
 807,-7.1469953,-4.4137792\PG=C01 [X(C24H19N1O2)]\\@


 IF MATHEMATICALLY YOU END UP WITH THE INCORRECT ANSWER,
 TRY MULTIPLYING BY THE PAGE NUMBER.
 Job cpu time:       0 days  3 hours  0 minutes  5.5 seconds.
 Elapsed time:       0 days  0 hours 22 minutes 34.7 seconds.
 File lengths (MBytes):  RWF=    240 Int=      0 D2E=      0 Chk=     32 Scr=      8
 Normal termination of Gaussian 16 at Sun Jan 17 23:20:50 2021.
