 Entering Gaussian System, Link 0=g16
 Input=mol_bp_ma_half_tune_n5.gjf
 Output=mol_bp_ma_half_tune_n5.log
 Initial command:
 /opt/ohpc/pub/libs/gaussian/g16-A.03/sandybridge/g16/l1.exe "/mnt/gpfs2_4m/scratch/rdu230/ondemand/projects/init_structures/wtuning/mol_bp_ma_half/tuning_mol_bp_ma_half_ocycle0/Gau-63383.inp" -scrdir="/mnt/gpfs2_4m/scratch/rdu230/ondemand/projects/init_structures/wtuning/mol_bp_ma_half/tuning_mol_bp_ma_half_ocycle0/"
 Entering Link 1 = /opt/ohpc/pub/libs/gaussian/g16-A.03/sandybridge/g16/l1.exe PID=     63384.
  
 Copyright (c) 1988,1990,1992,1993,1995,1998,2003,2009,2016,
            Gaussian, Inc.  All Rights Reserved.
  
 This is part of the Gaussian(R) 16 program.  It is based on
 the Gaussian(R) 09 system (copyright 2009, Gaussian, Inc.),
 the Gaussian(R) 03 system (copyright 2003, Gaussian, Inc.),
 the Gaussian(R) 98 system (copyright 1998, Gaussian, Inc.),
 the Gaussian(R) 94 system (copyright 1995, Gaussian, Inc.),
 the Gaussian 92(TM) system (copyright 1992, Gaussian, Inc.),
 the Gaussian 90(TM) system (copyright 1990, Gaussian, Inc.),
 the Gaussian 88(TM) system (copyright 1988, Gaussian, Inc.),
 the Gaussian 86(TM) system (copyright 1986, Carnegie Mellon
 University), and the Gaussian 82(TM) system (copyright 1983,
 Carnegie Mellon University). Gaussian is a federally registered
 trademark of Gaussian, Inc.
  
 This software contains proprietary and confidential information,
 including trade secrets, belonging to Gaussian, Inc.
  
 This software is provided under written license and may be
 used, copied, transmitted, or stored only in accord with that
 written license.
  
 The following legend is applicable only to US Government
 contracts under FAR:
  
                    RESTRICTED RIGHTS LEGEND
  
 Use, reproduction and disclosure by the US Government is
 subject to restrictions as set forth in subparagraphs (a)
 and (c) of the Commercial Computer Software - Restricted
 Rights clause in FAR 52.227-19.
  
 Gaussian, Inc.
 340 Quinnipiac St., Bldg. 40, Wallingford CT 06492
  
  
 ---------------------------------------------------------------
 Warning -- This program may not be used in any manner that
 competes with the business of Gaussian, Inc. or will provide
 assistance to any competitor of Gaussian, Inc.  The licensee
 of this program is prohibited from giving any competitor of
 Gaussian, Inc. access to this program.  By using this program,
 the user acknowledges that Gaussian, Inc. is engaged in the
 business of creating and licensing software in the field of
 computational chemistry and represents and warrants to the
 licensee that it is not a competitor of Gaussian, Inc. and that
 it will not use this program in any manner prohibited above.
 ---------------------------------------------------------------
  

 Cite this work as:
 Gaussian 16, Revision A.03,
 M. J. Frisch, G. W. Trucks, H. B. Schlegel, G. E. Scuseria, 
 M. A. Robb, J. R. Cheeseman, G. Scalmani, V. Barone, 
 G. A. Petersson, H. Nakatsuji, X. Li, M. Caricato, A. V. Marenich, 
 J. Bloino, B. G. Janesko, R. Gomperts, B. Mennucci, H. P. Hratchian, 
 J. V. Ortiz, A. F. Izmaylov, J. L. Sonnenberg, D. Williams-Young, 
 F. Ding, F. Lipparini, F. Egidi, J. Goings, B. Peng, A. Petrone, 
 T. Henderson, D. Ranasinghe, V. G. Zakrzewski, J. Gao, N. Rega, 
 G. Zheng, W. Liang, M. Hada, M. Ehara, K. Toyota, R. Fukuda, 
 J. Hasegawa, M. Ishida, T. Nakajima, Y. Honda, O. Kitao, H. Nakai, 
 T. Vreven, K. Throssell, J. A. Montgomery, Jr., J. E. Peralta, 
 F. Ogliaro, M. J. Bearpark, J. J. Heyd, E. N. Brothers, K. N. Kudin, 
 V. N. Staroverov, T. A. Keith, R. Kobayashi, J. Normand, 
 K. Raghavachari, A. P. Rendell, J. C. Burant, S. S. Iyengar, 
 J. Tomasi, M. Cossi, J. M. Millam, M. Klene, C. Adamo, R. Cammi, 
 J. W. Ochterski, R. L. Martin, K. Morokuma, O. Farkas, 
 J. B. Foresman, and D. J. Fox, Gaussian, Inc., Wallingford CT, 2016.
 
 ******************************************
 Gaussian 16:  EM64L-G16RevA.03 25-Dec-2016
                17-Jan-2021 
 ******************************************
 %mem=30GB
 %nproc=8
 Will use up to    8 processors via shared memory.
 ----------------------------------------------------------------------
 #P LC-wHPBE/TZVP iop(3/107=0191200000, 3/108=0191200000) scf=(conver=6
 ,fermi,ndamp=35,noincfock,novaracc,vshift=500,xqc)
 ----------------------------------------------------------------------
 1/38=1,172=1/1;
 2/12=2,17=6,18=5,40=1/2;
 3/5=19,7=101,11=2,25=1,30=1,74=-71,107=191200000,108=191200000/1,2,3;
 4//1;
 5/5=100002,6=6,8=3,10=500,13=1,18=-1,22=13,38=1,93=35/2,8;
 6/7=2,8=2,9=2,10=2,28=1/1;
 99/5=1,9=1/99;
 Leave Link    1 at Sun Jan 17 20:33:31 2021, MaxMem=  4026531840 cpu:               1.2 elap:               0.2
 (Enter /opt/ohpc/pub/libs/gaussian/g16-A.03/sandybridge/g16/l101.exe)
 -------------
 H19 C24 N1 O2
 -------------
 Symbolic Z-matrix:
 Charge =  0 Multiplicity = 1
 C                    -6.53811  -0.21734   1.25551 
 C                    -7.25866   0.08729   0.10788 
 C                    -5.15139  -0.25905   1.21922 
 C                    -6.5807    0.34869  -1.07578 
 C                    -4.458     0.00066   0.03573 
 C                    -5.194     0.30457  -1.11091 
 H                    -8.34564   0.12102   0.13596 
 H                    -4.59391  -0.47628   2.12835 
 H                    -7.13614   0.58116  -1.98219 
 H                    -4.67151   0.48876  -2.0477 
 C                    -2.97448  -0.04496  -0.00277 
 C                    -2.24032   0.91837  -0.6946 
 C                    -2.26558  -1.0513    0.65461 
 C                    -0.85628   0.87593  -0.73981 
 C                    -0.88157  -1.09437   0.62889 
 C                    -0.15564  -0.13324  -0.0774 
 H                    -2.76203   1.72742  -1.20229 
 H                    -2.80904  -1.82389   1.19526 
 H                    -0.30638   1.63919  -1.28492 
 H                    -0.35263  -1.88507   1.15502 
 H                    -7.05947  -0.41619   2.18974 
 N                     1.25703  -0.16083  -0.10381 
 C                     1.9654   -1.37789  -0.17457 
 C                     3.19     -1.50855   0.47802 
 C                     1.4615   -2.45601  -0.91209 
 C                     3.90305  -2.69689   0.39022 
 C                     2.17862  -3.63831  -0.97461 
 C                     3.40295  -3.77506  -0.33284 
 H                     3.60076  -0.69016   1.06207 
 H                     0.51484  -2.3581   -1.43523 
 H                     1.78281  -4.47165  -1.55144 
 H                     3.96392  -4.70643  -0.39806 
 C                     1.97286   1.06837  -0.04581 
 C                     2.97148   1.35095  -0.97234 
 C                     1.68309   2.0122    0.93926 
 C                     3.67678   2.54399  -0.91012 
 C                     2.36561   3.215     0.99216 
 C                     3.37144   3.4833    0.06927 
 H                     3.20527   0.62157  -1.74439 
 H                     0.90427   1.79831   1.66775 
 H                     4.46088   2.7476   -1.6392 
 H                     2.1399    3.9546    1.756 
 O                     4.02299   4.68033   0.17324 
 H                     4.69529   4.73835  -0.51784 
 O                     5.09721  -2.75171   1.05375 
 H                     5.47965  -3.63149   0.94109 
 
 ITRead=  0  0  0  0  0  0  0  0  0  0  0  0  0  0  0  0  0  0  0  0
 ITRead=  0  0  0  0  0  0  0  0  0  0  0  0  0  0  0  0  0  0  0  0
 ITRead=  0  0  0  0  0  0
 MicOpt= -1 -1 -1 -1 -1 -1 -1 -1 -1 -1 -1 -1 -1 -1 -1 -1 -1 -1 -1 -1
 MicOpt= -1 -1 -1 -1 -1 -1 -1 -1 -1 -1 -1 -1 -1 -1 -1 -1 -1 -1 -1 -1
 MicOpt= -1 -1 -1 -1 -1 -1
 NAtoms=     46 NQM=       46 NQMF=       0 NMMI=      0 NMMIF=      0
                NMic=       0 NMicF=      0.
                    Isotopes and Nuclear Properties:
 (Nuclear quadrupole moments (NQMom) in fm**2, nuclear magnetic moments (NMagM)
  in nuclear magnetons)

  Atom         1           2           3           4           5           6           7           8           9          10
 IAtWgt=          12          12          12          12          12          12           1           1           1           1
 AtmWgt=  12.0000000  12.0000000  12.0000000  12.0000000  12.0000000  12.0000000   1.0078250   1.0078250   1.0078250   1.0078250
 NucSpn=           0           0           0           0           0           0           1           1           1           1
 AtZEff=  -0.0000000  -0.0000000  -0.0000000  -0.0000000  -0.0000000  -0.0000000  -0.0000000  -0.0000000  -0.0000000  -0.0000000
 NQMom=    0.0000000   0.0000000   0.0000000   0.0000000   0.0000000   0.0000000   0.0000000   0.0000000   0.0000000   0.0000000
 NMagM=    0.0000000   0.0000000   0.0000000   0.0000000   0.0000000   0.0000000   2.7928460   2.7928460   2.7928460   2.7928460
 AtZNuc=   6.0000000   6.0000000   6.0000000   6.0000000   6.0000000   6.0000000   1.0000000   1.0000000   1.0000000   1.0000000

  Atom        11          12          13          14          15          16          17          18          19          20
 IAtWgt=          12          12          12          12          12          12           1           1           1           1
 AtmWgt=  12.0000000  12.0000000  12.0000000  12.0000000  12.0000000  12.0000000   1.0078250   1.0078250   1.0078250   1.0078250
 NucSpn=           0           0           0           0           0           0           1           1           1           1
 AtZEff=  -0.0000000  -0.0000000  -0.0000000  -0.0000000  -0.0000000  -0.0000000  -0.0000000  -0.0000000  -0.0000000  -0.0000000
 NQMom=    0.0000000   0.0000000   0.0000000   0.0000000   0.0000000   0.0000000   0.0000000   0.0000000   0.0000000   0.0000000
 NMagM=    0.0000000   0.0000000   0.0000000   0.0000000   0.0000000   0.0000000   2.7928460   2.7928460   2.7928460   2.7928460
 AtZNuc=   6.0000000   6.0000000   6.0000000   6.0000000   6.0000000   6.0000000   1.0000000   1.0000000   1.0000000   1.0000000

  Atom        21          22          23          24          25          26          27          28          29          30
 IAtWgt=           1          14          12          12          12          12          12          12           1           1
 AtmWgt=   1.0078250  14.0030740  12.0000000  12.0000000  12.0000000  12.0000000  12.0000000  12.0000000   1.0078250   1.0078250
 NucSpn=           1           2           0           0           0           0           0           0           1           1
 AtZEff=  -0.0000000  -0.0000000  -0.0000000  -0.0000000  -0.0000000  -0.0000000  -0.0000000  -0.0000000  -0.0000000  -0.0000000
 NQMom=    0.0000000   2.0440000   0.0000000   0.0000000   0.0000000   0.0000000   0.0000000   0.0000000   0.0000000   0.0000000
 NMagM=    2.7928460   0.4037610   0.0000000   0.0000000   0.0000000   0.0000000   0.0000000   0.0000000   2.7928460   2.7928460
 AtZNuc=   1.0000000   7.0000000   6.0000000   6.0000000   6.0000000   6.0000000   6.0000000   6.0000000   1.0000000   1.0000000

  Atom        31          32          33          34          35          36          37          38          39          40
 IAtWgt=           1           1          12          12          12          12          12          12           1           1
 AtmWgt=   1.0078250   1.0078250  12.0000000  12.0000000  12.0000000  12.0000000  12.0000000  12.0000000   1.0078250   1.0078250
 NucSpn=           1           1           0           0           0           0           0           0           1           1
 AtZEff=  -0.0000000  -0.0000000  -0.0000000  -0.0000000  -0.0000000  -0.0000000  -0.0000000  -0.0000000  -0.0000000  -0.0000000
 NQMom=    0.0000000   0.0000000   0.0000000   0.0000000   0.0000000   0.0000000   0.0000000   0.0000000   0.0000000   0.0000000
 NMagM=    2.7928460   2.7928460   0.0000000   0.0000000   0.0000000   0.0000000   0.0000000   0.0000000   2.7928460   2.7928460
 AtZNuc=   1.0000000   1.0000000   6.0000000   6.0000000   6.0000000   6.0000000   6.0000000   6.0000000   1.0000000   1.0000000

  Atom        41          42          43          44          45          46
 IAtWgt=           1           1          16           1          16           1
 AtmWgt=   1.0078250   1.0078250  15.9949146   1.0078250  15.9949146   1.0078250
 NucSpn=           1           1           0           1           0           1
 AtZEff=  -0.0000000  -0.0000000  -0.0000000  -0.0000000  -0.0000000  -0.0000000
 NQMom=    0.0000000   0.0000000   0.0000000   0.0000000   0.0000000   0.0000000
 NMagM=    2.7928460   2.7928460   0.0000000   2.7928460   0.0000000   2.7928460
 AtZNuc=   1.0000000   1.0000000   8.0000000   1.0000000   8.0000000   1.0000000
 Leave Link  101 at Sun Jan 17 20:33:31 2021, MaxMem=  4026531840 cpu:               0.7 elap:               0.1
 (Enter /opt/ohpc/pub/libs/gaussian/g16-A.03/sandybridge/g16/l202.exe)
                          Input orientation:                          
 ---------------------------------------------------------------------
 Center     Atomic      Atomic             Coordinates (Angstroms)
 Number     Number       Type             X           Y           Z
 ---------------------------------------------------------------------
      1          6           0       -6.538108   -0.217341    1.255514
      2          6           0       -7.258661    0.087287    0.107878
      3          6           0       -5.151390   -0.259049    1.219222
      4          6           0       -6.580697    0.348691   -1.075777
      5          6           0       -4.458004    0.000662    0.035726
      6          6           0       -5.193998    0.304569   -1.110911
      7          1           0       -8.345644    0.121015    0.135956
      8          1           0       -4.593910   -0.476283    2.128350
      9          1           0       -7.136138    0.581164   -1.982188
     10          1           0       -4.671509    0.488761   -2.047704
     11          6           0       -2.974479   -0.044963   -0.002770
     12          6           0       -2.240322    0.918366   -0.694597
     13          6           0       -2.265576   -1.051297    0.654611
     14          6           0       -0.856277    0.875925   -0.739808
     15          6           0       -0.881570   -1.094369    0.628888
     16          6           0       -0.155643   -0.133238   -0.077397
     17          1           0       -2.762026    1.727417   -1.202285
     18          1           0       -2.809037   -1.823891    1.195264
     19          1           0       -0.306381    1.639189   -1.284917
     20          1           0       -0.352632   -1.885069    1.155020
     21          1           0       -7.059465   -0.416189    2.189743
     22          7           0        1.257026   -0.160831   -0.103806
     23          6           0        1.965402   -1.377887   -0.174570
     24          6           0        3.190004   -1.508547    0.478017
     25          6           0        1.461496   -2.456008   -0.912094
     26          6           0        3.903051   -2.696891    0.390217
     27          6           0        2.178621   -3.638306   -0.974610
     28          6           0        3.402953   -3.775056   -0.332839
     29          1           0        3.600761   -0.690157    1.062074
     30          1           0        0.514840   -2.358097   -1.435231
     31          1           0        1.782807   -4.471654   -1.551437
     32          1           0        3.963923   -4.706428   -0.398055
     33          6           0        1.972861    1.068372   -0.045814
     34          6           0        2.971482    1.350948   -0.972341
     35          6           0        1.683086    2.012203    0.939258
     36          6           0        3.676780    2.543988   -0.910119
     37          6           0        2.365608    3.214996    0.992156
     38          6           0        3.371443    3.483300    0.069272
     39          1           0        3.205268    0.621566   -1.744392
     40          1           0        0.904271    1.798314    1.667748
     41          1           0        4.460878    2.747602   -1.639197
     42          1           0        2.139895    3.954598    1.756001
     43          8           0        4.022986    4.680331    0.173244
     44          1           0        4.695287    4.738350   -0.517835
     45          8           0        5.097214   -2.751708    1.053752
     46          1           0        5.479651   -3.631493    0.941087
 ---------------------------------------------------------------------
                    Distance matrix (angstroms):
                    1          2          3          4          5
     1  C    0.000000
     2  C    1.388907   0.000000
     3  C    1.387820   2.407410   0.000000
     4  C    2.399401   1.388887   2.771153   0.000000
     5  C    2.421206   2.802925   1.396029   2.421237   0.000000
     6  C    2.771099   2.407383   2.397707   1.387846   1.396003
     7  H    2.152924   1.087869   3.394285   2.152945   3.890794
     8  H    2.146811   3.391285   1.088342   3.859318   2.150586
     9  H    3.387914   2.151117   3.859302   1.088182   3.403140
    10  H    3.859277   3.391323   3.385604   2.146919   2.150466
    11  C    3.783179   4.287651   2.505601   3.783004   1.484726
    12  C    4.854248   5.149600   3.677408   4.394165   2.508718
    13  C    4.394439   5.150358   3.045384   4.855356   2.509258
    14  C    6.120437   6.506231   4.855302   5.758458   3.786816
    15  C    5.758321   6.506539   4.390628   6.121140   3.787059
    16  C    6.520704   7.108855   5.162803   6.519995   4.305930
    17  H    4.907306   4.962487   3.939391   4.061913   2.718583
    18  H    4.060862   4.963282   2.817077   4.909497   2.718936
    19  H    6.981040   7.258269   5.774784   6.409069   4.654551
    20  H    6.407147   7.258094   5.067163   6.982473   4.654340
    21  H    1.088181   2.151123   2.146475   3.387902   3.403109
    22  N    7.912968   8.521930   6.544299   7.914180   5.719014
    23  C    8.700672   9.343974   7.337791   8.765218   6.573033
    24  C    9.844180  10.576308   8.466964  10.066291   7.808032
    25  C    8.585093   9.140560   7.286933   8.518803   6.478740
    26  C   10.766369  11.507179   9.413460  11.015157   8.792593
    27  C    9.625893  10.203632   8.364289   9.624554   7.635945
    28  C   10.677307  11.348213   9.378059  10.827304   8.728490
    29  H   10.151731  10.928950   8.764171  10.455224   8.153178
    30  H    7.846465   8.293878   6.599870   7.602799   5.697073
    31  H    9.757857  10.260868   8.573545   9.664894   7.840180
    32  H   11.540314  12.214011  10.270526  11.713349   9.657832
    33  C    8.705349   9.284780   7.356447   8.645352   6.519408
    34  C    9.892177  10.364340   8.565984   9.605173   7.618184
    35  C    8.524020   9.184298   7.207429   8.667050   6.525002
    36  C   10.800872  11.254136   9.504088  10.491073   8.575421
    37  C    9.546018  10.158300   8.284069   9.619170   7.603182
    38  C   10.644300  11.159458   9.379032  10.496761   8.569138
    39  H   10.229202  10.640027   8.910231   9.812574   7.891773
    40  H    7.721516   8.484944   6.411314   8.102659   5.886344
    41  H   11.753635  12.144017  10.469298  11.313204   9.481429
    42  H    9.641748  10.295886   8.438352   9.852424   7.881956
    43  O   11.691673  12.180964  10.471901  11.522207   9.687384
    44  H   12.405354  12.842148  11.178033  12.113142  10.321572
    45  O   11.909846  12.713073  10.548678  12.268699   9.995705
    46  H   12.497273  13.296171  11.156602  12.859300  10.619285
                    6          7          8          9         10
     6  C    0.000000
     7  H    3.394295   0.000000
     8  H    3.385653   4.289744   0.000000
     9  H    2.146517   2.482172   4.947488   0.000000
    10  H    1.088349   4.289857   4.286812   2.467231   0.000000
    11  C    2.505277   5.375519   2.711137   4.650757   2.710448
    12  C    3.045368   6.212934   3.931088   5.073520   2.815338
    13  C    3.678464   6.213738   2.814904   5.774081   3.932277
    14  C    4.390898   7.578091   4.901499   6.408358   4.051726
    15  C    4.856023   7.578426   4.051158   6.981744   4.902457
    16  C    5.161865   8.196724   4.968019   7.270895   4.966089
    17  H    2.819102   5.962232   4.393771   4.588573   2.427988
    18  H    3.941678   5.963121   2.423318   5.882541   4.397045
    19  H    5.069545   8.303823   5.874395   6.946307   4.578173
    20  H    5.776485   8.303680   4.573892   7.870218   5.877517
    21  H    3.859246   2.482113   2.467051   4.290175   4.947446
    22  N    6.545729   9.609797   6.270206   8.632733   6.272817
    23  C    7.413798  10.424049   7.010057   9.483849   7.144340
    24  C    8.723736  11.655199   8.023620  10.818905   8.495404
    25  C    7.208045  10.194089   7.059147   9.180895   6.897465
    26  C    9.696311  12.571228   8.952684  11.757451   9.466516
    27  C    8.361839  11.230583   8.092832  10.275401   8.068983
    28  C    9.547581  12.386633   8.993841  11.522562   9.290739
    29  H    9.113678  12.009675   8.266518  11.232310   8.915774
    30  H    6.307599   9.333960   6.506893   8.214370   5.947936
    31  H    8.466533  11.248352   8.376535  10.259829   8.155378
    32  H   10.463545  13.233095   9.874885  12.396752  10.211857
    33  C    7.285719  10.363497   7.087696   9.325276   6.963560
    34  C    8.233418  11.437587   8.377841  10.187067   7.766279
    35  C    7.376550  10.237056   6.856178   9.400076   7.184963
    36  C    9.151285  12.308686   9.314432  11.041794   8.672484
    37  C    8.369057  11.181982   7.959357  10.298882   8.135977
    38  C    9.212163  12.190141   9.130441  11.092346   8.839566
    39  H    8.429084  11.713660   8.776707  10.344219   7.883733
    40  H    6.865938   9.524739   5.967909   8.913566   6.827066
    41  H    9.973170  13.193071  10.323615  11.802622   9.416461
    42  H    8.679164  11.281287   8.069416  10.554568   8.536710
    43  O   10.283440  13.182252  10.230543  12.082016   9.904348
    44  H   10.853944  13.849661  10.976515  12.625733  10.398864
    45  O   10.951513  13.776985  10.012502  13.037633  10.749308
    46  H   11.559847  14.348113  10.622692  13.618008  11.355854
                   11         12         13         14         15
    11  C    0.000000
    12  C    1.394853   0.000000
    13  C    1.395493   2.387587   0.000000
    14  C    2.424467   1.385433   2.764907   0.000000
    15  C    2.424977   2.765668   1.384915   2.399172   0.000000
    16  C    2.821205   2.415097   2.414640   1.395739   1.396274
    17  H    2.150652   1.088341   3.378724   2.137944   3.853801
    18  H    2.151102   3.378607   1.088374   3.853152   2.137314
    19  H    3.405733   2.146670   3.852133   1.087245   3.386123
    20  H    3.405958   3.852753   2.145912   3.386314   1.087105
    21  H    4.651025   5.772746   5.073595   6.980786   6.408009
    22  N    4.234297   3.707444   3.711718   2.438321   2.445798
    23  C    5.119436   4.819888   4.323815   3.655275   2.971730
    24  C    6.354061   6.062456   5.477556   4.851927   4.095366
    25  C    5.130096   5.013697   4.280052   4.062454   3.117474
    26  C    7.381570   7.210266   6.389823   6.057489   5.051499
    27  C    6.356967   6.353639   5.394244   5.444632   4.290407
    28  C    7.395551   7.348852   6.366015   6.319675   5.144720
    29  H    6.692081   6.308050   5.891550   5.056143   4.521319
    30  H    4.424690   4.344498   3.715626   3.580848   2.794201
    31  H    6.680249   6.780270   5.740635   6.018314   4.822735
    32  H    8.368209   8.379672   7.298955   7.383345   6.130284
    33  C    5.071246   4.265481   4.790401   2.919364   3.644235
    34  C    6.184100   5.237096   5.987030   3.864124   4.836271
    35  C    5.178056   4.388518   5.005795   3.249424   4.040369
    36  C    7.194803   6.140130   7.119414   4.833223   6.031976
    37  C    6.335120   5.416109   6.305796   4.341831   5.408027
    38  C    7.261168   6.217257   7.258180   5.032557   6.273463
    39  H    6.454981   5.553792   6.203533   4.191663   5.027836
    40  H    4.607928   4.030316   4.381171   3.121964   3.554725
    41  H    8.109306   7.010311   8.058435   5.708258   6.960366
    42  H    6.726558   5.866041   6.758714   4.968333   5.990968
    43  O    8.445348   7.357619   8.522282   6.254149   7.590088
    44  H    9.053766   7.919987   9.129527   6.766643   8.150885
    45  O    8.578749   8.388421   7.567125   7.198655   6.218773
    46  H    9.231813   9.109043   8.168722   7.955263   6.855625
                   16         17         18         19         20
    16  C    0.000000
    17  H    3.394207   0.000000
    18  H    3.393888   4.285118   0.000000
    19  H    2.149959   2.458618   4.940396   0.000000
    20  H    2.150946   4.940862   2.457496   4.286703   0.000000
    21  H    7.272052   5.879531   4.586584   7.867781   6.943333
    22  N    1.413185   4.574376   4.581072   2.660702   2.673694
    23  C    2.461184   5.748712   4.987046   3.936574   2.719986
    24  C    3.659688   6.980082   6.049990   5.024031   3.626344
    25  C    2.950783   5.951756   4.803955   4.476050   2.808913
    26  C    4.823274   8.156826   6.816330   6.271123   4.399411
    27  C    4.305727   7.297452   5.733863   5.841531   3.743849
    28  C    5.098205   8.309038   6.688121   6.631716   4.459842
    29  H    3.964735   7.173357   6.510653   5.118591   4.131074
    30  H    2.691330   5.242475   4.272357   4.083539   2.772303
    31  H    4.975162   7.694537   5.969929   6.463601   4.309922
    32  H    6.163417   9.342352   7.531313   7.699927   5.385606
    33  C    2.444462   4.918427   5.724684   2.656342   3.946230
    34  C    3.575282   5.750454   6.942083   3.305325   5.103646
    35  C    3.002903   4.942300   5.912726   3.007336   4.402207
    36  C    4.748519   6.496951   8.097952   4.101793   6.333838
    37  C    4.325658   5.772443   7.225551   3.848085   5.781524
    38  C    5.053830   6.505338   8.223896   4.331393   6.623214
    39  H    3.826790   6.093060   7.126970   3.684882   5.229576
    40  H    2.810666   4.656592   5.208864   3.195189   3.925558
    41  H    5.661336   7.307668   9.043472   4.907224   7.241489
    42  H    5.034009   6.143340   7.628715   4.537903   6.377741
    43  O    6.379201   7.526498   9.488201   5.488005   7.950748
    44  H    6.888968   8.071289  10.114969   5.933793   8.494093
    45  O    5.977323   9.323085   7.961763   7.344943   5.519252
    46  H    6.710562  10.061670   8.487307   8.137159   6.091904
                   21         22         23         24         25
    21  H    0.000000
    22  N    8.630736   0.000000
    23  C    9.378863   1.409975   0.000000
    24  C   10.448678   2.427192   1.393769   0.000000
    25  C    9.294570   2.441920   1.400074   2.412018   0.000000
    26  C   11.340928   3.698257   2.411066   1.388635   2.777630
    27  C   10.282869   3.701415   2.407285   2.769277   1.384198
    28  C   11.274201   4.209523   2.799647   2.416588   2.417577
    29  H   10.723204   2.670685   2.162559   1.086097   3.404706
    30  H    8.618674   2.674231   2.157361   3.396874   1.086009
    31  H   10.422524   4.577693   3.391238   3.857316   2.138885
    32  H   12.108589   5.298710   3.888858   3.404834   3.404522
    33  C    9.422555   1.423630   2.449656   2.897645   3.665132
    34  C   10.664963   2.445238   3.015821   3.213721   4.095925
    35  C    9.159312   2.447772   3.579529   3.857360   4.841644
    36  C   11.560223   3.717714   4.341768   4.311254   5.468770
    37  C   10.171122   3.718373   4.755627   4.822429   6.050113
    38  C   11.336060   4.216682   5.066315   5.011839   6.315565
    39  H   11.041698   2.664454   2.828325   3.078428   3.633858
    40  H    8.282366   2.664787   3.822092   4.192298   5.006530
    41  H   12.545464   4.591413   5.039067   4.920622   6.050002
    42  H   10.194123   4.601641   5.673883   5.708058   6.976735
    43  O   12.363717   5.582485   6.407545   6.252116   7.659408
    44  H   13.117715   5.999586   6.706598   6.502409   7.897571
    45  O   12.431008   4.774896   3.633787   2.348270   4.143722
    46  H   13.004874   5.564877   4.321270   3.156551   4.578386
                   26         27         28         29         30
    26  C    0.000000
    27  C    2.392211   0.000000
    28  C    1.391168   1.389086   0.000000
    29  H    2.137698   3.855145   3.391388   0.000000
    30  H    3.863550   2.149250   3.400623   4.305980   0.000000
    31  H    3.378644   1.088057   2.143619   4.943189   2.467462
    32  H    2.159471   2.158843   1.089217   4.288857   4.299601
    33  C    4.253582   4.801856   5.058294   2.640057   3.974543
    34  C    4.371428   5.051860   5.183729   2.949737   4.472848
    35  C    5.235003   5.986376   6.169971   3.315918   5.109062
    36  C    5.404524   6.361556   6.351264   3.788802   5.856965
    37  C    6.138116   7.132383   7.189751   4.096427   6.354283
    38  C    6.211310   7.295875   7.269554   4.296043   6.674251
    39  H    4.006946   4.448941   4.621888   3.123025   4.026459
    40  H    5.552624   6.177610   6.427147   3.718923   5.201527
    41  H    5.837139   6.813970   6.735788   4.455879   6.456081
    42  H    7.015439   8.069072   8.105931   4.918273   7.257746
    43  O    7.381386   8.597614   8.493181   5.459893   8.027064
    44  H    7.532264   8.758460   8.612922   5.758714   8.287178
    45  O    1.367227   3.663126   2.416691   2.547437   5.229543
    46  H    1.913794   3.816640   2.440527   3.492323   5.649582
                   31         32         33         34         35
    31  H    0.000000
    32  H    2.478442   0.000000
    33  C    5.744120   6.118555   0.000000
    34  C    5.970845   6.164945   1.391239   0.000000
    35  C    6.946503   7.220154   1.394688   2.398215   0.000000
    36  C    7.295043   7.274146   2.414085   1.387322   2.770885
    37  C    8.117519   8.199772   2.416532   2.775069   1.383960
    38  C    8.272349   8.224419   2.793055   2.406627   2.402405
    39  H    5.291646   5.547585   2.145607   1.087528   3.384211
    40  H    7.102639   7.479350   2.147323   3.382834   1.087658
    41  H    7.700482   7.572976   3.398369   2.147938   3.860747
    42  H    9.059160   9.109358   3.406573   3.861914   2.156071
    43  O    9.578714   9.404314   4.158996   3.674618   3.630539
    44  H    9.714682   9.473810   4.593816   3.827868   4.316057
    45  O    4.553078   2.685707   5.056050   5.045352   5.862101
    46  H    4.537092   2.290462   5.946451   5.897189   6.801854
                   36         37         38         39         40
    36  C    0.000000
    37  C    2.405842   0.000000
    38  C    1.390951   1.391189   0.000000
    39  H    2.148032   3.862590   3.392125   0.000000
    40  H    3.858527   2.144509   3.388398   4.280423   0.000000
    41  H    1.089873   3.395973   2.155687   2.471366   4.948382
    42  H    3.385267   1.086930   2.141001   4.949432   2.486788
    43  O    2.420226   2.358967   1.366822   4.562846   4.501772
    44  H    2.450810   3.166715   1.916353   4.546703   5.271849
    45  O    5.823986   6.562547   6.543914   4.773683   6.217754
    46  H    6.694316   7.521588   7.471605   5.520247   7.137573
                   41         42         43         44         45
    41  H    0.000000
    42  H    4.286160   0.000000
    43  O    2.685542   2.564730   0.000000
    44  H    2.296841   3.509220   0.965891   0.000000
    45  O    6.156241   7.362977   7.560718   7.663707   0.000000
    46  H    6.956193   8.328675   8.473363   8.532172   0.965905
                   46
    46  H    0.000000
 Stoichiometry    C24H19NO2
 Framework group  C1[X(C24H19NO2)]
 Deg. of freedom   132
 Full point group                 C1      NOp   1
 Largest Abelian subgroup         C1      NOp   1
 Largest concise Abelian subgroup C1      NOp   1
                         Standard orientation:                         
 ---------------------------------------------------------------------
 Center     Atomic      Atomic             Coordinates (Angstroms)
 Number     Number       Type             X           Y           Z
 ---------------------------------------------------------------------
      1          6           0       -6.538108   -0.217341    1.255514
      2          6           0       -7.258661    0.087287    0.107878
      3          6           0       -5.151390   -0.259049    1.219222
      4          6           0       -6.580697    0.348691   -1.075777
      5          6           0       -4.458004    0.000662    0.035726
      6          6           0       -5.193998    0.304569   -1.110911
      7          1           0       -8.345644    0.121015    0.135956
      8          1           0       -4.593910   -0.476283    2.128350
      9          1           0       -7.136138    0.581164   -1.982188
     10          1           0       -4.671509    0.488761   -2.047704
     11          6           0       -2.974479   -0.044963   -0.002770
     12          6           0       -2.240322    0.918366   -0.694597
     13          6           0       -2.265576   -1.051297    0.654611
     14          6           0       -0.856277    0.875925   -0.739808
     15          6           0       -0.881570   -1.094369    0.628888
     16          6           0       -0.155643   -0.133238   -0.077397
     17          1           0       -2.762026    1.727417   -1.202285
     18          1           0       -2.809037   -1.823891    1.195264
     19          1           0       -0.306381    1.639189   -1.284917
     20          1           0       -0.352632   -1.885069    1.155020
     21          1           0       -7.059465   -0.416189    2.189743
     22          7           0        1.257026   -0.160831   -0.103806
     23          6           0        1.965402   -1.377887   -0.174570
     24          6           0        3.190004   -1.508547    0.478017
     25          6           0        1.461496   -2.456008   -0.912094
     26          6           0        3.903051   -2.696891    0.390217
     27          6           0        2.178621   -3.638306   -0.974610
     28          6           0        3.402953   -3.775056   -0.332839
     29          1           0        3.600761   -0.690157    1.062074
     30          1           0        0.514840   -2.358097   -1.435231
     31          1           0        1.782807   -4.471654   -1.551437
     32          1           0        3.963923   -4.706428   -0.398055
     33          6           0        1.972861    1.068372   -0.045814
     34          6           0        2.971482    1.350948   -0.972341
     35          6           0        1.683086    2.012203    0.939258
     36          6           0        3.676780    2.543988   -0.910119
     37          6           0        2.365608    3.214996    0.992156
     38          6           0        3.371443    3.483300    0.069272
     39          1           0        3.205268    0.621566   -1.744392
     40          1           0        0.904271    1.798314    1.667748
     41          1           0        4.460878    2.747602   -1.639197
     42          1           0        2.139895    3.954598    1.756001
     43          8           0        4.022986    4.680331    0.173244
     44          1           0        4.695287    4.738350   -0.517835
     45          8           0        5.097214   -2.751708    1.053752
     46          1           0        5.479651   -3.631493    0.941087
 ---------------------------------------------------------------------
 Rotational constants (GHZ):           0.2747871           0.0974680           0.0767524
 Leave Link  202 at Sun Jan 17 20:33:31 2021, MaxMem=  4026531840 cpu:               0.1 elap:               0.0
 (Enter /opt/ohpc/pub/libs/gaussian/g16-A.03/sandybridge/g16/l301.exe)
 Standard basis: TZVP (5D, 7F)
 Ernie: Thresh=  0.10000D-02 Tol=  0.10000D-05 Strict=F.
 There are   654 symmetry adapted cartesian basis functions of A   symmetry.
 There are   627 symmetry adapted basis functions of A   symmetry.
   627 basis functions,  1097 primitive gaussians,   654 cartesian basis functions
    93 alpha electrons       93 beta electrons
       nuclear repulsion energy      2186.7759231597 Hartrees.
 IExCor=33909 DFT=T Ex+Corr=LC-wHPBE ExCW=0 ScaHFX=  1.000000
 ScaDFX=  1.000000  1.000000  1.000000  1.000000 ScalE2=  1.000000  1.000000
 IRadAn=      5 IRanWt=     -1 IRanGd=            0 ICorTp=0 IEmpDi=  4
 HFx  wShort=  0.000000 wLong=  0.191200 cFull=  0.000000 cShort=  0.000000 cLong=  1.000000
 DFx  wShort=  0.000000 wLong=  0.191200 cFull=  0.000000 cShort=  1.000000 cLong=  0.000000
 NAtoms=   46 NActive=   46 NUniq=   46 SFac= 1.00D+00 NAtFMM=   60 NAOKFM=F Big=F
 Integral buffers will be    131072 words long.
 Raffenetti 2 integral format.
 Two-electron integral symmetry is turned on.
 Leave Link  301 at Sun Jan 17 20:33:31 2021, MaxMem=  4026531840 cpu:               0.4 elap:               0.1
 (Enter /opt/ohpc/pub/libs/gaussian/g16-A.03/sandybridge/g16/l302.exe)
 NPDir=0 NMtPBC=     1 NCelOv=     1 NCel=       1 NClECP=     1 NCelD=      1
         NCelK=      1 NCelE2=     1 NClLst=     1 CellRange=     0.0.
 One-electron integrals computed using PRISM.
 One-electron integral symmetry used in STVInt
 NBasis=   627 RedAO= T EigKep=  6.83D-06  NBF=   627
 NBsUse=   627 1.00D-06 EigRej= -1.00D+00 NBFU=   627
 Precomputing XC quadrature grid using
 IXCGrd= 4 IRadAn=           5 IRanWt=          -1 IRanGd=           0 AccXCQ= 0.00D+00.
 Generated NRdTot=       0 NPtTot=           0 NUsed=           0 NTot=          32
 NSgBfM=   623   621   621   623   623 MxSgAt=    46 MxSgA2=    46.
 Leave Link  302 at Sun Jan 17 20:33:32 2021, MaxMem=  4026531840 cpu:               8.9 elap:               1.2
 (Enter /opt/ohpc/pub/libs/gaussian/g16-A.03/sandybridge/g16/l303.exe)
 DipDrv:  MaxL=1.
 Leave Link  303 at Sun Jan 17 20:33:32 2021, MaxMem=  4026531840 cpu:               0.7 elap:               0.1
 (Enter /opt/ohpc/pub/libs/gaussian/g16-A.03/sandybridge/g16/l401.exe)
 ExpMin= 9.52D-02 ExpMax= 2.70D+04 ExpMxC= 9.22D+02 IAcc=3 IRadAn=         5 AccDes= 0.00D+00
 Harris functional with IExCor=33909 and IRadAn=       5 diagonalized for initial guess.
 HarFok:  IExCor=33909 AccDes= 0.00D+00 IRadAn=         5 IDoV= 1 UseB2=F ITyADJ=14
 ICtDFT=  3500011 ScaDFX=  1.000000  1.000000  1.000000  1.000000
 FoFCou: FMM=F IPFlag=           0 FMFlag=      100000 FMFlg1=           0
         NFxFlg=           0 DoJE=T BraDBF=F KetDBF=T FulRan=T
         wScrn=  0.000000 ICntrl=       500 IOpCl=  0 I1Cent=   200000004 NGrid=           0
         NMat0=    1 NMatS0=      1 NMatT0=    0 NMatD0=    1 NMtDS0=    0 NMtDT0=    0
 Petite list used in FoFCou.
 Harris En= -1111.57614276298    
 JPrj=0 DoOrth=F DoCkMO=F.
 Leave Link  401 at Sun Jan 17 20:33:39 2021, MaxMem=  4026531840 cpu:              52.7 elap:               6.6
 (Enter /opt/ohpc/pub/libs/gaussian/g16-A.03/sandybridge/g16/l502.exe)
 Integral symmetry usage will be decided dynamically.
 Closed shell SCF:
 Using DIIS extrapolation, IDIIS=    10.
 NGot=  4026531840 LenX=  4025664800 LenY=  4025236430
 Requested convergence on RMS density matrix=1.00D-06 within  32 cycles.
 Requested convergence on MAX density matrix=1.00D-04.
 Requested convergence on             energy=1.00D-04.
 Virtual orbitals will be shifted by   0.500 hartree.
 No special actions if energy rises.
 Dynamic level shift is on during FON iterations.

 Cycle   1  Pass 1  IDiag  1:
 FoFJK:  IHMeth= 1 ICntrl=       0 DoSepK=T KAlg= 0 I1Cent=           0 FoldK=F
 IRaf=         1 NMat=       1 IRICut=       1 DoRegI=T DoRafI=F ISym2E= 0 IDoP0=0 IntGTp=1.
 FoFCou: FMM=F IPFlag=           0 FMFlag=      100000 FMFlg1=           0
         NFxFlg=           0 DoJE=T BraDBF=F KetDBF=F FulRan=T
         wScrn=  0.000000 ICntrl=       500 IOpCl=  0 I1Cent=           0 NGrid=           0
         NMat0=    1 NMatS0=      1 NMatT0=    0 NMatD0=    1 NMtDS0=    0 NMtDT0=    0
 Symmetry not used in FoFCou.
 E= -1130.04733449625    
 DIIS: error= 2.21D-02 at cycle   1 NSaved=   1.
 NSaved= 1 IEnMin= 1 EnMin= -1130.04733449625     IErMin= 1 ErrMin= 2.21D-02
 ErrMax= 2.21D-02  0.00D+00 EMaxC= 1.00D+00 BMatC= 4.68D-01 BMatP= 4.68D-01
 IDIUse=1 WtCom= 1.00D+00 WtEn= 0.00D+00
 Coeff-Com:  0.100D+01
 Coeff:      0.100D+01
 Gap=     0.293 Goal=   None    Shift=    0.500
 T= 1313. Gap= 0.747 NK=0 IS=   94 IE=  627 IFin=   93
          NO(<0.9)=   0  NV(>0.1)=   0     93.00e < EF      0.00e >EF  Err=0.0D+00
 GapD=    0.293 DampG=1.000 DampE=0.500 DampFc=0.5000 IDamp=-1.
 Damping current iteration by 5.00D-01
 RMSDP=2.27D-03 MaxDP=1.25D-01              OVMax= 7.32D-02

 Cycle   2  Pass 1  IDiag  1:
 E= -1130.32815339431     Delta-E=       -0.280818898061 Rises=F Damp=T
 DIIS: error= 1.01D-02 at cycle   2 NSaved=   2.
 NSaved= 2 IEnMin= 2 EnMin= -1130.32815339431     IErMin= 2 ErrMin= 1.01D-02
 ErrMax= 1.01D-02  0.00D+00 EMaxC= 1.00D+00 BMatC= 7.66D-02 BMatP= 4.68D-01
 IDIUse=1 WtCom= 1.00D+00 WtEn= 0.00D+00
 Coeff-Com: -0.528D+00 0.153D+01
 Coeff:     -0.528D+00 0.153D+01
 Gap=     0.306 Goal=   None    Shift=    0.500
 T= 1194. Gap= 0.751 NK=0 IS=   94 IE=  627 IFin=   93
          NO(<0.9)=   0  NV(>0.1)=   0     93.00e < EF      0.00e >EF  Err=0.0D+00
 GapD=    0.306 DampG=1.000 DampE=0.500 DampFc=0.5000 IDamp=-1.
 Damping current iteration by 5.00D-01
 RMSDP=1.33D-03 MaxDP=7.79D-02 DE=-2.81D-01 OVMax= 1.66D-02

 Cycle   3  Pass 1  IDiag  1:
 E= -1130.42525748182     Delta-E=       -0.097104087512 Rises=F Damp=T
 DIIS: error= 4.50D-03 at cycle   3 NSaved=   3.
 NSaved= 3 IEnMin= 3 EnMin= -1130.42525748182     IErMin= 3 ErrMin= 4.50D-03
 ErrMax= 4.50D-03  0.00D+00 EMaxC= 1.00D+00 BMatC= 1.43D-02 BMatP= 7.66D-02
 IDIUse=1 WtCom= 1.00D+00 WtEn= 0.00D+00
 Coeff-Com:  0.185D-01-0.742D+00 0.172D+01
 Coeff:      0.185D-01-0.742D+00 0.172D+01
 Gap=     0.260 Goal=   None    Shift=    0.500
 T=  958. Gap= 0.759 NK=0 IS=   94 IE=  627 IFin=   93
          NO(<0.9)=   0  NV(>0.1)=   0     93.00e < EF      0.00e >EF  Err=0.0D+00
 GapD=    0.260 DampG=1.000 DampE=1.000 DampFc=1.0000 IDamp=-1.
 RMSDP=7.99D-04 MaxDP=7.60D-02 DE=-9.71D-02 OVMax= 9.57D-03

 Cycle   4  Pass 1  IDiag  1:
 E= -1130.50589262642     Delta-E=       -0.080635144595 Rises=F Damp=F
 DIIS: error= 1.09D-03 at cycle   4 NSaved=   4.
 NSaved= 4 IEnMin= 4 EnMin= -1130.50589262642     IErMin= 4 ErrMin= 1.09D-03
 ErrMax= 1.09D-03  0.00D+00 EMaxC= 1.00D+00 BMatC= 6.76D-04 BMatP= 1.43D-02
 IDIUse=1 WtCom= 1.00D+00 WtEn= 0.00D+00
 Coeff-Com:  0.694D-01-0.186D+00 0.174D+00 0.943D+00
 Coeff:      0.694D-01-0.186D+00 0.174D+00 0.943D+00
 Gap=     0.258 Goal=   None    Shift=    0.500
 T=  448. Gap= 0.758 NK=0 IS=   94 IE=  627 IFin=   93
          NO(<0.9)=   0  NV(>0.1)=   0     93.00e < EF      0.00e >EF  Err=0.0D+00
 GapD=    0.258 DampG=1.000 DampE=1.000 DampFc=1.0000 IDamp=-1.
 RMSDP=1.71D-04 MaxDP=1.20D-02 DE=-8.06D-02 OVMax= 6.62D-03

 Cycle   5  Pass 1  IDiag  1:
 E= -1130.50656805384     Delta-E=       -0.000675427422 Rises=F Damp=F
 DIIS: error= 4.88D-04 at cycle   5 NSaved=   5.
 NSaved= 5 IEnMin= 5 EnMin= -1130.50656805384     IErMin= 5 ErrMin= 4.88D-04
 ErrMax= 4.88D-04  0.00D+00 EMaxC= 1.00D+00 BMatC= 1.00D-04 BMatP= 6.76D-04
 IDIUse=1 WtCom= 1.00D+00 WtEn= 0.00D+00
 Coeff-Com:  0.211D-01-0.135D-02-0.758D-01 0.117D-01 0.104D+01
 Coeff:      0.211D-01-0.135D-02-0.758D-01 0.117D-01 0.104D+01
 Gap=     0.257 Goal=   None    Shift=    0.500
 RMSDP=1.12D-04 MaxDP=6.30D-03 DE=-6.75D-04 OVMax= 4.59D-03

 Cycle   6  Pass 1  IDiag  1:
 E= -1130.50675509341     Delta-E=       -0.000187039570 Rises=F Damp=F
 DIIS: error= 5.08D-04 at cycle   6 NSaved=   6.
 NSaved= 6 IEnMin= 6 EnMin= -1130.50675509341     IErMin= 5 ErrMin= 4.88D-04
 ErrMax= 5.08D-04  0.00D+00 EMaxC= 1.00D+00 BMatC= 2.11D-05 BMatP= 1.00D-04
 IDIUse=1 WtCom= 1.00D+00 WtEn= 0.00D+00
 Coeff-Com: -0.104D-01 0.486D-01-0.717D-01-0.190D+00-0.124D-01 0.124D+01
 Coeff:     -0.104D-01 0.486D-01-0.717D-01-0.190D+00-0.124D-01 0.124D+01
 Gap=     0.258 Goal=   None    Shift=    0.500
 RMSDP=6.93D-05 MaxDP=3.41D-03 DE=-1.87D-04 OVMax= 4.25D-03

 Cycle   7  Pass 1  IDiag  1:
 E= -1130.50683050902     Delta-E=       -0.000075415606 Rises=F Damp=F
 DIIS: error= 3.29D-04 at cycle   7 NSaved=   7.
 NSaved= 7 IEnMin= 7 EnMin= -1130.50683050902     IErMin= 7 ErrMin= 3.29D-04
 ErrMax= 3.29D-04  0.00D+00 EMaxC= 1.00D+00 BMatC= 8.25D-06 BMatP= 2.11D-05
 IDIUse=1 WtCom= 1.00D+00 WtEn= 0.00D+00
 Coeff-Com: -0.839D-02 0.136D-01-0.241D-02-0.472D-01-0.267D+00-0.171D+00
 Coeff-Com:  0.148D+01
 Coeff:     -0.839D-02 0.136D-01-0.241D-02-0.472D-01-0.267D+00-0.171D+00
 Coeff:      0.148D+01
 Gap=     0.258 Goal=   None    Shift=    0.500
 RMSDP=3.90D-05 MaxDP=1.95D-03 DE=-7.54D-05 OVMax= 3.27D-03

 Cycle   8  Pass 1  IDiag  1:
 E= -1130.50686748472     Delta-E=       -0.000036975700 Rises=F Damp=F
 DIIS: error= 2.42D-04 at cycle   8 NSaved=   8.
 NSaved= 8 IEnMin= 8 EnMin= -1130.50686748472     IErMin= 8 ErrMin= 2.42D-04
 ErrMax= 2.42D-04  0.00D+00 EMaxC= 1.00D+00 BMatC= 3.79D-06 BMatP= 8.25D-06
 IDIUse=1 WtCom= 1.00D+00 WtEn= 0.00D+00
 Coeff-Com:  0.591D-03-0.150D-01 0.282D-01 0.518D-01-0.109D+00-0.655D+00
 Coeff-Com:  0.220D+00 0.148D+01
 Coeff:      0.591D-03-0.150D-01 0.282D-01 0.518D-01-0.109D+00-0.655D+00
 Coeff:      0.220D+00 0.148D+01
 Gap=     0.258 Goal=   None    Shift=    0.500
 RMSDP=2.00D-05 MaxDP=9.16D-04 DE=-3.70D-05 OVMax= 2.57D-03

 Cycle   9  Pass 1  IDiag  1:
 E= -1130.50688642770     Delta-E=       -0.000018942985 Rises=F Damp=F
 DIIS: error= 1.63D-04 at cycle   9 NSaved=   9.
 NSaved= 9 IEnMin= 9 EnMin= -1130.50688642770     IErMin= 9 ErrMin= 1.63D-04
 ErrMax= 1.63D-04  0.00D+00 EMaxC= 1.00D+00 BMatC= 1.68D-06 BMatP= 3.79D-06
 IDIUse=1 WtCom= 1.00D+00 WtEn= 0.00D+00
 Coeff-Com:  0.313D-02-0.715D-02 0.419D-02 0.222D-01 0.143D+00-0.224D+00
 Coeff-Com: -0.600D+00-0.417D+00 0.208D+01
 Coeff:      0.313D-02-0.715D-02 0.419D-02 0.222D-01 0.143D+00-0.224D+00
 Coeff:     -0.600D+00-0.417D+00 0.208D+01
 Gap=     0.258 Goal=   None    Shift=    0.500
 RMSDP=9.75D-06 MaxDP=3.46D-04 DE=-1.89D-05 OVMax= 1.99D-03

 Cycle  10  Pass 1  IDiag  1:
 E= -1130.50689584045     Delta-E=       -0.000009412748 Rises=F Damp=F
 DIIS: error= 1.06D-04 at cycle  10 NSaved=  10.
 NSaved=10 IEnMin=10 EnMin= -1130.50689584045     IErMin=10 ErrMin= 1.06D-04
 ErrMax= 1.06D-04  0.00D+00 EMaxC= 1.00D+00 BMatC= 8.47D-07 BMatP= 1.68D-06
 IDIUse=1 WtCom= 1.00D+00 WtEn= 0.00D+00
 Coeff-Com:  0.767D-03 0.289D-02-0.804D-02-0.144D-02 0.130D+00-0.480D-01
 Coeff-Com: -0.334D+00-0.577D+00 0.464D+00 0.137D+01
 Coeff:      0.767D-03 0.289D-02-0.804D-02-0.144D-02 0.130D+00-0.480D-01
 Coeff:     -0.334D+00-0.577D+00 0.464D+00 0.137D+01
 Gap=     0.258 Goal=   None    Shift=    0.500
 RMSDP=5.34D-06 MaxDP=1.48D-04 DE=-9.41D-06 OVMax= 1.37D-03

 Cycle  11  Pass 1  IDiag  1:
 E= -1130.50690006923     Delta-E=       -0.000004228787 Rises=F Damp=F
 DIIS: error= 7.33D-05 at cycle  11 NSaved=  11.
 NSaved=11 IEnMin=11 EnMin= -1130.50690006923     IErMin=11 ErrMin= 7.33D-05
 ErrMax= 7.33D-05  0.00D+00 EMaxC= 1.00D+00 BMatC= 3.81D-07 BMatP= 8.47D-07
 IDIUse=1 WtCom= 1.00D+00 WtEn= 0.00D+00
 Coeff-Com: -0.119D-02 0.579D-02-0.734D-02-0.809D-02 0.233D-01 0.209D-01
 Coeff-Com:  0.926D-01-0.161D+00-0.614D+00-0.399D+00 0.205D+01
 Coeff:     -0.119D-02 0.579D-02-0.734D-02-0.809D-02 0.233D-01 0.209D-01
 Coeff:      0.926D-01-0.161D+00-0.614D+00-0.399D+00 0.205D+01
 Gap=     0.258 Goal=   None    Shift=    0.500
 RMSDP=3.72D-06 MaxDP=1.05D-04 DE=-4.23D-06 OVMax= 9.70D-04

 Cycle  12  Pass 1  IDiag  1:
 E= -1130.50690198457     Delta-E=       -0.000001915337 Rises=F Damp=F
 DIIS: error= 5.15D-05 at cycle  12 NSaved=  12.
 NSaved=12 IEnMin=12 EnMin= -1130.50690198457     IErMin=12 ErrMin= 5.15D-05
 ErrMax= 5.15D-05  0.00D+00 EMaxC= 1.00D+00 BMatC= 1.97D-07 BMatP= 3.81D-07
 IDIUse=1 WtCom= 1.00D+00 WtEn= 0.00D+00
 Coeff-Com: -0.623D-03 0.781D-03 0.620D-03-0.215D-02-0.227D-01-0.121D-01
 Coeff-Com:  0.167D+00 0.111D+00-0.277D+00-0.126D+01 0.698D+00 0.160D+01
 Coeff:     -0.623D-03 0.781D-03 0.620D-03-0.215D-02-0.227D-01-0.121D-01
 Coeff:      0.167D+00 0.111D+00-0.277D+00-0.126D+01 0.698D+00 0.160D+01
 Gap=     0.258 Goal=   None    Shift=    0.500
 RMSDP=2.39D-06 MaxDP=7.70D-05 DE=-1.92D-06 OVMax= 6.63D-04

 Cycle  13  Pass 1  IDiag  1:
 E= -1130.50690284271     Delta-E=       -0.000000858139 Rises=F Damp=F
 DIIS: error= 3.56D-05 at cycle  13 NSaved=  13.
 NSaved=13 IEnMin=13 EnMin= -1130.50690284271     IErMin=13 ErrMin= 3.56D-05
 ErrMax= 3.56D-05  0.00D+00 EMaxC= 1.00D+00 BMatC= 9.41D-08 BMatP= 1.97D-07
 IDIUse=1 WtCom= 1.00D+00 WtEn= 0.00D+00
 Coeff-Com:  0.155D-04-0.139D-02 0.273D-02 0.617D-03-0.127D-01-0.269D-01
 Coeff-Com:  0.715D-01 0.852D-01 0.106D+00-0.806D+00 0.116D+00-0.381D+00
 Coeff-Com:  0.185D+01
 Coeff:      0.155D-04-0.139D-02 0.273D-02 0.617D-03-0.127D-01-0.269D-01
 Coeff:      0.715D-01 0.852D-01 0.106D+00-0.806D+00 0.116D+00-0.381D+00
 Coeff:      0.185D+01
 Gap=     0.258 Goal=   None    Shift=    0.500
 RMSDP=1.47D-06 MaxDP=4.80D-05 DE=-8.58D-07 OVMax= 4.44D-04

 Cycle  14  Pass 1  IDiag  1:
 E= -1130.50690321970     Delta-E=       -0.000000376991 Rises=F Damp=F
 DIIS: error= 2.46D-05 at cycle  14 NSaved=  14.
 NSaved=14 IEnMin=14 EnMin= -1130.50690321970     IErMin=14 ErrMin= 2.46D-05
 ErrMax= 2.46D-05  0.00D+00 EMaxC= 1.00D+00 BMatC= 4.46D-08 BMatP= 9.41D-08
 IDIUse=1 WtCom= 1.00D+00 WtEn= 0.00D+00
 Coeff-Com:  0.218D-03-0.784D-03 0.804D-03 0.852D-03 0.626D-02-0.145D-01
 Coeff-Com: -0.271D-01-0.162D-01 0.215D+00 0.521D-01-0.125D+00-0.146D+01
 Coeff-Com:  0.525D+00 0.184D+01
 Coeff:      0.218D-03-0.784D-03 0.804D-03 0.852D-03 0.626D-02-0.145D-01
 Coeff:     -0.271D-01-0.162D-01 0.215D+00 0.521D-01-0.125D+00-0.146D+01
 Coeff:      0.525D+00 0.184D+01
 Gap=     0.258 Goal=   None    Shift=    0.500
 RMSDP=9.85D-07 MaxDP=3.21D-05 DE=-3.77D-07 OVMax= 3.03D-04

 SCF Done:  E(RLC-wHPBE) =  -1130.50690322     A.U. after   14 cycles
            NFock= 14  Conv=0.99D-06     -V/T= 2.0044
 KE= 1.125505711393D+03 PE=-7.005257566943D+03 EE= 2.562469029171D+03
 Leave Link  502 at Sun Jan 17 20:44:25 2021, MaxMem=  4026531840 cpu:            5152.2 elap:             645.7
 (Enter /opt/ohpc/pub/libs/gaussian/g16-A.03/sandybridge/g16/l508.exe)
 QCSCF skips out because SCF is already converged.
 Leave Link  508 at Sun Jan 17 20:44:25 2021, MaxMem=  4026531840 cpu:               0.1 elap:               0.0
 (Enter /opt/ohpc/pub/libs/gaussian/g16-A.03/sandybridge/g16/l601.exe)
 Copying SCF densities to generalized density rwf, IOpCl= 0 IROHF=0.

 **********************************************************************

            Population analysis using the SCF density.

 **********************************************************************

 Orbital symmetries:
       Occupied  (A) (A) (A) (A) (A) (A) (A) (A) (A) (A) (A) (A)
                 (A) (A) (A) (A) (A) (A) (A) (A) (A) (A) (A) (A)
                 (A) (A) (A) (A) (A) (A) (A) (A) (A) (A) (A) (A)
                 (A) (A) (A) (A) (A) (A) (A) (A) (A) (A) (A) (A)
                 (A) (A) (A) (A) (A) (A) (A) (A) (A) (A) (A) (A)
                 (A) (A) (A) (A) (A) (A) (A) (A) (A) (A) (A) (A)
                 (A) (A) (A) (A) (A) (A) (A) (A) (A) (A) (A) (A)
                 (A) (A) (A) (A) (A) (A) (A) (A) (A)
       Virtual   (A) (A) (A) (A) (A) (A) (A) (A) (A) (A) (A) (A)
                 (A) (A) (A) (A) (A) (A) (A) (A) (A) (A) (A) (A)
                 (A) (A) (A) (A) (A) (A) (A) (A) (A) (A) (A) (A)
                 (A) (A) (A) (A) (A) (A) (A) (A) (A) (A) (A) (A)
                 (A) (A) (A) (A) (A) (A) (A) (A) (A) (A) (A) (A)
                 (A) (A) (A) (A) (A) (A) (A) (A) (A) (A) (A) (A)
                 (A) (A) (A) (A) (A) (A) (A) (A) (A) (A) (A) (A)
                 (A) (A) (A) (A) (A) (A) (A) (A) (A) (A) (A) (A)
                 (A) (A) (A) (A) (A) (A) (A) (A) (A) (A) (A) (A)
                 (A) (A) (A) (A) (A) (A) (A) (A) (A) (A) (A) (A)
                 (A) (A) (A) (A) (A) (A) (A) (A) (A) (A) (A) (A)
                 (A) (A) (A) (A) (A) (A) (A) (A) (A) (A) (A) (A)
                 (A) (A) (A) (A) (A) (A) (A) (A) (A) (A) (A) (A)
                 (A) (A) (A) (A) (A) (A) (A) (A) (A) (A) (A) (A)
                 (A) (A) (A) (A) (A) (A) (A) (A) (A) (A) (A) (A)
                 (A) (A) (A) (A) (A) (A) (A) (A) (A) (A) (A) (A)
                 (A) (A) (A) (A) (A) (A) (A) (A) (A) (A) (A) (A)
                 (A) (A) (A) (A) (A) (A) (A) (A) (A) (A) (A) (A)
                 (A) (A) (A) (A) (A) (A) (A) (A) (A) (A) (A) (A)
                 (A) (A) (A) (A) (A) (A) (A) (A) (A) (A) (A) (A)
                 (A) (A) (A) (A) (A) (A) (A) (A) (A) (A) (A) (A)
                 (A) (A) (A) (A) (A) (A) (A) (A) (A) (A) (A) (A)
                 (A) (A) (A) (A) (A) (A) (A) (A) (A) (A) (A) (A)
                 (A) (A) (A) (A) (A) (A) (A) (A) (A) (A) (A) (A)
                 (A) (A) (A) (A) (A) (A) (A) (A) (A) (A) (A) (A)
                 (A) (A) (A) (A) (A) (A) (A) (A) (A) (A) (A) (A)
                 (A) (A) (A) (A) (A) (A) (A) (A) (A) (A) (A) (A)
                 (A) (A) (A) (A) (A) (A) (A) (A) (A) (A) (A) (A)
                 (A) (A) (A) (A) (A) (A) (A) (A) (A) (A) (A) (A)
                 (A) (A) (A) (A) (A) (A) (A) (A) (A) (A) (A) (A)
                 (A) (A) (A) (A) (A) (A) (A) (A) (A) (A) (A) (A)
                 (A) (A) (A) (A) (A) (A) (A) (A) (A) (A) (A) (A)
                 (A) (A) (A) (A) (A) (A) (A) (A) (A) (A) (A) (A)
                 (A) (A) (A) (A) (A) (A) (A) (A) (A) (A) (A) (A)
                 (A) (A) (A) (A) (A) (A) (A) (A) (A) (A) (A) (A)
                 (A) (A) (A) (A) (A) (A) (A) (A) (A) (A) (A) (A)
                 (A) (A) (A) (A) (A) (A) (A) (A) (A) (A) (A) (A)
                 (A) (A) (A) (A) (A) (A) (A) (A) (A) (A) (A) (A)
                 (A) (A) (A) (A) (A) (A) (A) (A) (A) (A) (A) (A)
                 (A) (A) (A) (A) (A) (A) (A) (A) (A) (A) (A) (A)
                 (A) (A) (A) (A) (A) (A) (A) (A) (A) (A) (A) (A)
                 (A) (A) (A) (A) (A) (A) (A) (A) (A) (A) (A) (A)
                 (A) (A) (A) (A) (A) (A) (A) (A) (A) (A) (A) (A)
                 (A) (A) (A) (A) (A) (A) (A) (A) (A) (A) (A) (A)
                 (A) (A) (A) (A) (A) (A)
 The electronic state is 1-A.
 Alpha  occ. eigenvalues --  -18.89190 -18.88831 -14.12526 -10.05711 -10.05435
 Alpha  occ. eigenvalues --  -10.03742 -10.03474 -10.03069 -10.00403 -10.00147
 Alpha  occ. eigenvalues --  -10.00066 -10.00008  -9.99906  -9.99756  -9.99501
 Alpha  occ. eigenvalues --   -9.99433  -9.99421  -9.99355  -9.99351  -9.99238
 Alpha  occ. eigenvalues --   -9.99237  -9.99222  -9.99166  -9.99160  -9.99028
 Alpha  occ. eigenvalues --   -9.98544  -9.98482  -1.08942  -1.08594  -1.00038
 Alpha  occ. eigenvalues --   -0.90642  -0.89769  -0.89019  -0.87594  -0.81928
 Alpha  occ. eigenvalues --   -0.80107  -0.79742  -0.78975  -0.78818  -0.78280
 Alpha  occ. eigenvalues --   -0.77422  -0.74664  -0.69107  -0.68606  -0.67206
 Alpha  occ. eigenvalues --   -0.66443  -0.65577  -0.64571  -0.64109  -0.62793
 Alpha  occ. eigenvalues --   -0.60791  -0.60074  -0.59119  -0.57612  -0.55227
 Alpha  occ. eigenvalues --   -0.54123  -0.53918  -0.52832  -0.52015  -0.51494
 Alpha  occ. eigenvalues --   -0.50121  -0.49636  -0.49263  -0.48767  -0.48497
 Alpha  occ. eigenvalues --   -0.48181  -0.47717  -0.47346  -0.47161  -0.46893
 Alpha  occ. eigenvalues --   -0.46358  -0.45014  -0.44455  -0.44114  -0.43114
 Alpha  occ. eigenvalues --   -0.42998  -0.42361  -0.41393  -0.40688  -0.40478
 Alpha  occ. eigenvalues --   -0.39960  -0.39763  -0.39226  -0.38740  -0.36676
 Alpha  occ. eigenvalues --   -0.33925  -0.32871  -0.32050  -0.31980  -0.31169
 Alpha  occ. eigenvalues --   -0.29722  -0.28877  -0.24141
 Alpha virt. eigenvalues --    0.01635   0.02644   0.03650   0.04291   0.04716
 Alpha virt. eigenvalues --    0.05591   0.06000   0.08438   0.08733   0.08947
 Alpha virt. eigenvalues --    0.10875   0.11455   0.11952   0.12441   0.13218
 Alpha virt. eigenvalues --    0.13957   0.14397   0.14745   0.15240   0.15800
 Alpha virt. eigenvalues --    0.16450   0.16894   0.17155   0.17705   0.17857
 Alpha virt. eigenvalues --    0.18436   0.18882   0.19134   0.20159   0.20557
 Alpha virt. eigenvalues --    0.20743   0.21438   0.21738   0.22025   0.22511
 Alpha virt. eigenvalues --    0.23822   0.24384   0.25247   0.25629   0.26257
 Alpha virt. eigenvalues --    0.26452   0.26878   0.27080   0.27256   0.27668
 Alpha virt. eigenvalues --    0.28001   0.28429   0.28672   0.28824   0.29245
 Alpha virt. eigenvalues --    0.29562   0.29839   0.30063   0.30187   0.30485
 Alpha virt. eigenvalues --    0.30591   0.30977   0.31278   0.32377   0.32643
 Alpha virt. eigenvalues --    0.33050   0.33542   0.33808   0.34012   0.34232
 Alpha virt. eigenvalues --    0.34709   0.34979   0.35251   0.35721   0.36202
 Alpha virt. eigenvalues --    0.36769   0.37349   0.37748   0.38077   0.38541
 Alpha virt. eigenvalues --    0.39040   0.39543   0.39750   0.40021   0.40356
 Alpha virt. eigenvalues --    0.40849   0.41315   0.41572   0.41771   0.41952
 Alpha virt. eigenvalues --    0.42402   0.42837   0.43293   0.43517   0.43673
 Alpha virt. eigenvalues --    0.44221   0.44317   0.44729   0.44890   0.45070
 Alpha virt. eigenvalues --    0.45551   0.45939   0.46079   0.46701   0.47261
 Alpha virt. eigenvalues --    0.47506   0.48008   0.48212   0.48328   0.48651
 Alpha virt. eigenvalues --    0.49071   0.49091   0.49425   0.50036   0.50573
 Alpha virt. eigenvalues --    0.50844   0.50956   0.51390   0.51428   0.51650
 Alpha virt. eigenvalues --    0.52652   0.53270   0.53662   0.53918   0.54025
 Alpha virt. eigenvalues --    0.54663   0.55038   0.55504   0.55773   0.55889
 Alpha virt. eigenvalues --    0.56572   0.56672   0.56837   0.57470   0.58124
 Alpha virt. eigenvalues --    0.58259   0.59220   0.60159   0.60411   0.60687
 Alpha virt. eigenvalues --    0.60777   0.61604   0.62353   0.63214   0.63708
 Alpha virt. eigenvalues --    0.63906   0.64536   0.65225   0.65588   0.66236
 Alpha virt. eigenvalues --    0.68205   0.68497   0.68973   0.69578   0.70796
 Alpha virt. eigenvalues --    0.71413   0.71670   0.72156   0.72809   0.73563
 Alpha virt. eigenvalues --    0.73629   0.74304   0.75364   0.75515   0.75649
 Alpha virt. eigenvalues --    0.75847   0.76463   0.77036   0.77040   0.77637
 Alpha virt. eigenvalues --    0.78212   0.78967   0.80466   0.80709   0.81252
 Alpha virt. eigenvalues --    0.81706   0.82861   0.83445   0.84799   0.85223
 Alpha virt. eigenvalues --    0.86287   0.87782   0.88338   0.88776   0.90596
 Alpha virt. eigenvalues --    0.91579   0.92789   0.92963   0.95078   0.95645
 Alpha virt. eigenvalues --    0.97507   0.98911   1.01000   1.16209   1.20070
 Alpha virt. eigenvalues --    1.21289   1.24332   1.25769   1.26015   1.27238
 Alpha virt. eigenvalues --    1.27599   1.28062   1.28535   1.28764   1.28917
 Alpha virt. eigenvalues --    1.29372   1.29555   1.30165   1.30512   1.30849
 Alpha virt. eigenvalues --    1.31314   1.32134   1.32722   1.33385   1.33548
 Alpha virt. eigenvalues --    1.33648   1.34564   1.34710   1.35205   1.35583
 Alpha virt. eigenvalues --    1.35933   1.36008   1.36438   1.36630   1.37122
 Alpha virt. eigenvalues --    1.38101   1.38862   1.39093   1.39649   1.40085
 Alpha virt. eigenvalues --    1.40395   1.42687   1.42951   1.44906   1.45408
 Alpha virt. eigenvalues --    1.45553   1.46020   1.46226   1.46297   1.46552
 Alpha virt. eigenvalues --    1.47064   1.47660   1.48203   1.48286   1.48462
 Alpha virt. eigenvalues --    1.48503   1.48716   1.48960   1.49580   1.50011
 Alpha virt. eigenvalues --    1.50188   1.51114   1.51237   1.51315   1.51633
 Alpha virt. eigenvalues --    1.51844   1.52296   1.52859   1.53242   1.53524
 Alpha virt. eigenvalues --    1.54650   1.54757   1.55500   1.56310   1.56457
 Alpha virt. eigenvalues --    1.56650   1.56971   1.57242   1.57576   1.57784
 Alpha virt. eigenvalues --    1.57998   1.58501   1.58778   1.58880   1.59174
 Alpha virt. eigenvalues --    1.59465   1.60162   1.60584   1.61170   1.61898
 Alpha virt. eigenvalues --    1.62156   1.62737   1.63088   1.63806   1.64134
 Alpha virt. eigenvalues --    1.65435   1.66694   1.67481   1.68832   1.69967
 Alpha virt. eigenvalues --    1.70820   1.71391   1.71483   1.72258   1.73467
 Alpha virt. eigenvalues --    1.75766   1.77475   1.78737   1.79067   1.79724
 Alpha virt. eigenvalues --    1.80148   1.80671   1.80942   1.81367   1.81889
 Alpha virt. eigenvalues --    1.82217   1.82653   1.83003   1.83325   1.84146
 Alpha virt. eigenvalues --    1.84260   1.84404   1.85412   1.85769   1.86654
 Alpha virt. eigenvalues --    1.87410   1.87808   1.89689   1.90264   1.91165
 Alpha virt. eigenvalues --    1.91499   1.91777   1.92129   1.92824   1.93105
 Alpha virt. eigenvalues --    1.93429   1.93769   1.94283   1.94469   1.94855
 Alpha virt. eigenvalues --    1.95574   1.96340   1.96641   1.96967   1.97053
 Alpha virt. eigenvalues --    1.97388   1.97880   1.98489   1.98895   1.99538
 Alpha virt. eigenvalues --    2.01088   2.01427   2.02428   2.02844   2.03322
 Alpha virt. eigenvalues --    2.03553   2.04490   2.04719   2.05257   2.05758
 Alpha virt. eigenvalues --    2.07035   2.08491   2.08808   2.10544   2.12268
 Alpha virt. eigenvalues --    2.13417   2.14328   2.15496   2.16672   2.20092
 Alpha virt. eigenvalues --    2.21833   2.22611   2.23943   2.24477   2.25747
 Alpha virt. eigenvalues --    2.27014   2.28008   2.28395   2.29547   2.29891
 Alpha virt. eigenvalues --    2.31172   2.32283   2.32373   2.32844   2.33530
 Alpha virt. eigenvalues --    2.34121   2.34428   2.34724   2.35153   2.35229
 Alpha virt. eigenvalues --    2.35965   2.36119   2.36925   2.37190   2.37557
 Alpha virt. eigenvalues --    2.37769   2.38158   2.39012   2.39424   2.40003
 Alpha virt. eigenvalues --    2.40224   2.40284   2.40789   2.41539   2.41696
 Alpha virt. eigenvalues --    2.42099   2.42793   2.43792   2.48323   2.49377
 Alpha virt. eigenvalues --    2.50588   2.51553   2.52638   2.52816   2.53603
 Alpha virt. eigenvalues --    2.54760   2.55239   2.56084   2.57137   2.58929
 Alpha virt. eigenvalues --    2.59102   2.59272   2.60994   2.62614   2.63111
 Alpha virt. eigenvalues --    2.63437   2.63807   2.64349   2.65576   2.66343
 Alpha virt. eigenvalues --    2.66877   2.67488   2.67676   2.68011   2.68722
 Alpha virt. eigenvalues --    2.69416   2.70516   2.71005   2.71969   2.72632
 Alpha virt. eigenvalues --    2.73368   2.74779   2.75661   2.77142   2.78662
 Alpha virt. eigenvalues --    2.79675   2.80939   2.81134   2.81901   2.83727
 Alpha virt. eigenvalues --    2.84033   2.84948   2.86122   2.87819   2.88622
 Alpha virt. eigenvalues --    2.90369   2.90957   2.94915   2.95440   2.96381
 Alpha virt. eigenvalues --    2.97337   2.98708   2.99664   3.00771   3.01055
 Alpha virt. eigenvalues --    3.01306   3.02401   3.03799   3.04902   3.05649
 Alpha virt. eigenvalues --    3.05966   3.06450   3.06829   3.07546   3.09408
 Alpha virt. eigenvalues --    3.10636   3.11200   3.12593   3.12726   3.14165
 Alpha virt. eigenvalues --    3.15320   3.16029   3.16971   3.18403   3.18984
 Alpha virt. eigenvalues --    3.19165   3.20571   3.21570   3.21981   3.22917
 Alpha virt. eigenvalues --    3.23481   3.25076   3.25666   3.26642   3.28200
 Alpha virt. eigenvalues --    3.29216   3.30955   3.31446   3.32160   3.34208
 Alpha virt. eigenvalues --    3.36303   3.38328   3.39034   3.41521   3.42225
 Alpha virt. eigenvalues --    3.42720   3.43314   3.48758   3.55832   3.56769
 Alpha virt. eigenvalues --    3.57959   3.59463   3.60075   3.60727   3.73641
 Alpha virt. eigenvalues --    3.81970   3.85636   3.92822   4.08008   4.08824
 Alpha virt. eigenvalues --    4.32754   4.33328  21.09419  21.24815  21.27150
 Alpha virt. eigenvalues --   21.33977  21.63468  21.69355  21.71274  21.74406
 Alpha virt. eigenvalues --   21.76240  21.77392  21.83504  21.86639  21.92309
 Alpha virt. eigenvalues --   21.94937  21.97074  21.97714  21.99492  22.00840
 Alpha virt. eigenvalues --   22.03978  22.05352  22.09333  22.10874  22.15740
 Alpha virt. eigenvalues --   22.19034  32.06274  43.24399  43.26196
          Condensed to atoms (all electrons):
               1          2          3          4          5          6
     1  C    5.019528   0.452089   0.376351  -0.000751   0.005427  -0.115834
     2  C    0.452089   5.005838  -0.014603   0.451021  -0.086078  -0.013181
     3  C    0.376351  -0.014603   5.210130  -0.114549   0.404692  -0.032257
     4  C   -0.000751   0.451021  -0.114549   5.022136   0.006873   0.373201
     5  C    0.005427  -0.086078   0.404692   0.006873   5.431228   0.402798
     6  C   -0.115834  -0.013181  -0.032257   0.373201   0.402798   5.209525
     7  H   -0.062738   0.421699   0.019585  -0.062799  -0.004851   0.019598
     8  H   -0.039896   0.011894   0.405526  -0.002002  -0.055091   0.016542
     9  H    0.014849  -0.061999  -0.000894   0.416437   0.016292  -0.055516
    10  H   -0.002077   0.011965   0.016774  -0.040196  -0.054635   0.405323
    11  C    0.022212   0.006165  -0.097346   0.020044   0.161768  -0.091874
    12  C   -0.000492   0.000074   0.026799   0.002434  -0.133037  -0.014218
    13  C    0.001671   0.000053  -0.015552   0.000046  -0.137881   0.026555
    14  C    0.000313  -0.000025  -0.001250  -0.000409   0.040355   0.001449
    15  C   -0.000167  -0.000028   0.002322   0.000266   0.043473  -0.001293
    16  C   -0.000075   0.000011   0.000021  -0.000033  -0.012567   0.000653
    17  H   -0.000081   0.000075  -0.000345   0.000572  -0.020714   0.004485
    18  H    0.000334   0.000069   0.004204  -0.000025  -0.020592  -0.000341
    19  H   -0.000001   0.000000   0.000011  -0.000005  -0.001060  -0.000043
    20  H   -0.000003   0.000000  -0.000016  -0.000001  -0.000845   0.000007
    21  H    0.416238  -0.061965  -0.055167   0.014855   0.016236  -0.000933
    22  N   -0.000000   0.000000   0.000009  -0.000000  -0.000266   0.000006
    23  C   -0.000001   0.000000  -0.000014   0.000000  -0.000074   0.000010
    24  C    0.000000   0.000000  -0.000000  -0.000000  -0.000000   0.000000
    25  C   -0.000000   0.000000   0.000007   0.000000  -0.000002  -0.000014
    26  C    0.000000  -0.000000   0.000000   0.000000   0.000000  -0.000000
    27  C    0.000000  -0.000000   0.000000   0.000000   0.000002  -0.000001
    28  C    0.000000  -0.000000   0.000000  -0.000000   0.000000   0.000000
    29  H   -0.000000   0.000000   0.000000   0.000000  -0.000000   0.000000
    30  H   -0.000000   0.000000   0.000000   0.000000  -0.000054   0.000004
    31  H   -0.000000   0.000000   0.000000  -0.000000  -0.000000  -0.000000
    32  H    0.000000  -0.000000   0.000000  -0.000000  -0.000000   0.000000
    33  C    0.000000   0.000000   0.000003  -0.000001  -0.000119  -0.000011
    34  C   -0.000000   0.000000   0.000000   0.000000  -0.000000  -0.000000
    35  C    0.000000   0.000000  -0.000010  -0.000000  -0.000053   0.000007
    36  C   -0.000000  -0.000000  -0.000000   0.000000   0.000001   0.000000
    37  C    0.000000  -0.000000  -0.000000   0.000000   0.000006   0.000000
    38  C    0.000000   0.000000   0.000000   0.000000  -0.000001   0.000000
    39  H    0.000000   0.000000   0.000000  -0.000000  -0.000000   0.000000
    40  H    0.000000   0.000000   0.000005  -0.000000  -0.000081   0.000001
    41  H   -0.000000   0.000000  -0.000000  -0.000000  -0.000000  -0.000000
    42  H   -0.000000   0.000000  -0.000000   0.000000  -0.000000   0.000000
    43  O    0.000000   0.000000  -0.000000  -0.000000   0.000000  -0.000000
    44  H   -0.000000   0.000000  -0.000000  -0.000000  -0.000000  -0.000000
    45  O   -0.000000  -0.000000  -0.000000  -0.000000   0.000000  -0.000000
    46  H   -0.000000   0.000000  -0.000000  -0.000000  -0.000000   0.000000
               7          8          9         10         11         12
     1  C   -0.062738  -0.039896   0.014849  -0.002077   0.022212  -0.000492
     2  C    0.421699   0.011894  -0.061999   0.011965   0.006165   0.000074
     3  C    0.019585   0.405526  -0.000894   0.016774  -0.097346   0.026799
     4  C   -0.062799  -0.002002   0.416437  -0.040196   0.020044   0.002434
     5  C   -0.004851  -0.055091   0.016292  -0.054635   0.161768  -0.133037
     6  C    0.019598   0.016542  -0.055516   0.405323  -0.091874  -0.014218
     7  H    0.582711  -0.000223  -0.008671  -0.000222  -0.000185  -0.000007
     8  H   -0.000223   0.555475   0.000040  -0.000176  -0.020528  -0.000198
     9  H   -0.008671   0.000040   0.586655  -0.007188  -0.001595  -0.000019
    10  H   -0.000222  -0.000176  -0.007188   0.555739  -0.020219   0.005932
    11  C   -0.000185  -0.020528  -0.001595  -0.020219   5.516427   0.347756
    12  C   -0.000007  -0.000198  -0.000019   0.005932   0.347756   5.441430
    13  C   -0.000007   0.005901   0.000018  -0.000322   0.375258   0.006278
    14  C    0.000000  -0.000189  -0.000012   0.000627   0.011448   0.185462
    15  C    0.000000   0.000944  -0.000002  -0.000145  -0.005148  -0.147720
    16  C   -0.000000   0.000043   0.000000   0.000056  -0.140102   0.050651
    17  H   -0.000003  -0.000026   0.000007   0.001384  -0.075243   0.407930
    18  H   -0.000003   0.001430   0.000000  -0.000030  -0.075068   0.018057
    19  H    0.000000   0.000001  -0.000000   0.000002   0.014132  -0.049661
    20  H    0.000000   0.000005   0.000000   0.000001   0.013661  -0.000014
    21  H   -0.008663  -0.007165  -0.000249   0.000040  -0.001585   0.000018
    22  N   -0.000000  -0.000002  -0.000000  -0.000001   0.003932   0.020804
    23  C   -0.000000  -0.000000  -0.000000   0.000000  -0.000586   0.000802
    24  C    0.000000  -0.000000  -0.000000   0.000000   0.000039  -0.000266
    25  C    0.000000   0.000000   0.000000  -0.000002  -0.000089   0.001525
    26  C    0.000000  -0.000000  -0.000000  -0.000000   0.000017  -0.000083
    27  C    0.000000   0.000000   0.000000  -0.000000  -0.000087   0.000059
    28  C   -0.000000   0.000000   0.000000   0.000000   0.000013  -0.000005
    29  H   -0.000000   0.000000  -0.000000   0.000000  -0.000000   0.000016
    30  H    0.000000   0.000000  -0.000000   0.000001   0.000145   0.000878
    31  H   -0.000000  -0.000000  -0.000000  -0.000000  -0.000006   0.000003
    32  H   -0.000000   0.000000   0.000000   0.000000  -0.000000   0.000000
    33  C   -0.000000  -0.000000  -0.000000  -0.000001   0.001908  -0.009406
    34  C    0.000000   0.000000  -0.000000  -0.000000   0.000146   0.001802
    35  C    0.000000  -0.000002  -0.000000   0.000001  -0.002094  -0.006532
    36  C   -0.000000  -0.000000   0.000000  -0.000000   0.000064   0.000024
    37  C    0.000000  -0.000000   0.000000   0.000000  -0.000065  -0.000505
    38  C   -0.000000   0.000000  -0.000000   0.000000  -0.000021  -0.000091
    39  H   -0.000000   0.000000  -0.000000   0.000000  -0.000008  -0.000040
    40  H   -0.000000   0.000002  -0.000000   0.000000   0.000146  -0.002256
    41  H   -0.000000  -0.000000  -0.000000  -0.000000  -0.000000  -0.000003
    42  H   -0.000000  -0.000000  -0.000000   0.000000   0.000002   0.000009
    43  O    0.000000   0.000000   0.000000  -0.000000   0.000000   0.000000
    44  H    0.000000  -0.000000  -0.000000  -0.000000  -0.000000   0.000000
    45  O    0.000000  -0.000000   0.000000  -0.000000  -0.000000   0.000000
    46  H    0.000000  -0.000000  -0.000000   0.000000   0.000000  -0.000000
              13         14         15         16         17         18
     1  C    0.001671   0.000313  -0.000167  -0.000075  -0.000081   0.000334
     2  C    0.000053  -0.000025  -0.000028   0.000011   0.000075   0.000069
     3  C   -0.015552  -0.001250   0.002322   0.000021  -0.000345   0.004204
     4  C    0.000046  -0.000409   0.000266  -0.000033   0.000572  -0.000025
     5  C   -0.137881   0.040355   0.043473  -0.012567  -0.020714  -0.020592
     6  C    0.026555   0.001449  -0.001293   0.000653   0.004485  -0.000341
     7  H   -0.000007   0.000000   0.000000  -0.000000  -0.000003  -0.000003
     8  H    0.005901  -0.000189   0.000944   0.000043  -0.000026   0.001430
     9  H    0.000018  -0.000012  -0.000002   0.000000   0.000007   0.000000
    10  H   -0.000322   0.000627  -0.000145   0.000056   0.001384  -0.000030
    11  C    0.375258   0.011448  -0.005148  -0.140102  -0.075243  -0.075068
    12  C    0.006278   0.185462  -0.147720   0.050651   0.407930   0.018057
    13  C    5.397011  -0.151147   0.219419   0.027188   0.018188   0.408498
    14  C   -0.151147   5.427999  -0.070154   0.302622  -0.030718  -0.002130
    15  C    0.219419  -0.070154   5.433339   0.328552  -0.002195  -0.031061
    16  C    0.027188   0.302622   0.328552   5.505046   0.018665   0.018069
    17  H    0.018188  -0.030718  -0.002195   0.018665   0.562620  -0.000119
    18  H    0.408498  -0.002130  -0.031061   0.018069  -0.000119   0.564398
    19  H    0.000366   0.407509   0.010947  -0.048460  -0.007073   0.000018
    20  H   -0.035795   0.010671   0.403314  -0.051624   0.000008  -0.006993
    21  H   -0.000018  -0.000002  -0.000010   0.000000   0.000000   0.000006
    22  N    0.020763  -0.021131  -0.011697   0.168918  -0.000494  -0.000563
    23  C    0.001278  -0.014838   0.010422  -0.072044   0.000079   0.000076
    24  C    0.001557  -0.012942   0.023919  -0.008853   0.000002  -0.000016
    25  C   -0.010306   0.026596  -0.062088   0.020764  -0.000042  -0.000181
    26  C    0.000042  -0.000290   0.002272  -0.002506   0.000000  -0.000001
    27  C   -0.001019   0.000954  -0.008679   0.001135  -0.000001   0.000002
    28  C   -0.000189   0.000331  -0.001039   0.003643  -0.000000  -0.000003
    29  H   -0.000030  -0.000151   0.000034  -0.001025  -0.000000  -0.000000
    30  H   -0.002080  -0.000495   0.001332   0.001614   0.000006   0.000004
    31  H    0.000025  -0.000032  -0.000140  -0.000109   0.000000  -0.000000
    32  H   -0.000001   0.000001  -0.000013   0.000021  -0.000000   0.000000
    33  C   -0.003163   0.041719  -0.008459  -0.099818  -0.000067   0.000052
    34  C   -0.000637   0.012914  -0.011343  -0.019831  -0.000060  -0.000001
    35  C    0.005051  -0.054857   0.012834   0.030184   0.000034  -0.000016
    36  C   -0.000119   0.002582   0.000298  -0.001460  -0.000006   0.000000
    37  C    0.000170  -0.004980   0.001342   0.000408   0.000031  -0.000002
    38  C    0.000028  -0.002041  -0.000007   0.001896  -0.000003   0.000000
    39  H    0.000028   0.000806  -0.000466  -0.001553  -0.000001   0.000000
    40  H    0.000995   0.002308  -0.002119  -0.001500  -0.000028   0.000005
    41  H    0.000000  -0.000042   0.000002  -0.000021   0.000000  -0.000000
    42  H   -0.000003   0.000144  -0.000025  -0.000221  -0.000000  -0.000000
    43  O   -0.000000   0.000010   0.000000  -0.000009  -0.000000  -0.000000
    44  H    0.000000  -0.000000   0.000000  -0.000001   0.000000   0.000000
    45  O    0.000001  -0.000001   0.000017  -0.000005  -0.000000  -0.000000
    46  H    0.000000  -0.000000   0.000003  -0.000008   0.000000  -0.000000
              19         20         21         22         23         24
     1  C   -0.000001  -0.000003   0.416238  -0.000000  -0.000001   0.000000
     2  C    0.000000   0.000000  -0.061965   0.000000   0.000000   0.000000
     3  C    0.000011  -0.000016  -0.055167   0.000009  -0.000014  -0.000000
     4  C   -0.000005  -0.000001   0.014855  -0.000000   0.000000  -0.000000
     5  C   -0.001060  -0.000845   0.016236  -0.000266  -0.000074  -0.000000
     6  C   -0.000043   0.000007  -0.000933   0.000006   0.000010   0.000000
     7  H    0.000000   0.000000  -0.008663  -0.000000  -0.000000   0.000000
     8  H    0.000001   0.000005  -0.007165  -0.000002  -0.000000  -0.000000
     9  H   -0.000000   0.000000  -0.000249  -0.000000  -0.000000  -0.000000
    10  H    0.000002   0.000001   0.000040  -0.000001   0.000000   0.000000
    11  C    0.014132   0.013661  -0.001585   0.003932  -0.000586   0.000039
    12  C   -0.049661  -0.000014   0.000018   0.020804   0.000802  -0.000266
    13  C    0.000366  -0.035795  -0.000018   0.020763   0.001278   0.001557
    14  C    0.407509   0.010671  -0.000002  -0.021131  -0.014838  -0.012942
    15  C    0.010947   0.403314  -0.000010  -0.011697   0.010422   0.023919
    16  C   -0.048460  -0.051624   0.000000   0.168918  -0.072044  -0.008853
    17  H   -0.007073   0.000008   0.000000  -0.000494   0.000079   0.000002
    18  H    0.000018  -0.006993   0.000006  -0.000563   0.000076  -0.000016
    19  H    0.536948  -0.000252   0.000000  -0.009745  -0.001843  -0.000248
    20  H   -0.000252   0.518870  -0.000000  -0.003909  -0.000120  -0.000535
    21  H    0.000000  -0.000000   0.586371  -0.000000  -0.000000   0.000000
    22  N   -0.009745  -0.003909  -0.000000   6.578746   0.192198  -0.046996
    23  C   -0.001843  -0.000120  -0.000000   0.192198   5.340562   0.254317
    24  C   -0.000248  -0.000535   0.000000  -0.046996   0.254317   6.101893
    25  C    0.000299   0.001424  -0.000000  -0.003062   0.383391  -0.206255
    26  C    0.000023   0.000558  -0.000000   0.026728   0.051983   0.094586
    27  C   -0.000009  -0.001801  -0.000000   0.011098  -0.035544   0.047387
    28  C    0.000003   0.000844   0.000000   0.006695  -0.034994  -0.376385
    29  H   -0.000013   0.000016  -0.000000  -0.014475  -0.023816   0.381327
    30  H   -0.000035   0.000863   0.000000  -0.006181  -0.037962   0.009928
    31  H   -0.000001  -0.000049  -0.000000  -0.000655   0.014860   0.001935
    32  H    0.000000   0.000003   0.000000  -0.000043  -0.003107   0.020534
    33  C    0.008805  -0.001698  -0.000000   0.085613  -0.087026   0.070434
    34  C   -0.004928  -0.000424  -0.000000  -0.018568   0.034236  -0.087321
    35  C    0.003567   0.000834   0.000000  -0.006486  -0.020934   0.014869
    36  C    0.002430   0.000027   0.000000   0.030454  -0.006716  -0.001547
    37  C   -0.002329   0.000013   0.000000   0.017715  -0.002128   0.002446
    38  C    0.000346  -0.000004  -0.000000   0.003476   0.001768  -0.002841
    39  H    0.000210  -0.000007  -0.000000  -0.006964  -0.002116   0.004470
    40  H    0.001106   0.000024  -0.000000  -0.008525  -0.001281   0.000375
    41  H    0.000018  -0.000000  -0.000000  -0.000776  -0.000034   0.000115
    42  H   -0.000008   0.000000  -0.000000  -0.000586  -0.000001  -0.000032
    43  O   -0.000008  -0.000000   0.000000  -0.000007   0.000009   0.000004
    44  H   -0.000002  -0.000000  -0.000000  -0.000003  -0.000000  -0.000002
    45  O   -0.000000  -0.000001   0.000000  -0.000024   0.011383  -0.102688
    46  H    0.000000  -0.000000  -0.000000   0.000019  -0.003240   0.024513
              25         26         27         28         29         30
     1  C   -0.000000   0.000000   0.000000   0.000000  -0.000000  -0.000000
     2  C    0.000000  -0.000000  -0.000000  -0.000000   0.000000   0.000000
     3  C    0.000007   0.000000   0.000000   0.000000   0.000000   0.000000
     4  C    0.000000   0.000000   0.000000  -0.000000   0.000000   0.000000
     5  C   -0.000002   0.000000   0.000002   0.000000  -0.000000  -0.000054
     6  C   -0.000014  -0.000000  -0.000001   0.000000   0.000000   0.000004
     7  H    0.000000   0.000000   0.000000  -0.000000  -0.000000   0.000000
     8  H    0.000000  -0.000000   0.000000   0.000000   0.000000   0.000000
     9  H    0.000000  -0.000000   0.000000   0.000000  -0.000000  -0.000000
    10  H   -0.000002  -0.000000  -0.000000   0.000000   0.000000   0.000001
    11  C   -0.000089   0.000017  -0.000087   0.000013  -0.000000   0.000145
    12  C    0.001525  -0.000083   0.000059  -0.000005   0.000016   0.000878
    13  C   -0.010306   0.000042  -0.001019  -0.000189  -0.000030  -0.002080
    14  C    0.026596  -0.000290   0.000954   0.000331  -0.000151  -0.000495
    15  C   -0.062088   0.002272  -0.008679  -0.001039   0.000034   0.001332
    16  C    0.020764  -0.002506   0.001135   0.003643  -0.001025   0.001614
    17  H   -0.000042   0.000000  -0.000001  -0.000000  -0.000000   0.000006
    18  H   -0.000181  -0.000001   0.000002  -0.000003  -0.000000   0.000004
    19  H    0.000299   0.000023  -0.000009   0.000003  -0.000013  -0.000035
    20  H    0.001424   0.000558  -0.001801   0.000844   0.000016   0.000863
    21  H   -0.000000  -0.000000  -0.000000   0.000000  -0.000000   0.000000
    22  N   -0.003062   0.026728   0.011098   0.006695  -0.014475  -0.006181
    23  C    0.383391   0.051983  -0.035544  -0.034994  -0.023816  -0.037962
    24  C   -0.206255   0.094586   0.047387  -0.376385   0.381327   0.009928
    25  C    5.335503  -0.090640   0.375005   0.034322   0.014170   0.392193
    26  C   -0.090640   5.214457   0.063152   0.321805  -0.048757   0.000091
    27  C    0.375005   0.063152   5.127639   0.159898  -0.003328  -0.033784
    28  C    0.034322   0.321805   0.159898   5.838461   0.015601   0.011765
    29  H    0.014170  -0.048757  -0.003328   0.015601   0.512204  -0.000209
    30  H    0.392193   0.000091  -0.033784   0.011765  -0.000209   0.513615
    31  H   -0.048844   0.014040   0.409218  -0.062947   0.000025  -0.007279
    32  H    0.017044  -0.076331  -0.017113   0.385200  -0.000212  -0.000230
    33  C   -0.006912  -0.017899  -0.002641  -0.000114   0.009042  -0.001300
    34  C    0.020634  -0.006914   0.001442   0.001395   0.006626   0.000567
    35  C   -0.010157   0.001737  -0.000077  -0.000156  -0.005221  -0.000394
    36  C    0.001326   0.000869   0.000028   0.000078  -0.003534  -0.000009
    37  C    0.000059   0.000119  -0.000076   0.000040   0.001571   0.000020
    38  C    0.000001  -0.000229   0.000028  -0.000019   0.000328  -0.000005
    39  H   -0.000509  -0.003865   0.000804  -0.000138   0.000883   0.000005
    40  H   -0.000321  -0.000083   0.000027  -0.000014   0.000091  -0.000011
    41  H   -0.000033   0.000011  -0.000002  -0.000000  -0.000004   0.000000
    42  H    0.000003  -0.000003  -0.000000   0.000000   0.000023   0.000000
    43  O    0.000000   0.000000  -0.000000   0.000000  -0.000006   0.000000
    44  H   -0.000000   0.000000   0.000000  -0.000000   0.000001  -0.000000
    45  O   -0.001711   0.419764   0.016800  -0.111396   0.003139   0.000004
    46  H   -0.000309  -0.030840   0.006644  -0.038170  -0.000678  -0.000001
              31         32         33         34         35         36
     1  C   -0.000000   0.000000   0.000000  -0.000000   0.000000  -0.000000
     2  C    0.000000  -0.000000   0.000000   0.000000   0.000000  -0.000000
     3  C    0.000000   0.000000   0.000003   0.000000  -0.000010  -0.000000
     4  C   -0.000000  -0.000000  -0.000001   0.000000  -0.000000   0.000000
     5  C   -0.000000  -0.000000  -0.000119  -0.000000  -0.000053   0.000001
     6  C   -0.000000   0.000000  -0.000011  -0.000000   0.000007   0.000000
     7  H   -0.000000  -0.000000  -0.000000   0.000000   0.000000  -0.000000
     8  H   -0.000000   0.000000  -0.000000   0.000000  -0.000002  -0.000000
     9  H   -0.000000   0.000000  -0.000000  -0.000000  -0.000000   0.000000
    10  H   -0.000000   0.000000  -0.000001  -0.000000   0.000001  -0.000000
    11  C   -0.000006  -0.000000   0.001908   0.000146  -0.002094   0.000064
    12  C    0.000003   0.000000  -0.009406   0.001802  -0.006532   0.000024
    13  C    0.000025  -0.000001  -0.003163  -0.000637   0.005051  -0.000119
    14  C   -0.000032   0.000001   0.041719   0.012914  -0.054857   0.002582
    15  C   -0.000140  -0.000013  -0.008459  -0.011343   0.012834   0.000298
    16  C   -0.000109   0.000021  -0.099818  -0.019831   0.030184  -0.001460
    17  H    0.000000  -0.000000  -0.000067  -0.000060   0.000034  -0.000006
    18  H   -0.000000   0.000000   0.000052  -0.000001  -0.000016   0.000000
    19  H   -0.000001   0.000000   0.008805  -0.004928   0.003567   0.002430
    20  H   -0.000049   0.000003  -0.001698  -0.000424   0.000834   0.000027
    21  H   -0.000000   0.000000  -0.000000  -0.000000   0.000000   0.000000
    22  N   -0.000655  -0.000043   0.085613  -0.018568  -0.006486   0.030454
    23  C    0.014860  -0.003107  -0.087026   0.034236  -0.020934  -0.006716
    24  C    0.001935   0.020534   0.070434  -0.087321   0.014869  -0.001547
    25  C   -0.048844   0.017044  -0.006912   0.020634  -0.010157   0.001326
    26  C    0.014040  -0.076331  -0.017899  -0.006914   0.001737   0.000869
    27  C    0.409218  -0.017113  -0.002641   0.001442  -0.000077   0.000028
    28  C   -0.062947   0.385200  -0.000114   0.001395  -0.000156   0.000078
    29  H    0.000025  -0.000212   0.009042   0.006626  -0.005221  -0.003534
    30  H   -0.007279  -0.000230  -0.001300   0.000567  -0.000394  -0.000009
    31  H    0.586174  -0.007521   0.000051  -0.000027  -0.000001  -0.000001
    32  H   -0.007521   0.584881   0.000027  -0.000009   0.000001  -0.000001
    33  C    0.000051   0.000027   5.714954   0.253913   0.337837   0.119537
    34  C   -0.000027  -0.000009   0.253913   5.606673  -0.119413  -0.210050
    35  C   -0.000001   0.000001   0.337837  -0.119413   5.174495  -0.078017
    36  C   -0.000001  -0.000001   0.119537  -0.210050  -0.078017   6.189124
    37  C    0.000000  -0.000000   0.034750  -0.029239   0.310088  -0.161187
    38  C    0.000000   0.000000  -0.169187   0.141109   0.010181   0.115096
    39  H    0.000002   0.000003  -0.033779   0.403198   0.013002  -0.050229
    40  H   -0.000000   0.000000  -0.054371   0.019246   0.436747  -0.004873
    41  H    0.000000  -0.000000   0.013493   0.011981   0.003604   0.377480
    42  H   -0.000000  -0.000000   0.019459  -0.003787  -0.046764   0.018211
    43  O   -0.000000   0.000000  -0.001504   0.021244   0.005336  -0.114491
    44  H    0.000000  -0.000000  -0.000831   0.008262  -0.001611  -0.042673
    45  O   -0.000101  -0.005595  -0.000431   0.000584  -0.000013   0.000007
    46  H   -0.000027   0.002723  -0.000001  -0.000034   0.000003  -0.000001
              37         38         39         40         41         42
     1  C    0.000000   0.000000   0.000000   0.000000  -0.000000  -0.000000
     2  C   -0.000000   0.000000   0.000000   0.000000   0.000000   0.000000
     3  C   -0.000000   0.000000   0.000000   0.000005  -0.000000  -0.000000
     4  C    0.000000   0.000000  -0.000000  -0.000000  -0.000000   0.000000
     5  C    0.000006  -0.000001  -0.000000  -0.000081  -0.000000  -0.000000
     6  C    0.000000   0.000000   0.000000   0.000001  -0.000000   0.000000
     7  H    0.000000  -0.000000  -0.000000  -0.000000  -0.000000  -0.000000
     8  H   -0.000000   0.000000   0.000000   0.000002  -0.000000  -0.000000
     9  H    0.000000  -0.000000  -0.000000  -0.000000  -0.000000  -0.000000
    10  H    0.000000   0.000000   0.000000   0.000000  -0.000000   0.000000
    11  C   -0.000065  -0.000021  -0.000008   0.000146  -0.000000   0.000002
    12  C   -0.000505  -0.000091  -0.000040  -0.002256  -0.000003   0.000009
    13  C    0.000170   0.000028   0.000028   0.000995   0.000000  -0.000003
    14  C   -0.004980  -0.002041   0.000806   0.002308  -0.000042   0.000144
    15  C    0.001342  -0.000007  -0.000466  -0.002119   0.000002  -0.000025
    16  C    0.000408   0.001896  -0.001553  -0.001500  -0.000021  -0.000221
    17  H    0.000031  -0.000003  -0.000001  -0.000028   0.000000  -0.000000
    18  H   -0.000002   0.000000   0.000000   0.000005  -0.000000  -0.000000
    19  H   -0.002329   0.000346   0.000210   0.001106   0.000018  -0.000008
    20  H    0.000013  -0.000004  -0.000007   0.000024  -0.000000   0.000000
    21  H    0.000000  -0.000000  -0.000000  -0.000000  -0.000000  -0.000000
    22  N    0.017715   0.003476  -0.006964  -0.008525  -0.000776  -0.000586
    23  C   -0.002128   0.001768  -0.002116  -0.001281  -0.000034  -0.000001
    24  C    0.002446  -0.002841   0.004470   0.000375   0.000115  -0.000032
    25  C    0.000059   0.000001  -0.000509  -0.000321  -0.000033   0.000003
    26  C    0.000119  -0.000229  -0.003865  -0.000083   0.000011  -0.000003
    27  C   -0.000076   0.000028   0.000804   0.000027  -0.000002  -0.000000
    28  C    0.000040  -0.000019  -0.000138  -0.000014  -0.000000   0.000000
    29  H    0.001571   0.000328   0.000883   0.000091  -0.000004   0.000023
    30  H    0.000020  -0.000005   0.000005  -0.000011   0.000000   0.000000
    31  H    0.000000   0.000000   0.000002  -0.000000   0.000000  -0.000000
    32  H   -0.000000   0.000000   0.000003   0.000000  -0.000000  -0.000000
    33  C    0.034750  -0.169187  -0.033779  -0.054371   0.013493   0.019459
    34  C   -0.029239   0.141109   0.403198   0.019246   0.011981  -0.003787
    35  C    0.310088   0.010181   0.013002   0.436747   0.003604  -0.046764
    36  C   -0.161187   0.115096  -0.050229  -0.004873   0.377480   0.018211
    37  C    5.370310   0.386877  -0.000843  -0.076920   0.005167   0.420360
    38  C    0.386877   5.133960   0.011446   0.020548  -0.085989  -0.078473
    39  H   -0.000843   0.011446   0.536831  -0.000222  -0.006480   0.000029
    40  H   -0.076920   0.020548  -0.000222   0.547259   0.000030  -0.009068
    41  H    0.005167  -0.085989  -0.006480   0.000030   0.578564  -0.000289
    42  H    0.420360  -0.078473   0.000029  -0.009068  -0.000289   0.560741
    43  O   -0.078768   0.406252  -0.000066  -0.000113  -0.006238   0.002473
    44  H    0.018919  -0.023960  -0.000041   0.000033   0.001579  -0.000725
    45  O   -0.000001   0.000009   0.000011  -0.000001  -0.000002   0.000000
    46  H   -0.000000   0.000000  -0.000000  -0.000000   0.000000  -0.000000
              43         44         45         46
     1  C    0.000000  -0.000000  -0.000000  -0.000000
     2  C    0.000000   0.000000  -0.000000   0.000000
     3  C   -0.000000  -0.000000  -0.000000  -0.000000
     4  C   -0.000000  -0.000000  -0.000000  -0.000000
     5  C    0.000000  -0.000000   0.000000  -0.000000
     6  C   -0.000000  -0.000000  -0.000000   0.000000
     7  H    0.000000   0.000000   0.000000   0.000000
     8  H    0.000000  -0.000000  -0.000000  -0.000000
     9  H    0.000000  -0.000000   0.000000  -0.000000
    10  H   -0.000000  -0.000000  -0.000000   0.000000
    11  C    0.000000  -0.000000  -0.000000   0.000000
    12  C    0.000000   0.000000   0.000000  -0.000000
    13  C   -0.000000   0.000000   0.000001   0.000000
    14  C    0.000010  -0.000000  -0.000001  -0.000000
    15  C    0.000000   0.000000   0.000017   0.000003
    16  C   -0.000009  -0.000001  -0.000005  -0.000008
    17  H   -0.000000   0.000000  -0.000000   0.000000
    18  H   -0.000000   0.000000  -0.000000  -0.000000
    19  H   -0.000008  -0.000002  -0.000000   0.000000
    20  H   -0.000000  -0.000000  -0.000001  -0.000000
    21  H    0.000000  -0.000000   0.000000  -0.000000
    22  N   -0.000007  -0.000003  -0.000024   0.000019
    23  C    0.000009  -0.000000   0.011383  -0.003240
    24  C    0.000004  -0.000002  -0.102688   0.024513
    25  C    0.000000  -0.000000  -0.001711  -0.000309
    26  C    0.000000   0.000000   0.419764  -0.030840
    27  C   -0.000000   0.000000   0.016800   0.006644
    28  C    0.000000  -0.000000  -0.111396  -0.038170
    29  H   -0.000006   0.000001   0.003139  -0.000678
    30  H    0.000000  -0.000000   0.000004  -0.000001
    31  H   -0.000000   0.000000  -0.000101  -0.000027
    32  H    0.000000  -0.000000  -0.005595   0.002723
    33  C   -0.001504  -0.000831  -0.000431  -0.000001
    34  C    0.021244   0.008262   0.000584  -0.000034
    35  C    0.005336  -0.001611  -0.000013   0.000003
    36  C   -0.114491  -0.042673   0.000007  -0.000001
    37  C   -0.078768   0.018919  -0.000001  -0.000000
    38  C    0.406252  -0.023960   0.000009   0.000000
    39  H   -0.000066  -0.000041   0.000011  -0.000000
    40  H   -0.000113   0.000033  -0.000001  -0.000000
    41  H   -0.006238   0.001579  -0.000002   0.000000
    42  H    0.002473  -0.000725   0.000000  -0.000000
    43  O    7.703144   0.302212   0.000000  -0.000000
    44  H    0.302212   0.469882   0.000000   0.000000
    45  O    0.000000   0.000000   7.705088   0.300693
    46  H   -0.000000   0.000000   0.300693   0.469871
 Mulliken charges:
               1
     1  C   -0.086897
     2  C   -0.123074
     3  C   -0.134436
     4  C   -0.087112
     5  C   -0.001149
     6  C   -0.134646
     7  H    0.104778
     8  H    0.127696
     9  H    0.101848
    10  H    0.127369
    11  C    0.036566
    12  C   -0.154187
    13  C   -0.158116
    14  C   -0.108985
    15  C   -0.131053
    16  C   -0.018336
    17  H    0.123132
    18  H    0.121921
    19  H    0.138985
    20  H    0.152952
    21  H    0.101995
    22  N   -0.006010
    23  C    0.051047
    24  C   -0.207722
    25  C   -0.182787
    26  C    0.066190
    27  C   -0.117159
    28  C   -0.154526
    29  H    0.156365
    30  H    0.156992
    31  H    0.101404
    32  H    0.099738
    33  C   -0.212857
    34  C   -0.033386
    35  C   -0.007606
    36  C   -0.182721
    37  C   -0.213371
    38  C    0.129522
    39  H    0.135599
    40  H    0.132839
    41  H    0.107870
    42  H    0.118534
    43  O   -0.239474
    44  H    0.268962
    45  O   -0.235531
    46  H    0.268841
 Sum of Mulliken charges =  -0.00000
 Mulliken charges with hydrogens summed into heavy atoms:
               1
     1  C    0.015098
     2  C   -0.018296
     3  C   -0.006740
     4  C    0.014736
     5  C   -0.001149
     6  C   -0.007277
    11  C    0.036566
    12  C   -0.031056
    13  C   -0.036196
    14  C    0.030000
    15  C    0.021898
    16  C   -0.018336
    22  N   -0.006010
    23  C    0.051047
    24  C   -0.051357
    25  C   -0.025795
    26  C    0.066190
    27  C   -0.015756
    28  C   -0.054788
    33  C   -0.212857
    34  C    0.102213
    35  C    0.125233
    36  C   -0.074851
    37  C   -0.094838
    38  C    0.129522
    43  O    0.029488
    45  O    0.033309
 Electronic spatial extent (au):  <R**2>=          13387.0598
 Charge=             -0.0000 electrons
 Dipole moment (field-independent basis, Debye):
    X=              1.3565    Y=             -0.9985    Z=             -1.4455  Tot=              2.2196
 Quadrupole moment (field-independent basis, Debye-Ang):
   XX=           -138.0656   YY=           -146.2127   ZZ=           -152.3009
   XY=             -3.5248   XZ=             -8.5679   YZ=             -6.8026
 Traceless Quadrupole moment (field-independent basis, Debye-Ang):
   XX=              7.4608   YY=             -0.6863   ZZ=             -6.7745
   XY=             -3.5248   XZ=             -8.5679   YZ=             -6.8026
 Octapole moment (field-independent basis, Debye-Ang**2):
  XXX=             58.4222  YYY=            -68.1971  ZZZ=              5.6193  XYY=            111.8685
  XXY=             -6.0454  XXZ=            -38.7916  XZZ=             -8.9837  YZZ=             13.2984
  YYZ=            -23.0582  XYZ=            -17.7217
 Hexadecapole moment (field-independent basis, Debye-Ang**3):
 XXXX=         -11944.2457 YYYY=          -4116.0616 ZZZZ=           -793.0340 XXXY=            -68.5547
 XXXZ=           -184.5712 YYYX=           -248.7821 YYYZ=           -103.9577 ZZZX=              4.2703
 ZZZY=            -15.9908 XXYY=          -2502.3034 XXZZ=          -2235.8076 YYZZ=           -824.4058
 XXYZ=           -274.0617 YYXZ=            -95.7268 ZZXY=             47.7267
 N-N= 2.186775923160D+03 E-N=-7.005258245741D+03  KE= 1.125505711393D+03
 No NMR shielding tensors so no spin-rotation constants.
 Leave Link  601 at Sun Jan 17 20:44:26 2021, MaxMem=  4026531840 cpu:               5.0 elap:               1.0
 (Enter /opt/ohpc/pub/libs/gaussian/g16-A.03/sandybridge/g16/l9999.exe)

 Test job not archived.
 1\1\GINC-CASCADEB002\SP\RLC-wHPBE\TZVP\C24H19N1O2\RDU230\17-Jan-2021\0
 \\#P LC-wHPBE/TZVP iop(3/107=0191200000, 3/108=0191200000) scf=(conver
 =6,fermi,ndamp=35,noincfock,novaracc,vshift=500,xqc)\\H19 C24 N1 O2\\0
 ,1\C,0,-6.538108,-0.217341,1.255514\C,0,-7.258661,0.087287,0.107878\C,
 0,-5.15139,-0.259049,1.219222\C,0,-6.580697,0.348691,-1.075777\C,0,-4.
 458004,0.000662,0.035726\C,0,-5.193998,0.304569,-1.110911\H,0,-8.34564
 4,0.121015,0.135956\H,0,-4.59391,-0.476283,2.12835\H,0,-7.136138,0.581
 164,-1.982188\H,0,-4.671509,0.488761,-2.047704\C,0,-2.974479,-0.044963
 ,-0.00277\C,0,-2.240322,0.918366,-0.694597\C,0,-2.265576,-1.051297,0.6
 54611\C,0,-0.856277,0.875925,-0.739808\C,0,-0.88157,-1.094369,0.628888
 \C,0,-0.155643,-0.133238,-0.077397\H,0,-2.762026,1.727417,-1.202285\H,
 0,-2.809037,-1.823891,1.195264\H,0,-0.306381,1.639189,-1.284917\H,0,-0
 .352632,-1.885069,1.15502\H,0,-7.059465,-0.416189,2.189743\N,0,1.25702
 6,-0.160831,-0.103806\C,0,1.965402,-1.377887,-0.17457\C,0,3.190004,-1.
 508547,0.478017\C,0,1.461496,-2.456008,-0.912094\C,0,3.903051,-2.69689
 1,0.390217\C,0,2.178621,-3.638306,-0.97461\C,0,3.402953,-3.775056,-0.3
 32839\H,0,3.600761,-0.690157,1.062074\H,0,0.51484,-2.358097,-1.435231\
 H,0,1.782807,-4.471654,-1.551437\H,0,3.963923,-4.706428,-0.398055\C,0,
 1.972861,1.068372,-0.045814\C,0,2.971482,1.350948,-0.972341\C,0,1.6830
 86,2.012203,0.939258\C,0,3.67678,2.543988,-0.910119\C,0,2.365608,3.214
 996,0.992156\C,0,3.371443,3.4833,0.069272\H,0,3.205268,0.621566,-1.744
 392\H,0,0.904271,1.798314,1.667748\H,0,4.460878,2.747602,-1.639197\H,0
 ,2.139895,3.954598,1.756001\O,0,4.022986,4.680331,0.173244\H,0,4.69528
 7,4.73835,-0.517835\O,0,5.097214,-2.751708,1.053752\H,0,5.479651,-3.63
 1493,0.941087\\Version=EM64L-G16RevA.03\State=1-A\HF=-1130.5069032\RMS
 D=9.851e-07\Dipole=0.5337059,-0.3928415,-0.5687098\Quadrupole=5.546936
 3,-0.5102606,-5.0366757,-2.6206092,-6.3700386,-5.0575594\PG=C01 [X(C24
 H19N1O2)]\\@


 ERROR IS A HARDY PLANT... IT FLOURISHETH IN EVERY SOIL.
            MARTIN FARQUHAR TUPPER
 Job cpu time:       0 days  1 hours 27 minutes  2.7 seconds.
 Elapsed time:       0 days  0 hours 10 minutes 55.2 seconds.
 File lengths (MBytes):  RWF=    176 Int=      0 D2E=      0 Chk=     28 Scr=      8
 Normal termination of Gaussian 16 at Sun Jan 17 20:44:26 2021.
