 Entering Gaussian System, Link 0=g16
 Input=mol_bp_ma_half_tune_n8.gjf
 Output=mol_bp_ma_half_tune_n8.log
 Initial command:
 /opt/ohpc/pub/libs/gaussian/g16-A.03/sandybridge/g16/l1.exe "/mnt/gpfs2_4m/scratch/rdu230/ondemand/projects/init_structures/wtuning/mol_bp_ma_half/tuning_mol_bp_ma_half_ocycle0/Gau-81178.inp" -scrdir="/mnt/gpfs2_4m/scratch/rdu230/ondemand/projects/init_structures/wtuning/mol_bp_ma_half/tuning_mol_bp_ma_half_ocycle0/"
 Entering Link 1 = /opt/ohpc/pub/libs/gaussian/g16-A.03/sandybridge/g16/l1.exe PID=     81179.
  
 Copyright (c) 1988,1990,1992,1993,1995,1998,2003,2009,2016,
            Gaussian, Inc.  All Rights Reserved.
  
 This is part of the Gaussian(R) 16 program.  It is based on
 the Gaussian(R) 09 system (copyright 2009, Gaussian, Inc.),
 the Gaussian(R) 03 system (copyright 2003, Gaussian, Inc.),
 the Gaussian(R) 98 system (copyright 1998, Gaussian, Inc.),
 the Gaussian(R) 94 system (copyright 1995, Gaussian, Inc.),
 the Gaussian 92(TM) system (copyright 1992, Gaussian, Inc.),
 the Gaussian 90(TM) system (copyright 1990, Gaussian, Inc.),
 the Gaussian 88(TM) system (copyright 1988, Gaussian, Inc.),
 the Gaussian 86(TM) system (copyright 1986, Carnegie Mellon
 University), and the Gaussian 82(TM) system (copyright 1983,
 Carnegie Mellon University). Gaussian is a federally registered
 trademark of Gaussian, Inc.
  
 This software contains proprietary and confidential information,
 including trade secrets, belonging to Gaussian, Inc.
  
 This software is provided under written license and may be
 used, copied, transmitted, or stored only in accord with that
 written license.
  
 The following legend is applicable only to US Government
 contracts under FAR:
  
                    RESTRICTED RIGHTS LEGEND
  
 Use, reproduction and disclosure by the US Government is
 subject to restrictions as set forth in subparagraphs (a)
 and (c) of the Commercial Computer Software - Restricted
 Rights clause in FAR 52.227-19.
  
 Gaussian, Inc.
 340 Quinnipiac St., Bldg. 40, Wallingford CT 06492
  
  
 ---------------------------------------------------------------
 Warning -- This program may not be used in any manner that
 competes with the business of Gaussian, Inc. or will provide
 assistance to any competitor of Gaussian, Inc.  The licensee
 of this program is prohibited from giving any competitor of
 Gaussian, Inc. access to this program.  By using this program,
 the user acknowledges that Gaussian, Inc. is engaged in the
 business of creating and licensing software in the field of
 computational chemistry and represents and warrants to the
 licensee that it is not a competitor of Gaussian, Inc. and that
 it will not use this program in any manner prohibited above.
 ---------------------------------------------------------------
  

 Cite this work as:
 Gaussian 16, Revision A.03,
 M. J. Frisch, G. W. Trucks, H. B. Schlegel, G. E. Scuseria, 
 M. A. Robb, J. R. Cheeseman, G. Scalmani, V. Barone, 
 G. A. Petersson, H. Nakatsuji, X. Li, M. Caricato, A. V. Marenich, 
 J. Bloino, B. G. Janesko, R. Gomperts, B. Mennucci, H. P. Hratchian, 
 J. V. Ortiz, A. F. Izmaylov, J. L. Sonnenberg, D. Williams-Young, 
 F. Ding, F. Lipparini, F. Egidi, J. Goings, B. Peng, A. Petrone, 
 T. Henderson, D. Ranasinghe, V. G. Zakrzewski, J. Gao, N. Rega, 
 G. Zheng, W. Liang, M. Hada, M. Ehara, K. Toyota, R. Fukuda, 
 J. Hasegawa, M. Ishida, T. Nakajima, Y. Honda, O. Kitao, H. Nakai, 
 T. Vreven, K. Throssell, J. A. Montgomery, Jr., J. E. Peralta, 
 F. Ogliaro, M. J. Bearpark, J. J. Heyd, E. N. Brothers, K. N. Kudin, 
 V. N. Staroverov, T. A. Keith, R. Kobayashi, J. Normand, 
 K. Raghavachari, A. P. Rendell, J. C. Burant, S. S. Iyengar, 
 J. Tomasi, M. Cossi, J. M. Millam, M. Klene, C. Adamo, R. Cammi, 
 J. W. Ochterski, R. L. Martin, K. Morokuma, O. Farkas, 
 J. B. Foresman, and D. J. Fox, Gaussian, Inc., Wallingford CT, 2016.
 
 ******************************************
 Gaussian 16:  EM64L-G16RevA.03 25-Dec-2016
                17-Jan-2021 
 ******************************************
 %mem=30GB
 %nproc=8
 Will use up to    8 processors via shared memory.
 ----------------------------------------------------------------------
 #P LC-wHPBE/TZVP iop(3/107=0181900000, 3/108=0181900000) scf=(conver=6
 ,fermi,ndamp=35,noincfock,novaracc,vshift=500,xqc)
 ----------------------------------------------------------------------
 1/38=1,172=1/1;
 2/12=2,17=6,18=5,40=1/2;
 3/5=19,7=101,11=2,25=1,30=1,74=-71,107=181900000,108=181900000/1,2,3;
 4//1;
 5/5=100002,6=6,8=3,10=500,13=1,18=-1,22=13,38=1,93=35/2,8;
 6/7=2,8=2,9=2,10=2,28=1/1;
 99/5=1,9=1/99;
 Leave Link    1 at Sun Jan 17 22:13:54 2021, MaxMem=  4026531840 cpu:               2.0 elap:               0.3
 (Enter /opt/ohpc/pub/libs/gaussian/g16-A.03/sandybridge/g16/l101.exe)
 -------------
 H19 C24 N1 O2
 -------------
 Symbolic Z-matrix:
 Charge =  0 Multiplicity = 1
 C                    -6.53811  -0.21734   1.25551 
 C                    -7.25866   0.08729   0.10788 
 C                    -5.15139  -0.25905   1.21922 
 C                    -6.5807    0.34869  -1.07578 
 C                    -4.458     0.00066   0.03573 
 C                    -5.194     0.30457  -1.11091 
 H                    -8.34564   0.12102   0.13596 
 H                    -4.59391  -0.47628   2.12835 
 H                    -7.13614   0.58116  -1.98219 
 H                    -4.67151   0.48876  -2.0477 
 C                    -2.97448  -0.04496  -0.00277 
 C                    -2.24032   0.91837  -0.6946 
 C                    -2.26558  -1.0513    0.65461 
 C                    -0.85628   0.87593  -0.73981 
 C                    -0.88157  -1.09437   0.62889 
 C                    -0.15564  -0.13324  -0.0774 
 H                    -2.76203   1.72742  -1.20229 
 H                    -2.80904  -1.82389   1.19526 
 H                    -0.30638   1.63919  -1.28492 
 H                    -0.35263  -1.88507   1.15502 
 H                    -7.05947  -0.41619   2.18974 
 N                     1.25703  -0.16083  -0.10381 
 C                     1.9654   -1.37789  -0.17457 
 C                     3.19     -1.50855   0.47802 
 C                     1.4615   -2.45601  -0.91209 
 C                     3.90305  -2.69689   0.39022 
 C                     2.17862  -3.63831  -0.97461 
 C                     3.40295  -3.77506  -0.33284 
 H                     3.60076  -0.69016   1.06207 
 H                     0.51484  -2.3581   -1.43523 
 H                     1.78281  -4.47165  -1.55144 
 H                     3.96392  -4.70643  -0.39806 
 C                     1.97286   1.06837  -0.04581 
 C                     2.97148   1.35095  -0.97234 
 C                     1.68309   2.0122    0.93926 
 C                     3.67678   2.54399  -0.91012 
 C                     2.36561   3.215     0.99216 
 C                     3.37144   3.4833    0.06927 
 H                     3.20527   0.62157  -1.74439 
 H                     0.90427   1.79831   1.66775 
 H                     4.46088   2.7476   -1.6392 
 H                     2.1399    3.9546    1.756 
 O                     4.02299   4.68033   0.17324 
 H                     4.69529   4.73835  -0.51784 
 O                     5.09721  -2.75171   1.05375 
 H                     5.47965  -3.63149   0.94109 
 
 ITRead=  0  0  0  0  0  0  0  0  0  0  0  0  0  0  0  0  0  0  0  0
 ITRead=  0  0  0  0  0  0  0  0  0  0  0  0  0  0  0  0  0  0  0  0
 ITRead=  0  0  0  0  0  0
 MicOpt= -1 -1 -1 -1 -1 -1 -1 -1 -1 -1 -1 -1 -1 -1 -1 -1 -1 -1 -1 -1
 MicOpt= -1 -1 -1 -1 -1 -1 -1 -1 -1 -1 -1 -1 -1 -1 -1 -1 -1 -1 -1 -1
 MicOpt= -1 -1 -1 -1 -1 -1
 NAtoms=     46 NQM=       46 NQMF=       0 NMMI=      0 NMMIF=      0
                NMic=       0 NMicF=      0.
                    Isotopes and Nuclear Properties:
 (Nuclear quadrupole moments (NQMom) in fm**2, nuclear magnetic moments (NMagM)
  in nuclear magnetons)

  Atom         1           2           3           4           5           6           7           8           9          10
 IAtWgt=          12          12          12          12          12          12           1           1           1           1
 AtmWgt=  12.0000000  12.0000000  12.0000000  12.0000000  12.0000000  12.0000000   1.0078250   1.0078250   1.0078250   1.0078250
 NucSpn=           0           0           0           0           0           0           1           1           1           1
 AtZEff=  -0.0000000  -0.0000000  -0.0000000  -0.0000000  -0.0000000  -0.0000000  -0.0000000  -0.0000000  -0.0000000  -0.0000000
 NQMom=    0.0000000   0.0000000   0.0000000   0.0000000   0.0000000   0.0000000   0.0000000   0.0000000   0.0000000   0.0000000
 NMagM=    0.0000000   0.0000000   0.0000000   0.0000000   0.0000000   0.0000000   2.7928460   2.7928460   2.7928460   2.7928460
 AtZNuc=   6.0000000   6.0000000   6.0000000   6.0000000   6.0000000   6.0000000   1.0000000   1.0000000   1.0000000   1.0000000

  Atom        11          12          13          14          15          16          17          18          19          20
 IAtWgt=          12          12          12          12          12          12           1           1           1           1
 AtmWgt=  12.0000000  12.0000000  12.0000000  12.0000000  12.0000000  12.0000000   1.0078250   1.0078250   1.0078250   1.0078250
 NucSpn=           0           0           0           0           0           0           1           1           1           1
 AtZEff=  -0.0000000  -0.0000000  -0.0000000  -0.0000000  -0.0000000  -0.0000000  -0.0000000  -0.0000000  -0.0000000  -0.0000000
 NQMom=    0.0000000   0.0000000   0.0000000   0.0000000   0.0000000   0.0000000   0.0000000   0.0000000   0.0000000   0.0000000
 NMagM=    0.0000000   0.0000000   0.0000000   0.0000000   0.0000000   0.0000000   2.7928460   2.7928460   2.7928460   2.7928460
 AtZNuc=   6.0000000   6.0000000   6.0000000   6.0000000   6.0000000   6.0000000   1.0000000   1.0000000   1.0000000   1.0000000

  Atom        21          22          23          24          25          26          27          28          29          30
 IAtWgt=           1          14          12          12          12          12          12          12           1           1
 AtmWgt=   1.0078250  14.0030740  12.0000000  12.0000000  12.0000000  12.0000000  12.0000000  12.0000000   1.0078250   1.0078250
 NucSpn=           1           2           0           0           0           0           0           0           1           1
 AtZEff=  -0.0000000  -0.0000000  -0.0000000  -0.0000000  -0.0000000  -0.0000000  -0.0000000  -0.0000000  -0.0000000  -0.0000000
 NQMom=    0.0000000   2.0440000   0.0000000   0.0000000   0.0000000   0.0000000   0.0000000   0.0000000   0.0000000   0.0000000
 NMagM=    2.7928460   0.4037610   0.0000000   0.0000000   0.0000000   0.0000000   0.0000000   0.0000000   2.7928460   2.7928460
 AtZNuc=   1.0000000   7.0000000   6.0000000   6.0000000   6.0000000   6.0000000   6.0000000   6.0000000   1.0000000   1.0000000

  Atom        31          32          33          34          35          36          37          38          39          40
 IAtWgt=           1           1          12          12          12          12          12          12           1           1
 AtmWgt=   1.0078250   1.0078250  12.0000000  12.0000000  12.0000000  12.0000000  12.0000000  12.0000000   1.0078250   1.0078250
 NucSpn=           1           1           0           0           0           0           0           0           1           1
 AtZEff=  -0.0000000  -0.0000000  -0.0000000  -0.0000000  -0.0000000  -0.0000000  -0.0000000  -0.0000000  -0.0000000  -0.0000000
 NQMom=    0.0000000   0.0000000   0.0000000   0.0000000   0.0000000   0.0000000   0.0000000   0.0000000   0.0000000   0.0000000
 NMagM=    2.7928460   2.7928460   0.0000000   0.0000000   0.0000000   0.0000000   0.0000000   0.0000000   2.7928460   2.7928460
 AtZNuc=   1.0000000   1.0000000   6.0000000   6.0000000   6.0000000   6.0000000   6.0000000   6.0000000   1.0000000   1.0000000

  Atom        41          42          43          44          45          46
 IAtWgt=           1           1          16           1          16           1
 AtmWgt=   1.0078250   1.0078250  15.9949146   1.0078250  15.9949146   1.0078250
 NucSpn=           1           1           0           1           0           1
 AtZEff=  -0.0000000  -0.0000000  -0.0000000  -0.0000000  -0.0000000  -0.0000000
 NQMom=    0.0000000   0.0000000   0.0000000   0.0000000   0.0000000   0.0000000
 NMagM=    2.7928460   2.7928460   0.0000000   2.7928460   0.0000000   2.7928460
 AtZNuc=   1.0000000   1.0000000   8.0000000   1.0000000   8.0000000   1.0000000
 Leave Link  101 at Sun Jan 17 22:13:55 2021, MaxMem=  4026531840 cpu:               0.7 elap:               0.1
 (Enter /opt/ohpc/pub/libs/gaussian/g16-A.03/sandybridge/g16/l202.exe)
                          Input orientation:                          
 ---------------------------------------------------------------------
 Center     Atomic      Atomic             Coordinates (Angstroms)
 Number     Number       Type             X           Y           Z
 ---------------------------------------------------------------------
      1          6           0       -6.538108   -0.217341    1.255514
      2          6           0       -7.258661    0.087287    0.107878
      3          6           0       -5.151390   -0.259049    1.219222
      4          6           0       -6.580697    0.348691   -1.075777
      5          6           0       -4.458004    0.000662    0.035726
      6          6           0       -5.193998    0.304569   -1.110911
      7          1           0       -8.345644    0.121015    0.135956
      8          1           0       -4.593910   -0.476283    2.128350
      9          1           0       -7.136138    0.581164   -1.982188
     10          1           0       -4.671509    0.488761   -2.047704
     11          6           0       -2.974479   -0.044963   -0.002770
     12          6           0       -2.240322    0.918366   -0.694597
     13          6           0       -2.265576   -1.051297    0.654611
     14          6           0       -0.856277    0.875925   -0.739808
     15          6           0       -0.881570   -1.094369    0.628888
     16          6           0       -0.155643   -0.133238   -0.077397
     17          1           0       -2.762026    1.727417   -1.202285
     18          1           0       -2.809037   -1.823891    1.195264
     19          1           0       -0.306381    1.639189   -1.284917
     20          1           0       -0.352632   -1.885069    1.155020
     21          1           0       -7.059465   -0.416189    2.189743
     22          7           0        1.257026   -0.160831   -0.103806
     23          6           0        1.965402   -1.377887   -0.174570
     24          6           0        3.190004   -1.508547    0.478017
     25          6           0        1.461496   -2.456008   -0.912094
     26          6           0        3.903051   -2.696891    0.390217
     27          6           0        2.178621   -3.638306   -0.974610
     28          6           0        3.402953   -3.775056   -0.332839
     29          1           0        3.600761   -0.690157    1.062074
     30          1           0        0.514840   -2.358097   -1.435231
     31          1           0        1.782807   -4.471654   -1.551437
     32          1           0        3.963923   -4.706428   -0.398055
     33          6           0        1.972861    1.068372   -0.045814
     34          6           0        2.971482    1.350948   -0.972341
     35          6           0        1.683086    2.012203    0.939258
     36          6           0        3.676780    2.543988   -0.910119
     37          6           0        2.365608    3.214996    0.992156
     38          6           0        3.371443    3.483300    0.069272
     39          1           0        3.205268    0.621566   -1.744392
     40          1           0        0.904271    1.798314    1.667748
     41          1           0        4.460878    2.747602   -1.639197
     42          1           0        2.139895    3.954598    1.756001
     43          8           0        4.022986    4.680331    0.173244
     44          1           0        4.695287    4.738350   -0.517835
     45          8           0        5.097214   -2.751708    1.053752
     46          1           0        5.479651   -3.631493    0.941087
 ---------------------------------------------------------------------
                    Distance matrix (angstroms):
                    1          2          3          4          5
     1  C    0.000000
     2  C    1.388907   0.000000
     3  C    1.387820   2.407410   0.000000
     4  C    2.399401   1.388887   2.771153   0.000000
     5  C    2.421206   2.802925   1.396029   2.421237   0.000000
     6  C    2.771099   2.407383   2.397707   1.387846   1.396003
     7  H    2.152924   1.087869   3.394285   2.152945   3.890794
     8  H    2.146811   3.391285   1.088342   3.859318   2.150586
     9  H    3.387914   2.151117   3.859302   1.088182   3.403140
    10  H    3.859277   3.391323   3.385604   2.146919   2.150466
    11  C    3.783179   4.287651   2.505601   3.783004   1.484726
    12  C    4.854248   5.149600   3.677408   4.394165   2.508718
    13  C    4.394439   5.150358   3.045384   4.855356   2.509258
    14  C    6.120437   6.506231   4.855302   5.758458   3.786816
    15  C    5.758321   6.506539   4.390628   6.121140   3.787059
    16  C    6.520704   7.108855   5.162803   6.519995   4.305930
    17  H    4.907306   4.962487   3.939391   4.061913   2.718583
    18  H    4.060862   4.963282   2.817077   4.909497   2.718936
    19  H    6.981040   7.258269   5.774784   6.409069   4.654551
    20  H    6.407147   7.258094   5.067163   6.982473   4.654340
    21  H    1.088181   2.151123   2.146475   3.387902   3.403109
    22  N    7.912968   8.521930   6.544299   7.914180   5.719014
    23  C    8.700672   9.343974   7.337791   8.765218   6.573033
    24  C    9.844180  10.576308   8.466964  10.066291   7.808032
    25  C    8.585093   9.140560   7.286933   8.518803   6.478740
    26  C   10.766369  11.507179   9.413460  11.015157   8.792593
    27  C    9.625893  10.203632   8.364289   9.624554   7.635945
    28  C   10.677307  11.348213   9.378059  10.827304   8.728490
    29  H   10.151731  10.928950   8.764171  10.455224   8.153178
    30  H    7.846465   8.293878   6.599870   7.602799   5.697073
    31  H    9.757857  10.260868   8.573545   9.664894   7.840180
    32  H   11.540314  12.214011  10.270526  11.713349   9.657832
    33  C    8.705349   9.284780   7.356447   8.645352   6.519408
    34  C    9.892177  10.364340   8.565984   9.605173   7.618184
    35  C    8.524020   9.184298   7.207429   8.667050   6.525002
    36  C   10.800872  11.254136   9.504088  10.491073   8.575421
    37  C    9.546018  10.158300   8.284069   9.619170   7.603182
    38  C   10.644300  11.159458   9.379032  10.496761   8.569138
    39  H   10.229202  10.640027   8.910231   9.812574   7.891773
    40  H    7.721516   8.484944   6.411314   8.102659   5.886344
    41  H   11.753635  12.144017  10.469298  11.313204   9.481429
    42  H    9.641748  10.295886   8.438352   9.852424   7.881956
    43  O   11.691673  12.180964  10.471901  11.522207   9.687384
    44  H   12.405354  12.842148  11.178033  12.113142  10.321572
    45  O   11.909846  12.713073  10.548678  12.268699   9.995705
    46  H   12.497273  13.296171  11.156602  12.859300  10.619285
                    6          7          8          9         10
     6  C    0.000000
     7  H    3.394295   0.000000
     8  H    3.385653   4.289744   0.000000
     9  H    2.146517   2.482172   4.947488   0.000000
    10  H    1.088349   4.289857   4.286812   2.467231   0.000000
    11  C    2.505277   5.375519   2.711137   4.650757   2.710448
    12  C    3.045368   6.212934   3.931088   5.073520   2.815338
    13  C    3.678464   6.213738   2.814904   5.774081   3.932277
    14  C    4.390898   7.578091   4.901499   6.408358   4.051726
    15  C    4.856023   7.578426   4.051158   6.981744   4.902457
    16  C    5.161865   8.196724   4.968019   7.270895   4.966089
    17  H    2.819102   5.962232   4.393771   4.588573   2.427988
    18  H    3.941678   5.963121   2.423318   5.882541   4.397045
    19  H    5.069545   8.303823   5.874395   6.946307   4.578173
    20  H    5.776485   8.303680   4.573892   7.870218   5.877517
    21  H    3.859246   2.482113   2.467051   4.290175   4.947446
    22  N    6.545729   9.609797   6.270206   8.632733   6.272817
    23  C    7.413798  10.424049   7.010057   9.483849   7.144340
    24  C    8.723736  11.655199   8.023620  10.818905   8.495404
    25  C    7.208045  10.194089   7.059147   9.180895   6.897465
    26  C    9.696311  12.571228   8.952684  11.757451   9.466516
    27  C    8.361839  11.230583   8.092832  10.275401   8.068983
    28  C    9.547581  12.386633   8.993841  11.522562   9.290739
    29  H    9.113678  12.009675   8.266518  11.232310   8.915774
    30  H    6.307599   9.333960   6.506893   8.214370   5.947936
    31  H    8.466533  11.248352   8.376535  10.259829   8.155378
    32  H   10.463545  13.233095   9.874885  12.396752  10.211857
    33  C    7.285719  10.363497   7.087696   9.325276   6.963560
    34  C    8.233418  11.437587   8.377841  10.187067   7.766279
    35  C    7.376550  10.237056   6.856178   9.400076   7.184963
    36  C    9.151285  12.308686   9.314432  11.041794   8.672484
    37  C    8.369057  11.181982   7.959357  10.298882   8.135977
    38  C    9.212163  12.190141   9.130441  11.092346   8.839566
    39  H    8.429084  11.713660   8.776707  10.344219   7.883733
    40  H    6.865938   9.524739   5.967909   8.913566   6.827066
    41  H    9.973170  13.193071  10.323615  11.802622   9.416461
    42  H    8.679164  11.281287   8.069416  10.554568   8.536710
    43  O   10.283440  13.182252  10.230543  12.082016   9.904348
    44  H   10.853944  13.849661  10.976515  12.625733  10.398864
    45  O   10.951513  13.776985  10.012502  13.037633  10.749308
    46  H   11.559847  14.348113  10.622692  13.618008  11.355854
                   11         12         13         14         15
    11  C    0.000000
    12  C    1.394853   0.000000
    13  C    1.395493   2.387587   0.000000
    14  C    2.424467   1.385433   2.764907   0.000000
    15  C    2.424977   2.765668   1.384915   2.399172   0.000000
    16  C    2.821205   2.415097   2.414640   1.395739   1.396274
    17  H    2.150652   1.088341   3.378724   2.137944   3.853801
    18  H    2.151102   3.378607   1.088374   3.853152   2.137314
    19  H    3.405733   2.146670   3.852133   1.087245   3.386123
    20  H    3.405958   3.852753   2.145912   3.386314   1.087105
    21  H    4.651025   5.772746   5.073595   6.980786   6.408009
    22  N    4.234297   3.707444   3.711718   2.438321   2.445798
    23  C    5.119436   4.819888   4.323815   3.655275   2.971730
    24  C    6.354061   6.062456   5.477556   4.851927   4.095366
    25  C    5.130096   5.013697   4.280052   4.062454   3.117474
    26  C    7.381570   7.210266   6.389823   6.057489   5.051499
    27  C    6.356967   6.353639   5.394244   5.444632   4.290407
    28  C    7.395551   7.348852   6.366015   6.319675   5.144720
    29  H    6.692081   6.308050   5.891550   5.056143   4.521319
    30  H    4.424690   4.344498   3.715626   3.580848   2.794201
    31  H    6.680249   6.780270   5.740635   6.018314   4.822735
    32  H    8.368209   8.379672   7.298955   7.383345   6.130284
    33  C    5.071246   4.265481   4.790401   2.919364   3.644235
    34  C    6.184100   5.237096   5.987030   3.864124   4.836271
    35  C    5.178056   4.388518   5.005795   3.249424   4.040369
    36  C    7.194803   6.140130   7.119414   4.833223   6.031976
    37  C    6.335120   5.416109   6.305796   4.341831   5.408027
    38  C    7.261168   6.217257   7.258180   5.032557   6.273463
    39  H    6.454981   5.553792   6.203533   4.191663   5.027836
    40  H    4.607928   4.030316   4.381171   3.121964   3.554725
    41  H    8.109306   7.010311   8.058435   5.708258   6.960366
    42  H    6.726558   5.866041   6.758714   4.968333   5.990968
    43  O    8.445348   7.357619   8.522282   6.254149   7.590088
    44  H    9.053766   7.919987   9.129527   6.766643   8.150885
    45  O    8.578749   8.388421   7.567125   7.198655   6.218773
    46  H    9.231813   9.109043   8.168722   7.955263   6.855625
                   16         17         18         19         20
    16  C    0.000000
    17  H    3.394207   0.000000
    18  H    3.393888   4.285118   0.000000
    19  H    2.149959   2.458618   4.940396   0.000000
    20  H    2.150946   4.940862   2.457496   4.286703   0.000000
    21  H    7.272052   5.879531   4.586584   7.867781   6.943333
    22  N    1.413185   4.574376   4.581072   2.660702   2.673694
    23  C    2.461184   5.748712   4.987046   3.936574   2.719986
    24  C    3.659688   6.980082   6.049990   5.024031   3.626344
    25  C    2.950783   5.951756   4.803955   4.476050   2.808913
    26  C    4.823274   8.156826   6.816330   6.271123   4.399411
    27  C    4.305727   7.297452   5.733863   5.841531   3.743849
    28  C    5.098205   8.309038   6.688121   6.631716   4.459842
    29  H    3.964735   7.173357   6.510653   5.118591   4.131074
    30  H    2.691330   5.242475   4.272357   4.083539   2.772303
    31  H    4.975162   7.694537   5.969929   6.463601   4.309922
    32  H    6.163417   9.342352   7.531313   7.699927   5.385606
    33  C    2.444462   4.918427   5.724684   2.656342   3.946230
    34  C    3.575282   5.750454   6.942083   3.305325   5.103646
    35  C    3.002903   4.942300   5.912726   3.007336   4.402207
    36  C    4.748519   6.496951   8.097952   4.101793   6.333838
    37  C    4.325658   5.772443   7.225551   3.848085   5.781524
    38  C    5.053830   6.505338   8.223896   4.331393   6.623214
    39  H    3.826790   6.093060   7.126970   3.684882   5.229576
    40  H    2.810666   4.656592   5.208864   3.195189   3.925558
    41  H    5.661336   7.307668   9.043472   4.907224   7.241489
    42  H    5.034009   6.143340   7.628715   4.537903   6.377741
    43  O    6.379201   7.526498   9.488201   5.488005   7.950748
    44  H    6.888968   8.071289  10.114969   5.933793   8.494093
    45  O    5.977323   9.323085   7.961763   7.344943   5.519252
    46  H    6.710562  10.061670   8.487307   8.137159   6.091904
                   21         22         23         24         25
    21  H    0.000000
    22  N    8.630736   0.000000
    23  C    9.378863   1.409975   0.000000
    24  C   10.448678   2.427192   1.393769   0.000000
    25  C    9.294570   2.441920   1.400074   2.412018   0.000000
    26  C   11.340928   3.698257   2.411066   1.388635   2.777630
    27  C   10.282869   3.701415   2.407285   2.769277   1.384198
    28  C   11.274201   4.209523   2.799647   2.416588   2.417577
    29  H   10.723204   2.670685   2.162559   1.086097   3.404706
    30  H    8.618674   2.674231   2.157361   3.396874   1.086009
    31  H   10.422524   4.577693   3.391238   3.857316   2.138885
    32  H   12.108589   5.298710   3.888858   3.404834   3.404522
    33  C    9.422555   1.423630   2.449656   2.897645   3.665132
    34  C   10.664963   2.445238   3.015821   3.213721   4.095925
    35  C    9.159312   2.447772   3.579529   3.857360   4.841644
    36  C   11.560223   3.717714   4.341768   4.311254   5.468770
    37  C   10.171122   3.718373   4.755627   4.822429   6.050113
    38  C   11.336060   4.216682   5.066315   5.011839   6.315565
    39  H   11.041698   2.664454   2.828325   3.078428   3.633858
    40  H    8.282366   2.664787   3.822092   4.192298   5.006530
    41  H   12.545464   4.591413   5.039067   4.920622   6.050002
    42  H   10.194123   4.601641   5.673883   5.708058   6.976735
    43  O   12.363717   5.582485   6.407545   6.252116   7.659408
    44  H   13.117715   5.999586   6.706598   6.502409   7.897571
    45  O   12.431008   4.774896   3.633787   2.348270   4.143722
    46  H   13.004874   5.564877   4.321270   3.156551   4.578386
                   26         27         28         29         30
    26  C    0.000000
    27  C    2.392211   0.000000
    28  C    1.391168   1.389086   0.000000
    29  H    2.137698   3.855145   3.391388   0.000000
    30  H    3.863550   2.149250   3.400623   4.305980   0.000000
    31  H    3.378644   1.088057   2.143619   4.943189   2.467462
    32  H    2.159471   2.158843   1.089217   4.288857   4.299601
    33  C    4.253582   4.801856   5.058294   2.640057   3.974543
    34  C    4.371428   5.051860   5.183729   2.949737   4.472848
    35  C    5.235003   5.986376   6.169971   3.315918   5.109062
    36  C    5.404524   6.361556   6.351264   3.788802   5.856965
    37  C    6.138116   7.132383   7.189751   4.096427   6.354283
    38  C    6.211310   7.295875   7.269554   4.296043   6.674251
    39  H    4.006946   4.448941   4.621888   3.123025   4.026459
    40  H    5.552624   6.177610   6.427147   3.718923   5.201527
    41  H    5.837139   6.813970   6.735788   4.455879   6.456081
    42  H    7.015439   8.069072   8.105931   4.918273   7.257746
    43  O    7.381386   8.597614   8.493181   5.459893   8.027064
    44  H    7.532264   8.758460   8.612922   5.758714   8.287178
    45  O    1.367227   3.663126   2.416691   2.547437   5.229543
    46  H    1.913794   3.816640   2.440527   3.492323   5.649582
                   31         32         33         34         35
    31  H    0.000000
    32  H    2.478442   0.000000
    33  C    5.744120   6.118555   0.000000
    34  C    5.970845   6.164945   1.391239   0.000000
    35  C    6.946503   7.220154   1.394688   2.398215   0.000000
    36  C    7.295043   7.274146   2.414085   1.387322   2.770885
    37  C    8.117519   8.199772   2.416532   2.775069   1.383960
    38  C    8.272349   8.224419   2.793055   2.406627   2.402405
    39  H    5.291646   5.547585   2.145607   1.087528   3.384211
    40  H    7.102639   7.479350   2.147323   3.382834   1.087658
    41  H    7.700482   7.572976   3.398369   2.147938   3.860747
    42  H    9.059160   9.109358   3.406573   3.861914   2.156071
    43  O    9.578714   9.404314   4.158996   3.674618   3.630539
    44  H    9.714682   9.473810   4.593816   3.827868   4.316057
    45  O    4.553078   2.685707   5.056050   5.045352   5.862101
    46  H    4.537092   2.290462   5.946451   5.897189   6.801854
                   36         37         38         39         40
    36  C    0.000000
    37  C    2.405842   0.000000
    38  C    1.390951   1.391189   0.000000
    39  H    2.148032   3.862590   3.392125   0.000000
    40  H    3.858527   2.144509   3.388398   4.280423   0.000000
    41  H    1.089873   3.395973   2.155687   2.471366   4.948382
    42  H    3.385267   1.086930   2.141001   4.949432   2.486788
    43  O    2.420226   2.358967   1.366822   4.562846   4.501772
    44  H    2.450810   3.166715   1.916353   4.546703   5.271849
    45  O    5.823986   6.562547   6.543914   4.773683   6.217754
    46  H    6.694316   7.521588   7.471605   5.520247   7.137573
                   41         42         43         44         45
    41  H    0.000000
    42  H    4.286160   0.000000
    43  O    2.685542   2.564730   0.000000
    44  H    2.296841   3.509220   0.965891   0.000000
    45  O    6.156241   7.362977   7.560718   7.663707   0.000000
    46  H    6.956193   8.328675   8.473363   8.532172   0.965905
                   46
    46  H    0.000000
 Stoichiometry    C24H19NO2
 Framework group  C1[X(C24H19NO2)]
 Deg. of freedom   132
 Full point group                 C1      NOp   1
 Largest Abelian subgroup         C1      NOp   1
 Largest concise Abelian subgroup C1      NOp   1
                         Standard orientation:                         
 ---------------------------------------------------------------------
 Center     Atomic      Atomic             Coordinates (Angstroms)
 Number     Number       Type             X           Y           Z
 ---------------------------------------------------------------------
      1          6           0       -6.538108   -0.217341    1.255514
      2          6           0       -7.258661    0.087287    0.107878
      3          6           0       -5.151390   -0.259049    1.219222
      4          6           0       -6.580697    0.348691   -1.075777
      5          6           0       -4.458004    0.000662    0.035726
      6          6           0       -5.193998    0.304569   -1.110911
      7          1           0       -8.345644    0.121015    0.135956
      8          1           0       -4.593910   -0.476283    2.128350
      9          1           0       -7.136138    0.581164   -1.982188
     10          1           0       -4.671509    0.488761   -2.047704
     11          6           0       -2.974479   -0.044963   -0.002770
     12          6           0       -2.240322    0.918366   -0.694597
     13          6           0       -2.265576   -1.051297    0.654611
     14          6           0       -0.856277    0.875925   -0.739808
     15          6           0       -0.881570   -1.094369    0.628888
     16          6           0       -0.155643   -0.133238   -0.077397
     17          1           0       -2.762026    1.727417   -1.202285
     18          1           0       -2.809037   -1.823891    1.195264
     19          1           0       -0.306381    1.639189   -1.284917
     20          1           0       -0.352632   -1.885069    1.155020
     21          1           0       -7.059465   -0.416189    2.189743
     22          7           0        1.257026   -0.160831   -0.103806
     23          6           0        1.965402   -1.377887   -0.174570
     24          6           0        3.190004   -1.508547    0.478017
     25          6           0        1.461496   -2.456008   -0.912094
     26          6           0        3.903051   -2.696891    0.390217
     27          6           0        2.178621   -3.638306   -0.974610
     28          6           0        3.402953   -3.775056   -0.332839
     29          1           0        3.600761   -0.690157    1.062074
     30          1           0        0.514840   -2.358097   -1.435231
     31          1           0        1.782807   -4.471654   -1.551437
     32          1           0        3.963923   -4.706428   -0.398055
     33          6           0        1.972861    1.068372   -0.045814
     34          6           0        2.971482    1.350948   -0.972341
     35          6           0        1.683086    2.012203    0.939258
     36          6           0        3.676780    2.543988   -0.910119
     37          6           0        2.365608    3.214996    0.992156
     38          6           0        3.371443    3.483300    0.069272
     39          1           0        3.205268    0.621566   -1.744392
     40          1           0        0.904271    1.798314    1.667748
     41          1           0        4.460878    2.747602   -1.639197
     42          1           0        2.139895    3.954598    1.756001
     43          8           0        4.022986    4.680331    0.173244
     44          1           0        4.695287    4.738350   -0.517835
     45          8           0        5.097214   -2.751708    1.053752
     46          1           0        5.479651   -3.631493    0.941087
 ---------------------------------------------------------------------
 Rotational constants (GHZ):           0.2747871           0.0974680           0.0767524
 Leave Link  202 at Sun Jan 17 22:13:55 2021, MaxMem=  4026531840 cpu:               0.3 elap:               0.1
 (Enter /opt/ohpc/pub/libs/gaussian/g16-A.03/sandybridge/g16/l301.exe)
 Standard basis: TZVP (5D, 7F)
 Ernie: Thresh=  0.10000D-02 Tol=  0.10000D-05 Strict=F.
 There are   654 symmetry adapted cartesian basis functions of A   symmetry.
 There are   627 symmetry adapted basis functions of A   symmetry.
   627 basis functions,  1097 primitive gaussians,   654 cartesian basis functions
    93 alpha electrons       93 beta electrons
       nuclear repulsion energy      2186.7759231597 Hartrees.
 IExCor=33909 DFT=T Ex+Corr=LC-wHPBE ExCW=0 ScaHFX=  1.000000
 ScaDFX=  1.000000  1.000000  1.000000  1.000000 ScalE2=  1.000000  1.000000
 IRadAn=      5 IRanWt=     -1 IRanGd=            0 ICorTp=0 IEmpDi=  4
 HFx  wShort=  0.000000 wLong=  0.181900 cFull=  0.000000 cShort=  0.000000 cLong=  1.000000
 DFx  wShort=  0.000000 wLong=  0.181900 cFull=  0.000000 cShort=  1.000000 cLong=  0.000000
 NAtoms=   46 NActive=   46 NUniq=   46 SFac= 1.00D+00 NAtFMM=   60 NAOKFM=F Big=F
 Integral buffers will be    131072 words long.
 Raffenetti 2 integral format.
 Two-electron integral symmetry is turned on.
 Leave Link  301 at Sun Jan 17 22:13:55 2021, MaxMem=  4026531840 cpu:               0.4 elap:               0.1
 (Enter /opt/ohpc/pub/libs/gaussian/g16-A.03/sandybridge/g16/l302.exe)
 NPDir=0 NMtPBC=     1 NCelOv=     1 NCel=       1 NClECP=     1 NCelD=      1
         NCelK=      1 NCelE2=     1 NClLst=     1 CellRange=     0.0.
 One-electron integrals computed using PRISM.
 One-electron integral symmetry used in STVInt
 NBasis=   627 RedAO= T EigKep=  6.83D-06  NBF=   627
 NBsUse=   627 1.00D-06 EigRej= -1.00D+00 NBFU=   627
 Precomputing XC quadrature grid using
 IXCGrd= 4 IRadAn=           5 IRanWt=          -1 IRanGd=           0 AccXCQ= 0.00D+00.
 Generated NRdTot=       0 NPtTot=           0 NUsed=           0 NTot=          32
 NSgBfM=   623   621   621   623   623 MxSgAt=    46 MxSgA2=    46.
 Leave Link  302 at Sun Jan 17 22:13:56 2021, MaxMem=  4026531840 cpu:               9.1 elap:               1.2
 (Enter /opt/ohpc/pub/libs/gaussian/g16-A.03/sandybridge/g16/l303.exe)
 DipDrv:  MaxL=1.
 Leave Link  303 at Sun Jan 17 22:13:56 2021, MaxMem=  4026531840 cpu:               0.8 elap:               0.1
 (Enter /opt/ohpc/pub/libs/gaussian/g16-A.03/sandybridge/g16/l401.exe)
 ExpMin= 9.52D-02 ExpMax= 2.70D+04 ExpMxC= 9.22D+02 IAcc=3 IRadAn=         5 AccDes= 0.00D+00
 Harris functional with IExCor=33909 and IRadAn=       5 diagonalized for initial guess.
 HarFok:  IExCor=33909 AccDes= 0.00D+00 IRadAn=         5 IDoV= 1 UseB2=F ITyADJ=14
 ICtDFT=  3500011 ScaDFX=  1.000000  1.000000  1.000000  1.000000
 FoFCou: FMM=F IPFlag=           0 FMFlag=      100000 FMFlg1=           0
         NFxFlg=           0 DoJE=T BraDBF=F KetDBF=T FulRan=T
         wScrn=  0.000000 ICntrl=       500 IOpCl=  0 I1Cent=   200000004 NGrid=           0
         NMat0=    1 NMatS0=      1 NMatT0=    0 NMatD0=    1 NMtDS0=    0 NMtDT0=    0
 Petite list used in FoFCou.
 Harris En= -1112.44583966905    
 JPrj=0 DoOrth=F DoCkMO=F.
 Leave Link  401 at Sun Jan 17 22:14:03 2021, MaxMem=  4026531840 cpu:              52.2 elap:               6.6
 (Enter /opt/ohpc/pub/libs/gaussian/g16-A.03/sandybridge/g16/l502.exe)
 Integral symmetry usage will be decided dynamically.
 Closed shell SCF:
 Using DIIS extrapolation, IDIIS=    10.
 NGot=  4026531840 LenX=  4025664800 LenY=  4025236430
 Requested convergence on RMS density matrix=1.00D-06 within  32 cycles.
 Requested convergence on MAX density matrix=1.00D-04.
 Requested convergence on             energy=1.00D-04.
 Virtual orbitals will be shifted by   0.500 hartree.
 No special actions if energy rises.
 Dynamic level shift is on during FON iterations.

 Cycle   1  Pass 1  IDiag  1:
 FoFJK:  IHMeth= 1 ICntrl=       0 DoSepK=T KAlg= 0 I1Cent=           0 FoldK=F
 IRaf=         1 NMat=       1 IRICut=       1 DoRegI=T DoRafI=F ISym2E= 0 IDoP0=0 IntGTp=1.
 FoFCou: FMM=F IPFlag=           0 FMFlag=      100000 FMFlg1=           0
         NFxFlg=           0 DoJE=T BraDBF=F KetDBF=F FulRan=T
         wScrn=  0.000000 ICntrl=       500 IOpCl=  0 I1Cent=           0 NGrid=           0
         NMat0=    1 NMatS0=      1 NMatT0=    0 NMatD0=    1 NMtDS0=    0 NMtDT0=    0
 Symmetry not used in FoFCou.
 E= -1130.02650277940    
 DIIS: error= 2.24D-02 at cycle   1 NSaved=   1.
 NSaved= 1 IEnMin= 1 EnMin= -1130.02650277940     IErMin= 1 ErrMin= 2.24D-02
 ErrMax= 2.24D-02  0.00D+00 EMaxC= 1.00D+00 BMatC= 4.74D-01 BMatP= 4.74D-01
 IDIUse=1 WtCom= 1.00D+00 WtEn= 0.00D+00
 Coeff-Com:  0.100D+01
 Coeff:      0.100D+01
 Gap=     0.288 Goal=   None    Shift=    0.500
 T= 1320. Gap= 0.742 NK=0 IS=   94 IE=  627 IFin=   93
          NO(<0.9)=   0  NV(>0.1)=   0     93.00e < EF      0.00e >EF  Err=0.0D+00
 GapD=    0.288 DampG=1.000 DampE=0.500 DampFc=0.5000 IDamp=-1.
 Damping current iteration by 5.00D-01
 RMSDP=2.27D-03 MaxDP=1.22D-01              OVMax= 7.35D-02

 Cycle   2  Pass 1  IDiag  1:
 E= -1130.31243708814     Delta-E=       -0.285934308737 Rises=F Damp=T
 DIIS: error= 1.02D-02 at cycle   2 NSaved=   2.
 NSaved= 2 IEnMin= 2 EnMin= -1130.31243708814     IErMin= 2 ErrMin= 1.02D-02
 ErrMax= 1.02D-02  0.00D+00 EMaxC= 1.00D+00 BMatC= 7.66D-02 BMatP= 4.74D-01
 IDIUse=1 WtCom= 1.00D+00 WtEn= 0.00D+00
 Coeff-Com: -0.520D+00 0.152D+01
 Coeff:     -0.520D+00 0.152D+01
 Gap=     0.302 Goal=   None    Shift=    0.500
 T= 1200. Gap= 0.746 NK=0 IS=   94 IE=  627 IFin=   93
          NO(<0.9)=   0  NV(>0.1)=   0     93.00e < EF      0.00e >EF  Err=0.0D+00
 GapD=    0.302 DampG=1.000 DampE=0.500 DampFc=0.5000 IDamp=-1.
 Damping current iteration by 5.00D-01
 RMSDP=1.33D-03 MaxDP=8.27D-02 DE=-2.86D-01 OVMax= 1.68D-02

 Cycle   3  Pass 1  IDiag  1:
 E= -1130.41076911778     Delta-E=       -0.098332029642 Rises=F Damp=T
 DIIS: error= 4.52D-03 at cycle   3 NSaved=   3.
 NSaved= 3 IEnMin= 3 EnMin= -1130.41076911778     IErMin= 3 ErrMin= 4.52D-03
 ErrMax= 4.52D-03  0.00D+00 EMaxC= 1.00D+00 BMatC= 1.41D-02 BMatP= 7.66D-02
 IDIUse=1 WtCom= 1.00D+00 WtEn= 0.00D+00
 Coeff-Com:  0.202D-01-0.736D+00 0.172D+01
 Coeff:      0.202D-01-0.736D+00 0.172D+01
 Gap=     0.256 Goal=   None    Shift=    0.500
 T=  964. Gap= 0.754 NK=0 IS=   94 IE=  627 IFin=   93
          NO(<0.9)=   0  NV(>0.1)=   0     93.00e < EF      0.00e >EF  Err=0.0D+00
 GapD=    0.256 DampG=1.000 DampE=1.000 DampFc=1.0000 IDamp=-1.
 RMSDP=8.04D-04 MaxDP=7.97D-02 DE=-9.83D-02 OVMax= 9.28D-03

 Cycle   4  Pass 1  IDiag  1:
 E= -1130.49222469884     Delta-E=       -0.081455581060 Rises=F Damp=F
 DIIS: error= 1.13D-03 at cycle   4 NSaved=   4.
 NSaved= 4 IEnMin= 4 EnMin= -1130.49222469884     IErMin= 4 ErrMin= 1.13D-03
 ErrMax= 1.13D-03  0.00D+00 EMaxC= 1.00D+00 BMatC= 7.15D-04 BMatP= 1.41D-02
 IDIUse=1 WtCom= 1.00D+00 WtEn= 0.00D+00
 Coeff-Com:  0.701D-01-0.187D+00 0.179D+00 0.939D+00
 Coeff:      0.701D-01-0.187D+00 0.179D+00 0.939D+00
 Gap=     0.253 Goal=   None    Shift=    0.500
 T=  454. Gap= 0.753 NK=0 IS=   94 IE=  627 IFin=   93
          NO(<0.9)=   0  NV(>0.1)=   0     93.00e < EF      0.00e >EF  Err=0.0D+00
 GapD=    0.253 DampG=1.000 DampE=1.000 DampFc=1.0000 IDamp=-1.
 RMSDP=1.80D-04 MaxDP=1.23D-02 DE=-8.15D-02 OVMax= 6.37D-03

 Cycle   5  Pass 1  IDiag  1:
 E= -1130.49291628559     Delta-E=       -0.000691586746 Rises=F Damp=F
 DIIS: error= 4.47D-04 at cycle   5 NSaved=   5.
 NSaved= 5 IEnMin= 5 EnMin= -1130.49291628559     IErMin= 5 ErrMin= 4.47D-04
 ErrMax= 4.47D-04  0.00D+00 EMaxC= 1.00D+00 BMatC= 1.03D-04 BMatP= 7.15D-04
 IDIUse=1 WtCom= 1.00D+00 WtEn= 0.00D+00
 Coeff-Com:  0.217D-01-0.448D-02-0.701D-01 0.204D-01 0.103D+01
 Coeff:      0.217D-01-0.448D-02-0.701D-01 0.204D-01 0.103D+01
 Gap=     0.253 Goal=   None    Shift=    0.500
 RMSDP=1.17D-04 MaxDP=6.31D-03 DE=-6.92D-04 OVMax= 4.38D-03

 Cycle   6  Pass 1  IDiag  1:
 E= -1130.49309858765     Delta-E=       -0.000182302064 Rises=F Damp=F
 DIIS: error= 4.82D-04 at cycle   6 NSaved=   6.
 NSaved= 6 IEnMin= 6 EnMin= -1130.49309858765     IErMin= 5 ErrMin= 4.47D-04
 ErrMax= 4.82D-04  0.00D+00 EMaxC= 1.00D+00 BMatC= 2.04D-05 BMatP= 1.03D-04
 IDIUse=1 WtCom= 1.00D+00 WtEn= 0.00D+00
 Coeff-Com: -0.987D-02 0.471D-01-0.705D-01-0.181D+00-0.624D-02 0.122D+01
 Coeff:     -0.987D-02 0.471D-01-0.705D-01-0.181D+00-0.624D-02 0.122D+01
 Gap=     0.253 Goal=   None    Shift=    0.500
 RMSDP=7.15D-05 MaxDP=3.70D-03 DE=-1.82D-04 OVMax= 4.07D-03

 Cycle   7  Pass 1  IDiag  1:
 E= -1130.49316908122     Delta-E=       -0.000070493568 Rises=F Damp=F
 DIIS: error= 3.11D-04 at cycle   7 NSaved=   7.
 NSaved= 7 IEnMin= 7 EnMin= -1130.49316908122     IErMin= 7 ErrMin= 3.11D-04
 ErrMax= 3.11D-04  0.00D+00 EMaxC= 1.00D+00 BMatC= 7.75D-06 BMatP= 2.04D-05
 IDIUse=1 WtCom= 1.00D+00 WtEn= 0.00D+00
 Coeff-Com: -0.820D-02 0.143D-01-0.483D-02-0.482D-01-0.252D+00-0.146D+00
 Coeff-Com:  0.144D+01
 Coeff:     -0.820D-02 0.143D-01-0.483D-02-0.482D-01-0.252D+00-0.146D+00
 Coeff:      0.144D+01
 Gap=     0.253 Goal=   None    Shift=    0.500
 RMSDP=3.96D-05 MaxDP=2.10D-03 DE=-7.05D-05 OVMax= 3.12D-03

 Cycle   8  Pass 1  IDiag  1:
 E= -1130.49320327268     Delta-E=       -0.000034191460 Rises=F Damp=F
 DIIS: error= 2.30D-04 at cycle   8 NSaved=   8.
 NSaved= 8 IEnMin= 8 EnMin= -1130.49320327268     IErMin= 8 ErrMin= 2.30D-04
 ErrMax= 2.30D-04  0.00D+00 EMaxC= 1.00D+00 BMatC= 3.55D-06 BMatP= 7.75D-06
 IDIUse=1 WtCom= 1.00D+00 WtEn= 0.00D+00
 Coeff-Com:  0.518D-03-0.144D-01 0.270D-01 0.486D-01-0.108D+00-0.627D+00
 Coeff-Com:  0.192D+00 0.148D+01
 Coeff:      0.518D-03-0.144D-01 0.270D-01 0.486D-01-0.108D+00-0.627D+00
 Coeff:      0.192D+00 0.148D+01
 Gap=     0.253 Goal=   None    Shift=    0.500
 RMSDP=2.02D-05 MaxDP=9.96D-04 DE=-3.42D-05 OVMax= 2.48D-03

 Cycle   9  Pass 1  IDiag  1:
 E= -1130.49322094204     Delta-E=       -0.000017669355 Rises=F Damp=F
 DIIS: error= 1.56D-04 at cycle   9 NSaved=   9.
 NSaved= 9 IEnMin= 9 EnMin= -1130.49322094204     IErMin= 9 ErrMin= 1.56D-04
 ErrMax= 1.56D-04  0.00D+00 EMaxC= 1.00D+00 BMatC= 1.58D-06 BMatP= 3.55D-06
 IDIUse=1 WtCom= 1.00D+00 WtEn= 0.00D+00
 Coeff-Com:  0.315D-02-0.785D-02 0.557D-02 0.226D-01 0.133D+00-0.217D+00
 Coeff-Com: -0.603D+00-0.411D+00 0.207D+01
 Coeff:      0.315D-02-0.785D-02 0.557D-02 0.226D-01 0.133D+00-0.217D+00
 Coeff:     -0.603D+00-0.411D+00 0.207D+01
 Gap=     0.253 Goal=   None    Shift=    0.500
 RMSDP=9.70D-06 MaxDP=3.78D-04 DE=-1.77D-05 OVMax= 1.93D-03

 Cycle  10  Pass 1  IDiag  1:
 E= -1130.49322984783     Delta-E=       -0.000008905796 Rises=F Damp=F
 DIIS: error= 1.02D-04 at cycle  10 NSaved=  10.
 NSaved=10 IEnMin=10 EnMin= -1130.49322984783     IErMin=10 ErrMin= 1.02D-04
 ErrMax= 1.02D-04  0.00D+00 EMaxC= 1.00D+00 BMatC= 8.05D-07 BMatP= 1.58D-06
 IDIUse=1 WtCom= 1.00D+00 WtEn= 0.00D+00
 Coeff-Com:  0.801D-03 0.240D-02-0.713D-02-0.783D-03 0.125D+00-0.444D-01
 Coeff-Com: -0.331D+00-0.582D+00 0.443D+00 0.139D+01
 Coeff:      0.801D-03 0.240D-02-0.713D-02-0.783D-03 0.125D+00-0.444D-01
 Coeff:     -0.331D+00-0.582D+00 0.443D+00 0.139D+01
 Gap=     0.253 Goal=   None    Shift=    0.500
 RMSDP=5.23D-06 MaxDP=1.41D-04 DE=-8.91D-06 OVMax= 1.34D-03

 Cycle  11  Pass 1  IDiag  1:
 E= -1130.49323391195     Delta-E=       -0.000004064120 Rises=F Damp=F
 DIIS: error= 7.28D-05 at cycle  11 NSaved=  11.
 NSaved=11 IEnMin=11 EnMin= -1130.49323391195     IErMin=11 ErrMin= 7.28D-05
 ErrMax= 7.28D-05  0.00D+00 EMaxC= 1.00D+00 BMatC= 3.68D-07 BMatP= 8.05D-07
 IDIUse=1 WtCom= 1.00D+00 WtEn= 0.00D+00
 Coeff-Com: -0.114D-02 0.580D-02-0.751D-02-0.782D-02 0.268D-01 0.198D-01
 Coeff-Com:  0.880D-01-0.176D+00-0.619D+00-0.355D+00 0.203D+01
 Coeff:     -0.114D-02 0.580D-02-0.751D-02-0.782D-02 0.268D-01 0.198D-01
 Coeff:      0.880D-01-0.176D+00-0.619D+00-0.355D+00 0.203D+01
 Gap=     0.253 Goal=   None    Shift=    0.500
 RMSDP=3.63D-06 MaxDP=1.00D-04 DE=-4.06D-06 OVMax= 9.59D-04

 Cycle  12  Pass 1  IDiag  1:
 E= -1130.49323578149     Delta-E=       -0.000001869541 Rises=F Damp=F
 DIIS: error= 5.14D-05 at cycle  12 NSaved=  12.
 NSaved=12 IEnMin=12 EnMin= -1130.49323578149     IErMin=12 ErrMin= 5.14D-05
 ErrMax= 5.14D-05  0.00D+00 EMaxC= 1.00D+00 BMatC= 1.91D-07 BMatP= 3.68D-07
 IDIUse=1 WtCom= 1.00D+00 WtEn= 0.00D+00
 Coeff-Com: -0.631D-03 0.964D-03 0.277D-03-0.219D-02-0.209D-01-0.134D-01
 Coeff-Com:  0.169D+00 0.114D+00-0.284D+00-0.127D+01 0.683D+00 0.163D+01
 Coeff:     -0.631D-03 0.964D-03 0.277D-03-0.219D-02-0.209D-01-0.134D-01
 Coeff:      0.169D+00 0.114D+00-0.284D+00-0.127D+01 0.683D+00 0.163D+01
 Gap=     0.253 Goal=   None    Shift=    0.500
 RMSDP=2.35D-06 MaxDP=7.86D-05 DE=-1.87D-06 OVMax= 6.61D-04

 Cycle  13  Pass 1  IDiag  1:
 E= -1130.49323663084     Delta-E=       -0.000000849352 Rises=F Damp=F
 DIIS: error= 3.57D-05 at cycle  13 NSaved=  13.
 NSaved=13 IEnMin=13 EnMin= -1130.49323663084     IErMin=13 ErrMin= 3.57D-05
 ErrMax= 3.57D-05  0.00D+00 EMaxC= 1.00D+00 BMatC= 9.28D-08 BMatP= 1.91D-07
 IDIUse=1 WtCom= 1.00D+00 WtEn= 0.00D+00
 Coeff-Com: -0.378D-05-0.130D-02 0.263D-02 0.513D-03-0.129D-01-0.279D-01
 Coeff-Com:  0.761D-01 0.910D-01 0.100D+00-0.836D+00 0.124D+00-0.357D+00
 Coeff-Com:  0.184D+01
 Coeff:     -0.378D-05-0.130D-02 0.263D-02 0.513D-03-0.129D-01-0.279D-01
 Coeff:      0.761D-01 0.910D-01 0.100D+00-0.836D+00 0.124D+00-0.357D+00
 Coeff:      0.184D+01
 Gap=     0.253 Goal=   None    Shift=    0.500
 RMSDP=1.46D-06 MaxDP=4.64D-05 DE=-8.49D-07 OVMax= 4.46D-04

 Cycle  14  Pass 1  IDiag  1:
 E= -1130.49323700831     Delta-E=       -0.000000377465 Rises=F Damp=F
 DIIS: error= 2.47D-05 at cycle  14 NSaved=  14.
 NSaved=14 IEnMin=14 EnMin= -1130.49323700831     IErMin=14 ErrMin= 2.47D-05
 ErrMax= 2.47D-05  0.00D+00 EMaxC= 1.00D+00 BMatC= 4.47D-08 BMatP= 9.28D-08
 IDIUse=1 WtCom= 1.00D+00 WtEn= 0.00D+00
 Coeff-Com:  0.217D-03-0.855D-03 0.955D-03 0.817D-03 0.540D-02-0.151D-01
 Coeff-Com: -0.246D-01-0.137D-01 0.217D+00 0.363D-01-0.111D+00-0.148D+01
 Coeff-Com:  0.524D+00 0.186D+01
 Coeff:      0.217D-03-0.855D-03 0.955D-03 0.817D-03 0.540D-02-0.151D-01
 Coeff:     -0.246D-01-0.137D-01 0.217D+00 0.363D-01-0.111D+00-0.148D+01
 Coeff:      0.524D+00 0.186D+01
 Gap=     0.253 Goal=   None    Shift=    0.500
 RMSDP=9.80D-07 MaxDP=3.11D-05 DE=-3.77D-07 OVMax= 3.05D-04

 SCF Done:  E(RLC-wHPBE) =  -1130.49323701     A.U. after   14 cycles
            NFock= 14  Conv=0.98D-06     -V/T= 2.0044
 KE= 1.125538715641D+03 PE=-7.005283831700D+03 EE= 2.562475955890D+03
 Leave Link  502 at Sun Jan 17 22:24:47 2021, MaxMem=  4026531840 cpu:            5141.1 elap:             644.3
 (Enter /opt/ohpc/pub/libs/gaussian/g16-A.03/sandybridge/g16/l508.exe)
 QCSCF skips out because SCF is already converged.
 Leave Link  508 at Sun Jan 17 22:24:47 2021, MaxMem=  4026531840 cpu:               0.1 elap:               0.0
 (Enter /opt/ohpc/pub/libs/gaussian/g16-A.03/sandybridge/g16/l601.exe)
 Copying SCF densities to generalized density rwf, IOpCl= 0 IROHF=0.

 **********************************************************************

            Population analysis using the SCF density.

 **********************************************************************

 Orbital symmetries:
       Occupied  (A) (A) (A) (A) (A) (A) (A) (A) (A) (A) (A) (A)
                 (A) (A) (A) (A) (A) (A) (A) (A) (A) (A) (A) (A)
                 (A) (A) (A) (A) (A) (A) (A) (A) (A) (A) (A) (A)
                 (A) (A) (A) (A) (A) (A) (A) (A) (A) (A) (A) (A)
                 (A) (A) (A) (A) (A) (A) (A) (A) (A) (A) (A) (A)
                 (A) (A) (A) (A) (A) (A) (A) (A) (A) (A) (A) (A)
                 (A) (A) (A) (A) (A) (A) (A) (A) (A) (A) (A) (A)
                 (A) (A) (A) (A) (A) (A) (A) (A) (A)
       Virtual   (A) (A) (A) (A) (A) (A) (A) (A) (A) (A) (A) (A)
                 (A) (A) (A) (A) (A) (A) (A) (A) (A) (A) (A) (A)
                 (A) (A) (A) (A) (A) (A) (A) (A) (A) (A) (A) (A)
                 (A) (A) (A) (A) (A) (A) (A) (A) (A) (A) (A) (A)
                 (A) (A) (A) (A) (A) (A) (A) (A) (A) (A) (A) (A)
                 (A) (A) (A) (A) (A) (A) (A) (A) (A) (A) (A) (A)
                 (A) (A) (A) (A) (A) (A) (A) (A) (A) (A) (A) (A)
                 (A) (A) (A) (A) (A) (A) (A) (A) (A) (A) (A) (A)
                 (A) (A) (A) (A) (A) (A) (A) (A) (A) (A) (A) (A)
                 (A) (A) (A) (A) (A) (A) (A) (A) (A) (A) (A) (A)
                 (A) (A) (A) (A) (A) (A) (A) (A) (A) (A) (A) (A)
                 (A) (A) (A) (A) (A) (A) (A) (A) (A) (A) (A) (A)
                 (A) (A) (A) (A) (A) (A) (A) (A) (A) (A) (A) (A)
                 (A) (A) (A) (A) (A) (A) (A) (A) (A) (A) (A) (A)
                 (A) (A) (A) (A) (A) (A) (A) (A) (A) (A) (A) (A)
                 (A) (A) (A) (A) (A) (A) (A) (A) (A) (A) (A) (A)
                 (A) (A) (A) (A) (A) (A) (A) (A) (A) (A) (A) (A)
                 (A) (A) (A) (A) (A) (A) (A) (A) (A) (A) (A) (A)
                 (A) (A) (A) (A) (A) (A) (A) (A) (A) (A) (A) (A)
                 (A) (A) (A) (A) (A) (A) (A) (A) (A) (A) (A) (A)
                 (A) (A) (A) (A) (A) (A) (A) (A) (A) (A) (A) (A)
                 (A) (A) (A) (A) (A) (A) (A) (A) (A) (A) (A) (A)
                 (A) (A) (A) (A) (A) (A) (A) (A) (A) (A) (A) (A)
                 (A) (A) (A) (A) (A) (A) (A) (A) (A) (A) (A) (A)
                 (A) (A) (A) (A) (A) (A) (A) (A) (A) (A) (A) (A)
                 (A) (A) (A) (A) (A) (A) (A) (A) (A) (A) (A) (A)
                 (A) (A) (A) (A) (A) (A) (A) (A) (A) (A) (A) (A)
                 (A) (A) (A) (A) (A) (A) (A) (A) (A) (A) (A) (A)
                 (A) (A) (A) (A) (A) (A) (A) (A) (A) (A) (A) (A)
                 (A) (A) (A) (A) (A) (A) (A) (A) (A) (A) (A) (A)
                 (A) (A) (A) (A) (A) (A) (A) (A) (A) (A) (A) (A)
                 (A) (A) (A) (A) (A) (A) (A) (A) (A) (A) (A) (A)
                 (A) (A) (A) (A) (A) (A) (A) (A) (A) (A) (A) (A)
                 (A) (A) (A) (A) (A) (A) (A) (A) (A) (A) (A) (A)
                 (A) (A) (A) (A) (A) (A) (A) (A) (A) (A) (A) (A)
                 (A) (A) (A) (A) (A) (A) (A) (A) (A) (A) (A) (A)
                 (A) (A) (A) (A) (A) (A) (A) (A) (A) (A) (A) (A)
                 (A) (A) (A) (A) (A) (A) (A) (A) (A) (A) (A) (A)
                 (A) (A) (A) (A) (A) (A) (A) (A) (A) (A) (A) (A)
                 (A) (A) (A) (A) (A) (A) (A) (A) (A) (A) (A) (A)
                 (A) (A) (A) (A) (A) (A) (A) (A) (A) (A) (A) (A)
                 (A) (A) (A) (A) (A) (A) (A) (A) (A) (A) (A) (A)
                 (A) (A) (A) (A) (A) (A) (A) (A) (A) (A) (A) (A)
                 (A) (A) (A) (A) (A) (A) (A) (A) (A) (A) (A) (A)
                 (A) (A) (A) (A) (A) (A)
 The electronic state is 1-A.
 Alpha  occ. eigenvalues --  -18.88701 -18.88337 -14.12038 -10.05178 -10.04895
 Alpha  occ. eigenvalues --  -10.03201 -10.02939 -10.02542  -9.99873  -9.99624
 Alpha  occ. eigenvalues --   -9.99539  -9.99478  -9.99380  -9.99221  -9.98981
 Alpha  occ. eigenvalues --   -9.98903  -9.98892  -9.98827  -9.98823  -9.98710
 Alpha  occ. eigenvalues --   -9.98709  -9.98694  -9.98641  -9.98636  -9.98502
 Alpha  occ. eigenvalues --   -9.98022  -9.97959  -1.08422  -1.08070  -0.99495
 Alpha  occ. eigenvalues --   -0.90080  -0.89214  -0.88462  -0.87043  -0.81386
 Alpha  occ. eigenvalues --   -0.79574  -0.79210  -0.78440  -0.78286  -0.77748
 Alpha  occ. eigenvalues --   -0.76899  -0.74151  -0.68616  -0.68119  -0.66717
 Alpha  occ. eigenvalues --   -0.65950  -0.65098  -0.64092  -0.63627  -0.62322
 Alpha  occ. eigenvalues --   -0.60331  -0.59626  -0.58662  -0.57154  -0.54776
 Alpha  occ. eigenvalues --   -0.53683  -0.53486  -0.52391  -0.51582  -0.51066
 Alpha  occ. eigenvalues --   -0.49698  -0.49210  -0.48836  -0.48346  -0.48076
 Alpha  occ. eigenvalues --   -0.47767  -0.47296  -0.46910  -0.46723  -0.46470
 Alpha  occ. eigenvalues --   -0.45955  -0.44588  -0.44038  -0.43713  -0.42727
 Alpha  occ. eigenvalues --   -0.42569  -0.41978  -0.40984  -0.40287  -0.40085
 Alpha  occ. eigenvalues --   -0.39585  -0.39388  -0.38858  -0.38373  -0.36304
 Alpha  occ. eigenvalues --   -0.33599  -0.32559  -0.31741  -0.31675  -0.30863
 Alpha  occ. eigenvalues --   -0.29440  -0.28578  -0.23895
 Alpha virt. eigenvalues --    0.01423   0.02412   0.03421   0.04048   0.04465
 Alpha virt. eigenvalues --    0.05346   0.05752   0.08184   0.08482   0.08683
 Alpha virt. eigenvalues --    0.10640   0.11217   0.11709   0.12204   0.12987
 Alpha virt. eigenvalues --    0.13724   0.14173   0.14513   0.15008   0.15565
 Alpha virt. eigenvalues --    0.16214   0.16664   0.16924   0.17458   0.17589
 Alpha virt. eigenvalues --    0.18177   0.18623   0.18818   0.19835   0.20279
 Alpha virt. eigenvalues --    0.20460   0.21110   0.21462   0.21743   0.22246
 Alpha virt. eigenvalues --    0.23541   0.24113   0.24968   0.25346   0.25984
 Alpha virt. eigenvalues --    0.26181   0.26600   0.26811   0.26993   0.27394
 Alpha virt. eigenvalues --    0.27734   0.28146   0.28401   0.28543   0.28957
 Alpha virt. eigenvalues --    0.29293   0.29563   0.29775   0.29910   0.30201
 Alpha virt. eigenvalues --    0.30295   0.30701   0.30996   0.32086   0.32352
 Alpha virt. eigenvalues --    0.32758   0.33252   0.33512   0.33719   0.33930
 Alpha virt. eigenvalues --    0.34406   0.34676   0.34948   0.35422   0.35894
 Alpha virt. eigenvalues --    0.36461   0.37045   0.37443   0.37773   0.38229
 Alpha virt. eigenvalues --    0.38730   0.39227   0.39434   0.39716   0.40040
 Alpha virt. eigenvalues --    0.40535   0.41004   0.41265   0.41463   0.41630
 Alpha virt. eigenvalues --    0.42094   0.42530   0.42975   0.43206   0.43365
 Alpha virt. eigenvalues --    0.43918   0.43999   0.44407   0.44579   0.44759
 Alpha virt. eigenvalues --    0.45244   0.45634   0.45779   0.46394   0.46952
 Alpha virt. eigenvalues --    0.47212   0.47709   0.47906   0.48024   0.48355
 Alpha virt. eigenvalues --    0.48759   0.48790   0.49120   0.49726   0.50273
 Alpha virt. eigenvalues --    0.50540   0.50651   0.51088   0.51114   0.51321
 Alpha virt. eigenvalues --    0.52333   0.52945   0.53340   0.53595   0.53715
 Alpha virt. eigenvalues --    0.54346   0.54701   0.55192   0.55454   0.55579
 Alpha virt. eigenvalues --    0.56249   0.56341   0.56509   0.57134   0.57784
 Alpha virt. eigenvalues --    0.57930   0.58888   0.59832   0.60073   0.60354
 Alpha virt. eigenvalues --    0.60460   0.61269   0.62021   0.62883   0.63353
 Alpha virt. eigenvalues --    0.63560   0.64202   0.64868   0.65241   0.65888
 Alpha virt. eigenvalues --    0.67860   0.68149   0.68641   0.69227   0.70431
 Alpha virt. eigenvalues --    0.71062   0.71322   0.71828   0.72461   0.73221
 Alpha virt. eigenvalues --    0.73264   0.73969   0.75005   0.75135   0.75276
 Alpha virt. eigenvalues --    0.75474   0.76087   0.76662   0.76687   0.77283
 Alpha virt. eigenvalues --    0.77867   0.78611   0.80138   0.80375   0.80913
 Alpha virt. eigenvalues --    0.81364   0.82537   0.83110   0.84469   0.84883
 Alpha virt. eigenvalues --    0.85961   0.87453   0.88018   0.88449   0.90271
 Alpha virt. eigenvalues --    0.91241   0.92448   0.92623   0.94755   0.95309
 Alpha virt. eigenvalues --    0.97173   0.98574   1.00668   1.15824   1.19681
 Alpha virt. eigenvalues --    1.20893   1.23918   1.25356   1.25600   1.26818
 Alpha virt. eigenvalues --    1.27185   1.27648   1.28113   1.28351   1.28497
 Alpha virt. eigenvalues --    1.28957   1.29129   1.29746   1.30097   1.30435
 Alpha virt. eigenvalues --    1.30907   1.31716   1.32312   1.32974   1.33132
 Alpha virt. eigenvalues --    1.33229   1.34159   1.34297   1.34794   1.35179
 Alpha virt. eigenvalues --    1.35522   1.35610   1.36032   1.36223   1.36707
 Alpha virt. eigenvalues --    1.37689   1.38441   1.38674   1.39227   1.39662
 Alpha virt. eigenvalues --    1.39978   1.42277   1.42537   1.44484   1.44983
 Alpha virt. eigenvalues --    1.45131   1.45600   1.45799   1.45868   1.46125
 Alpha virt. eigenvalues --    1.46642   1.47237   1.47777   1.47860   1.48038
 Alpha virt. eigenvalues --    1.48075   1.48290   1.48537   1.49156   1.49587
 Alpha virt. eigenvalues --    1.49764   1.50690   1.50812   1.50894   1.51208
 Alpha virt. eigenvalues --    1.51422   1.51872   1.52439   1.52820   1.53100
 Alpha virt. eigenvalues --    1.54233   1.54342   1.55079   1.55889   1.56034
 Alpha virt. eigenvalues --    1.56231   1.56542   1.56815   1.57146   1.57354
 Alpha virt. eigenvalues --    1.57581   1.58073   1.58348   1.58459   1.58749
 Alpha virt. eigenvalues --    1.59039   1.59732   1.60161   1.60748   1.61472
 Alpha virt. eigenvalues --    1.61739   1.62324   1.62669   1.63389   1.63714
 Alpha virt. eigenvalues --    1.65018   1.66279   1.67068   1.68415   1.69548
 Alpha virt. eigenvalues --    1.70402   1.70971   1.71072   1.71834   1.73046
 Alpha virt. eigenvalues --    1.75341   1.77047   1.78301   1.78633   1.79287
 Alpha virt. eigenvalues --    1.79712   1.80237   1.80507   1.80931   1.81454
 Alpha virt. eigenvalues --    1.81780   1.82215   1.82567   1.82889   1.83707
 Alpha virt. eigenvalues --    1.83819   1.83964   1.84971   1.85330   1.86216
 Alpha virt. eigenvalues --    1.86972   1.87369   1.89249   1.89823   1.90726
 Alpha virt. eigenvalues --    1.91062   1.91336   1.91689   1.92384   1.92664
 Alpha virt. eigenvalues --    1.92988   1.93327   1.93842   1.94027   1.94414
 Alpha virt. eigenvalues --    1.95130   1.95897   1.96200   1.96525   1.96614
 Alpha virt. eigenvalues --    1.96948   1.97441   1.98048   1.98453   1.99094
 Alpha virt. eigenvalues --    2.00642   2.00984   2.01977   2.02390   2.02869
 Alpha virt. eigenvalues --    2.03102   2.04040   2.04267   2.04809   2.05310
 Alpha virt. eigenvalues --    2.06590   2.08045   2.08361   2.10103   2.11821
 Alpha virt. eigenvalues --    2.12970   2.13878   2.15051   2.16219   2.19635
 Alpha virt. eigenvalues --    2.21374   2.22157   2.23483   2.24022   2.25288
 Alpha virt. eigenvalues --    2.26552   2.27549   2.27934   2.29091   2.29434
 Alpha virt. eigenvalues --    2.30708   2.31826   2.31915   2.32384   2.33073
 Alpha virt. eigenvalues --    2.33663   2.33970   2.34267   2.34695   2.34770
 Alpha virt. eigenvalues --    2.35509   2.35657   2.36466   2.36728   2.37098
 Alpha virt. eigenvalues --    2.37309   2.37699   2.38551   2.38962   2.39542
 Alpha virt. eigenvalues --    2.39761   2.39824   2.40330   2.41078   2.41236
 Alpha virt. eigenvalues --    2.41640   2.42339   2.43333   2.47862   2.48921
 Alpha virt. eigenvalues --    2.50128   2.51092   2.52175   2.52355   2.53144
 Alpha virt. eigenvalues --    2.54300   2.54785   2.55631   2.56680   2.58474
 Alpha virt. eigenvalues --    2.58645   2.58813   2.60542   2.62153   2.62639
 Alpha virt. eigenvalues --    2.62983   2.63340   2.63882   2.65116   2.65876
 Alpha virt. eigenvalues --    2.66404   2.67020   2.67211   2.67546   2.68266
 Alpha virt. eigenvalues --    2.68953   2.70064   2.70548   2.71508   2.72160
 Alpha virt. eigenvalues --    2.72924   2.74317   2.75197   2.76674   2.78192
 Alpha virt. eigenvalues --    2.79206   2.80472   2.80673   2.81435   2.83270
 Alpha virt. eigenvalues --    2.83574   2.84485   2.85663   2.87355   2.88158
 Alpha virt. eigenvalues --    2.89911   2.90497   2.94417   2.94949   2.95906
 Alpha virt. eigenvalues --    2.96871   2.98238   2.99200   3.00274   3.00563
 Alpha virt. eigenvalues --    3.00870   3.01954   3.03356   3.04452   3.05200
 Alpha virt. eigenvalues --    3.05516   3.05998   3.06377   3.07096   3.08961
 Alpha virt. eigenvalues --    3.10184   3.10750   3.12140   3.12274   3.13711
 Alpha virt. eigenvalues --    3.14859   3.15573   3.16510   3.17942   3.18523
 Alpha virt. eigenvalues --    3.18700   3.20114   3.21113   3.21523   3.22456
 Alpha virt. eigenvalues --    3.23018   3.24612   3.25201   3.26179   3.27744
 Alpha virt. eigenvalues --    3.28751   3.30505   3.30983   3.31692   3.33738
 Alpha virt. eigenvalues --    3.35846   3.37867   3.38563   3.41057   3.41771
 Alpha virt. eigenvalues --    3.42240   3.42866   3.48291   3.55368   3.56294
 Alpha virt. eigenvalues --    3.57486   3.58986   3.59602   3.60258   3.73159
 Alpha virt. eigenvalues --    3.81489   3.85150   3.92340   4.07519   4.08337
 Alpha virt. eigenvalues --    4.32246   4.32824  21.08903  21.24301  21.26633
 Alpha virt. eigenvalues --   21.33461  21.62953  21.68838  21.70755  21.73889
 Alpha virt. eigenvalues --   21.75725  21.76876  21.82987  21.86123  21.91795
 Alpha virt. eigenvalues --   21.94420  21.96558  21.97198  21.98976  22.00323
 Alpha virt. eigenvalues --   22.03463  22.04835  22.08817  22.10359  22.15226
 Alpha virt. eigenvalues --   22.18518  32.05719  43.23842  43.25645
          Condensed to atoms (all electrons):
               1          2          3          4          5          6
     1  C    5.025578   0.448419   0.371233   0.001214   0.008470  -0.117489
     2  C    0.448419   5.011336  -0.012641   0.447337  -0.088470  -0.011193
     3  C    0.371233  -0.012641   5.219404  -0.116184   0.399342  -0.032579
     4  C    0.001214   0.447337  -0.116184   5.028147   0.009964   0.368087
     5  C    0.008470  -0.088470   0.399342   0.009964   5.443123   0.397439
     6  C   -0.117489  -0.011193  -0.032579   0.368087   0.397439   5.218722
     7  H   -0.063579   0.421865   0.019892  -0.063640  -0.004881   0.019905
     8  H   -0.040706   0.012187   0.405879  -0.002036  -0.056213   0.016866
     9  H    0.015123  -0.062865  -0.000888   0.416573   0.016563  -0.056276
    10  H   -0.002112   0.012257   0.017100  -0.041014  -0.055739   0.405671
    11  C    0.022327   0.006285  -0.097906   0.020124   0.160408  -0.092283
    12  C   -0.000524   0.000070   0.027357   0.002449  -0.133384  -0.014693
    13  C    0.001670   0.000049  -0.016004   0.000018  -0.138348   0.027045
    14  C    0.000326  -0.000026  -0.001341  -0.000415   0.040404   0.001462
    15  C   -0.000170  -0.000029   0.002332   0.000278   0.043618  -0.001363
    16  C   -0.000076   0.000011   0.000019  -0.000034  -0.012488   0.000649
    17  H   -0.000083   0.000074  -0.000357   0.000571  -0.020966   0.004673
    18  H    0.000329   0.000068   0.004397  -0.000027  -0.020860  -0.000356
    19  H   -0.000001   0.000000   0.000011  -0.000005  -0.001084  -0.000042
    20  H   -0.000003   0.000000  -0.000014  -0.000001  -0.000868   0.000007
    21  H    0.416370  -0.062831  -0.055920   0.015130   0.016506  -0.000928
    22  N   -0.000000   0.000000   0.000009  -0.000000  -0.000264   0.000006
    23  C   -0.000001   0.000000  -0.000015   0.000000  -0.000075   0.000010
    24  C    0.000000   0.000000  -0.000000  -0.000000  -0.000000   0.000000
    25  C   -0.000000   0.000000   0.000007   0.000000  -0.000002  -0.000015
    26  C    0.000000  -0.000000   0.000000   0.000000   0.000000  -0.000000
    27  C    0.000000  -0.000000   0.000000   0.000000   0.000002  -0.000001
    28  C    0.000000  -0.000000   0.000000  -0.000000   0.000000   0.000000
    29  H   -0.000000   0.000000   0.000000   0.000000  -0.000000   0.000000
    30  H   -0.000000   0.000000   0.000000   0.000000  -0.000056   0.000005
    31  H   -0.000000   0.000000   0.000000  -0.000000  -0.000000  -0.000000
    32  H    0.000000  -0.000000   0.000000  -0.000000  -0.000000   0.000000
    33  C    0.000000   0.000000   0.000003  -0.000001  -0.000120  -0.000011
    34  C   -0.000000   0.000000   0.000000   0.000000  -0.000000  -0.000000
    35  C    0.000000   0.000000  -0.000010  -0.000000  -0.000053   0.000007
    36  C   -0.000000  -0.000000  -0.000000   0.000000   0.000001   0.000000
    37  C    0.000000  -0.000000  -0.000000   0.000000   0.000006   0.000000
    38  C    0.000000   0.000000   0.000000   0.000000  -0.000001   0.000000
    39  H    0.000000   0.000000   0.000000  -0.000000  -0.000000   0.000000
    40  H    0.000000   0.000000   0.000005  -0.000000  -0.000083   0.000001
    41  H   -0.000000   0.000000  -0.000000  -0.000000  -0.000000  -0.000000
    42  H   -0.000000   0.000000  -0.000000   0.000000  -0.000000   0.000000
    43  O    0.000000   0.000000  -0.000000  -0.000000   0.000000  -0.000000
    44  H   -0.000000   0.000000  -0.000000  -0.000000  -0.000000  -0.000000
    45  O   -0.000000  -0.000000  -0.000000  -0.000000   0.000000  -0.000000
    46  H   -0.000000   0.000000  -0.000000  -0.000000  -0.000000   0.000000
               7          8          9         10         11         12
     1  C   -0.063579  -0.040706   0.015123  -0.002112   0.022327  -0.000524
     2  C    0.421865   0.012187  -0.062865   0.012257   0.006285   0.000070
     3  C    0.019892   0.405879  -0.000888   0.017100  -0.097906   0.027357
     4  C   -0.063640  -0.002036   0.416573  -0.041014   0.020124   0.002449
     5  C   -0.004881  -0.056213   0.016563  -0.055739   0.160408  -0.133384
     6  C    0.019905   0.016866  -0.056276   0.405671  -0.092283  -0.014693
     7  H    0.584799  -0.000231  -0.008815  -0.000231  -0.000185  -0.000007
     8  H   -0.000231   0.557689   0.000042  -0.000181  -0.020841  -0.000199
     9  H   -0.008815   0.000042   0.588778  -0.007329  -0.001619  -0.000019
    10  H   -0.000231  -0.000181  -0.007329   0.557949  -0.020537   0.006147
    11  C   -0.000185  -0.020841  -0.001619  -0.020537   5.529540   0.341268
    12  C   -0.000007  -0.000199  -0.000019   0.006147   0.341268   5.453192
    13  C   -0.000007   0.006108   0.000018  -0.000326   0.369272   0.005188
    14  C    0.000000  -0.000198  -0.000012   0.000604   0.014478   0.177737
    15  C    0.000000   0.000927  -0.000002  -0.000152  -0.002365  -0.148044
    16  C   -0.000000   0.000042   0.000000   0.000055  -0.142856   0.053594
    17  H   -0.000003  -0.000027   0.000008   0.001474  -0.076621   0.408458
    18  H   -0.000003   0.001520   0.000000  -0.000032  -0.076424   0.018379
    19  H    0.000000   0.000001  -0.000000   0.000003   0.014460  -0.050534
    20  H    0.000000   0.000006   0.000000   0.000001   0.014011  -0.000016
    21  H   -0.008807  -0.007306  -0.000258   0.000042  -0.001610   0.000018
    22  N   -0.000000  -0.000002  -0.000000  -0.000001   0.004013   0.020921
    23  C   -0.000000  -0.000000  -0.000000   0.000000  -0.000634   0.001019
    24  C    0.000000  -0.000000  -0.000000   0.000000   0.000036  -0.000255
    25  C    0.000000   0.000000   0.000000  -0.000002  -0.000053   0.001433
    26  C    0.000000  -0.000000  -0.000000  -0.000000   0.000017  -0.000084
    27  C    0.000000   0.000000   0.000000  -0.000000  -0.000086   0.000056
    28  C   -0.000000   0.000000   0.000000   0.000000   0.000013  -0.000005
    29  H   -0.000000   0.000000  -0.000000   0.000000  -0.000000   0.000017
    30  H    0.000000   0.000000  -0.000000   0.000001   0.000138   0.000901
    31  H   -0.000000  -0.000000  -0.000000  -0.000000  -0.000007   0.000004
    32  H   -0.000000   0.000000   0.000000   0.000000  -0.000000   0.000000
    33  C   -0.000000  -0.000001  -0.000000  -0.000001   0.001922  -0.009636
    34  C    0.000000   0.000000  -0.000000  -0.000000   0.000141   0.001794
    35  C    0.000000  -0.000002  -0.000000   0.000001  -0.002093  -0.006532
    36  C   -0.000000  -0.000000   0.000000  -0.000000   0.000065   0.000027
    37  C    0.000000  -0.000000   0.000000   0.000000  -0.000065  -0.000516
    38  C   -0.000000   0.000000  -0.000000   0.000000  -0.000021  -0.000093
    39  H   -0.000000   0.000000  -0.000000   0.000000  -0.000008  -0.000042
    40  H   -0.000000   0.000002  -0.000000   0.000000   0.000143  -0.002257
    41  H   -0.000000  -0.000000  -0.000000  -0.000000  -0.000000  -0.000003
    42  H   -0.000000  -0.000000  -0.000000   0.000000   0.000002   0.000009
    43  O    0.000000   0.000000   0.000000  -0.000000   0.000000   0.000000
    44  H    0.000000  -0.000000  -0.000000  -0.000000  -0.000000   0.000000
    45  O    0.000000  -0.000000   0.000000  -0.000000  -0.000000   0.000000
    46  H    0.000000  -0.000000  -0.000000   0.000000   0.000000  -0.000000
              13         14         15         16         17         18
     1  C    0.001670   0.000326  -0.000170  -0.000076  -0.000083   0.000329
     2  C    0.000049  -0.000026  -0.000029   0.000011   0.000074   0.000068
     3  C   -0.016004  -0.001341   0.002332   0.000019  -0.000357   0.004397
     4  C    0.000018  -0.000415   0.000278  -0.000034   0.000571  -0.000027
     5  C   -0.138348   0.040404   0.043618  -0.012488  -0.020966  -0.020860
     6  C    0.027045   0.001462  -0.001363   0.000649   0.004673  -0.000356
     7  H   -0.000007   0.000000   0.000000  -0.000000  -0.000003  -0.000003
     8  H    0.006108  -0.000198   0.000927   0.000042  -0.000027   0.001520
     9  H    0.000018  -0.000012  -0.000002   0.000000   0.000008   0.000000
    10  H   -0.000326   0.000604  -0.000152   0.000055   0.001474  -0.000032
    11  C    0.369272   0.014478  -0.002365  -0.142856  -0.076621  -0.076424
    12  C    0.005188   0.177737  -0.148044   0.053594   0.408458   0.018379
    13  C    5.407839  -0.151348   0.212649   0.029664   0.018526   0.408976
    14  C   -0.151348   5.437322  -0.070516   0.298185  -0.031569  -0.002143
    15  C    0.212649  -0.070516   5.441951   0.324026  -0.002226  -0.031873
    16  C    0.029664   0.298185   0.324026   5.515335   0.019024   0.018427
    17  H    0.018526  -0.031569  -0.002226   0.019024   0.564915  -0.000124
    18  H    0.408976  -0.002143  -0.031873   0.018427  -0.000124   0.566700
    19  H    0.000378   0.407974   0.011159  -0.049551  -0.007230   0.000019
    20  H   -0.036694   0.010901   0.403897  -0.052799   0.000009  -0.007157
    21  H   -0.000017  -0.000002  -0.000011   0.000000   0.000000   0.000007
    22  N    0.020810  -0.021708  -0.012022   0.169912  -0.000501  -0.000572
    23  C    0.001211  -0.014919   0.009985  -0.073756   0.000081   0.000075
    24  C    0.001569  -0.012989   0.023891  -0.008603   0.000002  -0.000016
    25  C   -0.010369   0.026641  -0.060861   0.020223  -0.000043  -0.000185
    26  C    0.000040  -0.000275   0.002210  -0.002392   0.000000  -0.000001
    27  C   -0.001053   0.000975  -0.008727   0.001134  -0.000001   0.000002
    28  C   -0.000188   0.000327  -0.001013   0.003641  -0.000000  -0.000003
    29  H   -0.000030  -0.000153   0.000040  -0.001071  -0.000000  -0.000000
    30  H   -0.002064  -0.000475   0.001455   0.001667   0.000006   0.000004
    31  H    0.000025  -0.000032  -0.000144  -0.000110   0.000000  -0.000000
    32  H   -0.000001   0.000001  -0.000013   0.000021  -0.000000   0.000000
    33  C   -0.003012   0.042153  -0.008209  -0.102868  -0.000071   0.000054
    34  C   -0.000623   0.012702  -0.011368  -0.019523  -0.000060  -0.000001
    35  C    0.005007  -0.054207   0.012776   0.030444   0.000033  -0.000016
    36  C   -0.000121   0.002568   0.000311  -0.001447  -0.000006   0.000000
    37  C    0.000168  -0.005034   0.001357   0.000439   0.000031  -0.000002
    38  C    0.000028  -0.002045  -0.000011   0.001933  -0.000003   0.000000
    39  H    0.000029   0.000805  -0.000468  -0.001546  -0.000001   0.000000
    40  H    0.001016   0.002388  -0.002101  -0.001532  -0.000029   0.000005
    41  H    0.000000  -0.000042   0.000002  -0.000022   0.000000  -0.000000
    42  H   -0.000003   0.000145  -0.000025  -0.000225  -0.000000  -0.000000
    43  O   -0.000000   0.000010   0.000000  -0.000009  -0.000000  -0.000000
    44  H    0.000000  -0.000000   0.000000  -0.000001   0.000000   0.000000
    45  O    0.000001  -0.000001   0.000018  -0.000005  -0.000000  -0.000000
    46  H    0.000000  -0.000000   0.000003  -0.000008   0.000000  -0.000000
              19         20         21         22         23         24
     1  C   -0.000001  -0.000003   0.416370  -0.000000  -0.000001   0.000000
     2  C    0.000000   0.000000  -0.062831   0.000000   0.000000   0.000000
     3  C    0.000011  -0.000014  -0.055920   0.000009  -0.000015  -0.000000
     4  C   -0.000005  -0.000001   0.015130  -0.000000   0.000000  -0.000000
     5  C   -0.001084  -0.000868   0.016506  -0.000264  -0.000075  -0.000000
     6  C   -0.000042   0.000007  -0.000928   0.000006   0.000010   0.000000
     7  H    0.000000   0.000000  -0.008807  -0.000000  -0.000000   0.000000
     8  H    0.000001   0.000006  -0.007306  -0.000002  -0.000000  -0.000000
     9  H   -0.000000   0.000000  -0.000258  -0.000000  -0.000000  -0.000000
    10  H    0.000003   0.000001   0.000042  -0.000001   0.000000   0.000000
    11  C    0.014460   0.014011  -0.001610   0.004013  -0.000634   0.000036
    12  C   -0.050534  -0.000016   0.000018   0.020921   0.001019  -0.000255
    13  C    0.000378  -0.036694  -0.000017   0.020810   0.001211   0.001569
    14  C    0.407974   0.010901  -0.000002  -0.021708  -0.014919  -0.012989
    15  C    0.011159   0.403897  -0.000011  -0.012022   0.009985   0.023891
    16  C   -0.049551  -0.052799   0.000000   0.169912  -0.073756  -0.008603
    17  H   -0.007230   0.000009   0.000000  -0.000501   0.000081   0.000002
    18  H    0.000019  -0.007157   0.000007  -0.000572   0.000075  -0.000016
    19  H    0.539166  -0.000260   0.000000  -0.009885  -0.001892  -0.000248
    20  H   -0.000260   0.521066  -0.000000  -0.004007  -0.000085  -0.000517
    21  H    0.000000  -0.000000   0.588493  -0.000000  -0.000000   0.000000
    22  N   -0.009885  -0.004007  -0.000000   6.576981   0.193247  -0.048058
    23  C   -0.001892  -0.000085  -0.000000   0.193247   5.349759   0.250906
    24  C   -0.000248  -0.000517   0.000000  -0.048058   0.250906   6.108274
    25  C    0.000302   0.001558  -0.000000  -0.003411   0.379842  -0.205842
    26  C    0.000024   0.000573  -0.000000   0.027030   0.055126   0.088839
    27  C   -0.000009  -0.001790  -0.000000   0.011220  -0.033671   0.046728
    28  C    0.000002   0.000846   0.000000   0.006716  -0.036657  -0.375036
    29  H   -0.000013   0.000016  -0.000000  -0.014674  -0.024700   0.382133
    30  H   -0.000035   0.000862   0.000000  -0.006308  -0.038917   0.010151
    31  H   -0.000001  -0.000050  -0.000000  -0.000663   0.015090   0.001932
    32  H    0.000000   0.000002   0.000000  -0.000043  -0.003136   0.020762
    33  C    0.008962  -0.001723  -0.000000   0.086043  -0.089600   0.070661
    34  C   -0.004883  -0.000424  -0.000000  -0.019256   0.034107  -0.086703
    35  C    0.003671   0.000840   0.000000  -0.007205  -0.020692   0.014742
    36  C    0.002459   0.000027   0.000000   0.030656  -0.006690  -0.001670
    37  C   -0.002334   0.000013   0.000000   0.017746  -0.002033   0.002377
    38  C    0.000348  -0.000004  -0.000000   0.003546   0.001746  -0.002803
    39  H    0.000213  -0.000007  -0.000000  -0.007067  -0.002169   0.004609
    40  H    0.001109   0.000025  -0.000000  -0.008639  -0.001295   0.000369
    41  H    0.000018  -0.000000  -0.000000  -0.000787  -0.000035   0.000113
    42  H   -0.000009   0.000000  -0.000000  -0.000594  -0.000001  -0.000033
    43  O   -0.000009  -0.000000   0.000000  -0.000007   0.000009   0.000004
    44  H   -0.000002  -0.000000  -0.000000  -0.000004  -0.000000  -0.000002
    45  O   -0.000000  -0.000002   0.000000  -0.000024   0.011466  -0.102834
    46  H    0.000000  -0.000000  -0.000000   0.000019  -0.003243   0.024490
              25         26         27         28         29         30
     1  C   -0.000000   0.000000   0.000000   0.000000  -0.000000  -0.000000
     2  C    0.000000  -0.000000  -0.000000  -0.000000   0.000000   0.000000
     3  C    0.000007   0.000000   0.000000   0.000000   0.000000   0.000000
     4  C    0.000000   0.000000   0.000000  -0.000000   0.000000   0.000000
     5  C   -0.000002   0.000000   0.000002   0.000000  -0.000000  -0.000056
     6  C   -0.000015  -0.000000  -0.000001   0.000000   0.000000   0.000005
     7  H    0.000000   0.000000   0.000000  -0.000000  -0.000000   0.000000
     8  H    0.000000  -0.000000   0.000000   0.000000   0.000000   0.000000
     9  H    0.000000  -0.000000   0.000000   0.000000  -0.000000  -0.000000
    10  H   -0.000002  -0.000000  -0.000000   0.000000   0.000000   0.000001
    11  C   -0.000053   0.000017  -0.000086   0.000013  -0.000000   0.000138
    12  C    0.001433  -0.000084   0.000056  -0.000005   0.000017   0.000901
    13  C   -0.010369   0.000040  -0.001053  -0.000188  -0.000030  -0.002064
    14  C    0.026641  -0.000275   0.000975   0.000327  -0.000153  -0.000475
    15  C   -0.060861   0.002210  -0.008727  -0.001013   0.000040   0.001455
    16  C    0.020223  -0.002392   0.001134   0.003641  -0.001071   0.001667
    17  H   -0.000043   0.000000  -0.000001  -0.000000  -0.000000   0.000006
    18  H   -0.000185  -0.000001   0.000002  -0.000003  -0.000000   0.000004
    19  H    0.000302   0.000024  -0.000009   0.000002  -0.000013  -0.000035
    20  H    0.001558   0.000573  -0.001790   0.000846   0.000016   0.000862
    21  H   -0.000000  -0.000000  -0.000000   0.000000  -0.000000   0.000000
    22  N   -0.003411   0.027030   0.011220   0.006716  -0.014674  -0.006308
    23  C    0.379842   0.055126  -0.033671  -0.036657  -0.024700  -0.038917
    24  C   -0.205842   0.088839   0.046728  -0.375036   0.382133   0.010151
    25  C    5.340223  -0.092054   0.371434   0.035528   0.014441   0.392586
    26  C   -0.092054   5.223541   0.065296   0.316903  -0.050222   0.000082
    27  C    0.371434   0.065296   5.133062   0.155436  -0.003375  -0.034634
    28  C    0.035528   0.316903   0.155436   5.845797   0.015888   0.012079
    29  H    0.014441  -0.050222  -0.003375   0.015888   0.514456  -0.000215
    30  H    0.392586   0.000082  -0.034634   0.012079  -0.000215   0.515726
    31  H   -0.049581   0.014268   0.409314  -0.063640   0.000027  -0.007422
    32  H    0.017356  -0.077249  -0.017644   0.385148  -0.000220  -0.000237
    33  C   -0.006495  -0.018136  -0.002599  -0.000072   0.009269  -0.001328
    34  C    0.020623  -0.006903   0.001415   0.001393   0.006725   0.000571
    35  C   -0.010202   0.001745  -0.000064  -0.000162  -0.005203  -0.000395
    36  C    0.001340   0.000862   0.000027   0.000077  -0.003534  -0.000009
    37  C    0.000069   0.000117  -0.000077   0.000040   0.001610   0.000021
    38  C   -0.000004  -0.000229   0.000028  -0.000019   0.000314  -0.000005
    39  H   -0.000471  -0.003881   0.000814  -0.000133   0.000885   0.000006
    40  H   -0.000321  -0.000084   0.000028  -0.000014   0.000091  -0.000011
    41  H   -0.000033   0.000011  -0.000002  -0.000000  -0.000005   0.000000
    42  H    0.000003  -0.000003  -0.000000   0.000000   0.000023   0.000000
    43  O    0.000000   0.000000  -0.000000   0.000000  -0.000007   0.000000
    44  H   -0.000000   0.000000   0.000000  -0.000000   0.000001  -0.000000
    45  O   -0.001705   0.419645   0.016875  -0.111847   0.003121   0.000005
    46  H   -0.000306  -0.030901   0.006695  -0.038230  -0.000696  -0.000002
              31         32         33         34         35         36
     1  C   -0.000000   0.000000   0.000000  -0.000000   0.000000  -0.000000
     2  C    0.000000  -0.000000   0.000000   0.000000   0.000000  -0.000000
     3  C    0.000000   0.000000   0.000003   0.000000  -0.000010  -0.000000
     4  C   -0.000000  -0.000000  -0.000001   0.000000  -0.000000   0.000000
     5  C   -0.000000  -0.000000  -0.000120  -0.000000  -0.000053   0.000001
     6  C   -0.000000   0.000000  -0.000011  -0.000000   0.000007   0.000000
     7  H   -0.000000  -0.000000  -0.000000   0.000000   0.000000  -0.000000
     8  H   -0.000000   0.000000  -0.000001   0.000000  -0.000002  -0.000000
     9  H   -0.000000   0.000000  -0.000000  -0.000000  -0.000000   0.000000
    10  H   -0.000000   0.000000  -0.000001  -0.000000   0.000001  -0.000000
    11  C   -0.000007  -0.000000   0.001922   0.000141  -0.002093   0.000065
    12  C    0.000004   0.000000  -0.009636   0.001794  -0.006532   0.000027
    13  C    0.000025  -0.000001  -0.003012  -0.000623   0.005007  -0.000121
    14  C   -0.000032   0.000001   0.042153   0.012702  -0.054207   0.002568
    15  C   -0.000144  -0.000013  -0.008209  -0.011368   0.012776   0.000311
    16  C   -0.000110   0.000021  -0.102868  -0.019523   0.030444  -0.001447
    17  H    0.000000  -0.000000  -0.000071  -0.000060   0.000033  -0.000006
    18  H   -0.000000   0.000000   0.000054  -0.000001  -0.000016   0.000000
    19  H   -0.000001   0.000000   0.008962  -0.004883   0.003671   0.002459
    20  H   -0.000050   0.000002  -0.001723  -0.000424   0.000840   0.000027
    21  H   -0.000000   0.000000  -0.000000  -0.000000   0.000000   0.000000
    22  N   -0.000663  -0.000043   0.086043  -0.019256  -0.007205   0.030656
    23  C    0.015090  -0.003136  -0.089600   0.034107  -0.020692  -0.006690
    24  C    0.001932   0.020762   0.070661  -0.086703   0.014742  -0.001670
    25  C   -0.049581   0.017356  -0.006495   0.020623  -0.010202   0.001340
    26  C    0.014268  -0.077249  -0.018136  -0.006903   0.001745   0.000862
    27  C    0.409314  -0.017644  -0.002599   0.001415  -0.000064   0.000027
    28  C   -0.063640   0.385148  -0.000072   0.001393  -0.000162   0.000077
    29  H    0.000027  -0.000220   0.009269   0.006725  -0.005203  -0.003534
    30  H   -0.007422  -0.000237  -0.001328   0.000571  -0.000395  -0.000009
    31  H    0.588284  -0.007670   0.000052  -0.000027  -0.000001  -0.000001
    32  H   -0.007670   0.586901   0.000028  -0.000010   0.000001  -0.000001
    33  C    0.000052   0.000028   5.725710   0.249861   0.332635   0.122276
    34  C   -0.000027  -0.000010   0.249861   5.614179  -0.118057  -0.216388
    35  C   -0.000001   0.000001   0.332635  -0.118057   5.181308  -0.079908
    36  C   -0.000001  -0.000001   0.122276  -0.216388  -0.079908   6.197448
    37  C    0.000000  -0.000000   0.038188  -0.030441   0.305259  -0.159381
    38  C    0.000000   0.000000  -0.171856   0.143252   0.013172   0.110179
    39  H    0.000002   0.000003  -0.034735   0.403531   0.013213  -0.050861
    40  H   -0.000000   0.000000  -0.055712   0.019568   0.437787  -0.004966
    41  H    0.000000  -0.000000   0.013710   0.011688   0.003644   0.377325
    42  H   -0.000000  -0.000000   0.019864  -0.003833  -0.047563   0.018488
    43  O   -0.000000   0.000000  -0.001498   0.021322   0.005414  -0.114911
    44  H    0.000000  -0.000000  -0.000846   0.008327  -0.001604  -0.042740
    45  O   -0.000106  -0.005636  -0.000433   0.000585  -0.000013   0.000008
    46  H   -0.000029   0.002843  -0.000002  -0.000034   0.000003  -0.000001
              37         38         39         40         41         42
     1  C    0.000000   0.000000   0.000000   0.000000  -0.000000  -0.000000
     2  C   -0.000000   0.000000   0.000000   0.000000   0.000000   0.000000
     3  C   -0.000000   0.000000   0.000000   0.000005  -0.000000  -0.000000
     4  C    0.000000   0.000000  -0.000000  -0.000000  -0.000000   0.000000
     5  C    0.000006  -0.000001  -0.000000  -0.000083  -0.000000  -0.000000
     6  C    0.000000   0.000000   0.000000   0.000001  -0.000000   0.000000
     7  H    0.000000  -0.000000  -0.000000  -0.000000  -0.000000  -0.000000
     8  H   -0.000000   0.000000   0.000000   0.000002  -0.000000  -0.000000
     9  H    0.000000  -0.000000  -0.000000  -0.000000  -0.000000  -0.000000
    10  H    0.000000   0.000000   0.000000   0.000000  -0.000000   0.000000
    11  C   -0.000065  -0.000021  -0.000008   0.000143  -0.000000   0.000002
    12  C   -0.000516  -0.000093  -0.000042  -0.002257  -0.000003   0.000009
    13  C    0.000168   0.000028   0.000029   0.001016   0.000000  -0.000003
    14  C   -0.005034  -0.002045   0.000805   0.002388  -0.000042   0.000145
    15  C    0.001357  -0.000011  -0.000468  -0.002101   0.000002  -0.000025
    16  C    0.000439   0.001933  -0.001546  -0.001532  -0.000022  -0.000225
    17  H    0.000031  -0.000003  -0.000001  -0.000029   0.000000  -0.000000
    18  H   -0.000002   0.000000   0.000000   0.000005  -0.000000  -0.000000
    19  H   -0.002334   0.000348   0.000213   0.001109   0.000018  -0.000009
    20  H    0.000013  -0.000004  -0.000007   0.000025  -0.000000   0.000000
    21  H    0.000000  -0.000000  -0.000000  -0.000000  -0.000000  -0.000000
    22  N    0.017746   0.003546  -0.007067  -0.008639  -0.000787  -0.000594
    23  C   -0.002033   0.001746  -0.002169  -0.001295  -0.000035  -0.000001
    24  C    0.002377  -0.002803   0.004609   0.000369   0.000113  -0.000033
    25  C    0.000069  -0.000004  -0.000471  -0.000321  -0.000033   0.000003
    26  C    0.000117  -0.000229  -0.003881  -0.000084   0.000011  -0.000003
    27  C   -0.000077   0.000028   0.000814   0.000028  -0.000002  -0.000000
    28  C    0.000040  -0.000019  -0.000133  -0.000014  -0.000000   0.000000
    29  H    0.001610   0.000314   0.000885   0.000091  -0.000005   0.000023
    30  H    0.000021  -0.000005   0.000006  -0.000011   0.000000   0.000000
    31  H    0.000000   0.000000   0.000002  -0.000000   0.000000  -0.000000
    32  H   -0.000000   0.000000   0.000003   0.000000  -0.000000  -0.000000
    33  C    0.038188  -0.171856  -0.034735  -0.055712   0.013710   0.019864
    34  C   -0.030441   0.143252   0.403531   0.019568   0.011688  -0.003833
    35  C    0.305259   0.013172   0.013213   0.437787   0.003644  -0.047563
    36  C   -0.159381   0.110179  -0.050861  -0.004966   0.377325   0.018488
    37  C    5.375456   0.381915  -0.000853  -0.078148   0.005296   0.421013
    38  C    0.381915   5.142781   0.011680   0.021011  -0.086942  -0.079980
    39  H   -0.000853   0.011680   0.538921  -0.000230  -0.006621   0.000030
    40  H   -0.078148   0.021011  -0.000230   0.549503   0.000031  -0.009266
    41  H    0.005296  -0.086942  -0.006621   0.000031   0.580572  -0.000300
    42  H    0.421013  -0.079980   0.000030  -0.009266  -0.000300   0.562948
    43  O   -0.078886   0.406217  -0.000070  -0.000115  -0.006268   0.002473
    44  H    0.018896  -0.024004  -0.000043   0.000034   0.001702  -0.000745
    45  O   -0.000001   0.000009   0.000011  -0.000001  -0.000002   0.000000
    46  H   -0.000000   0.000000  -0.000000  -0.000000   0.000000  -0.000000
              43         44         45         46
     1  C    0.000000  -0.000000  -0.000000  -0.000000
     2  C    0.000000   0.000000  -0.000000   0.000000
     3  C   -0.000000  -0.000000  -0.000000  -0.000000
     4  C   -0.000000  -0.000000  -0.000000  -0.000000
     5  C    0.000000  -0.000000   0.000000  -0.000000
     6  C   -0.000000  -0.000000  -0.000000   0.000000
     7  H    0.000000   0.000000   0.000000   0.000000
     8  H    0.000000  -0.000000  -0.000000  -0.000000
     9  H    0.000000  -0.000000   0.000000  -0.000000
    10  H   -0.000000  -0.000000  -0.000000   0.000000
    11  C    0.000000  -0.000000  -0.000000   0.000000
    12  C    0.000000   0.000000   0.000000  -0.000000
    13  C   -0.000000   0.000000   0.000001   0.000000
    14  C    0.000010  -0.000000  -0.000001  -0.000000
    15  C    0.000000   0.000000   0.000018   0.000003
    16  C   -0.000009  -0.000001  -0.000005  -0.000008
    17  H   -0.000000   0.000000  -0.000000   0.000000
    18  H   -0.000000   0.000000  -0.000000  -0.000000
    19  H   -0.000009  -0.000002  -0.000000   0.000000
    20  H   -0.000000  -0.000000  -0.000002  -0.000000
    21  H    0.000000  -0.000000   0.000000  -0.000000
    22  N   -0.000007  -0.000004  -0.000024   0.000019
    23  C    0.000009  -0.000000   0.011466  -0.003243
    24  C    0.000004  -0.000002  -0.102834   0.024490
    25  C    0.000000  -0.000000  -0.001705  -0.000306
    26  C    0.000000   0.000000   0.419645  -0.030901
    27  C   -0.000000   0.000000   0.016875   0.006695
    28  C    0.000000  -0.000000  -0.111847  -0.038230
    29  H   -0.000007   0.000001   0.003121  -0.000696
    30  H    0.000000  -0.000000   0.000005  -0.000002
    31  H   -0.000000   0.000000  -0.000106  -0.000029
    32  H    0.000000  -0.000000  -0.005636   0.002843
    33  C   -0.001498  -0.000846  -0.000433  -0.000002
    34  C    0.021322   0.008327   0.000585  -0.000034
    35  C    0.005414  -0.001604  -0.000013   0.000003
    36  C   -0.114911  -0.042740   0.000008  -0.000001
    37  C   -0.078886   0.018896  -0.000001  -0.000000
    38  C    0.406217  -0.024004   0.000009   0.000000
    39  H   -0.000070  -0.000043   0.000011  -0.000000
    40  H   -0.000115   0.000034  -0.000001  -0.000000
    41  H   -0.006268   0.001702  -0.000002   0.000000
    42  H    0.002473  -0.000745   0.000000  -0.000000
    43  O    7.704038   0.301623   0.000000  -0.000000
    44  H    0.301623   0.470480   0.000000   0.000000
    45  O    0.000000   0.000000   7.706138   0.300115
    46  H   -0.000000   0.000000   0.300115   0.470496
 Mulliken charges:
               1
     1  C   -0.086318
     2  C   -0.121904
     3  C   -0.133130
     4  C   -0.086533
     5  C   -0.001888
     6  C   -0.133328
     7  H    0.103928
     8  H    0.126674
     9  H    0.100979
    10  H    0.126350
    11  C    0.037551
    12  C   -0.153192
    13  C   -0.157094
    14  C   -0.108658
    15  C   -0.131173
    16  C   -0.017524
    17  H    0.122036
    18  H    0.120832
    19  H    0.137746
    20  H    0.151761
    21  H    0.101126
    22  N   -0.003174
    23  C    0.050536
    24  C   -0.206975
    25  C   -0.181657
    26  C    0.066084
    27  C   -0.116809
    28  C   -0.152818
    29  H    0.155060
    30  H    0.155847
    31  H    0.100486
    32  H    0.098793
    33  C   -0.212426
    34  C   -0.033249
    35  C   -0.007723
    36  C   -0.181507
    37  C   -0.212247
    38  C    0.129862
    39  H    0.134455
    40  H    0.131689
    41  H    0.106951
    42  H    0.117583
    43  O   -0.239332
    44  H    0.268928
    45  O   -0.235388
    46  H    0.268788
 Sum of Mulliken charges =  -0.00000
 Mulliken charges with hydrogens summed into heavy atoms:
               1
     1  C    0.014808
     2  C   -0.017976
     3  C   -0.006456
     4  C    0.014446
     5  C   -0.001888
     6  C   -0.006978
    11  C    0.037551
    12  C   -0.031156
    13  C   -0.036262
    14  C    0.029089
    15  C    0.020587
    16  C   -0.017524
    22  N   -0.003174
    23  C    0.050536
    24  C   -0.051914
    25  C   -0.025810
    26  C    0.066084
    27  C   -0.016323
    28  C   -0.054025
    33  C   -0.212426
    34  C    0.101206
    35  C    0.123966
    36  C   -0.074556
    37  C   -0.094664
    38  C    0.129862
    43  O    0.029596
    45  O    0.033401
 Electronic spatial extent (au):  <R**2>=          13387.1473
 Charge=             -0.0000 electrons
 Dipole moment (field-independent basis, Debye):
    X=              1.3745    Y=             -0.9869    Z=             -1.4395  Tot=              2.2216
 Quadrupole moment (field-independent basis, Debye-Ang):
   XX=           -138.1048   YY=           -146.2326   ZZ=           -152.3594
   XY=             -3.4893   XZ=             -8.5354   YZ=             -6.7996
 Traceless Quadrupole moment (field-independent basis, Debye-Ang):
   XX=              7.4608   YY=             -0.6670   ZZ=             -6.7938
   XY=             -3.4893   XZ=             -8.5354   YZ=             -6.7996
 Octapole moment (field-independent basis, Debye-Ang**2):
  XXX=             59.2116  YYY=            -67.7105  ZZZ=              5.6394  XYY=            112.0138
  XXY=             -5.9599  XXZ=            -38.6336  XZZ=             -8.8863  YZZ=             13.2833
  YYZ=            -22.9705  XYZ=            -17.7624
 Hexadecapole moment (field-independent basis, Debye-Ang**3):
 XXXX=         -11949.9984 YYYY=          -4116.4721 ZZZZ=           -793.5594 XXXY=            -68.2694
 XXXZ=           -183.6601 YYYX=           -247.0366 YYYZ=           -104.0091 ZZZX=              4.4095
 ZZZY=            -16.0107 XXYY=          -2502.3955 XXZZ=          -2236.8704 YYZZ=           -824.7628
 XXYZ=           -273.8069 YYXZ=            -95.3552 ZZXY=             47.6357
 N-N= 2.186775923160D+03 E-N=-7.005284497576D+03  KE= 1.125538715641D+03
 No NMR shielding tensors so no spin-rotation constants.
 Leave Link  601 at Sun Jan 17 22:24:48 2021, MaxMem=  4026531840 cpu:               4.1 elap:               0.6
 (Enter /opt/ohpc/pub/libs/gaussian/g16-A.03/sandybridge/g16/l9999.exe)

 Test job not archived.
 1\1\GINC-CASCADEB002\SP\RLC-wHPBE\TZVP\C24H19N1O2\RDU230\17-Jan-2021\0
 \\#P LC-wHPBE/TZVP iop(3/107=0181900000, 3/108=0181900000) scf=(conver
 =6,fermi,ndamp=35,noincfock,novaracc,vshift=500,xqc)\\H19 C24 N1 O2\\0
 ,1\C,0,-6.538108,-0.217341,1.255514\C,0,-7.258661,0.087287,0.107878\C,
 0,-5.15139,-0.259049,1.219222\C,0,-6.580697,0.348691,-1.075777\C,0,-4.
 458004,0.000662,0.035726\C,0,-5.193998,0.304569,-1.110911\H,0,-8.34564
 4,0.121015,0.135956\H,0,-4.59391,-0.476283,2.12835\H,0,-7.136138,0.581
 164,-1.982188\H,0,-4.671509,0.488761,-2.047704\C,0,-2.974479,-0.044963
 ,-0.00277\C,0,-2.240322,0.918366,-0.694597\C,0,-2.265576,-1.051297,0.6
 54611\C,0,-0.856277,0.875925,-0.739808\C,0,-0.88157,-1.094369,0.628888
 \C,0,-0.155643,-0.133238,-0.077397\H,0,-2.762026,1.727417,-1.202285\H,
 0,-2.809037,-1.823891,1.195264\H,0,-0.306381,1.639189,-1.284917\H,0,-0
 .352632,-1.885069,1.15502\H,0,-7.059465,-0.416189,2.189743\N,0,1.25702
 6,-0.160831,-0.103806\C,0,1.965402,-1.377887,-0.17457\C,0,3.190004,-1.
 508547,0.478017\C,0,1.461496,-2.456008,-0.912094\C,0,3.903051,-2.69689
 1,0.390217\C,0,2.178621,-3.638306,-0.97461\C,0,3.402953,-3.775056,-0.3
 32839\H,0,3.600761,-0.690157,1.062074\H,0,0.51484,-2.358097,-1.435231\
 H,0,1.782807,-4.471654,-1.551437\H,0,3.963923,-4.706428,-0.398055\C,0,
 1.972861,1.068372,-0.045814\C,0,2.971482,1.350948,-0.972341\C,0,1.6830
 86,2.012203,0.939258\C,0,3.67678,2.543988,-0.910119\C,0,2.365608,3.214
 996,0.992156\C,0,3.371443,3.4833,0.069272\H,0,3.205268,0.621566,-1.744
 392\H,0,0.904271,1.798314,1.667748\H,0,4.460878,2.747602,-1.639197\H,0
 ,2.139895,3.954598,1.756001\O,0,4.022986,4.680331,0.173244\H,0,4.69528
 7,4.73835,-0.517835\O,0,5.097214,-2.751708,1.053752\H,0,5.479651,-3.63
 1493,0.941087\\Version=EM64L-G16RevA.03\State=1-A\HF=-1130.493237\RMSD
 =9.799e-07\Dipole=0.5407836,-0.3882843,-0.5663328\Quadrupole=5.5469263
 ,-0.4958923,-5.051034,-2.5942145,-6.345844,-5.05537\PG=C01 [X(C24H19N1
 O2)]\\@


 THEREFORE SHALL EVIL COME UPON THEE...
 THOU SHALT NOT KNOW FROM WHENCE IT RISETH...
 AND MISCHIEF SHALL FALL UPON THEE...
 THOU SHALT NOT BE ABLE TO PUT IT OFF...
 AND DESOLATION SHALL COME UPON THEE SUDDENLY...
 WHICH THOU SHALT NOT KNOW...

                                         ISAIAH 47.11
 Job cpu time:       0 days  1 hours 26 minutes 51.5 seconds.
 Elapsed time:       0 days  0 hours 10 minutes 53.6 seconds.
 File lengths (MBytes):  RWF=    176 Int=      0 D2E=      0 Chk=     28 Scr=      8
 Normal termination of Gaussian 16 at Sun Jan 17 22:24:48 2021.
