 Entering Gaussian System, Link 0=g16
 Input=mol_bp_ma_half_tune_n6.gjf
 Output=mol_bp_ma_half_tune_n6.log
 Initial command:
 /opt/ohpc/pub/libs/gaussian/g16-A.03/sandybridge/g16/l1.exe "/mnt/gpfs2_4m/scratch/rdu230/ondemand/projects/init_structures/wtuning/mol_bp_ma_half/tuning_mol_bp_ma_half_ocycle0/Gau-69260.inp" -scrdir="/mnt/gpfs2_4m/scratch/rdu230/ondemand/projects/init_structures/wtuning/mol_bp_ma_half/tuning_mol_bp_ma_half_ocycle0/"
 Entering Link 1 = /opt/ohpc/pub/libs/gaussian/g16-A.03/sandybridge/g16/l1.exe PID=     69261.
  
 Copyright (c) 1988,1990,1992,1993,1995,1998,2003,2009,2016,
            Gaussian, Inc.  All Rights Reserved.
  
 This is part of the Gaussian(R) 16 program.  It is based on
 the Gaussian(R) 09 system (copyright 2009, Gaussian, Inc.),
 the Gaussian(R) 03 system (copyright 2003, Gaussian, Inc.),
 the Gaussian(R) 98 system (copyright 1998, Gaussian, Inc.),
 the Gaussian(R) 94 system (copyright 1995, Gaussian, Inc.),
 the Gaussian 92(TM) system (copyright 1992, Gaussian, Inc.),
 the Gaussian 90(TM) system (copyright 1990, Gaussian, Inc.),
 the Gaussian 88(TM) system (copyright 1988, Gaussian, Inc.),
 the Gaussian 86(TM) system (copyright 1986, Carnegie Mellon
 University), and the Gaussian 82(TM) system (copyright 1983,
 Carnegie Mellon University). Gaussian is a federally registered
 trademark of Gaussian, Inc.
  
 This software contains proprietary and confidential information,
 including trade secrets, belonging to Gaussian, Inc.
  
 This software is provided under written license and may be
 used, copied, transmitted, or stored only in accord with that
 written license.
  
 The following legend is applicable only to US Government
 contracts under FAR:
  
                    RESTRICTED RIGHTS LEGEND
  
 Use, reproduction and disclosure by the US Government is
 subject to restrictions as set forth in subparagraphs (a)
 and (c) of the Commercial Computer Software - Restricted
 Rights clause in FAR 52.227-19.
  
 Gaussian, Inc.
 340 Quinnipiac St., Bldg. 40, Wallingford CT 06492
  
  
 ---------------------------------------------------------------
 Warning -- This program may not be used in any manner that
 competes with the business of Gaussian, Inc. or will provide
 assistance to any competitor of Gaussian, Inc.  The licensee
 of this program is prohibited from giving any competitor of
 Gaussian, Inc. access to this program.  By using this program,
 the user acknowledges that Gaussian, Inc. is engaged in the
 business of creating and licensing software in the field of
 computational chemistry and represents and warrants to the
 licensee that it is not a competitor of Gaussian, Inc. and that
 it will not use this program in any manner prohibited above.
 ---------------------------------------------------------------
  

 Cite this work as:
 Gaussian 16, Revision A.03,
 M. J. Frisch, G. W. Trucks, H. B. Schlegel, G. E. Scuseria, 
 M. A. Robb, J. R. Cheeseman, G. Scalmani, V. Barone, 
 G. A. Petersson, H. Nakatsuji, X. Li, M. Caricato, A. V. Marenich, 
 J. Bloino, B. G. Janesko, R. Gomperts, B. Mennucci, H. P. Hratchian, 
 J. V. Ortiz, A. F. Izmaylov, J. L. Sonnenberg, D. Williams-Young, 
 F. Ding, F. Lipparini, F. Egidi, J. Goings, B. Peng, A. Petrone, 
 T. Henderson, D. Ranasinghe, V. G. Zakrzewski, J. Gao, N. Rega, 
 G. Zheng, W. Liang, M. Hada, M. Ehara, K. Toyota, R. Fukuda, 
 J. Hasegawa, M. Ishida, T. Nakajima, Y. Honda, O. Kitao, H. Nakai, 
 T. Vreven, K. Throssell, J. A. Montgomery, Jr., J. E. Peralta, 
 F. Ogliaro, M. J. Bearpark, J. J. Heyd, E. N. Brothers, K. N. Kudin, 
 V. N. Staroverov, T. A. Keith, R. Kobayashi, J. Normand, 
 K. Raghavachari, A. P. Rendell, J. C. Burant, S. S. Iyengar, 
 J. Tomasi, M. Cossi, J. M. Millam, M. Klene, C. Adamo, R. Cammi, 
 J. W. Ochterski, R. L. Martin, K. Morokuma, O. Farkas, 
 J. B. Foresman, and D. J. Fox, Gaussian, Inc., Wallingford CT, 2016.
 
 ******************************************
 Gaussian 16:  EM64L-G16RevA.03 25-Dec-2016
                17-Jan-2021 
 ******************************************
 %mem=30GB
 %nproc=8
 Will use up to    8 processors via shared memory.
 ----------------------------------------------------------------------
 #P LC-wHPBE/TZVP iop(3/107=0181600000, 3/108=0181600000) scf=(conver=6
 ,fermi,ndamp=35,noincfock,novaracc,vshift=500,xqc)
 ----------------------------------------------------------------------
 1/38=1,172=1/1;
 2/12=2,17=6,18=5,40=1/2;
 3/5=19,7=101,11=2,25=1,30=1,74=-71,107=181600000,108=181600000/1,2,3;
 4//1;
 5/5=100002,6=6,8=3,10=500,13=1,18=-1,22=13,38=1,93=35/2,8;
 6/7=2,8=2,9=2,10=2,28=1/1;
 99/5=1,9=1/99;
 Leave Link    1 at Sun Jan 17 21:07:00 2021, MaxMem=  4026531840 cpu:               1.0 elap:               0.2
 (Enter /opt/ohpc/pub/libs/gaussian/g16-A.03/sandybridge/g16/l101.exe)
 -------------
 H19 C24 N1 O2
 -------------
 Symbolic Z-matrix:
 Charge =  0 Multiplicity = 1
 C                    -6.53811  -0.21734   1.25551 
 C                    -7.25866   0.08729   0.10788 
 C                    -5.15139  -0.25905   1.21922 
 C                    -6.5807    0.34869  -1.07578 
 C                    -4.458     0.00066   0.03573 
 C                    -5.194     0.30457  -1.11091 
 H                    -8.34564   0.12102   0.13596 
 H                    -4.59391  -0.47628   2.12835 
 H                    -7.13614   0.58116  -1.98219 
 H                    -4.67151   0.48876  -2.0477 
 C                    -2.97448  -0.04496  -0.00277 
 C                    -2.24032   0.91837  -0.6946 
 C                    -2.26558  -1.0513    0.65461 
 C                    -0.85628   0.87593  -0.73981 
 C                    -0.88157  -1.09437   0.62889 
 C                    -0.15564  -0.13324  -0.0774 
 H                    -2.76203   1.72742  -1.20229 
 H                    -2.80904  -1.82389   1.19526 
 H                    -0.30638   1.63919  -1.28492 
 H                    -0.35263  -1.88507   1.15502 
 H                    -7.05947  -0.41619   2.18974 
 N                     1.25703  -0.16083  -0.10381 
 C                     1.9654   -1.37789  -0.17457 
 C                     3.19     -1.50855   0.47802 
 C                     1.4615   -2.45601  -0.91209 
 C                     3.90305  -2.69689   0.39022 
 C                     2.17862  -3.63831  -0.97461 
 C                     3.40295  -3.77506  -0.33284 
 H                     3.60076  -0.69016   1.06207 
 H                     0.51484  -2.3581   -1.43523 
 H                     1.78281  -4.47165  -1.55144 
 H                     3.96392  -4.70643  -0.39806 
 C                     1.97286   1.06837  -0.04581 
 C                     2.97148   1.35095  -0.97234 
 C                     1.68309   2.0122    0.93926 
 C                     3.67678   2.54399  -0.91012 
 C                     2.36561   3.215     0.99216 
 C                     3.37144   3.4833    0.06927 
 H                     3.20527   0.62157  -1.74439 
 H                     0.90427   1.79831   1.66775 
 H                     4.46088   2.7476   -1.6392 
 H                     2.1399    3.9546    1.756 
 O                     4.02299   4.68033   0.17324 
 H                     4.69529   4.73835  -0.51784 
 O                     5.09721  -2.75171   1.05375 
 H                     5.47965  -3.63149   0.94109 
 
 ITRead=  0  0  0  0  0  0  0  0  0  0  0  0  0  0  0  0  0  0  0  0
 ITRead=  0  0  0  0  0  0  0  0  0  0  0  0  0  0  0  0  0  0  0  0
 ITRead=  0  0  0  0  0  0
 MicOpt= -1 -1 -1 -1 -1 -1 -1 -1 -1 -1 -1 -1 -1 -1 -1 -1 -1 -1 -1 -1
 MicOpt= -1 -1 -1 -1 -1 -1 -1 -1 -1 -1 -1 -1 -1 -1 -1 -1 -1 -1 -1 -1
 MicOpt= -1 -1 -1 -1 -1 -1
 NAtoms=     46 NQM=       46 NQMF=       0 NMMI=      0 NMMIF=      0
                NMic=       0 NMicF=      0.
                    Isotopes and Nuclear Properties:
 (Nuclear quadrupole moments (NQMom) in fm**2, nuclear magnetic moments (NMagM)
  in nuclear magnetons)

  Atom         1           2           3           4           5           6           7           8           9          10
 IAtWgt=          12          12          12          12          12          12           1           1           1           1
 AtmWgt=  12.0000000  12.0000000  12.0000000  12.0000000  12.0000000  12.0000000   1.0078250   1.0078250   1.0078250   1.0078250
 NucSpn=           0           0           0           0           0           0           1           1           1           1
 AtZEff=  -0.0000000  -0.0000000  -0.0000000  -0.0000000  -0.0000000  -0.0000000  -0.0000000  -0.0000000  -0.0000000  -0.0000000
 NQMom=    0.0000000   0.0000000   0.0000000   0.0000000   0.0000000   0.0000000   0.0000000   0.0000000   0.0000000   0.0000000
 NMagM=    0.0000000   0.0000000   0.0000000   0.0000000   0.0000000   0.0000000   2.7928460   2.7928460   2.7928460   2.7928460
 AtZNuc=   6.0000000   6.0000000   6.0000000   6.0000000   6.0000000   6.0000000   1.0000000   1.0000000   1.0000000   1.0000000

  Atom        11          12          13          14          15          16          17          18          19          20
 IAtWgt=          12          12          12          12          12          12           1           1           1           1
 AtmWgt=  12.0000000  12.0000000  12.0000000  12.0000000  12.0000000  12.0000000   1.0078250   1.0078250   1.0078250   1.0078250
 NucSpn=           0           0           0           0           0           0           1           1           1           1
 AtZEff=  -0.0000000  -0.0000000  -0.0000000  -0.0000000  -0.0000000  -0.0000000  -0.0000000  -0.0000000  -0.0000000  -0.0000000
 NQMom=    0.0000000   0.0000000   0.0000000   0.0000000   0.0000000   0.0000000   0.0000000   0.0000000   0.0000000   0.0000000
 NMagM=    0.0000000   0.0000000   0.0000000   0.0000000   0.0000000   0.0000000   2.7928460   2.7928460   2.7928460   2.7928460
 AtZNuc=   6.0000000   6.0000000   6.0000000   6.0000000   6.0000000   6.0000000   1.0000000   1.0000000   1.0000000   1.0000000

  Atom        21          22          23          24          25          26          27          28          29          30
 IAtWgt=           1          14          12          12          12          12          12          12           1           1
 AtmWgt=   1.0078250  14.0030740  12.0000000  12.0000000  12.0000000  12.0000000  12.0000000  12.0000000   1.0078250   1.0078250
 NucSpn=           1           2           0           0           0           0           0           0           1           1
 AtZEff=  -0.0000000  -0.0000000  -0.0000000  -0.0000000  -0.0000000  -0.0000000  -0.0000000  -0.0000000  -0.0000000  -0.0000000
 NQMom=    0.0000000   2.0440000   0.0000000   0.0000000   0.0000000   0.0000000   0.0000000   0.0000000   0.0000000   0.0000000
 NMagM=    2.7928460   0.4037610   0.0000000   0.0000000   0.0000000   0.0000000   0.0000000   0.0000000   2.7928460   2.7928460
 AtZNuc=   1.0000000   7.0000000   6.0000000   6.0000000   6.0000000   6.0000000   6.0000000   6.0000000   1.0000000   1.0000000

  Atom        31          32          33          34          35          36          37          38          39          40
 IAtWgt=           1           1          12          12          12          12          12          12           1           1
 AtmWgt=   1.0078250   1.0078250  12.0000000  12.0000000  12.0000000  12.0000000  12.0000000  12.0000000   1.0078250   1.0078250
 NucSpn=           1           1           0           0           0           0           0           0           1           1
 AtZEff=  -0.0000000  -0.0000000  -0.0000000  -0.0000000  -0.0000000  -0.0000000  -0.0000000  -0.0000000  -0.0000000  -0.0000000
 NQMom=    0.0000000   0.0000000   0.0000000   0.0000000   0.0000000   0.0000000   0.0000000   0.0000000   0.0000000   0.0000000
 NMagM=    2.7928460   2.7928460   0.0000000   0.0000000   0.0000000   0.0000000   0.0000000   0.0000000   2.7928460   2.7928460
 AtZNuc=   1.0000000   1.0000000   6.0000000   6.0000000   6.0000000   6.0000000   6.0000000   6.0000000   1.0000000   1.0000000

  Atom        41          42          43          44          45          46
 IAtWgt=           1           1          16           1          16           1
 AtmWgt=   1.0078250   1.0078250  15.9949146   1.0078250  15.9949146   1.0078250
 NucSpn=           1           1           0           1           0           1
 AtZEff=  -0.0000000  -0.0000000  -0.0000000  -0.0000000  -0.0000000  -0.0000000
 NQMom=    0.0000000   0.0000000   0.0000000   0.0000000   0.0000000   0.0000000
 NMagM=    2.7928460   2.7928460   0.0000000   2.7928460   0.0000000   2.7928460
 AtZNuc=   1.0000000   1.0000000   8.0000000   1.0000000   8.0000000   1.0000000
 Leave Link  101 at Sun Jan 17 21:07:00 2021, MaxMem=  4026531840 cpu:               0.7 elap:               0.1
 (Enter /opt/ohpc/pub/libs/gaussian/g16-A.03/sandybridge/g16/l202.exe)
                          Input orientation:                          
 ---------------------------------------------------------------------
 Center     Atomic      Atomic             Coordinates (Angstroms)
 Number     Number       Type             X           Y           Z
 ---------------------------------------------------------------------
      1          6           0       -6.538108   -0.217341    1.255514
      2          6           0       -7.258661    0.087287    0.107878
      3          6           0       -5.151390   -0.259049    1.219222
      4          6           0       -6.580697    0.348691   -1.075777
      5          6           0       -4.458004    0.000662    0.035726
      6          6           0       -5.193998    0.304569   -1.110911
      7          1           0       -8.345644    0.121015    0.135956
      8          1           0       -4.593910   -0.476283    2.128350
      9          1           0       -7.136138    0.581164   -1.982188
     10          1           0       -4.671509    0.488761   -2.047704
     11          6           0       -2.974479   -0.044963   -0.002770
     12          6           0       -2.240322    0.918366   -0.694597
     13          6           0       -2.265576   -1.051297    0.654611
     14          6           0       -0.856277    0.875925   -0.739808
     15          6           0       -0.881570   -1.094369    0.628888
     16          6           0       -0.155643   -0.133238   -0.077397
     17          1           0       -2.762026    1.727417   -1.202285
     18          1           0       -2.809037   -1.823891    1.195264
     19          1           0       -0.306381    1.639189   -1.284917
     20          1           0       -0.352632   -1.885069    1.155020
     21          1           0       -7.059465   -0.416189    2.189743
     22          7           0        1.257026   -0.160831   -0.103806
     23          6           0        1.965402   -1.377887   -0.174570
     24          6           0        3.190004   -1.508547    0.478017
     25          6           0        1.461496   -2.456008   -0.912094
     26          6           0        3.903051   -2.696891    0.390217
     27          6           0        2.178621   -3.638306   -0.974610
     28          6           0        3.402953   -3.775056   -0.332839
     29          1           0        3.600761   -0.690157    1.062074
     30          1           0        0.514840   -2.358097   -1.435231
     31          1           0        1.782807   -4.471654   -1.551437
     32          1           0        3.963923   -4.706428   -0.398055
     33          6           0        1.972861    1.068372   -0.045814
     34          6           0        2.971482    1.350948   -0.972341
     35          6           0        1.683086    2.012203    0.939258
     36          6           0        3.676780    2.543988   -0.910119
     37          6           0        2.365608    3.214996    0.992156
     38          6           0        3.371443    3.483300    0.069272
     39          1           0        3.205268    0.621566   -1.744392
     40          1           0        0.904271    1.798314    1.667748
     41          1           0        4.460878    2.747602   -1.639197
     42          1           0        2.139895    3.954598    1.756001
     43          8           0        4.022986    4.680331    0.173244
     44          1           0        4.695287    4.738350   -0.517835
     45          8           0        5.097214   -2.751708    1.053752
     46          1           0        5.479651   -3.631493    0.941087
 ---------------------------------------------------------------------
                    Distance matrix (angstroms):
                    1          2          3          4          5
     1  C    0.000000
     2  C    1.388907   0.000000
     3  C    1.387820   2.407410   0.000000
     4  C    2.399401   1.388887   2.771153   0.000000
     5  C    2.421206   2.802925   1.396029   2.421237   0.000000
     6  C    2.771099   2.407383   2.397707   1.387846   1.396003
     7  H    2.152924   1.087869   3.394285   2.152945   3.890794
     8  H    2.146811   3.391285   1.088342   3.859318   2.150586
     9  H    3.387914   2.151117   3.859302   1.088182   3.403140
    10  H    3.859277   3.391323   3.385604   2.146919   2.150466
    11  C    3.783179   4.287651   2.505601   3.783004   1.484726
    12  C    4.854248   5.149600   3.677408   4.394165   2.508718
    13  C    4.394439   5.150358   3.045384   4.855356   2.509258
    14  C    6.120437   6.506231   4.855302   5.758458   3.786816
    15  C    5.758321   6.506539   4.390628   6.121140   3.787059
    16  C    6.520704   7.108855   5.162803   6.519995   4.305930
    17  H    4.907306   4.962487   3.939391   4.061913   2.718583
    18  H    4.060862   4.963282   2.817077   4.909497   2.718936
    19  H    6.981040   7.258269   5.774784   6.409069   4.654551
    20  H    6.407147   7.258094   5.067163   6.982473   4.654340
    21  H    1.088181   2.151123   2.146475   3.387902   3.403109
    22  N    7.912968   8.521930   6.544299   7.914180   5.719014
    23  C    8.700672   9.343974   7.337791   8.765218   6.573033
    24  C    9.844180  10.576308   8.466964  10.066291   7.808032
    25  C    8.585093   9.140560   7.286933   8.518803   6.478740
    26  C   10.766369  11.507179   9.413460  11.015157   8.792593
    27  C    9.625893  10.203632   8.364289   9.624554   7.635945
    28  C   10.677307  11.348213   9.378059  10.827304   8.728490
    29  H   10.151731  10.928950   8.764171  10.455224   8.153178
    30  H    7.846465   8.293878   6.599870   7.602799   5.697073
    31  H    9.757857  10.260868   8.573545   9.664894   7.840180
    32  H   11.540314  12.214011  10.270526  11.713349   9.657832
    33  C    8.705349   9.284780   7.356447   8.645352   6.519408
    34  C    9.892177  10.364340   8.565984   9.605173   7.618184
    35  C    8.524020   9.184298   7.207429   8.667050   6.525002
    36  C   10.800872  11.254136   9.504088  10.491073   8.575421
    37  C    9.546018  10.158300   8.284069   9.619170   7.603182
    38  C   10.644300  11.159458   9.379032  10.496761   8.569138
    39  H   10.229202  10.640027   8.910231   9.812574   7.891773
    40  H    7.721516   8.484944   6.411314   8.102659   5.886344
    41  H   11.753635  12.144017  10.469298  11.313204   9.481429
    42  H    9.641748  10.295886   8.438352   9.852424   7.881956
    43  O   11.691673  12.180964  10.471901  11.522207   9.687384
    44  H   12.405354  12.842148  11.178033  12.113142  10.321572
    45  O   11.909846  12.713073  10.548678  12.268699   9.995705
    46  H   12.497273  13.296171  11.156602  12.859300  10.619285
                    6          7          8          9         10
     6  C    0.000000
     7  H    3.394295   0.000000
     8  H    3.385653   4.289744   0.000000
     9  H    2.146517   2.482172   4.947488   0.000000
    10  H    1.088349   4.289857   4.286812   2.467231   0.000000
    11  C    2.505277   5.375519   2.711137   4.650757   2.710448
    12  C    3.045368   6.212934   3.931088   5.073520   2.815338
    13  C    3.678464   6.213738   2.814904   5.774081   3.932277
    14  C    4.390898   7.578091   4.901499   6.408358   4.051726
    15  C    4.856023   7.578426   4.051158   6.981744   4.902457
    16  C    5.161865   8.196724   4.968019   7.270895   4.966089
    17  H    2.819102   5.962232   4.393771   4.588573   2.427988
    18  H    3.941678   5.963121   2.423318   5.882541   4.397045
    19  H    5.069545   8.303823   5.874395   6.946307   4.578173
    20  H    5.776485   8.303680   4.573892   7.870218   5.877517
    21  H    3.859246   2.482113   2.467051   4.290175   4.947446
    22  N    6.545729   9.609797   6.270206   8.632733   6.272817
    23  C    7.413798  10.424049   7.010057   9.483849   7.144340
    24  C    8.723736  11.655199   8.023620  10.818905   8.495404
    25  C    7.208045  10.194089   7.059147   9.180895   6.897465
    26  C    9.696311  12.571228   8.952684  11.757451   9.466516
    27  C    8.361839  11.230583   8.092832  10.275401   8.068983
    28  C    9.547581  12.386633   8.993841  11.522562   9.290739
    29  H    9.113678  12.009675   8.266518  11.232310   8.915774
    30  H    6.307599   9.333960   6.506893   8.214370   5.947936
    31  H    8.466533  11.248352   8.376535  10.259829   8.155378
    32  H   10.463545  13.233095   9.874885  12.396752  10.211857
    33  C    7.285719  10.363497   7.087696   9.325276   6.963560
    34  C    8.233418  11.437587   8.377841  10.187067   7.766279
    35  C    7.376550  10.237056   6.856178   9.400076   7.184963
    36  C    9.151285  12.308686   9.314432  11.041794   8.672484
    37  C    8.369057  11.181982   7.959357  10.298882   8.135977
    38  C    9.212163  12.190141   9.130441  11.092346   8.839566
    39  H    8.429084  11.713660   8.776707  10.344219   7.883733
    40  H    6.865938   9.524739   5.967909   8.913566   6.827066
    41  H    9.973170  13.193071  10.323615  11.802622   9.416461
    42  H    8.679164  11.281287   8.069416  10.554568   8.536710
    43  O   10.283440  13.182252  10.230543  12.082016   9.904348
    44  H   10.853944  13.849661  10.976515  12.625733  10.398864
    45  O   10.951513  13.776985  10.012502  13.037633  10.749308
    46  H   11.559847  14.348113  10.622692  13.618008  11.355854
                   11         12         13         14         15
    11  C    0.000000
    12  C    1.394853   0.000000
    13  C    1.395493   2.387587   0.000000
    14  C    2.424467   1.385433   2.764907   0.000000
    15  C    2.424977   2.765668   1.384915   2.399172   0.000000
    16  C    2.821205   2.415097   2.414640   1.395739   1.396274
    17  H    2.150652   1.088341   3.378724   2.137944   3.853801
    18  H    2.151102   3.378607   1.088374   3.853152   2.137314
    19  H    3.405733   2.146670   3.852133   1.087245   3.386123
    20  H    3.405958   3.852753   2.145912   3.386314   1.087105
    21  H    4.651025   5.772746   5.073595   6.980786   6.408009
    22  N    4.234297   3.707444   3.711718   2.438321   2.445798
    23  C    5.119436   4.819888   4.323815   3.655275   2.971730
    24  C    6.354061   6.062456   5.477556   4.851927   4.095366
    25  C    5.130096   5.013697   4.280052   4.062454   3.117474
    26  C    7.381570   7.210266   6.389823   6.057489   5.051499
    27  C    6.356967   6.353639   5.394244   5.444632   4.290407
    28  C    7.395551   7.348852   6.366015   6.319675   5.144720
    29  H    6.692081   6.308050   5.891550   5.056143   4.521319
    30  H    4.424690   4.344498   3.715626   3.580848   2.794201
    31  H    6.680249   6.780270   5.740635   6.018314   4.822735
    32  H    8.368209   8.379672   7.298955   7.383345   6.130284
    33  C    5.071246   4.265481   4.790401   2.919364   3.644235
    34  C    6.184100   5.237096   5.987030   3.864124   4.836271
    35  C    5.178056   4.388518   5.005795   3.249424   4.040369
    36  C    7.194803   6.140130   7.119414   4.833223   6.031976
    37  C    6.335120   5.416109   6.305796   4.341831   5.408027
    38  C    7.261168   6.217257   7.258180   5.032557   6.273463
    39  H    6.454981   5.553792   6.203533   4.191663   5.027836
    40  H    4.607928   4.030316   4.381171   3.121964   3.554725
    41  H    8.109306   7.010311   8.058435   5.708258   6.960366
    42  H    6.726558   5.866041   6.758714   4.968333   5.990968
    43  O    8.445348   7.357619   8.522282   6.254149   7.590088
    44  H    9.053766   7.919987   9.129527   6.766643   8.150885
    45  O    8.578749   8.388421   7.567125   7.198655   6.218773
    46  H    9.231813   9.109043   8.168722   7.955263   6.855625
                   16         17         18         19         20
    16  C    0.000000
    17  H    3.394207   0.000000
    18  H    3.393888   4.285118   0.000000
    19  H    2.149959   2.458618   4.940396   0.000000
    20  H    2.150946   4.940862   2.457496   4.286703   0.000000
    21  H    7.272052   5.879531   4.586584   7.867781   6.943333
    22  N    1.413185   4.574376   4.581072   2.660702   2.673694
    23  C    2.461184   5.748712   4.987046   3.936574   2.719986
    24  C    3.659688   6.980082   6.049990   5.024031   3.626344
    25  C    2.950783   5.951756   4.803955   4.476050   2.808913
    26  C    4.823274   8.156826   6.816330   6.271123   4.399411
    27  C    4.305727   7.297452   5.733863   5.841531   3.743849
    28  C    5.098205   8.309038   6.688121   6.631716   4.459842
    29  H    3.964735   7.173357   6.510653   5.118591   4.131074
    30  H    2.691330   5.242475   4.272357   4.083539   2.772303
    31  H    4.975162   7.694537   5.969929   6.463601   4.309922
    32  H    6.163417   9.342352   7.531313   7.699927   5.385606
    33  C    2.444462   4.918427   5.724684   2.656342   3.946230
    34  C    3.575282   5.750454   6.942083   3.305325   5.103646
    35  C    3.002903   4.942300   5.912726   3.007336   4.402207
    36  C    4.748519   6.496951   8.097952   4.101793   6.333838
    37  C    4.325658   5.772443   7.225551   3.848085   5.781524
    38  C    5.053830   6.505338   8.223896   4.331393   6.623214
    39  H    3.826790   6.093060   7.126970   3.684882   5.229576
    40  H    2.810666   4.656592   5.208864   3.195189   3.925558
    41  H    5.661336   7.307668   9.043472   4.907224   7.241489
    42  H    5.034009   6.143340   7.628715   4.537903   6.377741
    43  O    6.379201   7.526498   9.488201   5.488005   7.950748
    44  H    6.888968   8.071289  10.114969   5.933793   8.494093
    45  O    5.977323   9.323085   7.961763   7.344943   5.519252
    46  H    6.710562  10.061670   8.487307   8.137159   6.091904
                   21         22         23         24         25
    21  H    0.000000
    22  N    8.630736   0.000000
    23  C    9.378863   1.409975   0.000000
    24  C   10.448678   2.427192   1.393769   0.000000
    25  C    9.294570   2.441920   1.400074   2.412018   0.000000
    26  C   11.340928   3.698257   2.411066   1.388635   2.777630
    27  C   10.282869   3.701415   2.407285   2.769277   1.384198
    28  C   11.274201   4.209523   2.799647   2.416588   2.417577
    29  H   10.723204   2.670685   2.162559   1.086097   3.404706
    30  H    8.618674   2.674231   2.157361   3.396874   1.086009
    31  H   10.422524   4.577693   3.391238   3.857316   2.138885
    32  H   12.108589   5.298710   3.888858   3.404834   3.404522
    33  C    9.422555   1.423630   2.449656   2.897645   3.665132
    34  C   10.664963   2.445238   3.015821   3.213721   4.095925
    35  C    9.159312   2.447772   3.579529   3.857360   4.841644
    36  C   11.560223   3.717714   4.341768   4.311254   5.468770
    37  C   10.171122   3.718373   4.755627   4.822429   6.050113
    38  C   11.336060   4.216682   5.066315   5.011839   6.315565
    39  H   11.041698   2.664454   2.828325   3.078428   3.633858
    40  H    8.282366   2.664787   3.822092   4.192298   5.006530
    41  H   12.545464   4.591413   5.039067   4.920622   6.050002
    42  H   10.194123   4.601641   5.673883   5.708058   6.976735
    43  O   12.363717   5.582485   6.407545   6.252116   7.659408
    44  H   13.117715   5.999586   6.706598   6.502409   7.897571
    45  O   12.431008   4.774896   3.633787   2.348270   4.143722
    46  H   13.004874   5.564877   4.321270   3.156551   4.578386
                   26         27         28         29         30
    26  C    0.000000
    27  C    2.392211   0.000000
    28  C    1.391168   1.389086   0.000000
    29  H    2.137698   3.855145   3.391388   0.000000
    30  H    3.863550   2.149250   3.400623   4.305980   0.000000
    31  H    3.378644   1.088057   2.143619   4.943189   2.467462
    32  H    2.159471   2.158843   1.089217   4.288857   4.299601
    33  C    4.253582   4.801856   5.058294   2.640057   3.974543
    34  C    4.371428   5.051860   5.183729   2.949737   4.472848
    35  C    5.235003   5.986376   6.169971   3.315918   5.109062
    36  C    5.404524   6.361556   6.351264   3.788802   5.856965
    37  C    6.138116   7.132383   7.189751   4.096427   6.354283
    38  C    6.211310   7.295875   7.269554   4.296043   6.674251
    39  H    4.006946   4.448941   4.621888   3.123025   4.026459
    40  H    5.552624   6.177610   6.427147   3.718923   5.201527
    41  H    5.837139   6.813970   6.735788   4.455879   6.456081
    42  H    7.015439   8.069072   8.105931   4.918273   7.257746
    43  O    7.381386   8.597614   8.493181   5.459893   8.027064
    44  H    7.532264   8.758460   8.612922   5.758714   8.287178
    45  O    1.367227   3.663126   2.416691   2.547437   5.229543
    46  H    1.913794   3.816640   2.440527   3.492323   5.649582
                   31         32         33         34         35
    31  H    0.000000
    32  H    2.478442   0.000000
    33  C    5.744120   6.118555   0.000000
    34  C    5.970845   6.164945   1.391239   0.000000
    35  C    6.946503   7.220154   1.394688   2.398215   0.000000
    36  C    7.295043   7.274146   2.414085   1.387322   2.770885
    37  C    8.117519   8.199772   2.416532   2.775069   1.383960
    38  C    8.272349   8.224419   2.793055   2.406627   2.402405
    39  H    5.291646   5.547585   2.145607   1.087528   3.384211
    40  H    7.102639   7.479350   2.147323   3.382834   1.087658
    41  H    7.700482   7.572976   3.398369   2.147938   3.860747
    42  H    9.059160   9.109358   3.406573   3.861914   2.156071
    43  O    9.578714   9.404314   4.158996   3.674618   3.630539
    44  H    9.714682   9.473810   4.593816   3.827868   4.316057
    45  O    4.553078   2.685707   5.056050   5.045352   5.862101
    46  H    4.537092   2.290462   5.946451   5.897189   6.801854
                   36         37         38         39         40
    36  C    0.000000
    37  C    2.405842   0.000000
    38  C    1.390951   1.391189   0.000000
    39  H    2.148032   3.862590   3.392125   0.000000
    40  H    3.858527   2.144509   3.388398   4.280423   0.000000
    41  H    1.089873   3.395973   2.155687   2.471366   4.948382
    42  H    3.385267   1.086930   2.141001   4.949432   2.486788
    43  O    2.420226   2.358967   1.366822   4.562846   4.501772
    44  H    2.450810   3.166715   1.916353   4.546703   5.271849
    45  O    5.823986   6.562547   6.543914   4.773683   6.217754
    46  H    6.694316   7.521588   7.471605   5.520247   7.137573
                   41         42         43         44         45
    41  H    0.000000
    42  H    4.286160   0.000000
    43  O    2.685542   2.564730   0.000000
    44  H    2.296841   3.509220   0.965891   0.000000
    45  O    6.156241   7.362977   7.560718   7.663707   0.000000
    46  H    6.956193   8.328675   8.473363   8.532172   0.965905
                   46
    46  H    0.000000
 Stoichiometry    C24H19NO2
 Framework group  C1[X(C24H19NO2)]
 Deg. of freedom   132
 Full point group                 C1      NOp   1
 Largest Abelian subgroup         C1      NOp   1
 Largest concise Abelian subgroup C1      NOp   1
                         Standard orientation:                         
 ---------------------------------------------------------------------
 Center     Atomic      Atomic             Coordinates (Angstroms)
 Number     Number       Type             X           Y           Z
 ---------------------------------------------------------------------
      1          6           0       -6.538108   -0.217341    1.255514
      2          6           0       -7.258661    0.087287    0.107878
      3          6           0       -5.151390   -0.259049    1.219222
      4          6           0       -6.580697    0.348691   -1.075777
      5          6           0       -4.458004    0.000662    0.035726
      6          6           0       -5.193998    0.304569   -1.110911
      7          1           0       -8.345644    0.121015    0.135956
      8          1           0       -4.593910   -0.476283    2.128350
      9          1           0       -7.136138    0.581164   -1.982188
     10          1           0       -4.671509    0.488761   -2.047704
     11          6           0       -2.974479   -0.044963   -0.002770
     12          6           0       -2.240322    0.918366   -0.694597
     13          6           0       -2.265576   -1.051297    0.654611
     14          6           0       -0.856277    0.875925   -0.739808
     15          6           0       -0.881570   -1.094369    0.628888
     16          6           0       -0.155643   -0.133238   -0.077397
     17          1           0       -2.762026    1.727417   -1.202285
     18          1           0       -2.809037   -1.823891    1.195264
     19          1           0       -0.306381    1.639189   -1.284917
     20          1           0       -0.352632   -1.885069    1.155020
     21          1           0       -7.059465   -0.416189    2.189743
     22          7           0        1.257026   -0.160831   -0.103806
     23          6           0        1.965402   -1.377887   -0.174570
     24          6           0        3.190004   -1.508547    0.478017
     25          6           0        1.461496   -2.456008   -0.912094
     26          6           0        3.903051   -2.696891    0.390217
     27          6           0        2.178621   -3.638306   -0.974610
     28          6           0        3.402953   -3.775056   -0.332839
     29          1           0        3.600761   -0.690157    1.062074
     30          1           0        0.514840   -2.358097   -1.435231
     31          1           0        1.782807   -4.471654   -1.551437
     32          1           0        3.963923   -4.706428   -0.398055
     33          6           0        1.972861    1.068372   -0.045814
     34          6           0        2.971482    1.350948   -0.972341
     35          6           0        1.683086    2.012203    0.939258
     36          6           0        3.676780    2.543988   -0.910119
     37          6           0        2.365608    3.214996    0.992156
     38          6           0        3.371443    3.483300    0.069272
     39          1           0        3.205268    0.621566   -1.744392
     40          1           0        0.904271    1.798314    1.667748
     41          1           0        4.460878    2.747602   -1.639197
     42          1           0        2.139895    3.954598    1.756001
     43          8           0        4.022986    4.680331    0.173244
     44          1           0        4.695287    4.738350   -0.517835
     45          8           0        5.097214   -2.751708    1.053752
     46          1           0        5.479651   -3.631493    0.941087
 ---------------------------------------------------------------------
 Rotational constants (GHZ):           0.2747871           0.0974680           0.0767524
 Leave Link  202 at Sun Jan 17 21:07:00 2021, MaxMem=  4026531840 cpu:               0.1 elap:               0.0
 (Enter /opt/ohpc/pub/libs/gaussian/g16-A.03/sandybridge/g16/l301.exe)
 Standard basis: TZVP (5D, 7F)
 Ernie: Thresh=  0.10000D-02 Tol=  0.10000D-05 Strict=F.
 There are   654 symmetry adapted cartesian basis functions of A   symmetry.
 There are   627 symmetry adapted basis functions of A   symmetry.
   627 basis functions,  1097 primitive gaussians,   654 cartesian basis functions
    93 alpha electrons       93 beta electrons
       nuclear repulsion energy      2186.7759231597 Hartrees.
 IExCor=33909 DFT=T Ex+Corr=LC-wHPBE ExCW=0 ScaHFX=  1.000000
 ScaDFX=  1.000000  1.000000  1.000000  1.000000 ScalE2=  1.000000  1.000000
 IRadAn=      5 IRanWt=     -1 IRanGd=            0 ICorTp=0 IEmpDi=  4
 HFx  wShort=  0.000000 wLong=  0.181600 cFull=  0.000000 cShort=  0.000000 cLong=  1.000000
 DFx  wShort=  0.000000 wLong=  0.181600 cFull=  0.000000 cShort=  1.000000 cLong=  0.000000
 NAtoms=   46 NActive=   46 NUniq=   46 SFac= 1.00D+00 NAtFMM=   60 NAOKFM=F Big=F
 Integral buffers will be    131072 words long.
 Raffenetti 2 integral format.
 Two-electron integral symmetry is turned on.
 Leave Link  301 at Sun Jan 17 21:07:00 2021, MaxMem=  4026531840 cpu:               0.4 elap:               0.1
 (Enter /opt/ohpc/pub/libs/gaussian/g16-A.03/sandybridge/g16/l302.exe)
 NPDir=0 NMtPBC=     1 NCelOv=     1 NCel=       1 NClECP=     1 NCelD=      1
         NCelK=      1 NCelE2=     1 NClLst=     1 CellRange=     0.0.
 One-electron integrals computed using PRISM.
 One-electron integral symmetry used in STVInt
 NBasis=   627 RedAO= T EigKep=  6.83D-06  NBF=   627
 NBsUse=   627 1.00D-06 EigRej= -1.00D+00 NBFU=   627
 Precomputing XC quadrature grid using
 IXCGrd= 4 IRadAn=           5 IRanWt=          -1 IRanGd=           0 AccXCQ= 0.00D+00.
 Generated NRdTot=       0 NPtTot=           0 NUsed=           0 NTot=          32
 NSgBfM=   623   621   621   623   623 MxSgAt=    46 MxSgA2=    46.
 Leave Link  302 at Sun Jan 17 21:07:02 2021, MaxMem=  4026531840 cpu:              10.5 elap:               1.5
 (Enter /opt/ohpc/pub/libs/gaussian/g16-A.03/sandybridge/g16/l303.exe)
 DipDrv:  MaxL=1.
 Leave Link  303 at Sun Jan 17 21:07:02 2021, MaxMem=  4026531840 cpu:               0.8 elap:               0.2
 (Enter /opt/ohpc/pub/libs/gaussian/g16-A.03/sandybridge/g16/l401.exe)
 ExpMin= 9.52D-02 ExpMax= 2.70D+04 ExpMxC= 9.22D+02 IAcc=3 IRadAn=         5 AccDes= 0.00D+00
 Harris functional with IExCor=33909 and IRadAn=       5 diagonalized for initial guess.
 HarFok:  IExCor=33909 AccDes= 0.00D+00 IRadAn=         5 IDoV= 1 UseB2=F ITyADJ=14
 ICtDFT=  3500011 ScaDFX=  1.000000  1.000000  1.000000  1.000000
 FoFCou: FMM=F IPFlag=           0 FMFlag=      100000 FMFlg1=           0
         NFxFlg=           0 DoJE=T BraDBF=F KetDBF=T FulRan=T
         wScrn=  0.000000 ICntrl=       500 IOpCl=  0 I1Cent=   200000004 NGrid=           0
         NMat0=    1 NMatS0=      1 NMatT0=    0 NMatD0=    1 NMtDS0=    0 NMtDT0=    0
 Petite list used in FoFCou.
 Harris En= -1112.47401757598    
 JPrj=0 DoOrth=F DoCkMO=F.
 Leave Link  401 at Sun Jan 17 21:07:09 2021, MaxMem=  4026531840 cpu:              52.3 elap:               6.7
 (Enter /opt/ohpc/pub/libs/gaussian/g16-A.03/sandybridge/g16/l502.exe)
 Integral symmetry usage will be decided dynamically.
 Closed shell SCF:
 Using DIIS extrapolation, IDIIS=    10.
 NGot=  4026531840 LenX=  4025664800 LenY=  4025236430
 Requested convergence on RMS density matrix=1.00D-06 within  32 cycles.
 Requested convergence on MAX density matrix=1.00D-04.
 Requested convergence on             energy=1.00D-04.
 Virtual orbitals will be shifted by   0.500 hartree.
 No special actions if energy rises.
 Dynamic level shift is on during FON iterations.

 Cycle   1  Pass 1  IDiag  1:
 FoFJK:  IHMeth= 1 ICntrl=       0 DoSepK=T KAlg= 0 I1Cent=           0 FoldK=F
 IRaf=         1 NMat=       1 IRICut=       1 DoRegI=T DoRafI=F ISym2E= 0 IDoP0=0 IntGTp=1.
 FoFCou: FMM=F IPFlag=           0 FMFlag=      100000 FMFlg1=           0
         NFxFlg=           0 DoJE=T BraDBF=F KetDBF=F FulRan=T
         wScrn=  0.000000 ICntrl=       500 IOpCl=  0 I1Cent=           0 NGrid=           0
         NMat0=    1 NMatS0=      1 NMatT0=    0 NMatD0=    1 NMtDS0=    0 NMtDT0=    0
 Symmetry not used in FoFCou.
 E= -1130.02583262634    
 DIIS: error= 2.24D-02 at cycle   1 NSaved=   1.
 NSaved= 1 IEnMin= 1 EnMin= -1130.02583262634     IErMin= 1 ErrMin= 2.24D-02
 ErrMax= 2.24D-02  0.00D+00 EMaxC= 1.00D+00 BMatC= 4.74D-01 BMatP= 4.74D-01
 IDIUse=1 WtCom= 1.00D+00 WtEn= 0.00D+00
 Coeff-Com:  0.100D+01
 Coeff:      0.100D+01
 Gap=     0.288 Goal=   None    Shift=    0.500
 T= 1320. Gap= 0.742 NK=0 IS=   94 IE=  627 IFin=   93
          NO(<0.9)=   0  NV(>0.1)=   0     93.00e < EF      0.00e >EF  Err=0.0D+00
 GapD=    0.288 DampG=1.000 DampE=0.500 DampFc=0.5000 IDamp=-1.
 Damping current iteration by 5.00D-01
 RMSDP=2.27D-03 MaxDP=1.22D-01              OVMax= 7.35D-02

 Cycle   2  Pass 1  IDiag  1:
 E= -1130.31193045982     Delta-E=       -0.286097833486 Rises=F Damp=T
 DIIS: error= 1.02D-02 at cycle   2 NSaved=   2.
 NSaved= 2 IEnMin= 2 EnMin= -1130.31193045982     IErMin= 2 ErrMin= 1.02D-02
 ErrMax= 1.02D-02  0.00D+00 EMaxC= 1.00D+00 BMatC= 7.66D-02 BMatP= 4.74D-01
 IDIUse=1 WtCom= 1.00D+00 WtEn= 0.00D+00
 Coeff-Com: -0.519D+00 0.152D+01
 Coeff:     -0.519D+00 0.152D+01
 Gap=     0.301 Goal=   None    Shift=    0.500
 T= 1200. Gap= 0.746 NK=0 IS=   94 IE=  627 IFin=   93
          NO(<0.9)=   0  NV(>0.1)=   0     93.00e < EF      0.00e >EF  Err=0.0D+00
 GapD=    0.301 DampG=1.000 DampE=0.500 DampFc=0.5000 IDamp=-1.
 Damping current iteration by 5.00D-01
 RMSDP=1.33D-03 MaxDP=8.29D-02 DE=-2.86D-01 OVMax= 1.68D-02

 Cycle   3  Pass 1  IDiag  1:
 E= -1130.41030082744     Delta-E=       -0.098370367613 Rises=F Damp=T
 DIIS: error= 4.52D-03 at cycle   3 NSaved=   3.
 NSaved= 3 IEnMin= 3 EnMin= -1130.41030082744     IErMin= 3 ErrMin= 4.52D-03
 ErrMax= 4.52D-03  0.00D+00 EMaxC= 1.00D+00 BMatC= 1.41D-02 BMatP= 7.66D-02
 IDIUse=1 WtCom= 1.00D+00 WtEn= 0.00D+00
 Coeff-Com:  0.202D-01-0.736D+00 0.172D+01
 Coeff:      0.202D-01-0.736D+00 0.172D+01
 Gap=     0.256 Goal=   None    Shift=    0.500
 T=  964. Gap= 0.754 NK=0 IS=   94 IE=  627 IFin=   93
          NO(<0.9)=   0  NV(>0.1)=   0     93.00e < EF      0.00e >EF  Err=0.0D+00
 GapD=    0.256 DampG=1.000 DampE=1.000 DampFc=1.0000 IDamp=-1.
 RMSDP=8.04D-04 MaxDP=7.98D-02 DE=-9.84D-02 OVMax= 9.27D-03

 Cycle   4  Pass 1  IDiag  1:
 E= -1130.49178172056     Delta-E=       -0.081480893117 Rises=F Damp=F
 DIIS: error= 1.13D-03 at cycle   4 NSaved=   4.
 NSaved= 4 IEnMin= 4 EnMin= -1130.49178172056     IErMin= 4 ErrMin= 1.13D-03
 ErrMax= 1.13D-03  0.00D+00 EMaxC= 1.00D+00 BMatC= 7.17D-04 BMatP= 1.41D-02
 IDIUse=1 WtCom= 1.00D+00 WtEn= 0.00D+00
 Coeff-Com:  0.702D-01-0.187D+00 0.179D+00 0.938D+00
 Coeff:      0.702D-01-0.187D+00 0.179D+00 0.938D+00
 Gap=     0.253 Goal=   None    Shift=    0.500
 T=  454. Gap= 0.753 NK=0 IS=   94 IE=  627 IFin=   93
          NO(<0.9)=   0  NV(>0.1)=   0     93.00e < EF      0.00e >EF  Err=0.0D+00
 GapD=    0.253 DampG=1.000 DampE=1.000 DampFc=1.0000 IDamp=-1.
 RMSDP=1.80D-04 MaxDP=1.23D-02 DE=-8.15D-02 OVMax= 6.36D-03

 Cycle   5  Pass 1  IDiag  1:
 E= -1130.49247387435     Delta-E=       -0.000692153799 Rises=F Damp=F
 DIIS: error= 4.46D-04 at cycle   5 NSaved=   5.
 NSaved= 5 IEnMin= 5 EnMin= -1130.49247387435     IErMin= 5 ErrMin= 4.46D-04
 ErrMax= 4.46D-04  0.00D+00 EMaxC= 1.00D+00 BMatC= 1.03D-04 BMatP= 7.17D-04
 IDIUse=1 WtCom= 1.00D+00 WtEn= 0.00D+00
 Coeff-Com:  0.217D-01-0.457D-02-0.699D-01 0.207D-01 0.103D+01
 Coeff:      0.217D-01-0.457D-02-0.699D-01 0.207D-01 0.103D+01
 Gap=     0.253 Goal=   None    Shift=    0.500
 RMSDP=1.17D-04 MaxDP=6.31D-03 DE=-6.92D-04 OVMax= 4.37D-03

 Cycle   6  Pass 1  IDiag  1:
 E= -1130.49265603338     Delta-E=       -0.000182159022 Rises=F Damp=F
 DIIS: error= 4.81D-04 at cycle   6 NSaved=   6.
 NSaved= 6 IEnMin= 6 EnMin= -1130.49265603338     IErMin= 5 ErrMin= 4.46D-04
 ErrMax= 4.81D-04  0.00D+00 EMaxC= 1.00D+00 BMatC= 2.03D-05 BMatP= 1.03D-04
 IDIUse=1 WtCom= 1.00D+00 WtEn= 0.00D+00
 Coeff-Com: -0.985D-02 0.471D-01-0.705D-01-0.181D+00-0.603D-02 0.122D+01
 Coeff:     -0.985D-02 0.471D-01-0.705D-01-0.181D+00-0.603D-02 0.122D+01
 Gap=     0.253 Goal=   None    Shift=    0.500
 RMSDP=7.16D-05 MaxDP=3.71D-03 DE=-1.82D-04 OVMax= 4.06D-03

 Cycle   7  Pass 1  IDiag  1:
 E= -1130.49272637112     Delta-E=       -0.000070337746 Rises=F Damp=F
 DIIS: error= 3.11D-04 at cycle   7 NSaved=   7.
 NSaved= 7 IEnMin= 7 EnMin= -1130.49272637112     IErMin= 7 ErrMin= 3.11D-04
 ErrMax= 3.11D-04  0.00D+00 EMaxC= 1.00D+00 BMatC= 7.74D-06 BMatP= 2.03D-05
 IDIUse=1 WtCom= 1.00D+00 WtEn= 0.00D+00
 Coeff-Com: -0.819D-02 0.143D-01-0.491D-02-0.482D-01-0.251D+00-0.145D+00
 Coeff-Com:  0.144D+01
 Coeff:     -0.819D-02 0.143D-01-0.491D-02-0.482D-01-0.251D+00-0.145D+00
 Coeff:      0.144D+01
 Gap=     0.253 Goal=   None    Shift=    0.500
 RMSDP=3.96D-05 MaxDP=2.10D-03 DE=-7.03D-05 OVMax= 3.12D-03

 Cycle   8  Pass 1  IDiag  1:
 E= -1130.49276047345     Delta-E=       -0.000034102325 Rises=F Damp=F
 DIIS: error= 2.30D-04 at cycle   8 NSaved=   8.
 NSaved= 8 IEnMin= 8 EnMin= -1130.49276047345     IErMin= 8 ErrMin= 2.30D-04
 ErrMax= 2.30D-04  0.00D+00 EMaxC= 1.00D+00 BMatC= 3.54D-06 BMatP= 7.74D-06
 IDIUse=1 WtCom= 1.00D+00 WtEn= 0.00D+00
 Coeff-Com:  0.516D-03-0.144D-01 0.269D-01 0.485D-01-0.108D+00-0.626D+00
 Coeff-Com:  0.191D+00 0.148D+01
 Coeff:      0.516D-03-0.144D-01 0.269D-01 0.485D-01-0.108D+00-0.626D+00
 Coeff:      0.191D+00 0.148D+01
 Gap=     0.253 Goal=   None    Shift=    0.500
 RMSDP=2.02D-05 MaxDP=9.98D-04 DE=-3.41D-05 OVMax= 2.48D-03

 Cycle   9  Pass 1  IDiag  1:
 E= -1130.49277810140     Delta-E=       -0.000017627952 Rises=F Damp=F
 DIIS: error= 1.56D-04 at cycle   9 NSaved=   9.
 NSaved= 9 IEnMin= 9 EnMin= -1130.49277810140     IErMin= 9 ErrMin= 1.56D-04
 ErrMax= 1.56D-04  0.00D+00 EMaxC= 1.00D+00 BMatC= 1.58D-06 BMatP= 3.54D-06
 IDIUse=1 WtCom= 1.00D+00 WtEn= 0.00D+00
 Coeff-Com:  0.315D-02-0.787D-02 0.561D-02 0.226D-01 0.133D+00-0.216D+00
 Coeff-Com: -0.604D+00-0.410D+00 0.207D+01
 Coeff:      0.315D-02-0.787D-02 0.561D-02 0.226D-01 0.133D+00-0.216D+00
 Coeff:     -0.604D+00-0.410D+00 0.207D+01
 Gap=     0.253 Goal=   None    Shift=    0.500
 RMSDP=9.70D-06 MaxDP=3.79D-04 DE=-1.76D-05 OVMax= 1.93D-03

 Cycle  10  Pass 1  IDiag  1:
 E= -1130.49278699041     Delta-E=       -0.000008889013 Rises=F Damp=F
 DIIS: error= 1.02D-04 at cycle  10 NSaved=  10.
 NSaved=10 IEnMin=10 EnMin= -1130.49278699041     IErMin=10 ErrMin= 1.02D-04
 ErrMax= 1.02D-04  0.00D+00 EMaxC= 1.00D+00 BMatC= 8.03D-07 BMatP= 1.58D-06
 IDIUse=1 WtCom= 1.00D+00 WtEn= 0.00D+00
 Coeff-Com:  0.802D-03 0.239D-02-0.710D-02-0.763D-03 0.125D+00-0.442D-01
 Coeff-Com: -0.331D+00-0.582D+00 0.442D+00 0.140D+01
 Coeff:      0.802D-03 0.239D-02-0.710D-02-0.763D-03 0.125D+00-0.442D-01
 Coeff:     -0.331D+00-0.582D+00 0.442D+00 0.140D+01
 Gap=     0.253 Goal=   None    Shift=    0.500
 RMSDP=5.23D-06 MaxDP=1.40D-04 DE=-8.89D-06 OVMax= 1.34D-03

 Cycle  11  Pass 1  IDiag  1:
 E= -1130.49279104876     Delta-E=       -0.000004058349 Rises=F Damp=F
 DIIS: error= 7.28D-05 at cycle  11 NSaved=  11.
 NSaved=11 IEnMin=11 EnMin= -1130.49279104876     IErMin=11 ErrMin= 7.28D-05
 ErrMax= 7.28D-05  0.00D+00 EMaxC= 1.00D+00 BMatC= 3.68D-07 BMatP= 8.03D-07
 IDIUse=1 WtCom= 1.00D+00 WtEn= 0.00D+00
 Coeff-Com: -0.114D-02 0.580D-02-0.752D-02-0.781D-02 0.270D-01 0.198D-01
 Coeff-Com:  0.879D-01-0.176D+00-0.619D+00-0.354D+00 0.203D+01
 Coeff:     -0.114D-02 0.580D-02-0.752D-02-0.781D-02 0.270D-01 0.198D-01
 Coeff:      0.879D-01-0.176D+00-0.619D+00-0.354D+00 0.203D+01
 Gap=     0.253 Goal=   None    Shift=    0.500
 RMSDP=3.62D-06 MaxDP=9.98D-05 DE=-4.06D-06 OVMax= 9.59D-04

 Cycle  12  Pass 1  IDiag  1:
 E= -1130.49279291672     Delta-E=       -0.000001867961 Rises=F Damp=F
 DIIS: error= 5.13D-05 at cycle  12 NSaved=  12.
 NSaved=12 IEnMin=12 EnMin= -1130.49279291672     IErMin=12 ErrMin= 5.13D-05
 ErrMax= 5.13D-05  0.00D+00 EMaxC= 1.00D+00 BMatC= 1.91D-07 BMatP= 3.68D-07
 IDIUse=1 WtCom= 1.00D+00 WtEn= 0.00D+00
 Coeff-Com: -0.632D-03 0.970D-03 0.266D-03-0.219D-02-0.209D-01-0.135D-01
 Coeff-Com:  0.169D+00 0.114D+00-0.284D+00-0.127D+01 0.682D+00 0.163D+01
 Coeff:     -0.632D-03 0.970D-03 0.266D-03-0.219D-02-0.209D-01-0.135D-01
 Coeff:      0.169D+00 0.114D+00-0.284D+00-0.127D+01 0.682D+00 0.163D+01
 Gap=     0.253 Goal=   None    Shift=    0.500
 RMSDP=2.35D-06 MaxDP=7.87D-05 DE=-1.87D-06 OVMax= 6.61D-04

 Cycle  13  Pass 1  IDiag  1:
 E= -1130.49279376570     Delta-E=       -0.000000848981 Rises=F Damp=F
 DIIS: error= 3.57D-05 at cycle  13 NSaved=  13.
 NSaved=13 IEnMin=13 EnMin= -1130.49279376570     IErMin=13 ErrMin= 3.57D-05
 ErrMax= 3.57D-05  0.00D+00 EMaxC= 1.00D+00 BMatC= 9.27D-08 BMatP= 1.91D-07
 IDIUse=1 WtCom= 1.00D+00 WtEn= 0.00D+00
 Coeff-Com: -0.440D-05-0.130D-02 0.262D-02 0.510D-03-0.129D-01-0.279D-01
 Coeff-Com:  0.763D-01 0.912D-01 0.998D-01-0.837D+00 0.124D+00-0.356D+00
 Coeff-Com:  0.184D+01
 Coeff:     -0.440D-05-0.130D-02 0.262D-02 0.510D-03-0.129D-01-0.279D-01
 Coeff:      0.763D-01 0.912D-01 0.998D-01-0.837D+00 0.124D+00-0.356D+00
 Coeff:      0.184D+01
 Gap=     0.253 Goal=   None    Shift=    0.500
 RMSDP=1.45D-06 MaxDP=4.63D-05 DE=-8.49D-07 OVMax= 4.46D-04

 Cycle  14  Pass 1  IDiag  1:
 E= -1130.49279414307     Delta-E=       -0.000000377368 Rises=F Damp=F
 DIIS: error= 2.47D-05 at cycle  14 NSaved=  14.
 NSaved=14 IEnMin=14 EnMin= -1130.49279414307     IErMin=14 ErrMin= 2.47D-05
 ErrMax= 2.47D-05  0.00D+00 EMaxC= 1.00D+00 BMatC= 4.47D-08 BMatP= 9.27D-08
 IDIUse=1 WtCom= 1.00D+00 WtEn= 0.00D+00
 Coeff-Com:  0.217D-03-0.857D-03 0.960D-03 0.816D-03 0.537D-02-0.151D-01
 Coeff-Com: -0.245D-01-0.137D-01 0.217D+00 0.358D-01-0.111D+00-0.148D+01
 Coeff-Com:  0.524D+00 0.186D+01
 Coeff:      0.217D-03-0.857D-03 0.960D-03 0.816D-03 0.537D-02-0.151D-01
 Coeff:     -0.245D-01-0.137D-01 0.217D+00 0.358D-01-0.111D+00-0.148D+01
 Coeff:      0.524D+00 0.186D+01
 Gap=     0.253 Goal=   None    Shift=    0.500
 RMSDP=9.80D-07 MaxDP=3.11D-05 DE=-3.77D-07 OVMax= 3.05D-04

 SCF Done:  E(RLC-wHPBE) =  -1130.49279414     A.U. after   14 cycles
            NFock= 14  Conv=0.98D-06     -V/T= 2.0044
 KE= 1.125539770700D+03 PE=-7.005284663329D+03 EE= 2.562476175326D+03
 Leave Link  502 at Sun Jan 17 21:17:53 2021, MaxMem=  4026531840 cpu:            5143.5 elap:             644.6
 (Enter /opt/ohpc/pub/libs/gaussian/g16-A.03/sandybridge/g16/l508.exe)
 QCSCF skips out because SCF is already converged.
 Leave Link  508 at Sun Jan 17 21:17:53 2021, MaxMem=  4026531840 cpu:               0.0 elap:               0.0
 (Enter /opt/ohpc/pub/libs/gaussian/g16-A.03/sandybridge/g16/l601.exe)
 Copying SCF densities to generalized density rwf, IOpCl= 0 IROHF=0.

 **********************************************************************

            Population analysis using the SCF density.

 **********************************************************************

 Orbital symmetries:
       Occupied  (A) (A) (A) (A) (A) (A) (A) (A) (A) (A) (A) (A)
                 (A) (A) (A) (A) (A) (A) (A) (A) (A) (A) (A) (A)
                 (A) (A) (A) (A) (A) (A) (A) (A) (A) (A) (A) (A)
                 (A) (A) (A) (A) (A) (A) (A) (A) (A) (A) (A) (A)
                 (A) (A) (A) (A) (A) (A) (A) (A) (A) (A) (A) (A)
                 (A) (A) (A) (A) (A) (A) (A) (A) (A) (A) (A) (A)
                 (A) (A) (A) (A) (A) (A) (A) (A) (A) (A) (A) (A)
                 (A) (A) (A) (A) (A) (A) (A) (A) (A)
       Virtual   (A) (A) (A) (A) (A) (A) (A) (A) (A) (A) (A) (A)
                 (A) (A) (A) (A) (A) (A) (A) (A) (A) (A) (A) (A)
                 (A) (A) (A) (A) (A) (A) (A) (A) (A) (A) (A) (A)
                 (A) (A) (A) (A) (A) (A) (A) (A) (A) (A) (A) (A)
                 (A) (A) (A) (A) (A) (A) (A) (A) (A) (A) (A) (A)
                 (A) (A) (A) (A) (A) (A) (A) (A) (A) (A) (A) (A)
                 (A) (A) (A) (A) (A) (A) (A) (A) (A) (A) (A) (A)
                 (A) (A) (A) (A) (A) (A) (A) (A) (A) (A) (A) (A)
                 (A) (A) (A) (A) (A) (A) (A) (A) (A) (A) (A) (A)
                 (A) (A) (A) (A) (A) (A) (A) (A) (A) (A) (A) (A)
                 (A) (A) (A) (A) (A) (A) (A) (A) (A) (A) (A) (A)
                 (A) (A) (A) (A) (A) (A) (A) (A) (A) (A) (A) (A)
                 (A) (A) (A) (A) (A) (A) (A) (A) (A) (A) (A) (A)
                 (A) (A) (A) (A) (A) (A) (A) (A) (A) (A) (A) (A)
                 (A) (A) (A) (A) (A) (A) (A) (A) (A) (A) (A) (A)
                 (A) (A) (A) (A) (A) (A) (A) (A) (A) (A) (A) (A)
                 (A) (A) (A) (A) (A) (A) (A) (A) (A) (A) (A) (A)
                 (A) (A) (A) (A) (A) (A) (A) (A) (A) (A) (A) (A)
                 (A) (A) (A) (A) (A) (A) (A) (A) (A) (A) (A) (A)
                 (A) (A) (A) (A) (A) (A) (A) (A) (A) (A) (A) (A)
                 (A) (A) (A) (A) (A) (A) (A) (A) (A) (A) (A) (A)
                 (A) (A) (A) (A) (A) (A) (A) (A) (A) (A) (A) (A)
                 (A) (A) (A) (A) (A) (A) (A) (A) (A) (A) (A) (A)
                 (A) (A) (A) (A) (A) (A) (A) (A) (A) (A) (A) (A)
                 (A) (A) (A) (A) (A) (A) (A) (A) (A) (A) (A) (A)
                 (A) (A) (A) (A) (A) (A) (A) (A) (A) (A) (A) (A)
                 (A) (A) (A) (A) (A) (A) (A) (A) (A) (A) (A) (A)
                 (A) (A) (A) (A) (A) (A) (A) (A) (A) (A) (A) (A)
                 (A) (A) (A) (A) (A) (A) (A) (A) (A) (A) (A) (A)
                 (A) (A) (A) (A) (A) (A) (A) (A) (A) (A) (A) (A)
                 (A) (A) (A) (A) (A) (A) (A) (A) (A) (A) (A) (A)
                 (A) (A) (A) (A) (A) (A) (A) (A) (A) (A) (A) (A)
                 (A) (A) (A) (A) (A) (A) (A) (A) (A) (A) (A) (A)
                 (A) (A) (A) (A) (A) (A) (A) (A) (A) (A) (A) (A)
                 (A) (A) (A) (A) (A) (A) (A) (A) (A) (A) (A) (A)
                 (A) (A) (A) (A) (A) (A) (A) (A) (A) (A) (A) (A)
                 (A) (A) (A) (A) (A) (A) (A) (A) (A) (A) (A) (A)
                 (A) (A) (A) (A) (A) (A) (A) (A) (A) (A) (A) (A)
                 (A) (A) (A) (A) (A) (A) (A) (A) (A) (A) (A) (A)
                 (A) (A) (A) (A) (A) (A) (A) (A) (A) (A) (A) (A)
                 (A) (A) (A) (A) (A) (A) (A) (A) (A) (A) (A) (A)
                 (A) (A) (A) (A) (A) (A) (A) (A) (A) (A) (A) (A)
                 (A) (A) (A) (A) (A) (A) (A) (A) (A) (A) (A) (A)
                 (A) (A) (A) (A) (A) (A) (A) (A) (A) (A) (A) (A)
                 (A) (A) (A) (A) (A) (A)
 The electronic state is 1-A.
 Alpha  occ. eigenvalues --  -18.88685 -18.88321 -14.12023 -10.05161 -10.04878
 Alpha  occ. eigenvalues --  -10.03184 -10.02922 -10.02525  -9.99856  -9.99607
 Alpha  occ. eigenvalues --   -9.99522  -9.99461  -9.99363  -9.99203  -9.98964
 Alpha  occ. eigenvalues --   -9.98886  -9.98875  -9.98810  -9.98806  -9.98693
 Alpha  occ. eigenvalues --   -9.98692  -9.98677  -9.98625  -9.98619  -9.98485
 Alpha  occ. eigenvalues --   -9.98005  -9.97942  -1.08405  -1.08053  -0.99477
 Alpha  occ. eigenvalues --   -0.90062  -0.89196  -0.88444  -0.87025  -0.81369
 Alpha  occ. eigenvalues --   -0.79557  -0.79193  -0.78423  -0.78269  -0.77731
 Alpha  occ. eigenvalues --   -0.76882  -0.74134  -0.68601  -0.68104  -0.66701
 Alpha  occ. eigenvalues --   -0.65934  -0.65082  -0.64076  -0.63612  -0.62306
 Alpha  occ. eigenvalues --   -0.60316  -0.59612  -0.58647  -0.57139  -0.54762
 Alpha  occ. eigenvalues --   -0.53668  -0.53472  -0.52377  -0.51568  -0.51052
 Alpha  occ. eigenvalues --   -0.49684  -0.49197  -0.48822  -0.48332  -0.48062
 Alpha  occ. eigenvalues --   -0.47754  -0.47282  -0.46896  -0.46708  -0.46456
 Alpha  occ. eigenvalues --   -0.45942  -0.44575  -0.44024  -0.43700  -0.42714
 Alpha  occ. eigenvalues --   -0.42555  -0.41965  -0.40971  -0.40274  -0.40072
 Alpha  occ. eigenvalues --   -0.39573  -0.39376  -0.38846  -0.38361  -0.36292
 Alpha  occ. eigenvalues --   -0.33589  -0.32549  -0.31730  -0.31665  -0.30852
 Alpha  occ. eigenvalues --   -0.29430  -0.28568  -0.23887
 Alpha virt. eigenvalues --    0.01416   0.02404   0.03413   0.04040   0.04457
 Alpha virt. eigenvalues --    0.05338   0.05744   0.08176   0.08474   0.08674
 Alpha virt. eigenvalues --    0.10632   0.11209   0.11700   0.12196   0.12980
 Alpha virt. eigenvalues --    0.13716   0.14165   0.14505   0.15000   0.15557
 Alpha virt. eigenvalues --    0.16206   0.16657   0.16917   0.17450   0.17580
 Alpha virt. eigenvalues --    0.18169   0.18613   0.18808   0.19824   0.20270
 Alpha virt. eigenvalues --    0.20451   0.21100   0.21453   0.21734   0.22237
 Alpha virt. eigenvalues --    0.23532   0.24104   0.24958   0.25336   0.25975
 Alpha virt. eigenvalues --    0.26172   0.26591   0.26802   0.26984   0.27385
 Alpha virt. eigenvalues --    0.27725   0.28137   0.28392   0.28533   0.28948
 Alpha virt. eigenvalues --    0.29284   0.29554   0.29766   0.29901   0.30192
 Alpha virt. eigenvalues --    0.30285   0.30692   0.30986   0.32076   0.32342
 Alpha virt. eigenvalues --    0.32748   0.33242   0.33502   0.33709   0.33920
 Alpha virt. eigenvalues --    0.34396   0.34666   0.34938   0.35412   0.35884
 Alpha virt. eigenvalues --    0.36450   0.37035   0.37432   0.37763   0.38219
 Alpha virt. eigenvalues --    0.38720   0.39216   0.39423   0.39706   0.40030
 Alpha virt. eigenvalues --    0.40524   0.40993   0.41255   0.41453   0.41620
 Alpha virt. eigenvalues --    0.42084   0.42519   0.42965   0.43196   0.43355
 Alpha virt. eigenvalues --    0.43908   0.43989   0.44397   0.44568   0.44749
 Alpha virt. eigenvalues --    0.45234   0.45624   0.45770   0.46383   0.46942
 Alpha virt. eigenvalues --    0.47203   0.47699   0.47896   0.48014   0.48345
 Alpha virt. eigenvalues --    0.48749   0.48781   0.49110   0.49716   0.50263
 Alpha virt. eigenvalues --    0.50530   0.50641   0.51078   0.51103   0.51310
 Alpha virt. eigenvalues --    0.52323   0.52935   0.53329   0.53585   0.53705
 Alpha virt. eigenvalues --    0.54336   0.54690   0.55182   0.55444   0.55568
 Alpha virt. eigenvalues --    0.56238   0.56330   0.56498   0.57123   0.57773
 Alpha virt. eigenvalues --    0.57919   0.58877   0.59821   0.60062   0.60343
 Alpha virt. eigenvalues --    0.60450   0.61258   0.62010   0.62872   0.63341
 Alpha virt. eigenvalues --    0.63548   0.64191   0.64856   0.65230   0.65876
 Alpha virt. eigenvalues --    0.67848   0.68138   0.68630   0.69216   0.70419
 Alpha virt. eigenvalues --    0.71050   0.71310   0.71817   0.72449   0.73210
 Alpha virt. eigenvalues --    0.73252   0.73958   0.74993   0.75122   0.75263
 Alpha virt. eigenvalues --    0.75462   0.76074   0.76650   0.76676   0.77271
 Alpha virt. eigenvalues --    0.77856   0.78600   0.80128   0.80364   0.80902
 Alpha virt. eigenvalues --    0.81353   0.82526   0.83099   0.84459   0.84871
 Alpha virt. eigenvalues --    0.85950   0.87442   0.88007   0.88439   0.90260
 Alpha virt. eigenvalues --    0.91230   0.92437   0.92612   0.94745   0.95298
 Alpha virt. eigenvalues --    0.97162   0.98563   1.00657   1.15812   1.19669
 Alpha virt. eigenvalues --    1.20880   1.23905   1.25342   1.25586   1.26805
 Alpha virt. eigenvalues --    1.27172   1.27635   1.28099   1.28338   1.28484
 Alpha virt. eigenvalues --    1.28943   1.29115   1.29733   1.30084   1.30421
 Alpha virt. eigenvalues --    1.30894   1.31703   1.32299   1.32961   1.33118
 Alpha virt. eigenvalues --    1.33216   1.34146   1.34283   1.34780   1.35165
 Alpha virt. eigenvalues --    1.35509   1.35597   1.36019   1.36209   1.36694
 Alpha virt. eigenvalues --    1.37676   1.38427   1.38660   1.39213   1.39648
 Alpha virt. eigenvalues --    1.39964   1.42264   1.42524   1.44470   1.44969
 Alpha virt. eigenvalues --    1.45117   1.45586   1.45785   1.45854   1.46111
 Alpha virt. eigenvalues --    1.46629   1.47224   1.47764   1.47846   1.48024
 Alpha virt. eigenvalues --    1.48061   1.48276   1.48523   1.49142   1.49574
 Alpha virt. eigenvalues --    1.49750   1.50676   1.50798   1.50880   1.51194
 Alpha virt. eigenvalues --    1.51408   1.51859   1.52425   1.52807   1.53087
 Alpha virt. eigenvalues --    1.54220   1.54328   1.55066   1.55875   1.56020
 Alpha virt. eigenvalues --    1.56217   1.56528   1.56801   1.57132   1.57340
 Alpha virt. eigenvalues --    1.57567   1.58059   1.58334   1.58446   1.58736
 Alpha virt. eigenvalues --    1.59025   1.59718   1.60147   1.60735   1.61458
 Alpha virt. eigenvalues --    1.61726   1.62311   1.62655   1.63376   1.63701
 Alpha virt. eigenvalues --    1.65005   1.66266   1.67054   1.68402   1.69534
 Alpha virt. eigenvalues --    1.70388   1.70958   1.71059   1.71820   1.73032
 Alpha virt. eigenvalues --    1.75327   1.77033   1.78287   1.78619   1.79273
 Alpha virt. eigenvalues --    1.79698   1.80223   1.80492   1.80917   1.81440
 Alpha virt. eigenvalues --    1.81766   1.82201   1.82552   1.82874   1.83693
 Alpha virt. eigenvalues --    1.83805   1.83949   1.84957   1.85316   1.86202
 Alpha virt. eigenvalues --    1.86957   1.87355   1.89234   1.89808   1.90712
 Alpha virt. eigenvalues --    1.91048   1.91321   1.91675   1.92370   1.92650
 Alpha virt. eigenvalues --    1.92974   1.93313   1.93828   1.94013   1.94399
 Alpha virt. eigenvalues --    1.95116   1.95882   1.96186   1.96511   1.96599
 Alpha virt. eigenvalues --    1.96934   1.97427   1.98033   1.98438   1.99079
 Alpha virt. eigenvalues --    2.00628   2.00970   2.01962   2.02376   2.02854
 Alpha virt. eigenvalues --    2.03088   2.04025   2.04253   2.04794   2.05295
 Alpha virt. eigenvalues --    2.06576   2.08031   2.08346   2.10088   2.11806
 Alpha virt. eigenvalues --    2.12955   2.13864   2.15036   2.16204   2.19621
 Alpha virt. eigenvalues --    2.21359   2.22142   2.23468   2.24007   2.25273
 Alpha virt. eigenvalues --    2.26537   2.27534   2.27919   2.29076   2.29419
 Alpha virt. eigenvalues --    2.30693   2.31811   2.31900   2.32369   2.33058
 Alpha virt. eigenvalues --    2.33648   2.33955   2.34252   2.34680   2.34755
 Alpha virt. eigenvalues --    2.35494   2.35642   2.36452   2.36713   2.37084
 Alpha virt. eigenvalues --    2.37294   2.37684   2.38536   2.38947   2.39527
 Alpha virt. eigenvalues --    2.39746   2.39809   2.40315   2.41064   2.41221
 Alpha virt. eigenvalues --    2.41625   2.42324   2.43318   2.47847   2.48906
 Alpha virt. eigenvalues --    2.50113   2.51077   2.52160   2.52340   2.53129
 Alpha virt. eigenvalues --    2.54286   2.54770   2.55616   2.56666   2.58460
 Alpha virt. eigenvalues --    2.58630   2.58798   2.60527   2.62138   2.62623
 Alpha virt. eigenvalues --    2.62969   2.63325   2.63867   2.65101   2.65861
 Alpha virt. eigenvalues --    2.66389   2.67005   2.67196   2.67531   2.68251
 Alpha virt. eigenvalues --    2.68938   2.70050   2.70533   2.71493   2.72145
 Alpha virt. eigenvalues --    2.72910   2.74302   2.75182   2.76659   2.78177
 Alpha virt. eigenvalues --    2.79191   2.80457   2.80658   2.81420   2.83255
 Alpha virt. eigenvalues --    2.83559   2.84470   2.85648   2.87340   2.88142
 Alpha virt. eigenvalues --    2.89896   2.90482   2.94401   2.94933   2.95891
 Alpha virt. eigenvalues --    2.96855   2.98222   2.99185   3.00258   3.00547
 Alpha virt. eigenvalues --    3.00856   3.01940   3.03342   3.04437   3.05185
 Alpha virt. eigenvalues --    3.05501   3.05984   3.06363   3.07081   3.08946
 Alpha virt. eigenvalues --    3.10169   3.10735   3.12126   3.12259   3.13696
 Alpha virt. eigenvalues --    3.14844   3.15559   3.16495   3.17927   3.18508
 Alpha virt. eigenvalues --    3.18685   3.20099   3.21098   3.21508   3.22441
 Alpha virt. eigenvalues --    3.23003   3.24597   3.25185   3.26164   3.27730
 Alpha virt. eigenvalues --    3.28736   3.30491   3.30968   3.31677   3.33723
 Alpha virt. eigenvalues --    3.35831   3.37852   3.38548   3.41042   3.41757
 Alpha virt. eigenvalues --    3.42225   3.42851   3.48276   3.55353   3.56278
 Alpha virt. eigenvalues --    3.57471   3.58971   3.59586   3.60243   3.73143
 Alpha virt. eigenvalues --    3.81473   3.85134   3.92324   4.07503   4.08322
 Alpha virt. eigenvalues --    4.32230   4.32808  21.08886  21.24285  21.26617
 Alpha virt. eigenvalues --   21.33444  21.62936  21.68821  21.70738  21.73873
 Alpha virt. eigenvalues --   21.75709  21.76860  21.82971  21.86106  21.91778
 Alpha virt. eigenvalues --   21.94403  21.96541  21.97182  21.98960  22.00306
 Alpha virt. eigenvalues --   22.03446  22.04818  22.08800  22.10342  22.15210
 Alpha virt. eigenvalues --   22.18501  32.05701  43.23824  43.25627
          Condensed to atoms (all electrons):
               1          2          3          4          5          6
     1  C    5.025771   0.448306   0.371071   0.001273   0.008565  -0.117539
     2  C    0.448306   5.011510  -0.012581   0.447223  -0.088544  -0.011132
     3  C    0.371071  -0.012581   5.219704  -0.116234   0.399173  -0.032594
     4  C    0.001273   0.447223  -0.116234   5.028338   0.010061   0.367925
     5  C    0.008565  -0.088544   0.399173   0.010061   5.443502   0.397270
     6  C   -0.117539  -0.011132  -0.032594   0.367925   0.397270   5.219019
     7  H   -0.063605   0.421869   0.019902  -0.063666  -0.004882   0.019915
     8  H   -0.040731   0.012196   0.405889  -0.002037  -0.056248   0.016876
     9  H    0.015131  -0.062891  -0.000888   0.416576   0.016571  -0.056299
    10  H   -0.002113   0.012266   0.017110  -0.041040  -0.055774   0.405681
    11  C    0.022330   0.006288  -0.097924   0.020126   0.160362  -0.092295
    12  C   -0.000525   0.000069   0.027375   0.002450  -0.133394  -0.014709
    13  C    0.001670   0.000049  -0.016019   0.000017  -0.138362   0.027061
    14  C    0.000327  -0.000026  -0.001344  -0.000415   0.040405   0.001462
    15  C   -0.000170  -0.000029   0.002332   0.000279   0.043623  -0.001366
    16  C   -0.000076   0.000011   0.000019  -0.000034  -0.012486   0.000649
    17  H   -0.000083   0.000074  -0.000357   0.000571  -0.020974   0.004679
    18  H    0.000329   0.000068   0.004403  -0.000027  -0.020868  -0.000356
    19  H   -0.000001   0.000000   0.000011  -0.000006  -0.001085  -0.000042
    20  H   -0.000003   0.000000  -0.000014  -0.000001  -0.000869   0.000007
    21  H    0.416373  -0.062858  -0.055943   0.015138   0.016514  -0.000928
    22  N   -0.000000   0.000000   0.000009  -0.000000  -0.000263   0.000006
    23  C   -0.000001   0.000000  -0.000015   0.000000  -0.000075   0.000010
    24  C    0.000000   0.000000  -0.000000  -0.000000  -0.000000   0.000000
    25  C   -0.000000   0.000000   0.000007   0.000000  -0.000002  -0.000015
    26  C    0.000000  -0.000000   0.000000   0.000000   0.000000  -0.000000
    27  C    0.000000  -0.000000   0.000000   0.000000   0.000002  -0.000001
    28  C    0.000000  -0.000000   0.000000  -0.000000   0.000000   0.000000
    29  H   -0.000000   0.000000   0.000000   0.000000  -0.000000   0.000000
    30  H   -0.000000   0.000000   0.000000   0.000000  -0.000056   0.000005
    31  H   -0.000000   0.000000   0.000000  -0.000000  -0.000000  -0.000000
    32  H    0.000000  -0.000000   0.000000  -0.000000  -0.000000   0.000000
    33  C    0.000000   0.000000   0.000003  -0.000001  -0.000120  -0.000011
    34  C   -0.000000   0.000000   0.000000   0.000000  -0.000000  -0.000000
    35  C    0.000000   0.000000  -0.000010  -0.000000  -0.000053   0.000007
    36  C   -0.000000  -0.000000  -0.000000   0.000000   0.000001   0.000000
    37  C    0.000000  -0.000000  -0.000000   0.000000   0.000006   0.000000
    38  C    0.000000   0.000000   0.000000   0.000000  -0.000001   0.000000
    39  H    0.000000   0.000000   0.000000  -0.000000  -0.000000   0.000000
    40  H    0.000000   0.000000   0.000005  -0.000000  -0.000083   0.000001
    41  H   -0.000000   0.000000  -0.000000  -0.000000  -0.000000  -0.000000
    42  H   -0.000000   0.000000  -0.000000   0.000000  -0.000000   0.000000
    43  O    0.000000   0.000000  -0.000000  -0.000000   0.000000  -0.000000
    44  H   -0.000000   0.000000  -0.000000  -0.000000  -0.000000  -0.000000
    45  O   -0.000000  -0.000000  -0.000000  -0.000000   0.000000  -0.000000
    46  H   -0.000000   0.000000  -0.000000  -0.000000  -0.000000   0.000000
               7          8          9         10         11         12
     1  C   -0.063605  -0.040731   0.015131  -0.002113   0.022330  -0.000525
     2  C    0.421869   0.012196  -0.062891   0.012266   0.006288   0.000069
     3  C    0.019902   0.405889  -0.000888   0.017110  -0.097924   0.027375
     4  C   -0.063666  -0.002037   0.416576  -0.041040   0.020126   0.002450
     5  C   -0.004882  -0.056248   0.016571  -0.055774   0.160362  -0.133394
     6  C    0.019915   0.016876  -0.056299   0.405681  -0.092295  -0.014709
     7  H    0.584863  -0.000231  -0.008819  -0.000231  -0.000185  -0.000007
     8  H   -0.000231   0.557758   0.000042  -0.000181  -0.020850  -0.000199
     9  H   -0.008819   0.000042   0.588844  -0.007334  -0.001620  -0.000019
    10  H   -0.000231  -0.000181  -0.007334   0.558018  -0.020547   0.006154
    11  C   -0.000185  -0.020850  -0.001620  -0.020547   5.529959   0.341061
    12  C   -0.000007  -0.000199  -0.000019   0.006154   0.341061   5.453575
    13  C   -0.000007   0.006115   0.000018  -0.000326   0.369081   0.005148
    14  C    0.000000  -0.000199  -0.000012   0.000603   0.014573   0.177488
    15  C    0.000000   0.000927  -0.000002  -0.000152  -0.002277  -0.148052
    16  C   -0.000000   0.000042   0.000000   0.000055  -0.142943   0.053686
    17  H   -0.000003  -0.000027   0.000008   0.001477  -0.076664   0.408473
    18  H   -0.000003   0.001523   0.000000  -0.000032  -0.076466   0.018389
    19  H    0.000000   0.000001  -0.000000   0.000003   0.014470  -0.050561
    20  H    0.000000   0.000006   0.000000   0.000001   0.014022  -0.000016
    21  H   -0.008812  -0.007311  -0.000259   0.000042  -0.001610   0.000018
    22  N   -0.000000  -0.000002  -0.000000  -0.000001   0.004016   0.020925
    23  C   -0.000000  -0.000000  -0.000000   0.000000  -0.000636   0.001026
    24  C    0.000000  -0.000000  -0.000000   0.000000   0.000035  -0.000255
    25  C    0.000000   0.000000   0.000000  -0.000002  -0.000052   0.001430
    26  C    0.000000  -0.000000  -0.000000  -0.000000   0.000017  -0.000084
    27  C    0.000000   0.000000   0.000000  -0.000000  -0.000086   0.000055
    28  C   -0.000000   0.000000   0.000000   0.000000   0.000013  -0.000005
    29  H   -0.000000   0.000000  -0.000000   0.000000  -0.000000   0.000017
    30  H    0.000000   0.000000  -0.000000   0.000001   0.000138   0.000902
    31  H   -0.000000  -0.000000  -0.000000  -0.000000  -0.000007   0.000004
    32  H   -0.000000   0.000000   0.000000   0.000000  -0.000000   0.000000
    33  C   -0.000000  -0.000001  -0.000000  -0.000001   0.001923  -0.009644
    34  C    0.000000   0.000000  -0.000000  -0.000000   0.000141   0.001793
    35  C    0.000000  -0.000002  -0.000000   0.000001  -0.002093  -0.006532
    36  C   -0.000000  -0.000000   0.000000  -0.000000   0.000065   0.000027
    37  C    0.000000  -0.000000   0.000000   0.000000  -0.000065  -0.000516
    38  C   -0.000000   0.000000  -0.000000   0.000000  -0.000021  -0.000093
    39  H   -0.000000   0.000000  -0.000000   0.000000  -0.000008  -0.000042
    40  H   -0.000000   0.000002  -0.000000   0.000000   0.000143  -0.002257
    41  H   -0.000000  -0.000000  -0.000000  -0.000000  -0.000000  -0.000003
    42  H   -0.000000  -0.000000  -0.000000   0.000000   0.000002   0.000009
    43  O    0.000000   0.000000   0.000000  -0.000000   0.000000   0.000000
    44  H    0.000000  -0.000000  -0.000000  -0.000000  -0.000000   0.000000
    45  O    0.000000  -0.000000   0.000000  -0.000000  -0.000000   0.000000
    46  H    0.000000  -0.000000  -0.000000   0.000000   0.000000  -0.000000
              13         14         15         16         17         18
     1  C    0.001670   0.000327  -0.000170  -0.000076  -0.000083   0.000329
     2  C    0.000049  -0.000026  -0.000029   0.000011   0.000074   0.000068
     3  C   -0.016019  -0.001344   0.002332   0.000019  -0.000357   0.004403
     4  C    0.000017  -0.000415   0.000279  -0.000034   0.000571  -0.000027
     5  C   -0.138362   0.040405   0.043623  -0.012486  -0.020974  -0.020868
     6  C    0.027061   0.001462  -0.001366   0.000649   0.004679  -0.000356
     7  H   -0.000007   0.000000   0.000000  -0.000000  -0.000003  -0.000003
     8  H    0.006115  -0.000199   0.000927   0.000042  -0.000027   0.001523
     9  H    0.000018  -0.000012  -0.000002   0.000000   0.000008   0.000000
    10  H   -0.000326   0.000603  -0.000152   0.000055   0.001477  -0.000032
    11  C    0.369081   0.014573  -0.002277  -0.142943  -0.076664  -0.076466
    12  C    0.005148   0.177488  -0.148052   0.053686   0.408473   0.018389
    13  C    5.408193  -0.151352   0.212430   0.029741   0.018537   0.408990
    14  C   -0.151352   5.437626  -0.070531   0.298046  -0.031595  -0.002143
    15  C    0.212430  -0.070531   5.442233   0.323882  -0.002227  -0.031898
    16  C    0.029741   0.298046   0.323882   5.515669   0.019036   0.018439
    17  H    0.018537  -0.031595  -0.002227   0.019036   0.564986  -0.000124
    18  H    0.408990  -0.002143  -0.031898   0.018439  -0.000124   0.566772
    19  H    0.000378   0.407988   0.011165  -0.049585  -0.007235   0.000019
    20  H   -0.036722   0.010908   0.403914  -0.052835   0.000009  -0.007163
    21  H   -0.000017  -0.000002  -0.000011   0.000000   0.000000   0.000007
    22  N    0.020812  -0.021726  -0.012032   0.169942  -0.000501  -0.000572
    23  C    0.001208  -0.014922   0.009971  -0.073812   0.000081   0.000075
    24  C    0.001569  -0.012990   0.023890  -0.008595   0.000002  -0.000016
    25  C   -0.010371   0.026643  -0.060822   0.020205  -0.000043  -0.000185
    26  C    0.000040  -0.000274   0.002208  -0.002389   0.000000  -0.000001
    27  C   -0.001054   0.000976  -0.008729   0.001134  -0.000001   0.000002
    28  C   -0.000188   0.000327  -0.001012   0.003641  -0.000000  -0.000003
    29  H   -0.000030  -0.000153   0.000040  -0.001072  -0.000000  -0.000000
    30  H   -0.002064  -0.000474   0.001459   0.001669   0.000006   0.000004
    31  H    0.000025  -0.000032  -0.000144  -0.000110   0.000000  -0.000000
    32  H   -0.000001   0.000001  -0.000013   0.000021  -0.000000   0.000000
    33  C   -0.003008   0.042167  -0.008201  -0.102967  -0.000071   0.000054
    34  C   -0.000623   0.012695  -0.011369  -0.019513  -0.000060  -0.000001
    35  C    0.005006  -0.054186   0.012774   0.030452   0.000033  -0.000016
    36  C   -0.000121   0.002567   0.000312  -0.001446  -0.000006   0.000000
    37  C    0.000168  -0.005036   0.001358   0.000440   0.000031  -0.000002
    38  C    0.000028  -0.002045  -0.000011   0.001935  -0.000003   0.000000
    39  H    0.000029   0.000805  -0.000468  -0.001546  -0.000001   0.000000
    40  H    0.001016   0.002390  -0.002101  -0.001533  -0.000029   0.000005
    41  H    0.000000  -0.000042   0.000002  -0.000022   0.000000  -0.000000
    42  H   -0.000003   0.000145  -0.000025  -0.000225  -0.000000  -0.000000
    43  O   -0.000000   0.000010   0.000000  -0.000009  -0.000000  -0.000000
    44  H    0.000000  -0.000000   0.000000  -0.000001   0.000000   0.000000
    45  O    0.000001  -0.000001   0.000018  -0.000005  -0.000000  -0.000000
    46  H    0.000000  -0.000000   0.000003  -0.000008   0.000000  -0.000000
              19         20         21         22         23         24
     1  C   -0.000001  -0.000003   0.416373  -0.000000  -0.000001   0.000000
     2  C    0.000000   0.000000  -0.062858   0.000000   0.000000   0.000000
     3  C    0.000011  -0.000014  -0.055943   0.000009  -0.000015  -0.000000
     4  C   -0.000006  -0.000001   0.015138  -0.000000   0.000000  -0.000000
     5  C   -0.001085  -0.000869   0.016514  -0.000263  -0.000075  -0.000000
     6  C   -0.000042   0.000007  -0.000928   0.000006   0.000010   0.000000
     7  H    0.000000   0.000000  -0.008812  -0.000000  -0.000000   0.000000
     8  H    0.000001   0.000006  -0.007311  -0.000002  -0.000000  -0.000000
     9  H   -0.000000   0.000000  -0.000259  -0.000000  -0.000000  -0.000000
    10  H    0.000003   0.000001   0.000042  -0.000001   0.000000   0.000000
    11  C    0.014470   0.014022  -0.001610   0.004016  -0.000636   0.000035
    12  C   -0.050561  -0.000016   0.000018   0.020925   0.001026  -0.000255
    13  C    0.000378  -0.036722  -0.000017   0.020812   0.001208   0.001569
    14  C    0.407988   0.010908  -0.000002  -0.021726  -0.014922  -0.012990
    15  C    0.011165   0.403914  -0.000011  -0.012032   0.009971   0.023890
    16  C   -0.049585  -0.052835   0.000000   0.169942  -0.073812  -0.008595
    17  H   -0.007235   0.000009   0.000000  -0.000501   0.000081   0.000002
    18  H    0.000019  -0.007163   0.000007  -0.000572   0.000075  -0.000016
    19  H    0.539236  -0.000260   0.000000  -0.009889  -0.001893  -0.000248
    20  H   -0.000260   0.521134  -0.000000  -0.004010  -0.000084  -0.000517
    21  H    0.000000  -0.000000   0.588559  -0.000000  -0.000000   0.000000
    22  N   -0.009889  -0.004010  -0.000000   6.576928   0.193279  -0.048092
    23  C   -0.001893  -0.000084  -0.000000   0.193279   5.350059   0.250797
    24  C   -0.000248  -0.000517   0.000000  -0.048092   0.250797   6.108481
    25  C    0.000302   0.001563  -0.000000  -0.003421   0.379730  -0.205829
    26  C    0.000024   0.000573  -0.000000   0.027040   0.055225   0.088653
    27  C   -0.000009  -0.001790  -0.000000   0.011224  -0.033613   0.046706
    28  C    0.000002   0.000846   0.000000   0.006717  -0.036709  -0.374993
    29  H   -0.000013   0.000016  -0.000000  -0.014681  -0.024727   0.382158
    30  H   -0.000035   0.000862   0.000000  -0.006312  -0.038947   0.010158
    31  H   -0.000001  -0.000050  -0.000000  -0.000663   0.015097   0.001932
    32  H    0.000000   0.000002   0.000000  -0.000043  -0.003136   0.020770
    33  C    0.008967  -0.001724  -0.000000   0.086054  -0.089683   0.070668
    34  C   -0.004881  -0.000424  -0.000000  -0.019277   0.034103  -0.086684
    35  C    0.003674   0.000840   0.000000  -0.007228  -0.020684   0.014738
    36  C    0.002460   0.000027   0.000000   0.030663  -0.006689  -0.001674
    37  C   -0.002334   0.000013   0.000000   0.017747  -0.002030   0.002374
    38  C    0.000348  -0.000004  -0.000000   0.003548   0.001746  -0.002802
    39  H    0.000213  -0.000007  -0.000000  -0.007071  -0.002171   0.004613
    40  H    0.001109   0.000026  -0.000000  -0.008642  -0.001295   0.000369
    41  H    0.000018  -0.000000  -0.000000  -0.000788  -0.000035   0.000113
    42  H   -0.000009   0.000000  -0.000000  -0.000595  -0.000001  -0.000033
    43  O   -0.000009  -0.000000   0.000000  -0.000007   0.000009   0.000004
    44  H   -0.000002  -0.000000  -0.000000  -0.000004  -0.000000  -0.000002
    45  O   -0.000000  -0.000002   0.000000  -0.000024   0.011469  -0.102839
    46  H    0.000000  -0.000000  -0.000000   0.000019  -0.003243   0.024489
              25         26         27         28         29         30
     1  C   -0.000000   0.000000   0.000000   0.000000  -0.000000  -0.000000
     2  C    0.000000  -0.000000  -0.000000  -0.000000   0.000000   0.000000
     3  C    0.000007   0.000000   0.000000   0.000000   0.000000   0.000000
     4  C    0.000000   0.000000   0.000000  -0.000000   0.000000   0.000000
     5  C   -0.000002   0.000000   0.000002   0.000000  -0.000000  -0.000056
     6  C   -0.000015  -0.000000  -0.000001   0.000000   0.000000   0.000005
     7  H    0.000000   0.000000   0.000000  -0.000000  -0.000000   0.000000
     8  H    0.000000  -0.000000   0.000000   0.000000   0.000000   0.000000
     9  H    0.000000  -0.000000   0.000000   0.000000  -0.000000  -0.000000
    10  H   -0.000002  -0.000000  -0.000000   0.000000   0.000000   0.000001
    11  C   -0.000052   0.000017  -0.000086   0.000013  -0.000000   0.000138
    12  C    0.001430  -0.000084   0.000055  -0.000005   0.000017   0.000902
    13  C   -0.010371   0.000040  -0.001054  -0.000188  -0.000030  -0.002064
    14  C    0.026643  -0.000274   0.000976   0.000327  -0.000153  -0.000474
    15  C   -0.060822   0.002208  -0.008729  -0.001012   0.000040   0.001459
    16  C    0.020205  -0.002389   0.001134   0.003641  -0.001072   0.001669
    17  H   -0.000043   0.000000  -0.000001  -0.000000  -0.000000   0.000006
    18  H   -0.000185  -0.000001   0.000002  -0.000003  -0.000000   0.000004
    19  H    0.000302   0.000024  -0.000009   0.000002  -0.000013  -0.000035
    20  H    0.001563   0.000573  -0.001790   0.000846   0.000016   0.000862
    21  H   -0.000000  -0.000000  -0.000000   0.000000  -0.000000   0.000000
    22  N   -0.003421   0.027040   0.011224   0.006717  -0.014681  -0.006312
    23  C    0.379730   0.055225  -0.033613  -0.036709  -0.024727  -0.038947
    24  C   -0.205829   0.088653   0.046706  -0.374993   0.382158   0.010158
    25  C    5.340375  -0.092097   0.371322   0.035563   0.014450   0.392597
    26  C   -0.092097   5.223831   0.065362   0.316751  -0.050269   0.000082
    27  C    0.371322   0.065362   5.133236   0.155297  -0.003376  -0.034661
    28  C    0.035563   0.316751   0.155297   5.846027   0.015897   0.012089
    29  H    0.014450  -0.050269  -0.003376   0.015897   0.514527  -0.000215
    30  H    0.392597   0.000082  -0.034661   0.012089  -0.000215   0.515792
    31  H   -0.049603   0.014275   0.409315  -0.063660   0.000027  -0.007426
    32  H    0.017365  -0.077278  -0.017660   0.385145  -0.000220  -0.000237
    33  C   -0.006481  -0.018143  -0.002597  -0.000070   0.009276  -0.001329
    34  C    0.020623  -0.006903   0.001414   0.001393   0.006728   0.000571
    35  C   -0.010203   0.001745  -0.000063  -0.000163  -0.005203  -0.000395
    36  C    0.001340   0.000862   0.000027   0.000077  -0.003534  -0.000009
    37  C    0.000070   0.000117  -0.000077   0.000040   0.001611   0.000021
    38  C   -0.000004  -0.000229   0.000028  -0.000019   0.000313  -0.000005
    39  H   -0.000470  -0.003881   0.000814  -0.000133   0.000885   0.000006
    40  H   -0.000321  -0.000084   0.000028  -0.000014   0.000091  -0.000011
    41  H   -0.000033   0.000011  -0.000002  -0.000000  -0.000005   0.000000
    42  H    0.000003  -0.000003  -0.000000   0.000000   0.000023   0.000000
    43  O    0.000000   0.000000  -0.000000   0.000000  -0.000007   0.000000
    44  H   -0.000000   0.000000   0.000000  -0.000000   0.000001  -0.000000
    45  O   -0.001704   0.419640   0.016877  -0.111861   0.003120   0.000005
    46  H   -0.000306  -0.030903   0.006696  -0.038232  -0.000696  -0.000002
              31         32         33         34         35         36
     1  C   -0.000000   0.000000   0.000000  -0.000000   0.000000  -0.000000
     2  C    0.000000  -0.000000   0.000000   0.000000   0.000000  -0.000000
     3  C    0.000000   0.000000   0.000003   0.000000  -0.000010  -0.000000
     4  C   -0.000000  -0.000000  -0.000001   0.000000  -0.000000   0.000000
     5  C   -0.000000  -0.000000  -0.000120  -0.000000  -0.000053   0.000001
     6  C   -0.000000   0.000000  -0.000011  -0.000000   0.000007   0.000000
     7  H   -0.000000  -0.000000  -0.000000   0.000000   0.000000  -0.000000
     8  H   -0.000000   0.000000  -0.000001   0.000000  -0.000002  -0.000000
     9  H   -0.000000   0.000000  -0.000000  -0.000000  -0.000000   0.000000
    10  H   -0.000000   0.000000  -0.000001  -0.000000   0.000001  -0.000000
    11  C   -0.000007  -0.000000   0.001923   0.000141  -0.002093   0.000065
    12  C    0.000004   0.000000  -0.009644   0.001793  -0.006532   0.000027
    13  C    0.000025  -0.000001  -0.003008  -0.000623   0.005006  -0.000121
    14  C   -0.000032   0.000001   0.042167   0.012695  -0.054186   0.002567
    15  C   -0.000144  -0.000013  -0.008201  -0.011369   0.012774   0.000312
    16  C   -0.000110   0.000021  -0.102967  -0.019513   0.030452  -0.001446
    17  H    0.000000  -0.000000  -0.000071  -0.000060   0.000033  -0.000006
    18  H   -0.000000   0.000000   0.000054  -0.000001  -0.000016   0.000000
    19  H   -0.000001   0.000000   0.008967  -0.004881   0.003674   0.002460
    20  H   -0.000050   0.000002  -0.001724  -0.000424   0.000840   0.000027
    21  H   -0.000000   0.000000  -0.000000  -0.000000   0.000000   0.000000
    22  N   -0.000663  -0.000043   0.086054  -0.019277  -0.007228   0.030663
    23  C    0.015097  -0.003136  -0.089683   0.034103  -0.020684  -0.006689
    24  C    0.001932   0.020770   0.070668  -0.086684   0.014738  -0.001674
    25  C   -0.049603   0.017365  -0.006481   0.020623  -0.010203   0.001340
    26  C    0.014275  -0.077278  -0.018143  -0.006903   0.001745   0.000862
    27  C    0.409315  -0.017660  -0.002597   0.001414  -0.000063   0.000027
    28  C   -0.063660   0.385145  -0.000070   0.001393  -0.000163   0.000077
    29  H    0.000027  -0.000220   0.009276   0.006728  -0.005203  -0.003534
    30  H   -0.007426  -0.000237  -0.001329   0.000571  -0.000395  -0.000009
    31  H    0.588349  -0.007675   0.000052  -0.000027  -0.000001  -0.000001
    32  H   -0.007675   0.586964   0.000028  -0.000010   0.000001  -0.000001
    33  C    0.000052   0.000028   5.726058   0.249735   0.332471   0.122358
    34  C   -0.000027  -0.000010   0.249735   5.614420  -0.118016  -0.216586
    35  C   -0.000001   0.000001   0.332471  -0.118016   5.181528  -0.079968
    36  C   -0.000001  -0.000001   0.122358  -0.216586  -0.079968   6.197707
    37  C    0.000000  -0.000000   0.038296  -0.030479   0.305106  -0.159325
    38  C    0.000000   0.000000  -0.171939   0.143316   0.013266   0.110029
    39  H    0.000002   0.000003  -0.034764   0.403540   0.013220  -0.050880
    40  H   -0.000000   0.000000  -0.055754   0.019578   0.437819  -0.004969
    41  H    0.000000  -0.000000   0.013716   0.011680   0.003646   0.377318
    42  H   -0.000000  -0.000000   0.019876  -0.003834  -0.047587   0.018496
    43  O   -0.000000   0.000000  -0.001497   0.021324   0.005417  -0.114924
    44  H    0.000000  -0.000000  -0.000846   0.008330  -0.001603  -0.042741
    45  O   -0.000106  -0.005638  -0.000433   0.000585  -0.000013   0.000008
    46  H   -0.000029   0.002846  -0.000002  -0.000034   0.000003  -0.000001
              37         38         39         40         41         42
     1  C    0.000000   0.000000   0.000000   0.000000  -0.000000  -0.000000
     2  C   -0.000000   0.000000   0.000000   0.000000   0.000000   0.000000
     3  C   -0.000000   0.000000   0.000000   0.000005  -0.000000  -0.000000
     4  C    0.000000   0.000000  -0.000000  -0.000000  -0.000000   0.000000
     5  C    0.000006  -0.000001  -0.000000  -0.000083  -0.000000  -0.000000
     6  C    0.000000   0.000000   0.000000   0.000001  -0.000000   0.000000
     7  H    0.000000  -0.000000  -0.000000  -0.000000  -0.000000  -0.000000
     8  H   -0.000000   0.000000   0.000000   0.000002  -0.000000  -0.000000
     9  H    0.000000  -0.000000  -0.000000  -0.000000  -0.000000  -0.000000
    10  H    0.000000   0.000000   0.000000   0.000000  -0.000000   0.000000
    11  C   -0.000065  -0.000021  -0.000008   0.000143  -0.000000   0.000002
    12  C   -0.000516  -0.000093  -0.000042  -0.002257  -0.000003   0.000009
    13  C    0.000168   0.000028   0.000029   0.001016   0.000000  -0.000003
    14  C   -0.005036  -0.002045   0.000805   0.002390  -0.000042   0.000145
    15  C    0.001358  -0.000011  -0.000468  -0.002101   0.000002  -0.000025
    16  C    0.000440   0.001935  -0.001546  -0.001533  -0.000022  -0.000225
    17  H    0.000031  -0.000003  -0.000001  -0.000029   0.000000  -0.000000
    18  H   -0.000002   0.000000   0.000000   0.000005  -0.000000  -0.000000
    19  H   -0.002334   0.000348   0.000213   0.001109   0.000018  -0.000009
    20  H    0.000013  -0.000004  -0.000007   0.000026  -0.000000   0.000000
    21  H    0.000000  -0.000000  -0.000000  -0.000000  -0.000000  -0.000000
    22  N    0.017747   0.003548  -0.007071  -0.008642  -0.000788  -0.000595
    23  C   -0.002030   0.001746  -0.002171  -0.001295  -0.000035  -0.000001
    24  C    0.002374  -0.002802   0.004613   0.000369   0.000113  -0.000033
    25  C    0.000070  -0.000004  -0.000470  -0.000321  -0.000033   0.000003
    26  C    0.000117  -0.000229  -0.003881  -0.000084   0.000011  -0.000003
    27  C   -0.000077   0.000028   0.000814   0.000028  -0.000002  -0.000000
    28  C    0.000040  -0.000019  -0.000133  -0.000014  -0.000000   0.000000
    29  H    0.001611   0.000313   0.000885   0.000091  -0.000005   0.000023
    30  H    0.000021  -0.000005   0.000006  -0.000011   0.000000   0.000000
    31  H    0.000000   0.000000   0.000002  -0.000000   0.000000  -0.000000
    32  H   -0.000000   0.000000   0.000003   0.000000  -0.000000  -0.000000
    33  C    0.038296  -0.171939  -0.034764  -0.055754   0.013716   0.019876
    34  C   -0.030479   0.143316   0.403540   0.019578   0.011680  -0.003834
    35  C    0.305106   0.013266   0.013220   0.437819   0.003646  -0.047587
    36  C   -0.159325   0.110029  -0.050880  -0.004969   0.377318   0.018496
    37  C    5.375621   0.381757  -0.000853  -0.078187   0.005300   0.421032
    38  C    0.381757   5.143060   0.011687   0.021026  -0.086972  -0.080027
    39  H   -0.000853   0.011687   0.538986  -0.000230  -0.006626   0.000030
    40  H   -0.078187   0.021026  -0.000230   0.549573   0.000031  -0.009272
    41  H    0.005300  -0.086972  -0.006626   0.000031   0.580634  -0.000301
    42  H    0.421032  -0.080027   0.000030  -0.009272  -0.000301   0.563016
    43  O   -0.078889   0.406214  -0.000070  -0.000115  -0.006268   0.002473
    44  H    0.018895  -0.024006  -0.000043   0.000034   0.001706  -0.000746
    45  O   -0.000001   0.000009   0.000011  -0.000001  -0.000002   0.000000
    46  H   -0.000000   0.000000  -0.000000  -0.000000   0.000000  -0.000000
              43         44         45         46
     1  C    0.000000  -0.000000  -0.000000  -0.000000
     2  C    0.000000   0.000000  -0.000000   0.000000
     3  C   -0.000000  -0.000000  -0.000000  -0.000000
     4  C   -0.000000  -0.000000  -0.000000  -0.000000
     5  C    0.000000  -0.000000   0.000000  -0.000000
     6  C   -0.000000  -0.000000  -0.000000   0.000000
     7  H    0.000000   0.000000   0.000000   0.000000
     8  H    0.000000  -0.000000  -0.000000  -0.000000
     9  H    0.000000  -0.000000   0.000000  -0.000000
    10  H   -0.000000  -0.000000  -0.000000   0.000000
    11  C    0.000000  -0.000000  -0.000000   0.000000
    12  C    0.000000   0.000000   0.000000  -0.000000
    13  C   -0.000000   0.000000   0.000001   0.000000
    14  C    0.000010  -0.000000  -0.000001  -0.000000
    15  C    0.000000   0.000000   0.000018   0.000003
    16  C   -0.000009  -0.000001  -0.000005  -0.000008
    17  H   -0.000000   0.000000  -0.000000   0.000000
    18  H   -0.000000   0.000000  -0.000000  -0.000000
    19  H   -0.000009  -0.000002  -0.000000   0.000000
    20  H   -0.000000  -0.000000  -0.000002  -0.000000
    21  H    0.000000  -0.000000   0.000000  -0.000000
    22  N   -0.000007  -0.000004  -0.000024   0.000019
    23  C    0.000009  -0.000000   0.011469  -0.003243
    24  C    0.000004  -0.000002  -0.102839   0.024489
    25  C    0.000000  -0.000000  -0.001704  -0.000306
    26  C    0.000000   0.000000   0.419640  -0.030903
    27  C   -0.000000   0.000000   0.016877   0.006696
    28  C    0.000000  -0.000000  -0.111861  -0.038232
    29  H   -0.000007   0.000001   0.003120  -0.000696
    30  H    0.000000  -0.000000   0.000005  -0.000002
    31  H   -0.000000   0.000000  -0.000106  -0.000029
    32  H    0.000000  -0.000000  -0.005638   0.002846
    33  C   -0.001497  -0.000846  -0.000433  -0.000002
    34  C    0.021324   0.008330   0.000585  -0.000034
    35  C    0.005417  -0.001603  -0.000013   0.000003
    36  C   -0.114924  -0.042741   0.000008  -0.000001
    37  C   -0.078889   0.018895  -0.000001  -0.000000
    38  C    0.406214  -0.024006   0.000009   0.000000
    39  H   -0.000070  -0.000043   0.000011  -0.000000
    40  H   -0.000115   0.000034  -0.000001  -0.000000
    41  H   -0.006268   0.001706  -0.000002   0.000000
    42  H    0.002473  -0.000746   0.000000  -0.000000
    43  O    7.704068   0.301604   0.000000  -0.000000
    44  H    0.301604   0.470498   0.000000   0.000000
    45  O    0.000000   0.000000   7.706173   0.300096
    46  H   -0.000000   0.000000   0.300096   0.470515
 Mulliken charges:
               1
     1  C   -0.086300
     2  C   -0.121868
     3  C   -0.133090
     4  C   -0.086516
     5  C   -0.001913
     6  C   -0.133287
     7  H    0.103903
     8  H    0.126643
     9  H    0.100953
    10  H    0.126319
    11  C    0.037581
    12  C   -0.153160
    13  C   -0.157061
    14  C   -0.108648
    15  C   -0.131179
    16  C   -0.017499
    17  H    0.122003
    18  H    0.120799
    19  H    0.137708
    20  H    0.151724
    21  H    0.101099
    22  N   -0.003084
    23  C    0.050517
    24  C   -0.206951
    25  C   -0.181622
    26  C    0.066081
    27  C   -0.116798
    28  C   -0.152764
    29  H    0.155020
    30  H    0.155812
    31  H    0.100458
    32  H    0.098764
    33  C   -0.212413
    34  C   -0.033247
    35  C   -0.007729
    36  C   -0.181467
    37  C   -0.212210
    38  C    0.129871
    39  H    0.134420
    40  H    0.131654
    41  H    0.106923
    42  H    0.117554
    43  O   -0.239328
    44  H    0.268927
    45  O   -0.235384
    46  H    0.268787
 Sum of Mulliken charges =  -0.00000
 Mulliken charges with hydrogens summed into heavy atoms:
               1
     1  C    0.014799
     2  C   -0.017966
     3  C   -0.006447
     4  C    0.014437
     5  C   -0.001913
     6  C   -0.006968
    11  C    0.037581
    12  C   -0.031157
    13  C   -0.036263
    14  C    0.029060
    15  C    0.020546
    16  C   -0.017499
    22  N   -0.003084
    23  C    0.050517
    24  C   -0.051931
    25  C   -0.025810
    26  C    0.066081
    27  C   -0.016339
    28  C   -0.054000
    33  C   -0.212413
    34  C    0.101173
    35  C    0.123925
    36  C   -0.074544
    37  C   -0.094656
    38  C    0.129871
    43  O    0.029598
    45  O    0.033403
 Electronic spatial extent (au):  <R**2>=          13387.1502
 Charge=             -0.0000 electrons
 Dipole moment (field-independent basis, Debye):
    X=              1.3751    Y=             -0.9865    Z=             -1.4393  Tot=              2.2217
 Quadrupole moment (field-independent basis, Debye-Ang):
   XX=           -138.1061   YY=           -146.2332   ZZ=           -152.3613
   XY=             -3.4882   XZ=             -8.5343   YZ=             -6.7996
 Traceless Quadrupole moment (field-independent basis, Debye-Ang):
   XX=              7.4608   YY=             -0.6664   ZZ=             -6.7944
   XY=             -3.4882   XZ=             -8.5343   YZ=             -6.7996
 Octapole moment (field-independent basis, Debye-Ang**2):
  XXX=             59.2370  YYY=            -67.6950  ZZZ=              5.6400  XYY=            112.0186
  XXY=             -5.9572  XXZ=            -38.6286  XZZ=             -8.8832  YZZ=             13.2828
  YYZ=            -22.9677  XYZ=            -17.7637
 Hexadecapole moment (field-independent basis, Debye-Ang**3):
 XXXX=         -11950.1829 YYYY=          -4116.4851 ZZZZ=           -793.5761 XXXY=            -68.2602
 XXXZ=           -183.6312 YYYX=           -246.9810 YYYZ=           -104.0107 ZZZX=              4.4139
 ZZZY=            -16.0113 XXYY=          -2502.3984 XXZZ=          -2236.9043 YYZZ=           -824.7742
 XXYZ=           -273.7990 YYXZ=            -95.3435 ZZXY=             47.6328
 N-N= 2.186775923160D+03 E-N=-7.005285328755D+03  KE= 1.125539770700D+03
 No NMR shielding tensors so no spin-rotation constants.
 Leave Link  601 at Sun Jan 17 21:17:54 2021, MaxMem=  4026531840 cpu:               4.7 elap:               0.8
 (Enter /opt/ohpc/pub/libs/gaussian/g16-A.03/sandybridge/g16/l9999.exe)

 Test job not archived.
 1\1\GINC-CASCADEB002\SP\RLC-wHPBE\TZVP\C24H19N1O2\RDU230\17-Jan-2021\0
 \\#P LC-wHPBE/TZVP iop(3/107=0181600000, 3/108=0181600000) scf=(conver
 =6,fermi,ndamp=35,noincfock,novaracc,vshift=500,xqc)\\H19 C24 N1 O2\\0
 ,1\C,0,-6.538108,-0.217341,1.255514\C,0,-7.258661,0.087287,0.107878\C,
 0,-5.15139,-0.259049,1.219222\C,0,-6.580697,0.348691,-1.075777\C,0,-4.
 458004,0.000662,0.035726\C,0,-5.193998,0.304569,-1.110911\H,0,-8.34564
 4,0.121015,0.135956\H,0,-4.59391,-0.476283,2.12835\H,0,-7.136138,0.581
 164,-1.982188\H,0,-4.671509,0.488761,-2.047704\C,0,-2.974479,-0.044963
 ,-0.00277\C,0,-2.240322,0.918366,-0.694597\C,0,-2.265576,-1.051297,0.6
 54611\C,0,-0.856277,0.875925,-0.739808\C,0,-0.88157,-1.094369,0.628888
 \C,0,-0.155643,-0.133238,-0.077397\H,0,-2.762026,1.727417,-1.202285\H,
 0,-2.809037,-1.823891,1.195264\H,0,-0.306381,1.639189,-1.284917\H,0,-0
 .352632,-1.885069,1.15502\H,0,-7.059465,-0.416189,2.189743\N,0,1.25702
 6,-0.160831,-0.103806\C,0,1.965402,-1.377887,-0.17457\C,0,3.190004,-1.
 508547,0.478017\C,0,1.461496,-2.456008,-0.912094\C,0,3.903051,-2.69689
 1,0.390217\C,0,2.178621,-3.638306,-0.97461\C,0,3.402953,-3.775056,-0.3
 32839\H,0,3.600761,-0.690157,1.062074\H,0,0.51484,-2.358097,-1.435231\
 H,0,1.782807,-4.471654,-1.551437\H,0,3.963923,-4.706428,-0.398055\C,0,
 1.972861,1.068372,-0.045814\C,0,2.971482,1.350948,-0.972341\C,0,1.6830
 86,2.012203,0.939258\C,0,3.67678,2.543988,-0.910119\C,0,2.365608,3.214
 996,0.992156\C,0,3.371443,3.4833,0.069272\H,0,3.205268,0.621566,-1.744
 392\H,0,0.904271,1.798314,1.667748\H,0,4.460878,2.747602,-1.639197\H,0
 ,2.139895,3.954598,1.756001\O,0,4.022986,4.680331,0.173244\H,0,4.69528
 7,4.73835,-0.517835\O,0,5.097214,-2.751708,1.053752\H,0,5.479651,-3.63
 1493,0.941087\\Version=EM64L-G16RevA.03\State=1-A\HF=-1130.4927941\RMS
 D=9.797e-07\Dipole=0.5410137,-0.3881383,-0.5662574\Quadrupole=5.546912
 5,-0.4954232,-5.0514893,-2.5933684,-6.3450772,-5.0553024\PG=C01 [X(C24
 H19N1O2)]\\@


 ALTHOUGH J.J. COULD DIAGNOSE THE FAULTS OF AN
 APPARATUS WITH UNCANNY ACCURACY, IT WAS JUST AS
 WELL NOT TO LET HIM HANDLE IT.
   -- GEORGE THOMPSON, ABOUT HIS FATHER
 Job cpu time:       0 days  1 hours 26 minutes 54.7 seconds.
 Elapsed time:       0 days  0 hours 10 minutes 54.3 seconds.
 File lengths (MBytes):  RWF=    176 Int=      0 D2E=      0 Chk=     28 Scr=      8
 Normal termination of Gaussian 16 at Sun Jan 17 21:17:54 2021.
